/*--------------------------------*- C++ -*----------------------------------*\
  =========                 |
  \\      /  F ield         | OpenFOAM: The Open Source CFD Toolbox
   \\    /   O peration     | Website:  https://openfoam.org
    \\  /    A nd           | Version:  6
     \\/     M anipulation  |
\*---------------------------------------------------------------------------*/
FoamFile
{
    version     2.0;
    format      ascii;
    class       volScalarField;
    location    "710";
    object      epsilon;
}
// * * * * * * * * * * * * * * * * * * * * * * * * * * * * * * * * * * * * * //

dimensions      [0 2 -3 0 0 0 0];

internalField   nonuniform List<scalar> 
458
(
0.000432956
0.000558106
0.0005968
0.000686619
0.00077694
0.000869456
0.000969091
0.00107774
0.00117236
0.00123452
0.0012416
0.00117509
0.00102241
0.0007441
0.000325053
3.92424e-05
6.32163e-05
9.21266e-05
0.000104448
9.96257e-05
8.16384e-05
6.442e-05
5.12324e-05
4.13795e-05
3.39225e-05
2.81926e-05
2.37427e-05
2.02116e-05
1.7317e-05
1.48403e-05
1.2603e-05
1.13861e-05
8.83868e-06
0.00106135
0.00158382
0.000518779
0.000502947
0.000518824
0.000551343
0.000606758
0.000689046
0.000780365
0.000854617
0.00088268
0.000848358
0.000757321
0.000624273
0.000502259
0.000747635
0.000426942
0.000231878
3.83008e-05
7.53807e-05
9.27934e-05
9.34924e-05
8.97976e-05
9.01006e-05
7.06077e-05
5.35259e-05
4.08289e-05
3.15521e-05
2.47518e-05
1.97312e-05
1.59741e-05
1.31736e-05
1.14101e-05
1.06917e-05
3.04798e-05
2.00732e-05
0.00190772
0.00384863
0.000604145
0.000458594
0.000466366
0.000508569
0.000580968
0.000684295
0.000797879
0.000885183
0.000918851
0.000888679
0.000802606
0.000667599
0.000517995
0.000416742
0.000353366
0.000382114
0.000139899
0.00013925
0.000125633
0.000111594
0.000103608
0.000198253
0.000133029
9.1169e-05
6.45495e-05
4.73014e-05
3.58228e-05
2.79939e-05
2.25691e-05
1.88711e-05
1.48319e-05
1.31298e-05
6.48506e-05
3.31278e-05
0.00306372
0.00799579
0.000904376
0.000439248
0.000429505
0.000481602
0.000575454
0.000718617
0.000863535
0.000958981
0.000990247
0.000953859
0.000855993
0.00070391
0.000548967
0.00043275
0.000366214
0.000380823
0.000584271
0.000376144
0.000245397
0.000178458
0.000140615
0.00012313
0.000283439
0.000218316
0.000180217
0.000155131
0.000135828
0.000118296
0.000103112
8.8541e-05
7.33313e-05
4.54143e-05
2.92984e-05
0.00011462
5.06169e-05
0.0046509
0.0144287
0.00174129
0.000471186
0.000395911
0.000451984
0.000589503
0.000833725
0.00101945
0.00111281
0.00112938
0.00107017
0.000938232
0.000754293
0.000565288
0.000420411
0.00033196
0.000302949
0.000304051
0.000253821
0.00020958
0.000175304
0.000146465
0.000122214
0.000113193
0.000103922
9.76277e-05
9.22688e-05
8.62607e-05
7.88174e-05
7.09233e-05
6.31869e-05
5.5925e-05
4.60432e-05
3.61979e-05
7.47464e-05
0.000114571
0.000120961
0.000143498
0.000184273
0.00687326
0.0217361
0.0040034
0.000791401
0.00046555
0.00047459
0.000701848
0.00112119
0.00130737
0.00136706
0.00134477
0.00124726
0.00106813
0.000825857
0.000578077
0.000389062
0.000279103
0.000238773
0.000228467
0.000218471
0.000201356
0.000176969
0.000149482
0.000123907
0.000107445
0.000100997
9.98164e-05
9.94004e-05
9.72522e-05
9.17036e-05
8.17415e-05
7.04734e-05
5.98241e-05
5.0161e-05
4.34501e-05
5.55246e-05
8.83467e-05
0.000106119
0.000206687
0.000205612
0.00966016
0.0261955
0.00879791
0.00280288
0.00145584
0.00114258
0.00148521
0.00172832
0.00178745
0.00175055
0.00165121
0.00148477
0.00123095
0.000908776
0.00058866
0.000356208
0.00023476
0.000200459
0.000202618
0.000203261
0.000190271
0.000167066
0.000141518
0.00012034
0.000109167
0.00010862
0.000113713
0.000120194
0.000125759
0.000128201
0.000124121
0.000111112
9.75136e-05
8.59604e-05
8.04731e-05
8.87442e-05
0.000120602
0.000176792
0.000327328
0.000344828
0.010448
0.0300921
0.0160956
0.00965476
0.00597309
0.00418399
0.00338609
0.00287786
0.00253977
0.00228283
0.00204077
0.00176245
0.00139822
0.000968966
0.000561677
0.000300714
0.000190607
0.00017461
0.000179864
0.000177341
0.000162405
0.000142123
0.00012425
0.000113624
0.000112287
0.000119097
0.000131198
0.000146873
0.000165747
0.000187728
0.000212029
0.000232958
0.000246045
0.000273172
0.000329149
0.000480131
0.000820486
0.00137757
0.00410982
0.00128191
0.00984445
0.0172561
0.0132409
0.00999081
0.00750896
0.00579522
0.00459104
0.00379231
0.00325289
0.00282578
0.00242897
0.00200809
0.00148478
0.000914462
0.000407146
0.000216243
0.000159042
0.000147697
0.000144616
0.000137078
0.000124721
0.00011258
0.000105032
0.000104146
0.000109972
0.000121531
0.00013807
0.000159893
0.000188356
0.000225709
0.000275021
0.000339914
0.000427245
0.000551957
0.000734029
0.000976685
0.00125088
0.00149851
0.00170329
0.00104491
0.00347834
0.00471982
0.00512325
0.00502934
0.00473481
0.00432204
0.00378604
0.00316097
0.00255014
0.00194959
0.00116359
0.000536427
0.000254479
0.000159675
0.000129173
0.000118204
0.000110931
0.000103104
9.54446e-05
8.99468e-05
8.841e-05
9.12662e-05
9.81239e-05
0.00010858
0.000122635
0.000140868
0.000164526
0.000195733
0.000237962
0.000296984
0.000378448
0.000488582
0.000629948
0.000786455
0.000911324
0.000944863
0.000871323
0.000544324
0.00289501
0.00862397
0.008286
0.00717668
0.00607872
0.00479261
0.00348091
0.00225787
0.00128387
0.000710305
0.000375162
0.000215264
0.000151095
0.000123985
0.000110892
0.000101999
9.40115e-05
8.6856e-05
8.15353e-05
7.87837e-05
7.88768e-05
8.19263e-05
8.78927e-05
9.69559e-05
0.000109638
0.000126848
0.000149977
0.000181096
0.000223164
0.000279951
0.000356587
0.000458271
0.000585833
0.000728656
0.000842104
0.00095634
0.000733751
0.000565834
0.00336801
0.00362384
0.00386704
0.00532513
0.00449635
0.00312868
0.00187906
0.00115836
0.000824009
0.000572536
0.000398573
0.00029009
0.000215254
0.000168037
0.000139667
0.000121094
0.000107408
9.64947e-05
8.80657e-05
8.26641e-05
8.07067e-05
8.21692e-05
8.66264e-05
9.34675e-05
0.000102614
0.000114203
0.000128576
0.000146322
0.000168399
0.000196442
0.00023196
0.000276279
0.000331565
0.000400489
0.000486063
0.000603696
0.000660626
0.00062086
0.000499621
0.000395276
)
;

boundaryField
{
    floor
    {
        Cmu             0.09;
        kappa           0.41;
        E               9.8;
        type            epsilonWallFunction;
        value           nonuniform List<scalar> 
36
(
0.000325053
3.92424e-05
6.32163e-05
9.21266e-05
0.000104448
9.96257e-05
8.16384e-05
6.442e-05
5.12324e-05
4.13795e-05
3.39225e-05
2.81926e-05
2.37427e-05
2.02116e-05
1.7317e-05
1.48403e-05
1.2603e-05
1.13861e-05
8.83868e-06
8.83868e-06
2.00732e-05
3.31278e-05
5.06169e-05
0.000120961
0.000143498
0.000184273
0.000325053
0.000747635
0.000426942
0.000231878
3.92424e-05
0.000231878
3.83008e-05
0.000382114
0.000139899
0.000584271
)
;
    }
    ceiling
    {
        Cmu             0.09;
        kappa           0.41;
        E               9.8;
        type            epsilonWallFunction;
        value           nonuniform List<scalar> 
43
(
0.00336801
0.00362384
0.00386704
0.00532513
0.00449635
0.00312868
0.00187906
0.00115836
0.000824009
0.000572536
0.000398573
0.00029009
0.000215254
0.000168037
0.000139667
0.000121094
0.000107408
9.64947e-05
8.80657e-05
8.26641e-05
8.07067e-05
8.21692e-05
8.66264e-05
9.34675e-05
0.000102614
0.000114203
0.000128576
0.000146322
0.000168399
0.000196442
0.00023196
0.000276279
0.000331565
0.000400489
0.000486063
0.000603696
0.000660626
0.00062086
0.000499621
0.000395276
0.00984445
0.0172561
0.00289501
)
;
    }
    sWall
    {
        Cmu             0.09;
        kappa           0.41;
        E               9.8;
        type            epsilonWallFunction;
        value           uniform 0.00336801;
    }
    nWall
    {
        Cmu             0.09;
        kappa           0.41;
        E               9.8;
        type            epsilonWallFunction;
        value           nonuniform List<scalar> 6(0.000184273 0.000205612 0.000344828 0.000544324 0.000565834 0.000395276);
    }
    sideWalls
    {
        type            empty;
    }
    glass1
    {
        Cmu             0.09;
        kappa           0.41;
        E               9.8;
        type            epsilonWallFunction;
        value           nonuniform List<scalar> 9(0.000432956 0.00106135 0.00190772 0.00306372 0.0046509 0.00687326 0.00966016 0.010448 0.00984445);
    }
    glass2
    {
        Cmu             0.09;
        kappa           0.41;
        E               9.8;
        type            epsilonWallFunction;
        value           nonuniform List<scalar> 2(0.00128191 0.00104491);
    }
    sun
    {
        Cmu             0.09;
        kappa           0.41;
        E               9.8;
        type            epsilonWallFunction;
        value           nonuniform List<scalar> 
14
(
0.000432956
0.000558106
0.0005968
0.000686619
0.00077694
0.000869456
0.000969091
0.00107774
0.00117236
0.00123452
0.0012416
0.00117509
0.00102241
0.0007441
)
;
    }
    Table_master
    {
        Cmu             0.09;
        kappa           0.41;
        E               9.8;
        type            epsilonWallFunction;
        value           nonuniform List<scalar> 9(0.000198253 0.000133029 9.1169e-05 6.45495e-05 4.73014e-05 3.58228e-05 2.79939e-05 2.25691e-05 1.88711e-05);
    }
    Table_slave
    {
        Cmu             0.09;
        kappa           0.41;
        E               9.8;
        type            epsilonWallFunction;
        value           nonuniform List<scalar> 9(0.000283439 0.000218316 0.000180217 0.000155131 0.000135828 0.000118296 0.000103112 8.8541e-05 7.33313e-05);
    }
    inlet
    {
        type            turbulentMixingLengthDissipationRateInlet;
        mixingLength    0.01;
        phi             phi;
        k               k;
        value           uniform 0.000471672;
    }
    outlet
    {
        type            zeroGradient;
    }
}


// ************************************************************************* //
