/*--------------------------------*- C++ -*----------------------------------*\
  =========                 |
  \\      /  F ield         | OpenFOAM: The Open Source CFD Toolbox
   \\    /   O peration     | Website:  https://openfoam.org
    \\  /    A nd           | Version:  6
     \\/     M anipulation  |
\*---------------------------------------------------------------------------*/
FoamFile
{
    version     2.0;
    format      ascii;
    class       volVectorField;
    location    "710";
    object      U;
}
// * * * * * * * * * * * * * * * * * * * * * * * * * * * * * * * * * * * * * //

dimensions      [0 1 -1 0 0 0 0];

internalField   nonuniform List<vector> 
458
(
(0.0347936 0.0885306 0)
(-0.172099 0.0265935 0)
(-0.199384 0.0191156 0)
(-0.233264 0.0130797 0)
(-0.258436 0.00641009 0)
(-0.273636 -0.000810531 0)
(-0.276756 -0.0087861 0)
(-0.265494 -0.0177888 0)
(-0.239418 -0.0274391 0)
(-0.199689 -0.0361222 0)
(-0.150412 -0.042056 0)
(-0.0977925 -0.0436453 0)
(-0.0487008 -0.039061 0)
(-0.00626041 -0.0236554 0)
(-0.0102841 0.00976686 0)
(-0.010238 0.0105134 0)
(-0.03726 -0.0174851 0)
(-0.0145117 -0.0291013 0)
(0.013665 -0.0251871 0)
(0.0334439 -0.0178976 0)
(0.0480658 -0.0095587 0)
(0.0568284 -0.0051781 0)
(0.0607082 -0.00363324 0)
(0.0621444 -0.00308464 0)
(0.0627954 -0.00276216 0)
(0.0631047 -0.00250857 0)
(0.0630404 -0.00224055 0)
(0.0624407 -0.00179754 0)
(0.0608504 -0.000840878 0)
(0.0572539 0.00106852 0)
(0.0505395 0.00316968 0)
(0.0451275 0.00508895 0)
(-0.0141184 0.0219567 0)
(0.214224 0.181906 0)
(-0.162156 0.0710178 0)
(-0.162969 0.0577732 0)
(-0.198686 0.045746 0)
(-0.224162 0.0319852 0)
(-0.240134 0.0161666 0)
(-0.244628 -0.00242617 0)
(-0.23512 -0.0239905 0)
(-0.211855 -0.0461977 0)
(-0.176457 -0.0649521 0)
(-0.133317 -0.0764416 0)
(-0.0880853 -0.0781966 0)
(-0.0462238 -0.0687065 0)
(-0.00999871 -0.0459841 0)
(0.0194149 -0.0133776 0)
(0.0442372 0.00785586 0)
(0.0548342 0.03476 0)
(-0.011827 0.0706766 0)
(0.0670384 0.0439812 0)
(0.0102767 -0.0218361 0)
(0.0265107 -0.0378991 0)
(0.0407387 -0.0356512 0)
(0.0531318 -0.027358 0)
(0.0595608 -0.0121 0)
(0.0611817 -0.00275421 0)
(0.06123 0.000747567 0)
(0.0613932 0.00202247 0)
(0.0617165 0.00272211 0)
(0.061941 0.00322533 0)
(0.0620005 0.00367763 0)
(0.0618979 0.00440708 0)
(0.0611877 0.00620149 0)
(0.0577933 0.0112132 0)
(0.0491065 0.015532 0)
(0.0476943 0.0187079 0)
(-0.0583808 0.0475673 0)
(0.379468 0.272978 0)
(-0.180107 0.113769 0)
(-0.123529 0.0941236 0)
(-0.159212 0.0724364 0)
(-0.182612 0.0494964 0)
(-0.198418 0.023628 0)
(-0.204063 -0.00656018 0)
(-0.195361 -0.0410174 0)
(-0.173563 -0.0758239 0)
(-0.141384 -0.103686 0)
(-0.103793 -0.118973 0)
(-0.0658458 -0.119152 0)
(-0.031778 -0.104087 0)
(-0.00223623 -0.0743544 0)
(0.0220563 -0.0400516 0)
(0.0376103 -0.0152058 0)
(0.0431839 0.0131663 0)
(-0.0236554 0.0623074 0)
(0.122493 -0.00752149 0)
(0.0725066 -0.0320805 0)
(0.0642992 -0.0419204 0)
(0.0672404 -0.0417598 0)
(0.0718481 -0.0380701 0)
(0.0734847 -0.0282435 0)
(0.0643585 -0.0183368 0)
(0.0573994 -0.01303 0)
(0.0548 -0.0100813 0)
(0.0541092 -0.00818618 0)
(0.0538767 -0.00689678 0)
(0.0539487 -0.00590196 0)
(0.0547483 -0.00475512 0)
(0.0571959 -0.00140332 0)
(0.0560878 0.0149826 0)
(0.0445749 0.0258668 0)
(0.0541154 0.033244 0)
(-0.0993257 0.07282 0)
(0.529952 0.346679 0)
(-0.216643 0.151795 0)
(-0.0802061 0.125851 0)
(-0.115536 0.0962958 0)
(-0.13341 0.0672128 0)
(-0.146918 0.0337423 0)
(-0.152496 -0.00714603 0)
(-0.142583 -0.055107 0)
(-0.121237 -0.102366 0)
(-0.0929199 -0.137887 0)
(-0.0624713 -0.15545 0)
(-0.0335134 -0.153422 0)
(-0.00874165 -0.133397 0)
(0.0129147 -0.0978754 0)
(0.0304742 -0.0589369 0)
(0.044387 -0.0228739 0)
(0.0599748 0.0131562 0)
(0.0588375 0.0534334 0)
(0.100339 0.0614967 0)
(0.0988161 -0.0024345 0)
(0.0851433 -0.0293749 0)
(0.0784472 -0.0376706 0)
(0.073576 -0.0383819 0)
(0.0669516 -0.0341207 0)
(0.0665039 -0.0208431 0)
(0.0771834 -0.0138353 0)
(0.0861601 -0.0101162 0)
(0.0915765 -0.00783422 0)
(0.0948336 -0.00592726 0)
(0.0962601 -0.00386699 0)
(0.0945076 -0.00119782 0)
(0.0882534 0.00247623 0)
(0.0757151 0.00774005 0)
(0.0598004 0.0250875 0)
(0.044061 0.0405789 0)
(0.0629598 0.0533301 0)
(-0.131317 0.0943109 0)
(0.6626 0.403835 0)
(-0.262314 0.182716 0)
(-0.0350334 0.145269 0)
(-0.0687325 0.111312 0)
(-0.0779198 0.0792139 0)
(-0.0862601 0.0412217 0)
(-0.0890025 -0.00803026 0)
(-0.073952 -0.0688851 0)
(-0.0534045 -0.125966 0)
(-0.0314992 -0.165123 0)
(-0.011201 -0.181866 0)
(0.00623138 -0.175979 0)
(0.0193886 -0.15144 0)
(0.0304038 -0.114484 0)
(0.0402467 -0.0729108 0)
(0.0494805 -0.0336895 0)
(0.0619676 0.00069266 0)
(0.0760578 0.0197239 0)
(0.0903367 -0.000553125 0)
(0.0896859 -0.0213546 0)
(0.0826095 -0.0300092 0)
(0.0737899 -0.0325138 0)
(0.0655257 -0.0315929 0)
(0.0585568 -0.0266131 0)
(0.0567585 -0.0155061 0)
(0.0603101 -0.00903446 0)
(0.0646565 -0.00639093 0)
(0.0683881 -0.00485349 0)
(0.0716441 -0.00277784 0)
(0.0741647 0.000753079 0)
(0.0750321 0.00595106 0)
(0.0731486 0.0129781 0)
(0.0682461 0.022432 0)
(0.0612044 0.037167 0)
(0.0500561 0.053626 0)
(0.074848 0.0727313 0)
(-0.00683399 0.101415 0)
(0.0557706 0.150665 0)
(-0.0835421 0.0748221 0)
(-0.277793 0.000470371 0)
(0.761809 0.451346 0)
(-0.308506 0.203368 0)
(0.00243447 0.143893 0)
(-0.0205559 0.116242 0)
(-0.0197474 0.085693 0)
(-0.0214479 0.0472621 0)
(-0.0142278 -0.00698371 0)
(0.0104376 -0.0860279 0)
(0.0270293 -0.146253 0)
(0.038927 -0.182462 0)
(0.0461359 -0.194566 0)
(0.0489733 -0.185035 0)
(0.0487012 -0.158073 0)
(0.047291 -0.119857 0)
(0.0461097 -0.0778821 0)
(0.0465156 -0.0396627 0)
(0.0508547 -0.00996234 0)
(0.0599873 0.00484449 0)
(0.0662527 -0.00103029 0)
(0.0649914 -0.0109877 0)
(0.0585947 -0.0187697 0)
(0.0504105 -0.0228597 0)
(0.0427567 -0.0236036 0)
(0.036763 -0.0210974 0)
(0.0342011 -0.015759 0)
(0.0353485 -0.0123034 0)
(0.0383046 -0.0108834 0)
(0.0419652 -0.00980659 0)
(0.0460355 -0.00768002 0)
(0.0502298 -0.00342616 0)
(0.0544532 0.00365553 0)
(0.056978 0.0131708 0)
(0.0581484 0.0249326 0)
(0.0592766 0.0395642 0)
(0.0583575 0.0559953 0)
(0.0796978 0.0766819 0)
(0.0654417 0.0890084 0)
(0.0997176 0.0967486 0)
(0.117478 0.0572044 0)
(-0.136906 -0.0299474 0)
(0.815559 0.494205 0)
(-0.334075 0.187389 0)
(0.032255 0.0937925 0)
(0.0391036 0.101013 0)
(0.0459929 0.0829459 0)
(0.0517074 0.0393043 0)
(0.079235 -0.0312619 0)
(0.10325 -0.103785 0)
(0.113416 -0.157073 0)
(0.11298 -0.186358 0)
(0.104683 -0.192431 0)
(0.0908743 -0.178748 0)
(0.0741655 -0.149714 0)
(0.0575628 -0.111493 0)
(0.0430242 -0.0708432 0)
(0.0326575 -0.0356394 0)
(0.0281274 -0.0107155 0)
(0.0295118 0.00102512 0)
(0.0311357 -0.000247829 0)
(0.0296251 -0.00653193 0)
(0.0249623 -0.0125813 0)
(0.0188326 -0.0163048 0)
(0.0127988 -0.0176712 0)
(0.00798435 -0.0170583 0)
(0.00561862 -0.0151816 0)
(0.00595901 -0.0141115 0)
(0.00799978 -0.0139898 0)
(0.0109997 -0.0137823 0)
(0.0147975 -0.0124127 0)
(0.0194772 -0.00878774 0)
(0.0256412 -0.00167317 0)
(0.0332658 0.00884673 0)
(0.0400427 0.0208728 0)
(0.0478559 0.0341435 0)
(0.0558589 0.0479507 0)
(0.0754357 0.0644447 0)
(0.0882215 0.0697826 0)
(0.119668 0.0632219 0)
(0.163387 0.0513089 0)
(-0.0203215 0.0954775 0)
(0.921821 0.497287 0)
(-0.0766171 0.167432 0)
(0.110642 0.0261431 0)
(0.163798 0.0227188 0)
(0.161498 0.0154349 0)
(0.163 -0.0295033 0)
(0.196663 -0.0805218 0)
(0.211435 -0.125627 0)
(0.205507 -0.158325 0)
(0.185215 -0.173991 0)
(0.155681 -0.171652 0)
(0.121156 -0.153928 0)
(0.0853414 -0.124206 0)
(0.0524027 -0.0879944 0)
(0.024487 -0.0509811 0)
(0.00513114 -0.0218603 0)
(-0.00462855 -0.00437382 0)
(-0.00656426 0.00180427 0)
(-0.00645491 0.000704694 0)
(-0.00766428 -0.00361749 0)
(-0.0109719 -0.00795597 0)
(-0.015473 -0.0110066 0)
(-0.0201045 -0.0127752 0)
(-0.0239663 -0.0136387 0)
(-0.026349 -0.0141209 0)
(-0.0272431 -0.0148951 0)
(-0.0272079 -0.0158941 0)
(-0.0266286 -0.0166249 0)
(-0.0255073 -0.0165438 0)
(-0.0235341 -0.0150743 0)
(-0.019913 -0.0114994 0)
(-0.011772 -0.00494564 0)
(-0.000123593 0.00441955 0)
(0.0110645 0.0137379 0)
(0.022669 0.0208514 0)
(0.0398771 0.0277255 0)
(0.0554134 0.0224451 0)
(0.079561 0.00565511 0)
(0.14639 0.047975 0)
(-0.428303 0.212643 0)
(1.06587 0.444153 0)
(0.518224 0.298292 0)
(0.529538 0.249815 0)
(0.518453 0.182831 0)
(0.469967 0.122344 0)
(0.433351 0.0600242 0)
(0.392214 -0.00750928 0)
(0.342994 -0.0670409 0)
(0.289214 -0.107884 0)
(0.23284 -0.126588 0)
(0.175415 -0.125045 0)
(0.118921 -0.108841 0)
(0.0654506 -0.0821958 0)
(0.0202218 -0.0511652 0)
(-0.0161271 -0.0207466 0)
(-0.0329711 -0.0059918 0)
(-0.0401568 0.000503037 0)
(-0.0417056 0.00225887 0)
(-0.0420868 0.00105767 0)
(-0.0432323 -0.00158438 0)
(-0.0458603 -0.00445349 0)
(-0.0495029 -0.00697404 0)
(-0.0535154 -0.00906818 0)
(-0.0573701 -0.0108205 0)
(-0.0608142 -0.0123498 0)
(-0.0640078 -0.0137527 0)
(-0.0673524 -0.0148685 0)
(-0.071224 -0.0153379 0)
(-0.0759755 -0.0146698 0)
(-0.0820766 -0.0122176 0)
(-0.0902179 -0.00715176 0)
(-0.101126 0.00138891 0)
(-0.112773 0.0132875 0)
(-0.127992 0.0283895 0)
(-0.152904 0.0467648 0)
(-0.190217 0.0673773 0)
(-0.241603 0.0862126 0)
(-0.297523 0.0999064 0)
(-0.371605 0.106901 0)
(-0.650619 0.106298 0)
(0.233984 0.0527329 0)
(0.305912 0.115798 0)
(0.321241 0.0911715 0)
(0.29967 0.039389 0)
(0.275091 -0.0107415 0)
(0.244401 -0.0470123 0)
(0.203082 -0.0684264 0)
(0.153945 -0.0753671 0)
(0.10034 -0.0686204 0)
(0.0460432 -0.0528232 0)
(-0.0087691 -0.0293917 0)
(-0.0452249 -0.0113865 0)
(-0.0636701 -0.00303027 0)
(-0.0709773 -0.000661993 0)
(-0.0731951 -0.000199098 0)
(-0.0735076 -0.000899042 0)
(-0.0738061 -0.00249811 0)
(-0.0749443 -0.00459263 0)
(-0.0771467 -0.00668534 0)
(-0.0803891 -0.0084673 0)
(-0.0841665 -0.00994562 0)
(-0.0882556 -0.0110839 0)
(-0.0926729 -0.0118791 0)
(-0.0975719 -0.0122911 0)
(-0.103102 -0.0121316 0)
(-0.109294 -0.0110526 0)
(-0.116016 -0.00858198 0)
(-0.122923 -0.00418013 0)
(-0.129394 0.00271085 0)
(-0.134379 0.0123053 0)
(-0.138353 0.0255829 0)
(-0.141792 0.0431477 0)
(-0.146003 0.0641955 0)
(-0.151756 0.0850306 0)
(-0.155339 0.0955357 0)
(-0.141282 0.0734011 0)
(-0.110226 -0.024992 0)
(-0.286583 -0.213715 0)
(0.120089 0.324253 0)
(0.00835361 0.203466 0)
(0.0391749 0.118291 0)
(0.0583378 0.0602793 0)
(0.0629341 0.0215142 0)
(0.0599014 -0.00483747 0)
(0.0399586 -0.0198868 0)
(0.00510872 -0.0188296 0)
(-0.0368523 -0.00163959 0)
(-0.070325 0.0128882 0)
(-0.091369 0.020846 0)
(-0.100329 0.0231988 0)
(-0.102512 0.023306 0)
(-0.102438 0.0233403 0)
(-0.101554 0.024035 0)
(-0.100515 0.0251475 0)
(-0.0997861 0.0262798 0)
(-0.0996514 0.0270317 0)
(-0.100168 0.0269821 0)
(-0.101289 0.0257936 0)
(-0.103062 0.023759 0)
(-0.105418 0.0215098 0)
(-0.108299 0.0193267 0)
(-0.111615 0.0173596 0)
(-0.115226 0.0157152 0)
(-0.118914 0.014507 0)
(-0.122369 0.013871 0)
(-0.125106 0.0139618 0)
(-0.126311 0.0154638 0)
(-0.124816 0.019837 0)
(-0.119039 0.0282477 0)
(-0.107595 0.0416986 0)
(-0.0903366 0.0602062 0)
(-0.0683081 0.0803968 0)
(-0.043441 0.0948141 0)
(-0.00758109 0.085756 0)
(0.146934 0.00928829 0)
(-0.209917 -0.129651 0)
(-0.422023 -0.515964 0)
(-0.637257 -0.143297 0)
(-0.449395 0.177626 0)
(-0.358009 0.0559465 0)
(-0.214081 -0.00563741 0)
(-0.145908 -0.0477811 0)
(-0.117546 -0.0703711 0)
(-0.113388 -0.0711149 0)
(-0.122709 -0.0624411 0)
(-0.135135 -0.0547395 0)
(-0.140543 -0.0502807 0)
(-0.138741 -0.0488211 0)
(-0.134256 -0.049677 0)
(-0.129046 -0.0524555 0)
(-0.124552 -0.0559306 0)
(-0.121072 -0.0595278 0)
(-0.118235 -0.0631294 0)
(-0.115785 -0.0667939 0)
(-0.11368 -0.0703765 0)
(-0.111993 -0.0733868 0)
(-0.110859 -0.0752 0)
(-0.110446 -0.0753676 0)
(-0.110856 -0.0739846 0)
(-0.112054 -0.0716576 0)
(-0.113864 -0.0686129 0)
(-0.11606 -0.0649949 0)
(-0.118363 -0.0608442 0)
(-0.120403 -0.056077 0)
(-0.121695 -0.050482 0)
(-0.121597 -0.0436855 0)
(-0.119093 -0.0357099 0)
(-0.112278 -0.0265992 0)
(-0.098351 -0.0158055 0)
(-0.0748098 -0.00242418 0)
(-0.0415349 0.0144164 0)
(0.00931085 0.0363362 0)
(0.0618469 0.042403 0)
(0.10957 0.0241129 0)
(0.172038 -0.0158558 0)
(-0.196333 -0.082584 0)
)
;

boundaryField
{
    floor
    {
        type            noSlip;
    }
    ceiling
    {
        type            noSlip;
    }
    sWall
    {
        type            noSlip;
    }
    nWall
    {
        type            noSlip;
    }
    sideWalls
    {
        type            empty;
    }
    glass1
    {
        type            noSlip;
    }
    glass2
    {
        type            noSlip;
    }
    sun
    {
        type            noSlip;
    }
    Table_master
    {
        type            noSlip;
    }
    Table_slave
    {
        type            noSlip;
    }
    inlet
    {
        type            fixedValue;
        value           uniform (0.46194 -0.191342 0);
    }
    outlet
    {
        type            zeroGradient;
    }
}


// ************************************************************************* //
