/*--------------------------------*- C++ -*----------------------------------*\
  =========                 |
  \\      /  F ield         | OpenFOAM: The Open Source CFD Toolbox
   \\    /   O peration     | Website:  https://openfoam.org
    \\  /    A nd           | Version:  6
     \\/     M anipulation  |
\*---------------------------------------------------------------------------*/
FoamFile
{
    version     2.0;
    format      ascii;
    class       volScalarField;
    location    "1100";
    object      nut;
}
// * * * * * * * * * * * * * * * * * * * * * * * * * * * * * * * * * * * * * //

dimensions      [0 2 -1 0 0 0 0];

internalField   nonuniform List<scalar> 
458
(
0.00106945
0.00116391
0.00119021
0.00124716
0.00129961
0.00134926
0.00139894
0.00144938
0.0014906
0.0015165
0.0015194
0.0014918
0.0014242
0.00128112
0.000972007
0.000480401
0.000563161
0.00063848
0.000665747
0.000655333
0.000613255
0.000566702
0.000525048
0.000488968
0.00045763
0.000430264
0.00040632
0.000385087
0.000365748
0.000347405
0.000328987
0.00031804
0.000292296
0.001442
0.00324164
0.00298996
0.00342594
0.00386065
0.00430782
0.00470909
0.00501939
0.00533806
0.00563629
0.00587545
0.00602067
0.00603412
0.00582405
0.0047332
0.00128306
0.00106447
0.000868495
0.000476536
0.00113087
0.00164811
0.00204856
0.00217522
0.00158531
0.00133832
0.00117025
0.00104621
0.000951184
0.000875784
0.000810752
0.000749654
0.000688666
0.000634192
0.000588521
0.00071999
0.00038423
0.00175326
0.00435724
0.00359578
0.00438429
0.00471586
0.00494873
0.0051277
0.00529283
0.00552254
0.00580164
0.00610662
0.00640561
0.00664182
0.0067245
0.00633617
0.00516401
0.0039136
0.0010258
0.000733928
0.00126646
0.00184285
0.00241623
0.00258006
0.000824279
0.000721638
0.000636241
0.000567073
0.000511253
0.000466018
0.000429248
0.000399511
0.000376382
0.000417086
0.000483044
0.000844799
0.000454074
0.00205318
0.00556611
0.00349818
0.00454252
0.00472425
0.0047065
0.00468997
0.00476919
0.00495598
0.00523199
0.00558276
0.00597427
0.00631742
0.00653327
0.00648452
0.00614907
0.00527743
0.00289741
0.00118178
0.00150469
0.00206857
0.00275922
0.0033581
0.00338779
0.000928554
0.00085117
0.000798462
0.00075956
0.00072666
0.00069395
0.000662895
0.000630079
0.00059172
0.000557311
0.000549168
0.00100694
0.000522993
0.00235971
0.00719273
0.00366961
0.00431239
0.00457207
0.00441774
0.00429213
0.00436418
0.0045614
0.00484848
0.00522654
0.00565583
0.00599212
0.0061598
0.00615585
0.00603844
0.00569044
0.00470556
0.0042649
0.00429589
0.00454641
0.00484494
0.00502833
0.00494611
0.00422019
0.00384698
0.00364133
0.00349404
0.00334492
0.00315296
0.00282613
0.00240524
0.00192653
0.00146538
0.00109905
0.00102394
0.000888916
0.000699197
0.000740172
0.000804523
0.00268786
0.00902563
0.00502633
0.00399304
0.00435204
0.00434346
0.00418319
0.00424346
0.00444448
0.0047315
0.0051149
0.0055263
0.00583768
0.00593769
0.00584395
0.00570938
0.00564875
0.00556764
0.00573528
0.00602611
0.00623037
0.0062672
0.00613052
0.0058438
0.00544306
0.00511741
0.0048638
0.00464031
0.00442074
0.0041876
0.00388641
0.00347344
0.00295114
0.00236042
0.00181372
0.00131512
0.00108088
0.000942914
0.0011874
0.000834448
0.00301085
0.010411
0.00750136
0.00490911
0.00427179
0.00433338
0.00438901
0.00442074
0.0045341
0.00478682
0.00516396
0.00557174
0.00585736
0.00588998
0.00571179
0.00558286
0.00579745
0.00627274
0.00675671
0.00703008
0.00703121
0.00679774
0.00640191
0.00591984
0.00543949
0.00505281
0.00475997
0.00452238
0.00431453
0.00412782
0.00395794
0.00373572
0.00337054
0.00288262
0.00237588
0.00188911
0.00157144
0.00143959
0.00137224
0.000991379
0.0030906
0.00966255
0.00820299
0.00688368
0.00587557
0.00542949
0.00501073
0.0047254
0.0047189
0.00495951
0.00534963
0.00575284
0.00599382
0.00594025
0.00572214
0.00577829
0.00639106
0.00689374
0.00715573
0.00714411
0.00686068
0.00637013
0.00576634
0.00515719
0.00465081
0.00429583
0.00405635
0.00388431
0.00375695
0.00367105
0.00363283
0.00363446
0.00353704
0.00324692
0.00296419
0.00280658
0.00287499
0.00303497
0.0036054
0.0015358
0.00302992
0.00365332
0.00403426
0.00424619
0.00427557
0.00421059
0.00421081
0.00438516
0.004741
0.00519584
0.00566263
0.00603171
0.00615207
0.00594307
0.00588578
0.00619743
0.00655687
0.00668013
0.00659119
0.00627964
0.00575728
0.005112
0.00446762
0.00393866
0.00357258
0.00333938
0.00318293
0.00306402
0.00296262
0.00286739
0.00276977
0.00266261
0.00256542
0.00248132
0.00242566
0.00239441
0.00233493
0.00221224
0.00206299
0.00143465
0.00133527
0.00234675
0.00322191
0.00390661
0.00453187
0.00514118
0.00562568
0.00595274
0.00616765
0.00620119
0.00600244
0.00575773
0.00576029
0.00586378
0.00578503
0.00555235
0.00518526
0.00469093
0.00412231
0.00356662
0.00312418
0.00282612
0.00264333
0.00253112
0.00245661
0.00240226
0.00236061
0.00232989
0.00231262
0.002318
0.00233155
0.00234367
0.00234439
0.00230743
0.00219319
0.00199178
0.00174214
0.00115434
0.00201495
0.0039575
0.00507566
0.00580109
0.0063659
0.00641571
0.00608765
0.00575774
0.00547374
0.0049289
0.00454134
0.00445195
0.00439111
0.00421951
0.00396069
0.00363971
0.00326339
0.00286735
0.0025102
0.0022324
0.00204075
0.00193023
0.0018784
0.00186717
0.00188541
0.00192599
0.00198279
0.00204852
0.00212547
0.00221378
0.00230832
0.00240116
0.00247673
0.00251452
0.00247947
0.00244894
0.00225473
0.00116934
0.00211917
0.00217152
0.00221906
0.00246886
0.0023336
0.00206794
0.00174462
0.0014846
0.00132522
0.00117376
0.00104033
0.000935823
0.000847303
0.000780207
0.000733578
0.00069951
0.000672112
0.000648539
0.000629074
0.00061594
0.00061104
0.000614719
0.000625635
0.000641683
0.000661959
0.000685987
0.000713629
0.000745051
0.000780772
0.000821904
0.000868709
0.000920836
0.000978555
0.00104214
0.00111162
0.0011949
0.00123135
0.00120613
0.00112186
0.00103758
)
;

boundaryField
{
    floor
    {
        type            nutkWallFunction;
        Cmu             0.09;
        kappa           0.41;
        E               9.8;
        value           nonuniform List<scalar> 
36
(
0.000117419
5.72053e-05
6.7728e-05
7.71397e-05
8.05129e-05
7.92266e-05
7.40034e-05
6.81736e-05
6.29075e-05
5.83043e-05
5.42718e-05
5.0722e-05
4.75926e-05
4.47978e-05
4.22352e-05
3.97884e-05
3.73146e-05
3.58357e-05
3.23308e-05
3.23307e-05
4.46841e-05
5.38113e-05
6.26455e-05
8.4628e-05
8.96379e-05
9.74409e-05
0.000117419
0.00015353
0.000128275
0.000105124
5.72053e-05
0.000105124
5.67085e-05
0.000123749
8.88771e-05
0.000141895
)
;
    }
    ceiling
    {
        type            nutkWallFunction;
        Cmu             0.09;
        kappa           0.41;
        E               9.8;
        value           nonuniform List<scalar> 
43
(
0.000246191
0.000251845
0.000256968
0.000283771
0.000269365
0.000240752
0.000205367
0.000176385
0.000158345
0.000140971
0.000125454
0.000113141
0.000102587
9.45015e-05
8.88342e-05
8.46667e-05
8.12975e-05
7.83854e-05
7.59714e-05
7.43373e-05
7.37266e-05
7.41852e-05
7.55439e-05
7.75361e-05
8.00447e-05
8.30056e-05
8.63967e-05
9.02324e-05
9.45698e-05
9.95354e-05
0.000105151
0.000111363
0.000118195
0.000125667
0.000133774
0.000143414
0.00014761
0.00014471
0.000134964
0.000125134
0.000343196
0.000407601
0.000234814
)
;
    }
    sWall
    {
        type            nutkWallFunction;
        Cmu             0.09;
        kappa           0.41;
        E               9.8;
        value           uniform 0.000246258;
    }
    nWall
    {
        type            nutkWallFunction;
        Cmu             0.09;
        kappa           0.41;
        E               9.8;
        value           nonuniform List<scalar> 6(9.74415e-05 0.000101045 0.00011971 0.00013874 0.000140475 0.000125142);
    }
    sideWalls
    {
        type            empty;
    }
    glass1
    {
        type            nutkWallFunction;
        Cmu             0.09;
        kappa           0.41;
        E               9.8;
        value           nonuniform List<scalar> 9(0.000128964 0.000171812 0.000206648 0.000239575 0.000272697 0.000307652 0.000341623 0.000349962 0.000343644);
    }
    glass2
    {
        type            nutkWallFunction;
        Cmu             0.09;
        kappa           0.41;
        E               9.8;
        value           nonuniform List<scalar> 2(0.000182234 0.000170844);
    }
    sun
    {
        type            nutkWallFunction;
        Cmu             0.09;
        kappa           0.41;
        E               9.8;
        value           nonuniform List<scalar> 
14
(
0.00012886
0.00013983
0.000142867
0.000149417
0.000155421
0.00016108
0.000166718
0.000172419
0.000177063
0.000179972
0.000180298
0.000177197
0.000169575
0.000153307
)
;
    }
    Table_master
    {
        type            nutkWallFunction;
        Cmu             0.09;
        kappa           0.41;
        E               9.8;
        value           nonuniform List<scalar> 9(9.98202e-05 8.73775e-05 7.68645e-05 6.82247e-05 6.11585e-05 5.53623e-05 5.0599e-05 4.67093e-05 4.36584e-05);
    }
    Table_slave
    {
        type            nutkWallFunction;
        Cmu             0.09;
        kappa           0.41;
        E               9.8;
        value           nonuniform List<scalar> 9(0.000112277 0.000103049 9.67087e-05 9.19974e-05 8.79907e-05 8.39857e-05 8.01623e-05 7.60988e-05 7.13162e-05);
    }
    inlet
    {
        type            calculated;
        value           uniform 0.000167705;
    }
    outlet
    {
        type            calculated;
        value           nonuniform List<scalar> 2(0.00211917 0.00217152);
    }
}


// ************************************************************************* //
