/*--------------------------------*- C++ -*----------------------------------*\
  =========                 |
  \\      /  F ield         | OpenFOAM: The Open Source CFD Toolbox
   \\    /   O peration     | Website:  https://openfoam.org
    \\  /    A nd           | Version:  6
     \\/     M anipulation  |
\*---------------------------------------------------------------------------*/
FoamFile
{
    version     2.0;
    format      ascii;
    class       volScalarField;
    location    "26799.9999986439034";
    object      alphat;
}
// * * * * * * * * * * * * * * * * * * * * * * * * * * * * * * * * * * * * * //

dimensions      [1 -1 -1 0 0 0 0];

internalField   nonuniform List<scalar> 
778
(
0.00104098
0.00111056
0.00110659
0.00115465
0.0011987
0.0012387
0.00127594
0.00131184
0.00134797
0.00138636
0.00142297
0.00145773
0.00149197
0.0015288
0.00156724
0.000736798
0.00105529
0.00106377
0.00103795
0.000994846
0.000937326
0.000880041
0.000827263
0.000779657
0.000736954
0.000698894
0.000664708
0.000633568
0.000604506
0.000576226
0.000546657
0.000522117
0.000472593
0.00152464
0.0030073
0.00263928
0.00304632
0.00334175
0.003655
0.0039675
0.00425547
0.00448724
0.00462211
0.00470139
0.00466869
0.00443582
0.00385906
0.00281854
0.00171597
0.0016361
0.00156614
0.00131882
0.00224624
0.00311291
0.00362441
0.00364801
0.00287948
0.00246257
0.00217358
0.00195437
0.0017801
0.00163145
0.00149998
0.00137761
0.00125789
0.00115043
0.00105776
0.00119177
0.000599178
0.00193411
0.00419877
0.0031135
0.00445316
0.00497585
0.00541825
0.00582006
0.00617368
0.0064732
0.00670791
0.00693538
0.0071747
0.00739461
0.00752555
0.00743891
0.00681162
0.00498253
0.00192122
0.00166382
0.00355975
0.00496739
0.00563255
0.00512187
0.00135143
0.00117502
0.00103896
0.000932547
0.000847896
0.000779586
0.000723872
0.000678547
0.000643201
0.000707207
0.000831983
0.00131817
0.000681673
0.00232904
0.00565831
0.00297923
0.0050069
0.00578046
0.00619439
0.00649873
0.00672387
0.00689188
0.00702799
0.00722169
0.00754897
0.00802659
0.00862741
0.00923189
0.00953062
0.00895143
0.00668225
0.00191367
0.00442994
0.00659349
0.00769281
0.00796347
0.00679787
0.00153914
0.00139985
0.00129203
0.00120237
0.00112598
0.00105741
0.000992775
0.000928581
0.00085923
0.000802794
0.00083241
0.00142804
0.000750478
0.00271829
0.00749032
0.0030056
0.00475964
0.0059488
0.0063015
0.0064294
0.00643415
0.00637011
0.00631345
0.00639452
0.0067124
0.00729574
0.00812216
0.00908137
0.009966
0.010528
0.010523
0.00944483
0.00961086
0.00983269
0.00986438
0.0096637
0.00904461
0.00719736
0.0062166
0.00554485
0.00499903
0.00446382
0.00394547
0.00343839
0.00293208
0.00241209
0.00185262
0.0014134
0.0014133
0.00111775
0.000895402
0.00119286
0.00113707
0.00310121
0.00954049
0.00353822
0.00401367
0.00569955
0.00609066
0.00605891
0.00584042
0.00552837
0.00527114
0.00526541
0.00559827
0.00626257
0.00722033
0.0083422
0.00946433
0.0104197
0.011031
0.0111435
0.011033
0.0108383
0.0105613
0.0102044
0.00974987
0.00908669
0.00844787
0.00786796
0.00730724
0.00670189
0.00605566
0.00536562
0.00462599
0.00383214
0.00298984
0.00222664
0.00167171
0.00129801
0.00146615
0.00256304
0.00135706
0.00349198
0.0114357
0.00471477
0.00328807
0.00512127
0.005761
0.00568924
0.00533573
0.00482339
0.00437306
0.00436022
0.00478042
0.00554049
0.00661084
0.00782945
0.00903701
0.0100772
0.0108229
0.0111668
0.0111417
0.010898
0.0105279
0.0101036
0.00968002
0.00927019
0.00889412
0.00854082
0.00816347
0.00770765
0.00715919
0.00651013
0.00575752
0.0049044
0.00397214
0.00305966
0.00220884
0.00162606
0.00146084
0.0026126
0.00160507
0.00382773
0.0128685
0.00642744
0.00313048
0.00405716
0.00510774
0.00525329
0.00496242
0.00435772
0.00374465
0.00388364
0.00443941
0.00528954
0.00639248
0.00765835
0.00892226
0.0100009
0.0107508
0.011092
0.0110487
0.0107336
0.0102681
0.00976705
0.00932246
0.00897966
0.00873476
0.0085437
0.00833571
0.008046
0.0076406
0.0071038
0.00643263
0.00563373
0.00473034
0.00378896
0.00283357
0.00197195
0.00133347
0.00383951
0.00212472
0.00392894
0.0121731
0.00795033
0.00404649
0.00274945
0.00337076
0.00394483
0.00399242
0.00352496
0.00342543
0.00378113
0.0044347
0.00535448
0.00652507
0.00785257
0.00915551
0.0102296
0.0109205
0.011163
0.0109964
0.0105388
0.00993858
0.00934293
0.00886756
0.0085658
0.00841782
0.00835088
0.00827111
0.00810453
0.00781161
0.00737686
0.00679892
0.0060854
0.00525473
0.00434029
0.00330792
0.00188816
0.00171531
0.00607464
0.00240622
0.00384946
0.00981071
0.0082075
0.00555267
0.00366711
0.00283936
0.00269003
0.00281728
0.00305337
0.00342975
0.0039644
0.00470061
0.00570239
0.00696643
0.00836768
0.00968922
0.0107059
0.011264
0.0113203
0.010943
0.010281
0.00951988
0.00884058
0.00837496
0.00816161
0.00813717
0.00818413
0.00818373
0.00807612
0.00783913
0.00746556
0.00695538
0.00631277
0.00554214
0.00462151
0.00331209
0.00143345
0.00318107
0.00569027
0.00244585
0.00360581
0.00838421
0.00793377
0.00635247
0.0048892
0.00393587
0.00346433
0.00335769
0.00355291
0.00391277
0.00443629
0.00521494
0.00632381
0.00771253
0.00918691
0.01048
0.0113534
0.0116735
0.0114388
0.0107662
0.00985678
0.00894725
0.00825569
0.00790813
0.0078685
0.00798417
0.00810095
0.00810318
0.0079897
0.00776044
0.00741132
0.00693788
0.00633211
0.00556595
0.00453295
0.00299477
0.00156403
0.00336187
0.00630315
0.0024742
0.00328318
0.00755948
0.00765243
0.00672313
0.00571976
0.00496398
0.00451869
0.00435883
0.004399
0.00461699
0.00509912
0.00597161
0.00725726
0.00879876
0.0103056
0.0114666
0.0120563
0.0119948
0.0113514
0.0103151
0.00916462
0.00820306
0.00765636
0.00754731
0.00764676
0.00780262
0.00790373
0.00787483
0.00774226
0.00750958
0.00717039
0.00670899
0.00608322
0.00519691
0.00386433
0.0023291
0.00183999
0.00373203
0.00642367
0.00261791
0.00299371
0.00676263
0.00730697
0.00686794
0.00622412
0.00568292
0.00532273
0.0051467
0.00509511
0.00528245
0.00589653
0.00704007
0.00859986
0.0102711
0.0116787
0.0125122
0.0126142
0.012002
0.0108525
0.00945154
0.00818671
0.0073712
0.00701161
0.00697528
0.00709331
0.00724239
0.00733075
0.00729924
0.00716144
0.00692234
0.00657171
0.00607179
0.00530891
0.0040762
0.00254035
0.00182617
0.00231863
0.00430711
0.00657725
0.00262295
0.00300403
0.00671292
0.00746568
0.00695047
0.00642937
0.00600248
0.00569466
0.00549597
0.00548976
0.00594416
0.00702921
0.00865297
0.0104853
0.0120988
0.0131167
0.013321
0.0126964
0.0113964
0.00975367
0.00816239
0.0070042
0.00632081
0.0060115
0.0059613
0.00605604
0.00618627
0.00626123
0.00622394
0.00606583
0.00579912
0.00541103
0.00483819
0.00392729
0.00268035
0.00185122
0.00200949
0.00293022
0.00446824
0.0059008
0.00244898
0.00270999
0.00282057
0.00416497
0.00489665
0.00512407
0.00512925
0.00508168
0.00517903
0.00581058
0.00715844
0.00905984
0.0111154
0.0128721
0.0139501
0.0141277
0.0133681
0.0118637
0.00991052
0.00804893
0.00658751
0.00560855
0.005059
0.0048267
0.00478175
0.0048212
0.00486337
0.00484434
0.00473084
0.00450442
0.00419919
0.00382708
0.00336985
0.00278021
0.00214865
0.00189474
0.00232353
0.00330968
0.00449361
0.00515885
0.0023171
0.000963494
0.00173673
0.00266553
0.00341272
0.00428149
0.00575024
0.00791255
0.0103167
0.0125101
0.0141517
0.0150048
0.0149122
0.0138781
0.0120188
0.00981506
0.00773316
0.00608359
0.0049878
0.00439816
0.00412586
0.00400755
0.00394908
0.00389469
0.00380489
0.00365775
0.00345767
0.00322948
0.00300381
0.00280442
0.00262975
0.00246249
0.00231003
0.00229902
0.00268219
0.00357781
0.00478467
0.00598895
0.0023576
0.00178741
0.00247096
0.00359689
0.00560526
0.00832416
0.0110449
0.0131466
0.0146662
0.0155921
0.0158552
0.0153287
0.0138853
0.0117456
0.00932325
0.007101
0.00544362
0.00448023
0.00402885
0.00383866
0.0037586
0.00371728
0.00367658
0.00361276
0.00351535
0.00339107
0.00326136
0.00314947
0.00306886
0.00302129
0.0029984
0.00299556
0.00302675
0.00314426
0.00346727
0.00420406
0.00570642
0.00646632
0.00254203
0.00323772
0.00787327
0.00726996
0.00650249
0.00824593
0.0109697
0.0132599
0.0148039
0.0156216
0.0158289
0.0155238
0.0146498
0.01314
0.0110343
0.00862777
0.00645537
0.00499747
0.0042676
0.00397329
0.00387843
0.0038682
0.0038877
0.00390497
0.0039008
0.00386888
0.00381589
0.00375686
0.00370703
0.00367571
0.00366625
0.00367948
0.00372169
0.00380506
0.00395133
0.00420313
0.00464496
0.00544598
0.00726179
0.00737096
0.00263227
0.00309497
0.00598204
0.00772509
0.00988949
0.0109735
0.0120833
0.0127236
0.0128723
0.0126238
0.0120431
0.0111495
0.00993827
0.00844522
0.00683751
0.00540005
0.00440318
0.00385882
0.00361486
0.00354254
0.0035682
0.00364645
0.00374288
0.00383056
0.00389279
0.00392564
0.00393622
0.0039363
0.00393529
0.00393814
0.00394921
0.00397933
0.00404993
0.0041925
0.00444027
0.00482602
0.00538196
0.00613929
0.00748667
0.007771
0.00271001
0.00289499
0.0024812
0.00246893
0.0025411
0.00260069
0.00252345
0.00237415
0.0022009
0.00202748
0.00186139
0.00170302
0.00155355
0.0014206
0.00131822
0.00125864
0.00123324
0.00122983
0.00123921
0.00125531
0.00127436
0.00129411
0.00131328
0.00133147
0.00134897
0.00136671
0.00138604
0.00140862
0.00143646
0.00147216
0.00151927
0.00158215
0.00166478
0.00176875
0.00189206
0.00203037
0.00218088
0.00234244
0.00251322
0.00268208
0.00251825
)
;

boundaryField
{
    floor
    {
        type            compressible::alphatWallFunction;
        Prt             0.85;
        value           nonuniform List<scalar> 
36
(
0.000219872
0.000104479
0.000149925
0.000151109
0.000147496
0.000141438
0.000133307
0.000125151
0.000117581
0.000110704
0.000104493
9.89201e-05
9.38835e-05
8.92684e-05
8.49363e-05
8.06962e-05
7.62355e-05
7.25109e-05
6.49274e-05
6.49265e-05
8.41401e-05
9.63873e-05
0.000106464
0.000127345
0.000169042
0.000161323
0.000219869
0.000239667
0.000229059
0.000219719
0.000104478
0.000219717
0.000186311
0.000266677
0.000232739
0.00026569
)
;
    }
    ceiling
    {
        type            compressible::alphatWallFunction;
        Prt             0.85;
        value           nonuniform List<scalar> 
43
(
0.000391211
0.000338971
0.000337413
0.000346599
0.000354169
0.0003444
0.000325396
0.000303171
0.000280733
0.000259049
0.000238176
0.000218279
0.000200397
0.000186485
0.000178318
0.000174818
0.000174338
0.000175623
0.000177833
0.000180452
0.000183164
0.000185794
0.000188286
0.000190677
0.000193093
0.000195716
0.000198767
0.000202511
0.00020729
0.000213569
0.000221912
0.000232836
0.000246539
0.000262733
0.000280812
0.000300346
0.000321176
0.000343044
0.000364544
0.000343731
0.000368283
0.000382184
0.00024862
)
;
    }
    sWall
    {
        type            compressible::alphatWallFunction;
        Prt             0.85;
        value           nonuniform List<scalar> 9(0.000507603 0.000477881 0.000438207 0.000402277 0.000403552 0.000366708 0.000431948 0.000414299 0.00038946);
    }
    nWall
    {
        type            compressible::alphatWallFunction;
        Prt             0.85;
        value           nonuniform List<scalar> 
14
(
0.000160875
0.000191057
0.000224436
0.000333917
0.000337586
0.000355783
0.000355893
0.000333836
0.000317201
0.000322958
0.000346124
0.000357524
0.000367284
0.000343037
)
;
    }
    sideWalls
    {
        type            empty;
    }
    glass1
    {
        type            compressible::alphatWallFunction;
        Prt             0.85;
        value           nonuniform List<scalar> 9(0.000143927 0.000209132 0.000262686 0.000313292 0.000362362 0.000409983 0.000457993 0.000498852 0.000511216);
    }
    glass2
    {
        type            compressible::alphatWallFunction;
        Prt             0.85;
        value           nonuniform List<scalar> 2(0.000290447 0.000326443);
    }
    sun
    {
        type            compressible::alphatWallFunction;
        Prt             0.85;
        value           nonuniform List<scalar> 
14
(
0.000147961
0.000157648
0.000157095
0.000163766
0.000169853
0.000175358
0.000180465
0.000185372
0.000190296
0.000195512
0.000200469
0.000205163
0.000209775
0.000214723
)
;
    }
    Table_master
    {
        type            compressible::alphatWallFunction;
        Prt             0.85;
        value           nonuniform List<scalar> 9(0.000191021 0.000166831 0.000147891 0.000132878 0.000120791 0.000110933 0.000102816 9.61566e-05 9.09261e-05);
    }
    Table_slave
    {
        type            compressible::alphatWallFunction;
        Prt             0.85;
        value           nonuniform List<scalar> 9(0.000216377 0.000197601 0.000182922 0.000170611 0.00016004 0.00015048 0.000141402 0.000132317 0.00012242);
    }
    inlet
    {
        type            fixedValue;
        value           uniform 1.94e-05;
    }
    outlet
    {
        type            zeroGradient;
    }
}


// ************************************************************************* //
