/*--------------------------------*- C++ -*----------------------------------*=========                 |
  \      /  F ield         | OpenFOAM: The Open Source CFD Toolbox
   \    /   O peration     | Website:  https://openfoam.org
    \  /    A nd           | Version:  6
     \/     M anipulation  |
\*---------------------------------------------------------------------------*/
FoamFile
{
    version     2.0;
    format      ascii;
    class       volScalarField;
    location    "730";
    object      PMV;
}
// * * * * * * * * * * * * * * * * * * * * * * * * * * * * * * * * * * * * * //

dimensions      [0 0 0 0 0 0 0];

internalField   nonuniform List<scalar> 
458
(
1.3228911126872396
1.0770014270385062
1.0443900217050437
1.0154476677920177
0.9969120821364024
0.9881938212553375
0.9906369861514367
1.0052854436281686
1.0343711798280393
1.0822548309250615
1.1527160356470028
1.223610215772163
1.2393649262779602
1.2474806770630966
1.2598925738675057
1.3739585103095235
1.3605980607493098
1.3567806336279167
1.3634610860765308
1.3682327083160382
1.372049927319688
1.3676904946834116
1.363455333729943
1.3644560420034304
1.366383311008446
1.369396258343256
1.3726940220059534
1.377082472007949
1.383559502008018
1.3948644070782616
1.4030621417434592
1.4073557499188518
1.4211900351963687
1.255759898241592
1.0889011820685146
1.0765065533499583
1.0479256359113214
1.0310473212081241
1.0230669139553998
1.0240822714376416
1.0323659945377255
1.0465878439918646
1.0711987033725872
1.1115503777907072
1.1724229012373388
1.2355456749681686
1.2465258941638586
1.253686691192171
1.211915605338839
1.211684679721302
1.2334848862140328
1.3268083490924456
1.3477139732469223
1.3472367701608718
1.3548718945464915
1.3577978689497014
1.3573950509953567
1.3574678791535195
1.3586340974176754
1.3593659411287262
1.3596516753050423
1.360099384720057
1.361391208179216
1.36252307609622
1.3656471879396572
1.3742666533535957
1.382546912219289
1.389226525880746
1.372468961712218
1.2869988104117511
1.0798312854622063
1.1091633447558666
1.0939640198140321
1.087160758289154
1.0829955681232282
1.0833285358321978
1.0796741462274295
1.0665080500065849
1.055330492842364
1.0661227665096655
1.1148480036534014
1.2063675373518459
1.2532093101222799
1.2598925738675057
1.2627567823199448
1.2641641003148079
1.2439978970295387
1.2378294465491775
1.3023111278646025
1.3116373380079251
1.3205012856331615
1.3312635341423051
1.3348429458806323
1.3573766965035212
1.3715727788022372
1.3715727788022372
1.372049927319688
1.372049927319688
1.372049927319688
1.3725270747305263
1.3730042210334195
1.3758670755034363
1.379207021496579
1.3716503320898332
1.2989537241769815
1.3618043571081422
1.0729476261043247
1.1327590806392573
1.14349581475137
1.1605063294913567
1.1720162476265923
1.1740043782927998
1.1505421740880506
1.0938275928257195
1.0402432533262551
1.027705241189122
1.073098434961964
1.1658938143099056
1.259262408853574
1.2732586310787237
1.2746906705728231
1.2492769287311707
1.2250556061197484
1.1741642606540836
1.2405543292831527
1.276424981743586
1.3023214785420596
1.3323644591751045
1.3664344845506446
1.3930331201329174
1.386720081442267
1.3804232550008844
1.3791501514126259
1.3802565605753816
1.3826853565205726
1.3891841930673572
1.4023265506982687
1.4255583757246102
1.424538375873151
1.4106951550145141
1.3514099150769125
1.2548670803975615
1.4559077696821283
1.0811755064857858
1.1502580421813726
1.1874135126004532
1.2422354320438214
1.2889117288087273
1.2984350420945137
1.2271493733697298
1.1164727724492127
1.0267656618195642
0.9991410491302276
1.047075835930641
1.1414569950560154
1.2447976024449356
1.2928291771168139
1.2947384207730916
1.2839241960586334
1.255451059063922
1.2538246576032341
1.2694602084993962
1.300845727391376
1.3411841356276732
1.382522435087593
1.4223579467819274
1.4493323461148306
1.461778414439237
1.46208832661561
1.4615677283803554
1.4597623681518963
1.4567836720542142
1.4541810317994903
1.4534746903703173
1.4531108227978007
1.4378459371960228
1.4114665899684675
1.3358075816209214
1.3363805761093925
1.3331161438152337
1.4177564348249232
1.2960467352556255
1.5535181792151072
1.111263215309231
1.1809556838854063
1.2194492785823134
1.3038110315585107
1.38016128165012
1.4164197095961706
1.2573824804445919
1.1154249811576817
1.0101674268924778
0.9793673317432714
1.0309572056476943
1.137167187545966
1.255947082127886
1.3205117874931915
1.3267160776767477
1.3243298315639254
1.3252843329238442
1.337999211643414
1.3584391878924647
1.3920834911686821
1.4230981303131098
1.4502862423202276
1.4727012199925575
1.4893911875665617
1.5003578958067005
1.5079864368829414
1.5127540742688033
1.5141843350481976
1.5132308294289953
1.508463207614857
1.5017882771250721
1.4843536387456604
1.4544403523622187
1.4178779196330107
1.3470325630809827
1.3407694897221278
1.3335853697402815
1.3586096015822053
1.3663618712644925
1.6458826365613834
1.1980506378026907
1.3002400173577586
1.2779027614315113
1.332249917948832
1.4116492597586738
1.3492664425500267
1.2274605690863647
1.0856819779652
0.9811285383867638
0.9602717548260618
1.0309283844973856
1.1591914553340132
1.301997835456959
1.3582121767981252
1.3696641736954638
1.3701413266248685
1.3758670755034363
1.3939975397367332
1.4192819199608844
1.4474245375396864
1.4736549801381957
1.4965434788220808
1.5137075830226852
1.5251491948902565
1.5322997330919588
1.5361132033911316
1.5375432275883971
1.536589879775153
1.5332531105133906
1.526579331684709
1.5175215551744892
1.5070328907772716
1.4896218261955345
1.4451874456716611
1.3829277397350805
1.354113211123044
1.3330700124616743
1.3048597567495734
1.4116418543428366
1.7864739699357288
1.5718960403433566
1.5135092379535178
1.396374920129436
1.3749941767686402
1.3639402787882298
1.2938252141639959
1.1530368638439312
1.0041456643689912
0.9217152291129942
0.9411984685437643
1.0580528172018495
1.2268943168563113
1.3672783925846648
1.4083098717528129
1.4207130082698392
1.4250062052144519
1.4350232629330861
1.4545787081786417
1.4779468298672822
1.500834691102744
1.520858697791284
1.5356365253577997
1.5456464153739047
1.5518426427155134
1.554225730446693
1.5547023428502056
1.5532725004915322
1.5504127695704566
1.5465996997462024
1.5404032312632288
1.5318230419273795
1.5213354260892873
1.5094167444282438
1.4960666698969363
1.4812848544280504
1.4719001734787247
1.4444446191460714
1.3647521101204638
1.2783036662944007
1.9961577028465096
1.8481115070405358
1.6863562470268834
1.5429544521211784
1.4510066073503671
1.3797013569255905
1.1876028305198565
0.9690276126017512
0.8369320900792241
0.836026300317978
0.9522999425581359
1.1558632471385546
1.3515315605542575
1.4316843067707283
1.4612556570481199
1.4741318580682363
1.4827154145897457
1.4946362340920494
1.5113237994062685
1.5289628606961743
1.543739826429363
1.5556555625002195
1.5619487857205472
1.5571433257404854
1.551386841896107
1.544947422556894
1.5371261570898231
1.5284609748024702
1.5181797840911226
1.5066969387350184
1.4935154070882821
1.4785727479546549
1.464535767192811
1.447685423825983
1.428124822307076
1.4102500594211644
1.3987180058891517
1.3944807716247154
1.3845105064340602
1.352869113339803
-1.6591442230509346
-0.7527203112336719
-0.19355978964679857
0.008399569694374484
0.15017250951670302
0.33237364988011286
0.5700525942329019
0.8444749977906116
1.1364824412942929
1.349145576288728
1.449809294892363
1.4706528985583371
1.4791122498583322
1.4874945361260785
1.498047753904722
1.5107300763911309
1.5224923257612455
1.5308794023821248
1.5346132261312604
1.5348378394502908
1.5320531583741808
1.5273439296579558
1.521087197571043
1.5136022450552342
1.5048904289386746
1.4957011619744256
1.4870266641637104
1.4795370528337042
1.4737737213333701
1.469899732036489
1.4671096836271627
1.4652459721202655
1.4632780871816264
1.463948736404188
1.4744094939455379
1.5107385870070102
1.5779201993607936
1.425519116332193
-1.670998456914535
-0.5852535662429301
-0.009219027555635598
0.3134644046534785
0.5201325083573544
0.7780093494205931
1.0440580765335405
1.2761227025710271
1.3721344546163965
1.4150452716446598
1.4436669926176893
1.4603408335943708
1.4715585525730446
1.480568125361518
1.4891096298721824
1.4964909963299664
1.5025610386102892
1.50727011382874
1.510035300961254
1.5100332705167767
1.5088487149304628
1.5061384962780533
1.503030378727451
1.4996936876566245
1.4963030180541845
1.493533654759625
1.491118930114821
1.490011745301409
1.4901755247476351
1.4928497205125595
1.4996523652058664
1.511268374349505
1.5235564127280208
1.5338894427540886
1.54456127609922
1.5797472581123833
1.5279125384884447
1.4687355151747676
-1.134069928733486
-1.1327080260112898
-1.0092849507198607
-0.2107792977725976
0.3711292170923425
0.7829929708865636
1.081661434506491
1.2301904647934307
1.3193582043283283
1.3732517569784464
1.4076214682916606
1.4324959880210775
1.4473206110607868
1.4560423097199917
1.4609683727022704
1.4643393110698717
1.4660331826963422
1.4659183410894436
1.4643556302941285
1.4622119607434232
1.4591938092630254
1.4565258816141917
1.453836808355738
1.4512190741220785
1.4493115351180863
1.448299301667083
1.4484443156851448
1.4506340319617943
1.4543719582153039
1.4609169708009042
1.470380201062047
1.4847857816595904
1.508644790864468
1.5492387729475448
1.6094994582895157
1.6152161435924102
1.5876446694834454
1.5272902678447882
1.4753718267719373
1.4890727410504283
)
;

boundaryField
{
    ".*"
    {
        type            zeroGradient;
    }
}


// ************************************************************************* //
