/*--------------------------------*- C++ -*----------------------------------*\
  =========                 |
  \\      /  F ield         | OpenFOAM: The Open Source CFD Toolbox
   \\    /   O peration     | Website:  https://openfoam.org
    \\  /    A nd           | Version:  6
     \\/     M anipulation  |
\*---------------------------------------------------------------------------*/
FoamFile
{
    version     2.0;
    format      ascii;
    class       volScalarField;
    location    "6100";
    object      epsilon;
}
// * * * * * * * * * * * * * * * * * * * * * * * * * * * * * * * * * * * * * //

dimensions      [0 2 -3 0 0 0 0];

internalField   nonuniform List<scalar> 
778
(
0.000209099
0.000248144
0.000662799
0.000246873
0.0012846
0.00137211
0.000279059
0.000231652
0.00368963
0.00244696
0.000310031
0.000212207
0.000320867
0.008112
0.00398554
0.000339407
0.000212286
0.000198302
0.000562528
0.0150036
0.00605904
0.000367725
0.000215472
0.00018719
0.000193586
0.00110635
0.0240976
0.00883947
0.000395831
0.000221274
0.000187738
0.000165881
0.000202189
0.00220352
0.0330774
0.011957
0.000424857
0.000231051
0.000192344
0.000163659
0.000142693
0.00024455
0.00415933
0.039989
0.0131243
0.000456425
0.000246575
0.000200719
0.000164829
0.000136278
0.000123969
0.000362396
0.00708577
0.0417433
0.0125155
0.000489769
0.000270145
0.000213066
0.000167902
0.000134165
0.000111303
0.000116843
0.000713366
0.0136064
0.0286358
0.0104562
0.000524596
0.00030207
0.000229808
0.000173261
0.000133404
0.000106294
9.31551e-05
0.000145956
0.00285843
0.0143357
0.0195405
0.00799569
0.000563104
0.000344568
0.00025192
0.000182356
0.000134924
0.000102789
8.52726e-05
8.9377e-05
0.000513967
0.00551343
0.01205
0.0138585
0.00608298
0.000609656
0.000402197
0.000282162
0.000197374
0.000141065
0.000102229
7.9902e-05
7.57134e-05
0.000161528
0.00194331
0.00620413
0.00972303
0.0101425
0.00607786
0.000664552
0.000485036
0.000324136
0.000221005
0.000154727
0.000108514
7.88646e-05
6.86625e-05
0.000101374
0.000737389
0.00306521
0.00590661
0.00780382
0.00777886
0.00448866
0.000625327
0.000385199
0.000255829
0.000177852
0.000125818
8.95396e-05
6.89045e-05
8.52341e-05
0.000349691
0.00158172
0.00352028
0.00531694
0.00688759
0.00503132
0.00086876
0.000476694
0.000304885
0.000211676
0.0001536
0.000116102
9.44464e-05
9.6082e-05
0.000223497
0.000909033
0.0021733
0.00356245
0.00480954
0.00561388
0.000806095
0.000589397
0.000369385
0.000257412
0.000190391
0.000152817
0.000134922
0.000138737
0.000217273
0.000609273
0.0014372
0.00245319
0.00341328
0.00415814
0.180435
0.00076318
0.000706003
0.000442494
0.00031462
0.000236425
0.000194756
0.000180202
0.000188099
0.000251178
0.000495804
0.00104019
0.00176702
0.0024919
0.00304643
0.0272222
0.00705245
0.00128604
0.000526817
0.000377137
0.000292387
0.000242589
0.000225704
0.000235114
0.000289439
0.000456152
0.000822182
0.00134379
0.00188194
0.00228308
0.00640606
0.00713985
0.00407676
0.000782766
0.000441825
0.000354092
0.000299598
0.000273874
0.000279171
0.0003236
0.0004433
0.000693476
0.00106607
0.00146907
0.00175485
0.0025627
0.00292367
0.00320061
0.00685342
0.00321969
0.00142897
0.000538207
0.000416305
0.000362678
0.000330605
0.00032708
0.000358101
0.000443195
0.000614659
0.000875234
0.00116519
0.00136181
0.00138525
0.00152968
0.00258877
0.00338885
0.00503647
0.00413863
0.0022215
0.000641218
0.000627632
0.000474325
0.000423629
0.000395786
0.000386667
0.000404323
0.000461481
0.000576893
0.000754662
0.000956267
0.00108751
0.000963411
0.0014194
0.00304173
0.00329905
0.00240484
0.0046885
0.00249964
0.00103358
0.000435211
0.000477278
0.000492766
0.000468622
0.000457941
0.000456193
0.000469656
0.000509373
0.000588395
0.000711889
0.000859238
0.000976631
0.000996364
0.00201894
0.00344207
0.00327766
0.00261902
0.00442121
0.000579456
0.000481859
0.000359551
0.000401414
0.00044263
0.000477323
0.000498622
0.000520078
0.00054643
0.000586972
0.00065318
0.000754027
0.000887931
0.00104884
0.00131233
0.00272121
0.00358647
0.00304609
0.0025717
0.000239527
0.000369817
0.000359187
0.000311231
0.000346523
0.000389534
0.000444388
0.000501133
0.00055587
0.000611331
0.000673745
0.000753772
0.00086436
0.001022
0.0012646
0.00175084
0.00314125
0.0034421
0.00267749
0.00228624
0.000262063
0.000294435
0.00029528
0.00030258
0.000299209
0.000335419
0.000391207
0.000464046
0.000547414
0.000636972
0.000734661
0.000848695
0.000994798
0.00119917
0.00152299
0.00212626
0.00318781
0.00310706
0.00228119
0.00191745
0.000267622
0.000244858
0.000267776
0.000822574
0.000263694
0.000283688
0.000330265
0.000401425
0.000495398
0.000608121
0.000737835
0.000889851
0.00107803
0.00133162
0.00170221
0.00227704
0.0029062
0.00265779
0.0019202
0.00157723
0.000255354
0.000207994
0.00057621
0.000619985
0.000257917
0.000239177
0.000271327
0.000329273
0.000415457
0.000530086
0.000672811
0.000846183
0.0010612
0.00133736
0.00170899
0.00215269
0.00232553
0.00213295
0.00160849
0.00129908
0.00023055
0.000193477
0.000377101
0.00048999
0.000233287
0.000204901
0.000221007
0.000260959
0.000327424
0.000424474
0.000554541
0.000721156
0.000929219
0.00118993
0.00149858
0.0017971
0.00167529
0.0015874
0.00134414
0.00107461
0.000196528
0.00016174
0.000260268
0.000396668
0.000207276
0.000177599
0.000181821
0.000204492
0.000247609
0.000316228
0.000414988
0.00054665
0.000715708
0.000916669
0.00113501
0.00123715
0.00110861
0.00111507
0.00112862
0.000892451
0.000165008
0.000131992
0.000188268
0.000327378
0.000183923
0.000156122
0.000152868
0.000162199
0.000184702
0.000224311
0.000284878
0.00036979
0.000476141
0.000603306
0.000701972
0.000727971
0.000675087
0.000768158
0.000967709
0.000748882
0.000138685
0.000107345
0.000141776
0.000272615
0.000165139
0.000139094
0.0001319
0.000132503
0.000140106
0.000156741
0.000184826
0.000224543
0.000277404
0.000322339
0.000368691
0.000401498
0.000412406
0.000552964
0.00085834
0.000643368
0.000117261
8.77044e-05
0.000110511
0.000226951
0.000149268
0.000125815
0.00011648
0.000112251
0.000110744
0.000112595
0.000118896
0.00013055
0.00014183
0.000165709
0.00019556
0.000232525
0.000284642
0.000443355
0.000782844
0.00057309
0.000100018
7.21987e-05
8.87887e-05
0.000186915
0.000135252
0.000115005
0.00010498
9.82129e-05
9.2169e-05
8.6143e-05
8.13279e-05
7.86191e-05
8.23684e-05
9.5025e-05
0.000120193
0.000161453
0.000231368
0.000393902
0.000720633
0.000533201
8.59992e-05
5.99077e-05
7.34728e-05
0.000149213
0.000122472
0.000105782
9.59725e-05
8.83142e-05
8.02966e-05
7.11333e-05
6.18536e-05
5.52824e-05
5.58196e-05
6.54143e-05
8.88627e-05
0.000132669
0.000209262
0.000369883
0.000670457
0.000517438
7.44633e-05
5.0122e-05
6.30094e-05
8.94227e-05
0.000110135
9.75657e-05
8.84777e-05
8.09129e-05
7.26745e-05
6.27873e-05
5.23431e-05
4.48747e-05
4.36762e-05
5.14685e-05
7.37326e-05
0.000118247
0.000197211
0.000355264
0.000632269
0.000513849
6.48086e-05
4.2632e-05
4.80952e-05
5.9016e-05
8.967e-05
8.97976e-05
8.1874e-05
7.4926e-05
6.73471e-05
5.8195e-05
4.81749e-05
4.02357e-05
3.7824e-05
4.37464e-05
6.40022e-05
0.000107838
0.000187661
0.00034463
0.000606479
0.00052098
5.65126e-05
3.81409e-05
4.09003e-05
0.000154797
6.85465e-05
8.00285e-05
7.57209e-05
6.97049e-05
6.315e-05
5.52365e-05
4.64139e-05
3.87141e-05
3.50894e-05
3.89951e-05
5.64437e-05
9.82546e-05
0.000178222
0.000336206
0.000593525
0.000538608
4.90913e-05
3.63951e-05
0.000112936
9.9975e-05
0.000110843
6.91013e-05
6.93426e-05
6.48701e-05
5.94676e-05
5.28733e-05
4.53796e-05
3.84034e-05
3.42741e-05
3.61896e-05
5.03959e-05
8.89095e-05
0.000168168
0.00032875
0.000592806
0.000565979
4.20038e-05
6.99453e-05
7.52591e-05
0.000143791
8.19341e-05
6.33442e-05
6.02164e-05
5.6005e-05
5.06579e-05
4.44011e-05
3.83295e-05
3.42489e-05
3.50116e-05
4.60898e-05
8.03462e-05
0.000157647
0.000320907
0.000602262
0.000601264
3.63642e-05
5.19958e-05
0.000165851
0.00010408
6.6946e-05
5.63809e-05
5.27338e-05
4.84502e-05
4.325e-05
3.80875e-05
3.44145e-05
3.47552e-05
4.39603e-05
7.38263e-05
0.000147778
0.000311776
0.000618613
0.000641846
2.68854e-05
0.000372347
0.000215881
8.02222e-05
5.80372e-05
5.03488e-05
4.64132e-05
4.19625e-05
3.75514e-05
3.44975e-05
3.49917e-05
4.36266e-05
7.09295e-05
0.000140728
0.000301973
0.000638061
0.000685027
0.000327573
0.00109195
0.000178715
7.19628e-05
5.34479e-05
4.57329e-05
4.10693e-05
3.69074e-05
3.44557e-05
3.55641e-05
4.47572e-05
7.20931e-05
0.000139348
0.000294499
0.000657306
0.00072875
0.000558958
0.00162068
0.000349508
9.21656e-05
5.49509e-05
4.3527e-05
3.74777e-05
3.48117e-05
3.65582e-05
4.74234e-05
7.74002e-05
0.000145285
0.000294264
0.000674532
0.000772175
0.000910667
0.00575512
0.000993204
0.000172367
7.14741e-05
4.81918e-05
3.8967e-05
3.88354e-05
5.19543e-05
8.75731e-05
0.000159976
0.000303478
0.000689937
0.0008161
0.0020333
0.0146888
0.00235118
0.00033117
0.000145231
6.87954e-05
4.70852e-05
5.93893e-05
0.000103476
0.0001857
0.000325686
0.000710387
0.000862585
0.00294446
0.0125621
0.00254011
0.000699837
0.000249136
8.55666e-05
7.40595e-05
0.000126304
0.000224852
0.000364709
0.000742541
0.000913202
0.00318042
0.0101199
0.00270563
0.000963956
0.000263023
0.000114097
0.000159716
0.000280202
0.000425423
0.000792461
0.000972275
0.00317413
0.00774321
0.00279009
0.000892918
0.000248545
0.000217127
0.000357123
0.000514294
0.000866734
0.00104349
0.00294891
0.00596247
0.00248408
0.000700171
0.000342595
0.000470181
0.000641407
0.000974483
0.00112961
0.00266479
0.00581752
0.00209015
0.000683735
0.000660147
0.000826051
0.00113123
0.00123264
0.00262506
0.00480275
0.00215677
0.00105434
0.00111103
0.00136685
0.00135431
0.00324268
0.00382909
0.0024283
0.0016041
0.00173629
0.00149735
0.00344164
0.00384711
0.00260237
0.00232791
0.00167211
0.0036071
0.00423419
0.00339371
0.00192694
0.00313394
0.00507574
0.0023272
0.00291882
0.00290901
0.00259497
)
;

boundaryField
{
    floor
    {
        Cmu             0.09;
        kappa           0.41;
        E               9.8;
        type            epsilonWallFunction;
        value           nonuniform List<scalar> 
36
(
0.000664552
0.000239527
0.000262063
0.000267622
0.000255354
0.00023055
0.000196528
0.000165008
0.000138685
0.000117261
0.000100018
8.59992e-05
7.44633e-05
6.48086e-05
5.65126e-05
4.90913e-05
4.20038e-05
3.63642e-05
2.68854e-05
2.68854e-05
5.19958e-05
7.52591e-05
9.9975e-05
0.000165851
0.000372347
0.000327573
0.000664552
0.00086876
0.000806095
0.00076318
0.000239527
0.00076318
0.000579456
0.00128604
0.00103358
0.00142897
)
;
    }
    ceiling
    {
        Cmu             0.09;
        kappa           0.41;
        E               9.8;
        type            epsilonWallFunction;
        value           nonuniform List<scalar> 
43
(
0.00442121
0.00249964
0.0022215
0.00240484
0.00261902
0.0025717
0.00228624
0.00191745
0.00157723
0.00129908
0.00107461
0.000892451
0.000748882
0.000643368
0.00057309
0.000533201
0.000517438
0.000513849
0.00052098
0.000538608
0.000565979
0.000601264
0.000641846
0.000685027
0.00072875
0.000772175
0.0008161
0.000862585
0.000913202
0.000972275
0.00104349
0.00112961
0.00123264
0.00135431
0.00149735
0.00167211
0.00192694
0.0023272
0.00290901
0.00259497
0.00448866
0.00503132
0.00705245
)
;
    }
    sWall
    {
        Cmu             0.09;
        kappa           0.41;
        E               9.8;
        type            epsilonWallFunction;
        value           nonuniform List<scalar> 9(0.0125155 0.0104562 0.00799569 0.00608298 0.00607786 0.00448866 0.00503647 0.0046885 0.00442121);
    }
    nWall
    {
        Cmu             0.09;
        kappa           0.41;
        E               9.8;
        type            epsilonWallFunction;
        value           nonuniform List<scalar> 
14
(
0.000327573
0.000558958
0.000910667
0.00318042
0.00317413
0.00294891
0.00266479
0.00262506
0.00324268
0.00344164
0.0036071
0.00313394
0.00291882
0.00259497
)
;
    }
    sideWalls
    {
        type            empty;
    }
    glass1
    {
        Cmu             0.09;
        kappa           0.41;
        E               9.8;
        type            epsilonWallFunction;
        value           nonuniform List<scalar> 9(0.000209099 0.000662799 0.00137211 0.00244696 0.00398554 0.00605904 0.00883947 0.011957 0.0131243);
    }
    glass2
    {
        Cmu             0.09;
        kappa           0.41;
        E               9.8;
        type            epsilonWallFunction;
        value           nonuniform List<scalar> 2(0.0020333 0.00294446);
    }
    sun
    {
        Cmu             0.09;
        kappa           0.41;
        E               9.8;
        type            epsilonWallFunction;
        value           nonuniform List<scalar> 
14
(
0.000209099
0.000248144
0.000246873
0.000279059
0.000310031
0.000339407
0.000367725
0.000395831
0.000424857
0.000456425
0.000489769
0.000524596
0.000563104
0.000609656
)
;
    }
    Table_master
    {
        Cmu             0.09;
        kappa           0.41;
        E               9.8;
        type            epsilonWallFunction;
        value           nonuniform List<scalar> 9(0.00057621 0.000377101 0.000260268 0.000188268 0.000141776 0.000110511 8.87887e-05 7.34728e-05 6.30094e-05);
    }
    Table_slave
    {
        Cmu             0.09;
        kappa           0.41;
        E               9.8;
        type            epsilonWallFunction;
        value           nonuniform List<scalar> 9(0.000822574 0.000619985 0.00048999 0.000396668 0.000327378 0.000272615 0.000226951 0.000186915 0.000149213);
    }
    inlet
    {
        type            turbulentMixingLengthDissipationRateInlet;
        mixingLength    0.00315;
        phi             phi;
        k               k;
        value           uniform 1.49737;
    }
    outlet
    {
        type            zeroGradient;
    }
}


// ************************************************************************* //
