/*--------------------------------*- C++ -*----------------------------------*\
  =========                 |
  \\      /  F ield         | OpenFOAM: The Open Source CFD Toolbox
   \\    /   O peration     | Website:  https://openfoam.org
    \\  /    A nd           | Version:  6
     \\/     M anipulation  |
\*---------------------------------------------------------------------------*/
FoamFile
{
    version     2.0;
    format      ascii;
    class       volScalarField;
    location    "6100";
    object      k;
}
// * * * * * * * * * * * * * * * * * * * * * * * * * * * * * * * * * * * * * //

dimensions      [0 2 -2 0 0 0 0];

internalField   nonuniform List<scalar> 
778
(
0.00139627
0.00156508
0.00301293
0.00155973
0.00558059
0.00489396
0.00169251
0.00216926
0.0112078
0.00719701
0.00181554
0.00220464
0.0027501
0.019553
0.00996306
0.00192848
0.00228464
0.00255068
0.00355368
0.0310698
0.0131726
0.00203431
0.00238502
0.00259203
0.0026871
0.00502165
0.0450413
0.0169441
0.00213669
0.00249789
0.00269405
0.00263368
0.00270376
0.00781553
0.0583531
0.0207245
0.00223991
0.00262558
0.00281468
0.00269698
0.00248777
0.00274575
0.0127111
0.068551
0.0220522
0.00234953
0.0027709
0.00295104
0.00276506
0.00248968
0.00228702
0.00301515
0.0198712
0.0688443
0.0213649
0.00246261
0.00293553
0.00310293
0.00283032
0.00249083
0.00222229
0.00212992
0.00414967
0.0313094
0.0513917
0.0189518
0.00257801
0.00312171
0.00326909
0.00289949
0.00247907
0.00216466
0.00199332
0.0021433
0.00983325
0.032974
0.0392897
0.0158479
0.00270268
0.00332037
0.00345938
0.00298857
0.00247083
0.00209051
0.00189474
0.001867
0.0032915
0.0165069
0.0298376
0.0313909
0.0132073
0.00284965
0.00351248
0.00370237
0.0031251
0.0024991
0.00202531
0.00178475
0.00173904
0.00204386
0.00775419
0.0189676
0.0263576
0.0253635
0.0131998
0.00301824
0.00364979
0.00401265
0.00335204
0.0026065
0.00202492
0.0016955
0.0016224
0.00176302
0.00409785
0.0115458
0.0191504
0.0230737
0.0221408
0.0107848
0.0036676
0.00440918
0.00369362
0.00282896
0.00215218
0.00171378
0.00155316
0.00164092
0.00270816
0.00733845
0.0135448
0.0184106
0.0218372
0.0116374
0.00360856
0.00489036
0.00416693
0.00318259
0.00241195
0.00191349
0.00166186
0.00166666
0.0022095
0.00515428
0.00984288
0.0142934
0.0175476
0.0122135
0.00343288
0.00523919
0.00474938
0.00367955
0.00279114
0.00225015
0.00197257
0.00192474
0.0022723
0.00411846
0.00758402
0.0112866
0.0141682
0.0117244
0.0196548
0.00330993
0.0049985
0.0053015
0.00431037
0.00329568
0.00267026
0.00238031
0.00231391
0.00259235
0.00381177
0.00629938
0.00923007
0.0116504
0.0105981
0.00550452
0.0145756
0.00468711
0.00562017
0.00500125
0.00393652
0.00318659
0.00282764
0.00273658
0.00296169
0.00381451
0.0055958
0.00787339
0.00981076
0.00932696
0.00302036
0.00570414
0.010618
0.00593066
0.00568688
0.00467
0.00383942
0.00334227
0.00317372
0.00331541
0.00391542
0.00517339
0.00688719
0.00842222
0.00812318
0.00258218
0.0029449
0.00570614
0.0172715
0.0126501
0.00502826
0.00649873
0.00543956
0.00459384
0.00398667
0.00369042
0.00369766
0.00406992
0.00491365
0.0061195
0.00719758
0.00687665
0.00222079
0.00257641
0.00791551
0.014259
0.0116453
0.0133639
0.00674789
0.00553914
0.0069674
0.00616755
0.0053671
0.0047599
0.00436428
0.00422018
0.00436886
0.00486208
0.00562462
0.00628147
0.00587685
0.00233957
0.00458663
0.0135245
0.0155023
0.00711427
0.0111026
0.00729996
0.00405164
0.00538217
0.00624036
0.00649559
0.00601455
0.00554981
0.00518167
0.00495908
0.00493958
0.0051652
0.00559278
0.00597005
0.00569082
0.00390588
0.00932427
0.0177035
0.017134
0.00753066
0.0106765
0.00275475
0.00429197
0.00517233
0.00583664
0.00623059
0.0063226
0.00617292
0.00599762
0.0058534
0.00580568
0.00591149
0.00617786
0.00649686
0.00663684
0.00683052
0.0143339
0.0200053
0.0175017
0.00743975
0.00152864
0.00298518
0.00433653
0.00484541
0.0054558
0.00586659
0.00621027
0.00644885
0.00659562
0.00669729
0.00680727
0.00699426
0.00731567
0.00780664
0.00856227
0.0103992
0.0177572
0.0205772
0.0167927
0.0068786
0.00162307
0.00313108
0.0041218
0.00440258
0.00503411
0.00542061
0.00584338
0.00632138
0.00679717
0.00723406
0.00764844
0.0080978
0.00867176
0.00949535
0.0108511
0.0135893
0.0192129
0.0199356
0.0154997
0.00611759
0.00164594
0.00304719
0.00369677
0.0034795
0.00459095
0.00492901
0.00532593
0.00588081
0.00655704
0.00728658
0.00803459
0.00882766
0.00974666
0.0109473
0.0126987
0.0154974
0.0189407
0.0184191
0.0139855
0.00537085
0.00159525
0.00279188
0.00274444
0.00288174
0.00408613
0.00444447
0.00475527
0.00525747
0.00596818
0.00683726
0.00781437
0.00888639
0.0101036
0.0115677
0.0134538
0.015708
0.0169982
0.016151
0.0124057
0.00471939
0.0014902
0.00237752
0.00206873
0.00246334
0.00362754
0.00399163
0.00421432
0.00458549
0.00519045
0.00601934
0.00703268
0.00820633
0.00953703
0.0110647
0.0127539
0.014316
0.0139806
0.0133314
0.0108238
0.00415885
0.00133972
0.00200806
0.00161564
0.00213969
0.00323816
0.00359985
0.00375006
0.00397075
0.00438981
0.00503679
0.00589952
0.00694614
0.00816337
0.00948122
0.0107881
0.0113858
0.0106701
0.0104157
0.00931805
0.00367447
0.00119235
0.00170421
0.00130192
0.00188263
0.00290733
0.00327189
0.0033773
0.00347042
0.00368977
0.0040904
0.00467743
0.00543768
0.00630946
0.00725816
0.00794111
0.0080843
0.00760546
0.00786599
0.00801051
0.00326887
0.00106191
0.00145755
0.00107763
0.00166635
0.00260958
0.00299326
0.00308551
0.00309466
0.00314996
0.00331449
0.00360627
0.00400333
0.00449563
0.00489141
0.00525379
0.00543254
0.00533349
0.00598971
0.00699734
0.00295391
0.000949516
0.00125573
0.000912716
0.00147464
0.00233579
0.00274013
0.00285022
0.00282269
0.00277137
0.00275972
0.00281093
0.0029259
0.00303286
0.00324395
0.00347929
0.00371452
0.00396358
0.00484897
0.00625526
0.00273447
0.00085399
0.00108936
0.000788809
0.00129567
0.00207802
0.00250132
0.00264536
0.00261943
0.00252007
0.00240472
0.00230897
0.00224221
0.00224052
0.00232188
0.00251154
0.00280736
0.00326105
0.00424995
0.00567543
0.002606
0.0007722
0.000950354
0.000695266
0.00111499
0.00182875
0.00226691
0.00245288
0.00245526
0.00234954
0.00219397
0.00202885
0.00189301
0.00183319
0.00186561
0.00203218
0.0023693
0.00292088
0.00393069
0.00523502
0.00255434
0.000701501
0.000831833
0.000627582
0.000835822
0.0015766
0.00202858
0.00225905
0.00230581
0.00222529
0.00206911
0.00188493
0.00172534
0.00163327
0.00163624
0.0017865
0.00214002
0.00273338
0.00373458
0.0049063
0.00254255
0.000639473
0.000731407
0.00057794
0.000692993
0.00125167
0.00177716
0.00205425
0.0021539
0.002117
0.00198867
0.00181434
0.00164723
0.00153629
0.001514
0.0016389
0.0019892
0.00260279
0.00359968
0.00467817
0.00256613
0.000583665
0.000659791
0.00057997
0.00146431
0.000961185
0.00148718
0.0018312
0.00198879
0.00200526
0.00191931
0.00177376
0.00161489
0.00149074
0.00144462
0.00153558
0.00186542
0.00249337
0.00350578
0.00455063
0.00262381
0.000531378
0.000616455
0.00120497
0.000853743
0.00123138
0.00119797
0.00158274
0.00180424
0.00187925
0.00184271
0.00173481
0.00159695
0.00147189
0.0014044
0.00145763
0.00175246
0.00239151
0.00344197
0.00452187
0.00271204
0.000478916
0.000900888
0.00070649
0.00124394
0.0011423
0.00133256
0.00159876
0.00173376
0.00174996
0.00168371
0.00157467
0.00145946
0.00138148
0.00139932
0.00164869
0.00229223
0.00339542
0.00458085
0.00282359
0.000435027
0.000552136
0.00119641
0.00113785
0.00117321
0.00138921
0.00156917
0.0016376
0.0016142
0.00153808
0.00144123
0.00136287
0.00135833
0.00156009
0.00219717
0.00335214
0.00470533
0.00294911
0.000355695
0.0020515
0.00173213
0.00110938
0.0012261
0.00139857
0.00150754
0.00152492
0.00148213
0.0014097
0.00134028
0.00132582
0.00149635
0.00211558
0.00330368
0.0048637
0.00307973
0.00188345
0.00513367
0.00157754
0.00115406
0.00126806
0.00137209
0.0014207
0.0014068
0.00136087
0.00130858
0.00129607
0.00145755
0.00206374
0.00325595
0.00502077
0.00320916
0.00268942
0.00629567
0.00209227
0.00130394
0.00128491
0.00132001
0.00132209
0.00129697
0.00126602
0.00126843
0.00144429
0.00205513
0.0032326
0.00514701
0.00333516
0.00372384
0.0142704
0.00385382
0.00159731
0.00132867
0.00127017
0.00123837
0.00121839
0.00124754
0.00146613
0.00210423
0.00325792
0.00523217
0.00346026
0.00636202
0.0282915
0.00758794
0.00224088
0.00157477
0.00128624
0.00119583
0.00124605
0.00153603
0.00223017
0.00335947
0.00532722
0.00359025
0.00814218
0.0266139
0.00890024
0.0036825
0.00199326
0.00132393
0.00129705
0.00166629
0.0024488
0.00355791
0.00547284
0.00372927
0.00857221
0.0239868
0.00980446
0.00476556
0.00211399
0.00150282
0.00187692
0.00277018
0.00387136
0.00569804
0.00388836
0.00856206
0.0203352
0.0102596
0.00475578
0.00220061
0.002236
0.00321025
0.00431504
0.00602617
0.00407593
0.00815311
0.0169442
0.00988373
0.00432809
0.00295935
0.00382679
0.00490865
0.00648229
0.0042971
0.00762013
0.0173676
0.0094325
0.00469927
0.00479375
0.00569876
0.00710586
0.0045544
0.00754082
0.0161604
0.0104087
0.00661288
0.00680632
0.00797329
0.00484921
0.00868121
0.0146761
0.0118317
0.00853393
0.00920956
0.00518501
0.00903514
0.0152776
0.0115974
0.0109434
0.00558212
0.00932354
0.015166
0.0137737
0.00613846
0.00849009
0.0173124
0.00696384
0.0080975
0.00808106
0.00748492
)
;

boundaryField
{
    floor
    {
        type            kqRWallFunction;
        value           nonuniform List<scalar> 
36
(
0.00301824
0.00152864
0.00162307
0.00164594
0.00159525
0.0014902
0.00133972
0.00119235
0.00106191
0.000949516
0.00085399
0.0007722
0.000701501
0.000639473
0.000583665
0.000531378
0.000478916
0.000435027
0.000355695
0.000355695
0.000552136
0.00070649
0.000853743
0.00119641
0.0020515
0.00188345
0.00301824
0.00360856
0.00343288
0.00330993
0.00152864
0.00330993
0.00275475
0.00468711
0.00405164
0.00502826
)
;
    }
    ceiling
    {
        type            kqRWallFunction;
        value           nonuniform List<scalar> 
43
(
0.0106765
0.00729996
0.00674789
0.00711427
0.00753066
0.00743975
0.0068786
0.00611759
0.00537085
0.00471939
0.00415885
0.00367447
0.00326887
0.00295391
0.00273447
0.002606
0.00255434
0.00254255
0.00256613
0.00262381
0.00271204
0.00282359
0.00294911
0.00307973
0.00320916
0.00333516
0.00346026
0.00359025
0.00372927
0.00388836
0.00407593
0.0042971
0.0045544
0.00484921
0.00518501
0.00558212
0.00613846
0.00696384
0.00808106
0.00748492
0.0107848
0.0116374
0.0145756
)
;
    }
    sWall
    {
        type            kqRWallFunction;
        value           nonuniform List<scalar> 9(0.0213649 0.0189518 0.0158479 0.0132073 0.0131998 0.0107848 0.0116453 0.0111026 0.0106765);
    }
    nWall
    {
        type            kqRWallFunction;
        value           nonuniform List<scalar> 
14
(
0.00188345
0.00268942
0.00372384
0.00857221
0.00856206
0.00815311
0.00762013
0.00754082
0.00868121
0.00903514
0.00932354
0.00849009
0.0080975
0.00748492
)
;
    }
    sideWalls
    {
        type            empty;
    }
    glass1
    {
        type            kqRWallFunction;
        value           nonuniform List<scalar> 9(0.00139627 0.00301293 0.00489396 0.00719701 0.00996306 0.0131726 0.0169441 0.0207245 0.0220522);
    }
    glass2
    {
        type            kqRWallFunction;
        value           nonuniform List<scalar> 2(0.00636202 0.00814218);
    }
    sun
    {
        type            kqRWallFunction;
        value           nonuniform List<scalar> 
14
(
0.00139627
0.00156508
0.00155973
0.00169251
0.00181554
0.00192848
0.00203431
0.00213669
0.00223991
0.00234953
0.00246261
0.00257801
0.00270268
0.00284965
)
;
    }
    Table_master
    {
        type            kqRWallFunction;
        value           nonuniform List<scalar> 9(0.00274444 0.00206873 0.00161564 0.00130192 0.00107763 0.000912716 0.000788809 0.000695266 0.000627582);
    }
    Table_slave
    {
        type            kqRWallFunction;
        value           nonuniform List<scalar> 9(0.0034795 0.00288174 0.00246334 0.00213969 0.00188263 0.00166635 0.00147464 0.00129567 0.00111499);
    }
    inlet
    {
        type            turbulentIntensityKineticEnergyInlet;
        intensity       0.5;
        value           uniform 0.09375;
    }
    outlet
    {
        type            zeroGradient;
    }
}


// ************************************************************************* //
