/*--------------------------------*- C++ -*----------------------------------*\
  =========                 |
  \\      /  F ield         | OpenFOAM: The Open Source CFD Toolbox
   \\    /   O peration     | Website:  https://openfoam.org
    \\  /    A nd           | Version:  6
     \\/     M anipulation  |
\*---------------------------------------------------------------------------*/
FoamFile
{
    version     2.0;
    format      ascii;
    class       volScalarField;
    location    "6100";
    object      nut;
}
// * * * * * * * * * * * * * * * * * * * * * * * * * * * * * * * * * * * * * //

dimensions      [0 2 -1 0 0 0 0];

internalField   nonuniform List<scalar> 
778
(
0.000894332
0.000953099
0.000949626
0.000990836
0.0010286
0.00106288
0.0010948
0.00112556
0.00115652
0.00118942
0.0012208
0.0012506
0.00127995
0.00131154
0.0013445
0.000632161
0.000905451
0.000912689
0.000890539
0.00085354
0.000804145
0.000754964
0.000709688
0.000668872
0.000632264
0.000599629
0.00057031
0.000543599
0.000518667
0.000494405
0.000469039
0.00044798
0.000405521
0.00131081
0.00258128
0.00226515
0.00261454
0.00286812
0.00313693
0.00340503
0.00365203
0.00385077
0.00396638
0.00403429
0.00400612
0.00380621
0.00331122
0.00241826
0.00147209
0.0014035
0.00134351
0.00113144
0.001927
0.00267076
0.00310983
0.00313016
0.00247018
0.00211263
0.00186466
0.00167647
0.00152687
0.00139938
0.00128664
0.0011817
0.00107903
0.000986886
0.00090744
0.00102226
0.000514185
0.00166409
0.00360466
0.00267231
0.00382243
0.00427131
0.00465116
0.00499607
0.00529951
0.00555643
0.00575773
0.00595274
0.00615789
0.00634642
0.00645867
0.00638435
0.00584617
0.0042762
0.0016481
0.00142691
0.00305223
0.00426007
0.00483172
0.0043948
0.00115957
0.00100825
0.00089147
0.000800103
0.000727416
0.00066877
0.000620954
0.00058207
0.000551753
0.000606549
0.000713541
0.00113018
0.000585053
0.00200534
0.00485887
0.00255736
0.00429813
0.00496275
0.00531849
0.00558004
0.00577346
0.00591766
0.00603435
0.00620028
0.00648069
0.00688999
0.00740493
0.00792298
0.00817889
0.00768195
0.00573556
0.00164117
0.00379616
0.00565081
0.00659505
0.00682912
0.00583122
0.00132022
0.00120086
0.00110845
0.00103154
0.000966004
0.000907163
0.000851708
0.000796647
0.000737184
0.000688645
0.000713846
0.00122376
0.000644305
0.0023421
0.00643382
0.00258051
0.00408611
0.00510796
0.00541149
0.00552187
0.00552635
0.00547153
0.00542278
0.00549203
0.00576433
0.00626425
0.00697247
0.00779414
0.0085515
0.00903172
0.00902568
0.00809946
0.00824021
0.0084301
0.00845808
0.0082873
0.00775786
0.00617458
0.00533389
0.00475791
0.00429038
0.00383133
0.00338641
0.00295106
0.00251638
0.00207007
0.00159009
0.00121334
0.00121234
0.000959435
0.000768499
0.00101797
0.000976128
0.00267377
0.00819726
0.00303855
0.00344588
0.0048944
0.00523122
0.00520473
0.00501768
0.00475003
0.00452916
0.00452407
0.00480951
0.00537926
0.0062005
0.00716151
0.00812214
0.00893877
0.00946075
0.00955572
0.00946009
0.00929315
0.00905617
0.0087511
0.00836242
0.00779466
0.00724739
0.00675034
0.0062702
0.00575127
0.00519688
0.00460475
0.00397007
0.00328889
0.00256627
0.00191197
0.00143558
0.00111524
0.0012512
0.00217898
0.0011671
0.00301237
0.00982876
0.00404994
0.00282331
0.00439793
0.00494851
0.00488783
0.00458491
0.00414529
0.00375867
0.0037477
0.00410855
0.0047611
0.00567965
0.00672378
0.0077574
0.00864668
0.00928354
0.0095766
0.00955427
0.00934526
0.00902836
0.00866517
0.0083026
0.00795171
0.00762953
0.00732671
0.00700365
0.00661301
0.0061427
0.00558605
0.0049406
0.00420882
0.00340902
0.00262679
0.0018988
0.00139889
0.00124924
0.00222105
0.00137636
0.00330374
0.0110654
0.0055229
0.00268899
0.00348378
0.00438704
0.00451338
0.00426449
0.0037448
0.00321917
0.00333876
0.00381646
0.00454692
0.00549378
0.00657903
0.00766099
0.0085831
0.00922338
0.00951412
0.00947622
0.00920596
0.00880705
0.00837766
0.00799663
0.00770283
0.00749287
0.007329
0.00715085
0.00690246
0.00655483
0.00609461
0.00551921
0.004834
0.00405872
0.0032515
0.00243742
0.00170227
0.00115111
0.00317671
0.00180353
0.00339342
0.0104825
0.0068385
0.0034788
0.00236197
0.00289396
0.00338799
0.0034303
0.00302926
0.00294455
0.00325067
0.0038128
0.00460352
0.00560874
0.00674689
0.00786214
0.00878024
0.00937001
0.00957655
0.00943345
0.00904128
0.0085267
0.00801571
0.00760777
0.00734883
0.00722185
0.00716426
0.00709575
0.00695257
0.00670107
0.00632815
0.00583248
0.00522005
0.0045065
0.0037221
0.0028408
0.00163351
0.00148752
0.00487096
0.00207027
0.0033246
0.00845604
0.00706659
0.00477754
0.00315402
0.00244099
0.00231145
0.00242051
0.00262429
0.00294851
0.00340856
0.00404178
0.00490285
0.00598793
0.00718873
0.00831935
0.00918814
0.00966472
0.00971265
0.0093899
0.00882308
0.00817045
0.00758714
0.00718712
0.00700397
0.00698303
0.00702305
0.00702241
0.00692924
0.00672513
0.00640409
0.00596566
0.00541279
0.0047499
0.00395863
0.00277763
0.0011908
0.00296046
0.0045118
0.00209163
0.00311414
0.00722933
0.00683483
0.00546914
0.00420767
0.00338636
0.00298006
0.00288798
0.00305596
0.0033654
0.0038153
0.00448433
0.00543646
0.00662722
0.00788928
0.00899461
0.00974065
0.0100146
0.0098151
0.00924098
0.00846259
0.00768231
0.00708786
0.00678935
0.00675584
0.00685507
0.00695417
0.00695616
0.00685744
0.00665965
0.00635937
0.0059514
0.00542945
0.00477713
0.0039214
0.0025254
0.00126584
0.00322988
0.00457091
0.00207793
0.00283568
0.00652028
0.00659537
0.00579139
0.00492525
0.00427351
0.0038898
0.00375248
0.00378651
0.00397292
0.00438595
0.00513412
0.00623607
0.00755545
0.00884313
0.00983419
0.0103382
0.0102876
0.00974065
0.00885669
0.00787143
0.00704594
0.00657692
0.00648463
0.00657085
0.00670284
0.00678747
0.00676275
0.00664749
0.00644776
0.00615706
0.00575652
0.00522147
0.0045017
0.00351269
0.00222669
0.00147612
0.00324771
0.00504442
0.00211227
0.00258628
0.00583595
0.00630098
0.00591951
0.00536278
0.00489551
0.00458482
0.0044327
0.00438669
0.00454506
0.00506964
0.00604832
0.00738244
0.00880964
0.0100098
0.0107201
0.0108086
0.0102901
0.0093126
0.0081167
0.00703138
0.00633414
0.0060322
0.00600679
0.00610605
0.00622482
0.00629244
0.006266
0.00614654
0.00594335
0.00564391
0.0052115
0.00457578
0.00366449
0.00256879
0.00176987
0.00179783
0.00352106
0.00497607
0.00224101
0.00259531
0.00579326
0.00643951
0.00599266
0.00554158
0.00517239
0.00490604
0.00473234
0.00472265
0.00510815
0.00603487
0.00742255
0.00898653
0.0103608
0.0112256
0.0113987
0.0108692
0.00976606
0.00836583
0.00700599
0.00601906
0.00544783
0.00519775
0.00515865
0.00522704
0.00531482
0.00536057
0.00533155
0.00519774
0.00497372
0.00463203
0.00409833
0.00328513
0.00232057
0.00169475
0.00169131
0.00229151
0.00400893
0.00519345
0.00225745
0.00234237
0.00243609
0.00359201
0.00421864
0.00441141
0.00441301
0.0043686
0.00444675
0.0049826
0.00613297
0.0077578
0.00951345
0.0110105
0.0119244
0.01207
0.0114219
0.0101438
0.00848174
0.00689542
0.00565707
0.00484007
0.00439066
0.00420359
0.0041596
0.00416736
0.00416645
0.00412378
0.0040274
0.00385775
0.00361141
0.00327677
0.00280152
0.00219451
0.00170923
0.00165632
0.00206742
0.00286467
0.0040378
0.00490385
0.00213463
0.000806809
0.00146288
0.00225627
0.00289479
0.00363424
0.00488853
0.00673793
0.00879895
0.0106817
0.0120885
0.012813
0.0127228
0.0118307
0.0102445
0.0083689
0.00660346
0.00521651
0.00430695
0.0038265
0.00360905
0.00350922
0.00344266
0.00336544
0.0032578
0.00311872
0.0029606
0.00279898
0.00262755
0.00244508
0.00223474
0.00199948
0.00184713
0.00197141
0.00246213
0.00322953
0.00400719
0.00427311
0.00203334
0.00149747
0.00207271
0.00302317
0.00472459
0.00704094
0.00937111
0.0111875
0.0125089
0.0133148
0.0135386
0.0130711
0.0118105
0.00996281
0.00789533
0.00602255
0.00465054
0.00387418
0.00352743
0.0033895
0.00332704
0.00327906
0.00321949
0.00314051
0.00304633
0.00294786
0.0028558
0.00277458
0.00269917
0.00262542
0.00255253
0.00248725
0.00246722
0.00259117
0.00298678
0.00369085
0.00457274
0.00533979
0.00207547
0.00275775
0.00668068
0.00613535
0.00547012
0.00695153
0.00928483
0.0112642
0.0126127
0.013338
0.0135322
0.0132683
0.0124933
0.0111619
0.00932583
0.00727183
0.00547121
0.00430786
0.00376362
0.00357109
0.00351945
0.0035072
0.00349171
0.00345739
0.00340284
0.00333453
0.00326216
0.0031954
0.00314272
0.00311148
0.00310711
0.00312918
0.00317461
0.00324234
0.00336143
0.00358437
0.00398927
0.00468796
0.00592771
0.00612889
0.00228693
0.00263885
0.00509511
0.00656033
0.00838347
0.00931133
0.0102781
0.0108486
0.0109969
0.0107998
0.0103079
0.00953128
0.0084583
0.0071222
0.00570104
0.00449828
0.00374716
0.00339803
0.00328436
0.0032798
0.00331465
0.00335176
0.00337215
0.00336912
0.00334424
0.00330342
0.00325423
0.00320595
0.00317178
0.00317027
0.00322325
0.00334997
0.00355727
0.00382315
0.00410513
0.00443405
0.00490116
0.00558773
0.00671218
0.00660062
0.00238282
0.00247354
0.0021203
0.00211016
0.00217245
0.00222447
0.00216065
0.00203414
0.00188503
0.00173336
0.00158583
0.00144394
0.00131114
0.00119727
0.00111562
0.00107183
0.00105589
0.00105667
0.00106547
0.00107745
0.00109023
0.00110282
0.0011152
0.00112807
0.00114273
0.00116107
0.0011854
0.00121839
0.00126248
0.001319
0.00138728
0.00146465
0.00154784
0.00163493
0.00172715
0.0018229
0.00192273
0.00202796
0.00214258
0.00226556
0.00218107
)
;

boundaryField
{
    floor
    {
        type            nutkWallFunction;
        Cmu             0.09;
        kappa           0.41;
        E               9.8;
        value           nonuniform List<scalar> 
36
(
0.000160534
7.63564e-05
0.000109531
0.000110392
0.000107755
0.000103333
9.73943e-05
9.14387e-05
8.59151e-05
8.08995e-05
7.63695e-05
7.23044e-05
6.86293e-05
6.52609e-05
6.20985e-05
5.90029e-05
5.57461e-05
5.30256e-05
4.749e-05
4.74899e-05
6.15276e-05
7.04797e-05
7.78623e-05
9.30825e-05
0.000122843
0.00011791
0.000160534
0.000174974
0.000167229
0.00016042
7.63564e-05
0.00016042
0.000136067
0.000194672
0.000169876
0.0001939
)
;
    }
    ceiling
    {
        type            nutkWallFunction;
        Cmu             0.09;
        kappa           0.41;
        E               9.8;
        value           nonuniform List<scalar> 
43
(
0.000284303
0.000246393
0.000245299
0.000252038
0.000257655
0.000250792
0.0002371
0.000220837
0.000204149
0.000187761
0.00017184
0.000156774
0.000143713
0.000134253
0.000129142
0.000127271
0.000127359
0.00012839
0.000129793
0.000131288
0.00013276
0.000134204
0.000135697
0.000137391
0.000139499
0.000142286
0.000146052
0.000151073
0.000157497
0.000165241
0.000173992
0.000183366
0.000193132
0.000203412
0.000214036
0.000225037
0.000236551
0.000249007
0.000262263
0.000253049
0.000270496
0.000280512
0.000177622
)
;
    }
    sWall
    {
        type            nutkWallFunction;
        Cmu             0.09;
        kappa           0.41;
        E               9.8;
        value           nonuniform List<scalar> 9(0.000373884 0.000352051 0.00032293 0.000296597 0.000297551 0.000270586 0.000314419 0.0003019 0.000284404);
    }
    nWall
    {
        type            nutkWallFunction;
        Cmu             0.09;
        kappa           0.41;
        E               9.8;
        value           nonuniform List<scalar> 
14
(
0.000117918
0.000140213
0.000164184
0.000243448
0.000242016
0.000245976
0.000259755
0.000261336
0.000247968
0.000236968
0.000241891
0.000264473
0.000274698
0.000253087
)
;
    }
    sideWalls
    {
        type            empty;
    }
    glass1
    {
        type            nutkWallFunction;
        Cmu             0.09;
        kappa           0.41;
        E               9.8;
        value           nonuniform List<scalar> 9(0.00010825 0.000156886 0.000196742 0.000234358 0.000270804 0.000306157 0.000341777 0.0003721 0.000381386);
    }
    glass2
    {
        type            nutkWallFunction;
        Cmu             0.09;
        kappa           0.41;
        E               9.8;
        value           nonuniform List<scalar> 2(0.000212068 0.000241251);
    }
    sun
    {
        type            nutkWallFunction;
        Cmu             0.09;
        kappa           0.41;
        E               9.8;
        value           nonuniform List<scalar> 
14
(
0.000108209
0.000115185
0.000114774
0.000119639
0.000124076
0.000128089
0.00013181
0.000135386
0.000138974
0.000142775
0.000146388
0.00014981
0.000153172
0.000156779
)
;
    }
    Table_master
    {
        type            nutkWallFunction;
        Cmu             0.09;
        kappa           0.41;
        E               9.8;
        value           nonuniform List<scalar> 9(0.000139316 0.00012168 0.000107862 9.69055e-05 8.8084e-05 8.08903e-05 7.4969e-05 7.01132e-05 6.62999e-05);
    }
    Table_slave
    {
        type            nutkWallFunction;
        Cmu             0.09;
        kappa           0.41;
        E               9.8;
        value           nonuniform List<scalar> 9(0.000157758 0.000144082 0.000133389 0.000124413 0.000116704 0.000109731 0.000103111 9.64885e-05 8.92754e-05);
    }
    inlet
    {
        type            calculated;
        value           uniform 0.000167705;
    }
    outlet
    {
        type            calculated;
        value           nonuniform List<scalar> 2(0.00275775 0.00668068);
    }
}


// ************************************************************************* //
