/*--------------------------------*- C++ -*----------------------------------*\
  =========                 |
  \\      /  F ield         | OpenFOAM: The Open Source CFD Toolbox
   \\    /   O peration     | Website:  https://openfoam.org
    \\  /    A nd           | Version:  6
     \\/     M anipulation  |
\*---------------------------------------------------------------------------*/
FoamFile
{
    version     2.0;
    format      ascii;
    class       volScalarField;
    location    "38499.9999988563577";
    object      epsilon;
}
// * * * * * * * * * * * * * * * * * * * * * * * * * * * * * * * * * * * * * //

dimensions      [0 2 -3 0 0 0 0];

internalField   nonuniform List<scalar> 
778
(
0.000253121
0.000306337
0.000302975
0.00034414
0.000385002
0.000424817
0.000464277
0.000504574
0.000547443
0.000595601
0.000644104
0.000692554
0.000742597
0.000799023
0.000860851
8.94855e-05
0.000262697
0.000269189
0.000250171
0.00022034
0.000184277
0.000152465
0.000126606
0.000105966
8.94904e-05
7.63357e-05
6.56797e-05
5.68796e-05
4.94088e-05
4.27949e-05
3.65396e-05
3.18309e-05
2.3607e-05
0.00079701
0.00144321
0.000286976
0.000259575
0.000261678
0.000267658
0.000276564
0.000290007
0.000310282
0.000340515
0.000379778
0.000430962
0.000499437
0.000600753
0.000786038
0.0011299
0.000979228
0.000858773
0.000511756
0.000369462
0.000294271
0.000242991
0.000204191
0.000187064
0.00015483
0.000125091
0.00010075
8.15206e-05
6.65469e-05
5.48372e-05
4.56441e-05
3.87199e-05
3.453e-05
3.27747e-05
6.57797e-05
4.80941e-05
0.00163067
0.00407912
0.000407383
0.000242916
0.000229097
0.000231017
0.000238243
0.000250524
0.000268446
0.000292742
0.000324901
0.000367011
0.00042145
0.000495217
0.000601665
0.000724988
0.0008302
0.00158458
0.00102783
0.000512308
0.000367741
0.000294356
0.000262207
0.000551731
0.00036285
0.000250929
0.000181473
0.000136388
0.000105982
8.48211e-05
6.985e-05
5.94856e-05
4.51513e-05
3.79956e-05
0.000108084
7.07889e-05
0.00285363
0.00877042
0.000709874
0.000240714
0.000202472
0.000200015
0.000203198
0.000209836
0.000220666
0.000237601
0.000263315
0.000300094
0.000349348
0.00041252
0.000488222
0.000560411
0.000612617
0.000824716
0.00156526
0.000728809
0.000459726
0.000358265
0.000301903
0.000291826
0.000814208
0.000612789
0.000482025
0.000388631
0.000319249
0.000264435
0.000218857
0.000179097
0.000141916
8.38517e-05
5.4933e-05
0.000148351
9.44841e-05
0.00454619
0.0158271
0.00134632
0.000258334
0.000175724
0.00016679
0.000165808
0.000167795
0.000173967
0.000187483
0.000211743
0.00024845
0.000297901
0.000359476
0.000427959
0.000489329
0.000528724
0.000582655
0.000627789
0.000483305
0.000393538
0.000331048
0.000282303
0.000248633
0.00024785
0.000226798
0.000202965
0.000181099
0.000162726
0.000146566
0.000131892
0.000118287
0.000105111
8.45198e-05
6.42615e-05
0.000105086
0.000138763
0.000159931
0.000360674
0.000319422
0.00676384
0.0248775
0.00255332
0.000318061
0.000155528
0.000137061
0.000132132
0.000130709
0.000134483
0.000148572
0.000176726
0.000218106
0.000270854
0.000334193
0.000401832
0.000462725
0.000503138
0.000521869
0.000505005
0.000438408
0.000373918
0.000315703
0.000264773
0.000223411
0.000193311
0.000169648
0.000150829
0.000135643
0.000123313
0.000112769
0.000103311
9.45346e-05
8.60666e-05
7.58918e-05
6.5404e-05
7.75853e-05
9.96807e-05
0.000208572
0.00106104
0.000548733
0.00967225
0.0336357
0.00458326
0.000464972
0.000150836
0.00011634
0.000107095
0.000103299
0.000107099
0.000127919
0.00016611
0.000215854
0.000273274
0.000340024
0.000409334
0.000470493
0.000510262
0.000520594
0.000494489
0.000437778
0.000371944
0.00030754
0.000250584
0.000204463
0.000169764
0.000144565
0.000126327
0.000112738
0.000102289
9.373e-05
8.62418e-05
7.9353e-05
7.27792e-05
6.61045e-05
6.03725e-05
6.38206e-05
7.66806e-05
0.000171954
0.00157714
0.000893681
0.012759
0.0404049
0.00748906
0.000871258
0.000194296
0.000115397
9.74098e-05
9.14933e-05
9.87e-05
0.000137749
0.00018928
0.000246198
0.000306949
0.000373718
0.000444688
0.000508018
0.000547428
0.000551055
0.000515857
0.000451691
0.000375592
0.000300988
0.000236481
0.000185958
0.000149306
0.000123968
0.000106694
9.45546e-05
8.5735e-05
7.88221e-05
7.29292e-05
6.75639e-05
6.2484e-05
5.76604e-05
5.40348e-05
5.59759e-05
6.99223e-05
0.000338687
0.0054485
0.00197133
0.0138278
0.0414604
0.01393
0.0031625
0.000629873
0.00020809
0.000132783
0.000116108
0.00014263
0.000193085
0.000249371
0.000306397
0.00036723
0.000436444
0.000510858
0.000575559
0.000610847
0.000603221
0.000552279
0.000471064
0.000378509
0.000290862
0.000218177
0.00016395
0.000126724
0.000102565
8.72463e-05
7.73072e-05
7.0643e-05
6.56695e-05
6.14915e-05
5.76659e-05
5.40207e-05
5.06672e-05
4.85819e-05
5.28381e-05
9.51268e-05
0.000947177
0.0133044
0.00293137
0.0130051
0.0283726
0.0144146
0.00572546
0.0021041
0.000834954
0.000414164
0.000277329
0.0002795
0.000315008
0.000356349
0.00040179
0.000458462
0.000530581
0.000609552
0.000673574
0.000698445
0.000670593
0.000593908
0.00048676
0.000372583
0.000270523
0.000190956
0.000135613
0.000100584
7.9813e-05
6.79098e-05
6.11317e-05
5.70572e-05
5.41241e-05
5.15852e-05
4.91368e-05
4.67314e-05
4.46663e-05
4.45803e-05
5.75441e-05
0.000205653
0.00247388
0.0113661
0.00309701
0.0106902
0.0193581
0.0120384
0.0062999
0.00317458
0.0016752
0.000987407
0.000679782
0.000560792
0.000517981
0.000510847
0.000531605
0.000583498
0.000662193
0.000746658
0.000804299
0.000806846
0.000744046
0.000628186
0.000486111
0.00034735
0.000233207
0.000152178
0.000101597
7.34708e-05
5.87503e-05
5.13048e-05
4.78665e-05
4.6062e-05
4.47404e-05
4.3424e-05
4.19644e-05
4.04555e-05
3.95668e-05
4.31536e-05
8.44555e-05
0.000545402
0.00282492
0.00852733
0.0029945
0.00807219
0.0137693
0.0096914
0.00593302
0.00356971
0.00222772
0.0014912
0.00109356
0.000869935
0.00074417
0.00068635
0.000690228
0.000750077
0.000843646
0.000930765
0.000967154
0.000925474
0.000805796
0.000635315
0.000452249
0.000292546
0.000176818
0.000106648
6.93183e-05
5.24306e-05
4.43125e-05
4.04679e-05
3.90419e-05
3.84476e-05
3.79952e-05
3.73929e-05
3.6572e-05
3.57406e-05
3.6208e-05
4.82554e-05
0.000174589
0.000880172
0.00281764
0.0063103
0.00270975
0.00612243
0.0101636
0.00778827
0.00531146
0.00356985
0.00246911
0.00178812
0.00136851
0.00109334
0.000926535
0.000859593
0.000886418
0.000981458
0.00109507
0.00116679
0.00114827
0.00102664
0.000822895
0.000587227
0.000368754
0.000207498
0.000114146
7.19367e-05
5.22738e-05
4.29018e-05
3.8106e-05
3.56807e-05
3.47766e-05
3.4462e-05
3.43041e-05
3.41316e-05
3.39625e-05
3.41758e-05
3.70117e-05
5.85766e-05
0.000213419
0.000902497
0.00261002
0.00554626
0.00251167
0.00617925
0.00780501
0.00679948
0.0047371
0.00336426
0.00246159
0.00186536
0.00146215
0.00119474
0.00106502
0.00107039
0.00117888
0.00132593
0.00143268
0.00143364
0.0012984
0.00105236
0.000744729
0.000457709
0.000238509
0.000130821
8.17523e-05
6.02105e-05
4.96371e-05
4.35518e-05
3.95707e-05
3.69581e-05
3.56038e-05
3.50645e-05
3.50541e-05
3.55697e-05
3.68262e-05
3.94239e-05
4.5877e-05
7.01096e-05
0.000189727
0.000697336
0.00207126
0.00497063
0.00289763
0.00454416
0.00511057
0.00418325
0.00336072
0.00263895
0.0020695
0.00164855
0.00136174
0.00124545
0.00130114
0.00147709
0.0016823
0.00181646
0.00180725
0.00163069
0.00130191
0.00091377
0.000522489
0.000279895
0.000155298
0.000102207
7.98583e-05
6.89372e-05
6.19131e-05
5.62623e-05
5.13068e-05
4.7212e-05
4.4628e-05
4.37932e-05
4.46172e-05
4.75735e-05
5.35249e-05
6.3655e-05
8.04727e-05
0.000114036
0.000209802
0.000562811
0.00188609
0.00382483
0.0031875
0.00140151
0.00143155
0.00143346
0.00135393
0.00131145
0.00142449
0.00170966
0.002043
0.00230105
0.0023938
0.00227593
0.00196555
0.00152553
0.000983399
0.000572306
0.000314311
0.000188451
0.000136486
0.000116136
0.00010654
0.000100089
9.41844e-05
8.79467e-05
8.13113e-05
7.5028e-05
7.08054e-05
7.04052e-05
7.45356e-05
8.49862e-05
0.000104253
0.000134923
0.000180283
0.000249816
0.000377926
0.000689871
0.00205144
0.00336241
0.00330987
0.00118746
0.00171686
0.00195363
0.00231022
0.00275939
0.00316322
0.00334039
0.00330122
0.00307126
0.00267546
0.00210888
0.00149392
0.000965674
0.000569762
0.000341514
0.000235109
0.000193908
0.00017847
0.000171363
0.0001666
0.000162286
0.000157541
0.000151778
0.000144883
0.000137829
0.000133285
0.000135
0.000145242
0.000167951
0.000208513
0.000273239
0.000370077
0.000513744
0.000741029
0.00115214
0.00218576
0.00418257
0.00312911
0.00742138
0.0080671
0.00480575
0.00340325
0.00373992
0.00415352
0.00416751
0.00395566
0.00359562
0.00313644
0.00262522
0.0020815
0.00153443
0.00105321
0.000696832
0.000478955
0.000373354
0.000329478
0.000310331
0.000299502
0.000292081
0.000287016
0.000283936
0.000282049
0.000280055
0.000276783
0.000272506
0.000270586
0.000275953
0.000291981
0.000323706
0.000378627
0.00046729
0.0006048
0.000815134
0.0011415
0.00166746
0.0025353
0.00387337
0.00279928
0.00650523
0.00513166
0.00437314
0.00462636
0.0045463
0.00427785
0.00369608
0.00304856
0.00246179
0.00196742
0.00156185
0.0012353
0.000981781
0.000799449
0.000683044
0.000615526
0.000571974
0.000541372
0.000518508
0.000502068
0.000492799
0.000491913
0.00050001
0.000516478
0.000539381
0.000565785
0.000592497
0.000616854
0.000639928
0.000668925
0.000712063
0.00077787
0.000876515
0.00102255
0.0012399
0.00156847
0.0020717
0.00287788
0.00378505
0.00299621
0.00535825
0.0033688
0.00331785
0.0036139
0.0038709
0.00352961
0.0029251
0.00231024
0.00178699
0.00137189
0.00105223
0.000813153
0.000643344
0.000532834
0.000469291
0.000438364
0.000430143
0.000431396
0.000439504
0.000455019
0.000479185
0.00051263
0.000554717
0.000603573
0.000656697
0.000711822
0.000767779
0.00082526
0.000885772
0.000951216
0.00102712
0.00111958
0.00123437
0.00137644
0.00154814
0.00174532
0.00195891
0.00221817
0.00266505
0.00272336
)
;

boundaryField
{
    floor
    {
        Cmu             0.09;
        kappa           0.41;
        E               9.8;
        type            epsilonWallFunction;
        value           nonuniform List<scalar> 
36
(
0.000860851
8.94855e-05
0.000262697
0.000269189
0.000250171
0.00022034
0.000184277
0.000152465
0.000126606
0.000105966
8.94904e-05
7.63357e-05
6.56797e-05
5.68796e-05
4.94088e-05
4.27949e-05
3.65396e-05
3.18309e-05
2.3607e-05
2.3607e-05
4.80941e-05
7.07889e-05
9.44841e-05
0.000159931
0.000360674
0.000319422
0.000860851
0.0011299
0.000979228
0.000858773
8.94855e-05
0.000858773
0.000511756
0.00158458
0.00102783
0.00156526
)
;
    }
    ceiling
    {
        Cmu             0.09;
        kappa           0.41;
        E               9.8;
        type            epsilonWallFunction;
        value           nonuniform List<scalar> 
43
(
0.00535825
0.0033688
0.00331785
0.0036139
0.0038709
0.00352961
0.0029251
0.00231024
0.00178699
0.00137189
0.00105223
0.000813153
0.000643344
0.000532834
0.000469291
0.000438364
0.000430143
0.000431396
0.000439504
0.000455019
0.000479185
0.00051263
0.000554717
0.000603573
0.000656697
0.000711822
0.000767779
0.00082526
0.000885772
0.000951216
0.00102712
0.00111958
0.00123437
0.00137644
0.00154814
0.00174532
0.00195891
0.00221817
0.00266505
0.00272336
0.00454416
0.00511057
0.00118746
)
;
    }
    sWall
    {
        Cmu             0.09;
        kappa           0.41;
        E               9.8;
        type            epsilonWallFunction;
        value           nonuniform List<scalar> 9(0.0130051 0.0106902 0.00807219 0.00612243 0.00617925 0.00454416 0.00742138 0.00650523 0.00535825);
    }
    nWall
    {
        Cmu             0.09;
        kappa           0.41;
        E               9.8;
        type            epsilonWallFunction;
        value           nonuniform List<scalar> 
14
(
0.000319422
0.000548733
0.000893681
0.00309701
0.0029945
0.00270975
0.00251167
0.00289763
0.0031875
0.00330987
0.00312911
0.00279928
0.00299621
0.00272336
)
;
    }
    sideWalls
    {
        type            empty;
    }
    glass1
    {
        Cmu             0.09;
        kappa           0.41;
        E               9.8;
        type            epsilonWallFunction;
        value           nonuniform List<scalar> 9(0.000253121 0.00079701 0.00163067 0.00285363 0.00454619 0.00676384 0.00967225 0.012759 0.0138278);
    }
    glass2
    {
        Cmu             0.09;
        kappa           0.41;
        E               9.8;
        type            epsilonWallFunction;
        value           nonuniform List<scalar> 2(0.00197133 0.00293137);
    }
    sun
    {
        Cmu             0.09;
        kappa           0.41;
        E               9.8;
        type            epsilonWallFunction;
        value           nonuniform List<scalar> 
14
(
0.000253121
0.000306337
0.000302975
0.00034414
0.000385002
0.000424817
0.000464277
0.000504574
0.000547443
0.000595601
0.000644104
0.000692554
0.000742597
0.000799023
)
;
    }
    Table_master
    {
        Cmu             0.09;
        kappa           0.41;
        E               9.8;
        type            epsilonWallFunction;
        value           nonuniform List<scalar> 9(0.000551731 0.00036285 0.000250929 0.000181473 0.000136388 0.000105982 8.48211e-05 6.985e-05 5.94856e-05);
    }
    Table_slave
    {
        Cmu             0.09;
        kappa           0.41;
        E               9.8;
        type            epsilonWallFunction;
        value           nonuniform List<scalar> 9(0.000814208 0.000612789 0.000482025 0.000388631 0.000319249 0.000264435 0.000218857 0.000179097 0.000141916);
    }
    inlet
    {
        type            turbulentMixingLengthDissipationRateInlet;
        mixingLength    0.01;
        phi             phi;
        k               k;
        value           uniform 0.000471671;
    }
    outlet
    {
        type            zeroGradient;
    }
}


// ************************************************************************* //
