/*--------------------------------*- C++ -*----------------------------------*\
  =========                 |
  \\      /  F ield         | OpenFOAM: The Open Source CFD Toolbox
   \\    /   O peration     | Website:  https://openfoam.org
    \\  /    A nd           | Version:  6
     \\/     M anipulation  |
\*---------------------------------------------------------------------------*/
FoamFile
{
    version     2.0;
    format      ascii;
    class       volScalarField;
    location    "38499.9999988563577";
    object      k;
}
// * * * * * * * * * * * * * * * * * * * * * * * * * * * * * * * * * * * * * //

dimensions      [0 2 -2 0 0 0 0];

internalField   nonuniform List<scalar> 
778
(
0.00158594
0.00180109
0.00178788
0.00194637
0.00209754
0.00223977
0.0023764
0.00251199
0.00265233
0.00280569
0.00295601
0.00310245
0.00325015
0.00341278
0.00358663
0.000792934
0.00162569
0.00165236
0.00157359
0.00144587
0.00128346
0.00113114
0.00099932
0.000887521
0.000792961
0.000713213
0.000645191
0.00058619
0.000533667
0.000484911
0.000436425
0.000398077
0.000326158
0.00340704
0.00643343
0.00268742
0.00274592
0.00288754
0.00305406
0.00323436
0.00343008
0.00364331
0.00387371
0.00412596
0.00437998
0.00459607
0.00470159
0.00459596
0.00429959
0.00390833
0.00358086
0.00253577
0.00281223
0.00295502
0.00289791
0.00266535
0.00226624
0.0019067
0.0016102
0.00137026
0.00117627
0.00101735
0.000885499
0.000774213
0.000681386
0.000615373
0.000574887
0.00086425
0.000524157
0.00549093
0.0127812
0.00347787
0.00321195
0.00329722
0.00345501
0.00363636
0.00384051
0.00407086
0.00432761
0.00463588
0.00501154
0.00545211
0.00596205
0.00653338
0.00686214
0.00627957
0.00538697
0.0040366
0.00416813
0.00417177
0.00397493
0.00357782
0.00266615
0.00201628
0.00157676
0.0012704
0.00105015
0.000887611
0.000765133
0.000672221
0.000603961
0.000551704
0.00054888
0.0011646
0.00067823
0.00797381
0.0217585
0.00449109
0.00339056
0.00334128
0.00343783
0.00354921
0.00366871
0.00380897
0.0039914
0.0042594
0.0046491
0.00517236
0.00582691
0.00655677
0.00713658
0.00722978
0.00724382
0.0053431
0.00554948
0.00537479
0.00512423
0.00478607
0.00434784
0.00345587
0.0028594
0.00243658
0.00211069
0.00185134
0.00163285
0.00143938
0.00125929
0.00107834
0.000801179
0.000660142
0.00141925
0.000822189
0.0108768
0.0336344
0.00621266
0.0034248
0.00315805
0.00316674
0.00318942
0.00320978
0.0032521
0.00336115
0.00359492
0.00398975
0.00455466
0.00527875
0.00608953
0.00682017
0.0072855
0.00764547
0.00751823
0.00665405
0.00607251
0.00557809
0.00509843
0.00462922
0.00412328
0.003666
0.00327554
0.00293801
0.00263186
0.00234843
0.00207986
0.00181901
0.0015553
0.0012224
0.000931211
0.00118961
0.00121609
0.00116777
0.00200832
0.00185201
0.0141752
0.0475976
0.0092835
0.00348981
0.0029083
0.00282253
0.00276428
0.00269954
0.00266427
0.00273457
0.00298087
0.00341465
0.00402468
0.00479992
0.00565661
0.00646403
0.00707137
0.00740905
0.00732475
0.00679014
0.00621471
0.00563665
0.00507399
0.00455602
0.00409158
0.00369602
0.00336346
0.00307407
0.00280724
0.00255208
0.00229957
0.00204269
0.00177408
0.00147169
0.00117966
0.00111338
0.00111181
0.00170085
0.005049
0.00265646
0.0179923
0.0606041
0.0143587
0.00381931
0.00271498
0.00252921
0.00241174
0.00229411
0.00222121
0.00231154
0.00263018
0.00313938
0.00380283
0.00463307
0.00553137
0.00636988
0.00700375
0.00733034
0.00725603
0.00681895
0.00621567
0.00555481
0.00491189
0.00434291
0.00387269
0.00350058
0.0032068
0.00296188
0.00274163
0.0025296
0.00231411
0.00208774
0.00184551
0.0015832
0.00132892
0.00116249
0.00109356
0.00154655
0.00619559
0.00367727
0.0216411
0.0704795
0.0214338
0.00510185
0.00274262
0.00237171
0.00221018
0.00208216
0.00202667
0.0022197
0.00264975
0.00323091
0.0039377
0.00477594
0.00570125
0.00657616
0.00722633
0.00751643
0.00738643
0.00689783
0.00619916
0.00542738
0.00469167
0.00406452
0.00357438
0.00321225
0.00294729
0.00274066
0.00256416
0.00239613
0.00222266
0.00203601
0.00183257
0.00161359
0.00139955
0.00123552
0.00115823
0.00207204
0.0137635
0.00623165
0.0228334
0.0694952
0.0325305
0.0110541
0.00406648
0.00258731
0.0022357
0.00210348
0.00219081
0.00251332
0.00300104
0.00360231
0.00433271
0.00521296
0.00618561
0.00708838
0.00771851
0.00792501
0.0076669
0.00702767
0.00616672
0.00524913
0.0044075
0.00372205
0.00321606
0.0028681
0.00263465
0.00246816
0.00233561
0.00221102
0.00207936
0.00193335
0.00177054
0.00159403
0.00142056
0.0012985
0.00134959
0.00381319
0.026354
0.00811771
0.0219185
0.0516376
0.0336419
0.0174311
0.00858629
0.0047594
0.0032622
0.00273145
0.00285525
0.0032131
0.003674
0.00424697
0.00499462
0.00593625
0.0069712
0.00788487
0.00844053
0.00848473
0.00800596
0.00712648
0.00604303
0.00495439
0.00401078
0.00328957
0.00279664
0.00248733
0.00230082
0.00218283
0.00209492
0.00201026
0.00191527
0.00180422
0.00167625
0.00153597
0.00140002
0.00133206
0.00175425
0.00807495
0.0247008
0.00842141
0.0192335
0.0394377
0.0302371
0.0195651
0.0121822
0.00793984
0.00571928
0.00467224
0.00436563
0.00440281
0.00465441
0.00514495
0.00593124
0.00697338
0.00807887
0.00895575
0.00933875
0.00909684
0.0082766
0.00706427
0.00571314
0.00445922
0.00345985
0.00276684
0.00234685
0.00211363
0.00198923
0.00192163
0.00187178
0.00181803
0.00175012
0.0016641
0.00156066
0.00144751
0.00135002
0.00142019
0.00300292
0.00963152
0.0208735
0.00823536
0.0159488
0.031585
0.0266492
0.0195383
0.0139764
0.0102853
0.00802913
0.00675407
0.00605208
0.00573367
0.00578382
0.00627093
0.00719883
0.00839981
0.00954594
0.0102666
0.0103037
0.00959588
0.00829245
0.00667027
0.00505578
0.00371826
0.0027904
0.00223334
0.00195417
0.00181389
0.00174448
0.00171045
0.00168316
0.00164793
0.00159712
0.00152726
0.00143964
0.00134754
0.00130451
0.00172862
0.00431552
0.0100403
0.0172032
0.00770495
0.0132643
0.0256645
0.0233451
0.0186875
0.014583
0.0115884
0.0095444
0.00821104
0.00730188
0.00684203
0.00695694
0.00770925
0.00895432
0.010329
0.0113686
0.0116804
0.0111
0.00970244
0.00779774
0.00576734
0.00402651
0.00283516
0.00219566
0.00186483
0.00170052
0.00161753
0.00157517
0.00155292
0.00153235
0.00150382
0.00146159
0.001403
0.00133066
0.00126323
0.00128608
0.00189446
0.0046006
0.00986913
0.0161389
0.00732307
0.0133462
0.0224048
0.0220484
0.0177552
0.0143898
0.0118927
0.0100835
0.00876911
0.00791977
0.00777566
0.00846613
0.00984249
0.0114768
0.0128092
0.013347
0.0128146
0.0112795
0.00900065
0.00653085
0.00431648
0.00296572
0.0022296
0.0018632
0.00167757
0.00157657
0.0015157
0.001476
0.00144869
0.00142275
0.00139188
0.0013523
0.00130345
0.00125083
0.00121802
0.00129322
0.00184609
0.00409195
0.00896027
0.0159934
0.00804929
0.0108735
0.0117593
0.0129212
0.0125517
0.0113743
0.010075
0.00894744
0.00820569
0.00830783
0.00941549
0.0112695
0.0133038
0.0148653
0.0154372
0.0147714
0.0128618
0.0101725
0.00704203
0.00465506
0.00314726
0.00236178
0.00198038
0.00178729
0.00167201
0.00158847
0.0015196
0.00146108
0.00141369
0.00137306
0.00133499
0.00130019
0.00127673
0.00128225
0.00134779
0.00154128
0.00208958
0.00386653
0.00901086
0.0140792
0.0085831
0.00354692
0.00482874
0.00600237
0.00660754
0.00728565
0.0088066
0.0113205
0.0141256
0.0164972
0.0178857
0.0179545
0.0166441
0.0141688
0.0106141
0.00734488
0.00485525
0.00335451
0.00259504
0.002246
0.00207198
0.00196176
0.00187104
0.0017835
0.00169464
0.0016079
0.0015343
0.00148294
0.00145611
0.00146822
0.00154475
0.00171311
0.00199501
0.00243225
0.00318446
0.00480324
0.0102011
0.0136231
0.00880157
0.00444442
0.00629438
0.00811252
0.0110299
0.0147126
0.018161
0.0203779
0.0214015
0.0212775
0.0200174
0.0174742
0.0140139
0.0103924
0.00715212
0.00487703
0.00358009
0.00296817
0.00269747
0.00256048
0.0024695
0.00239477
0.00232536
0.00225515
0.00218056
0.00210384
0.00203805
0.00200609
0.00202472
0.00212298
0.00233749
0.00270138
0.00323871
0.00398805
0.00507265
0.00684033
0.0106837
0.0157118
0.0084856
0.0150796
0.0244407
0.0180784
0.0143889
0.017021
0.0207342
0.0228737
0.0235693
0.0230886
0.0217024
0.0196512
0.016993
0.0138313
0.010549
0.0076732
0.00559677
0.00441053
0.00384522
0.0035729
0.00340915
0.00328933
0.00319898
0.00313717
0.00310169
0.00308465
0.00307425
0.00306193
0.00305387
0.00307321
0.00314861
0.00331286
0.00360467
0.00406455
0.00473047
0.00564218
0.00686092
0.00849504
0.0106636
0.0131793
0.00787408
0.0138116
0.0170507
0.0178852
0.0207868
0.021721
0.0221415
0.0211458
0.0193322
0.0172077
0.0150181
0.0128622
0.0107946
0.00889717
0.00730084
0.00613335
0.00539558
0.00492397
0.00460753
0.00437129
0.00418728
0.00405611
0.00398854
0.0039941
0.00407459
0.00422066
0.00441076
0.00461281
0.00478823
0.00492568
0.00507625
0.00528845
0.00560285
0.00605629
0.00668895
0.00755542
0.00873132
0.0103037
0.012431
0.0138494
0.00822916
0.0121362
0.00890673
0.00881671
0.00933367
0.00977111
0.009188
0.00810648
0.00692652
0.00583675
0.00489388
0.00410083
0.00345353
0.00295425
0.00260533
0.00239368
0.00228718
0.00225843
0.0022628
0.00229111
0.00234484
0.00242728
0.00253903
0.00267614
0.00283091
0.00299442
0.00315942
0.00332257
0.00348614
0.00365427
0.00383196
0.00403312
0.00427163
0.00455877
0.00490201
0.00530127
0.00574178
0.00620065
0.00673706
0.00761668
0.00772399
)
;

boundaryField
{
    floor
    {
        type            kqRWallFunction;
        value           nonuniform List<scalar> 
36
(
0.00358663
0.000792934
0.00162569
0.00165236
0.00157359
0.00144587
0.00128346
0.00113114
0.00099932
0.000887521
0.000792961
0.000713213
0.000645191
0.00058619
0.000533667
0.000484911
0.000436425
0.000398077
0.000326158
0.000326158
0.000524157
0.00067823
0.000822189
0.00116777
0.00200832
0.00185201
0.00358663
0.00429959
0.00390833
0.00358086
0.000792934
0.00358086
0.00253577
0.00538697
0.0040366
0.0053431
)
;
    }
    ceiling
    {
        type            kqRWallFunction;
        value           nonuniform List<scalar> 
43
(
0.0121362
0.00890673
0.00881671
0.00933367
0.00977111
0.009188
0.00810648
0.00692652
0.00583675
0.00489388
0.00410083
0.00345353
0.00295425
0.00260533
0.00239368
0.00228718
0.00225843
0.0022628
0.00229111
0.00234484
0.00242728
0.00253903
0.00267614
0.00283091
0.00299442
0.00315942
0.00332257
0.00348614
0.00365427
0.00383196
0.00403312
0.00427163
0.00455877
0.00490201
0.00530127
0.00574178
0.00620065
0.00673706
0.00761668
0.00772399
0.0108735
0.0117593
0.00444442
)
;
    }
    sWall
    {
        type            kqRWallFunction;
        value           nonuniform List<scalar> 9(0.0219185 0.0192335 0.0159488 0.0132643 0.0133462 0.0108735 0.0150796 0.0138116 0.0121362);
    }
    nWall
    {
        type            kqRWallFunction;
        value           nonuniform List<scalar> 
14
(
0.00185201
0.00265646
0.00367727
0.00842141
0.00823536
0.00770495
0.00732307
0.00804929
0.0085831
0.00880157
0.0084856
0.00787408
0.00822916
0.00772399
)
;
    }
    sideWalls
    {
        type            empty;
    }
    glass1
    {
        type            kqRWallFunction;
        value           nonuniform List<scalar> 9(0.00158594 0.00340704 0.00549093 0.00797381 0.0108768 0.0141752 0.0179923 0.0216411 0.0228334);
    }
    glass2
    {
        type            kqRWallFunction;
        value           nonuniform List<scalar> 2(0.00623165 0.00811771);
    }
    sun
    {
        type            kqRWallFunction;
        value           nonuniform List<scalar> 
14
(
0.00158594
0.00180109
0.00178788
0.00194637
0.00209754
0.00223977
0.0023764
0.00251199
0.00265233
0.00280569
0.00295601
0.00310245
0.00325015
0.00341278
)
;
    }
    Table_master
    {
        type            kqRWallFunction;
        value           nonuniform List<scalar> 9(0.00266615 0.00201628 0.00157676 0.0012704 0.00105015 0.000887611 0.000765133 0.000672221 0.000603961);
    }
    Table_slave
    {
        type            kqRWallFunction;
        value           nonuniform List<scalar> 9(0.00345587 0.0028594 0.00243658 0.00211069 0.00185134 0.00163285 0.00143938 0.00125929 0.00107834);
    }
    inlet
    {
        type            turbulentIntensityKineticEnergyInlet;
        intensity       0.05;
        value           uniform 0.0009375;
    }
    outlet
    {
        type            zeroGradient;
    }
}


// ************************************************************************* //
