/*--------------------------------*- C++ -*----------------------------------*\
  =========                 |
  \\      /  F ield         | OpenFOAM: The Open Source CFD Toolbox
   \\    /   O peration     | Website:  https://openfoam.org
    \\  /    A nd           | Version:  6
     \\/     M anipulation  |
\*---------------------------------------------------------------------------*/
FoamFile
{
    version     2.0;
    format      ascii;
    class       volVectorField;
    location    "38499.9999988563577";
    object      U;
}
// * * * * * * * * * * * * * * * * * * * * * * * * * * * * * * * * * * * * * //

dimensions      [0 1 -1 0 0 0 0];

internalField   nonuniform List<vector> 
778
(
(0.065595 0.0794094 0)
(-0.155181 0.0157685 0)
(-0.164314 0.0146291 0)
(-0.192439 0.0122807 0)
(-0.216885 0.00873157 0)
(-0.236957 0.00475096 0)
(-0.252098 0.000423438 0)
(-0.261881 -0.00436358 0)
(-0.265793 -0.00980864 0)
(-0.262827 -0.016192 0)
(-0.251028 -0.0242694 0)
(-0.226326 -0.0348934 0)
(-0.186191 -0.0504217 0)
(-0.144242 -0.0752024 0)
(-0.150136 -0.108611 0)
(0.0546145 0.035493 0)
(0.0156964 -0.0268698 0)
(0.0448675 -0.0232641 0)
(0.0692544 -0.0161608 0)
(0.0843064 -0.0103537 0)
(0.0915135 -0.0064149 0)
(0.0943483 -0.00433496 0)
(0.0953778 -0.00331156 0)
(0.0958236 -0.00272541 0)
(0.095988 -0.00231371 0)
(0.0958603 -0.00195076 0)
(0.095334 -0.0015117 0)
(0.0940788 -0.000758993 0)
(0.0912368 0.000843572 0)
(0.0850417 0.00406368 0)
(0.073519 0.00776743 0)
(0.0598799 0.0116098 0)
(-0.00794378 0.0299669 0)
(0.258391 0.167398 0)
(-0.161239 0.0484005 0)
(-0.141615 0.0459905 0)
(-0.174026 0.0416278 0)
(-0.199398 0.035684 0)
(-0.220131 0.0291479 0)
(-0.236175 0.0220782 0)
(-0.247443 0.0142477 0)
(-0.253634 0.00531271 0)
(-0.253966 -0.00514191 0)
(-0.247821 -0.0170803 0)
(-0.234122 -0.0308582 0)
(-0.214217 -0.0480952 0)
(-0.197646 -0.0699916 0)
(-0.194139 -0.0826854 0)
(-0.166515 -0.0425982 0)
(-0.105415 -0.0364293 0)
(-0.098339 -0.044528 0)
(0.10933 -0.0419985 0)
(0.0644218 -0.0411139 0)
(0.0718302 -0.0322413 0)
(0.0857886 -0.0207025 0)
(0.0936742 -0.0104595 0)
(0.0959053 -0.00364028 0)
(0.0956697 -0.000188999 0)
(0.0952833 0.00126226 0)
(0.0952458 0.00190864 0)
(0.0953245 0.00227719 0)
(0.0953293 0.00259348 0)
(0.0952277 0.00313139 0)
(0.0949364 0.00440972 0)
(0.0936803 0.00772171 0)
(0.0880888 0.0167458 0)
(0.0743463 0.0253165 0)
(0.063022 0.032924 0)
(-0.0519978 0.0635062 0)
(0.429966 0.253964 0)
(-0.194236 0.0847743 0)
(-0.112792 0.0784488 0)
(-0.148264 0.0669762 0)
(-0.170704 0.0555259 0)
(-0.188808 0.0437582 0)
(-0.202657 0.0313788 0)
(-0.212362 0.0180427 0)
(-0.217726 0.0034304 0)
(-0.218096 -0.0126093 0)
(-0.212849 -0.0303136 0)
(-0.20175 -0.0499128 0)
(-0.186115 -0.0715887 0)
(-0.169586 -0.0932469 0)
(-0.151221 -0.10461 0)
(-0.120377 -0.0931967 0)
(-0.0796645 -0.0950174 0)
(-0.0715596 -0.107693 0)
(0.0920858 -0.0880474 0)
(0.0625199 -0.0656685 0)
(0.0742994 -0.0460698 0)
(0.0879118 -0.029207 0)
(0.0947216 -0.0148696 0)
(0.091796 -0.0120419 0)
(0.0875641 -0.00798409 0)
(0.085192 -0.00580136 0)
(0.0844999 -0.00456472 0)
(0.0844832 -0.00379536 0)
(0.0847449 -0.0032223 0)
(0.0853991 -0.00259755 0)
(0.0871591 -0.00144055 0)
(0.0918389 0.00291734 0)
(0.0899967 0.0250867 0)
(0.0732106 0.042317 0)
(0.0699624 0.0574068 0)
(-0.0900438 0.100787 0)
(0.578526 0.325854 0)
(-0.240103 0.121832 0)
(-0.0808507 0.109246 0)
(-0.121598 0.0898813 0)
(-0.139038 0.0741036 0)
(-0.153108 0.0586766 0)
(-0.163876 0.0427983 0)
(-0.171481 0.0258554 0)
(-0.175702 0.00723941 0)
(-0.175777 -0.0134997 0)
(-0.171097 -0.0364516 0)
(-0.161537 -0.0614503 0)
(-0.147682 -0.087378 0)
(-0.130721 -0.110315 0)
(-0.109782 -0.123226 0)
(-0.08232 -0.124582 0)
(-0.0527271 -0.126435 0)
(-0.0336189 -0.123245 0)
(0.0160548 -0.0568269 0)
(0.0606295 -0.0929678 0)
(0.0683456 -0.0791107 0)
(0.0789963 -0.0587592 0)
(0.0914998 -0.039527 0)
(0.102852 -0.0208658 0)
(0.115598 -0.0132037 0)
(0.126738 -0.00882935 0)
(0.132328 -0.00561711 0)
(0.133302 -0.00310514 0)
(0.130765 -0.000876574 0)
(0.125289 0.00129473 0)
(0.116753 0.00367374 0)
(0.104394 0.00672297 0)
(0.0851584 0.0111433 0)
(0.0713059 0.0367954 0)
(0.0600472 0.0604871 0)
(0.076113 0.0832614 0)
(-0.117674 0.136965 0)
(0.7057 0.383698 0)
(-0.287676 0.157035 0)
(-0.0477158 0.133813 0)
(-0.0963196 0.106956 0)
(-0.107777 0.08764 0)
(-0.116818 0.0692259 0)
(-0.123614 0.0505055 0)
(-0.128281 0.0306467 0)
(-0.130646 0.00877705 0)
(-0.129846 -0.0157789 0)
(-0.125351 -0.0430499 0)
(-0.116735 -0.0726652 0)
(-0.104028 -0.102808 0)
(-0.0875806 -0.129068 0)
(-0.0676567 -0.145774 0)
(-0.0443391 -0.152273 0)
(-0.0204931 -0.152407 0)
(3.02282e-05 -0.14378 0)
(0.0305793 -0.115021 0)
(0.0567854 -0.109346 0)
(0.0704117 -0.092401 0)
(0.0805858 -0.0712175 0)
(0.0906664 -0.0507588 0)
(0.100233 -0.0327189 0)
(0.109342 -0.0193546 0)
(0.116355 -0.00997931 0)
(0.119763 -0.00328294 0)
(0.119942 0.00196897 0)
(0.11751 0.00650853 0)
(0.112841 0.0108492 0)
(0.105968 0.0155028 0)
(0.0968246 0.0211735 0)
(0.0849142 0.0291645 0)
(0.0733795 0.0471577 0)
(0.0629118 0.0711846 0)
(0.0944325 0.099283 0)
(0.0165855 0.138166 0)
(0.0958548 0.182826 0)
(0.140981 0.147539 0)
(-0.224968 0.203409 0)
(0.810405 0.431996 0)
(-0.331311 0.190711 0)
(-0.0173356 0.150291 0)
(-0.0733994 0.117569 0)
(-0.0786317 0.0955673 0)
(-0.0822609 0.0750074 0)
(-0.0845215 0.0544091 0)
(-0.0855635 0.032786 0)
(-0.0853102 0.00892117 0)
(-0.0826352 -0.0183598 0)
(-0.0774694 -0.048983 0)
(-0.0688486 -0.0824578 0)
(-0.0568699 -0.116451 0)
(-0.0418419 -0.146245 0)
(-0.0248787 -0.165949 0)
(-0.00651782 -0.174481 0)
(0.011866 -0.172773 0)
(0.0277799 -0.161055 0)
(0.0459615 -0.13937 0)
(0.0624422 -0.122374 0)
(0.07315 -0.1025 0)
(0.08086 -0.0804274 0)
(0.0876372 -0.0590685 0)
(0.0938255 -0.0401836 0)
(0.0991542 -0.0250065 0)
(0.102831 -0.0136487 0)
(0.104416 -0.00495685 0)
(0.103962 0.00222963 0)
(0.101782 0.00868366 0)
(0.0981282 0.0149221 0)
(0.0931634 0.0214736 0)
(0.0871226 0.0289777 0)
(0.0802681 0.0383598 0)
(0.0745335 0.0527783 0)
(0.0693051 0.0727934 0)
(0.0912888 0.0985474 0)
(0.0730629 0.107354 0)
(0.0895041 0.0480897 0)
(0.14622 -0.0367318 0)
(-0.328728 0.105759 0)
(0.879884 0.474711 0)
(-0.36863 0.221001 0)
(0.00370484 0.155616 0)
(-0.0526963 0.121632 0)
(-0.0522513 0.0979186 0)
(-0.0510798 0.0758927 0)
(-0.0490823 0.0541173 0)
(-0.0465697 0.0316069 0)
(-0.0433819 0.00683827 0)
(-0.0374155 -0.0222405 0)
(-0.0303385 -0.0553115 0)
(-0.0205623 -0.0918691 0)
(-0.00877723 -0.128798 0)
(0.0043967 -0.161127 0)
(0.0174329 -0.181797 0)
(0.0302016 -0.190176 0)
(0.0420016 -0.187241 0)
(0.0523095 -0.174468 0)
(0.0622951 -0.154126 0)
(0.0708983 -0.13246 0)
(0.0764552 -0.109417 0)
(0.0799444 -0.0858835 0)
(0.0825613 -0.0636765 0)
(0.0848044 -0.0441524 0)
(0.08663 -0.0280351 0)
(0.0877039 -0.0152289 0)
(0.0878057 -0.00495802 0)
(0.0867881 0.0036923 0)
(0.0848472 0.0113998 0)
(0.0821354 0.0186855 0)
(0.0788375 0.0260521 0)
(0.0752414 0.0340115 0)
(0.0717562 0.0431408 0)
(0.069751 0.0547657 0)
(0.0685895 0.0693192 0)
(0.0815209 0.0885529 0)
(0.0843373 0.0921343 0)
(0.0891635 0.0548043 0)
(0.180779 0.0251619 0)
(-0.281271 0.153866 0)
(0.927942 0.517167 0)
(-0.383158 0.234219 0)
(0.0168932 0.133056 0)
(-0.0273604 0.116733 0)
(-0.0265953 0.094999 0)
(-0.022798 0.0725071 0)
(-0.0176934 0.0501813 0)
(-0.0124219 0.0273217 0)
(-0.00546025 0.00191862 0)
(0.00453116 -0.0306919 0)
(0.0142541 -0.0652689 0)
(0.0255421 -0.103236 0)
(0.0371557 -0.140716 0)
(0.0477949 -0.171976 0)
(0.0568504 -0.192196 0)
(0.0643124 -0.199741 0)
(0.070017 -0.195391 0)
(0.0739698 -0.181251 0)
(0.0766831 -0.160191 0)
(0.0780697 -0.136191 0)
(0.0777415 -0.111149 0)
(0.0762675 -0.0865833 0)
(0.0744712 -0.0639764 0)
(0.0728715 -0.0443344 0)
(0.0716016 -0.0280375 0)
(0.0705233 -0.0148069 0)
(0.0694421 -0.00395192 0)
(0.068068 0.00529669 0)
(0.0665249 0.0135127 0)
(0.0647926 0.0211787 0)
(0.0629659 0.028722 0)
(0.0612491 0.0365047 0)
(0.0599663 0.0448409 0)
(0.0600069 0.0542539 0)
(0.0612304 0.0648176 0)
(0.0701282 0.0782855 0)
(0.0795391 0.0823211 0)
(0.0782059 0.0625523 0)
(0.238613 0.0529804 0)
(-0.557532 0.231248 0)
(1.01129 0.506845 0)
(-0.137335 0.296374 0)
(0.0410753 0.161569 0)
(0.0405641 0.122153 0)
(0.0130448 0.0920443 0)
(0.00861883 0.0654321 0)
(0.0140395 0.0414516 0)
(0.0206639 0.017031 0)
(0.032485 -0.0109865 0)
(0.0439575 -0.0421173 0)
(0.0558312 -0.0768532 0)
(0.0680951 -0.114524 0)
(0.0792017 -0.150923 0)
(0.0876593 -0.180357 0)
(0.0928329 -0.19841 0)
(0.0948432 -0.20365 0)
(0.0941065 -0.197094 0)
(0.0911752 -0.181132 0)
(0.0867268 -0.158786 0)
(0.08121 -0.133367 0)
(0.0749125 -0.107311 0)
(0.0684275 -0.082457 0)
(0.06247 -0.060172 0)
(0.0575502 -0.0411878 0)
(0.0538482 -0.0255948 0)
(0.0512522 -0.0129047 0)
(0.0494909 -0.002357 0)
(0.0481639 0.0067285 0)
(0.0472585 0.014843 0)
(0.0465553 0.0224214 0)
(0.0460197 0.0297974 0)
(0.0457232 0.0371922 0)
(0.0458398 0.0447259 0)
(0.0468856 0.0525215 0)
(0.0489537 0.0604167 0)
(0.0554051 0.0692531 0)
(0.0645932 0.0705705 0)
(0.0569443 0.0477099 0)
(0.29377 0.0723817 0)
(-0.768254 0.300967 0)
(0.779337 0.395772 0)
(0.000748217 0.319525 0)
(0.0933749 0.218943 0)
(0.110588 0.155209 0)
(0.0771555 0.106867 0)
(0.0597797 0.0675867 0)
(0.0581982 0.0357912 0)
(0.0623663 0.00642874 0)
(0.0738078 -0.0234295 0)
(0.0853883 -0.055033 0)
(0.0975835 -0.0897042 0)
(0.10943 -0.126135 0)
(0.118767 -0.159837 0)
(0.123821 -0.185514 0)
(0.124001 -0.199614 0)
(0.119742 -0.201292 0)
(0.112 -0.191882 0)
(0.101854 -0.173895 0)
(0.0903463 -0.150335 0)
(0.0783199 -0.124227 0)
(0.0664626 -0.0981106 0)
(0.0555046 -0.0739172 0)
(0.0461667 -0.0529065 0)
(0.0389057 -0.035526 0)
(0.0338027 -0.021567 0)
(0.0306002 -0.0102642 0)
(0.0288323 -0.000733257 0)
(0.0280264 0.00763136 0)
(0.0279298 0.0152633 0)
(0.0282141 0.0225251 0)
(0.0287488 0.0296434 0)
(0.0294697 0.0367286 0)
(0.0303475 0.0437801 0)
(0.0314848 0.0507163 0)
(0.0326427 0.0572797 0)
(0.0348079 0.0639772 0)
(0.0258803 0.0672292 0)
(0.0225966 0.0809118 0)
(0.127398 0.161487 0)
(-0.646857 0.306344 0)
(0.617277 0.220901 0)
(0.00462672 0.298145 0)
(0.113041 0.241562 0)
(0.148312 0.177574 0)
(0.13088 0.12353 0)
(0.117859 0.0778513 0)
(0.114998 0.0388978 0)
(0.11717 0.00339101 0)
(0.123545 -0.0307323 0)
(0.131781 -0.0650064 0)
(0.141465 -0.10044 0)
(0.150321 -0.135215 0)
(0.155409 -0.164996 0)
(0.154807 -0.185493 0)
(0.148207 -0.194417 0)
(0.136513 -0.191781 0)
(0.1212 -0.179297 0)
(0.103778 -0.159497 0)
(0.0856228 -0.135261 0)
(0.0678501 -0.109372 0)
(0.0514132 -0.0843024 0)
(0.0371932 -0.0619364 0)
(0.0259334 -0.0433677 0)
(0.017891 -0.0286459 0)
(0.0128131 -0.0171713 0)
(0.0100298 -0.00781927 0)
(0.00881837 0.000331419 0)
(0.00876893 0.0077545 0)
(0.00941095 0.0147879 0)
(0.0104956 0.0216851 0)
(0.0118591 0.0285918 0)
(0.0133282 0.0355851 0)
(0.0146578 0.042664 0)
(0.015571 0.0497394 0)
(0.0157519 0.0566682 0)
(0.0145871 0.0649638 0)
(-0.0121648 0.0864919 0)
(-0.00415778 0.122303 0)
(0.100791 0.179945 0)
(-0.555842 0.239103 0)
(0.57077 0.118533 0)
(-0.0202886 0.258656 0)
(0.113749 0.229899 0)
(0.165095 0.176076 0)
(0.166754 0.126203 0)
(0.16441 0.0811114 0)
(0.165395 0.0399701 0)
(0.168331 0.00160875 0)
(0.172308 -0.0354193 0)
(0.1779 -0.071912 0)
(0.184072 -0.107495 0)
(0.187739 -0.139422 0)
(0.185888 -0.163872 0)
(0.177151 -0.178078 0)
(0.161975 -0.181259 0)
(0.141903 -0.174295 0)
(0.118878 -0.159189 0)
(0.0946651 -0.138338 0)
(0.070867 -0.114432 0)
(0.0487437 -0.0899685 0)
(0.0294875 -0.0673212 0)
(0.0141251 -0.0482503 0)
(0.00324918 -0.0334882 0)
(-0.00359159 -0.0222207 0)
(-0.00721044 -0.0136549 0)
(-0.00896863 -0.0062482 0)
(-0.00949218 0.00060437 0)
(-0.009033 0.00714726 0)
(-0.00794718 0.0135797 0)
(-0.00633746 0.0200697 0)
(-0.00435168 0.0267632 0)
(-0.00222045 0.0338237 0)
(-0.000365071 0.0414319 0)
(0.000519396 0.0496991 0)
(1.40908e-05 0.0591806 0)
(-0.00591281 0.0755777 0)
(-0.0386473 0.113993 0)
(-0.0303316 0.154185 0)
(0.0312107 0.182974 0)
(-0.524343 0.16684 0)
(0.628442 0.0536521 0)
(0.00943654 0.197302 0)
(0.113878 0.196979 0)
(0.17517 0.157972 0)
(0.191403 0.117722 0)
(0.198042 0.0772883 0)
(0.203367 0.0372593 0)
(0.208587 -0.00156009 0)
(0.21313 -0.0397284 0)
(0.217482 -0.0765537 0)
(0.219318 -0.109857 0)
(0.21547 -0.136514 0)
(0.204058 -0.153984 0)
(0.185174 -0.161317 0)
(0.160431 -0.159087 0)
(0.13199 -0.148686 0)
(0.102104 -0.132166 0)
(0.0725038 -0.111581 0)
(0.0449884 -0.0894392 0)
(0.0208285 -0.0679492 0)
(0.00163496 -0.0494254 0)
(-0.0116129 -0.035459 0)
(-0.0192256 -0.0258281 0)
(-0.0234264 -0.0183001 0)
(-0.0255388 -0.0117561 0)
(-0.0264688 -0.00558322 0)
(-0.0265556 0.000387671 0)
(-0.0258877 0.00622249 0)
(-0.0246 0.0120446 0)
(-0.0226633 0.0180247 0)
(-0.0201693 0.0243877 0)
(-0.0173282 0.0314553 0)
(-0.0146026 0.0396777 0)
(-0.0129096 0.0497374 0)
(-0.0128944 0.0633048 0)
(-0.0163816 0.0876268 0)
(-0.0420294 0.135848 0)
(-0.033453 0.185655 0)
(-0.00152747 0.175791 0)
(-0.539878 0.0668281 0)
(0.472417 0.0747576 0)
(-0.132003 0.137615 0)
(0.0942518 0.133372 0)
(0.172724 0.116876 0)
(0.203809 0.0953992 0)
(0.218071 0.0644106 0)
(0.228053 0.0283492 0)
(0.237164 -0.0090668 0)
(0.243611 -0.0454404 0)
(0.245174 -0.078324 0)
(0.239224 -0.105049 0)
(0.224404 -0.123603 0)
(0.201236 -0.133192 0)
(0.171622 -0.1343 0)
(0.138131 -0.128199 0)
(0.103044 -0.116152 0)
(0.0686998 -0.100017 0)
(0.0363131 -0.0813876 0)
(0.00835711 -0.062786 0)
(-0.0142471 -0.0462707 0)
(-0.0281399 -0.035235 0)
(-0.036326 -0.0275733 0)
(-0.0407003 -0.0216136 0)
(-0.0429599 -0.0161534 0)
(-0.0440093 -0.0107783 0)
(-0.0443447 -0.00537826 0)
(-0.0441317 -4.2632e-05 0)
(-0.043337 0.00515823 0)
(-0.0419676 0.0103007 0)
(-0.0398234 0.0155993 0)
(-0.0368937 0.0213861 0)
(-0.0332763 0.0281476 0)
(-0.0292937 0.0365961 0)
(-0.0257055 0.0479085 0)
(-0.0227992 0.064368 0)
(-0.0173125 0.0914274 0)
(-0.0214093 0.139762 0)
(-0.0154853 0.204908 0)
(0.117545 0.196832 0)
(-0.449104 0.0439579 0)
(0.724057 0.134416 0)
(0.0818267 0.115233 0)
(0.149703 0.0992657 0)
(0.222324 0.0805667 0)
(0.243955 0.0699982 0)
(0.248737 0.0476862 0)
(0.255064 0.0174844 0)
(0.26123 -0.0148635 0)
(0.260325 -0.0449091 0)
(0.249899 -0.0696709 0)
(0.229707 -0.0874489 0)
(0.201315 -0.0978237 0)
(0.167081 -0.101156 0)
(0.129519 -0.0984748 0)
(0.0911156 -0.0910683 0)
(0.0532975 -0.0796136 0)
(0.018858 -0.0657908 0)
(-0.0126552 -0.0507796 0)
(-0.0347015 -0.0394595 0)
(-0.0491178 -0.0318251 0)
(-0.0573712 -0.0269811 0)
(-0.0618983 -0.023138 0)
(-0.0642228 -0.0193373 0)
(-0.0652884 -0.0151199 0)
(-0.0655947 -0.0104725 0)
(-0.0654309 -0.00556556 0)
(-0.0649058 -0.000664926 0)
(-0.0639883 0.00401263 0)
(-0.0626767 0.00846141 0)
(-0.0605919 0.0129229 0)
(-0.0576148 0.0178214 0)
(-0.0537004 0.0237767 0)
(-0.0488986 0.0317161 0)
(-0.0433889 0.0430403 0)
(-0.036716 0.0597023 0)
(-0.0245806 0.0845605 0)
(-0.00848205 0.123876 0)
(0.00283797 0.183141 0)
(0.164884 0.182922 0)
(-0.359777 0.101093 0)
(0.191755 0.0880618 0)
(0.225609 0.0998687 0)
(0.246373 0.0702417 0)
(0.242449 0.0398642 0)
(0.239693 0.0120886 0)
(0.234743 -0.0130084 0)
(0.2201 -0.0335162 0)
(0.196483 -0.0485888 0)
(0.166205 -0.0582082 0)
(0.131681 -0.0628816 0)
(0.0946765 -0.0629642 0)
(0.05708 -0.0592118 0)
(0.0208657 -0.0525477 0)
(-0.0147144 -0.0431803 0)
(-0.0422465 -0.0346613 0)
(-0.0627732 -0.028289 0)
(-0.0761376 -0.0248724 0)
(-0.0842577 -0.0231302 0)
(-0.0889456 -0.0219189 0)
(-0.0916306 -0.02023 0)
(-0.0930626 -0.0177151 0)
(-0.0936496 -0.0143485 0)
(-0.0936476 -0.0102929 0)
(-0.0932574 -0.00581642 0)
(-0.0925951 -0.00126089 0)
(-0.0916834 0.003045 0)
(-0.0906921 0.0069552 0)
(-0.0892287 0.0106406 0)
(-0.0870947 0.0145675 0)
(-0.08404 0.019408 0)
(-0.0796086 0.0260497 0)
(-0.0731598 0.0355674 0)
(-0.0636489 0.0490383 0)
(-0.0478965 0.0672682 0)
(-0.0222612 0.0917816 0)
(0.00596804 0.13388 0)
(0.183782 0.153481 0)
(-0.341922 0.160798 0)
(0.450905 0.209871 0)
(0.205937 0.178853 0)
(0.152466 0.11882 0)
(0.139496 0.0639542 0)
(0.12826 0.0256915 0)
(0.114377 0.00153669 0)
(0.0990475 -0.013188 0)
(0.0780635 -0.0222253 0)
(0.0533761 -0.0276018 0)
(0.0260939 -0.029726 0)
(-0.00409399 -0.0284987 0)
(-0.0338004 -0.024941 0)
(-0.0603503 -0.0206248 0)
(-0.0825762 -0.0170767 0)
(-0.0988294 -0.0158145 0)
(-0.109775 -0.0163692 0)
(-0.116713 -0.0180271 0)
(-0.12123 -0.0194973 0)
(-0.124305 -0.020069 0)
(-0.126429 -0.0194171 0)
(-0.127825 -0.0174879 0)
(-0.128616 -0.0143749 0)
(-0.128906 -0.0102957 0)
(-0.128791 -0.00559525 0)
(-0.12834 -0.000771653 0)
(-0.127599 0.00354906 0)
(-0.126913 0.00704404 0)
(-0.126122 0.0100594 0)
(-0.124987 0.013082 0)
(-0.123142 0.0166372 0)
(-0.119918 0.0212532 0)
(-0.114485 0.0274242 0)
(-0.105944 0.0352966 0)
(-0.0917034 0.0439839 0)
(-0.0648041 0.0523397 0)
(-0.0221409 0.0675277 0)
(0.170636 0.125689 0)
(-0.449655 0.228529 0)
(0.359031 -0.417028 0)
(-0.346484 -0.512985 0)
(-0.218571 -0.0272198 0)
(-0.0934325 0.111065 0)
(-0.0539477 0.0925591 0)
(-0.0315544 0.0544229 0)
(-0.0266666 0.0281516 0)
(-0.0315383 0.0113671 0)
(-0.0401529 0.000531641 0)
(-0.0505918 -0.00644881 0)
(-0.0642629 -0.0104882 0)
(-0.0798053 -0.0124381 0)
(-0.0962202 -0.0135316 0)
(-0.112114 -0.0152912 0)
(-0.126261 -0.0181944 0)
(-0.137702 -0.0215733 0)
(-0.145828 -0.0245179 0)
(-0.151077 -0.0267312 0)
(-0.154697 -0.0282453 0)
(-0.157576 -0.0290594 0)
(-0.16006 -0.0291383 0)
(-0.162227 -0.0284303 0)
(-0.164069 -0.0269287 0)
(-0.16558 -0.0246852 0)
(-0.166773 -0.021799 0)
(-0.167685 -0.0183701 0)
(-0.168301 -0.0144127 0)
(-0.168427 -0.00974524 0)
(-0.167863 -0.00461945 0)
(-0.166643 0.000182856 0)
(-0.164784 0.00479308 0)
(-0.162176 0.0095418 0)
(-0.158562 0.014745 0)
(-0.153985 0.0206273 0)
(-0.149254 0.0271313 0)
(-0.144059 0.0340201 0)
(-0.131566 0.0437186 0)
(-0.100473 0.0695668 0)
(-0.0847934 0.131712 0)
(-0.565459 0.213693 0)
(0.122481 -0.18628 0)
(-0.388712 -0.298145 0)
(-0.343741 -0.0963031 0)
(-0.265332 0.0518317 0)
(-0.21164 0.0836252 0)
(-0.179545 0.0745689 0)
(-0.163336 0.0610556 0)
(-0.157389 0.0511573 0)
(-0.157455 0.0461915 0)
(-0.160679 0.0459682 0)
(-0.165161 0.049649 0)
(-0.169498 0.056066 0)
(-0.172802 0.0637673 0)
(-0.174895 0.0710091 0)
(-0.176193 0.0759447 0)
(-0.177286 0.0765397 0)
(-0.178823 0.0713879 0)
(-0.181012 0.0646809 0)
(-0.183898 0.0582814 0)
(-0.187413 0.0528342 0)
(-0.191401 0.0486104 0)
(-0.195625 0.0457979 0)
(-0.199778 0.0445049 0)
(-0.203505 0.0447062 0)
(-0.20647 0.0461685 0)
(-0.208429 0.0483607 0)
(-0.209285 0.0503525 0)
(-0.208987 0.05068 0)
(-0.207508 0.048837 0)
(-0.204742 0.0465279 0)
(-0.20069 0.044205 0)
(-0.195229 0.0420428 0)
(-0.188086 0.0402404 0)
(-0.179339 0.0389719 0)
(-0.169746 0.0379832 0)
(-0.157805 0.0362548 0)
(-0.131602 0.0338553 0)
(-0.0664855 0.0392221 0)
(0.0996231 0.0800675 0)
(-0.52285 0.106787 0)
(1.14884 -0.011221 0)
(-0.297541 -0.323748 0)
(-0.353567 -0.233469 0)
(-0.35322 -0.149105 0)
(-0.329506 -0.107845 0)
(-0.298027 -0.0994415 0)
(-0.271028 -0.101826 0)
(-0.251583 -0.107745 0)
(-0.238666 -0.115543 0)
(-0.230098 -0.125048 0)
(-0.223836 -0.136443 0)
(-0.218416 -0.149724 0)
(-0.21313 -0.16427 0)
(-0.208003 -0.178643 0)
(-0.203644 -0.190726 0)
(-0.201108 -0.198484 0)
(-0.201536 -0.200183 0)
(-0.205534 -0.198571 0)
(-0.212571 -0.194648 0)
(-0.221827 -0.188876 0)
(-0.232405 -0.181668 0)
(-0.243392 -0.173559 0)
(-0.253898 -0.165177 0)
(-0.263104 -0.157063 0)
(-0.270292 -0.149497 0)
(-0.274893 -0.142419 0)
(-0.276598 -0.135464 0)
(-0.275511 -0.128092 0)
(-0.272315 -0.120483 0)
(-0.267892 -0.113519 0)
(-0.262403 -0.10674 0)
(-0.255701 -0.0996086 0)
(-0.24755 -0.0918588 0)
(-0.238348 -0.0835396 0)
(-0.229565 -0.0750601 0)
(-0.220247 -0.0668954 0)
(-0.196928 -0.0573443 0)
(-0.140022 -0.0364133 0)
(-0.121114 0.011338 0)
(-0.633374 0.0532851 0)
)
;

boundaryField
{
    floor
    {
        type            noSlip;
    }
    ceiling
    {
        type            noSlip;
    }
    sWall
    {
        type            noSlip;
    }
    nWall
    {
        type            noSlip;
    }
    sideWalls
    {
        type            empty;
    }
    glass1
    {
        type            noSlip;
    }
    glass2
    {
        type            noSlip;
    }
    sun
    {
        type            noSlip;
    }
    Table_master
    {
        type            noSlip;
    }
    Table_slave
    {
        type            noSlip;
    }
    inlet
    {
        type            fixedValue;
        value           uniform (0.5 0 0);
    }
    outlet
    {
        type            zeroGradient;
    }
}


// ************************************************************************* //
