/*--------------------------------*- C++ -*----------------------------------*\
  =========                 |
  \\      /  F ield         | OpenFOAM: The Open Source CFD Toolbox
   \\    /   O peration     | Website:  https://openfoam.org
    \\  /    A nd           | Version:  6
     \\/     M anipulation  |
\*---------------------------------------------------------------------------*/
FoamFile
{
    version     2.0;
    format      ascii;
    class       volScalarField;
    location    "640";
    object      epsilon;
}
// * * * * * * * * * * * * * * * * * * * * * * * * * * * * * * * * * * * * * //

dimensions      [0 2 -3 0 0 0 0];

internalField   nonuniform List<scalar> 
458
(
0.000434311
0.000560065
0.000599066
0.000689315
0.00078009
0.000873098
0.000973301
0.00108251
0.00117758
0.00123997
0.00124694
0.00117989
0.00102614
0.000745406
0.000326286
3.93531e-05
6.33857e-05
9.24357e-05
0.000104887
0.000100074
8.19799e-05
6.46667e-05
5.14134e-05
4.15171e-05
3.40287e-05
2.82774e-05
2.3811e-05
2.0268e-05
1.73642e-05
1.488e-05
1.26361e-05
1.14111e-05
8.8553e-06
0.00106375
0.00158575
0.000520525
0.000504787
0.000520827
0.00055359
0.000609366
0.000692088
0.000783806
0.000858281
0.000886297
0.000851637
0.000760073
0.000626117
0.00050367
0.000750715
0.000428827
0.000232776
3.83721e-05
7.55138e-05
9.31304e-05
9.38974e-05
9.02189e-05
9.05274e-05
7.09207e-05
5.37445e-05
4.0984e-05
3.16637e-05
2.48345e-05
1.97928e-05
1.60211e-05
1.32097e-05
1.14385e-05
1.07146e-05
3.04482e-05
2.00709e-05
0.00191105
0.00385037
0.00060585
0.000460197
0.000468141
0.000510654
0.000583514
0.000687425
0.000801499
0.000889092
0.000922804
0.000892357
0.000805761
0.000670008
0.000520023
0.000418496
0.00035493
0.000384217
0.000139778
0.000139483
0.000126056
0.000112091
0.000104129
0.000199219
0.00013363
9.15435e-05
6.47867e-05
4.74539e-05
3.59239e-05
2.80618e-05
2.26161e-05
1.89057e-05
1.48554e-05
1.31469e-05
6.47449e-05
3.31044e-05
0.00306783
0.00799717
0.000906443
0.000440713
0.000431097
0.000483575
0.000578075
0.000722127
0.00086751
0.000963236
0.000994617
0.000957958
0.000859397
0.000706714
0.000551269
0.000434671
0.000367864
0.000382229
0.000587007
0.000377612
0.000246482
0.000179355
0.000141396
0.000123853
0.000285126
0.000219559
0.000181163
0.000155867
0.000136403
0.000118758
0.000103476
8.8819e-05
7.35278e-05
4.55003e-05
2.93317e-05
0.000114426
5.05736e-05
0.00465578
0.0144297
0.0017448
0.000472809
0.000397418
0.000453953
0.000592629
0.000838371
0.00102416
0.00111767
0.00113438
0.00107476
0.000942079
0.000757285
0.00056762
0.000422309
0.000333577
0.000304331
0.000305457
0.00025509
0.000210735
0.000176359
0.000147403
0.000123016
0.000113908
0.000104528
9.81396e-05
9.26973e-05
8.6615e-05
7.91134e-05
7.11672e-05
6.33774e-05
5.60626e-05
4.61249e-05
3.62391e-05
7.46803e-05
0.000114379
0.00012084
0.0001434
0.000184187
0.00687918
0.0217377
0.00401055
0.000794573
0.000467838
0.000477253
0.000707491
0.00112795
0.00131334
0.00137293
0.00135068
0.00125274
0.00107252
0.000829024
0.00058036
0.000390832
0.00028059
0.000240143
0.000229853
0.000219832
0.000202667
0.000178173
0.000150516
0.000124737
0.000108088
0.000101498
0.000100209
9.97019e-05
9.74764e-05
9.18707e-05
8.18804e-05
7.05908e-05
5.99218e-05
5.02363e-05
4.35065e-05
5.55284e-05
8.82728e-05
0.000106047
0.000206558
0.000205538
0.00966573
0.0261981
0.00880755
0.00281173
0.00146346
0.00115088
0.00149596
0.00173718
0.00179517
0.00175796
0.00165859
0.00149148
0.00123604
0.000912126
0.000590825
0.000357802
0.00023614
0.000201822
0.000204045
0.000204702
0.000191626
0.000168251
0.000142474
0.000121057
0.000109682
0.000108987
0.000113971
0.000120361
0.000125852
0.000128243
0.000124137
0.000111161
9.75992e-05
8.60696e-05
8.05957e-05
8.88653e-05
0.000120717
0.000176912
0.000327411
0.000345025
0.0104526
0.0300808
0.0160957
0.00966213
0.00598561
0.00420013
0.00339919
0.00288817
0.00254899
0.00229213
0.00205019
0.00177078
0.00140398
0.000972259
0.00056342
0.000301948
0.00019181
0.000175877
0.000181179
0.000178615
0.000163524
0.000143032
0.000124933
0.000114105
0.000112613
0.000119311
0.000131327
0.000146935
0.000165755
0.000187696
0.000211973
0.000232919
0.000246112
0.000273344
0.000329406
0.000480481
0.000820852
0.00137758
0.00410699
0.00128159
0.00984742
0.0172579
0.0132407
0.00999073
0.00751076
0.00579922
0.00459645
0.00379984
0.00326274
0.00283763
0.00244134
0.00201821
0.00149021
0.000916619
0.000407432
0.000216996
0.00015986
0.000148564
0.000145464
0.000137839
0.00012534
0.000113041
0.000105343
0.000104337
0.000110079
0.000121581
0.000138081
0.000159873
0.000188312
0.000225645
0.000274942
0.000339823
0.000427159
0.000551843
0.00073379
0.000976245
0.0012502
0.00149765
0.00170239
0.00104467
0.00347322
0.00471432
0.00512176
0.00503433
0.00474548
0.00433707
0.00380326
0.0031786
0.00256552
0.00195863
0.00116237
0.000535198
0.00025378
0.00015944
0.000129108
0.000118177
0.000110873
0.000102985
9.52842e-05
8.97401e-05
8.81646e-05
9.09991e-05
9.78516e-05
0.000108311
0.000122377
0.000140627
0.000164306
0.000195535
0.000237776
0.000296804
0.000378257
0.000488362
0.000629667
0.000786099
0.000910932
0.00094456
0.000871235
0.000544259
0.00289516
0.00864243
0.0083136
0.00720605
0.00610713
0.0048155
0.003498
0.00226442
0.00128926
0.000711396
0.000374144
0.00021405
0.000149876
0.000122721
0.000109602
0.000100709
9.27567e-05
8.56752e-05
8.04638e-05
7.78496e-05
7.80638e-05
8.12147e-05
8.72653e-05
9.63971e-05
0.000109132
0.000126379
0.00014953
0.000180663
0.000222736
0.000279511
0.000356119
0.000457759
0.000585251
0.000727972
0.000841271
0.000955296
0.000733879
0.000565804
0.00336975
0.0036263
0.00387008
0.00533069
0.00450102
0.00313188
0.001885
0.00116621
0.000830167
0.00057628
0.000400137
0.000290469
0.000214779
0.000167367
0.000139
0.000120451
0.000106785
9.58903e-05
8.7482e-05
8.2106e-05
8.01707e-05
8.16391e-05
8.61235e-05
9.29826e-05
0.00010214
0.000113735
0.000128112
0.000145858
0.000167933
0.000195975
0.000231479
0.000275785
0.000331059
0.000399978
0.000485558
0.000603213
0.000660014
0.000620199
0.000499085
0.000394831
)
;

boundaryField
{
    floor
    {
        Cmu             0.09;
        kappa           0.41;
        E               9.8;
        type            epsilonWallFunction;
        value           nonuniform List<scalar> 
36
(
0.000326286
3.93531e-05
6.33857e-05
9.24357e-05
0.000104887
0.000100074
8.19799e-05
6.46667e-05
5.14134e-05
4.15171e-05
3.40287e-05
2.82774e-05
2.3811e-05
2.0268e-05
1.73642e-05
1.488e-05
1.26361e-05
1.14111e-05
8.8553e-06
8.8553e-06
2.00709e-05
3.31044e-05
5.05736e-05
0.00012084
0.0001434
0.000184187
0.000326286
0.000750715
0.000428827
0.000232776
3.93531e-05
0.000232776
3.83721e-05
0.000384217
0.000139778
0.000587007
)
;
    }
    ceiling
    {
        Cmu             0.09;
        kappa           0.41;
        E               9.8;
        type            epsilonWallFunction;
        value           nonuniform List<scalar> 
43
(
0.00336975
0.0036263
0.00387008
0.00533069
0.00450102
0.00313188
0.001885
0.00116621
0.000830167
0.00057628
0.000400137
0.000290469
0.000214779
0.000167367
0.000139
0.000120451
0.000106785
9.58903e-05
8.7482e-05
8.2106e-05
8.01707e-05
8.16391e-05
8.61235e-05
9.29826e-05
0.00010214
0.000113735
0.000128112
0.000145858
0.000167933
0.000195975
0.000231479
0.000275785
0.000331059
0.000399978
0.000485558
0.000603213
0.000660014
0.000620199
0.000499085
0.000394831
0.00984742
0.0172579
0.00289516
)
;
    }
    sWall
    {
        Cmu             0.09;
        kappa           0.41;
        E               9.8;
        type            epsilonWallFunction;
        value           uniform 0.00336975;
    }
    nWall
    {
        Cmu             0.09;
        kappa           0.41;
        E               9.8;
        type            epsilonWallFunction;
        value           nonuniform List<scalar> 6(0.000184187 0.000205538 0.000345025 0.000544259 0.000565804 0.000394831);
    }
    sideWalls
    {
        type            empty;
    }
    glass1
    {
        Cmu             0.09;
        kappa           0.41;
        E               9.8;
        type            epsilonWallFunction;
        value           nonuniform List<scalar> 9(0.000434311 0.00106375 0.00191105 0.00306783 0.00465578 0.00687918 0.00966573 0.0104526 0.00984742);
    }
    glass2
    {
        Cmu             0.09;
        kappa           0.41;
        E               9.8;
        type            epsilonWallFunction;
        value           nonuniform List<scalar> 2(0.00128159 0.00104467);
    }
    sun
    {
        Cmu             0.09;
        kappa           0.41;
        E               9.8;
        type            epsilonWallFunction;
        value           nonuniform List<scalar> 
14
(
0.000434311
0.000560065
0.000599066
0.000689315
0.00078009
0.000873098
0.000973301
0.00108251
0.00117758
0.00123997
0.00124694
0.00117989
0.00102614
0.000745406
)
;
    }
    Table_master
    {
        Cmu             0.09;
        kappa           0.41;
        E               9.8;
        type            epsilonWallFunction;
        value           nonuniform List<scalar> 9(0.000199219 0.00013363 9.15435e-05 6.47867e-05 4.74539e-05 3.59239e-05 2.80618e-05 2.26161e-05 1.89057e-05);
    }
    Table_slave
    {
        Cmu             0.09;
        kappa           0.41;
        E               9.8;
        type            epsilonWallFunction;
        value           nonuniform List<scalar> 9(0.000285126 0.000219559 0.000181163 0.000155867 0.000136403 0.000118758 0.000103476 8.8819e-05 7.35278e-05);
    }
    inlet
    {
        type            turbulentMixingLengthDissipationRateInlet;
        mixingLength    0.01;
        phi             phi;
        k               k;
        value           uniform 0.000471672;
    }
    outlet
    {
        type            zeroGradient;
    }
}


// ************************************************************************* //
