/*--------------------------------*- C++ -*----------------------------------*\
  =========                 |
  \\      /  F ield         | OpenFOAM: The Open Source CFD Toolbox
   \\    /   O peration     | Website:  https://openfoam.org
    \\  /    A nd           | Version:  6
     \\/     M anipulation  |
\*---------------------------------------------------------------------------*/
FoamFile
{
    version     2.0;
    format      ascii;
    class       volScalarField;
    location    "640";
    object      nut;
}
// * * * * * * * * * * * * * * * * * * * * * * * * * * * * * * * * * * * * * //

dimensions      [0 2 -1 0 0 0 0];

internalField   nonuniform List<scalar> 
458
(
0.00107064
0.00116535
0.0011918
0.00124887
0.00130145
0.00135124
0.00140107
0.00145163
0.00149294
0.00151885
0.00152169
0.00149391
0.00142598
0.00128187
0.000973296
0.000480881
0.000563693
0.000639232
0.000666734
0.000656375
0.000614159
0.000567464
0.000525699
0.000489539
0.000458135
0.000430717
0.000406728
0.000385462
0.000366098
0.000347733
0.000329293
0.000318289
0.000292491
0.00144319
0.00324812
0.0029964
0.00343336
0.00386948
0.00431797
0.00472016
0.00503165
0.0053514
0.00565046
0.00589008
0.00603523
0.00604779
0.00583524
0.00473883
0.0012849
0.00106612
0.000869677
0.000476852
0.00113236
0.00165093
0.00205245
0.00217944
0.00158776
0.00134001
0.0011714
0.00104693
0.000951657
0.000876089
0.000811079
0.000749987
0.000688942
0.000634354
0.000588656
0.000719868
0.000384209
0.00175443
0.00436651
0.00360519
0.00439418
0.00472701
0.00496099
0.00514093
0.00530737
0.00553841
0.00581888
0.00612522
0.00642516
0.00666094
0.00674126
0.00634988
0.00517538
0.00392056
0.00102779
0.000733711
0.00126678
0.00184469
0.0024199
0.00258463
0.0008257
0.000722792
0.000637169
0.000567815
0.000511842
0.000466487
0.000429619
0.000399808
0.000376625
0.000417307
0.000483317
0.000844911
0.000453949
0.00205426
0.00557629
0.00350854
0.00455307
0.00473571
0.0047187
0.00470302
0.00478332
0.00497132
0.00524902
0.0056019
0.00599527
0.00633812
0.00655148
0.0065009
0.00616384
0.0052892
0.00290359
0.00118375
0.00150518
0.0020693
0.0027617
0.00336302
0.00339416
0.000930516
0.000852895
0.000799959
0.000760846
0.000727758
0.000694916
0.000663731
0.000630784
0.000592283
0.000557788
0.000549603
0.00100734
0.000522821
0.00236071
0.00720338
0.00368086
0.00432309
0.00458381
0.00443015
0.00430532
0.0043779
0.00457587
0.00486473
0.00524552
0.00567723
0.00601264
0.00617847
0.00617287
0.0060542
0.00570424
0.00471643
0.0042706
0.00430223
0.00455408
0.0048545
0.00503979
0.00495868
0.00423144
0.00385684
0.00365007
0.00350191
0.00335203
0.00315844
0.00283043
0.0024084
0.00192864
0.00146675
0.00110004
0.00102487
0.000888808
0.000698954
0.000739995
0.000804387
0.00268879
0.00903637
0.00503963
0.00400481
0.00436402
0.00435733
0.00419664
0.00425758
0.00445858
0.00474749
0.00513402
0.00554762
0.00585862
0.0059565
0.00586098
0.0057257
0.00566448
0.00558199
0.00574781
0.00603921
0.00624501
0.00628377
0.00614869
0.00586288
0.00546186
0.00513533
0.00488067
0.00465599
0.004435
0.00420006
0.00389641
0.00348101
0.00295644
0.002364
0.00181626
0.0013171
0.00108191
0.000943354
0.00118767
0.000834339
0.00301155
0.0104207
0.00751439
0.00492407
0.00428798
0.00435145
0.00440492
0.00443454
0.00454772
0.00480292
0.00518393
0.00559427
0.00587926
0.00590899
0.00572882
0.00560006
0.0058154
0.00629014
0.00677377
0.00704872
0.00705188
0.00682048
0.00642622
0.00594495
0.00546403
0.00507556
0.00478028
0.00454022
0.00432986
0.00414082
0.00396889
0.00374463
0.00337757
0.00288805
0.00238003
0.00189232
0.00157391
0.00144148
0.00137372
0.000991582
0.00309115
0.0096669
0.0082097
0.00689411
0.00589005
0.005447
0.00502347
0.00473647
0.00473152
0.00497653
0.00537183
0.0057776
0.0060168
0.00595897
0.00573923
0.00579744
0.00641125
0.00691311
0.00717615
0.00716715
0.00688617
0.00639741
0.00579411
0.00518365
0.00467424
0.00431543
0.00407245
0.00389743
0.00376752
0.00367956
0.00363974
0.00364024
0.00354239
0.00325188
0.00296869
0.0028106
0.0028786
0.00303804
0.00360736
0.00153566
0.0030303
0.00365349
0.00403442
0.00424642
0.00427645
0.0042118
0.00421401
0.00439217
0.004754
0.00521668
0.00568973
0.00605961
0.00617486
0.00595909
0.00590499
0.0062171
0.00657651
0.00670034
0.00661318
0.00630419
0.00578342
0.00513789
0.00449089
0.00395762
0.00358711
0.00335036
0.00319135
0.00307058
0.00296776
0.00287146
0.00277301
0.00266524
0.00256773
0.00248344
0.00242745
0.00239572
0.00233575
0.00221272
0.00206336
0.00143451
0.00133343
0.00234419
0.00322112
0.0039103
0.00454167
0.00515867
0.00565145
0.00598682
0.00620259
0.00622861
0.00601991
0.00576662
0.00577074
0.00587735
0.00580113
0.00557
0.00520354
0.00470876
0.00413906
0.0035801
0.00313343
0.00283194
0.00264694
0.00253351
0.00245843
0.00240388
0.00236216
0.00233143
0.00231417
0.00231958
0.00233311
0.00234518
0.00234578
0.00230862
0.00219417
0.00199265
0.00174297
0.00115429
0.00201497
0.00396315
0.00509006
0.00582395
0.00639579
0.00644829
0.00612513
0.00580059
0.00550047
0.00493926
0.00454558
0.00445424
0.00439514
0.00422526
0.00396674
0.00364464
0.00326621
0.00286762
0.00250839
0.00223027
0.00203797
0.00192733
0.00187579
0.00186501
0.00188372
0.00192476
0.00198201
0.00204816
0.00212554
0.00221415
0.00230887
0.00240184
0.00247747
0.00251525
0.00247999
0.00244925
0.00225601
0.00116932
0.00211955
0.00217203
0.00221965
0.00246967
0.00233426
0.00206846
0.00174642
0.00148812
0.00132872
0.00117649
0.00104179
0.000936293
0.00084666
0.000779115
0.000732347
0.000698204
0.000670732
0.000647098
0.000627603
0.000614474
0.000609608
0.000613307
0.000624337
0.00064049
0.000660862
0.000684978
0.000712702
0.000744198
0.000779993
0.000821193
0.000868058
0.000920242
0.000978018
0.00104165
0.0011112
0.00119454
0.00123092
0.00120565
0.00112142
0.00103717
)
;

boundaryField
{
    floor
    {
        type            nutkWallFunction;
        Cmu             0.09;
        kappa           0.41;
        E               9.8;
        value           nonuniform List<scalar> 
36
(
0.000117572
5.7267e-05
6.77949e-05
7.72329e-05
8.06347e-05
7.93554e-05
7.4116e-05
6.82695e-05
6.29902e-05
5.83775e-05
5.4337e-05
5.07809e-05
4.76461e-05
4.48474e-05
4.22817e-05
3.98322e-05
3.73558e-05
3.58693e-05
3.23575e-05
3.23574e-05
4.46811e-05
5.37951e-05
6.26237e-05
8.45981e-05
8.96163e-05
9.74245e-05
0.000117572
0.000153741
0.000128468
0.000105265
5.72669e-05
0.000105265
5.67491e-05
0.000123982
8.88506e-05
0.000142122
)
;
    }
    ceiling
    {
        type            nutkWallFunction;
        Cmu             0.09;
        kappa           0.41;
        E               9.8;
        value           nonuniform List<scalar> 
43
(
0.000246233
0.0002519
0.000257031
0.000283858
0.000269436
0.000240809
0.000205567
0.000176781
0.000158743
0.000141287
0.000125625
0.000113197
0.00010251
9.43691e-05
8.86839e-05
8.45063e-05
8.11272e-05
7.8207e-05
7.57884e-05
7.41546e-05
7.35479e-05
7.40092e-05
7.53824e-05
7.73882e-05
7.99093e-05
8.28816e-05
8.62832e-05
9.01285e-05
9.44755e-05
9.94499e-05
0.000105073
0.000111293
0.000118131
0.000125611
0.000133725
0.000143374
0.000147561
0.000144654
0.000134913
0.000125086
0.000343236
0.000407619
0.000234817
)
;
    }
    sWall
    {
        type            nutkWallFunction;
        Cmu             0.09;
        kappa           0.41;
        E               9.8;
        value           uniform 0.000246299;
    }
    nWall
    {
        type            nutkWallFunction;
        Cmu             0.09;
        kappa           0.41;
        E               9.8;
        value           nonuniform List<scalar> 6(9.74251e-05 0.000101032 0.000119734 0.000138734 0.000140473 0.000125093);
    }
    sideWalls
    {
        type            empty;
    }
    glass1
    {
        type            nutkWallFunction;
        Cmu             0.09;
        kappa           0.41;
        E               9.8;
        value           nonuniform List<scalar> 9(0.000129104 0.000171947 0.000206778 0.000239693 0.000272804 0.000307751 0.000341697 0.000350019 0.000343684);
    }
    glass2
    {
        type            nutkWallFunction;
        Cmu             0.09;
        kappa           0.41;
        E               9.8;
        value           nonuniform List<scalar> 2(0.000182218 0.000170828);
    }
    sun
    {
        type            nutkWallFunction;
        Cmu             0.09;
        kappa           0.41;
        E               9.8;
        value           nonuniform List<scalar> 
14
(
0.000128999
0.000139997
0.00014305
0.000149614
0.000155631
0.000161305
0.000166959
0.000172673
0.000177326
0.000180237
0.000180555
0.000177435
0.000169777
0.000153393
)
;
    }
    Table_master
    {
        type            nutkWallFunction;
        Cmu             0.09;
        kappa           0.41;
        E               9.8;
        value           nonuniform List<scalar> 9(9.99912e-05 8.75185e-05 7.69795e-05 6.83181e-05 6.12335e-05 5.54227e-05 5.06473e-05 4.67482e-05 4.36906e-05);
    }
    Table_slave
    {
        type            nutkWallFunction;
        Cmu             0.09;
        kappa           0.41;
        E               9.8;
        value           nonuniform List<scalar> 9(0.000112509 0.000103256 9.68895e-05 9.21536e-05 8.81247e-05 8.41043e-05 8.02656e-05 7.61862e-05 7.13866e-05);
    }
    inlet
    {
        type            calculated;
        value           uniform 0.000167705;
    }
    outlet
    {
        type            calculated;
        value           nonuniform List<scalar> 2(0.00211955 0.00217203);
    }
}


// ************************************************************************* //
