/*--------------------------------*- C++ -*----------------------------------*\
  =========                 |
  \\      /  F ield         | OpenFOAM: The Open Source CFD Toolbox
   \\    /   O peration     | Website:  https://openfoam.org
    \\  /    A nd           | Version:  6
     \\/     M anipulation  |
\*---------------------------------------------------------------------------*/
FoamFile
{
    version     2.0;
    format      ascii;
    class       volScalarField;
    location    "640";
    object      T;
}
// * * * * * * * * * * * * * * * * * * * * * * * * * * * * * * * * * * * * * //

dimensions      [0 0 0 1 0 0 0];

internalField   nonuniform List<scalar> 
458
(
302.74
302.462
302.449
302.445
302.442
302.439
302.435
302.43
302.424
302.415
302.407
302.403
302.406
302.42
302.463
302.605
302.582
302.575
302.581
302.587
302.593
302.598
302.604
302.609
302.614
302.62
302.625
302.63
302.635
302.64
302.646
302.654
302.677
302.926
302.495
302.47
302.471
302.473
302.473
302.471
302.465
302.451
302.429
302.405
302.39
302.391
302.405
302.426
302.436
302.446
302.467
302.611
302.561
302.557
302.565
302.575
302.578
302.581
302.583
302.584
302.586
302.588
302.59
302.592
302.595
302.6
302.608
302.62
302.66
303.123
302.54
302.5
302.509
302.522
302.532
302.536
302.532
302.508
302.463
302.414
302.383
302.38
302.4
302.421
302.433
302.441
302.46
302.569
302.548
302.55
302.565
302.584
302.584
302.585
302.585
302.585
302.586
302.586
302.587
302.588
302.589
302.594
302.6
302.611
302.654
303.323
302.598
302.532
302.55
302.579
302.607
302.626
302.627
302.587
302.51
302.428
302.376
302.37
302.397
302.425
302.442
302.449
302.457
302.467
302.485
302.513
302.547
302.581
302.612
302.635
302.652
302.666
302.678
302.687
302.694
302.699
302.703
302.705
302.677
302.648
302.63
302.656
303.52
302.673
302.566
302.583
302.626
302.675
302.719
302.73
302.669
302.554
302.438
302.366
302.361
302.394
302.436
302.464
302.474
302.48
302.494
302.519
302.554
302.593
302.632
302.666
302.695
302.716
302.733
302.745
302.754
302.758
302.757
302.753
302.744
302.722
302.688
302.657
302.658
302.748
302.827
302.829
303.699
302.771
302.62
302.611
302.652
302.711
302.786
302.812
302.722
302.573
302.434
302.355
302.35
302.397
302.456
302.5
302.522
302.533
302.554
302.585
302.623
302.663
302.701
302.733
302.759
302.779
302.793
302.802
302.807
302.807
302.801
302.791
302.776
302.754
302.722
302.687
302.672
302.711
302.74
302.782
303.855
302.934
302.764
302.713
302.721
302.766
302.846
302.847
302.728
302.551
302.399
302.324
302.338
302.408
302.493
302.557
302.593
302.614
302.639
302.67
302.706
302.742
302.774
302.801
302.821
302.835
302.844
302.848
302.849
302.845
302.837
302.822
302.804
302.781
302.753
302.721
302.7
302.708
302.722
302.752
304.086
303.399
303.199
303.057
302.983
302.971
302.981
302.873
302.666
302.449
302.306
302.269
302.33
302.443
302.56
302.64
302.682
302.706
302.73
302.758
302.788
302.817
302.84
302.858
302.87
302.877
302.88
302.88
302.877
302.872
302.863
302.849
302.831
302.811
302.789
302.767
302.755
302.761
302.782
302.933
304.416
304.098
303.85
303.609
303.417
303.282
303.074
302.73
302.401
302.195
302.14
302.208
302.362
302.53
302.676
302.741
302.772
302.793
302.813
302.836
302.857
302.876
302.89
302.899
302.904
302.906
302.905
302.903
302.899
302.895
302.891
302.889
302.889
302.895
302.908
302.932
302.967
303.005
303.034
303.1
297.638
299.35
300.403
300.846
301.009
301.192
301.419
301.693
301.983
302.256
302.535
302.71
302.792
302.828
302.848
302.864
302.88
302.895
302.908
302.917
302.924
302.927
302.929
302.929
302.928
302.928
302.928
302.928
302.929
302.93
302.934
302.942
302.956
302.977
303.004
303.033
303.057
303.08
297.995
299.416
300.265
300.708
301.03
301.376
301.743
302.126
302.455
302.657
302.781
302.846
302.876
302.894
302.907
302.918
302.927
302.935
302.94
302.944
302.946
302.947
302.948
302.948
302.949
302.949
302.95
302.95
302.951
302.953
302.957
302.963
302.972
302.987
303.005
303.027
303.027
303.061
299.473
299.433
299.43
300.463
301.1
301.627
302.104
302.438
302.629
302.76
302.842
302.887
302.916
302.934
302.946
302.953
302.96
302.964
302.968
302.97
302.971
302.972
302.971
302.971
302.971
302.97
302.97
302.969
302.969
302.968
302.968
302.969
302.97
302.973
302.977
302.987
302.998
303.006
303.01
303.051
)
;

boundaryField
{
    floor
    {
        type            wallHeatTransfer;
        Tinf            uniform 305.2;
        alphaWall       uniform 0.24;
        value           nonuniform List<scalar> 
36
(
302.774
303.091
303.024
302.98
302.974
302.984
303.007
303.035
303.063
303.089
303.115
303.139
303.163
303.185
303.208
303.23
303.255
303.273
303.322
303.322
303.21
303.15
303.108
303.104
303.158
303.14
302.775
302.691
302.739
302.806
303.091
302.806
303.099
302.76
302.937
302.736
)
;
    }
    ceiling
    {
        type            wallHeatTransfer;
        Tinf            uniform 303.2;
        alphaWall       uniform 0.24;
        value           nonuniform List<scalar> 
43
(
299.702
299.66
299.654
300.612
301.22
301.726
302.183
302.5
302.681
302.804
302.88
302.924
302.952
302.97
302.981
302.989
302.995
303
303.004
303.007
303.008
303.008
303.007
303.006
303.005
303.004
303.003
303.001
303
302.998
302.997
302.996
302.996
302.998
303
303.008
303.017
303.025
303.029
303.067
304.359
304.062
298.327
)
;
    }
    sWall
    {
        type            wallHeatTransfer;
        Tinf            uniform 315.2;
        alphaWall       uniform 0.36;
        value           uniform 300.886;
    }
    nWall
    {
        type            wallHeatTransfer;
        Tinf            uniform 307.2;
        alphaWall       uniform 0.36;
        value           nonuniform List<scalar> 6(303.637 303.579 303.463 303.671 303.649 303.694);
    }
    sideWalls
    {
        type            empty;
    }
    glass1
    {
        type            wallHeatTransfer;
        Tinf            uniform 315.2;
        alphaWall       uniform 4.3;
        value           nonuniform List<scalar> 9(311.278 310.63 310.219 309.903 309.64 309.398 309.195 309.255 309.479);
    }
    glass2
    {
        type            wallHeatTransfer;
        Tinf            uniform 307.2;
        alphaWall       uniform 4.3;
        value           nonuniform List<scalar> 2(305.544 305.665);
    }
    sun
    {
        type            wallHeatTransfer;
        Tinf            uniform 305.2;
        alphaWall       uniform 0.24;
        value           nonuniform List<scalar> 
14
(
303.001
302.734
302.718
302.705
302.694
302.684
302.673
302.663
302.651
302.64
302.633
302.632
302.644
302.677
)
;
    }
    Table_master
    {
        type            zeroGradient;
    }
    Table_slave
    {
        type            zeroGradient;
    }
    inlet
    {
        type            fixedValue;
        value           uniform 295.15;
    }
    outlet
    {
        type            zeroGradient;
    }
}


// ************************************************************************* //
