/*--------------------------------*- C++ -*----------------------------------*\
  =========                 |
  \\      /  F ield         | OpenFOAM: The Open Source CFD Toolbox
   \\    /   O peration     | Website:  https://openfoam.org
    \\  /    A nd           | Version:  6
     \\/     M anipulation  |
\*---------------------------------------------------------------------------*/
FoamFile
{
    version     2.0;
    format      ascii;
    class       volScalarField;
    location    "430";
    object      alphat;
}
// * * * * * * * * * * * * * * * * * * * * * * * * * * * * * * * * * * * * * //

dimensions      [1 -1 -1 0 0 0 0];

internalField   nonuniform List<scalar> 
458
(
0.00126141
0.00137605
0.00140886
0.00147709
0.00154012
0.00160004
0.0016603
0.0017209
0.00177019
0.00180069
0.00180319
0.00176862
0.00168523
0.00150122
0.00115146
0.000567949
0.000666311
0.000758111
0.000793376
0.000781766
0.00073093
0.000674744
0.000624588
0.000581255
0.000543698
0.000510973
0.000482346
0.000457025
0.00043401
0.000412212
0.00039033
0.000376434
0.000345165
0.00169349
0.00385912
0.00357565
0.00410096
0.00462903
0.00516975
0.00565028
0.00602902
0.00641589
0.00677573
0.00706196
0.00723107
0.00723604
0.00695196
0.00557279
0.0015197
0.001263
0.00102815
0.000561612
0.00134886
0.00198284
0.00247299
0.00262435
0.00189884
0.00159832
0.00139485
0.00124514
0.00113081
0.00104034
0.000963745
0.000891606
0.000819036
0.000753544
0.000699069
0.00084808
0.000448467
0.00205336
0.00519111
0.00432199
0.00525442
0.00565987
0.00594591
0.00616598
0.00637421
0.00665913
0.0070046
0.00738187
0.00774668
0.00802472
0.00809374
0.00759499
0.00618688
0.00465871
0.00122312
0.00086014
0.00150244
0.00221252
0.00291893
0.00311655
0.000985095
0.000860543
0.000757125
0.000673501
0.000606104
0.000551558
0.000507239
0.000471483
0.000443813
0.000492706
0.000573599
0.000995244
0.000527436
0.00239896
0.00660779
0.00422024
0.00544753
0.00567205
0.00565715
0.00564497
0.00574753
0.00597994
0.00632616
0.00676838
0.0072527
0.00766041
0.0078897
0.00781319
0.00739672
0.00632721
0.0034634
0.00140529
0.00177219
0.00245281
0.00330447
0.00405177
0.00409581
0.0011137
0.00101913
0.000953806
0.000904932
0.000863367
0.000822999
0.000784571
0.000744063
0.000696967
0.000654589
0.00064646
0.00118342
0.000605906
0.00275174
0.00850441
0.00443153
0.00518044
0.0054962
0.00531753
0.00517715
0.00526371
0.00550176
0.00586218
0.00634465
0.0068769
0.00726762
0.0074501
0.00743408
0.0072877
0.006855
0.00566309
0.00509217
0.00515413
0.00548115
0.00586724
0.00611215
0.00602425
0.00512792
0.00465892
0.0043937
0.00420105
0.00400719
0.00375091
0.00334889
0.00283984
0.00226591
0.00171725
0.00128731
0.00120763
0.001031
0.000808465
0.000857603
0.000932966
0.00312957
0.0106368
0.00603962
0.00482528
0.00524432
0.00524725
0.0050434
0.00512738
0.00536035
0.00572178
0.00621186
0.00672268
0.00708557
0.00718284
0.00706334
0.00691329
0.00685073
0.00675102
0.00694317
0.00730612
0.00757255
0.00764199
0.00750042
0.00716839
0.00667879
0.00626763
0.00593835
0.00564379
0.00535365
0.005046
0.00465153
0.00413225
0.00349146
0.00278015
0.00213246
0.00155555
0.0012701
0.00110145
0.00138433
0.000968307
0.00349873
0.0122294
0.00891097
0.00593484
0.00521338
0.00530274
0.0053229
0.00533043
0.00546094
0.00579028
0.00628214
0.00679132
0.0071172
0.00712445
0.0069065
0.00678355
0.00707354
0.00764478
0.00822331
0.00857229
0.00859957
0.00834705
0.00789494
0.00732752
0.00674064
0.00624421
0.00584904
0.00551928
0.00522893
0.00496987
0.00473703
0.00444469
0.00399336
0.00340526
0.00280324
0.00223282
0.00185713
0.00169726
0.00161409
0.00115462
0.00358626
0.0112663
0.00961731
0.00814599
0.00703725
0.00653782
0.00599012
0.00564388
0.00566418
0.00600772
0.00653213
0.00703431
0.00728989
0.00717796
0.00692326
0.00705177
0.00781163
0.00840759
0.0087392
0.00876261
0.00845658
0.00789551
0.00718204
0.00643428
0.00578005
0.00529321
0.00494796
0.00469305
0.00450155
0.00436857
0.00429979
0.00428407
0.00415882
0.00381648
0.00348745
0.00330496
0.0033827
0.00356359
0.0042126
0.00178197
0.00351016
0.00423167
0.00467579
0.00492539
0.00497033
0.00490575
0.00493887
0.00520256
0.00570587
0.00634389
0.00696881
0.00740295
0.0074697
0.00714547
0.00714601
0.00755157
0.00799254
0.00815853
0.00808379
0.0077489
0.00715248
0.0063824
0.00557658
0.00487918
0.00437139
0.00403574
0.00380811
0.0036381
0.00349815
0.00337219
0.00324822
0.00311661
0.00300099
0.00290211
0.00283521
0.00279477
0.00272056
0.00257399
0.00239866
0.00166348
0.00155218
0.00272156
0.00376277
0.00462314
0.00544002
0.00625745
0.00693042
0.0074106
0.00765923
0.00758722
0.00721983
0.00683518
0.00688353
0.00705715
0.0070093
0.00676646
0.00634866
0.00575994
0.0050658
0.00436393
0.00377653
0.00336742
0.00311429
0.00296143
0.00286388
0.00279655
0.00274779
0.00271365
0.00269555
0.00270432
0.00272116
0.00273598
0.00273671
0.00269286
0.00255913
0.00232546
0.00203604
0.0013393
0.00238099
0.00473759
0.0061646
0.00712502
0.00786967
0.0079402
0.00761021
0.00727921
0.0067223
0.00588062
0.00535268
0.00521487
0.00516281
0.00498667
0.00469125
0.00430285
0.00383335
0.00333127
0.00287834
0.00253689
0.00231183
0.0021835
0.00212895
0.00212381
0.00215292
0.00220716
0.00227935
0.00236123
0.00245723
0.00256449
0.00267797
0.00278871
0.00287842
0.00292345
0.00288102
0.00284409
0.00263681
0.00135723
0.00249651
0.00256029
0.00261749
0.0029045
0.00273833
0.00242227
0.00205918
0.00177567
0.00158839
0.00140149
0.00123013
0.00109629
0.000979194
0.000894944
0.000838356
0.000797013
0.00076347
0.000734486
0.000710619
0.000694722
0.000689087
0.000693746
0.000707287
0.000727411
0.000752334
0.000781495
0.000814754
0.000852326
0.00089485
0.000943636
0.000998752
0.00106
0.00112772
0.00120228
0.00128375
0.00138149
0.00142242
0.00139232
0.00129534
0.00119788
)
;

boundaryField
{
    floor
    {
        type            compressible::alphatWallFunction;
        Prt             0.85;
        value           nonuniform List<scalar> 
36
(
0.000163414
7.95372e-05
9.42122e-05
0.000107671
0.000112789
0.000111108
0.000103709
9.54588e-05
8.80233e-05
8.15402e-05
7.58732e-05
7.08956e-05
6.65084e-05
6.26007e-05
5.9025e-05
5.56162e-05
5.21708e-05
4.99702e-05
4.49791e-05
4.49785e-05
6.12745e-05
7.34055e-05
8.52369e-05
0.00011498
0.000122055
0.000132807
0.000163412
0.000213601
0.000178785
0.00014622
7.95362e-05
0.000146219
7.85808e-05
0.000173306
0.000122402
0.000198174
)
;
    }
    ceiling
    {
        type            compressible::alphatWallFunction;
        Prt             0.85;
        value           nonuniform List<scalar> 
43
(
0.0003409
0.000349001
0.00035625
0.000392449
0.000371623
0.000331586
0.000284882
0.000247792
0.000222935
0.000197797
0.000174414
0.000155891
0.00013947
0.000127514
0.000119409
0.000113446
0.000108582
0.000104357
0.000100864
9.8529e-05
9.76999e-05
9.83855e-05
0.000100375
0.000103323
0.000106961
0.000111199
0.00011601
0.000121417
0.000127502
0.000134441
0.00014223
0.000150827
0.000160267
0.000170585
0.000181777
0.000195096
0.000200644
0.000196567
0.000183363
0.000169983
0.000467782
0.000555489
0.00032607
)
;
    }
    sWall
    {
        type            compressible::alphatWallFunction;
        Prt             0.85;
        value           uniform 0.000339658;
    }
    nWall
    {
        type            compressible::alphatWallFunction;
        Prt             0.85;
        value           nonuniform List<scalar> 6(0.00013259 0.00013759 0.000163642 0.000189022 0.00019146 0.000169644);
    }
    sideWalls
    {
        type            empty;
    }
    glass1
    {
        type            compressible::alphatWallFunction;
        Prt             0.85;
        value           nonuniform List<scalar> 9(0.000173999 0.000231404 0.000278106 0.000322214 0.000366613 0.000413553 0.00045889 0.000469704 0.000460661);
    }
    glass2
    {
        type            compressible::alphatWallFunction;
        Prt             0.85;
        value           nonuniform List<scalar> 2(0.000246679 0.000231139);
    }
    sun
    {
        type            compressible::alphatWallFunction;
        Prt             0.85;
        value           nonuniform List<scalar> 
14
(
0.000178584
0.000194209
0.000198657
0.000207871
0.000216341
0.000224357
0.000232385
0.000240426
0.000246943
0.000250966
0.000251295
0.000246735
0.000235695
0.000211116
)
;
    }
    Table_master
    {
        type            compressible::alphatWallFunction;
        Prt             0.85;
        value           nonuniform List<scalar> 9(0.000140317 0.000122606 0.00010767 9.54126e-05 8.5399e-05 7.71943e-05 7.04535e-05 6.49612e-05 6.06746e-05);
    }
    Table_slave
    {
        type            compressible::alphatWallFunction;
        Prt             0.85;
        value           nonuniform List<scalar> 9(0.000158334 0.000145113 0.000135897 0.000128954 0.000123014 0.000117213 0.000111659 0.000105769 9.88718e-05);
    }
    inlet
    {
        type            fixedValue;
        value           uniform 1.94e-05;
    }
    outlet
    {
        type            zeroGradient;
    }
}


// ************************************************************************* //
