/*--------------------------------*- C++ -*----------------------------------*\
  =========                 |
  \\      /  F ield         | OpenFOAM: The Open Source CFD Toolbox
   \\    /   O peration     | Website:  https://openfoam.org
    \\  /    A nd           | Version:  6
     \\/     M anipulation  |
\*---------------------------------------------------------------------------*/
FoamFile
{
    version     2.0;
    format      ascii;
    class       volScalarField;
    location    "430";
    object      T;
}
// * * * * * * * * * * * * * * * * * * * * * * * * * * * * * * * * * * * * * //

dimensions      [0 0 0 1 0 0 0];

internalField   nonuniform List<scalar> 
458
(
302.756
302.479
302.466
302.462
302.459
302.455
302.451
302.447
302.44
302.431
302.423
302.419
302.423
302.439
302.479
302.636
302.613
302.605
302.611
302.618
302.624
302.631
302.637
302.643
302.648
302.654
302.66
302.666
302.672
302.678
302.685
302.694
302.718
302.941
302.512
302.487
302.488
302.49
302.49
302.487
302.481
302.466
302.443
302.419
302.406
302.408
302.424
302.444
302.454
302.465
302.487
302.642
302.589
302.585
302.594
302.605
302.609
302.612
302.615
302.618
302.62
302.623
302.626
302.629
302.633
302.639
302.648
302.661
302.702
303.136
302.558
302.518
302.527
302.54
302.55
302.554
302.548
302.521
302.475
302.427
302.397
302.397
302.418
302.439
302.451
302.46
302.479
302.597
302.575
302.577
302.594
302.614
302.615
302.616
302.617
302.618
302.62
302.622
302.623
302.625
302.627
302.633
302.641
302.653
302.697
303.335
302.616
302.55
302.569
302.598
302.626
302.644
302.643
302.599
302.519
302.437
302.388
302.387
302.415
302.444
302.461
302.468
302.477
302.487
302.506
302.536
302.573
302.61
302.643
302.669
302.688
302.703
302.716
302.727
302.735
302.742
302.748
302.751
302.722
302.692
302.674
302.699
303.531
302.692
302.585
302.602
302.645
302.695
302.739
302.746
302.679
302.56
302.444
302.378
302.377
302.414
302.457
302.484
302.494
302.501
302.516
302.543
302.58
302.622
302.664
302.702
302.733
302.757
302.775
302.79
302.8
302.805
302.805
302.802
302.793
302.77
302.735
302.702
302.702
302.796
302.877
302.878
303.71
302.791
302.641
302.632
302.672
302.732
302.81
302.825
302.728
302.575
302.438
302.365
302.367
302.418
302.48
302.524
302.546
302.558
302.58
302.613
302.654
302.697
302.738
302.774
302.803
302.825
302.841
302.852
302.858
302.859
302.854
302.844
302.829
302.805
302.772
302.735
302.719
302.758
302.789
302.831
303.866
302.954
302.786
302.737
302.746
302.793
302.872
302.86
302.729
302.549
302.4
302.334
302.356
302.434
302.522
302.586
302.622
302.644
302.671
302.705
302.743
302.783
302.818
302.848
302.87
302.886
302.897
302.903
302.904
302.901
302.893
302.878
302.859
302.835
302.805
302.772
302.75
302.757
302.771
302.802
304.097
303.416
303.22
303.083
303.012
303.006
303.002
302.875
302.656
302.44
302.305
302.28
302.354
302.475
302.596
302.676
302.719
302.743
302.77
302.801
302.834
302.865
302.891
302.911
302.925
302.933
302.938
302.938
302.935
302.93
302.92
302.906
302.888
302.867
302.844
302.82
302.807
302.813
302.833
302.981
304.427
304.111
303.864
303.626
303.438
303.299
303.061
302.701
302.372
302.179
302.142
302.228
302.398
302.573
302.722
302.785
302.817
302.838
302.861
302.886
302.91
302.93
302.946
302.957
302.963
302.965
302.964
302.961
302.957
302.952
302.947
302.945
302.945
302.949
302.961
302.984
303.018
303.055
303.083
303.148
297.597
299.27
300.296
300.72
300.903
301.119
301.384
301.696
302.008
302.3
302.598
302.765
302.844
302.88
302.9
302.918
302.935
302.952
302.966
302.977
302.984
302.987
302.988
302.988
302.987
302.986
302.985
302.984
302.985
302.985
302.989
302.996
303.009
303.03
303.056
303.085
303.11
303.135
297.959
299.35
300.196
300.654
301.017
301.397
301.79
302.211
302.517
302.718
302.842
302.904
302.934
302.952
302.966
302.978
302.988
302.997
303.003
303.006
303.008
303.009
303.009
303.008
303.008
303.008
303.007
303.008
303.008
303.009
303.012
303.017
303.026
303.04
303.058
303.08
303.082
303.116
299.489
299.449
299.446
300.497
301.164
301.717
302.194
302.51
302.696
302.825
302.904
302.948
302.978
302.996
303.007
303.015
303.021
303.026
303.03
303.032
303.033
303.033
303.032
303.031
303.03
303.029
303.028
303.027
303.026
303.026
303.025
303.025
303.026
303.028
303.032
303.041
303.052
303.061
303.065
303.106
)
;

boundaryField
{
    floor
    {
        type            wallHeatTransfer;
        Tinf            uniform 305.2;
        alphaWall       uniform 0.24;
        value           nonuniform List<scalar> 
36
(
302.786
303.112
303.044
303
302.993
303.003
303.027
303.055
303.083
303.11
303.136
303.161
303.185
303.208
303.23
303.253
303.277
303.297
303.347
303.347
303.242
303.185
303.144
303.146
303.202
303.184
302.786
302.705
302.752
302.819
303.112
302.819
303.12
302.772
302.96
302.75
)
;
    }
    ceiling
    {
        type            wallHeatTransfer;
        Tinf            uniform 303.2;
        alphaWall       uniform 0.24;
        value           nonuniform List<scalar> 
43
(
299.717
299.674
299.668
300.644
301.28
301.811
302.266
302.566
302.74
302.861
302.935
302.978
303.006
303.024
303.035
303.042
303.049
303.053
303.057
303.059
303.06
303.06
303.059
303.058
303.056
303.055
303.053
303.052
303.05
303.048
303.047
303.046
303.046
303.047
303.05
303.057
303.066
303.074
303.079
303.116
304.37
304.075
298.294
)
;
    }
    sWall
    {
        type            wallHeatTransfer;
        Tinf            uniform 315.2;
        alphaWall       uniform 0.36;
        value           uniform 300.898;
    }
    nWall
    {
        type            wallHeatTransfer;
        Tinf            uniform 307.2;
        alphaWall       uniform 0.36;
        value           nonuniform List<scalar> 6(303.679 303.62 303.504 303.719 303.697 303.743);
    }
    sideWalls
    {
        type            empty;
    }
    glass1
    {
        type            wallHeatTransfer;
        Tinf            uniform 315.2;
        alphaWall       uniform 4.3;
        value           nonuniform List<scalar> 9(311.253 310.613 310.205 309.893 309.633 309.394 309.195 309.256 309.482);
    }
    glass2
    {
        type            wallHeatTransfer;
        Tinf            uniform 307.2;
        alphaWall       uniform 4.3;
        value           nonuniform List<scalar> 2(305.564 305.685);
    }
    sun
    {
        type            wallHeatTransfer;
        Tinf            uniform 305.2;
        alphaWall       uniform 0.24;
        value           nonuniform List<scalar> 
14
(
303.013
302.747
302.73
302.717
302.706
302.696
302.685
302.674
302.663
302.652
302.644
302.644
302.657
302.694
)
;
    }
    Table_master
    {
        type            zeroGradient;
    }
    Table_slave
    {
        type            zeroGradient;
    }
    inlet
    {
        type            fixedValue;
        value           uniform 295.15;
    }
    outlet
    {
        type            zeroGradient;
    }
}


// ************************************************************************* //
