/*--------------------------------*- C++ -*----------------------------------*=========                 |
  \      /  F ield         | OpenFOAM: The Open Source CFD Toolbox
   \    /   O peration     | Website:  https://openfoam.org
    \  /    A nd           | Version:  6
     \/     M anipulation  |
\*---------------------------------------------------------------------------*/
FoamFile
{
    version     2.0;
    format      ascii;
    class       volScalarField;
    location    "220";
    object      PMV;
}
// * * * * * * * * * * * * * * * * * * * * * * * * * * * * * * * * * * * * * //

dimensions      [0 0 0 0 0 0 0];

internalField   nonuniform List<scalar> 
458
(
1.2953387687625444
1.0465248252325
1.0102559899216779
0.9819824236411382
0.9663799834148193
0.9622682702421702
0.9718968082389624
0.9963551584822887
1.0400407163774383
1.1072363303832151
1.1903121733570616
1.226562721700204
1.2361208894490512
1.2351549205558745
1.2452447213595592
1.421002797521871
1.4042886004301984
1.397602511559235
1.4066764332316157
1.4152723831544556
1.4214803240469247
1.4120927475529317
1.4091207865716306
1.4112594673829622
1.414964142813058
1.4198066995809495
1.4249035860153545
1.431148567459455
1.4400090232932417
1.453745671140955
1.4759494354567355
1.491662435173384
1.5117088559285068
1.223081898643044
1.0612864705597795
1.0461935242557334
1.0192286726607855
1.0044250411466138
0.9999347589098215
1.0059519659942626
1.0186943803661563
1.0393847752170533
1.0741907969009183
1.128781605451546
1.2160569653754971
1.23898828439667
1.23587863414898
1.1905850147677581
1.1673230423603338
1.1890289222700796
1.2309798662611093
1.3952538685482945
1.383752034481253
1.3823191720260863
1.3921741558404837
1.3928323255232196
1.3968500435628575
1.3997790885378782
1.404358600331109
1.408131976299852
1.4115647623479866
1.4156671245038661
1.4200581211104841
1.4252704921690258
1.4315803405474568
1.4442011922598963
1.4668394777360916
1.4792514389430107
1.4795593663563833
1.2464198447333783
1.0551957074876155
1.0828030852306496
1.0713043293267843
1.0666644712406967
1.0651448724090693
1.0648754014410173
1.0515197131271017
1.0312188368400113
1.0287009983393989
1.0686412286512021
1.1555744163781625
1.2331895615636275
1.2583635405677065
1.2284953787440112
1.21580444976501
1.2201795295493814
1.2265149716322932
1.2910026322421602
1.325838763365564
1.327547228411945
1.3426296254751109
1.362193665380792
1.370145277594065
1.3972468772606943
1.419168267574589
1.429120578967243
1.4334180806898065
1.438192961285062
1.4429677126958511
1.4477423333816872
1.452994263298644
1.4600212091213065
1.4687490719031333
1.4680191852838878
1.4105313087108433
1.3145204231754333
1.0507811938794496
1.110135702598098
1.1294354432219076
1.1513306939197583
1.1636214258705053
1.1525937845950698
1.0933342925743066
1.0207039892681573
0.9879200191345254
1.0252547588411722
1.114332110186479
1.207764135623501
1.269489930533879
1.267010314120012
1.2422799060282408
1.2074139183385286
1.1819399780795186
1.1500699502637848
1.2123189539510983
1.258571985578563
1.3009034775660664
1.3496615616226684
1.400005752488093
1.4390767094998376
1.4458414508767488
1.4519528826215036
1.4622682309469155
1.474036971996467
1.4879377929652255
1.5051840131322645
1.5266104002021073
1.558292230002525
1.5412961898298323
1.5126633806250447
1.4593626890557372
1.3709413471746283
1.4041088358591347
1.0614237621720404
1.1317372367152194
1.1828971586101866
1.253348793983672
1.30517837015682
1.2496502007789512
1.1232841975551109
1.0064704022115165
0.9560486825611072
0.995224702230678
1.0919097045378947
1.2022828207450098
1.289975435561728
1.3149639403017204
1.2906968966670542
1.2496614527197807
1.222891386808099
1.2295585646745437
1.2558594811002517
1.301183858081678
1.3595270380707851
1.4215398240878478
1.4808697412176668
1.529421417377789
1.554114710062604
1.5697085902634638
1.5830382321333114
1.5925497650936695
1.5991707671489357
1.6035740035765136
1.6065371811076483
1.6054560165494849
1.5798709325157105
1.5369004575033056
1.4554016284724132
1.4424596603047177
1.4794529683960254
1.5783996336979502
1.4594772248329284
1.4993501556399826
1.0934877584147746
1.1686824136194829
1.2235764156619757
1.337895633527665
1.389483382885327
1.2736320855837966
1.1151664543939863
0.9842868029730077
0.9313707413413305
0.9766722912121141
1.0910029768242733
1.2247111558528256
1.3390188272296653
1.3598697041731844
1.3560482827481632
1.3432115247320735
1.3214949758556094
1.3339534970591784
1.3691763059211912
1.4221469704171006
1.4836880132524024
1.5427276778139956
1.5804166296668998
1.6109424372133232
1.6328780441157265
1.6486118546110633
1.6600532127841132
1.6657734354658182
1.6667267759637618
1.6633900466997198
1.6562395610772305
1.6443210360937064
1.6124324140654906
1.5623525030119347
1.4810016933680965
1.4639276974039472
1.4710656619825673
1.5028854631420114
1.5175527175392136
1.5937615141770016
1.1826143962597542
1.2986071532159997
1.2981444162931697
1.3720034172033728
1.3461185841759014
1.2264771385553552
1.0687513608378125
0.9386303010133423
0.8997255788398674
0.9734320137310863
1.120904405938109
1.2878380650289176
1.4033334590038675
1.4224353733795592
1.4205252697597543
1.416705003305898
1.4253004915296168
1.4544265797710605
1.4964356322619317
1.541773354140119
1.5861407931962566
1.62429504053247
1.655286127062316
1.6781661862313473
1.693893299284169
1.7043766715959394
1.7100944028676635
1.7120002383861586
1.7081885298016108
1.7000881536827093
1.6891277651523695
1.6743531888900973
1.6529025053006308
1.6058749896756264
1.5336953164564653
1.4959581683102245
1.4765569805905583
1.4545694667527476
1.5546750827692082
1.7332080171856317
1.549000073142791
1.4971885063494288
1.3942931041487534
1.3692869647333372
1.3003880515578248
1.1436128592497423
0.9624042972544885
0.8504598169559048
0.8644102445467332
1.0031546639463813
1.207371633217449
1.41574992442609
1.4830703111145955
1.502640566021011
1.5021632724251441
1.5059815788765911
1.5236399675539642
1.5579959483930237
1.599973102093593
1.6385996862284318
1.6724466377365352
1.6996116401616226
1.719146784730016
1.7324855602475573
1.7401068573675063
1.7439172674518708
1.7439172674518708
1.741059474877153
1.7348672835062058
1.726292793464895
1.7139060362142924
1.7000881536827093
1.680549238108553
1.6586231092462682
1.6347852904113953
1.621433896939321
1.596651757627204
1.5253960799315154
1.4397693174472137
1.942517481559323
1.8045382090684012
1.6520953786261232
1.5233070732603662
1.4225462926428047
1.1935424982137122
0.9077926216555247
0.7264190437135273
0.7156518502237706
0.8639566870165618
1.1292403510436626
1.400945584776756
1.5284121367864145
1.574215161031793
1.5814903738801684
1.5883771303323317
1.6062239019203615
1.6300171145472886
1.6610066045400034
1.693416756058616
1.7190897845497555
1.7304261138063635
1.7370071191706093
1.7393912550975057
1.7391397490064626
1.736000372229363
1.730289854269744
1.722089078970816
1.7107751607185218
1.6967146215783986
1.6805911538064973
1.6634493096114895
1.6456494999228013
1.6254461326161334
1.6035284487612806
1.585090846810792
1.574676152693038
1.5711219914473467
1.562075606269385
1.536663290560193
-1.8702404094335294
-1.1446310609099464
-0.7746406021705614
-0.5150445734462429
-0.15299984712324058
0.2696735133888047
0.7035859484715792
1.1304893345101719
1.4477423333816872
1.5540883689790332
1.5851616221432578
1.6006978282401654
1.612407214011985
1.6271565569335553
1.6464835929569177
1.6700554693210758
1.6938985629805996
1.7139230773229621
1.7267445476606507
1.732789295574056
1.73345855813236
1.7304877636369118
1.7249804098657533
1.7176913983935866
1.70922476835544
1.6998311117365394
1.6905280536652918
1.681080434335805
1.672300514148102
1.6649827545467686
1.6584278062250541
1.6529393210824201
1.6484147850226767
1.648444723119189
1.6596515988866387
1.699486314332188
1.7829141487184377
1.6468676586757518
-1.8520888524705412
-0.8145865688341937
-0.15066472655891278
0.3164591710160614
0.7757295000505929
1.1381377718404249
1.3515407925178315
1.4752117976778167
1.5614916767805942
1.6047756281640098
1.6291862553428333
1.645869647064643
1.660773102944929
1.6757241801183644
1.6916717900978708
1.7079069869142165
1.7226113921264945
1.7326658098554488
1.7386920744832808
1.7404782560268235
1.738778459213868
1.7356560857097743
1.7311322427153268
1.7259899184063914
1.7204943268492807
1.7142057045532046
1.7082939401353168
1.7031531189742253
1.6992560869483928
1.6975538155389955
1.6999930967793953
1.7066134098349213
1.7150609660721594
1.7230580828051356
1.733437804101751
1.7737473597345506
1.7208760246957933
1.6818896358443454
-1.0383023804230338
-1.0454588992616223
-0.9230313598848922
-0.005682926119103135
0.6969949665628042
1.166803474967538
1.408784777240343
1.5189432892221073
1.5851538487160215
1.630526919768155
1.661519498781094
1.6833577397647743
1.6999483393213988
1.7133405182552592
1.7248238472847113
1.7356818161576053
1.7459271150515623
1.7542488989837306
1.7596440971572664
1.7617305966836327
1.7600185987169201
1.7559330228127967
1.7496000097415025
1.7430720357338698
1.736185664810642
1.7298698937667796
1.7240778919066846
1.719601491528943
1.7163726356608116
1.7149031235230754
1.7163441169035525
1.7232922587026138
1.7395864476317464
1.7736433421203803
1.7910574194563105
1.7939135563467363
1.762378830495877
1.7232573589505538
1.686054585686123
1.6978241972809038
)
;

boundaryField
{
    ".*"
    {
        type            zeroGradient;
    }
}


// ************************************************************************* //
