/*--------------------------------*- C++ -*----------------------------------*\
  =========                 |
  \\      /  F ield         | OpenFOAM: The Open Source CFD Toolbox
   \\    /   O peration     | Website:  https://openfoam.org
    \\  /    A nd           | Version:  6
     \\/     M anipulation  |
\*---------------------------------------------------------------------------*/
FoamFile
{
    version     2.0;
    format      ascii;
    class       volScalarField;
    location    "770";
    object      nut;
}
// * * * * * * * * * * * * * * * * * * * * * * * * * * * * * * * * * * * * * //

dimensions      [0 2 -1 0 0 0 0];

internalField   nonuniform List<scalar> 
458
(
0.00106952
0.00116399
0.00119029
0.00124724
0.00129969
0.00134935
0.00139904
0.00144949
0.00149072
0.00151662
0.00151951
0.00149188
0.00142424
0.00128112
0.00097206
0.000480428
0.000563188
0.000638516
0.000665798
0.000655389
0.000613301
0.000566739
0.000525079
0.000488996
0.000457656
0.000430284
0.000406338
0.000385103
0.000365764
0.000347422
0.000329005
0.000318055
0.000292307
0.0014421
0.0032419
0.00299004
0.003426
0.00386079
0.00430807
0.00470943
0.00501989
0.00533869
0.00563696
0.00587606
0.0060211
0.00603427
0.00582384
0.00473308
0.00128313
0.00106455
0.000868552
0.000476555
0.00113093
0.00164813
0.0020486
0.00217528
0.00158535
0.00133834
0.00117027
0.00104621
0.000951165
0.000875753
0.000810718
0.000749637
0.00068866
0.000634187
0.000588509
0.000719922
0.000384224
0.0017534
0.00435798
0.00359612
0.00438451
0.0047162
0.00494923
0.00512834
0.00529366
0.00552351
0.0058027
0.00610776
0.00640676
0.00664271
0.0067248
0.00633613
0.00516399
0.00391358
0.0010259
0.000733927
0.00126647
0.00184289
0.00241627
0.0025801
0.000824358
0.000721702
0.000636295
0.000567119
0.00051129
0.000466047
0.000429271
0.000399529
0.000376395
0.000417081
0.000483045
0.00084476
0.000454057
0.00205333
0.00556716
0.00349877
0.00454288
0.00472473
0.00470709
0.00469065
0.00476994
0.00495681
0.00523297
0.00558396
0.0059757
0.00631872
0.006534
0.00648481
0.00614916
0.0052775
0.00289765
0.0011819
0.00150463
0.00206851
0.00275919
0.00335814
0.00338789
0.000928671
0.000851276
0.000798559
0.000759641
0.00072673
0.000694012
0.000662947
0.000630122
0.000591752
0.000557319
0.000549185
0.00100705
0.000522972
0.00235987
0.00719402
0.00367047
0.00431285
0.0045726
0.00441831
0.00429267
0.00436463
0.00456187
0.00484911
0.00522749
0.00565712
0.00599342
0.00616079
0.00615645
0.00603871
0.0056906
0.00470589
0.00426517
0.00429601
0.00454648
0.00484503
0.00502853
0.00494643
0.00422045
0.00384727
0.00364163
0.00349432
0.00334523
0.00315317
0.00282621
0.00240528
0.00192659
0.00146547
0.00109915
0.0010241
0.000888953
0.000699189
0.000740163
0.000804513
0.00268801
0.00902691
0.00502732
0.00399365
0.00435248
0.00434383
0.00418343
0.00424365
0.00444467
0.00473182
0.0051155
0.00552721
0.00583876
0.0059387
0.00584472
0.00570991
0.00564916
0.00556801
0.00573546
0.00602614
0.0062304
0.00626737
0.00613091
0.00584441
0.0054437
0.00511808
0.00486451
0.00464106
0.00442148
0.00418822
0.00388689
0.00347384
0.00295143
0.00236067
0.00181394
0.00131533
0.00108108
0.000943009
0.00118746
0.00083444
0.00301097
0.010412
0.00750229
0.00491016
0.00427268
0.00433399
0.00438938
0.00442092
0.00453422
0.00478701
0.00516433
0.00557235
0.00585822
0.00589086
0.00571258
0.00558355
0.00579804
0.00627308
0.00675677
0.00702999
0.00703124
0.00679808
0.00640271
0.00592097
0.00544059
0.00505388
0.00476098
0.00452339
0.00431537
0.00412847
0.00395851
0.00373632
0.00337105
0.00288302
0.00237623
0.0018894
0.00157167
0.00143976
0.00137236
0.000991393
0.00309069
0.00966278
0.00820342
0.00688449
0.00587679
0.00543093
0.00501149
0.00472585
0.00471922
0.00495984
0.00535005
0.00575334
0.00599451
0.00594102
0.00572297
0.00577909
0.00639154
0.00689391
0.00715581
0.00714424
0.00686116
0.00637098
0.0057676
0.00515856
0.00465207
0.00429689
0.00405729
0.0038851
0.0037575
0.00367149
0.00363326
0.00363488
0.00353746
0.00324734
0.00296475
0.00280705
0.0028753
0.00303534
0.00360585
0.00153579
0.00302999
0.00365335
0.0040342
0.00424603
0.00427547
0.00421062
0.0042111
0.00438561
0.00474148
0.00519644
0.00566333
0.00603236
0.00615273
0.00594381
0.00588692
0.00619842
0.0065576
0.00668064
0.00659171
0.00628043
0.00575838
0.00511332
0.00446904
0.00393989
0.0035735
0.00334009
0.00318349
0.00306444
0.00296286
0.00286754
0.00276986
0.00266269
0.00256557
0.00248153
0.00242587
0.00239452
0.00233494
0.00221222
0.00206301
0.00143463
0.0013349
0.00234622
0.00322164
0.00390685
0.00453249
0.00514188
0.00562648
0.00595407
0.00616895
0.00620189
0.00600261
0.00575819
0.00576128
0.00586506
0.00578635
0.00555361
0.00518653
0.00469225
0.0041236
0.00356771
0.00312496
0.00282668
0.00264369
0.00253139
0.00245682
0.00240242
0.00236068
0.00232992
0.00231267
0.00231807
0.00233165
0.0023438
0.00234453
0.00230756
0.00219332
0.00199192
0.00174228
0.00115433
0.00201493
0.00395821
0.00507661
0.00580188
0.00636636
0.00641612
0.00608873
0.0057594
0.00547506
0.00492948
0.00454213
0.00445309
0.00439243
0.00422065
0.00396158
0.00364037
0.00326391
0.00286777
0.00251052
0.00223269
0.00204091
0.00193029
0.00187841
0.00186718
0.00188543
0.00192601
0.00198285
0.00204862
0.00212552
0.00221381
0.00230832
0.00240116
0.00247676
0.00251463
0.00247957
0.00244903
0.00225475
0.00116934
0.00211919
0.00217154
0.00221907
0.00246882
0.00233346
0.00206776
0.00174458
0.00148476
0.00132541
0.00117393
0.00104043
0.000935882
0.000847285
0.000780159
0.000733521
0.000699447
0.000672038
0.000648459
0.000628999
0.000615867
0.000610967
0.000614637
0.000625555
0.000641606
0.000661887
0.00068592
0.000713567
0.000744991
0.000780718
0.000821849
0.000868664
0.000920795
0.000978519
0.0010421
0.00111159
0.00119486
0.0012313
0.00120608
0.00112183
0.00103756
)
;

boundaryField
{
    floor
    {
        type            nutkWallFunction;
        Cmu             0.09;
        kappa           0.41;
        E               9.8;
        value           nonuniform List<scalar> 
36
(
0.000117426
5.72088e-05
6.77314e-05
7.71441e-05
8.05193e-05
7.92335e-05
7.40091e-05
6.81783e-05
6.29115e-05
5.83079e-05
5.42752e-05
5.07246e-05
4.75949e-05
4.48e-05
4.22374e-05
3.97907e-05
3.7317e-05
3.58377e-05
3.23323e-05
3.23323e-05
4.46832e-05
5.38091e-05
6.26429e-05
8.4627e-05
8.96368e-05
9.74396e-05
0.000117426
0.000153538
0.000128284
0.000105131
5.72088e-05
0.000105131
5.67109e-05
0.000123761
8.88769e-05
0.000141909
)
;
    }
    ceiling
    {
        type            nutkWallFunction;
        Cmu             0.09;
        kappa           0.41;
        E               9.8;
        value           nonuniform List<scalar> 
43
(
0.000246193
0.000251846
0.000256968
0.000283767
0.00026935
0.000240733
0.000205363
0.000176403
0.000158366
0.00014099
0.000125465
0.000113148
0.000102585
9.44955e-05
8.88272e-05
8.46589e-05
8.12882e-05
7.83755e-05
7.5962e-05
7.43282e-05
7.37175e-05
7.41749e-05
7.55339e-05
7.75266e-05
8.00359e-05
8.29973e-05
8.6389e-05
9.02251e-05
9.45633e-05
9.95289e-05
0.000105145
0.000111358
0.000118191
0.000125663
0.00013377
0.000143411
0.000147605
0.000144704
0.00013496
0.000125132
0.000343203
0.000407604
0.000234812
)
;
    }
    sWall
    {
        type            nutkWallFunction;
        Cmu             0.09;
        kappa           0.41;
        E               9.8;
        value           uniform 0.00024626;
    }
    nWall
    {
        type            nutkWallFunction;
        Cmu             0.09;
        kappa           0.41;
        E               9.8;
        value           nonuniform List<scalar> 6(9.74402e-05 0.000101044 0.000119712 0.000138739 0.000140475 0.000125139);
    }
    sideWalls
    {
        type            empty;
    }
    glass1
    {
        type            nutkWallFunction;
        Cmu             0.09;
        kappa           0.41;
        E               9.8;
        value           nonuniform List<scalar> 9(0.000128973 0.000171824 0.000206663 0.000239592 0.000272714 0.000307668 0.000341636 0.000349971 0.000343651);
    }
    glass2
    {
        type            nutkWallFunction;
        Cmu             0.09;
        kappa           0.41;
        E               9.8;
        value           nonuniform List<scalar> 2(0.000182233 0.000170841);
    }
    sun
    {
        type            nutkWallFunction;
        Cmu             0.09;
        kappa           0.41;
        E               9.8;
        value           nonuniform List<scalar> 
14
(
0.000128868
0.000139839
0.000142876
0.000149426
0.00015543
0.00016109
0.000166729
0.000172432
0.000177076
0.000179986
0.000180311
0.000177206
0.00016958
0.000153307
)
;
    }
    Table_master
    {
        type            nutkWallFunction;
        Cmu             0.09;
        kappa           0.41;
        E               9.8;
        value           nonuniform List<scalar> 9(9.98297e-05 8.73853e-05 7.68712e-05 6.82305e-05 6.11632e-05 5.5366e-05 5.0602e-05 4.67116e-05 4.36601e-05);
    }
    Table_slave
    {
        type            nutkWallFunction;
        Cmu             0.09;
        kappa           0.41;
        E               9.8;
        value           nonuniform List<scalar> 9(0.00011229 0.000103062 9.67205e-05 9.20073e-05 8.79992e-05 8.39932e-05 8.01687e-05 7.61041e-05 7.13202e-05);
    }
    inlet
    {
        type            calculated;
        value           uniform 0.000167705;
    }
    outlet
    {
        type            calculated;
        value           nonuniform List<scalar> 2(0.00211919 0.00217154);
    }
}


// ************************************************************************* //
