/*--------------------------------*- C++ -*----------------------------------*\
  =========                 |
  \\      /  F ield         | OpenFOAM: The Open Source CFD Toolbox
   \\    /   O peration     | Website:  https://openfoam.org
    \\  /    A nd           | Version:  6
     \\/     M anipulation  |
\*---------------------------------------------------------------------------*/
FoamFile
{
    version     2.0;
    format      ascii;
    class       surfaceScalarField;
    location    "230";
    object      phi;
}
// * * * * * * * * * * * * * * * * * * * * * * * * * * * * * * * * * * * * * //

dimensions      [1 0 -1 0 0 0 0];

internalField   nonuniform List<scalar> 
850
(
-0.00311032
0.00316923
-0.00430437
0.00119405
-0.00520828
0.000903904
-0.00589081
0.000682523
-0.00631771
0.000426885
-0.00645221
0.000134493
-0.00625156
-0.00020066
-0.00567954
-0.000572024
-0.00475114
-0.000928411
-0.00355232
-0.00119883
-0.00222671
-0.00132562
-0.000950472
-0.00127625
6.81763e-05
-0.00101866
0.000450577
-0.000382411
0.000452702
-0.00093731
0.000940464
-0.000736996
-0.00020034
-9.79445e-05
-0.000639076
0.000548556
-0.000646526
0.00105383
-0.000505296
0.00134366
-0.000289857
0.00147166
-0.000128031
0.00153893
-6.72983e-05
0.00158168
-4.27762e-05
0.0016077
-2.60474e-05
0.00162124
-1.35632e-05
0.00162299
-1.78079e-06
0.00160594
1.70203e-05
0.00154837
5.75294e-05
0.00141277
0.000135576
0.00117873
0.000234003
0.000840731
0.000337964
0.000844773
-0.00223829
0.00556729
-0.00337308
0.00232883
-0.00429475
0.00182557
-0.00497637
0.00136414
-0.00541079
0.000861287
-0.00556856
0.000292258
-0.00540597
-0.000363254
-0.004895
-0.001083
-0.00406793
-0.00175549
-0.0030284
-0.00223836
-0.00192188
-0.00243214
-0.000895385
-0.00230275
-7.20579e-05
-0.001842
0.000589489
-0.00104397
0.00136041
-0.000318227
0.00139306
-2.92361e-05
0.001009
0.000387954
0.00102044
-3.91303e-06
0.000954003
0.000412633
-0.000616911
0.000813931
-0.0010404
0.00115194
-0.000984556
0.00142144
-0.000774824
0.00148612
-0.000354559
0.00149674
-0.000138682
0.00150927
-7.98531e-05
0.00151968
-5.32137e-05
0.001526
-3.2398e-05
0.00152947
-1.70617e-05
0.00153013
-2.47314e-06
0.00152489
2.22347e-05
0.00148654
9.58447e-05
0.00132501
0.000297073
0.00104129
0.000517689
0.000673269
0.000705947
0.0015289
-0.00156899
0.00738179
-0.00252634
0.00328617
-0.00334648
0.0026457
-0.00394372
0.00196137
-0.00434214
0.0012597
-0.00450657
0.00045668
-0.00436729
-0.000502539
-0.00388906
-0.00156124
-0.00313539
-0.00250916
-0.00223137
-0.00314238
-0.00131438
-0.00334914
-0.000491362
-0.00312578
0.000174223
-0.00250759
0.000760634
-0.00163039
0.00122025
-0.000777853
0.00127659
-8.55902e-05
0.000976621
0.000687909
0.00200696
0.00141938
-0.00045293
0.0016682
-0.000865757
0.00166509
-0.00103731
0.00172181
-0.0010413
0.00193091
-0.000983944
0.00157648
0.00143792
0.0013582
0.00130511
0.00127283
0.0012559
0.00125355
0.0012759
0.00137187
0.00114351
0.000525402
0.000861155
0.000800004
0.000503579
0.00106348
0.00204913
-0.00108384
0.00878473
-0.00181829
0.00402062
-0.00237414
0.00320153
-0.00278398
0.00237121
-0.0030756
0.00155131
-0.00320196
0.000583038
-0.00304136
-0.000663144
-0.00256562
-0.00203699
-0.0018942
-0.00318058
-0.0011596
-0.00387698
-0.000468134
-0.00404061
0.000121355
-0.00371527
0.000604441
-0.00299069
0.00102932
-0.00205529
0.00136266
-0.00111121
0.00154259
-0.000265533
0.00173067
0.000499813
0.00276327
0.000974353
0.00253173
0.000242064
0.00238224
-0.000303455
0.00223116
-0.000714688
0.00205509
-0.000861261
0.00187327
-0.000859509
0.00159566
-0.000706359
0.0019064
-0.000310919
0.00204819
-0.000141969
0.002132
-8.39975e-05
0.00218001
-4.81891e-05
0.00218554
-5.72295e-06
0.00213413
5.12253e-05
0.00200441
0.000129537
0.0017619
0.000242315
0.001346
0.000415714
0.00112935
0.000742015
0.000805702
0.00112361
0.000379015
0.00149013
0.00244965
-0.000738128
0.0099048
-0.00126575
0.00454824
-0.00140889
0.00334466
-0.00153394
0.00249625
-0.00163643
0.00165379
-0.0016442
0.0005908
-0.00137752
-0.000929836
-0.000894989
-0.00251952
-0.00035534
-0.00372023
0.000138348
-0.00437067
0.000538489
-0.00444075
0.000839336
-0.00401613
0.0010827
-0.00323407
0.00129292
-0.00226552
0.0014764
-0.00129471
0.00166187
-0.000451019
0.00195652
0.000205147
0.00240077
0.000530088
0.00241791
0.000224904
0.0023188
-0.000204359
0.00210031
-0.000496218
0.00186117
-0.000622143
0.00162839
-0.000626765
0.00144332
-0.000521312
0.00145056
-0.000318195
0.00148414
-0.000175579
0.00151027
-0.000110163
0.00153397
-7.19254e-05
0.00155152
-2.33104e-05
0.00154847
5.42359e-05
0.00150689
0.000171069
0.00141309
0.00033608
0.00126915
0.000559616
0.00113529
0.000875834
0.000995557
0.00126331
0.000719253
0.0017664
0.00100993
0.00215894
-0.00103732
0.00206628
-0.00170687
0.000686728
-0.00163962
-0.00062012
0.0109598
-0.000945408
0.00487351
-0.000522699
0.00292194
-0.000247787
0.00222133
-8.53709e-05
0.00149136
0.000170448
0.000334968
0.000619684
-0.00137908
0.00106059
-0.00296042
0.00138164
-0.00404127
0.00155338
-0.0045424
0.00160461
-0.00449198
0.00157279
-0.00398432
0.00150173
-0.00316303
0.00142816
-0.00219197
0.00138374
-0.00125031
0.00140649
-0.00047379
0.00153782
7.37978e-05
0.00174905
0.000318841
0.00179698
0.000176948
0.00167935
-8.67461e-05
0.00147448
-0.00029138
0.00124967
-0.000397367
0.00103793
-0.000415051
0.000874772
-0.000358192
0.000807336
-0.000250796
0.000801702
-0.000169984
0.000825813
-0.000134314
0.000870461
-0.000116615
0.000932434
-8.53253e-05
0.000998896
-1.22683e-05
0.00105358
0.000116341
0.00109331
0.00029631
0.00112466
0.000528226
0.00118199
0.000818463
0.0013112
0.00113405
0.0015446
0.00153295
0.00194729
0.00175621
0.00226301
0.00175051
0.00177842
0.00117128
0.000200376
-0.000690716
0.0121326
-0.000514097
0.00469689
0.000652912
0.00175492
0.00127289
0.00160134
0.00174409
0.00102015
0.00233829
-0.000259252
0.00288331
-0.00192411
0.00317329
-0.00325039
0.00318992
-0.00405789
0.00297576
-0.00432824
0.00260567
-0.00412189
0.00215682
-0.00353548
0.00170125
-0.00270747
0.00129155
-0.0017823
0.000979456
-0.000938239
0.000801476
-0.000295836
0.00077658
9.86682e-05
0.000850515
0.00024488
0.000864739
0.000162696
0.00077615
1.81251e-06
0.000621547
-0.00013681
0.000442458
-0.000218315
0.000270556
-0.000243187
0.00013707
-0.000224747
7.11384e-05
-0.000184906
6.33751e-05
-0.000162264
9.32653e-05
-0.000164249
0.000151328
-0.000174723
0.000238384
-0.000172428
0.000359711
-0.000133641
0.000504354
-2.83477e-05
0.000659297
0.000141321
0.000833684
0.000353794
0.00105156
0.000600539
0.00134199
0.000843584
0.0017543
0.00112059
0.00231369
0.00119678
0.00307115
0.000993001
0.00323397
0.00100841
0.00349863
0.00281976
0.0098511
0.00353585
0.00398079
0.00373133
0.00155943
0.00405275
0.00127991
0.00463883
0.000434044
0.00531541
-0.000935844
0.00560043
-0.00220911
0.00544891
-0.00309886
0.00492666
-0.00353561
0.00414844
-0.00355001
0.00324092
-0.00321437
0.00230681
-0.00260139
0.00144312
-0.00184381
0.000710783
-0.00105
0.000188678
-0.000416168
-9.16162e-05
-1.55739e-05
-0.000168634
0.000175655
-0.000143745
0.000219959
-0.000141402
0.000160317
-0.000199073
5.94457e-05
-0.000305083
-3.08402e-05
-0.000434443
-8.89983e-05
-0.0005593
-0.000118375
-0.00065571
-0.000128383
-0.000707728
-0.000132935
-0.000722089
-0.000147951
-0.00071224
-0.000174147
-0.000684929
-0.000202083
-0.000637402
-0.000220005
-0.000555859
-0.000215233
-0.000413944
-0.000170312
-0.000214287
-5.8384e-05
2.66163e-05
0.000112842
0.000310418
0.000316689
0.000626873
0.000527084
0.00100509
0.000742332
0.00142583
0.000775996
0.0018074
0.00061138
0.0011514
0.00166438
0.00491756
0.0104448
0.014421
0.0127078
0.00327264
0.0117316
0.00225611
0.0109946
0.00117107
0.0100923
-3.35464e-05
0.00888686
-0.00100364
0.0074725
-0.00168446
0.00594561
-0.0020087
0.00439637
-0.00200077
0.00292101
-0.00173901
0.00156534
-0.00124575
0.000403562
-0.000682071
-0.000437885
-0.000208599
-0.000907128
5.30345e-05
-0.00108828
0.000165535
-0.00111932
0.000206664
-0.00110332
0.000203917
-0.00110341
0.000160361
-0.0011412
9.71956e-05
-0.0012107
3.86128e-05
-0.001297
-2.75569e-06
-0.00138549
-2.99282e-05
-0.00146305
-5.08757e-05
-0.00152459
-7.14472e-05
-0.00157772
-9.48714e-05
-0.00163542
-0.000116497
-0.00171007
-0.000127488
-0.00181406
-0.000116073
-0.00196126
-6.80844e-05
-0.00216256
3.09404e-05
-0.00241329
0.000192294
-0.00273356
0.000433064
-0.00319087
0.000773952
-0.00387925
0.00121542
-0.00486678
0.00172981
-0.00627648
0.00218565
-0.00794154
0.0022764
-0.00747384
0.00119662
-0.002262
0.00900019
0.00496964
0.00743972
0.00381665
0.00688364
0.00172725
0.00634917
0.000501018
0.00552374
-0.000178151
0.00442006
-0.000580769
0.0031429
-0.000731553
0.00179905
-0.000656949
0.000482956
-0.000422964
-0.000652819
-0.000110035
-0.00142941
9.4471e-05
-0.00181485
0.000176795
-0.00196033
0.000198471
-0.00199462
0.00019978
-0.00198499
0.000196994
-0.00196674
0.000185619
-0.00196629
0.000159857
-0.00199338
0.000124239
-0.00204303
8.82044e-05
-0.00210394
5.81081e-05
-0.00216837
3.44378e-05
-0.00223463
1.53309e-05
-0.00230401
-2.11715e-06
-0.00238052
-1.84225e-05
-0.00246786
-2.92133e-05
-0.00256752
-2.78726e-05
-0.0026773
-6.35453e-06
-0.00279007
4.46372e-05
-0.00289683
0.000137644
-0.0029959
0.00029132
-0.00309339
0.000530496
-0.00319356
0.000874071
-0.00329361
0.00131543
-0.00335373
0.00178988
-0.00331636
0.00214823
-0.00300231
0.00196231
-0.00168071
-0.000125032
-0.00386647
-0.000894714
0.00591963
0.000306301
0.00261569
0.000582694
0.00145089
0.000460826
0.000622867
0.000132088
0.000150534
-0.000420129
-2.86302e-05
-0.00114053
-1.12075e-05
-0.00186014
6.26032e-05
-0.00241659
0.000133431
-0.00271033
0.000183662
-0.00280779
0.00019188
-0.00280906
0.00017801
-0.00277102
0.000160388
-0.00272039
0.000149097
-0.00266856
0.000145119
-0.0026254
0.000142399
-0.0026005
0.00013491
-0.00259736
0.000121041
-0.00261169
0.000102476
-0.00263536
8.17214e-05
-0.00266173
6.07428e-05
-0.00268732
4.08652e-05
-0.00271216
2.26643e-05
-0.00273845
7.81557e-06
-0.00276573
-1.98967e-06
-0.00279052
-3.14658e-06
-0.0028057
8.76892e-06
-0.00280239
4.12738e-05
-0.00276619
0.000101398
-0.0026741
0.000199169
-0.00249396
0.000350308
-0.00219644
0.000576504
-0.0017644
0.000883338
-0.00117158
0.001197
-0.000219517
0.00119612
0.00113768
0.000605062
0.0016155
-0.000602904
-0.00216722
-0.0115991
-0.0151469
-0.00918901
-0.00654909
-0.0050808
-0.00444584
-0.0042874
-0.00431099
-0.00431914
-0.00425499
-0.00412126
-0.00393829
-0.00374786
-0.00357189
-0.00341399
-0.00326779
-0.00312593
-0.00298715
-0.00285619
-0.00273938
-0.00264134
-0.00256414
-0.00250788
-0.00247139
-0.00245293
-0.0024491
-0.00245483
-0.00246147
-0.00245593
-0.00241763
-0.00231896
-0.00212229
-0.00177428
-0.0011999
-0.000318565
0.000876471
0.00207051
0.00267324
0.00206769
)
;

boundaryField
{
    floor
    {
        type            calculated;
        value           nonuniform List<scalar> 
36
(
0
0
0
0
0
0
0
0
0
0
0
0
0
0
0
0
0
0
0
-4.07933e-06
-1.08924e-05
-1.66974e-05
-2.15422e-05
-1.90772e-05
-1.72276e-05
-1.61931e-05
-2.13545e-06
-3.43094e-06
-3.90708e-06
-4.54884e-06
-3.1815e-06
-6.89999e-06
-9.65345e-06
-9.91489e-06
-1.24675e-05
-1.0541e-05
)
;
    }
    ceiling
    {
        type            calculated;
        value           nonuniform List<scalar> 
43
(
-3.97895e-05
-3.90221e-05
-3.82599e-05
-2.42712e-05
-1.74657e-05
-1.21635e-05
-7.961e-06
-5.09715e-06
-3.11264e-06
-1.59472e-06
-3.56585e-07
6.4079e-07
1.40308e-06
1.97905e-06
2.43848e-06
2.83491e-06
3.20325e-06
3.55869e-06
3.8936e-06
4.1779e-06
4.37333e-06
4.456e-06
4.42934e-06
4.31613e-06
4.1422e-06
3.92776e-06
3.68755e-06
3.4333e-06
3.17456e-06
2.91763e-06
2.67183e-06
2.44415e-06
2.2413e-06
2.07168e-06
1.9496e-06
1.90782e-06
2.03298e-06
2.27555e-06
2.5923e-06
3.73886e-06
7.24511e-06
4.52239e-06
-5.5249e-05
)
;
    }
    sWall
    {
        type            calculated;
        value           uniform -0.000235119;
    }
    nWall
    {
        type            calculated;
        value           nonuniform List<scalar> 6(-5.11041e-05 -6.16268e-05 -6.43329e-05 -7.62988e-05 -8.38086e-05 -0.000103321);
    }
    sideWalls
    {
        type            empty;
        value           nonuniform 0();
    }
    glass1
    {
        type            calculated;
        value           nonuniform List<scalar> 9(-5.89257e-05 -0.000159772 -0.000245512 -0.000319109 -0.000381943 -0.000434917 -0.000482033 -0.000538289 -0.000600933);
    }
    glass2
    {
        type            calculated;
        value           nonuniform List<scalar> 2(-0.00026757 -0.000294326);
    }
    sun
    {
        type            calculated;
        value           uniform 0;
    }
    Table_master
    {
        type            calculated;
        value           nonuniform List<scalar> 9(-1.53383e-07 -1.53553e-07 -1.53608e-07 -1.53639e-07 -1.53659e-07 -1.5367e-07 -1.53674e-07 -1.53664e-07 -1.53627e-07);
    }
    Table_slave
    {
        type            calculated;
        value           nonuniform List<scalar> 9(1.53221e-07 1.53222e-07 1.53184e-07 1.53158e-07 1.53148e-07 1.53144e-07 1.53159e-07 1.53203e-07 1.53289e-07);
    }
    inlet
    {
        type            calculated;
        value           uniform -0.0106971;
    }
    outlet
    {
        type            calculated;
        value           nonuniform List<scalar> 2(0.011874 0.00358677);
    }
}


// ************************************************************************* //
