/*--------------------------------*- C++ -*----------------------------------*\
  =========                 |
  \\      /  F ield         | OpenFOAM: The Open Source CFD Toolbox
   \\    /   O peration     | Website:  https://openfoam.org
    \\  /    A nd           | Version:  6
     \\/     M anipulation  |
\*---------------------------------------------------------------------------*/
FoamFile
{
    version     2.0;
    format      ascii;
    class       volVectorField;
    location    "49600.0000011177253";
    object      U;
}
// * * * * * * * * * * * * * * * * * * * * * * * * * * * * * * * * * * * * * //

dimensions      [0 1 -1 0 0 0 0];

internalField   nonuniform List<vector> 
778
(
(0.0655961 0.07941 0)
(-0.155179 0.0157701 0)
(-0.164316 0.0146315 0)
(-0.192444 0.0122822 0)
(-0.216894 0.00873155 0)
(-0.236966 0.00474894 0)
(-0.252104 0.000419306 0)
(-0.261882 -0.00436958 0)
(-0.265783 -0.00981588 0)
(-0.262806 -0.0161996 0)
(-0.250996 -0.0242763 0)
(-0.226285 -0.0348978 0)
(-0.18615 -0.0504214 0)
(-0.144211 -0.0751954 0)
(-0.150119 -0.108594 0)
(0.0546163 0.0354495 0)
(0.015688 -0.0268418 0)
(0.0448311 -0.0232365 0)
(0.0691792 -0.0161347 0)
(0.0841907 -0.0103333 0)
(0.0913698 -0.00640899 0)
(0.0941977 -0.00433699 0)
(0.0952347 -0.00331411 0)
(0.0956888 -0.00272616 0)
(0.095856 -0.00231298 0)
(0.0957271 -0.00194935 0)
(0.095199 -0.00151066 0)
(0.0939437 -0.000759401 0)
(0.0911051 0.000840581 0)
(0.0849186 0.00405615 0)
(0.0734149 0.00774961 0)
(0.0598208 0.0115769 0)
(-0.00801762 0.0299401 0)
(0.258392 0.167397 0)
(-0.161237 0.0484021 0)
(-0.141617 0.0459959 0)
(-0.174032 0.0416332 0)
(-0.199409 0.0356873 0)
(-0.220144 0.0291474 0)
(-0.236186 0.0220727 0)
(-0.247449 0.014237 0)
(-0.25363 0.00529769 0)
(-0.25395 -0.00515934 0)
(-0.247793 -0.0170961 0)
(-0.234083 -0.030868 0)
(-0.214172 -0.0480953 0)
(-0.197596 -0.0699815 0)
(-0.194082 -0.0826712 0)
(-0.166454 -0.0426 0)
(-0.105367 -0.0364299 0)
(-0.0983443 -0.0445146 0)
(0.109327 -0.0419827 0)
(0.064424 -0.0410681 0)
(0.0718047 -0.0321808 0)
(0.0857244 -0.0206344 0)
(0.0935645 -0.0103971 0)
(0.095764 -0.00362194 0)
(0.0955191 -0.000198276 0)
(0.0951356 0.0012493 0)
(0.0951023 0.00190162 0)
(0.095184 0.0022763 0)
(0.0951904 0.00259551 0)
(0.0950894 0.00313282 0)
(0.094798 0.0044077 0)
(0.0935424 0.00771371 0)
(0.0879525 0.0167273 0)
(0.0742198 0.0252722 0)
(0.0629515 0.032839 0)
(-0.0521525 0.063439 0)
(0.429969 0.253962 0)
(-0.194233 0.084776 0)
(-0.112792 0.0784573 0)
(-0.148267 0.0669853 0)
(-0.170711 0.0555317 0)
(-0.188818 0.0437576 0)
(-0.202666 0.0313695 0)
(-0.212368 0.0180242 0)
(-0.217725 0.0034044 0)
(-0.218086 -0.0126385 0)
(-0.212828 -0.0303407 0)
(-0.20172 -0.0499315 0)
(-0.186081 -0.0715937 0)
(-0.169552 -0.0932376 0)
(-0.15119 -0.104592 0)
(-0.120351 -0.0931806 0)
(-0.0796542 -0.0949989 0)
(-0.0715938 -0.107658 0)
(0.0920451 -0.0880395 0)
(0.0624857 -0.0656163 0)
(0.0742545 -0.0459862 0)
(0.087843 -0.0290991 0)
(0.0946134 -0.0147463 0)
(0.0916515 -0.0119599 0)
(0.0874286 -0.00795414 0)
(0.0850644 -0.0057991 0)
(0.0843658 -0.00457103 0)
(0.0843418 -0.00380101 0)
(0.084602 -0.00322463 0)
(0.0852576 -0.00259794 0)
(0.0870178 -0.00144169 0)
(0.0916937 0.0029119 0)
(0.0898352 0.0250731 0)
(0.0730296 0.0422613 0)
(0.0698602 0.0572623 0)
(-0.0903583 0.100623 0)
(0.578535 0.325851 0)
(-0.240101 0.121832 0)
(-0.0808468 0.109256 0)
(-0.121597 0.0898936 0)
(-0.13904 0.0741127 0)
(-0.153113 0.0586782 0)
(-0.163884 0.0427891 0)
(-0.171488 0.025834 0)
(-0.175706 0.00720753 0)
(-0.175774 -0.0135371 0)
(-0.171085 -0.0364868 0)
(-0.161518 -0.0614747 0)
(-0.147657 -0.0873848 0)
(-0.130696 -0.110304 0)
(-0.109757 -0.123205 0)
(-0.0823006 -0.124557 0)
(-0.0527137 -0.126404 0)
(-0.0336056 -0.123196 0)
(0.0160397 -0.0567974 0)
(0.0606029 -0.092951 0)
(0.0682963 -0.0790526 0)
(0.0789382 -0.0586677 0)
(0.0914393 -0.0394104 0)
(0.102799 -0.0207381 0)
(0.115537 -0.0131075 0)
(0.126625 -0.00877069 0)
(0.132167 -0.00558425 0)
(0.133113 -0.00308832 0)
(0.130564 -0.000869259 0)
(0.125083 0.00129841 0)
(0.11654 0.00367891 0)
(0.104169 0.00673258 0)
(0.0849065 0.011158 0)
(0.071046 0.0368148 0)
(0.0597483 0.0604494 0)
(0.0759205 0.0830763 0)
(-0.118377 0.136583 0)
(0.705717 0.383693 0)
(-0.287676 0.157032 0)
(-0.0477081 0.133824 0)
(-0.0963146 0.10697 0)
(-0.107774 0.0876524 0)
(-0.116818 0.0692311 0)
(-0.12362 0.050499 0)
(-0.12829 0.0306257 0)
(-0.130657 0.00874249 0)
(-0.129854 -0.015822 0)
(-0.125354 -0.0430924 0)
(-0.116731 -0.0726965 0)
(-0.104017 -0.10282 0)
(-0.0875624 -0.129058 0)
(-0.0676307 -0.145751 0)
(-0.0443116 -0.152241 0)
(-0.0204685 -0.15237 0)
(4.61657e-05 -0.143736 0)
(0.0305779 -0.114976 0)
(0.0567604 -0.109294 0)
(0.0703617 -0.0923263 0)
(0.0805209 -0.0711182 0)
(0.0905929 -0.0506421 0)
(0.100154 -0.032602 0)
(0.109243 -0.0192696 0)
(0.116225 -0.00992266 0)
(0.119602 -0.00324554 0)
(0.119759 0.00199172 0)
(0.117314 0.0065214 0)
(0.112639 0.0108589 0)
(0.105758 0.0155176 0)
(0.0966002 0.0212007 0)
(0.0846555 0.0292055 0)
(0.0730645 0.0472134 0)
(0.0624822 0.0712116 0)
(0.0939807 0.0991735 0)
(0.0156929 0.137766 0)
(0.0949688 0.182991 0)
(0.141223 0.145516 0)
(-0.222866 0.203123 0)
(0.810432 0.431989 0)
(-0.331317 0.190705 0)
(-0.0173225 0.150301 0)
(-0.0733909 0.117584 0)
(-0.0786233 0.095583 0)
(-0.0822576 0.0750179 0)
(-0.0845254 0.0544088 0)
(-0.0855754 0.0327709 0)
(-0.0853301 0.00889071 0)
(-0.0826617 -0.0184031 0)
(-0.0774959 -0.0490307 0)
(-0.0688698 -0.0824986 0)
(-0.0568788 -0.116474 0)
(-0.041833 -0.146246 0)
(-0.0248469 -0.165937 0)
(-0.0064735 -0.174452 0)
(0.0119122 -0.172727 0)
(0.0278151 -0.160996 0)
(0.0459763 -0.139302 0)
(0.0624299 -0.122297 0)
(0.0731099 -0.102404 0)
(0.080797 -0.0803122 0)
(0.0875548 -0.0589386 0)
(0.0937247 -0.0400522 0)
(0.0990302 -0.024893 0)
(0.102679 -0.0135609 0)
(0.104239 -0.00489552 0)
(0.103769 0.00226721 0)
(0.101584 0.00870358 0)
(0.0979327 0.0149357 0)
(0.0929714 0.0214969 0)
(0.0869243 0.0290291 0)
(0.0800367 0.0384551 0)
(0.0742216 0.0529267 0)
(0.0688136 0.0729677 0)
(0.0906522 0.0986507 0)
(0.0720006 0.10715 0)
(0.0883666 0.0472605 0)
(0.146179 -0.0381417 0)
(-0.330854 0.106878 0)
(0.879926 0.4747 0)
(-0.368642 0.220992 0)
(0.00372621 0.155622 0)
(-0.0526845 0.121646 0)
(-0.0522385 0.0979378 0)
(-0.0510735 0.0759101 0)
(-0.0490855 0.0541261 0)
(-0.0465841 0.0316012 0)
(-0.0434125 0.00681721 0)
(-0.0374635 -0.0222773 0)
(-0.0303952 -0.0553612 0)
(-0.0206167 -0.0919226 0)
(-0.00881263 -0.128846 0)
(0.00439476 -0.161157 0)
(0.0174708 -0.181809 0)
(0.0302653 -0.190159 0)
(0.0420756 -0.187192 0)
(0.0523763 -0.174394 0)
(0.0623409 -0.154032 0)
(0.0709141 -0.132352 0)
(0.0764376 -0.109291 0)
(0.0798938 -0.0857411 0)
(0.0824784 -0.0635208 0)
(0.0846892 -0.0439943 0)
(0.0864816 -0.0278917 0)
(0.0875239 -0.0151147 0)
(0.0876027 -0.00488038 0)
(0.0865737 0.00373386 0)
(0.0846392 0.0114127 0)
(0.0819476 0.0186858 0)
(0.0786766 0.0260655 0)
(0.0751014 0.034073 0)
(0.0716065 0.0432922 0)
(0.0695238 0.0550472 0)
(0.0681376 0.0697365 0)
(0.0807555 0.0890203 0)
(0.0830057 0.0922682 0)
(0.087405 0.0539015 0)
(0.180926 0.0230721 0)
(-0.283967 0.153579 0)
(0.927995 0.517152 0)
(-0.383179 0.234208 0)
(0.0169204 0.133063 0)
(-0.0273479 0.116751 0)
(-0.0265801 0.0950239 0)
(-0.0227902 0.0725336 0)
(-0.0176991 0.0502032 0)
(-0.0124435 0.0273337 0)
(-0.00552089 0.00193602 0)
(0.00446163 -0.0307115 0)
(0.0141669 -0.0653129 0)
(0.0254575 -0.103305 0)
(0.037098 -0.140799 0)
(0.0477834 -0.172055 0)
(0.05689 -0.192249 0)
(0.0643923 -0.19975 0)
(0.0701192 -0.195349 0)
(0.0740734 -0.181164 0)
(0.0767696 -0.160071 0)
(0.0781258 -0.136047 0)
(0.0777593 -0.110986 0)
(0.076242 -0.0864014 0)
(0.0743984 -0.06378 0)
(0.0727487 -0.0441351 0)
(0.0714287 -0.0278554 0)
(0.0703073 -0.0146629 0)
(0.0691991 -0.00385985 0)
(0.067817 0.0053338 0)
(0.066294 0.0135018 0)
(0.0646075 0.0211396 0)
(0.0628473 0.0286903 0)
(0.0612054 0.0365362 0)
(0.0599778 0.045017 0)
(0.0599948 0.0546809 0)
(0.0609827 0.0655941 0)
(0.0693077 0.0794029 0)
(0.0776441 0.0832056 0)
(0.0746809 0.0615385 0)
(0.239385 0.0490611 0)
(-0.559109 0.229134 0)
(1.01134 0.506825 0)
(-0.137376 0.296356 0)
(0.0410806 0.161563 0)
(0.0405572 0.122168 0)
(0.0130415 0.0920746 0)
(0.00861876 0.0654746 0)
(0.0140254 0.0414969 0)
(0.0206299 0.0170707 0)
(0.0324179 -0.0109572 0)
(0.0438663 -0.0421131 0)
(0.0557212 -0.0768892 0)
(0.0679888 -0.114609 0)
(0.0791268 -0.151048 0)
(0.0876376 -0.180491 0)
(0.0928719 -0.198516 0)
(0.0949349 -0.203697 0)
(0.0942331 -0.19707 0)
(0.0913146 -0.181042 0)
(0.086858 -0.158644 0)
(0.0813155 -0.133188 0)
(0.0749789 -0.107103 0)
(0.0684419 -0.0822223 0)
(0.0624201 -0.0599166 0)
(0.0574259 -0.0409267 0)
(0.0536469 -0.0253559 0)
(0.0509858 -0.01272 0)
(0.0491854 -0.00224843 0)
(0.0478492 0.00675258 0)
(0.0469782 0.0147858 0)
(0.0463525 0.0223034 0)
(0.0459384 0.0296593 0)
(0.0458065 0.0371069 0)
(0.0461142 0.0448222 0)
(0.047313 0.0530204 0)
(0.0492969 0.0616568 0)
(0.0549161 0.0716382 0)
(0.0617266 0.0739475 0)
(0.0485051 0.0501333 0)
(0.293853 0.0706935 0)
(-0.7928 0.298418 0)
(0.779367 0.395761 0)
(0.000680531 0.319511 0)
(0.0933491 0.218935 0)
(0.110557 0.155213 0)
(0.0771165 0.106887 0)
(0.0597424 0.0676287 0)
(0.0581556 0.0358516 0)
(0.062308 0.00649648 0)
(0.0737156 -0.0233692 0)
(0.0852702 -0.0550026 0)
(0.0974499 -0.089733 0)
(0.109304 -0.126242 0)
(0.118677 -0.160009 0)
(0.123789 -0.18571 0)
(0.124036 -0.199783 0)
(0.119838 -0.20139 0)
(0.112142 -0.191888 0)
(0.102023 -0.173813 0)
(0.090523 -0.150181 0)
(0.078484 -0.124018 0)
(0.0665946 -0.0978557 0)
(0.0555792 -0.0736163 0)
(0.0461555 -0.0525684 0)
(0.0387833 -0.0351718 0)
(0.0335585 -0.0212405 0)
(0.0302529 -0.010017 0)
(0.0284199 -0.000599287 0)
(0.027601 0.00763636 0)
(0.0275513 0.015136 0)
(0.0279441 0.0222804 0)
(0.0286605 0.0293125 0)
(0.0296631 0.0363736 0)
(0.0309617 0.0435407 0)
(0.0326813 0.0509085 0)
(0.0344906 0.05856 0)
(0.0366924 0.067591 0)
(0.0281875 0.0745031 0)
(0.0171121 0.0882201 0)
(0.123629 0.159641 0)
(-0.664257 0.291633 0)
(0.617303 0.220928 0)
(0.00455421 0.29815 0)
(0.11301 0.241561 0)
(0.148276 0.177579 0)
(0.130833 0.123551 0)
(0.117807 0.0778957 0)
(0.114934 0.0389648 0)
(0.117084 0.00347494 0)
(0.123428 -0.0306455 0)
(0.131635 -0.0649538 0)
(0.141305 -0.100466 0)
(0.150173 -0.135347 0)
(0.1553 -0.165219 0)
(0.154756 -0.185756 0)
(0.148224 -0.194655 0)
(0.136596 -0.191939 0)
(0.121342 -0.179348 0)
(0.103967 -0.159441 0)
(0.0858465 -0.135115 0)
(0.0680887 -0.109147 0)
(0.0516398 -0.0840048 0)
(0.0373592 -0.0615552 0)
(0.0259796 -0.0429135 0)
(0.0177614 -0.0281474 0)
(0.0124894 -0.0167029 0)
(0.00954426 -0.00746598 0)
(0.00820547 0.00050925 0)
(0.00816256 0.00773314 0)
(0.00886279 0.0145698 0)
(0.0100739 0.021276 0)
(0.011649 0.0279902 0)
(0.0134727 0.0347838 0)
(0.0154297 0.0416932 0)
(0.01747 0.0487967 0)
(0.0195328 0.0564196 0)
(0.0213311 0.0668517 0)
(0.00522032 0.0861064 0)
(-0.00505503 0.120414 0)
(0.187095 0.174102 0)
(-0.567775 0.227367 0)
(0.57077 0.11859 0)
(-0.0203554 0.258663 0)
(0.113732 0.229898 0)
(0.165075 0.176082 0)
(0.166731 0.126232 0)
(0.164381 0.0811714 0)
(0.16535 0.040063 0)
(0.168233 0.0017266 0)
(0.172178 -0.0352995 0)
(0.177733 -0.0718364 0)
(0.183887 -0.107521 0)
(0.187564 -0.139581 0)
(0.185749 -0.164147 0)
(0.177063 -0.178406 0)
(0.161948 -0.181567 0)
(0.141944 -0.174522 0)
(0.118994 -0.159304 0)
(0.0948614 -0.138339 0)
(0.0711486 -0.114331 0)
(0.0490923 -0.0897609 0)
(0.0298621 -0.0669966 0)
(0.0144238 -0.0477665 0)
(0.00336173 -0.0328548 0)
(-0.00376859 -0.0214784 0)
(-0.00767011 -0.0129597 0)
(-0.00965334 -0.0057342 0)
(-0.0103118 0.0008457 0)
(-0.00987768 0.00710081 0)
(-0.00872869 0.01327 0)
(-0.00700132 0.0195034 0)
(-0.00484949 0.0259018 0)
(-0.00246264 0.032541 0)
(-0.000100947 0.0394971 0)
(0.00200066 0.0468502 0)
(0.00400278 0.0550109 0)
(0.00312747 0.0695246 0)
(-0.0194988 0.100258 0)
(-0.0204541 0.130705 0)
(0.166768 0.179274 0)
(-0.531271 0.209311 0)
(0.62836 0.05383 0)
(0.00921739 0.197336 0)
(0.113866 0.196957 0)
(0.17518 0.157962 0)
(0.191426 0.117748 0)
(0.198067 0.0773626 0)
(0.203373 0.0373849 0)
(0.208548 -0.00138854 0)
(0.213024 -0.0395493 0)
(0.217315 -0.0764353 0)
(0.219117 -0.10987 0)
(0.215266 -0.136691 0)
(0.20387 -0.154296 0)
(0.185014 -0.161696 0)
(0.160315 -0.159459 0)
(0.131943 -0.148991 0)
(0.102163 -0.132377 0)
(0.072705 -0.111692 0)
(0.0453717 -0.0894512 0)
(0.0213664 -0.0678212 0)
(0.00225344 -0.0491038 0)
(-0.0111591 -0.0347844 0)
(-0.0190694 -0.0248781 0)
(-0.0236691 -0.0172214 0)
(-0.0261806 -0.0107632 0)
(-0.0274221 -0.00487051 0)
(-0.0276744 0.000704896 0)
(-0.0270428 0.00614862 0)
(-0.0256639 0.0116468 0)
(-0.0236169 0.0173548 0)
(-0.0210666 0.0234279 0)
(-0.0182932 0.030037 0)
(-0.0157913 0.0374059 0)
(-0.014209 0.045924 0)
(-0.0141219 0.0572452 0)
(-0.0215506 0.0800269 0)
(-0.0490037 0.117907 0)
(-0.0442516 0.147111 0)
(0.028285 0.180091 0)
(-0.534247 0.183908 0)
(0.472977 0.0748371 0)
(-0.132107 0.137578 0)
(0.094307 0.133288 0)
(0.172804 0.116825 0)
(0.203904 0.0954091 0)
(0.218168 0.0644986 0)
(0.228118 0.0285197 0)
(0.237154 -0.00881986 0)
(0.243514 -0.045183 0)
(0.24501 -0.0781493 0)
(0.239016 -0.105035 0)
(0.224166 -0.123772 0)
(0.200971 -0.133507 0)
(0.17134 -0.134699 0)
(0.137864 -0.128619 0)
(0.102855 -0.116549 0)
(0.068683 -0.100377 0)
(0.0365674 -0.0817047 0)
(0.00897936 -0.0630443 0)
(-0.0133824 -0.0462679 0)
(-0.0272407 -0.0348029 0)
(-0.0356446 -0.0266215 0)
(-0.0404383 -0.0202412 0)
(-0.0432446 -0.0145985 0)
(-0.0448484 -0.00936174 0)
(-0.0456161 -0.00439054 0)
(-0.0456075 0.000366532 0)
(-0.0448507 0.0050291 0)
(-0.0432988 0.00978826 0)
(-0.0409722 0.0148787 0)
(-0.0380201 0.0205752 0)
(-0.0347523 0.0272166 0)
(-0.0317922 0.0353054 0)
(-0.0300887 0.0458423 0)
(-0.0298611 0.0616848 0)
(-0.034017 0.0906993 0)
(-0.0550822 0.137054 0)
(-0.0460862 0.177291 0)
(-0.0204549 0.17001 0)
(-0.562265 0.0770889 0)
(0.7242 0.134492 0)
(0.0818446 0.115273 0)
(0.149798 0.099204 0)
(0.222459 0.0804916 0)
(0.244115 0.0699926 0)
(0.248893 0.0477962 0)
(0.255159 0.0177191 0)
(0.261258 -0.0145329 0)
(0.260282 -0.0445716 0)
(0.24979 -0.0694292 0)
(0.229524 -0.087376 0)
(0.201039 -0.097937 0)
(0.166699 -0.101417 0)
(0.12905 -0.0988419 0)
(0.0906359 -0.0915155 0)
(0.0529364 -0.0801344 0)
(0.0188246 -0.0664106 0)
(-0.0121352 -0.0514876 0)
(-0.0336789 -0.0400286 0)
(-0.0477942 -0.0319423 0)
(-0.0560434 -0.0264051 0)
(-0.0608709 -0.0218016 0)
(-0.0637459 -0.0174029 0)
(-0.0655204 -0.0129358 0)
(-0.06656 -0.00849278 0)
(-0.0669895 -0.00421284 0)
(-0.0667772 -0.000161224 0)
(-0.065889 0.00373804 0)
(-0.0642273 0.00769217 0)
(-0.061698 0.0120303 0)
(-0.0583754 0.0171605 0)
(-0.0544467 0.0236012 0)
(-0.0503187 0.0321172 0)
(-0.0465636 0.0440593 0)
(-0.042233 0.0621512 0)
(-0.0346572 0.091855 0)
(-0.0332593 0.139302 0)
(-0.0228686 0.197158 0)
(0.115372 0.188827 0)
(-0.460652 0.0380775 0)
(0.191857 0.0879682 0)
(0.225717 0.0997476 0)
(0.246508 0.0702206 0)
(0.242574 0.0400147 0)
(0.239756 0.0123969 0)
(0.234809 -0.0126198 0)
(0.220143 -0.0331247 0)
(0.196452 -0.048274 0)
(0.166035 -0.0580322 0)
(0.131323 -0.0628679 0)
(0.0941001 -0.0630928 0)
(0.0563672 -0.0595029 0)
(0.0201741 -0.053067 0)
(-0.0151175 -0.0440449 0)
(-0.0419696 -0.0359073 0)
(-0.0617767 -0.0296646 0)
(-0.0745333 -0.0259646 0)
(-0.0823323 -0.0234976 0)
(-0.087058 -0.0212702 0)
(-0.0901329 -0.0185288 0)
(-0.0922419 -0.0152102 0)
(-0.0936906 -0.0115209 0)
(-0.0946001 -0.00774822 0)
(-0.0950049 -0.00412213 0)
(-0.094879 -0.00074555 0)
(-0.0941534 0.00243419 0)
(-0.0927764 0.00557862 0)
(-0.0905356 0.0090462 0)
(-0.0873128 0.0133303 0)
(-0.0829254 0.0190305 0)
(-0.0771809 0.0269296 0)
(-0.0698547 0.0382 0)
(-0.0595684 0.0547957 0)
(-0.0424254 0.0797808 0)
(-0.020536 0.116948 0)
(-0.00153835 0.171164 0)
(0.167578 0.168731 0)
(-0.374876 0.0943915 0)
(0.450945 0.209681 0)
(0.205939 0.178704 0)
(0.15246 0.118769 0)
(0.139509 0.0640785 0)
(0.128305 0.0259765 0)
(0.114343 0.00190689 0)
(0.0990704 -0.0127784 0)
(0.0779822 -0.0217932 0)
(0.0530749 -0.0272088 0)
(0.0255068 -0.029438 0)
(-0.00502279 -0.0284097 0)
(-0.0347221 -0.0253021 0)
(-0.0609919 -0.0217346 0)
(-0.0825913 -0.0191377 0)
(-0.0979739 -0.0186029 0)
(-0.108057 -0.0192557 0)
(-0.114345 -0.0201975 0)
(-0.118588 -0.020234 0)
(-0.12183 -0.0189642 0)
(-0.124535 -0.0164461 0)
(-0.126822 -0.0130057 0)
(-0.128677 -0.00906757 0)
(-0.130056 -0.00508659 0)
(-0.130922 -0.00147545 0)
(-0.131282 0.00149129 0)
(-0.131146 0.00375397 0)
(-0.13044 0.00568919 0)
(-0.128923 0.00770574 0)
(-0.126229 0.0102203 0)
(-0.121797 0.013696 0)
(-0.114936 0.0187507 0)
(-0.104868 0.0262888 0)
(-0.0901569 0.0375309 0)
(-0.0677651 0.0538621 0)
(-0.0358284 0.0771007 0)
(-0.000131756 0.11516 0)
(0.185999 0.13254 0)
(-0.360374 0.153869 0)
(0.358496 -0.416884 0)
(-0.34607 -0.512474 0)
(-0.218216 -0.0272924 0)
(-0.0933845 0.110961 0)
(-0.0538612 0.0925769 0)
(-0.0314214 0.0546174 0)
(-0.0265038 0.0284997 0)
(-0.0314243 0.0118444 0)
(-0.0402909 0.00118344 0)
(-0.0509824 -0.00562792 0)
(-0.0649381 -0.00958807 0)
(-0.0808062 -0.0115741 0)
(-0.0974048 -0.0129235 0)
(-0.113221 -0.0151105 0)
(-0.127019 -0.0183081 0)
(-0.137705 -0.0215617 0)
(-0.144518 -0.0245568 0)
(-0.148553 -0.0267278 0)
(-0.151404 -0.0279892 0)
(-0.154108 -0.0283494 0)
(-0.156998 -0.0279131 0)
(-0.160048 -0.0268297 0)
(-0.16312 -0.025275 0)
(-0.166061 -0.0233874 0)
(-0.16871 -0.0212037 0)
(-0.170848 -0.0186424 0)
(-0.172219 -0.0155835 0)
(-0.172595 -0.0121073 0)
(-0.172111 -0.00878951 0)
(-0.170855 -0.00556045 0)
(-0.168619 -0.00225238 0)
(-0.164926 0.00134945 0)
(-0.15903 0.00566936 0)
(-0.149991 0.0114546 0)
(-0.13627 0.0194079 0)
(-0.114549 0.0295177 0)
(-0.0794954 0.0423244 0)
(-0.0284261 0.0656524 0)
(0.166624 0.113442 0)
(-0.493019 0.219137 0)
(0.122161 -0.186289 0)
(-0.388576 -0.298046 0)
(-0.343488 -0.0963832 0)
(-0.265182 0.0515102 0)
(-0.21148 0.0833892 0)
(-0.179339 0.0744497 0)
(-0.163047 0.0610503 0)
(-0.157009 0.0512435 0)
(-0.157015 0.0463062 0)
(-0.16023 0.0459933 0)
(-0.164765 0.0494205 0)
(-0.169077 0.0553394 0)
(-0.172306 0.0623579 0)
(-0.174269 0.0686438 0)
(-0.175387 0.0717728 0)
(-0.176344 0.0686321 0)
(-0.177991 0.0618932 0)
(-0.180659 0.055786 0)
(-0.184325 0.0519161 0)
(-0.188676 0.0503739 0)
(-0.19327 0.0507294 0)
(-0.197654 0.0524437 0)
(-0.201461 0.0549263 0)
(-0.204465 0.0574995 0)
(-0.20659 0.0593962 0)
(-0.20786 0.0598661 0)
(-0.208269 0.0584321 0)
(-0.207668 0.0555778 0)
(-0.206148 0.0524809 0)
(-0.203826 0.0491695 0)
(-0.200615 0.0455446 0)
(-0.196103 0.0414943 0)
(-0.189597 0.0368831 0)
(-0.180579 0.0313301 0)
(-0.168781 0.0235404 0)
(-0.1524 0.00966491 0)
(-0.123349 -0.0122824 0)
(-0.0622689 -0.0234841 0)
(0.187636 0.0554468 0)
(-0.589487 0.249702 0)
(1.14911 -0.0109485 0)
(-0.297701 -0.323154 0)
(-0.35339 -0.232582 0)
(-0.353144 -0.148286 0)
(-0.329505 -0.107109 0)
(-0.298019 -0.0986238 0)
(-0.270892 -0.10081 0)
(-0.251136 -0.106375 0)
(-0.237664 -0.113648 0)
(-0.228289 -0.122547 0)
(-0.221078 -0.133494 0)
(-0.214822 -0.146867 0)
(-0.209126 -0.162267 0)
(-0.204283 -0.177926 0)
(-0.201172 -0.190526 0)
(-0.201131 -0.196298 0)
(-0.205154 -0.196219 0)
(-0.212645 -0.192766 0)
(-0.22207 -0.18742 0)
(-0.231936 -0.181356 0)
(-0.241121 -0.175393 0)
(-0.248884 -0.169969 0)
(-0.254777 -0.165164 0)
(-0.258587 -0.160787 0)
(-0.260353 -0.156489 0)
(-0.260402 -0.151899 0)
(-0.259307 -0.146762 0)
(-0.257675 -0.14123 0)
(-0.255782 -0.135455 0)
(-0.253659 -0.129306 0)
(-0.251423 -0.1229 0)
(-0.249248 -0.116489 0)
(-0.247565 -0.110125 0)
(-0.24788 -0.103203 0)
(-0.253196 -0.0945342 0)
(-0.26344 -0.0816878 0)
(-0.266342 -0.0581444 0)
(-0.24918 -0.00881175 0)
(-0.265494 0.0782592 0)
(-0.676986 0.19041 0)
)
;

boundaryField
{
    floor
    {
        type            noSlip;
    }
    ceiling
    {
        type            noSlip;
    }
    sWall
    {
        type            noSlip;
    }
    nWall
    {
        type            noSlip;
    }
    sideWalls
    {
        type            empty;
    }
    glass1
    {
        type            noSlip;
    }
    glass2
    {
        type            noSlip;
    }
    sun
    {
        type            noSlip;
    }
    Table_master
    {
        type            noSlip;
    }
    Table_slave
    {
        type            noSlip;
    }
    inlet
    {
        type            fixedValue;
        value           uniform (0.5 0 0);
    }
    outlet
    {
        type            zeroGradient;
    }
}


// ************************************************************************* //
