/*--------------------------------*- C++ -*----------------------------------*\
  =========                 |
  \\      /  F ield         | OpenFOAM: The Open Source CFD Toolbox
   \\    /   O peration     | Website:  https://openfoam.org
    \\  /    A nd           | Version:  6
     \\/     M anipulation  |
\*---------------------------------------------------------------------------*/
FoamFile
{
    version     2.0;
    format      ascii;
    class       surfaceScalarField;
    location    "2730";
    object      phi;
}
// * * * * * * * * * * * * * * * * * * * * * * * * * * * * * * * * * * * * * //

dimensions      [1 0 -1 0 0 0 0];

internalField   nonuniform List<scalar> 
850
(
-0.00305313
0.00311358
-0.00414584
0.00109272
-0.00501494
0.000869102
-0.0057038
0.00068886
-0.00617589
0.000472081
-0.00639713
0.000221245
-0.00632791
-6.92166e-05
-0.00592408
-0.000403831
-0.00517382
-0.000750261
-0.00412864
-0.00104518
-0.00290033
-0.00122832
-0.00164151
-0.00125882
-0.000538992
-0.00110252
0.000135933
-0.000674924
0.000138284
-0.000922435
0.000926092
-0.000690059
-0.000232376
-6.08451e-05
-0.000629214
0.000542594
-0.000603439
0.00100178
-0.000459183
0.00125836
-0.000256579
0.00136647
-0.000108118
0.00141929
-5.28188e-05
0.00144965
-3.03552e-05
0.00146472
-1.50677e-05
0.00146833
-3.6122e-06
0.00146133
6.99865e-06
0.00143808
2.32526e-05
0.00137956
5.85189e-05
0.00125364
0.000125915
0.00105007
0.000203573
0.000793438
0.000256633
0.000798277
-0.00220747
0.00548446
-0.00329514
0.00218038
-0.00420836
0.00178232
-0.00490613
0.00138663
-0.00538764
0.000953593
-0.00563058
0.000464182
-0.00559455
-0.00010525
-0.00524034
-0.000758038
-0.00456682
-0.00142378
-0.00364275
-0.00196924
-0.00258805
-0.00228302
-0.0015415
-0.00230536
-0.000628657
-0.00201536
9.29532e-05
-0.00139653
0.000872796
-0.000641559
0.00114864
-0.00027206
0.000956856
0.000196143
0.000969545
4.14847e-05
0.000895608
0.000421735
-0.000612627
0.000786629
-0.000994107
0.0010996
-0.000916411
0.00135045
-0.000710034
0.00140692
-0.000313045
0.00141505
-0.000116255
0.00142578
-6.35445e-05
0.00143477
-3.93414e-05
0.00144003
-2.03359e-05
0.0014422
-5.77645e-06
0.00144181
7.38887e-06
0.00143633
2.87296e-05
0.00139988
9.49736e-05
0.001247
0.000278791
0.000978542
0.000472031
0.000644606
0.000590569
0.00145526
-0.00156234
0.00729722
-0.00251038
0.00312842
-0.00334302
0.00261496
-0.00396559
0.0020092
-0.00441316
0.00140117
-0.00466168
0.000712702
-0.00465601
-0.000110919
-0.00433471
-0.00107934
-0.00371316
-0.00204533
-0.00288873
-0.00279368
-0.0019866
-0.00318515
-0.00112265
-0.00316931
-0.000373444
-0.00276457
0.000240563
-0.00201054
0.000752075
-0.00115307
0.000899432
-0.000419416
0.000707537
0.000388037
0.00168834
0.00143725
-0.000527803
0.00163275
-0.00080813
0.00157515
-0.00093651
0.00160844
-0.0009497
0.00181171
-0.000913298
0.00149881
0.00138271
0.00131932
0.00128013
0.00125995
0.00125433
0.00126187
0.00129076
0.00138588
0.00115886
0.000505816
0.00086998
0.00076091
0.000498881
0.000961668
0.00197271
-0.00109548
0.00871735
-0.00185228
0.00388522
-0.00243661
0.00319929
-0.00288269
0.00245528
-0.00322782
0.0017463
-0.00344068
0.000925565
-0.00344209
-0.000109514
-0.00312367
-0.00139776
-0.00254779
-0.00262121
-0.00184607
-0.0034954
-0.0011304
-0.00390081
-0.000480674
-0.00381904
6.58046e-05
-0.00331105
0.000526403
-0.00247114
0.000902507
-0.00152917
0.00111959
-0.000636497
0.00130378
0.000203846
0.00225756
0.000734565
0.00216773
0.000101771
0.00199497
-0.000355043
0.001909
-0.000722167
0.00179821
-0.000825712
0.001666
-0.000817499
0.00143504
-0.000682336
0.00175865
-0.000323759
0.00193631
-0.000177819
0.00206724
-0.000131082
0.00216803
-0.000100941
0.00222825
-6.03775e-05
0.00222569
2.4075e-06
0.0021328
9.27399e-05
0.00191324
0.000219402
0.00150709
0.000406004
0.00126969
0.000743212
0.000902429
0.00112817
0.000384079
0.00148002
0.00238043
-0.000756056
0.00986113
-0.00132705
0.00445622
-0.00150963
0.00338186
-0.00168822
0.00263387
-0.0018532
0.00191127
-0.00196222
0.00103459
-0.00191376
-0.000157973
-0.00155672
-0.0017548
-0.0010557
-0.00312223
-0.000537788
-0.00401332
-7.32918e-05
-0.00436531
0.000305365
-0.00419769
0.000596537
-0.00360222
0.000849418
-0.00272402
0.00106876
-0.00174852
0.00127617
-0.000843907
0.00158686
-0.000106838
0.00203043
0.000290996
0.0020643
6.78947e-05
0.00199699
-0.000287736
0.0018125
-0.000537674
0.00162463
-0.000637837
0.00144753
-0.000640404
0.00131884
-0.000553647
0.0013776
-0.000382513
0.00146565
-0.000265877
0.00155012
-0.000215551
0.00163161
-0.000182427
0.00170174
-0.00013051
0.00174077
-3.66209e-05
0.0017247
0.000108807
0.00163844
0.000305666
0.0014862
0.00055824
0.00133012
0.000899299
0.00115113
0.00130715
0.000804098
0.00182705
0.00101982
0.00216471
-0.00109517
0.0021361
-0.00179343
0.000717877
-0.00172066
-0.000638733
0.0109406
-0.00101438
0.00483187
-0.000633424
0.00300091
-0.000448675
0.00244912
-0.000384047
0.00184665
-0.000303687
0.00095423
-5.18967e-05
-0.000409763
0.000334513
-0.00214121
0.0006922
-0.00347992
0.000952048
-0.00427317
0.00109507
-0.00450833
0.00114539
-0.00424802
0.00113929
-0.00359612
0.0011161
-0.00270083
0.00110063
-0.00173305
0.0011328
-0.000876075
0.00126987
-0.000243909
0.00148465
7.62119e-05
0.00153593
1.66225e-05
0.00143796
-0.000189766
0.00126358
-0.000363296
0.00108391
-0.00045817
0.000926606
-0.000483099
0.000821576
-0.000448617
0.000810773
-0.00037171
0.000860116
-0.00031522
0.000936282
-0.000291718
0.00102703
-0.00027317
0.00112585
-0.000229339
0.00122286
-0.000133624
0.00129577
3.58958e-05
0.00133283
0.000268604
0.00134813
0.000542939
0.00138215
0.000865281
0.0014826
0.0012067
0.00168608
0.00162357
0.00203681
0.00181398
0.00233694
0.00183597
0.00182999
0.00122483
0.000174765
-0.000763854
0.0121918
-0.000621463
0.00468948
0.000492306
0.00188714
0.000960659
0.00198077
0.00121802
0.00158928
0.00159953
0.000572721
0.00210283
-0.000913061
0.00243999
-0.00247837
0.0025738
-0.00361372
0.00250625
-0.00420562
0.00227302
-0.0042751
0.00193605
-0.00391105
0.00155912
-0.00321919
0.00120036
-0.00234208
0.000896631
-0.00142931
0.000705094
-0.000684537
0.000653507
-0.000192322
0.000704678
2.50406e-05
0.000712768
8.5325e-06
0.000636511
-0.000113508
0.000509185
-0.000235971
0.000368885
-0.000317869
0.000242982
-0.000357197
0.000156869
-0.000362504
0.000133906
-0.000348748
0.000162914
-0.000344228
0.000222544
-0.000351347
0.000303
-0.000353626
0.000405286
-0.000331626
0.000534375
-0.000262713
0.000687278
-0.000117007
0.000845215
0.000110666
0.00100722
0.000380938
0.00120907
0.000663431
0.00148366
0.000932111
0.00188404
0.00122319
0.00241743
0.00128059
0.00318504
0.00106837
0.00336162
0.00104825
0.0036052
0.00273596
0.00999916
0.00339174
0.0040337
0.00344939
0.00182949
0.00353507
0.00189509
0.00374634
0.00137801
0.00422227
9.67915e-05
0.00469343
-0.00138422
0.00478847
-0.0025734
0.00451414
-0.00333939
0.00396098
-0.00365246
0.0032298
-0.00354392
0.0024248
-0.00310605
0.00162794
-0.00242233
0.000922021
-0.00163615
0.000347345
-0.000854638
-2.54056e-06
-0.000334652
-0.000140851
-5.40108e-05
-0.000155274
3.9463e-05
-0.000163121
1.63793e-05
-0.000215247
-6.13818e-05
-0.000306065
-0.000145152
-0.000412293
-0.000211641
-0.00051161
-0.000257879
-0.000585875
-0.000288239
-0.000623868
-0.000310754
-0.000633079
-0.000335017
-0.000625252
-0.000359174
-0.000604687
-0.000374191
-0.000566403
-0.00036991
-0.000494182
-0.000334934
-0.000356718
-0.000254472
-0.000146587
-9.94637e-05
0.000104179
0.000130172
0.000388874
0.000378735
0.000707317
0.000613669
0.00108959
0.000840924
0.00150688
0.000863289
0.00189863
0.000676621
0.00120603
0.00174085
0.00509764
0.0105981
0.0146276
0.0125615
0.00389563
0.0112293
0.00322725
0.0103408
0.00226647
0.00953401
0.000903611
0.00853159
-0.000381796
0.00735266
-0.00139448
0.00607937
-0.0020661
0.00476052
-0.00233361
0.0034293
-0.0022127
0.00216423
-0.00184098
0.00100937
-0.00126747
5.63139e-05
-0.000683097
-0.000566106
-0.000232218
-0.00085969
-4.10682e-05
-0.000956825
4.3124e-05
-0.000976483
5.9121e-05
-0.000991868
3.1765e-05
-0.0010353
-1.79537e-05
-0.00110787
-7.25776e-05
-0.0011969
-0.000122613
-0.0012887
-0.000166076
-0.00137432
-0.000202621
-0.00145151
-0.000233564
-0.00152705
-0.000259481
-0.00161021
-0.000276015
-0.00170952
-0.000274875
-0.00183466
-0.000244775
-0.00199851
-0.00017108
-0.00221651
-3.6476e-05
-0.00248301
0.000167035
-0.00280698
0.000454143
-0.00327095
0.000842707
-0.00398815
0.00133087
-0.00502969
0.00188247
-0.00651691
0.0023505
-0.00825535
0.00241507
-0.00777181
0.0012573
-0.00235716
0.00895047
0.00560354
0.0074719
0.00470582
0.00708004
0.00265833
0.00672921
0.00125444
0.00611923
0.00022819
0.0052468
-0.000522049
0.00417819
-0.000997488
0.00298277
-0.00113819
0.00169115
-0.000921089
0.000430261
-0.00058009
-0.000609611
-0.000227599
-0.00127081
-2.19033e-05
-0.00156327
6.02485e-05
-0.00167795
7.36054e-05
-0.00170792
7.3094e-05
-0.00171368
6.48897e-05
-0.0017287
4.67822e-05
-0.0017675
2.08494e-05
-0.00183142
-8.66458e-06
-0.00191296
-4.10702e-05
-0.00200446
-7.45747e-05
-0.00210377
-0.000103317
-0.00221221
-0.000125116
-0.00233324
-0.000138459
-0.00246897
-0.000140285
-0.00261827
-0.000125569
-0.00277573
-8.73135e-05
-0.002929
-1.78107e-05
-0.00306255
9.70731e-05
-0.00317483
0.000279309
-0.00327577
0.000555085
-0.00337727
0.000944214
-0.0034861
0.0014397
-0.00356961
0.00196597
-0.00356798
0.00234888
-0.00331002
0.00215711
-0.00195002
-0.000102693
-0.00422385
-0.000826103
0.00648296
0.000742093
0.00313762
0.00140779
0.00199264
0.00164668
0.00101555
0.00158283
0.00029204
0.0012118
-0.000151021
0.000529556
-0.000315245
-0.000363885
-0.000244745
-0.00124119
-4.37878e-05
-0.00188645
6.51774e-05
-0.00222716
0.000113103
-0.00235811
0.000109047
-0.0023812
8.33414e-05
-0.00237097
6.33783e-05
-0.00234991
5.20288e-05
-0.00232935
4.43289e-05
-0.00231836
3.57958e-05
-0.00232224
2.47293e-05
-0.00234161
1.07063e-05
-0.00237545
-7.22935e-06
-0.00242404
-2.59864e-05
-0.00248539
-4.19668e-05
-0.0025574
-5.31028e-05
-0.00263756
-5.83022e-05
-0.0027218
-5.60471e-05
-0.00280353
-4.38324e-05
-0.0028733
-1.75445e-05
-0.00291855
2.74347e-05
-0.00291853
9.70538e-05
-0.00284797
0.000208746
-0.00267232
0.000379435
-0.00236026
0.000632153
-0.00190395
0.000983388
-0.00128938
0.0013514
-0.000299692
0.00135919
0.00114764
0.000709776
0.00164261
-0.000597662
-0.00248956
-0.0120486
-0.0155771
-0.00905366
-0.00588862
-0.00387372
-0.00283956
-0.00253249
-0.00267151
-0.00297683
-0.00321307
-0.00324919
-0.00317673
-0.00305649
-0.00294033
-0.00284986
-0.00277934
-0.00272013
-0.00266858
-0.00262552
-0.00259348
-0.00257546
-0.00257541
-0.00259421
-0.00262909
-0.00267524
-0.00272674
-0.00277614
-0.00281349
-0.00282475
-0.00279124
-0.00268833
-0.00247396
-0.00208914
-0.00145188
-0.000463685
0.000892141
0.00225548
0.0029693
0.00237582
)
;

boundaryField
{
    floor
    {
        type            calculated;
        value           nonuniform List<scalar> 
36
(
0
0
0
0
0
0
0
0
0
0
0
0
0
0
0
0
0
0
0
-4.83914e-06
-1.23783e-05
-1.85697e-05
-2.36402e-05
-2.11163e-05
-1.96191e-05
-1.84535e-05
-2.35097e-06
-3.78399e-06
-4.35946e-06
-5.04476e-06
-3.65662e-06
-7.64391e-06
-1.10004e-05
-1.12621e-05
-1.38366e-05
-1.19392e-05
)
;
    }
    ceiling
    {
        type            calculated;
        value           nonuniform List<scalar> 
43
(
-4.18435e-05
-4.11782e-05
-4.04781e-05
-2.7414e-05
-2.227e-05
-1.86052e-05
-1.50293e-05
-1.20045e-05
-9.92931e-06
-8.50205e-06
-7.6663e-06
-7.28592e-06
-7.13823e-06
-7.11151e-06
-7.12511e-06
-7.1465e-06
-7.1777e-06
-7.22054e-06
-7.26686e-06
-7.30746e-06
-7.31506e-06
-7.27631e-06
-7.19282e-06
-7.08127e-06
-6.95242e-06
-6.80928e-06
-6.64853e-06
-6.47533e-06
-6.2839e-06
-6.07882e-06
-5.85916e-06
-5.62526e-06
-5.37661e-06
-5.10593e-06
-4.8113e-06
-4.42489e-06
-4.13956e-06
-4.04932e-06
-4.18134e-06
-3.60358e-06
6.94078e-06
4.17891e-06
-5.33142e-05
)
;
    }
    sWall
    {
        type            calculated;
        value           uniform -0.000241397;
    }
    nWall
    {
        type            calculated;
        value           nonuniform List<scalar> 6(-5.43171e-05 -6.54339e-05 -6.88139e-05 -8.3326e-05 -9.16837e-05 -0.00011014);
    }
    sideWalls
    {
        type            empty;
        value           nonuniform 0();
    }
    glass1
    {
        type            calculated;
        value           nonuniform List<scalar> 9(-6.04583e-05 -0.000163402 -0.000250424 -0.000324648 -0.000387723 -0.000440785 -0.000487279 -0.000543337 -0.000605862);
    }
    glass2
    {
        type            calculated;
        value           nonuniform List<scalar> 2(-0.000286411 -0.000317012);
    }
    sun
    {
        type            calculated;
        value           uniform 0;
    }
    Table_master
    {
        type            calculated;
        value           nonuniform List<scalar> 9(-1.5364e-07 -1.53789e-07 -1.53839e-07 -1.53869e-07 -1.53889e-07 -1.53902e-07 -1.53906e-07 -1.539e-07 -1.5387e-07);
    }
    Table_slave
    {
        type            calculated;
        value           nonuniform List<scalar> 9(1.5353e-07 1.53515e-07 1.53468e-07 1.53431e-07 1.53408e-07 1.53408e-07 1.53413e-07 1.53451e-07 1.53535e-07);
    }
    inlet
    {
        type            calculated;
        value           uniform -0.0106584;
    }
    outlet
    {
        type            calculated;
        value           nonuniform List<scalar> 2(0.0123318 0.00356969);
    }
}


// ************************************************************************* //
