/*--------------------------------*- C++ -*----------------------------------*\
  =========                 |
  \\      /  F ield         | OpenFOAM: The Open Source CFD Toolbox
   \\    /   O peration     | Website:  https://openfoam.org
    \\  /    A nd           | Version:  6
     \\/     M anipulation  |
\*---------------------------------------------------------------------------*/
FoamFile
{
    version     2.0;
    format      ascii;
    class       volVectorField;
    location    "2730";
    object      U;
}
// * * * * * * * * * * * * * * * * * * * * * * * * * * * * * * * * * * * * * //

dimensions      [0 1 -1 0 0 0 0];

internalField   nonuniform List<vector> 
458
(
(0.0348252 0.0885225 0)
(-0.172081 0.0265842 0)
(-0.199349 0.0191133 0)
(-0.233224 0.0130812 0)
(-0.258397 0.00641378 0)
(-0.273601 -0.000804832 0)
(-0.276731 -0.0087782 0)
(-0.265483 -0.0177782 0)
(-0.239425 -0.0274272 0)
(-0.199713 -0.036112 0)
(-0.150447 -0.0420519 0)
(-0.0978302 -0.0436518 0)
(-0.0487296 -0.0390819 0)
(-0.00627058 -0.023685 0)
(-0.0102633 0.00977244 0)
(-0.0102384 0.0105133 0)
(-0.0372611 -0.0174866 0)
(-0.0145115 -0.029103 0)
(0.0136676 -0.0251833 0)
(0.0334391 -0.0178893 0)
(0.0480555 -0.0095548 0)
(0.0568149 -0.00517621 0)
(0.0606936 -0.00363237 0)
(0.0621292 -0.00308269 0)
(0.0627786 -0.00275985 0)
(0.0630886 -0.00250941 0)
(0.0630278 -0.00224145 0)
(0.0624301 -0.00179743 0)
(0.0608387 -0.000838854 0)
(0.057237 0.00107437 0)
(0.050518 0.00317038 0)
(0.0451139 0.00508603 0)
(-0.0141475 0.0219478 0)
(0.214273 0.18189 0)
(-0.162149 0.0709935 0)
(-0.162942 0.0577628 0)
(-0.198658 0.0457437 0)
(-0.224134 0.0319886 0)
(-0.24011 0.0161759 0)
(-0.244613 -0.0024098 0)
(-0.235117 -0.0239666 0)
(-0.211869 -0.0461701 0)
(-0.176486 -0.0649272 0)
(-0.133356 -0.0764276 0)
(-0.088127 -0.0781999 0)
(-0.04626 -0.068731 0)
(-0.0100267 -0.0460177 0)
(0.0194101 -0.0133807 0)
(0.044243 0.00784955 0)
(0.0548477 0.0347582 0)
(-0.0118084 0.0706831 0)
(0.0670396 0.0439824 0)
(0.0102863 -0.0218339 0)
(0.0265175 -0.0378984 0)
(0.0407456 -0.035645 0)
(0.0531347 -0.0273416 0)
(0.0595568 -0.0120938 0)
(0.061177 -0.00275364 0)
(0.0612268 0.000745399 0)
(0.0613915 0.00202298 0)
(0.0617167 0.00272166 0)
(0.0619418 0.0032215 0)
(0.0619992 0.00367484 0)
(0.0618953 0.00440709 0)
(0.0611843 0.00620491 0)
(0.0577878 0.0112232 0)
(0.0490972 0.0155321 0)
(0.0476926 0.0187033 0)
(-0.0584295 0.0475492 0)
(0.379535 0.272956 0)
(-0.180118 0.113734 0)
(-0.123512 0.0941098 0)
(-0.159198 0.0724349 0)
(-0.1826 0.0495033 0)
(-0.19841 0.0236429 0)
(-0.204063 -0.00653478 0)
(-0.195374 -0.0409797 0)
(-0.173591 -0.0757813 0)
(-0.141425 -0.10365 0)
(-0.103841 -0.118954 0)
(-0.0658951 -0.119157 0)
(-0.0318228 -0.10412 0)
(-0.00227683 -0.0743986 0)
(0.0220311 -0.040074 0)
(0.0375975 -0.0152198 0)
(0.0431794 0.0131636 0)
(-0.0236598 0.0623203 0)
(0.12249 -0.00753037 0)
(0.0725104 -0.0320897 0)
(0.0643124 -0.0419284 0)
(0.067261 -0.0417566 0)
(0.0718712 -0.0380439 0)
(0.0734894 -0.0282281 0)
(0.0643661 -0.0183291 0)
(0.0574117 -0.0130271 0)
(0.0548131 -0.0100786 0)
(0.0541217 -0.00818603 0)
(0.0538875 -0.00689747 0)
(0.0539578 -0.00590256 0)
(0.0547571 -0.00475353 0)
(0.0572078 -0.00139889 0)
(0.0561024 0.0149935 0)
(0.0445866 0.0258685 0)
(0.0541327 0.0332456 0)
(-0.0993796 0.072793 0)
(0.530028 0.346653 0)
(-0.216669 0.151756 0)
(-0.0801996 0.125837 0)
(-0.115538 0.0962973 0)
(-0.133417 0.0672245 0)
(-0.146929 0.0337635 0)
(-0.152515 -0.00711119 0)
(-0.142621 -0.0550542 0)
(-0.121288 -0.102309 0)
(-0.0929784 -0.13784 0)
(-0.0625314 -0.155426 0)
(-0.033572 -0.153428 0)
(-0.00879757 -0.133438 0)
(0.0128654 -0.097924 0)
(0.030433 -0.0589732 0)
(0.0443572 -0.0228971 0)
(0.0599557 0.0131493 0)
(0.0588238 0.0534413 0)
(0.100335 0.0615059 0)
(0.0988171 -0.00244028 0)
(0.0851525 -0.029388 0)
(0.0784689 -0.03769 0)
(0.0736175 -0.0383939 0)
(0.0670219 -0.0341075 0)
(0.0666025 -0.0208386 0)
(0.0772782 -0.0138302 0)
(0.0862411 -0.0101072 0)
(0.0916402 -0.00782431 0)
(0.0948797 -0.00591657 0)
(0.0962858 -0.00385549 0)
(0.0945176 -0.00119013 0)
(0.0882555 0.00248028 0)
(0.0757134 0.00774299 0)
(0.0597993 0.0250976 0)
(0.0440618 0.0405827 0)
(0.0629782 0.0533438 0)
(-0.131389 0.0942769 0)
(0.662683 0.403811 0)
(-0.262353 0.182679 0)
(-0.0350339 0.145258 0)
(-0.0687492 0.11132 0)
(-0.0779457 0.0792336 0)
(-0.0862933 0.0412501 0)
(-0.0890487 -0.00798743 0)
(-0.0740282 -0.0688146 0)
(-0.0534822 -0.125902 0)
(-0.0315786 -0.165074 0)
(-0.0112747 -0.181843 0)
(0.00616198 -0.175991 0)
(0.019326 -0.151483 0)
(0.030344 -0.114539 0)
(0.040194 -0.0729584 0)
(0.0494385 -0.0337231 0)
(0.0619371 0.000675104 0)
(0.0760398 0.0197172 0)
(0.0903289 -0.000566459 0)
(0.0896864 -0.0213719 0)
(0.0826198 -0.0300333 0)
(0.0738132 -0.0325491 0)
(0.0655684 -0.031629 0)
(0.0586239 -0.0266317 0)
(0.0568424 -0.0155114 0)
(0.0603957 -0.00902617 0)
(0.0647369 -0.00637172 0)
(0.06846 -0.00482948 0)
(0.0717026 -0.00274934 0)
(0.0742093 0.000781341 0)
(0.0750587 0.00596828 0)
(0.0731646 0.0129865 0)
(0.0682555 0.0224378 0)
(0.0612084 0.0371775 0)
(0.0500562 0.053629 0)
(0.0748592 0.0727477 0)
(-0.00684627 0.10138 0)
(0.0557881 0.150674 0)
(-0.0835196 0.0748407 0)
(-0.277797 0.000488127 0)
(0.761893 0.451325 0)
(-0.30855 0.203339 0)
(0.00243017 0.143886 0)
(-0.0205838 0.116259 0)
(-0.0197893 0.0857224 0)
(-0.0214989 0.0472957 0)
(-0.0143131 -0.00693673 0)
(0.0103167 -0.0859256 0)
(0.0269256 -0.146193 0)
(0.0388276 -0.182424 0)
(0.0460475 -0.194554 0)
(0.0488956 -0.185052 0)
(0.0486308 -0.158121 0)
(0.0472259 -0.119918 0)
(0.0460521 -0.0779394 0)
(0.046469 -0.0397075 0)
(0.050821 -0.00999119 0)
(0.0599696 0.00482446 0)
(0.0662465 -0.00105149 0)
(0.0649936 -0.0110135 0)
(0.0586082 -0.0188059 0)
(0.0504373 -0.0229107 0)
(0.0427991 -0.0236604 0)
(0.036823 -0.0211341 0)
(0.0342715 -0.01577 0)
(0.0354207 -0.0122937 0)
(0.0383744 -0.0108626 0)
(0.0420305 -0.00977461 0)
(0.0460903 -0.00763848 0)
(0.0502727 -0.00338435 0)
(0.0544833 0.0036838 0)
(0.0570004 0.0131865 0)
(0.0581667 0.024944 0)
(0.0592916 0.0395783 0)
(0.0583678 0.0559998 0)
(0.0797091 0.0766952 0)
(0.0654484 0.0889837 0)
(0.0997222 0.0967314 0)
(0.117478 0.0571988 0)
(-0.136895 -0.0299279 0)
(0.815614 0.494189 0)
(-0.334124 0.187371 0)
(0.0322411 0.0938003 0)
(0.0390631 0.101054 0)
(0.0459319 0.0830002 0)
(0.0516245 0.0393706 0)
(0.0790991 -0.0311714 0)
(0.103111 -0.103704 0)
(0.113287 -0.157016 0)
(0.112863 -0.186332 0)
(0.104583 -0.192432 0)
(0.0907912 -0.178776 0)
(0.0740954 -0.149769 0)
(0.0575016 -0.111563 0)
(0.0429719 -0.07091 0)
(0.0326169 -0.035696 0)
(0.0281008 -0.010757 0)
(0.0295012 0.000990923 0)
(0.0311371 -0.000280241 0)
(0.0296359 -0.00656856 0)
(0.0249844 -0.0126299 0)
(0.018865 -0.016369 0)
(0.0128395 -0.0177422 0)
(0.00803311 -0.0171039 0)
(0.0056719 -0.0151949 0)
(0.00601392 -0.0141007 0)
(0.00805309 -0.0139675 0)
(0.0110514 -0.0137417 0)
(0.0148466 -0.012361 0)
(0.0195245 -0.00873954 0)
(0.0256933 -0.00163551 0)
(0.0333029 0.00886891 0)
(0.0400694 0.0208902 0)
(0.0478782 0.03416 0)
(0.0558777 0.0479596 0)
(0.0754522 0.0644567 0)
(0.0882331 0.0697704 0)
(0.11967 0.0632092 0)
(0.163391 0.0513056 0)
(-0.0203525 0.0954881 0)
(0.92187 0.497288 0)
(-0.0766785 0.167419 0)
(0.110608 0.0261618 0)
(0.163738 0.0227931 0)
(0.1614 0.0155469 0)
(0.162866 -0.0293632 0)
(0.19649 -0.0804107 0)
(0.211273 -0.125543 0)
(0.205361 -0.158278 0)
(0.185093 -0.173983 0)
(0.155586 -0.171675 0)
(0.121086 -0.153974 0)
(0.0852905 -0.124274 0)
(0.0523633 -0.0880741 0)
(0.0244579 -0.0510593 0)
(0.00511326 -0.021929 0)
(-0.00463302 -0.00442866 0)
(-0.00655972 0.00175798 0)
(-0.00644055 0.000662985 0)
(-0.00764121 -0.00366308 0)
(-0.0109409 -0.00801289 0)
(-0.0154392 -0.011077 0)
(-0.0200736 -0.0128474 0)
(-0.0239379 -0.0136837 0)
(-0.0263199 -0.0141348 0)
(-0.0272116 -0.0148861 0)
(-0.0271756 -0.0158703 0)
(-0.0265938 -0.0165839 0)
(-0.0254664 -0.0164982 0)
(-0.023487 -0.0150359 0)
(-0.0198617 -0.0114654 0)
(-0.011709 -0.00490949 0)
(-9.38662e-05 0.0044592 0)
(0.0110863 0.0137604 0)
(0.0226899 0.0208654 0)
(0.0398998 0.0277363 0)
(0.0554301 0.0224378 0)
(0.0795691 0.00564802 0)
(0.146408 0.0479781 0)
(-0.428338 0.212666 0)
(1.06591 0.444166 0)
(0.518239 0.298302 0)
(0.529534 0.249859 0)
(0.518392 0.182906 0)
(0.469839 0.122439 0)
(0.433159 0.0601129 0)
(0.392048 -0.00742393 0)
(0.342844 -0.0669803 0)
(0.289085 -0.107862 0)
(0.232746 -0.126612 0)
(0.175364 -0.1251 0)
(0.118905 -0.108912 0)
(0.0654559 -0.0822843 0)
(0.0202344 -0.0512616 0)
(-0.0161038 -0.0208445 0)
(-0.0329488 -0.00607254 0)
(-0.0401268 0.00044142 0)
(-0.0416832 0.00220675 0)
(-0.0420616 0.00100784 0)
(-0.0432035 -0.00163952 0)
(-0.0458313 -0.00451698 0)
(-0.0494803 -0.00704465 0)
(-0.0535054 -0.00913458 0)
(-0.0573699 -0.0108632 0)
(-0.0608173 -0.0123652 0)
(-0.0640104 -0.0137468 0)
(-0.0673528 -0.0148454 0)
(-0.0712204 -0.0153017 0)
(-0.0759667 -0.0146314 0)
(-0.0820651 -0.0121813 0)
(-0.0902075 -0.00711441 0)
(-0.101118 0.0014284 0)
(-0.112752 0.0133221 0)
(-0.127984 0.028414 0)
(-0.152908 0.0467844 0)
(-0.190232 0.0673933 0)
(-0.241634 0.0862252 0)
(-0.297562 0.0999183 0)
(-0.371646 0.106912 0)
(-0.65067 0.106305 0)
(0.233924 0.0528322 0)
(0.30589 0.115962 0)
(0.321218 0.0913663 0)
(0.299643 0.0395761 0)
(0.275047 -0.0106044 0)
(0.244386 -0.0469408 0)
(0.203097 -0.0684137 0)
(0.154002 -0.0754157 0)
(0.100436 -0.0686989 0)
(0.0461622 -0.052916 0)
(-0.00863357 -0.0295124 0)
(-0.045136 -0.0114964 0)
(-0.0635939 -0.00313917 0)
(-0.0709246 -0.000757951 0)
(-0.0731603 -0.000284194 0)
(-0.0734784 -0.000982652 0)
(-0.0737802 -0.00258378 0)
(-0.0749184 -0.00467908 0)
(-0.0771332 -0.0067677 0)
(-0.0803885 -0.00854748 0)
(-0.0841844 -0.0100191 0)
(-0.0882913 -0.0111407 0)
(-0.0927205 -0.0119153 0)
(-0.0976256 -0.0123094 0)
(-0.103157 -0.0121328 0)
(-0.109348 -0.0110405 0)
(-0.116066 -0.00856331 0)
(-0.122967 -0.00415729 0)
(-0.129429 0.00273874 0)
(-0.134402 0.0123365 0)
(-0.13837 0.0256174 0)
(-0.141807 0.0431791 0)
(-0.146018 0.0642221 0)
(-0.151773 0.0850511 0)
(-0.155359 0.0955473 0)
(-0.141304 0.0734013 0)
(-0.110248 -0.0250083 0)
(-0.286611 -0.213741 0)
(0.120027 0.324336 0)
(0.00839062 0.203592 0)
(0.0392638 0.118448 0)
(0.0584767 0.0604332 0)
(0.0631236 0.0216227 0)
(0.0601092 -0.00478712 0)
(0.0401947 -0.0199129 0)
(0.00541413 -0.0189524 0)
(-0.0366012 -0.00171698 0)
(-0.0701192 0.01288 0)
(-0.0912302 0.0208817 0)
(-0.100244 0.0232647 0)
(-0.102468 0.0233924 0)
(-0.102413 0.023445 0)
(-0.101541 0.0241589 0)
(-0.100509 0.0252854 0)
(-0.099787 0.0264266 0)
(-0.0996597 0.0271767 0)
(-0.100185 0.0271117 0)
(-0.101326 0.0259068 0)
(-0.10312 0.0238735 0)
(-0.105496 0.0216294 0)
(-0.108388 0.01945 0)
(-0.111706 0.0174809 0)
(-0.115314 0.0158322 0)
(-0.118997 0.0146131 0)
(-0.122445 0.0139602 0)
(-0.125176 0.0140307 0)
(-0.126372 0.0155216 0)
(-0.124865 0.0198898 0)
(-0.119076 0.0282962 0)
(-0.107619 0.0417407 0)
(-0.090352 0.0602413 0)
(-0.0683173 0.0804254 0)
(-0.0434464 0.0948377 0)
(-0.00758456 0.085778 0)
(0.14694 0.00930494 0)
(-0.209929 -0.129684 0)
(-0.422119 -0.516031 0)
(-0.637319 -0.143275 0)
(-0.449399 0.177759 0)
(-0.357934 0.056078 0)
(-0.2139 -0.00554136 0)
(-0.145612 -0.0477908 0)
(-0.117169 -0.0705395 0)
(-0.112989 -0.0713627 0)
(-0.122348 -0.0626887 0)
(-0.134864 -0.0549773 0)
(-0.140348 -0.0505066 0)
(-0.138588 -0.0490671 0)
(-0.134127 -0.0499524 0)
(-0.128945 -0.0527748 0)
(-0.124483 -0.0563026 0)
(-0.121039 -0.0599462 0)
(-0.118239 -0.0635882 0)
(-0.115827 -0.0672848 0)
(-0.113759 -0.070886 0)
(-0.112109 -0.0739025 0)
(-0.11101 -0.0756827 0)
(-0.110623 -0.0757901 0)
(-0.111053 -0.0743576 0)
(-0.112259 -0.0719865 0)
(-0.11407 -0.0689147 0)
(-0.116261 -0.0652752 0)
(-0.118549 -0.0610877 0)
(-0.120566 -0.0562788 0)
(-0.121832 -0.0506323 0)
(-0.12171 -0.043802 0)
(-0.119187 -0.0358149 0)
(-0.112354 -0.0266901 0)
(-0.0984064 -0.0158835 0)
(-0.0748448 -0.00248667 0)
(-0.041551 0.0143641 0)
(0.009316 0.0362842 0)
(0.0618658 0.0423471 0)
(0.109598 0.0240443 0)
(0.172058 -0.015943 0)
(-0.19629 -0.0826847 0)
)
;

boundaryField
{
    floor
    {
        type            noSlip;
    }
    ceiling
    {
        type            noSlip;
    }
    sWall
    {
        type            noSlip;
    }
    nWall
    {
        type            noSlip;
    }
    sideWalls
    {
        type            empty;
    }
    glass1
    {
        type            noSlip;
    }
    glass2
    {
        type            noSlip;
    }
    sun
    {
        type            noSlip;
    }
    Table_master
    {
        type            noSlip;
    }
    Table_slave
    {
        type            noSlip;
    }
    inlet
    {
        type            fixedValue;
        value           uniform (0.46194 -0.191342 0);
    }
    outlet
    {
        type            zeroGradient;
    }
}


// ************************************************************************* //
