/*--------------------------------*- C++ -*----------------------------------*\
  =========                 |
  \\      /  F ield         | OpenFOAM: The Open Source CFD Toolbox
   \\    /   O peration     | Website:  https://openfoam.org
    \\  /    A nd           | Version:  6
     \\/     M anipulation  |
\*---------------------------------------------------------------------------*/
FoamFile
{
    version     2.0;
    format      ascii;
    class       volScalarField;
    location    "1210";
    object      k;
}
// * * * * * * * * * * * * * * * * * * * * * * * * * * * * * * * * * * * * * //

dimensions      [0 2 -2 0 0 0 0];

internalField   nonuniform List<scalar> 
458
(
0.0022679
0.0026862
0.00280901
0.00308422
0.00334908
0.0036099
0.00388061
0.00416546
0.0044058
0.00456021
0.00457772
0.00441291
0.00402209
0.00325456
0.00187345
0.000457627
0.000628887
0.000808355
0.000878867
0.000851586
0.000745741
0.00063682
0.000546645
0.000474098
0.000415275
0.000367095
0.000327374
0.000294053
0.00026526
0.000239321
0.000214617
0.000200572
0.000169416
0.00412319
0.00755202
0.00415067
0.00437467
0.00471661
0.00513597
0.00563314
0.00619753
0.00680158
0.00731401
0.00758931
0.00753185
0.00712439
0.00635504
0.0051387
0.00326433
0.00224682
0.00149567
0.000450295
0.000973152
0.00130331
0.00145843
0.00147281
0.00125945
0.00102441
0.00083407
0.000688785
0.000577358
0.00049069
0.000421531
0.000364712
0.000317449
0.000283517
0.000264389
0.000493859
0.000292751
0.00609531
0.0136488
0.00491192
0.00472559
0.00494229
0.00528685
0.00575178
0.00634193
0.00699507
0.00755178
0.00789377
0.007951
0.00769441
0.00706131
0.00603765
0.00488878
0.00391891
0.0020865
0.00106811
0.0013997
0.00160362
0.00173048
0.00172294
0.00134724
0.00103261
0.000802677
0.000637639
0.000518288
0.000430632
0.000365356
0.00031649
0.000280906
0.000262151
0.000265448
0.000780325
0.000408854
0.0083591
0.0222354
0.00592752
0.00470757
0.00474721
0.00501729
0.00547459
0.00616907
0.00689366
0.00746427
0.00783512
0.00795497
0.00774952
0.00714669
0.00628772
0.00543619
0.00463278
0.00350054
0.00276926
0.0025071
0.00237428
0.00233837
0.00228983
0.00215212
0.00170963
0.00143656
0.00126415
0.00114396
0.00104702
0.000954887
0.000871336
0.000787206
0.000694276
0.000530238
0.000422782
0.0011325
0.000542377
0.0110414
0.0339557
0.00842431
0.00475046
0.00448365
0.00470892
0.00530047
0.00635615
0.00718597
0.00774053
0.00809622
0.00819846
0.00790156
0.00718347
0.00621675
0.00530977
0.00458016
0.00397882
0.00379488
0.00347976
0.00325279
0.00307096
0.00285957
0.00259065
0.002303
0.00210689
0.00198683
0.00189212
0.00179006
0.00166131
0.00149204
0.00129925
0.00109396
0.000865737
0.000664797
0.000922204
0.00106383
0.000969422
0.00108637
0.00128348
0.0143258
0.0466865
0.0149503
0.00592396
0.00474326
0.00478413
0.00570868
0.00726817
0.00803288
0.00847532
0.00873974
0.00874884
0.00832136
0.00737971
0.00612528
0.00496671
0.00418412
0.00384205
0.00381436
0.00382339
0.00373222
0.00350915
0.00318968
0.0028353
0.0025482
0.00239568
0.002322
0.00226339
0.00218526
0.00206535
0.00187854
0.00164899
0.00140043
0.00114685
0.000935647
0.000900735
0.00103005
0.00105444
0.00165139
0.00138073
0.0179758
0.0550453
0.027077
0.0123618
0.00830999
0.00741401
0.00850692
0.00921118
0.00948714
0.00964676
0.0097309
0.00958475
0.00894822
0.00771019
0.00611082
0.00469938
0.00388738
0.00373636
0.00389867
0.00398311
0.003854
0.00355086
0.00317149
0.00281239
0.00256785
0.00246889
0.00245198
0.00245726
0.00245514
0.00242469
0.0023362
0.0021474
0.0019108
0.00165907
0.00145732
0.00136467
0.00145102
0.00168154
0.00223396
0.00194888
0.0189406
0.0568415
0.0383012
0.0271724
0.019744
0.0158835
0.0137273
0.01229
0.0115375
0.0112134
0.011011
0.0106111
0.00964752
0.00799556
0.00597476
0.00439286
0.0036777
0.00365568
0.00378016
0.00375054
0.00351722
0.0031705
0.00282054
0.00255094
0.00240838
0.00238397
0.00243151
0.0025176
0.00263035
0.0027672
0.00292549
0.00306709
0.00310942
0.00313904
0.00329218
0.00386916
0.00511947
0.0068157
0.0128314
0.00467708
0.0182041
0.0264659
0.024362
0.0217105
0.0188865
0.0164648
0.0146547
0.0135916
0.0130881
0.0127695
0.0123587
0.0115976
0.0100723
0.00776971
0.0051596
0.00385795
0.00340289
0.00330989
0.00325333
0.00309168
0.00282377
0.00252808
0.00228291
0.00213457
0.00208916
0.0021234
0.00220969
0.00233311
0.00249005
0.00268166
0.00290931
0.00317118
0.00348974
0.00390094
0.00444783
0.00509757
0.00569693
0.00606931
0.00624851
0.00408129
0.00718461
0.0110945
0.0135428
0.014774
0.0154387
0.0157098
0.0153796
0.0144544
0.0132151
0.0115874
0.00880984
0.00585871
0.0040362
0.00322555
0.00288146
0.00270037
0.00252806
0.00231823
0.00209096
0.00188815
0.00175207
0.00169312
0.00169786
0.00174768
0.00182976
0.00193923
0.00207748
0.00225113
0.00247287
0.00276576
0.00313122
0.003567
0.0040509
0.00449042
0.0047126
0.00457286
0.00410684
0.00264226
0.00805085
0.0194706
0.0216131
0.0215034
0.0207307
0.0184789
0.0153399
0.012016
0.00883388
0.0062361
0.00435119
0.00326393
0.00271615
0.00241225
0.00221047
0.00203242
0.00184768
0.00166475
0.00150909
0.00139881
0.0013381
0.00132615
0.00135491
0.00141869
0.00151587
0.00164788
0.00181797
0.00203047
0.00229591
0.00262433
0.00302437
0.00349683
0.00401537
0.00451214
0.00481678
0.00510141
0.00428744
0.00271138
0.00890516
0.00935062
0.00976453
0.0120866
0.0107988
0.00848022
0.00603566
0.00437039
0.00348235
0.00273182
0.00214605
0.00173654
0.00142359
0.00120709
0.00106713
0.000970331
0.000895816
0.000834079
0.000784764
0.000752335
0.000740413
0.000749352
0.000776199
0.000816525
0.000868939
0.000933161
0.00100988
0.00110077
0.00120884
0.00133956
0.00149647
0.00168145
0.00189884
0.00215361
0.00245037
0.00283123
0.00300661
0.00288474
0.00249571
0.00213483
)
;

boundaryField
{
    floor
    {
        type            kqRWallFunction;
        value           nonuniform List<scalar> 
36
(
0.00187345
0.000457627
0.000628887
0.000808355
0.000878867
0.000851586
0.000745741
0.00063682
0.000546645
0.000474098
0.000415275
0.000367095
0.000327374
0.000294053
0.00026526
0.000239321
0.000214617
0.000200572
0.000169416
0.000169416
0.000292751
0.000408854
0.000542377
0.000969422
0.00108637
0.00128348
0.00187345
0.00326433
0.00224682
0.00149567
0.000457627
0.00149567
0.000450295
0.0020865
0.00106811
0.00276926
)
;
    }
    ceiling
    {
        type            kqRWallFunction;
        value           nonuniform List<scalar> 
43
(
0.00890516
0.00935062
0.00976453
0.0120866
0.0107988
0.00848022
0.00603566
0.00437039
0.00348235
0.00273182
0.00214605
0.00173654
0.00142359
0.00120709
0.00106713
0.000970331
0.000895816
0.000834079
0.000784764
0.000752335
0.000740413
0.000749352
0.000776199
0.000816525
0.000868939
0.000933161
0.00100988
0.00110077
0.00120884
0.00133956
0.00149647
0.00168145
0.00189884
0.00215361
0.00245037
0.00283123
0.00300661
0.00288474
0.00249571
0.00213483
0.0182041
0.0264659
0.00805085
)
;
    }
    sWall
    {
        type            kqRWallFunction;
        value           uniform 0.00890516;
    }
    nWall
    {
        type            kqRWallFunction;
        value           nonuniform List<scalar> 6(0.00128348 0.00138073 0.00194888 0.00264226 0.00271138 0.00213483);
    }
    sideWalls
    {
        type            empty;
    }
    glass1
    {
        type            kqRWallFunction;
        value           nonuniform List<scalar> 9(0.0022679 0.00412319 0.00609531 0.0083591 0.0110414 0.0143258 0.0179758 0.0189406 0.0182041);
    }
    glass2
    {
        type            kqRWallFunction;
        value           nonuniform List<scalar> 2(0.00467708 0.00408129);
    }
    sun
    {
        type            kqRWallFunction;
        value           nonuniform List<scalar> 
14
(
0.0022679
0.0026862
0.00280901
0.00308422
0.00334908
0.0036099
0.00388061
0.00416546
0.0044058
0.00456021
0.00457772
0.00441291
0.00402209
0.00325456
)
;
    }
    Table_master
    {
        type            kqRWallFunction;
        value           nonuniform List<scalar> 9(0.00134724 0.00103261 0.000802677 0.000637639 0.000518288 0.000430632 0.000365356 0.00031649 0.000280906);
    }
    Table_slave
    {
        type            kqRWallFunction;
        value           nonuniform List<scalar> 9(0.00170963 0.00143656 0.00126415 0.00114396 0.00104702 0.000954887 0.000871336 0.000787206 0.000694276);
    }
    inlet
    {
        type            turbulentIntensityKineticEnergyInlet;
        intensity       0.05;
        value           uniform 0.000937501;
    }
    outlet
    {
        type            zeroGradient;
    }
}


// ************************************************************************* //
