/*--------------------------------*- C++ -*----------------------------------*\
  =========                 |
  \\      /  F ield         | OpenFOAM: The Open Source CFD Toolbox
   \\    /   O peration     | Website:  https://openfoam.org
    \\  /    A nd           | Version:  6
     \\/     M anipulation  |
\*---------------------------------------------------------------------------*/
FoamFile
{
    version     2.0;
    format      ascii;
    class       volScalarField;
    location    "14400";
    object      k;
}
// * * * * * * * * * * * * * * * * * * * * * * * * * * * * * * * * * * * * * //

dimensions      [0 2 -2 0 0 0 0];

internalField   nonuniform List<scalar> 
778
(
0.00158598
0.00180127
0.0017882
0.00194682
0.00209808
0.00224034
0.00237695
0.00251244
0.00265261
0.00280572
0.00295567
0.00310167
0.00324893
0.00341112
0.00358464
0.000792543
0.00162518
0.00165124
0.00157204
0.00144415
0.00128193
0.00113001
0.000998568
0.000887004
0.000792548
0.000712831
0.000644822
0.000585835
0.000533335
0.000484614
0.000436168
0.000397899
0.000326059
0.00340706
0.00643387
0.00268776
0.00274636
0.00288809
0.00305467
0.00323498
0.00343062
0.00364362
0.00387361
0.00412527
0.00437856
0.00459391
0.00469892
0.00459325
0.00429679
0.00390575
0.0035789
0.00253819
0.00281336
0.00295492
0.00289646
0.00266303
0.00226377
0.00190456
0.00160852
0.00136903
0.00117542
0.00101678
0.000885081
0.000773873
0.000681086
0.000615099
0.000574601
0.000864662
0.000524149
0.00549094
0.0127823
0.00347831
0.00321235
0.0032977
0.00345554
0.00363686
0.00384089
0.00407095
0.00432718
0.00463483
0.00500971
0.00544945
0.00595878
0.00653006
0.00685925
0.00627714
0.00538551
0.00403787
0.00416992
0.00417316
0.00397522
0.00357707
0.00266502
0.0020147
0.00157505
0.00126883
0.00104886
0.000886621
0.000764409
0.000671687
0.000603545
0.000551377
0.000548644
0.00116656
0.000678512
0.00797382
0.021761
0.00449178
0.00339094
0.00334169
0.00343823
0.00354952
0.00366886
0.00380887
0.00399085
0.00425833
0.00464729
0.0051697
0.00582364
0.00655355
0.00713422
0.00722837
0.0072461
0.00534143
0.00554701
0.00537477
0.00512508
0.00478668
0.00434794
0.0034558
0.00285886
0.00243555
0.00210924
0.00184973
0.00163126
0.00143793
0.001258
0.00107716
0.000800323
0.000659522
0.00142409
0.000822659
0.0108768
0.0336391
0.00621398
0.00342519
0.00315841
0.00316703
0.00318957
0.00320974
0.00325185
0.00336061
0.00359398
0.00398809
0.00455199
0.00527514
0.00608543
0.00681641
0.00728164
0.00764151
0.00751288
0.00665097
0.00607122
0.00557795
0.00509861
0.00462923
0.00412308
0.00366541
0.00327452
0.00293667
0.00263029
0.00234675
0.00207822
0.00181759
0.00155428
0.00122139
0.000929625
0.00119136
0.00121683
0.00117087
0.00207072
0.00189176
0.0141754
0.0476049
0.00928619
0.00349029
0.00290865
0.00282276
0.00276432
0.00269936
0.00266394
0.00273421
0.00298034
0.00341357
0.00402254
0.00479664
0.00565221
0.00645968
0.00706614
0.00740367
0.00731941
0.00678644
0.00621274
0.00563591
0.00507376
0.00455581
0.00409127
0.00369558
0.00336286
0.00307332
0.00280619
0.00255072
0.00229807
0.00204141
0.00177335
0.00147101
0.00117736
0.00111215
0.00111163
0.00172634
0.00515752
0.00269862
0.017993
0.0606122
0.0143641
0.00382001
0.00271532
0.00252939
0.00241168
0.00229379
0.00222073
0.00231135
0.00263021
0.00313928
0.00380195
0.00463151
0.00552828
0.0063659
0.00699906
0.00732524
0.00725114
0.0068153
0.00621361
0.00555395
0.00491158
0.0043427
0.00387251
0.00350048
0.00320674
0.00296178
0.00274114
0.00252857
0.00231271
0.00208643
0.00184481
0.00158264
0.00132592
0.00115815
0.00109221
0.00157636
0.00640657
0.00376675
0.0216423
0.0704862
0.0214421
0.00510324
0.0027429
0.00237176
0.00220994
0.00208158
0.00202588
0.00221918
0.00264982
0.00323147
0.00393837
0.00477642
0.00570133
0.00657531
0.00722403
0.0075128
0.00738243
0.00689471
0.0061976
0.0054271
0.00469199
0.00406493
0.00357482
0.00321287
0.00294806
0.00274145
0.00256447
0.00239566
0.00222146
0.00203452
0.0018314
0.00161229
0.00139465
0.00122518
0.00115639
0.0021854
0.0142577
0.00655404
0.0228335
0.0694887
0.0325412
0.011061
0.00406786
0.00258722
0.00223512
0.00210247
0.00218931
0.00251176
0.00300022
0.0036028
0.00433494
0.0052171
0.00619085
0.00709275
0.00772017
0.00792365
0.00766401
0.00702534
0.00616627
0.00525043
0.00440959
0.00372413
0.00321795
0.00287003
0.0026367
0.00247027
0.00233722
0.00221173
0.00207904
0.00193218
0.00176883
0.00159077
0.00141057
0.00127513
0.00135555
0.00441417
0.0288742
0.00855434
0.0219172
0.0516265
0.033645
0.0174367
0.0085879
0.00475801
0.00325976
0.00272871
0.00285168
0.00320946
0.00367159
0.00424729
0.00499934
0.00594605
0.0069841
0.00789656
0.00844717
0.00848557
0.00800367
0.0071248
0.00604442
0.00495859
0.0040161
0.00329446
0.00280073
0.00249106
0.00230454
0.00218666
0.00209842
0.00201309
0.00191724
0.0018053
0.00167605
0.00153189
0.00138383
0.00128746
0.00174449
0.011206
0.0239049
0.00876121
0.0192308
0.0394301
0.0302368
0.0195668
0.0121819
0.00793722
0.00571502
0.00466669
0.00435931
0.00439688
0.00465063
0.00514625
0.00594103
0.00699249
0.0081029
0.00897659
0.00934996
0.00909801
0.00827313
0.00706269
0.00571745
0.00446791
0.00346934
0.00277456
0.00235274
0.00211887
0.00199471
0.00192723
0.00187737
0.00182346
0.00175567
0.0016702
0.00156702
0.00145003
0.00133278
0.00129009
0.00202145
0.0106132
0.0230008
0.00881935
0.0159464
0.0315841
0.0266504
0.0195391
0.0139755
0.0102828
0.00802529
0.00674868
0.00604559
0.00572747
0.00578078
0.00627669
0.00721908
0.00843424
0.00958518
0.0102968
0.010316
0.00959246
0.00828462
0.00666833
0.00506476
0.00373139
0.00280061
0.00224018
0.00195977
0.00182001
0.0017514
0.00171779
0.00169037
0.00165501
0.00160499
0.00153739
0.00145391
0.00136233
0.0012822
0.00131864
0.00227401
0.00928292
0.0213879
0.00971965
0.013265
0.0256796
0.0233564
0.0186926
0.0145848
0.0115883
0.00954285
0.00820803
0.00729768
0.00683778
0.00695819
0.00772621
0.00899423
0.0103867
0.0114257
0.0117152
0.0111036
0.00968576
0.00778298
0.00576534
0.00403937
0.00284263
0.00219818
0.00186518
0.00170254
0.00162302
0.00158344
0.00156204
0.00154044
0.00150987
0.00146619
0.00140902
0.00134298
0.00128182
0.00127691
0.001574
0.00300153
0.00955706
0.0191215
0.0104418
0.0133551
0.0224294
0.022068
0.0177657
0.014396
0.0118963
0.010085
0.00876889
0.00791715
0.00777364
0.00847701
0.00988206
0.0115491
0.0128968
0.0134168
0.0128384
0.0112564
0.00896212
0.00651439
0.00430683
0.00295929
0.00221746
0.00184754
0.00166404
0.00157034
0.0015187
0.00148615
0.0014608
0.00143247
0.00139576
0.00134897
0.00129538
0.0012503
0.00126906
0.00154018
0.00247508
0.00472105
0.0102229
0.0194184
0.00950973
0.0108788
0.0117686
0.0129257
0.0125537
0.0113752
0.0100753
0.0089472
0.00820284
0.00830071
0.00941593
0.0113012
0.0133829
0.0149805
0.0155489
0.0148312
0.0128453
0.0101034
0.00699124
0.00461327
0.00311071
0.00232059
0.00193274
0.00173898
0.00163155
0.00156363
0.0015141
0.00147225
0.00143212
0.00139023
0.00134449
0.00129604
0.0012554
0.00125889
0.00141799
0.00201165
0.00350453
0.00641674
0.0110758
0.0161473
0.0084429
0.00354012
0.00481766
0.00598796
0.00659444
0.00727445
0.00878679
0.0113028
0.0141402
0.0165709
0.0180172
0.0181037
0.0167497
0.014182
0.0105508
0.00724638
0.00476586
0.00326974
0.00250539
0.0021482
0.00197007
0.00186379
0.00178685
0.00172357
0.00166785
0.00161742
0.00157195
0.00153179
0.00150421
0.00148807
0.00149337
0.00155749
0.00178698
0.00242765
0.00391346
0.00674859
0.011241
0.0168077
0.00795609
0.00444633
0.00628179
0.00809673
0.0110059
0.0146765
0.0181367
0.0203809
0.0214565
0.0213953
0.020176
0.0176159
0.0140978
0.0103926
0.00707723
0.00474923
0.00342155
0.0027942
0.00252153
0.00239354
0.00231864
0.00226404
0.00221951
0.00218399
0.00216059
0.00215361
0.00216538
0.00219345
0.00222844
0.0022731
0.00233749
0.00244433
0.00267694
0.00321318
0.00439314
0.0067999
0.0113628
0.0174616
0.00938841
0.0150765
0.0245457
0.018135
0.0143862
0.0169809
0.0206648
0.0227846
0.0234848
0.0230405
0.0216994
0.0196934
0.0170286
0.0138038
0.0103975
0.00737864
0.00523229
0.00405697
0.00354365
0.00335159
0.00328335
0.00325389
0.0032291
0.00319797
0.00316263
0.00313308
0.00312213
0.00314087
0.00319645
0.00329219
0.00342818
0.00359947
0.00380038
0.00405946
0.00447743
0.00516281
0.00636333
0.00868044
0.0146333
0.0178948
0.0102922
0.0138067
0.0170622
0.0178241
0.0207353
0.0216662
0.0220838
0.0210895
0.0192819
0.0171703
0.0150017
0.0128697
0.0108096
0.00884362
0.00708212
0.00567923
0.00477773
0.00431211
0.00412328
0.0040868
0.00412806
0.00420106
0.00427677
0.00434015
0.00438929
0.00443297
0.00448651
0.00456772
0.00469513
0.00488919
0.00517462
0.00558123
0.00613955
0.00686654
0.00775196
0.0088788
0.0104088
0.0127304
0.0173392
0.0202549
0.0110019
0.0121346
0.00891544
0.00883093
0.00936093
0.00981588
0.00926385
0.00821702
0.00706803
0.00599391
0.00503883
0.00419911
0.00347637
0.00289817
0.00250223
0.0022954
0.00221509
0.00221174
0.0022489
0.00230519
0.00236879
0.0024333
0.00249601
0.00255732
0.0026204
0.00269085
0.00277656
0.00288805
0.00303944
0.00324905
0.00353751
0.00392209
0.00440953
0.00499428
0.00566867
0.00644491
0.00732411
0.0082822
0.00935025
0.0104693
0.00940349
)
;

boundaryField
{
    floor
    {
        type            kqRWallFunction;
        value           nonuniform List<scalar> 
36
(
0.00358464
0.000792543
0.00162518
0.00165124
0.00157204
0.00144415
0.00128193
0.00113001
0.000998568
0.000887004
0.000792548
0.000712831
0.000644822
0.000585835
0.000533335
0.000484614
0.000436168
0.000397899
0.000326059
0.000326059
0.000524149
0.000678512
0.000822659
0.00117087
0.00207072
0.00189176
0.00358464
0.00429679
0.00390575
0.0035789
0.000792543
0.0035789
0.00253819
0.00538551
0.00403787
0.00534143
)
;
    }
    ceiling
    {
        type            kqRWallFunction;
        value           nonuniform List<scalar> 
43
(
0.0121346
0.00891544
0.00883093
0.00936093
0.00981588
0.00926385
0.00821702
0.00706803
0.00599391
0.00503883
0.00419911
0.00347637
0.00289817
0.00250223
0.0022954
0.00221509
0.00221174
0.0022489
0.00230519
0.00236879
0.0024333
0.00249601
0.00255732
0.0026204
0.00269085
0.00277656
0.00288805
0.00303944
0.00324905
0.00353751
0.00392209
0.00440953
0.00499428
0.00566867
0.00644491
0.00732411
0.0082822
0.00935025
0.0104693
0.00940349
0.0108788
0.0117686
0.00444633
)
;
    }
    sWall
    {
        type            kqRWallFunction;
        value           nonuniform List<scalar> 9(0.0219172 0.0192308 0.0159464 0.013265 0.0133551 0.0108788 0.0150765 0.0138067 0.0121346);
    }
    nWall
    {
        type            kqRWallFunction;
        value           nonuniform List<scalar> 
14
(
0.00189176
0.00269862
0.00376675
0.00876121
0.00881935
0.00971965
0.0104418
0.00950973
0.0084429
0.00795609
0.00938841
0.0102922
0.0110019
0.00940349
)
;
    }
    sideWalls
    {
        type            empty;
    }
    glass1
    {
        type            kqRWallFunction;
        value           nonuniform List<scalar> 9(0.00158598 0.00340706 0.00549094 0.00797382 0.0108768 0.0141754 0.017993 0.0216423 0.0228335);
    }
    glass2
    {
        type            kqRWallFunction;
        value           nonuniform List<scalar> 2(0.00655404 0.00855434);
    }
    sun
    {
        type            kqRWallFunction;
        value           nonuniform List<scalar> 
14
(
0.00158598
0.00180127
0.0017882
0.00194682
0.00209808
0.00224034
0.00237695
0.00251244
0.00265261
0.00280572
0.00295567
0.00310167
0.00324893
0.00341112
)
;
    }
    Table_master
    {
        type            kqRWallFunction;
        value           nonuniform List<scalar> 9(0.00266502 0.0020147 0.00157505 0.00126883 0.00104886 0.000886621 0.000764409 0.000671687 0.000603545);
    }
    Table_slave
    {
        type            kqRWallFunction;
        value           nonuniform List<scalar> 9(0.0034558 0.00285886 0.00243555 0.00210924 0.00184973 0.00163126 0.00143793 0.001258 0.00107716);
    }
    inlet
    {
        type            turbulentIntensityKineticEnergyInlet;
        intensity       0.05;
        value           uniform 0.0009375;
    }
    outlet
    {
        type            zeroGradient;
    }
}


// ************************************************************************* //
