/*--------------------------------*- C++ -*----------------------------------*\
  =========                 |
  \\      /  F ield         | OpenFOAM: The Open Source CFD Toolbox
   \\    /   O peration     | Website:  https://openfoam.org
    \\  /    A nd           | Version:  6
     \\/     M anipulation  |
\*---------------------------------------------------------------------------*/
FoamFile
{
    version     2.0;
    format      ascii;
    class       volScalarField;
    location    "27799.9999984838323";
    object      alphat;
}
// * * * * * * * * * * * * * * * * * * * * * * * * * * * * * * * * * * * * * //

dimensions      [1 -1 -1 0 0 0 0];

internalField   nonuniform List<scalar> 
778
(
0.00104099
0.00111056
0.00110659
0.00115465
0.0011987
0.0012387
0.00127593
0.00131182
0.00134795
0.00138634
0.00142293
0.00145769
0.00149194
0.00152877
0.00156721
0.00073677
0.00105533
0.0010638
0.00103798
0.000994864
0.000937335
0.000880044
0.000827267
0.000779666
0.000736966
0.000698907
0.00066472
0.000633578
0.000604515
0.000576233
0.000546663
0.000522121
0.000472596
0.00152465
0.00300733
0.0026393
0.00304635
0.0033418
0.00365506
0.00396754
0.0042555
0.00448725
0.00462209
0.00470136
0.00466866
0.00443581
0.00385908
0.00281856
0.00171595
0.00163608
0.00156613
0.00131889
0.00224633
0.00311305
0.00362458
0.00364817
0.00287953
0.00246263
0.00217361
0.00195437
0.00178009
0.00163145
0.00149999
0.00137762
0.0012579
0.00115045
0.00105778
0.00119178
0.000599199
0.00193412
0.00419882
0.0031135
0.00445319
0.00497591
0.00541831
0.00582011
0.0061737
0.00647317
0.00670783
0.00693527
0.00717459
0.00739454
0.0075256
0.00743916
0.00681207
0.00498297
0.00192125
0.00166382
0.00355964
0.00496741
0.00563276
0.00512226
0.00135152
0.00117509
0.00103901
0.000932579
0.000847915
0.000779598
0.00072388
0.000678556
0.00064321
0.000707195
0.000831969
0.00131814
0.000681719
0.00232906
0.00565841
0.00297923
0.00500689
0.00578049
0.00619443
0.00649877
0.00672388
0.00689183
0.00702788
0.00722151
0.00754875
0.00802636
0.00862726
0.00923192
0.00953095
0.00895216
0.00668346
0.00191363
0.00442906
0.00659261
0.00769235
0.0079634
0.00679812
0.00153918
0.0013999
0.00129208
0.00120241
0.00112602
0.00105744
0.000992803
0.000928609
0.000859261
0.000802796
0.000832385
0.00142796
0.000750569
0.00271831
0.00749047
0.00300564
0.00475957
0.0059488
0.00630152
0.00642941
0.00643414
0.00637005
0.00631332
0.00639432
0.00671212
0.00729542
0.00812188
0.00908116
0.00996589
0.010528
0.0105228
0.00944452
0.00961026
0.00983212
0.00986403
0.0096636
0.00904476
0.00719768
0.00621697
0.00554522
0.00499952
0.00446429
0.00394585
0.00343867
0.00293228
0.00241224
0.00185276
0.00141352
0.00141333
0.00111785
0.000895504
0.00119256
0.00113757
0.00310125
0.00954066
0.00353834
0.00401357
0.00569951
0.00609066
0.00605891
0.0058404
0.00552831
0.00527104
0.00526525
0.00559806
0.00626234
0.00722018
0.00834207
0.00946425
0.0104194
0.0110306
0.011143
0.0110324
0.0108379
0.010561
0.0102043
0.00974991
0.00908688
0.00844814
0.00786825
0.00730767
0.00670234
0.00605604
0.00536593
0.00462624
0.00383237
0.00299004
0.00222686
0.00167187
0.00129825
0.00146527
0.00256103
0.0013579
0.00349202
0.0114359
0.00471499
0.003288
0.00512118
0.00576097
0.00568924
0.00533572
0.00482336
0.00437302
0.00436016
0.00478035
0.00554047
0.00661103
0.00782967
0.0090372
0.0100772
0.0108227
0.0111664
0.0111413
0.0108976
0.0105277
0.0101035
0.00968001
0.00927027
0.00889425
0.00854096
0.00816371
0.00770791
0.00715942
0.00651034
0.00575774
0.00490462
0.00397231
0.00305979
0.00220918
0.00162647
0.00146008
0.00261106
0.00160564
0.00382778
0.0128686
0.00642774
0.00313054
0.00405697
0.00510762
0.00525328
0.00496245
0.00435762
0.00374468
0.00388365
0.00443946
0.00528976
0.00639297
0.00765904
0.00892296
0.0100014
0.010751
0.011092
0.0110486
0.0107335
0.010268
0.00976706
0.00932252
0.00897975
0.00873487
0.00854381
0.00833586
0.00804614
0.00764071
0.0071039
0.00643276
0.00563387
0.00473034
0.00378874
0.00283383
0.00197231
0.00133516
0.00382174
0.00212336
0.00392897
0.012173
0.00795056
0.00404681
0.00274939
0.00337039
0.0039446
0.00399236
0.00352493
0.0034254
0.00378109
0.0044348
0.00535491
0.00652595
0.00785377
0.00915673
0.0102306
0.010921
0.0111633
0.0109967
0.0105391
0.00993886
0.00934321
0.00886781
0.00856604
0.00841807
0.00835112
0.00827136
0.00810471
0.00781172
0.00737692
0.00679896
0.00608535
0.00525435
0.00433943
0.00330678
0.00188546
0.00172438
0.00602401
0.00241183
0.00384946
0.00981042
0.00820755
0.00555299
0.0036674
0.00283945
0.00268993
0.00281712
0.00305325
0.00342961
0.00396431
0.00470077
0.00570309
0.00696774
0.00836938
0.00969088
0.0107072
0.0112649
0.0113209
0.0109436
0.0102817
0.00952064
0.00884125
0.00837553
0.00816216
0.00813777
0.00818475
0.00818435
0.0080766
0.00783946
0.00746578
0.00695547
0.00631256
0.00554143
0.00462072
0.0033029
0.00141996
0.00325548
0.00560824
0.00244707
0.00360578
0.00838389
0.0079337
0.00635265
0.00488945
0.00393607
0.00346444
0.00335769
0.00355283
0.00391263
0.00443624
0.0052153
0.00632488
0.00771433
0.00918903
0.0104819
0.0113547
0.0116743
0.0114396
0.0107672
0.00985802
0.00894852
0.00825675
0.00790911
0.00786961
0.00798541
0.00810211
0.00810442
0.00799072
0.00776131
0.00741213
0.00693851
0.00633232
0.00556693
0.0045424
0.00300979
0.00154843
0.00343988
0.00615573
0.00246963
0.00328312
0.0075593
0.00765237
0.00672323
0.00571994
0.00496417
0.00451886
0.004359
0.00439903
0.00461694
0.00509924
0.00597233
0.00725885
0.00880102
0.0103079
0.0114682
0.0120571
0.0119952
0.011352
0.0103163
0.00916619
0.00820454
0.00765771
0.00754897
0.00764885
0.00780468
0.00790558
0.00787662
0.00774377
0.00751112
0.00717218
0.00671004
0.00608376
0.00520317
0.00390246
0.00238418
0.00181981
0.00371918
0.00632721
0.00261277
0.00299367
0.00676273
0.00730709
0.00686811
0.00622432
0.00568315
0.00532294
0.00514684
0.00509515
0.0052825
0.00589697
0.00704134
0.00860204
0.0102736
0.0116805
0.0125127
0.0126136
0.0120013
0.0108526
0.00945254
0.00818763
0.00737237
0.00701394
0.00697919
0.00709774
0.00724576
0.00733259
0.0073008
0.00716249
0.0069236
0.00657324
0.00607198
0.00530863
0.00409789
0.0026003
0.00184913
0.0022778
0.00431458
0.00645068
0.00265657
0.00300413
0.00671305
0.00746594
0.0069507
0.0064296
0.00600271
0.00569485
0.00549602
0.00548974
0.00594435
0.00703013
0.00865495
0.0104878
0.0121007
0.0131167
0.0133189
0.0126933
0.0113939
0.00975229
0.00816153
0.0070041
0.00632326
0.00601751
0.00596975
0.006064
0.00619075
0.00626176
0.00622385
0.00606512
0.00579914
0.00540989
0.00482728
0.00389873
0.0026594
0.00185679
0.00200636
0.00290505
0.00451808
0.00607693
0.00248742
0.00271006
0.0028206
0.00416498
0.00489666
0.00512404
0.00512912
0.00508143
0.00517872
0.00581039
0.0071589
0.00906144
0.0111178
0.012874
0.0139496
0.0141238
0.0133617
0.0118567
0.00990453
0.00804397
0.00658454
0.00560953
0.00506488
0.00483684
0.00479366
0.00483076
0.00486692
0.00484203
0.00472799
0.00450306
0.00420146
0.00382983
0.00336059
0.00274576
0.00211107
0.00189318
0.00234845
0.00333509
0.00451478
0.00514728
0.00234421
0.000963532
0.00173662
0.00266495
0.0034116
0.00428002
0.00574904
0.00791207
0.0103175
0.012512
0.0141534
0.0150039
0.0149066
0.0138677
0.0120061
0.00980186
0.00772168
0.00607615
0.00498607
0.00440229
0.00413502
0.00401971
0.00396086
0.00390228
0.00380632
0.00365481
0.00345502
0.00323361
0.00301366
0.00281606
0.00263489
0.00245181
0.00228495
0.0022861
0.00270552
0.00361496
0.00478545
0.0058871
0.00233976
0.00178745
0.00247024
0.00359527
0.00560274
0.00832158
0.011043
0.0131459
0.0146668
0.0155929
0.015854
0.0153222
0.0138709
0.0117241
0.00929914
0.00707944
0.00542948
0.00447556
0.00403332
0.00385046
0.00377471
0.00373388
0.00369011
0.00362151
0.00352076
0.00339712
0.0032718
0.00316521
0.00308642
0.00303531
0.00300426
0.00299008
0.00300983
0.00312181
0.0034549
0.00420944
0.00565144
0.00646337
0.00254495
0.0032379
0.00787444
0.00727036
0.00650073
0.00824252
0.0109659
0.0132564
0.0148014
0.0156205
0.0158286
0.0155224
0.0146425
0.0131231
0.0110055
0.00859276
0.00642683
0.00498364
0.00427059
0.00399133
0.00390749
0.00390249
0.00392083
0.00393174
0.00391883
0.00387917
0.00382155
0.00376083
0.00371047
0.00367828
0.00366739
0.0036794
0.00372113
0.00380605
0.00395309
0.00420688
0.00465373
0.00545947
0.00723282
0.0073595
0.00263891
0.00309501
0.00598149
0.00772243
0.00988652
0.0109696
0.012079
0.0127193
0.0128684
0.0126204
0.0120395
0.0111435
0.00992635
0.00842185
0.0068014
0.00535833
0.00437575
0.00385319
0.00363093
0.00357606
0.00361223
0.00369256
0.00378299
0.00385904
0.00390771
0.00392836
0.00392928
0.00392112
0.00391167
0.003906
0.00391164
0.00394452
0.00403057
0.00420218
0.00448682
0.00491301
0.00548482
0.00625971
0.00760609
0.00778222
0.00272076
0.00289489
0.00248122
0.00246896
0.0025412
0.00260086
0.00252375
0.0023745
0.00220109
0.00202716
0.00186016
0.00170053
0.00154979
0.00141619
0.00131434
0.0012563
0.00123194
0.0012294
0.00123918
0.00125514
0.00127363
0.00129253
0.00131078
0.00132812
0.00134503
0.00136256
0.00138223
0.00140588
0.00143583
0.00147513
0.00152764
0.00159738
0.0016869
0.00179564
0.00191994
0.00205602
0.00220407
0.00236007
0.00252373
0.00268363
0.0025259
)
;

boundaryField
{
    floor
    {
        type            compressible::alphatWallFunction;
        Prt             0.85;
        value           nonuniform List<scalar> 
36
(
0.000219867
0.000104475
0.00014993
0.000151114
0.0001475
0.000141441
0.000133308
0.000125151
0.000117582
0.000110705
0.000104494
9.89219e-05
9.38852e-05
8.92699e-05
8.49376e-05
8.06973e-05
7.62363e-05
7.25115e-05
6.49278e-05
6.4927e-05
8.41432e-05
9.6394e-05
0.000106477
0.00012736
0.000169005
0.000161394
0.000219865
0.000239665
0.000229056
0.000219718
0.000104474
0.000219716
0.000186321
0.000266681
0.000232738
0.000265686
)
;
    }
    ceiling
    {
        type            compressible::alphatWallFunction;
        Prt             0.85;
        value           nonuniform List<scalar> 
43
(
0.000391198
0.000338973
0.000337418
0.000346611
0.000354191
0.00034444
0.000325443
0.000303199
0.000280697
0.000258892
0.000237851
0.00021778
0.000199802
0.000185955
0.000177996
0.000174637
0.000174278
0.000175618
0.00017781
0.000180352
0.000182949
0.000185453
0.000187828
0.000190138
0.000192524
0.00019519
0.000198381
0.000202404
0.00020766
0.000214653
0.000223906
0.000235749
0.000250087
0.000266415
0.00028419
0.000303379
0.000323491
0.00034445
0.000364803
0.000344749
0.000368292
0.000382188
0.000248625
)
;
    }
    sWall
    {
        type            compressible::alphatWallFunction;
        Prt             0.85;
        value           nonuniform List<scalar> 9(0.000507603 0.000477877 0.0004382 0.000402271 0.000403565 0.000366717 0.00043197 0.000414305 0.000389447);
    }
    nWall
    {
        type            compressible::alphatWallFunction;
        Prt             0.85;
        value           nonuniform List<scalar> 
14
(
0.000160946
0.000191172
0.000224516
0.000334083
0.000337032
0.000355238
0.000360376
0.000338828
0.000320629
0.000320552
0.000346519
0.000358364
0.000368658
0.000344054
)
;
    }
    sideWalls
    {
        type            empty;
    }
    glass1
    {
        type            compressible::alphatWallFunction;
        Prt             0.85;
        value           nonuniform List<scalar> 9(0.000143927 0.000209133 0.000262688 0.000313295 0.000362366 0.000409987 0.000457998 0.000498857 0.000511219);
    }
    glass2
    {
        type            compressible::alphatWallFunction;
        Prt             0.85;
        value           nonuniform List<scalar> 2(0.000290287 0.000327174);
    }
    sun
    {
        type            compressible::alphatWallFunction;
        Prt             0.85;
        value           nonuniform List<scalar> 
14
(
0.000147961
0.000157649
0.000157095
0.000163767
0.000169852
0.000175357
0.000180464
0.00018537
0.000190293
0.000195508
0.000200464
0.000205158
0.00020977
0.000214718
)
;
    }
    Table_master
    {
        type            compressible::alphatWallFunction;
        Prt             0.85;
        value           nonuniform List<scalar> 9(0.000191033 0.000166841 0.000147898 0.000132882 0.000120793 0.000110934 0.000102817 9.61578e-05 9.09274e-05);
    }
    Table_slave
    {
        type            compressible::alphatWallFunction;
        Prt             0.85;
        value           nonuniform List<scalar> 9(0.000216381 0.000197607 0.00018293 0.000170617 0.000160045 0.000150484 0.000141406 0.000132321 0.000122424);
    }
    inlet
    {
        type            fixedValue;
        value           uniform 1.94e-05;
    }
    outlet
    {
        type            zeroGradient;
    }
}


// ************************************************************************* //
