/*--------------------------------*- C++ -*----------------------------------*\
  =========                 |
  \\      /  F ield         | OpenFOAM: The Open Source CFD Toolbox
   \\    /   O peration     | Website:  https://openfoam.org
    \\  /    A nd           | Version:  6
     \\/     M anipulation  |
\*---------------------------------------------------------------------------*/
FoamFile
{
    version     2.0;
    format      ascii;
    class       surfaceScalarField;
    location    "27799.9999984838323";
    object      phi;
}
// * * * * * * * * * * * * * * * * * * * * * * * * * * * * * * * * * * * * * //

dimensions      [1 0 -1 0 0 0 0];

internalField   nonuniform List<scalar> 
1482
(
-0.00279972
0.00286375
-0.00348386
0.000684143
-0.00414451
0.000660643
-0.00475852
0.000614011
-0.00527976
0.000521246
-0.00569148
0.000411719
-0.00598245
0.000290963
-0.00613961
0.000157166
-0.00614568
6.06913e-06
-0.00597471
-0.000170974
-0.0055968
-0.000377913
-0.00498096
-0.000615838
-0.00405705
-0.000923912
-0.00257887
-0.00147818
-0.00257595
-6.31581e-05
6.8013e-05
0.0007813
-0.000844459
0.00143429
-0.000652992
0.00183402
-0.000399723
0.00205585
-0.000221836
0.00216032
-0.000104469
0.0022078
-4.74787e-05
0.00223081
-2.3012e-05
0.00224071
-9.90265e-06
0.00224167
-9.51733e-07
0.00223458
7.08677e-06
0.0022155
1.90772e-05
0.00217115
4.43512e-05
0.00206831
0.000102843
0.0018515
0.000216808
0.00149379
0.000357706
0.00102206
0.000471732
0.0010285
-0.00204031
0.00507439
-0.00290835
0.00155218
-0.00369414
0.00144643
-0.00434511
0.00126498
-0.00488225
0.00105839
-0.00531083
0.000840299
-0.00562906
0.000609192
-0.00583015
0.000358252
-0.00590344
7.93637e-05
-0.00584116
-0.000233255
-0.00563752
-0.000581552
-0.00528122
-0.000972131
-0.00477111
-0.00143403
-0.00428514
-0.00196414
-0.00470068
-0.00216041
-0.00311514
-0.00158009
-0.00163294
-0.00147652
-0.00161809
0.00131862
-0.00124039
0.00166351
-0.00118936
0.00191551
-0.000904992
0.00210685
-0.000591056
0.0022143
-0.000329286
0.00222314
-0.000113309
0.00222506
-4.94034e-05
0.00222668
-2.46324e-05
0.00222768
-1.0905e-05
0.00222774
-1.00578e-06
0.0022264
8.42542e-06
0.0022222
2.32788e-05
0.00220954
5.70076e-05
0.00214755
0.00016483
0.00189768
0.000466679
0.00146784
0.000787545
0.000904005
0.00103557
0.00194939
-0.00148818
0.00682049
-0.00235895
0.00242295
-0.00312885
0.00221633
-0.00371299
0.00184912
-0.00418353
0.00152893
-0.0045548
0.00121157
-0.0048286
0.000882989
-0.00500169
0.000531342
-0.00506769
0.000145366
-0.00501756
-0.000283384
-0.00484059
-0.000758524
-0.00452935
-0.00128336
-0.00411467
-0.00184871
-0.00371717
-0.00236164
-0.00329683
-0.00258075
-0.00236588
-0.00251104
-0.00127268
-0.00256972
-0.00287793
0.00115094
-0.00237688
0.00165478
-0.00169319
0.00195336
-0.00120357
0.00214636
-0.00078405
0.00217687
-0.0003598
0.00206371
0.00201446
0.00198999
0.00197924
0.00197838
0.00198696
0.0020104
0.00206756
0.00223254
0.00187378
0.000825443
0.00142521
0.00123611
0.000805427
0.00165536
0.00278085
-0.00110597
0.00825767
-0.00192774
0.00324472
-0.00256964
0.00285823
-0.00302986
0.00230934
-0.00339728
0.00189634
-0.00368591
0.00150021
-0.00389876
0.00109583
-0.00403396
0.000666547
-0.00408401
0.000195416
-0.00403573
-0.00033166
-0.00387687
-0.000917388
-0.0036033
-0.00155693
-0.0032376
-0.00221441
-0.00281558
-0.00278366
-0.00227614
-0.0031202
-0.00155652
-0.00323066
-0.000868233
-0.003258
-0.000687454
-0.00305871
0.00144871
-0.00212071
0.00137869
-0.00230687
0.00169349
-0.00200799
0.00200568
-0.00151577
0.00227173
-0.0010501
0.00254742
-0.000635482
0.00286168
-0.000314421
0.00302933
-0.000167803
0.00309484
-6.56648e-05
0.0030787
1.59858e-05
0.00298961
8.89406e-05
0.0028284
0.000161056
0.00258707
0.000241177
0.00224252
0.000344394
0.00173736
0.000505007
0.00160023
0.000962572
0.0012719
0.00156444
0.000744524
0.00218273
0.00355967
-0.000803672
0.00945453
-0.00157967
0.00402072
-0.00204812
0.00332669
-0.00236367
0.00262489
-0.00260791
0.00214058
-0.00279333
0.00168563
-0.00292492
0.00122742
-0.00300338
0.000745006
-0.00302214
0.000214175
-0.00296457
-0.000389228
-0.00281742
-0.00106454
-0.0025737
-0.00180065
-0.00223997
-0.00254814
-0.00182337
-0.00320026
-0.00131791
-0.00362566
-0.000741279
-0.00380729
-0.000209876
-0.0037894
0.000267468
-0.00353605
0.00112801
-0.00298125
0.00149283
-0.00267168
0.00175071
-0.00226587
0.00200252
-0.00176757
0.00223203
-0.00127962
0.00244617
-0.000849622
0.00264765
-0.000515895
0.00275853
-0.000278686
0.00279586
-0.000102992
0.00277125
4.05898e-05
0.00269099
0.000169201
0.00255742
0.000294632
0.00236918
0.000429417
0.00212377
0.000589805
0.00182924
0.000799528
0.00162301
0.0011688
0.00148139
0.00170607
0.00130253
0.00236159
0.00229412
0.00256808
0.00133913
0.000989893
0.00191473
-0.00054711
0.0020331
-0.000575762
0.0104767
-0.00132452
0.00476948
-0.00158385
0.00358602
-0.00174957
0.00279061
-0.00186344
0.00225445
-0.00193488
0.00175707
-0.00197033
0.00126288
-0.00197408
0.00074875
-0.00194289
0.000182995
-0.00185499
-0.000477131
-0.00170049
-0.00121904
-0.00146937
-0.00203178
-0.00116451
-0.002853
-0.000791815
-0.00357296
-0.000371657
-0.00404582
6.89037e-05
-0.00424786
0.000474197
-0.0041947
0.000848444
-0.0039103
0.00129877
-0.00343158
0.00159657
-0.00296949
0.00179882
-0.00246812
0.00196951
-0.00193826
0.00212078
-0.00143089
0.00225528
-0.00098412
0.00236062
-0.000621236
0.00241975
-0.000337809
0.00243217
-0.000115416
0.00240299
6.97755e-05
0.00233683
0.000235363
0.00223729
0.000394168
0.00210819
0.000558513
0.00195636
0.000741643
0.00179612
0.000959767
0.00170394
0.00126098
0.00175979
0.00165021
0.00197108
0.0021503
0.00221747
0.00232169
0.00173839
0.00146897
0.000809084
0.000382199
0.0029394
-0.000543427
0.0115123
-0.00124346
0.00546951
-0.00119137
0.00353393
-0.00119948
0.00279871
-0.00119172
0.00224669
-0.00115825
0.0017236
-0.00110123
0.00120585
-0.00102635
0.00067388
-0.000928184
8.48237e-05
-0.000779475
-0.000625839
-0.000590296
-0.00140821
-0.00034995
-0.00227212
-6.55517e-05
-0.0031374
0.000240024
-0.00387853
0.000550679
-0.00435648
0.000846301
-0.00454348
0.00110944
-0.00445784
0.00134256
-0.00414343
0.00157362
-0.00366263
0.00173223
-0.0031281
0.00183101
-0.0025669
0.00190012
-0.00200737
0.0019554
-0.00148616
0.00200206
-0.00103078
0.00203489
-0.000654062
0.00204813
-0.000351046
0.00203826
-0.000105547
0.00200587
0.000102162
0.00195382
0.000287415
0.00188558
0.00046241
0.00180596
0.000638134
0.00172303
0.000824572
0.00165138
0.00103141
0.00163417
0.0012782
0.001717
0.00156738
0.00192416
0.00194314
0.00218164
0.00206421
0.00221229
0.00143831
0.00163297
0.00096152
0.00467468
-0.000483657
0.0125315
-0.00105137
0.00603722
-0.000696854
0.00317942
-0.000635724
0.00273758
-0.000567219
0.00217819
-0.000462555
0.00161894
-0.000333697
0.00107699
-0.000182784
0.000522967
6.10756e-06
-0.000104068
0.000223935
-0.000843667
0.000463605
-0.00164788
0.000721697
-0.00253022
0.000979438
-0.00339514
0.00120905
-0.00410815
0.00140942
-0.00455686
0.00157142
-0.00470549
0.00168963
-0.00457605
0.00176872
-0.00422252
0.00182115
-0.00371507
0.00183023
-0.00313719
0.0018044
-0.00254107
0.00176284
-0.00196581
0.0017206
-0.00144392
0.00168528
-0.000995464
0.00165699
-0.00062577
0.00163187
-0.000325926
0.00160506
-7.87395e-05
0.00157419
0.000133034
0.00153923
0.000322374
0.00150116
0.000500478
0.00146262
0.000676678
0.00142904
0.000858149
0.00141029
0.00105016
0.00142866
0.00125983
0.00151197
0.00148408
0.00171308
0.00174202
0.00200462
0.00177267
0.00218088
0.00126205
0.00175694
0.00138546
0.00679593
0.00297901
0.0101396
0.00202349
0.00699275
0.00086987
0.00433304
0.000371485
0.00323597
0.00021472
0.00233495
0.000271133
0.00156252
0.000424858
0.000923269
0.000638403
0.000309421
0.000897308
-0.000362972
0.00116184
-0.0011082
0.00144033
-0.00192638
0.00170782
-0.0027977
0.00193485
-0.00362218
0.00209694
-0.00427024
0.00218798
-0.00464789
0.00221037
-0.00472788
0.0021728
-0.00453849
0.00208888
-0.00413861
0.00197388
-0.00360007
0.00183351
-0.00299682
0.00168011
-0.00238767
0.00153071
-0.00181642
0.00140015
-0.00131336
0.00129686
-0.000892171
0.00122235
-0.000551257
0.00117203
-0.00027561
0.00113873
-4.54362e-05
0.00111703
0.000154737
0.00110318
0.000336223
0.0010946
0.00050905
0.00109073
0.000680548
0.00109318
0.000855703
0.00110576
0.00103758
0.00113721
0.00122839
0.00119961
0.00142167
0.00133427
0.00160736
0.00156584
0.0015411
0.00166
0.00116791
0.000344949
0.0027005
0.00752291
0.00403269
0.00624717
0.00366901
0.00735643
0.00254315
0.00545891
0.00188965
0.00388947
0.00153308
0.00269152
0.00138826
0.00170735
0.00142196
0.000889564
0.0015961
0.000135288
0.00184778
-0.000614652
0.00212461
-0.00138503
0.00240435
-0.00220612
0.00264984
-0.00304319
0.00281934
-0.00379168
0.00288564
-0.00433654
0.00284528
-0.00460753
0.0027119
-0.00459451
0.0025077
-0.00433429
0.00225692
-0.00388783
0.00198233
-0.00332548
0.00170107
-0.00271557
0.00143046
-0.00211707
0.00118844
-0.0015744
0.000990003
-0.00111493
0.000841853
-0.00074402
0.000743446
-0.00045285
0.000686354
-0.000218518
0.000659832
-1.89145e-05
0.00065493
0.00015964
0.000664424
0.000326728
0.000683219
0.000490256
0.000708463
0.000655304
0.000738351
0.000825814
0.000770186
0.00100575
0.000797786
0.00120079
0.000798817
0.00142064
0.000699412
0.00170676
0.000122408
0.00211813
-0.00185349
0.00314418
-0.00334302
0.00419016
0.00428269
0.00240965
0.00400205
0.00330483
0.00646124
0.00324877
0.00551497
0.00303801
0.00410023
0.00284711
0.00288242
0.00272392
0.00183054
0.00270995
0.00090353
0.00279868
4.65593e-05
0.00296024
-0.000776212
0.00317058
-0.00159536
0.00338812
-0.00242366
0.00355294
-0.003208
0.00361016
-0.00384889
0.00353294
-0.00425932
0.00332658
-0.00440116
0.00301711
-0.00428504
0.00263887
-0.00395606
0.00222521
-0.00347418
0.00180567
-0.00290594
0.00140368
-0.00231358
0.00104082
-0.00175421
0.000736509
-0.00127008
0.000505148
-0.000883566
0.000346172
-0.000585045
0.000251902
-0.000358581
0.00020656
-0.000173176
0.000196274
-8.6289e-06
0.000210298
0.000145616
0.00024056
0.000296466
0.000281977
0.000448839
0.000331357
0.000605924
0.000385623
0.000771549
0.000439747
0.000951623
0.000483929
0.0011566
0.000489957
0.00141461
0.00039234
0.00180437
3.53061e-05
0.00247515
-0.000684621
0.00386454
-0.00107628
0.00458217
0.00331987
0.00145584
0.00274047
0.00274697
0.00517011
0.00343142
0.00483053
0.0037181
0.00381355
0.00381717
0.00278336
0.00384565
0.00180207
0.00388181
0.000867363
0.00395067
-2.22941e-05
0.00406012
-0.000885666
0.00419972
-0.00173495
0.00431837
-0.00254232
0.00434548
-0.0032351
0.00422931
-0.00373272
0.00395756
-0.00398755
0.00355264
-0.00399624
0.00305437
-0.00378677
0.00250662
-0.00340831
0.001948
-0.00291557
0.00141248
-0.00237042
0.000926112
-0.00182722
0.000515683
-0.00134378
0.000199158
-0.000953559
-1.65815e-05
-0.000667827
-0.000146239
-0.000455388
-0.000213234
-0.000291587
-0.000238139
-0.000148271
-0.00023309
-1.36777e-05
-0.000205958
0.000118484
-0.000162151
0.000252659
-0.000105292
0.00039198
-3.80179e-05
0.00053865
3.72604e-05
0.000696271
0.000117491
0.000871393
0.000198981
0.00107512
0.000267526
0.00134606
0.000266762
0.00180508
0.000218171
0.00252355
0.000496115
0.00358661
0.000647332
0.00443107
0.00408673
0.0021665
0.000799936
0.00293858
0.00439804
0.00359116
0.00417795
0.00416315
0.00324156
0.00449225
0.00245426
0.00466744
0.00162688
0.00478451
0.000750297
0.00488866
-0.000126447
0.00499389
-0.000990894
0.00507089
-0.00181196
0.00505451
-0.00252593
0.00488462
-0.00306519
0.00453858
-0.00338666
0.0040353
-0.00348426
0.00341989
-0.00338082
0.00274333
-0.0031102
0.00205416
-0.00271914
0.00139016
-0.00225157
0.000789781
-0.00177004
0.000277677
-0.00131511
-0.00010948
-0.000956626
-0.00036664
-0.0006964
-0.000519479
-0.000514989
-0.000602902
-0.000371967
-0.000643851
-0.000250639
-0.000653965
-0.000138159
-0.000639613
-2.80297e-05
-0.000604973
8.38435e-05
-0.000553131
0.000200817
-0.000487087
0.000325936
-0.000410032
0.000461596
-0.000325035
0.000611274
-0.000234413
0.000780773
-0.000141718
0.000982421
-7.01028e-05
0.00127442
-6.99976e-05
0.00180481
-1.25093e-05
0.00246562
0.000636427
0.00293726
0.00109613
0.00397103
0.00531059
-0.00157733
0.00262237
0.00111682
0.00170389
0.0033491
0.00194566
0.00435323
0.00223744
0.00485894
0.00194855
0.00517469
0.00131112
0.00540271
0.000522279
0.00557916
-0.000302907
0.00567652
-0.00108825
0.00563344
-0.00176887
0.00539922
-0.00229171
0.00496208
-0.00262804
0.00434991
-0.00277448
0.00361602
-0.00275036
0.00282105
-0.00258583
0.00201548
-0.00230462
0.0012475
-0.00195116
0.00054757
-0.00155163
-3.86458e-05
-0.00118383
-0.000470433
-0.000883323
-0.000745296
-0.000681761
-0.000908449
-0.000533249
-0.00100552
-0.000417923
-0.00105929
-0.000318205
-0.00108321
-0.000226718
-0.00108287
-0.000138509
-0.00106112
-4.97801e-05
-0.00102016
4.28903e-05
-0.000962228
0.000142882
-0.000890634
0.000254343
-0.000810634
0.000381597
-0.000729847
0.000530489
-0.000660589
0.000711522
-0.000626727
0.000948582
-0.00066599
0.00131371
-0.000785007
0.00192373
-0.000914845
0.00259502
-0.000871432
0.00289312
-0.000676734
0.00377557
0.00477784
0.00288408
0.00457279
0.00487217
0.00164627
0.00536003
0.00174958
0.00559831
0.00171026
0.00583019
0.00107924
0.00601603
0.000336427
0.00607984
-0.000366736
0.00595126
-0.000959691
0.00559717
-0.00141478
0.00503013
-0.00172467
0.00429729
-0.00189517
0.00345744
-0.00193461
0.00257039
-0.00186329
0.00169208
-0.00170751
0.000856521
-0.00146905
0.00010557
-0.0012002
-0.000504493
-0.000941563
-0.00093583
-0.000752478
-0.00120664
-0.000612503
-0.00137612
-0.000512283
-0.00148063
-0.00042875
-0.00154571
-0.000352866
-0.0015826
-0.000281329
-0.00159609
-0.000213237
-0.00158777
-0.000146838
-0.00155847
-7.90819e-05
-0.00151036
-5.2114e-06
-0.00144572
7.82443e-05
-0.00136732
0.000175943
-0.00128205
0.000296332
-0.00120157
0.000450002
-0.00114514
0.000655105
-0.00114451
0.000948029
-0.00123277
0.00140217
-0.0014246
0.00211583
-0.00191186
0.00308248
-0.0030007
0.00398196
-0.00322694
0.00400164
0.00171189
0.00793761
0.00535755
0.00582012
0.00386707
0.00557182
0.00195852
0.00564148
0.0010095
0.00560355
0.000374273
0.00535799
-0.000121245
0.00489263
-0.00049436
0.00424747
-0.000769616
0.00347638
-0.000953567
0.00263334
-0.00105211
0.00176119
-0.00106244
0.000899539
-0.00100162
8.5229e-05
-0.00089318
-0.000622869
-0.000760936
-0.0011704
-0.000652642
-0.00155053
-0.000561417
-0.00180453
-0.000498459
-0.00196885
-0.000448181
-0.00208087
-0.000400281
-0.00215997
-0.000349691
-0.00221499
-0.000297889
-0.00224901
-0.00024735
-0.00226288
-0.000199395
-0.00225631
-0.000153413
-0.00222849
-0.000106884
-0.00217816
-5.55145e-05
-0.00210628
6.38797e-06
-0.00201416
8.38295e-05
-0.00190366
0.000185824
-0.00178243
0.000328738
-0.0016632
0.000535843
-0.00156002
0.000844864
-0.00147359
0.00131591
-0.00137541
0.00201806
-0.0012677
0.0029753
-0.00138701
0.00410175
-0.00133141
0.00394651
0.000555137
0.00411809
0.00148602
0.00451767
0.00346746
0.00374221
0.00273391
0.00323608
0.00151554
0.00288894
0.00072134
0.00252165
0.000246013
0.00207292
-4.56427e-05
0.00152927
-0.000225964
0.000910734
-0.000335012
0.000236905
-0.000378259
-0.000450331
-0.000375185
-0.00108968
-0.00036225
-0.00163008
-0.000352748
-0.00204252
-0.000348455
-0.0023397
-0.000355425
-0.00254222
-0.000358867
-0.00268782
-0.000352852
-0.00280219
-0.000333836
-0.00289794
-0.000304599
-0.00297781
-0.000269895
-0.00304138
-0.000234406
-0.0030877
-0.000201104
-0.00311595
-0.000171175
-0.00312482
-0.000144543
-0.00311135
-0.000120302
-0.00307017
-9.66092e-05
-0.00299413
-6.95737e-05
-0.00287889
-3.13572e-05
-0.00272279
2.97129e-05
-0.00252591
0.000131784
-0.00229179
0.000301593
-0.00201952
0.000572455
-0.0016796
0.000975947
-0.00120021
0.00153882
-0.00050155
0.00227703
0.0004059
0.00319469
0.00111116
0.00324172
0.00184259
-0.00259564
-0.00675272
-0.00740198
-0.00745476
-0.00374712
-0.00216881
-0.00166866
0.00138896
-0.000755286
0.00182047
-0.000556768
0.00131696
-0.000636926
0.000801452
-0.000824549
0.000433605
-0.00106778
0.000197571
-0.00135844
6.46737e-05
-0.00169975
6.29835e-06
-0.00206806
-9.93803e-06
-0.00242994
-1.32706e-05
-0.00275926
-3.28818e-05
-0.00302237
-8.95748e-05
-0.00320514
-0.000165629
-0.00333157
-0.000228945
-0.00343273
-0.0002577
-0.00353077
-0.00025485
-0.00363212
-0.00023257
-0.00373453
-0.000202315
-0.00383252
-0.000172039
-0.00392047
-0.000146573
-0.00399371
-0.000127953
-0.00404881
-0.000116095
-0.00408321
-0.0001101
-0.00409366
-0.000109743
-0.00407425
-0.000115869
-0.00401461
-0.000129039
-0.00389974
-0.000146062
-0.00371521
-0.000154709
-0.00345212
-0.000131298
-0.00311049
-4.01714e-05
-0.00269244
0.000154163
-0.0021701
0.00045331
-0.00144619
0.000814667
-0.000409326
0.0012401
0.000861796
0.00192369
0.00135039
0.00275335
0.00337453
-0.00734163
0.00104232
-0.00811175
-0.00668465
-0.00716802
-0.00311256
-0.00564976
-0.000129344
-0.00455691
0.000727554
-0.00396435
0.000724322
-0.00370388
0.000540919
-0.00363597
0.000365651
-0.00367729
0.000238862
-0.00377192
0.000159295
-0.00387737
0.000111762
-0.00396453
7.72678e-05
-0.00402023
4.24852e-05
-0.0040534
3.69908e-07
-0.00408597
-5.69208e-05
-0.0041338
-0.00011773
-0.00420324
-0.000159492
-0.00428947
-0.000171505
-0.00438351
-0.000160911
-0.00447684
-0.000139383
-0.00456348
-0.000115842
-0.00463991
-9.57696e-05
-0.00470433
-8.22861e-05
-0.00475579
-7.65694e-05
-0.00479365
-7.82383e-05
-0.00481716
-8.65072e-05
-0.00482487
-0.000101868
-0.00481364
-0.000126859
-0.00477801
-0.000164377
-0.00471011
-0.000213648
-0.00459929
-0.000265238
-0.00443075
-0.000299622
-0.00418112
-0.000289737
-0.00381922
-0.000207899
-0.00332967
-3.66302e-05
-0.00267853
0.000163034
-0.00165322
0.000214335
0.000114293
0.000155893
0.0011627
0.00170489
0.00472358
0.0015839
-0.0050363
-0.00808595
-0.00815611
-0.00737438
-0.00660358
-0.00602273
-0.0056218
-0.0053506
-0.00516061
-0.0050188
-0.00491139
-0.00483816
-0.00480636
-0.00483147
-0.00491737
-0.0050452
-0.00518527
-0.00531491
-0.0054231
-0.00550774
-0.00557229
-0.00562337
-0.00566881
-0.00571615
-0.00577217
-0.00584418
-0.00594205
-0.00607856
-0.00626569
-0.00650595
-0.00678223
-0.00705017
-0.00723762
-0.00725489
-0.00707336
-0.00684121
-0.00666814
-0.00494668
)
;

boundaryField
{
    floor
    {
        type            calculated;
        value           nonuniform List<scalar> 
36
(
0
0
0
0
0
0
0
0
0
0
0
0
0
0
0
0
0
0
0
-6.43924e-06
-1.68843e-05
-2.60299e-05
-3.43024e-05
-3.49025e-05
-2.84844e-05
-2.85141e-05
-2.92051e-06
-5.44248e-06
-5.68885e-06
-5.90897e-06
-4.85441e-06
-8.94023e-06
-1.02097e-05
-1.28336e-05
-1.44557e-05
-1.5445e-05
)
;
    }
    ceiling
    {
        type            calculated;
        value           nonuniform List<scalar> 
43
(
-5.77873e-05
-6.44875e-05
-6.29772e-05
-5.92757e-05
-5.42711e-05
-4.6586e-05
-4.00172e-05
-3.53484e-05
-3.23655e-05
-3.0691e-05
-3.0004e-05
-3.00729e-05
-3.06431e-05
-3.13365e-05
-3.17365e-05
-3.18016e-05
-3.16715e-05
-3.1504e-05
-3.13875e-05
-3.13409e-05
-3.13407e-05
-3.13435e-05
-3.12979e-05
-3.11518e-05
-3.08563e-05
-3.03715e-05
-2.9669e-05
-2.87336e-05
-2.75666e-05
-2.61945e-05
-2.4686e-05
-2.31593e-05
-2.1755e-05
-2.05766e-05
-1.96427e-05
-1.8885e-05
-1.81873e-05
-1.74636e-05
-1.67337e-05
-1.68165e-05
1.93381e-05
1.51848e-05
-0.000246569
)
;
    }
    sWall
    {
        type            calculated;
        value           nonuniform List<scalar> 9(-0.000140239 -0.000164529 -0.000194261 -0.000225966 -0.000245108 -0.000281048 -0.000423459 -0.000453408 -0.000483787);
    }
    nWall
    {
        type            calculated;
        value           nonuniform List<scalar> 
14
(
-8.98635e-05
-9.72261e-05
-0.000102314
-0.00010289
-0.000113474
-0.00011958
-0.000128178
-0.000144418
-0.000161191
-0.000174068
-0.000175961
-0.000181393
-0.000186346
-0.000206328
)
;
    }
    sideWalls
    {
        type            empty;
        value           nonuniform 0();
    }
    glass1
    {
        type            calculated;
        value           nonuniform List<scalar> 9(-6.40343e-05 -0.000170321 -0.000257924 -0.000331208 -0.000393192 -0.000446396 -0.000492206 -0.000535486 -0.000587169);
    }
    glass2
    {
        type            calculated;
        value           nonuniform List<scalar> 2(-0.000364348 -0.000382141);
    }
    sun
    {
        type            calculated;
        value           uniform 0;
    }
    Table_master
    {
        type            calculated;
        value           nonuniform List<scalar> 9(-1.53992e-07 -1.54109e-07 -1.54141e-07 -1.54161e-07 -1.54174e-07 -1.54179e-07 -1.54177e-07 -1.54163e-07 -1.5411e-07);
    }
    Table_slave
    {
        type            calculated;
        value           nonuniform List<scalar> 9(1.53662e-07 1.53718e-07 1.53717e-07 1.53734e-07 1.53754e-07 1.53798e-07 1.53865e-07 1.53958e-07 1.54086e-07);
    }
    inlet
    {
        type            calculated;
        value           uniform -0.0116489;
    }
    outlet
    {
        type            calculated;
        value           nonuniform List<scalar> 2(0.00977185 0.0122611);
    }
}


// ************************************************************************* //
