/*--------------------------------*- C++ -*----------------------------------*\
  =========                 |
  \\      /  F ield         | OpenFOAM: The Open Source CFD Toolbox
   \\    /   O peration     | Website:  https://openfoam.org
    \\  /    A nd           | Version:  6
     \\/     M anipulation  |
\*---------------------------------------------------------------------------*/
FoamFile
{
    version     2.0;
    format      ascii;
    class       volScalarField;
    location    "27799.9999984838323";
    object      T;
}
// * * * * * * * * * * * * * * * * * * * * * * * * * * * * * * * * * * * * * //

dimensions      [0 0 0 1 0 0 0];

internalField   nonuniform List<scalar> 
778
(
302.565
302.246
302.23
302.225
302.22
302.216
302.212
302.207
302.202
302.198
302.191
302.184
302.175
302.164
302.154
302.223
302.094
302.086
302.085
302.087
302.091
302.095
302.1
302.105
302.11
302.115
302.12
302.125
302.13
302.135
302.142
302.15
302.182
302.778
302.277
302.245
302.244
302.245
302.245
302.245
302.243
302.239
302.234
302.226
302.212
302.192
302.166
302.138
302.119
302.105
302.101
302.082
302.063
302.056
302.053
302.053
302.054
302.056
302.057
302.059
302.061
302.063
302.065
302.068
302.072
302.079
302.09
302.106
302.158
302.994
302.324
302.272
302.278
302.289
302.299
302.307
302.313
302.315
302.313
302.304
302.285
302.254
302.213
302.167
302.127
302.095
302.075
302.048
302.041
302.039
302.039
302.04
302.041
302.042
302.044
302.045
302.046
302.047
302.048
302.05
302.052
302.057
302.067
302.084
302.145
303.204
302.385
302.303
302.315
302.336
302.358
302.378
302.395
302.407
302.411
302.403
302.379
302.335
302.274
302.207
302.147
302.097
302.063
302.047
302.036
302.032
302.032
302.033
302.034
302.035
302.035
302.036
302.036
302.036
302.037
302.037
302.037
302.037
302.043
302.053
302.071
302.137
303.405
302.459
302.335
302.349
302.38
302.414
302.448
302.479
302.503
302.517
302.513
302.485
302.426
302.341
302.248
302.164
302.099
302.057
302.036
302.028
302.027
302.029
302.031
302.034
302.036
302.037
302.038
302.039
302.039
302.039
302.039
302.038
302.038
302.039
302.045
302.061
302.114
302.125
302.138
302.234
303.594
302.544
302.372
302.377
302.415
302.458
302.503
302.547
302.587
302.613
302.617
302.587
302.512
302.4
302.279
302.174
302.095
302.05
302.028
302.021
302.023
302.027
302.032
302.037
302.04
302.042
302.043
302.043
302.043
302.043
302.042
302.041
302.04
302.039
302.042
302.052
302.086
302.098
302.113
302.247
303.757
302.639
302.42
302.401
302.439
302.485
302.535
302.585
302.635
302.675
302.692
302.664
302.575
302.436
302.291
302.171
302.086
302.038
302.017
302.014
302.02
302.028
302.036
302.042
302.046
302.048
302.049
302.049
302.048
302.047
302.045
302.044
302.042
302.04
302.04
302.047
302.067
302.079
302.097
302.229
303.91
302.783
302.516
302.436
302.457
302.499
302.544
302.592
302.642
302.701
302.731
302.7
302.596
302.443
302.284
302.152
302.064
302.018
302.003
302.007
302.019
302.033
302.044
302.051
302.055
302.057
302.056
302.055
302.053
302.051
302.049
302.046
302.043
302.041
302.04
302.043
302.055
302.068
302.109
302.405
304.118
303.233
302.844
302.589
302.504
302.516
302.552
302.593
302.65
302.719
302.754
302.712
302.588
302.416
302.244
302.11
302.027
301.991
301.988
302.003
302.024
302.042
302.055
302.063
302.066
302.066
302.064
302.061
302.058
302.055
302.051
302.048
302.045
302.042
302.04
302.042
302.05
302.077
302.165
302.564
304.103
303.535
303.163
302.863
302.686
302.617
302.609
302.633
302.703
302.773
302.786
302.707
302.545
302.348
302.169
302.043
301.978
301.962
301.978
302.007
302.036
302.058
302.071
302.076
302.076
302.074
302.07
302.065
302.061
302.056
302.052
302.049
302.045
302.042
302.041
302.042
302.058
302.211
302.367
302.572
304.107
303.67
303.355
303.095
302.915
302.816
302.778
302.787
302.836
302.865
302.815
302.665
302.449
302.23
302.058
301.958
301.925
301.939
301.978
302.021
302.057
302.079
302.088
302.089
302.085
302.079
302.073
302.067
302.062
302.057
302.053
302.049
302.045
302.043
302.041
302.045
302.07
302.216
302.385
302.581
304.139
303.757
303.493
303.282
303.128
303.033
302.99
302.99
302.994
302.939
302.781
302.537
302.273
302.054
301.917
301.867
301.882
301.934
301.996
302.051
302.087
302.104
302.105
302.098
302.09
302.081
302.074
302.067
302.062
302.057
302.053
302.049
302.046
302.044
302.045
302.055
302.099
302.22
302.367
302.562
304.204
303.876
303.633
303.45
303.318
303.232
303.186
303.158
303.071
302.875
302.579
302.258
301.991
301.826
301.769
301.795
301.869
301.959
302.04
302.096
302.123
302.127
302.118
302.106
302.094
302.084
302.075
302.068
302.063
302.058
302.054
302.05
302.048
302.048
302.057
302.091
302.163
302.269
302.385
302.563
304.14
303.889
303.681
303.539
303.424
303.333
303.256
303.127
302.853
302.473
302.086
301.788
301.626
301.596
301.661
301.78
301.91
302.027
302.107
302.15
302.157
302.148
302.133
302.117
302.103
302.091
302.081
302.074
302.068
302.063
302.059
302.057
302.056
302.062
302.089
302.157
302.26
302.371
302.466
302.604
304.28
304.088
303.618
303.297
303.093
302.928
302.737
302.37
301.9
301.502
301.272
301.219
301.304
301.471
301.668
301.862
302.018
302.132
302.183
302.197
302.19
302.175
302.157
302.139
302.123
302.109
302.099
302.09
302.085
302.08
302.078
302.077
302.078
302.089
302.125
302.205
302.325
302.45
302.544
302.641
294.641
296.439
298.134
299.04
299.392
299.583
299.833
300.158
300.529
300.906
301.266
301.58
301.837
302.046
302.167
302.227
302.247
302.245
302.234
302.218
302.2
302.182
302.165
302.151
302.141
302.134
302.13
302.129
302.129
302.129
302.131
302.138
302.162
302.221
302.323
302.439
302.528
302.616
294.923
295.745
296.642
297.509
298.286
299.009
299.689
300.3
300.821
301.259
301.635
301.912
302.1
302.221
302.283
302.308
302.312
302.306
302.295
302.281
302.265
302.249
302.235
302.225
302.219
302.218
302.22
302.223
302.226
302.227
302.226
302.224
302.228
302.254
302.314
302.411
302.483
302.558
299.772
298.699
297.321
296.758
297.512
298.516
299.416
300.148
300.72
301.159
301.515
301.803
302.029
302.189
302.291
302.348
302.374
302.383
302.383
302.376
302.366
302.354
302.34
302.328
302.319
302.315
302.315
302.32
302.329
302.339
302.348
302.354
302.353
302.348
302.342
302.342
302.359
302.412
302.461
302.546
300.131
300.002
299.416
298.892
299.291
300.007
300.664
301.18
301.563
301.842
302.048
302.198
302.304
302.373
302.415
302.437
302.448
302.451
302.448
302.441
302.432
302.421
302.41
302.401
302.397
302.397
302.401
302.411
302.424
302.441
302.459
302.475
302.486
302.49
302.484
302.474
302.467
302.469
302.484
302.561
300.845
300.844
300.901
300.986
301.137
301.475
301.793
302.032
302.199
302.313
302.39
302.442
302.477
302.5
302.513
302.522
302.526
302.525
302.522
302.516
302.508
302.501
302.495
302.492
302.492
302.495
302.503
302.515
302.53
302.548
302.566
302.583
302.594
302.599
302.598
302.591
302.582
302.576
302.573
302.601
)
;

boundaryField
{
    floor
    {
        type            wallHeatTransfer;
        Tinf            uniform 305.2;
        alphaWall       uniform 0.36;
        value           nonuniform List<scalar> 
36
(
302.544
302.868
302.622
302.613
302.621
302.639
302.665
302.693
302.723
302.751
302.779
302.806
302.833
302.858
302.884
302.91
302.94
302.968
303.04
303.04
302.909
302.841
302.792
302.711
302.616
302.713
302.544
302.487
302.488
302.498
302.868
302.498
302.535
302.417
302.434
302.394
)
;
    }
    ceiling
    {
        type            wallHeatTransfer;
        Tinf            uniform 303.2;
        alphaWall       uniform 0.36;
        value           nonuniform List<scalar> 
43
(
301.033
301.055
301.108
301.182
301.316
301.628
301.924
302.147
302.304
302.412
302.487
302.54
302.577
302.601
302.616
302.625
302.628
302.628
302.624
302.617
302.61
302.603
302.597
302.593
302.592
302.594
302.6
302.608
302.62
302.633
302.646
302.657
302.664
302.665
302.66
302.651
302.64
302.631
302.626
302.654
304.19
304.016
295.883
)
;
    }
    sWall
    {
        type            wallHeatTransfer;
        Tinf            uniform 315.2;
        alphaWall       uniform 0.54;
        value           nonuniform List<scalar> 9(305.124 305.181 305.292 305.436 305.375 305.601 301.4 301.778 302.498);
    }
    nWall
    {
        type            wallHeatTransfer;
        Tinf            uniform 308.2;
        alphaWall       uniform 0.54;
        value           nonuniform List<scalar> 
14
(
303.573
303.434
303.289
303.306
303.309
303.262
303.255
303.326
303.391
303.369
303.272
303.243
303.24
303.315
)
;
    }
    sideWalls
    {
        type            empty;
    }
    glass1
    {
        type            wallHeatTransfer;
        Tinf            uniform 315.2;
        alphaWall       uniform 4.3;
        value           nonuniform List<scalar> 9(311.626 310.812 310.3 309.912 309.605 309.359 309.142 308.996 309.046);
    }
    glass2
    {
        type            wallHeatTransfer;
        Tinf            uniform 308.2;
        alphaWall       uniform 4.3;
        value           nonuniform List<scalar> 2(305.745 305.66);
    }
    sun
    {
        type            wallHeatTransfer;
        Tinf            uniform 305.2;
        alphaWall       uniform 0.36;
        value           nonuniform List<scalar> 
14
(
303.018
302.731
302.719
302.7
302.684
302.669
302.656
302.643
302.631
302.618
302.605
302.591
302.576
302.56
)
;
    }
    Table_master
    {
        type            zeroGradient;
    }
    Table_slave
    {
        type            zeroGradient;
    }
    inlet
    {
        type            fixedValue;
        value           uniform 293.15;
    }
    outlet
    {
        type            zeroGradient;
    }
}


// ************************************************************************* //
