/*--------------------------------*- C++ -*----------------------------------*\
  =========                 |
  \\      /  F ield         | OpenFOAM: The Open Source CFD Toolbox
   \\    /   O peration     | Website:  https://openfoam.org
    \\  /    A nd           | Version:  6
     \\/     M anipulation  |
\*---------------------------------------------------------------------------*/
FoamFile
{
    version     2.0;
    format      ascii;
    class       volScalarField;
    location    "44600.0000000990913";
    object      epsilon;
}
// * * * * * * * * * * * * * * * * * * * * * * * * * * * * * * * * * * * * * //

dimensions      [0 2 -3 0 0 0 0];

internalField   nonuniform List<scalar> 
778
(
0.000253115
0.000306331
0.000302976
0.000344149
0.000385022
0.000424849
0.000464323
0.000504632
0.000547513
0.000595682
0.000644188
0.000692635
0.000742667
0.000799077
0.000860887
8.94986e-05
0.000262625
0.000269111
0.000250094
0.000220274
0.000184235
0.000152441
0.00012659
0.000105952
8.94762e-05
7.63224e-05
6.56677e-05
5.68693e-05
4.94002e-05
4.27881e-05
3.65343e-05
3.18276e-05
2.36052e-05
0.000796989
0.00144317
0.000286982
0.000259591
0.000261699
0.000267683
0.000276593
0.00029004
0.000310319
0.000340557
0.000379821
0.000431003
0.000499468
0.00060077
0.000786031
0.00112986
0.000979211
0.000858752
0.000511678
0.000369391
0.000294193
0.000242917
0.000204126
0.000187004
0.000154797
0.000125074
0.000100741
8.15138e-05
6.65414e-05
5.48322e-05
4.56394e-05
3.87153e-05
3.4525e-05
3.27678e-05
6.57715e-05
4.8085e-05
0.00163062
0.00407896
0.000407377
0.000242932
0.000229116
0.000231038
0.000238265
0.000250548
0.000268472
0.000292769
0.000324927
0.000367029
0.000421453
0.000495198
0.000601621
0.000724931
0.000830181
0.00158445
0.0010279
0.000512277
0.000367695
0.000294307
0.000262149
0.000551489
0.000362673
0.000250814
0.000181401
0.000136345
0.000105956
8.4804e-05
6.98373e-05
5.94751e-05
4.5142e-05
3.79865e-05
0.000108095
7.07678e-05
0.00285351
0.00877001
0.000709833
0.000240726
0.000202489
0.000200033
0.000203216
0.000209854
0.000220684
0.000237619
0.000263331
0.000300102
0.000349337
0.000412482
0.000488158
0.000560338
0.000612595
0.000824784
0.00156539
0.000728772
0.00045971
0.000358261
0.000301901
0.000291823
0.000814097
0.000612644
0.000481875
0.000388503
0.000319144
0.00026435
0.000218789
0.00017904
0.000141866
8.38068e-05
5.49022e-05
0.000148399
9.44301e-05
0.00454597
0.0158264
0.00134621
0.000258336
0.000175737
0.000166803
0.000165821
0.000167807
0.000173979
0.000187495
0.000211753
0.00024845
0.000297878
0.000359419
0.000427871
0.000489228
0.000528657
0.000582649
0.000627853
0.000483336
0.000393566
0.000331069
0.000282314
0.000248634
0.000247843
0.000226786
0.000202953
0.000181094
0.000162724
0.000146564
0.000131888
0.000118281
0.000105101
8.4498e-05
6.4223e-05
0.000105077
0.000138728
0.000159891
0.000363136
0.000319684
0.00676348
0.0248765
0.00255306
0.000318046
0.000155535
0.000137071
0.000132141
0.000130717
0.00013449
0.00014858
0.000176733
0.000218102
0.000270819
0.000334109
0.00040171
0.000462586
0.000503031
0.000521817
0.000505003
0.000438421
0.000373937
0.000315717
0.000264779
0.000223408
0.000193305
0.000169642
0.000150827
0.000135646
0.000123319
0.000112774
0.000103313
9.45334e-05
8.60639e-05
7.58861e-05
6.53763e-05
7.75595e-05
9.96337e-05
0.00020964
0.00106779
0.000548253
0.0096717
0.0336347
0.00458277
0.000464919
0.000150834
0.000116345
0.0001071
0.000103304
0.000107104
0.000127928
0.000166121
0.00021585
0.00027323
0.000339909
0.000409169
0.00047031
0.000510107
0.000520494
0.00049444
0.000437757
0.000371936
0.000307535
0.000250577
0.000204455
0.000169758
0.000144562
0.00012633
0.000112745
0.000102298
9.3737e-05
8.62446e-05
7.93506e-05
7.27752e-05
6.61041e-05
6.03616e-05
6.37732e-05
7.66429e-05
0.000172989
0.00158881
0.000895193
0.0127583
0.0404043
0.0074884
0.000871086
0.000194262
0.000115388
9.74077e-05
9.14939e-05
9.86944e-05
0.000137758
0.000189295
0.000246195
0.000306892
0.000373582
0.000444481
0.000507787
0.000547228
0.000550913
0.000515767
0.000451633
0.00037555
0.000300957
0.000236459
0.000185944
0.000149301
0.00012397
0.000106702
9.45651e-05
8.5747e-05
7.8833e-05
7.29355e-05
6.75633e-05
6.2479e-05
5.76586e-05
5.40293e-05
5.58722e-05
6.98018e-05
0.000343749
0.0055653
0.00198968
0.0138274
0.0414613
0.0139291
0.00316163
0.000629545
0.000207994
0.000132746
0.000116089
0.000142603
0.000193077
0.000249376
0.000306383
0.000367152
0.000436273
0.00051061
0.000575293
0.000610619
0.000603051
0.000552152
0.00047096
0.000378422
0.000290796
0.000218136
0.000163931
0.00012672
0.000102571
8.72588e-05
7.73217e-05
7.06598e-05
6.56871e-05
6.15066e-05
5.76754e-05
5.40245e-05
5.06685e-05
4.85575e-05
5.24992e-05
9.36812e-05
0.000967314
0.0138174
0.00292238
0.013005
0.0283742
0.0144143
0.00572453
0.00210336
0.00083452
0.000413935
0.000277205
0.000279395
0.000314944
0.000356312
0.000401739
0.000458344
0.000530371
0.00060928
0.000673304
0.000698224
0.000670413
0.00059374
0.000486592
0.000372431
0.000270412
0.000190896
0.000135592
0.000100584
7.98221e-05
6.79234e-05
6.11476e-05
5.7077e-05
5.41475e-05
5.16111e-05
4.91644e-05
4.67623e-05
4.47024e-05
4.45566e-05
5.64795e-05
0.000191688
0.00236751
0.0118242
0.00311754
0.0106906
0.0193597
0.0120387
0.00629938
0.00317395
0.00167467
0.000987017
0.000679494
0.000560576
0.000517835
0.000510743
0.000531492
0.000583326
0.000661959
0.000746413
0.0008041
0.000806696
0.000743883
0.000627959
0.000485839
0.000347108
0.000233048
0.000152113
0.00010158
7.34706e-05
5.87531e-05
5.13007e-05
4.78771e-05
4.60784e-05
4.47613e-05
4.34499e-05
4.1999e-05
4.05116e-05
3.96847e-05
4.33201e-05
8.10811e-05
0.000452167
0.00267611
0.00914088
0.00305064
0.00807296
0.0137705
0.0096919
0.0059329
0.00356938
0.00222737
0.00149087
0.00109321
0.00086968
0.000743983
0.000686192
0.000690055
0.000749875
0.000843463
0.00093068
0.000967173
0.000925498
0.000805663
0.000634978
0.000451826
0.000292224
0.000176649
0.00010662
6.92947e-05
5.24106e-05
4.42945e-05
4.04598e-05
3.90445e-05
3.84551e-05
3.80033e-05
3.73971e-05
3.65713e-05
3.57628e-05
3.64615e-05
4.96526e-05
0.000174346
0.000828296
0.00275935
0.00677673
0.00277978
0.00612311
0.0101644
0.00778894
0.00531162
0.00356981
0.00246898
0.00178795
0.00136835
0.00109319
0.00092638
0.000859409
0.000886219
0.00098133
0.00109515
0.00116715
0.00114875
0.00102695
0.000822752
0.000586716
0.00036821
0.000207283
0.000114047
7.19174e-05
5.22493e-05
4.28534e-05
3.80469e-05
3.56411e-05
3.47635e-05
3.44621e-05
3.4302e-05
3.41011e-05
3.38736e-05
3.40965e-05
3.77598e-05
6.56263e-05
0.000246553
0.000965861
0.00268579
0.00550029
0.00252082
0.00617876
0.00780658
0.00680036
0.00473751
0.00336445
0.00246166
0.00186535
0.00146214
0.00119467
0.00106485
0.00107016
0.00117875
0.00132617
0.00143349
0.00143493
0.00129962
0.00105297
0.000744448
0.000457171
0.000238206
0.000130816
8.18497e-05
6.02728e-05
4.95969e-05
4.34116e-05
3.93876e-05
3.68143e-05
3.55571e-05
3.50742e-05
3.50783e-05
3.55207e-05
3.65573e-05
3.88754e-05
4.59723e-05
7.719e-05
0.000228734
0.000796416
0.00218671
0.00533922
0.00264496
0.00454389
0.00511123
0.00418369
0.00336104
0.00263921
0.00206971
0.00164872
0.00136181
0.00124531
0.00130081
0.00147687
0.00168263
0.00181776
0.00180959
0.00163344
0.00130382
0.000914427
0.000522228
0.000279911
0.000155644
0.00010266
8.02054e-05
6.90312e-05
6.16893e-05
5.57639e-05
5.06979e-05
4.67341e-05
4.44675e-05
4.38725e-05
4.48297e-05
4.76429e-05
5.2868e-05
6.14437e-05
7.64079e-05
0.000111254
0.000222578
0.000612409
0.00191594
0.00412759
0.00315412
0.00140161
0.00143178
0.00143385
0.00135446
0.00131206
0.00142455
0.00170926
0.00204262
0.00230147
0.00239572
0.00227947
0.00197008
0.00152961
0.000985099
0.000573444
0.00031522
0.000189502
0.000137535
0.000116929
0.000106849
9.97418e-05
9.31073e-05
8.62475e-05
7.93639e-05
7.34529e-05
7.02096e-05
7.07645e-05
7.56734e-05
8.6256e-05
0.000104055
0.000130535
0.000168483
0.000228442
0.000347836
0.000655983
0.00204289
0.00344054
0.00328833
0.00118766
0.00171783
0.001955
0.00231169
0.00276045
0.00316419
0.00334105
0.00330244
0.00307399
0.00268008
0.0021141
0.00149958
0.000970659
0.000573623
0.000344556
0.00023742
0.000195544
0.000179357
0.0001714
0.00016566
0.000160206
0.000154209
0.000147343
0.000140013
0.000133794
0.000131558
0.000135904
0.000148872
0.000173719
0.000214199
0.000274306
0.00035982
0.000484304
0.000684729
0.00107015
0.00225424
0.00395818
0.0033615
0.00742029
0.00805729
0.00480536
0.00340559
0.00374305
0.00415615
0.00416959
0.00395705
0.0035967
0.00313776
0.002628
0.00208454
0.00153742
0.0010566
0.00069971
0.0004803
0.000373076
0.000328004
0.000308044
0.000296812
0.000289321
0.000284222
0.000280723
0.000277725
0.000274042
0.000269277
0.00026502
0.000265546
0.000273971
0.000293866
0.000329907
0.000388428
0.000477857
0.000610289
0.000805867
0.00110371
0.00159098
0.00246385
0.00390048
0.00290966
0.006505
0.00512934
0.00437404
0.00462774
0.00454924
0.00428124
0.00369936
0.00305136
0.00246396
0.00196923
0.00156411
0.0012394
0.000987528
0.000806016
0.00068892
0.000617959
0.000569354
0.000534589
0.000509324
0.000492532
0.00048467
0.000486123
0.000496345
0.000513606
0.000535237
0.000558261
0.000580249
0.000599995
0.000621678
0.00065209
0.000697969
0.000766274
0.000865799
0.00101001
0.00122261
0.00154602
0.00205685
0.00295044
0.00424677
0.00278434
0.00535926
0.00336897
0.00331853
0.003615
0.00387263
0.00353225
0.00292964
0.00231796
0.0017987
0.00138715
0.00106926
0.000829132
0.000655723
0.000540352
0.000472245
0.000438855
0.000429421
0.000430574
0.000440117
0.000458158
0.000484937
0.000519807
0.000561057
0.000606369
0.000653533
0.000701145
0.000749155
0.000799248
0.000852429
0.000912417
0.000983982
0.00107148
0.00117856
0.00130787
0.0014597
0.00163086
0.00182724
0.00213123
0.00265847
0.0025573
)
;

boundaryField
{
    floor
    {
        Cmu             0.09;
        kappa           0.41;
        E               9.8;
        type            epsilonWallFunction;
        value           nonuniform List<scalar> 
36
(
0.000860887
8.94986e-05
0.000262625
0.000269111
0.000250094
0.000220274
0.000184235
0.000152441
0.00012659
0.000105952
8.94762e-05
7.63224e-05
6.56677e-05
5.68693e-05
4.94002e-05
4.27881e-05
3.65343e-05
3.18276e-05
2.36052e-05
2.36052e-05
4.8085e-05
7.07678e-05
9.44301e-05
0.000159891
0.000363136
0.000319684
0.000860887
0.00112986
0.000979211
0.000858752
8.94986e-05
0.000858752
0.000511678
0.00158445
0.0010279
0.00156539
)
;
    }
    ceiling
    {
        Cmu             0.09;
        kappa           0.41;
        E               9.8;
        type            epsilonWallFunction;
        value           nonuniform List<scalar> 
43
(
0.00535926
0.00336897
0.00331853
0.003615
0.00387263
0.00353225
0.00292964
0.00231796
0.0017987
0.00138715
0.00106926
0.000829132
0.000655723
0.000540352
0.000472245
0.000438855
0.000429421
0.000430574
0.000440117
0.000458158
0.000484937
0.000519807
0.000561057
0.000606369
0.000653533
0.000701145
0.000749155
0.000799248
0.000852429
0.000912417
0.000983982
0.00107148
0.00117856
0.00130787
0.0014597
0.00163086
0.00182724
0.00213123
0.00265847
0.0025573
0.00454389
0.00511123
0.00118766
)
;
    }
    sWall
    {
        Cmu             0.09;
        kappa           0.41;
        E               9.8;
        type            epsilonWallFunction;
        value           nonuniform List<scalar> 9(0.013005 0.0106906 0.00807296 0.00612311 0.00617876 0.00454389 0.00742029 0.006505 0.00535926);
    }
    nWall
    {
        Cmu             0.09;
        kappa           0.41;
        E               9.8;
        type            epsilonWallFunction;
        value           nonuniform List<scalar> 
14
(
0.000319684
0.000548253
0.000895193
0.00311754
0.00305064
0.00277978
0.00252082
0.00264496
0.00315412
0.00328833
0.0033615
0.00290966
0.00278434
0.0025573
)
;
    }
    sideWalls
    {
        type            empty;
    }
    glass1
    {
        Cmu             0.09;
        kappa           0.41;
        E               9.8;
        type            epsilonWallFunction;
        value           nonuniform List<scalar> 9(0.000253115 0.000796989 0.00163062 0.00285351 0.00454597 0.00676348 0.0096717 0.0127583 0.0138274);
    }
    glass2
    {
        Cmu             0.09;
        kappa           0.41;
        E               9.8;
        type            epsilonWallFunction;
        value           nonuniform List<scalar> 2(0.00198968 0.00292238);
    }
    sun
    {
        Cmu             0.09;
        kappa           0.41;
        E               9.8;
        type            epsilonWallFunction;
        value           nonuniform List<scalar> 
14
(
0.000253115
0.000306331
0.000302976
0.000344149
0.000385022
0.000424849
0.000464323
0.000504632
0.000547513
0.000595682
0.000644188
0.000692635
0.000742667
0.000799077
)
;
    }
    Table_master
    {
        Cmu             0.09;
        kappa           0.41;
        E               9.8;
        type            epsilonWallFunction;
        value           nonuniform List<scalar> 9(0.000551489 0.000362673 0.000250814 0.000181401 0.000136345 0.000105956 8.4804e-05 6.98373e-05 5.94751e-05);
    }
    Table_slave
    {
        Cmu             0.09;
        kappa           0.41;
        E               9.8;
        type            epsilonWallFunction;
        value           nonuniform List<scalar> 9(0.000814097 0.000612644 0.000481875 0.000388503 0.000319144 0.00026435 0.000218789 0.00017904 0.000141866);
    }
    inlet
    {
        type            turbulentMixingLengthDissipationRateInlet;
        mixingLength    0.01;
        phi             phi;
        k               k;
        value           uniform 0.000471671;
    }
    outlet
    {
        type            zeroGradient;
    }
}


// ************************************************************************* //
