/*--------------------------------*- C++ -*----------------------------------*\
  =========                 |
  \\      /  F ield         | OpenFOAM: The Open Source CFD Toolbox
   \\    /   O peration     | Website:  https://openfoam.org
    \\  /    A nd           | Version:  6
     \\/     M anipulation  |
\*---------------------------------------------------------------------------*/
FoamFile
{
    version     2.0;
    format      ascii;
    class       volScalarField;
    location    "5400";
    object      alphat;
}
// * * * * * * * * * * * * * * * * * * * * * * * * * * * * * * * * * * * * * //

dimensions      [1 -1 -1 0 0 0 0];

internalField   nonuniform List<scalar> 
778
(
0.000977043
0.00103556
0.00143419
0.00103386
0.00254309
0.00182648
0.00107701
0.00213086
0.00357086
0.0022133
0.0011155
0.00240264
0.00247216
0.00494236
0.00260229
0.00114971
0.00257943
0.00344082
0.00235439
0.00674544
0.00299025
0.00118085
0.00276981
0.00376434
0.00391096
0.00239036
0.00882356
0.00338953
0.00121021
0.00295883
0.00405485
0.00438435
0.00379046
0.00290719
0.0107853
0.00374667
0.00123909
0.00313102
0.00432036
0.00465998
0.00454672
0.00323155
0.00407381
0.012305
0.00386192
0.00126904
0.00326775
0.00455107
0.00486335
0.00476761
0.00442224
0.00262949
0.00584224
0.0118681
0.00380119
0.00129919
0.00334752
0.00473995
0.00500226
0.0048467
0.00465
0.00406915
0.00253039
0.0075435
0.00962912
0.00357976
0.00132925
0.00338532
0.00487756
0.00508711
0.00482793
0.00461905
0.00446956
0.00329815
0.00354563
0.00793074
0.00824385
0.00327299
0.00136099
0.00335732
0.00498231
0.00513458
0.00474137
0.00445412
0.00441087
0.00408675
0.00220806
0.00517447
0.00771961
0.00741897
0.00298743
0.0013975
0.00321853
0.00509491
0.00518704
0.00463888
0.00420272
0.00417571
0.00418492
0.00270842
0.00324113
0.00606535
0.00746252
0.00661886
0.00298825
0.00143826
0.00288155
0.0052096
0.00532947
0.00460034
0.00395721
0.00381713
0.00401559
0.00321233
0.00238487
0.0045515
0.00648978
0.00712458
0.00657742
0.00269947
0.00225708
0.00529336
0.00559002
0.00471424
0.00385516
0.00343431
0.00366638
0.00330985
0.0021959
0.00356368
0.00544999
0.00666066
0.00723038
0.00280599
0.00157276
0.00526295
0.0059702
0.00501284
0.00396604
0.00330187
0.00306202
0.00302849
0.00228723
0.00305843
0.00466281
0.00599401
0.0066876
0.00277231
0.00153412
0.00488693
0.00640311
0.00551016
0.00428454
0.00346913
0.00301981
0.00279656
0.00248808
0.00291256
0.00418596
0.00542849
0.00614452
0.00345066
0.000230316
0.00150658
0.0037147
0.00666305
0.00618764
0.00481059
0.00383345
0.00329254
0.0029805
0.00280032
0.00306506
0.00398939
0.00504031
0.0056917
0.00384975
0.000119004
0.00323786
0.00179294
0.00629389
0.00695172
0.00555048
0.0043836
0.0037101
0.00333542
0.00317178
0.00333597
0.00398176
0.00482207
0.00534453
0.00397975
0.000150794
0.000492982
0.00295632
0.00472183
0.00767587
0.0064527
0.00515359
0.00427298
0.00377958
0.00355634
0.00361771
0.00403514
0.00465099
0.00504627
0.00392901
0.000273827
0.000319852
0.00108825
0.00463721
0.0052375
0.00185689
0.0082315
0.00745045
0.00609673
0.00503847
0.00436502
0.00400102
0.00391301
0.00410923
0.00447467
0.00465009
0.00363355
0.000374468
0.000461845
0.00255956
0.00633766
0.00284472
0.00455494
0.00216085
0.00501171
0.0081136
0.00840847
0.00712713
0.00600204
0.00516809
0.00462216
0.00433729
0.00429293
0.00438909
0.00432067
0.00332966
0.00059717
0.00156517
0.00634034
0.00767205
0.00222002
0.00277436
0.00224614
0.00166776
0.00698397
0.00855967
0.00898022
0.00809332
0.00705352
0.00617799
0.0055014
0.00503377
0.00476216
0.00461106
0.00435219
0.00348226
0.00160925
0.00455949
0.00958652
0.00940906
0.00228509
0.00271261
0.00137556
0.00401422
0.00781306
0.00890751
0.00920117
0.00878279
0.00801507
0.0072605
0.00659117
0.00604391
0.00563448
0.00533045
0.00500552
0.00442423
0.003751
0.00799192
0.0117461
0.0105451
0.00227334
0.00102441
0.00253073
0.0054988
0.00792282
0.00901928
0.0092728
0.00910419
0.00870449
0.00821341
0.00771078
0.00724131
0.00684507
0.00653925
0.0063037
0.00613315
0.00654091
0.010622
0.0129577
0.0110344
0.00218935
0.00105541
0.00349621
0.00604301
0.00672869
0.00889476
0.00919668
0.00915899
0.00903371
0.0088561
0.008629
0.00837732
0.0081466
0.0079887
0.00796246
0.00820021
0.00921506
0.0122516
0.0134768
0.0110314
0.00206826
0.00106261
0.00398099
0.00536076
0.00154561
0.00839456
0.00899259
0.00901543
0.00904037
0.00910672
0.0091655
0.00919481
0.00921962
0.00929874
0.00952092
0.010043
0.0111877
0.0130563
0.0134479
0.0106686
0.00193891
0.00104592
0.0039336
0.00137262
0.00140653
0.00679925
0.00867282
0.00875
0.00881124
0.00899787
0.00925658
0.00953062
0.0098085
0.0101248
0.0105514
0.0111905
0.0121208
0.0131165
0.0128619
0.0100052
0.00181301
0.00101077
0.00306665
0.00119153
0.00130031
0.00592408
0.00816579
0.0084381
0.00845924
0.00863779
0.00896114
0.00936389
0.00980494
0.0102793
0.0108088
0.0114103
0.011993
0.012248
0.0117027
0.00905487
0.00169034
0.000958334
0.00261685
0.00105282
0.00121177
0.00531232
0.00766202
0.00812145
0.00809563
0.00817187
0.00842508
0.00880851
0.00926756
0.00976803
0.0102746
0.0107239
0.0109416
0.0106744
0.0100176
0.00785981
0.00157089
0.000904141
0.00230936
0.000944983
0.00113652
0.00482491
0.00719966
0.00783454
0.00779673
0.00774049
0.0078353
0.00807023
0.00840166
0.00877512
0.00913956
0.00936603
0.00929694
0.00877746
0.00806811
0.00656734
0.00146207
0.000853346
0.00207692
0.000859697
0.00106918
0.00433025
0.00676341
0.00757835
0.00758932
0.0074372
0.00736286
0.00739566
0.00750316
0.00765133
0.00776673
0.00778039
0.00754984
0.00694679
0.00631807
0.00542162
0.00137771
0.000806997
0.00188705
0.000791197
0.00100579
0.00383813
0.00626581
0.00732263
0.00745305
0.00728353
0.00710571
0.00698393
0.00689206
0.00680455
0.00663716
0.00641176
0.00605421
0.0054964
0.00513117
0.00463831
0.00132903
0.000765349
0.00172527
0.000735569
0.00094279
0.00335212
0.00571139
0.00699825
0.00733562
0.00723655
0.00705254
0.00688977
0.00672262
0.00639872
0.00593241
0.00543761
0.00498376
0.00458971
0.00452386
0.00421823
0.0013072
0.000727772
0.00158252
0.000690612
0.000874597
0.00286654
0.00509943
0.00658078
0.00716659
0.00722045
0.00711006
0.00699652
0.0068196
0.00633963
0.00559748
0.00485449
0.00436246
0.00413924
0.00428125
0.00404755
0.00130407
0.000693635
0.00144913
0.000656154
0.000819925
0.00236895
0.00442683
0.00605385
0.00689778
0.00715549
0.00716492
0.00713739
0.00698339
0.00645128
0.00552098
0.00458518
0.00405709
0.00393951
0.00420841
0.00401928
0.00131203
0.000662232
0.00131719
0.000728926
0.000854146
0.00183373
0.00369118
0.00540916
0.00649869
0.00698697
0.00714031
0.0071858
0.00709753
0.00659402
0.00559182
0.00450745
0.00390932
0.00384369
0.00419573
0.00406123
0.00132553
0.000632652
0.00119809
0.000863271
0.00145571
0.0014143
0.00290008
0.0046473
0.00595488
0.00668407
0.00700574
0.00712756
0.0070893
0.00667946
0.00570112
0.00451448
0.00381842
0.00377765
0.0041888
0.00412548
0.00134108
0.000603632
0.00109603
0.00135037
0.000765702
0.00143652
0.00217839
0.00379027
0.00526574
0.00623281
0.00674498
0.00697244
0.0069867
0.00665801
0.00576627
0.00452745
0.003729
0.00370616
0.00416211
0.00418048
0.00135672
0.000573048
0.00121836
0.000696346
0.00112997
0.00167028
0.00293871
0.00445234
0.00563172
0.00634782
0.00671264
0.00680622
0.0065426
0.00574281
0.00449657
0.00361146
0.00361461
0.00410852
0.00420931
0.00137167
0.000546161
0.000615418
0.000907
0.00130554
0.00215364
0.00358508
0.00489566
0.00581006
0.00633509
0.00653852
0.00634804
0.00561351
0.00440188
0.00345827
0.00350351
0.00403397
0.00420872
0.00138612
0.000493826
0.00119725
0.00146024
0.00160757
0.00270681
0.00406443
0.00513498
0.005826
0.00616254
0.00606049
0.00539524
0.0042209
0.00328132
0.00338475
0.00395127
0.0041852
0.00140102
0.0011462
0.00254755
0.00145868
0.00192437
0.00313108
0.00431669
0.0051677
0.00563594
0.00563915
0.00506117
0.00397251
0.00310174
0.00327369
0.00387344
0.00414886
0.00141797
0.00136789
0.00259564
0.0013276
0.00185527
0.00313664
0.00429569
0.0049058
0.00499659
0.00453246
0.00364302
0.0029203
0.00317974
0.0038097
0.00410864
0.001439
0.00161267
0.0037328
0.00168683
0.001375
0.00292314
0.00385646
0.00401391
0.00368777
0.00318033
0.00274249
0.00310067
0.00376568
0.00407229
0.00146664
0.00211872
0.00581097
0.00330202
0.00143858
0.0024709
0.00276087
0.00260209
0.00255625
0.00255018
0.00303544
0.00374543
0.00405063
0.00150386
0.00242384
0.00543534
0.00358096
0.00169316
0.00189306
0.00185651
0.00197487
0.00233207
0.0029794
0.00375135
0.00406173
0.00155392
0.00245478
0.00574831
0.00368201
0.00208964
0.00189752
0.00183965
0.00215516
0.00293463
0.00378961
0.00413084
0.00161946
0.0024609
0.00612338
0.00419843
0.00271577
0.00231797
0.00222441
0.00292987
0.00386914
0.00428423
0.00170121
0.00256411
0.00614692
0.0046523
0.00332609
0.00274481
0.00304994
0.00400761
0.00453675
0.00179732
0.00267886
0.00647977
0.00465595
0.0037074
0.00345239
0.00426463
0.00488612
0.00190444
0.00260583
0.00553076
0.00481529
0.00429121
0.00472807
0.0053059
0.00202044
0.00244987
0.00544261
0.00555544
0.00555806
0.00584446
0.00214739
0.00236146
0.00649545
0.00720345
0.00662925
0.00228001
0.00252518
0.0073342
0.00795593
0.0024148
0.00268014
0.00783543
0.00255534
0.00277277
0.00269409
0.00255767
)
;

boundaryField
{
    floor
    {
        type            compressible::alphatWallFunction;
        Prt             0.85;
        value           nonuniform List<scalar> 
36
(
0.000202524
0.000145585
0.000149928
0.000150934
0.0001486
0.000143666
0.000136271
0.000128577
0.000121317
0.000114647
0.000108616
0.00010314
9.81356e-05
9.3506e-05
8.91209e-05
8.47945e-05
8.02073e-05
7.61498e-05
6.81805e-05
6.81796e-05
8.65554e-05
9.85346e-05
0.000108667
0.000128986
0.000169646
0.000162583
0.000202522
0.000220597
0.00021542
0.000211722
0.000145584
0.000211719
0.000194018
0.000249821
0.000233249
0.000258234
)
;
    }
    ceiling
    {
        type            compressible::alphatWallFunction;
        Prt             0.85;
        value           nonuniform List<scalar> 
43
(
0.000368314
0.000308916
0.000297924
0.000305563
0.000313942
0.000312456
0.000301666
0.000286019
0.000269192
0.000252698
0.000236505
0.000220608
0.000205997
0.000194569
0.000187926
0.000184931
0.000184492
0.000185574
0.000187419
0.000189545
0.000191683
0.000193725
0.000195693
0.000197715
0.000200003
0.00020283
0.000206528
0.000211492
0.000218148
0.000226843
0.000237664
0.000250353
0.000264442
0.000279624
0.000296129
0.000313303
0.000330648
0.00034861
0.00036621
0.000348822
0.000366952
0.00038035
0.0004333
)
;
    }
    sWall
    {
        type            compressible::alphatWallFunction;
        Prt             0.85;
        value           nonuniform List<scalar> 9(0.000501723 0.000474684 0.000436941 0.000401485 0.000401578 0.000365376 0.000383046 0.00037427 0.000366591);
    }
    nWall
    {
        type            compressible::alphatWallFunction;
        Prt             0.85;
        value           nonuniform List<scalar> 
14
(
0.000162128
0.000192515
0.000225443
0.000335079
0.000335945
0.000349292
0.000363601
0.000353745
0.000334062
0.000323061
0.000344443
0.000363597
0.000375191
0.00034812
)
;
    }
    sideWalls
    {
        type            empty;
    }
    glass1
    {
        type            compressible::alphatWallFunction;
        Prt             0.85;
        value           nonuniform List<scalar> 9(0.000135074 0.000197105 0.00024872 0.000298552 0.000347815 0.000396246 0.000445454 0.000489012 0.000503096);
    }
    glass2
    {
        type            compressible::alphatWallFunction;
        Prt             0.85;
        value           nonuniform List<scalar> 2(0.00028964 0.000328676);
    }
    sun
    {
        type            compressible::alphatWallFunction;
        Prt             0.85;
        value           nonuniform List<scalar> 
14
(
0.00013896
0.000147166
0.000146926
0.000152963
0.000158325
0.000163072
0.00016738
0.000171429
0.000175402
0.00017951
0.000183635
0.000187736
0.000192055
0.00019701
)
;
    }
    Table_master
    {
        type            compressible::alphatWallFunction;
        Prt             0.85;
        value           nonuniform List<scalar> 9(0.000193901 0.000169112 0.000149833 0.000134642 0.000122484 0.000112615 0.000104526 9.7934e-05 9.28467e-05);
    }
    Table_slave
    {
        type            compressible::alphatWallFunction;
        Prt             0.85;
        value           nonuniform List<scalar> 9(0.000217244 0.000198506 0.000184055 0.000171906 0.000161502 0.000152125 0.000143234 0.000134334 0.00012462);
    }
    inlet
    {
        type            fixedValue;
        value           uniform 1.94e-05;
    }
    outlet
    {
        type            zeroGradient;
    }
}


// ************************************************************************* //
