/*--------------------------------*- C++ -*----------------------------------*\
  =========                 |
  \\      /  F ield         | OpenFOAM: The Open Source CFD Toolbox
   \\    /   O peration     | Website:  https://openfoam.org
    \\  /    A nd           | Version:  6
     \\/     M anipulation  |
\*---------------------------------------------------------------------------*/
FoamFile
{
    version     2.0;
    format      ascii;
    class       volScalarField;
    location    "28799.9999983237612";
    object      alphat;
}
// * * * * * * * * * * * * * * * * * * * * * * * * * * * * * * * * * * * * * //

dimensions      [1 -1 -1 0 0 0 0];

internalField   nonuniform List<scalar> 
778
(
0.00104099
0.00111057
0.0011066
0.00115465
0.00119869
0.00123869
0.00127592
0.0013118
0.00134793
0.00138631
0.0014229
0.00145766
0.0014919
0.00152874
0.00156718
0.000736745
0.00105538
0.00106384
0.00103801
0.000994892
0.000937351
0.000880053
0.000827276
0.000779678
0.000736981
0.000698922
0.000664734
0.000633591
0.000604526
0.000576243
0.000546672
0.000522127
0.000472601
0.00152466
0.00300735
0.00263931
0.00304638
0.00334184
0.0036551
0.00396758
0.00425552
0.00448724
0.00462207
0.00470133
0.00466863
0.00443581
0.0038591
0.00281859
0.00171595
0.00163608
0.00156614
0.00131895
0.00224641
0.00311321
0.00362478
0.00364838
0.0028796
0.00246271
0.00217367
0.00195439
0.00178009
0.00163146
0.0015
0.00137764
0.00125792
0.00115046
0.0010578
0.00119178
0.000599221
0.00193413
0.00419887
0.00311349
0.00445322
0.00497596
0.00541837
0.00582015
0.0061737
0.00647312
0.00670775
0.00693515
0.00717448
0.00739449
0.00752568
0.00743945
0.00681254
0.0049834
0.00192128
0.00166381
0.00355951
0.00496741
0.00563296
0.00512266
0.00135161
0.00117517
0.00103907
0.000932622
0.000847943
0.000779616
0.000723894
0.000678569
0.000643223
0.000707186
0.000831954
0.00131808
0.000681764
0.00232908
0.0056585
0.00297922
0.00500687
0.00578053
0.00619447
0.0064988
0.00672387
0.00689176
0.00702775
0.00722133
0.00754852
0.00802615
0.00862715
0.009232
0.0095313
0.00895285
0.00668452
0.0019136
0.00442827
0.00659175
0.00769187
0.0079633
0.00679835
0.00153921
0.00139995
0.00129214
0.00120246
0.00112607
0.00105748
0.00099284
0.000928645
0.000859301
0.000802806
0.00083236
0.00142783
0.000750661
0.00271834
0.0074906
0.00300567
0.0047595
0.0059488
0.00630154
0.00642942
0.00643412
0.00636999
0.00631319
0.00639411
0.00671185
0.00729513
0.00812164
0.00908101
0.00996585
0.0105279
0.0105227
0.00944424
0.00960969
0.00983155
0.00986365
0.00966347
0.0090449
0.007198
0.00621736
0.00554562
0.00500004
0.00446479
0.00394627
0.003439
0.00293252
0.00241244
0.00185293
0.00141368
0.00141336
0.00111796
0.000895593
0.00119197
0.0011379
0.00310128
0.00954082
0.00353844
0.00401347
0.00569947
0.00609065
0.00605891
0.00584038
0.00552826
0.00527093
0.0052651
0.00559786
0.00626215
0.00722009
0.00834203
0.00946427
0.0104193
0.0110302
0.0111425
0.0110319
0.0108374
0.0105606
0.0102041
0.00974993
0.00908707
0.00844842
0.00786858
0.00730814
0.00670284
0.00605651
0.00536633
0.00462658
0.00383266
0.00299032
0.00222717
0.0016721
0.00129854
0.0014642
0.00255828
0.00135861
0.00349206
0.011436
0.00471519
0.00328794
0.00512108
0.00576095
0.00568924
0.00533572
0.00482334
0.00437298
0.0043601
0.00478029
0.00554049
0.00661128
0.00783
0.00903753
0.0100773
0.0108226
0.0111661
0.0111409
0.0108973
0.0105274
0.0101034
0.00967999
0.00927034
0.00889437
0.00854111
0.00816396
0.0077082
0.00715971
0.00651063
0.00575804
0.00490493
0.00397258
0.00306007
0.00220972
0.00162704
0.00145929
0.00260856
0.00160591
0.00382782
0.0128687
0.006428
0.0031306
0.00405677
0.0051075
0.00525326
0.00496248
0.00435753
0.00374471
0.00388365
0.00443951
0.00529001
0.00639353
0.00765983
0.00892377
0.010002
0.0107513
0.011092
0.0110485
0.0107334
0.010268
0.00976706
0.00932256
0.00897983
0.00873496
0.0085439
0.008336
0.00804628
0.00764085
0.00710406
0.00643297
0.00563408
0.00473045
0.00378872
0.00283453
0.00197336
0.00133675
0.0038012
0.00212078
0.00392899
0.0121729
0.00795076
0.00404714
0.00274935
0.00337001
0.00394435
0.00399229
0.00352487
0.00342536
0.00378104
0.00443489
0.00535536
0.00652685
0.00785502
0.00915803
0.0102316
0.0109217
0.0111637
0.0109969
0.0105394
0.00993916
0.00934348
0.00886804
0.00856625
0.00841829
0.00835132
0.00827156
0.00810486
0.0078118
0.00737699
0.00679903
0.00608533
0.00525405
0.00433883
0.00330632
0.00188486
0.00173129
0.00596456
0.00241558
0.00384947
0.00981015
0.00820759
0.00555332
0.00366771
0.00283956
0.00268983
0.00281696
0.00305313
0.00342948
0.00396422
0.00470094
0.00570377
0.00696903
0.00837105
0.00969253
0.0107085
0.0112658
0.0113216
0.0109442
0.0102824
0.00952141
0.0088419
0.00837606
0.00816268
0.00813833
0.0081853
0.00818489
0.00807701
0.00783972
0.00746593
0.00695549
0.00631225
0.00554068
0.00461978
0.00329258
0.00141018
0.00332017
0.00552842
0.00244726
0.00360576
0.00838358
0.00793362
0.00635283
0.00488973
0.00393631
0.00346459
0.00335774
0.00355279
0.00391253
0.00443621
0.00521565
0.00632589
0.007716
0.00919098
0.0104837
0.0113559
0.0116752
0.0114404
0.0107683
0.00985931
0.00894979
0.00825779
0.00791007
0.00787069
0.00798658
0.00810317
0.00810556
0.00799163
0.00776204
0.00741278
0.00693892
0.00633229
0.00556772
0.00455082
0.00301941
0.00153245
0.00352297
0.00599617
0.00246295
0.00328306
0.00755909
0.00765228
0.00672333
0.00572013
0.00496439
0.00451907
0.00435922
0.00439912
0.00461695
0.0050994
0.00597302
0.0072603
0.008803
0.0103098
0.0114695
0.0120578
0.0119956
0.0113528
0.0103177
0.00916782
0.00820604
0.00765913
0.00755069
0.00765092
0.00780663
0.00790726
0.00787828
0.00774515
0.00751253
0.00717377
0.00671078
0.00608435
0.00521031
0.00394056
0.00243642
0.0018007
0.00371513
0.00622597
0.00259903
0.00299362
0.00676276
0.00730715
0.00686825
0.00622452
0.00568338
0.00532319
0.00514703
0.00509525
0.00528261
0.00589741
0.0070425
0.00860391
0.0102755
0.0116817
0.0125126
0.0126128
0.0120007
0.0108529
0.00945369
0.00818868
0.00737376
0.00701655
0.00698324
0.00710201
0.00724874
0.00733402
0.0073021
0.00716338
0.00692477
0.00657469
0.00607233
0.00531022
0.00412414
0.00266626
0.00187822
0.00223962
0.00429978
0.00630853
0.00267129
0.00300422
0.00671309
0.00746612
0.00695089
0.00642981
0.00600293
0.00569506
0.0054961
0.00548977
0.00594459
0.007031
0.00865663
0.0104898
0.0121017
0.0131158
0.0133162
0.01269
0.0113916
0.00975116
0.00816108
0.00700462
0.0063265
0.00602413
0.00597825
0.00607131
0.00619416
0.00626135
0.00622327
0.00606425
0.00579907
0.0054084
0.00481639
0.00387455
0.00264827
0.00186744
0.00200042
0.00287158
0.00456349
0.00624763
0.00251516
0.00271013
0.00282062
0.00416502
0.00489671
0.00512403
0.00512903
0.0050812
0.00517843
0.00581028
0.00715939
0.00906285
0.0111197
0.0128749
0.0139478
0.0141188
0.0133547
0.0118499
0.00989905
0.00803987
0.00658284
0.005612
0.00507209
0.00484768
0.00480529
0.00483907
0.00486878
0.00483838
0.0047237
0.00450175
0.00420354
0.00383112
0.00334818
0.00270957
0.00207751
0.00189497
0.00237014
0.00335401
0.00453762
0.00518155
0.0023724
0.000963593
0.00173661
0.00266452
0.00341061
0.00427858
0.00574793
0.0079117
0.0103183
0.0125135
0.014154
0.0150014
0.0148994
0.0138562
0.0119931
0.00978944
0.00771184
0.00607094
0.00498673
0.00440855
0.00414567
0.00403243
0.00397217
0.00390872
0.00380665
0.00365148
0.00345304
0.00323844
0.00302355
0.00282636
0.00263699
0.00243703
0.00225842
0.0022773
0.00273259
0.00365172
0.00478128
0.00572111
0.00233121
0.00178749
0.00246957
0.00359367
0.00560023
0.00831908
0.011041
0.0131453
0.0146671
0.015593
0.0158512
0.0153136
0.0138546
0.011702
0.00927592
0.00706031
0.00541874
0.0044745
0.00404101
0.00386464
0.00379207
0.00375063
0.00370309
0.00362976
0.00352631
0.00340394
0.00328301
0.00318096
0.00310275
0.00304679
0.00300672
0.00298095
0.00298969
0.0030985
0.00344648
0.00422075
0.00559194
0.00644292
0.00254337
0.00323807
0.00787522
0.00727029
0.00649881
0.00823911
0.0109623
0.0132533
0.0147992
0.0156193
0.0158279
0.0155198
0.014633
0.0131039
0.0109764
0.00856038
0.00640327
0.00497588
0.00427949
0.00401419
0.00393951
0.00393754
0.00395276
0.0039561
0.00393421
0.00388711
0.00382504
0.00376222
0.00371049
0.00367665
0.00366424
0.00367607
0.00371847
0.00380535
0.00395153
0.00420689
0.00465771
0.00546688
0.00719315
0.00733789
0.00264531
0.00309506
0.00598095
0.00772003
0.00988371
0.0109659
0.0120748
0.0127152
0.0128648
0.0126173
0.0120359
0.0111372
0.00991389
0.00839796
0.00676562
0.00532137
0.00435553
0.00385548
0.00365399
0.0036144
0.00365815
0.00373756
0.00381966
0.00388284
0.0039177
0.00392621
0.0039171
0.00389984
0.00388138
0.00386825
0.00387209
0.00391371
0.00402179
0.00422677
0.00454645
0.00499978
0.00556484
0.00634964
0.00769225
0.00778758
0.00273064
0.00289479
0.00248122
0.00246898
0.00254125
0.00260096
0.00252392
0.00237465
0.00220098
0.00202646
0.00185847
0.00169758
0.00154569
0.00141167
0.0013107
0.00125411
0.00123083
0.00122911
0.0012392
0.00125493
0.00127282
0.00129089
0.00130827
0.00132487
0.00134134
0.0013589
0.00137921
0.00140439
0.0014371
0.00148073
0.00153914
0.00161544
0.00171041
0.00182157
0.00194479
0.00207813
0.00222273
0.002372
0.00252805
0.00268045
0.00253052
)
;

boundaryField
{
    floor
    {
        type            compressible::alphatWallFunction;
        Prt             0.85;
        value           nonuniform List<scalar> 
36
(
0.000219864
0.000104471
0.000149937
0.000151119
0.000147504
0.000141444
0.00013331
0.000125153
0.000117583
0.000110707
0.000104496
9.89241e-05
9.38873e-05
8.92718e-05
8.49393e-05
8.06988e-05
7.62376e-05
7.25124e-05
6.49284e-05
6.49276e-05
8.41465e-05
9.64007e-05
0.000106491
0.000127373
0.000168927
0.000161443
0.000219861
0.000239664
0.000229055
0.000219718
0.00010447
0.000219716
0.000186329
0.000266685
0.000232737
0.000265682
)
;
    }
    ceiling
    {
        type            compressible::alphatWallFunction;
        Prt             0.85;
        value           nonuniform List<scalar> 
43
(
0.000391185
0.000338974
0.00033742
0.000346619
0.000354205
0.000344463
0.000325464
0.000303189
0.00028061
0.000258676
0.000237466
0.000217235
0.000199191
0.000185454
0.000177693
0.000174482
0.000174237
0.000175619
0.000177782
0.000180241
0.000182726
0.00018511
0.000187383
0.000189632
0.000192019
0.00019477
0.000198163
0.000202552
0.000208383
0.000216158
0.000226287
0.000238856
0.000253521
0.000269704
0.000287097
0.000305844
0.000325088
0.00034507
0.00036445
0.000345365
0.0003683
0.000382191
0.00024863
)
;
    }
    sWall
    {
        type            compressible::alphatWallFunction;
        Prt             0.85;
        value           nonuniform List<scalar> 9(0.000507604 0.000477874 0.000438193 0.000402266 0.000403576 0.000366725 0.000431992 0.00041431 0.000389434);
    }
    nWall
    {
        type            compressible::alphatWallFunction;
        Prt             0.85;
        value           nonuniform List<scalar> 
14
(
0.000160994
0.00019127
0.000224556
0.00033412
0.000336204
0.000353594
0.000362441
0.000342493
0.000324244
0.000319358
0.000346392
0.00035918
0.000369909
0.00034467
)
;
    }
    sideWalls
    {
        type            empty;
    }
    glass1
    {
        type            compressible::alphatWallFunction;
        Prt             0.85;
        value           nonuniform List<scalar> 9(0.000143928 0.000209134 0.00026269 0.000313297 0.000362369 0.000409991 0.000458003 0.000498863 0.000511222);
    }
    glass2
    {
        type            compressible::alphatWallFunction;
        Prt             0.85;
        value           nonuniform List<scalar> 2(0.000289968 0.000327672);
    }
    sun
    {
        type            compressible::alphatWallFunction;
        Prt             0.85;
        value           nonuniform List<scalar> 
14
(
0.000147962
0.00015765
0.000157096
0.000163767
0.000169852
0.000175356
0.000180462
0.000185368
0.00019029
0.000195504
0.00020046
0.000205154
0.000209766
0.000214714
)
;
    }
    Table_master
    {
        type            compressible::alphatWallFunction;
        Prt             0.85;
        value           nonuniform List<scalar> 9(0.000191045 0.000166853 0.000147907 0.000132888 0.000120797 0.000110937 0.000102819 9.61596e-05 9.09292e-05);
    }
    Table_slave
    {
        type            compressible::alphatWallFunction;
        Prt             0.85;
        value           nonuniform List<scalar> 9(0.000216386 0.000197614 0.000182937 0.000170624 0.000160051 0.000150489 0.000141411 0.000132326 0.00012243);
    }
    inlet
    {
        type            fixedValue;
        value           uniform 1.94e-05;
    }
    outlet
    {
        type            zeroGradient;
    }
}


// ************************************************************************* //
