/*--------------------------------*- C++ -*----------------------------------*\
  =========                 |
  \\      /  F ield         | OpenFOAM: The Open Source CFD Toolbox
   \\    /   O peration     | Website:  https://openfoam.org
    \\  /    A nd           | Version:  6
     \\/     M anipulation  |
\*---------------------------------------------------------------------------*/
FoamFile
{
    version     2.0;
    format      ascii;
    class       volScalarField;
    location    "42399.9999996508923";
    object      alphat;
}
// * * * * * * * * * * * * * * * * * * * * * * * * * * * * * * * * * * * * * //

dimensions      [1 -1 -1 0 0 0 0];

internalField   nonuniform List<scalar> 
778
(
0.00104096
0.00111051
0.00110653
0.00115459
0.00119863
0.00123865
0.00127591
0.00131184
0.001348
0.00138644
0.0014231
0.00145792
0.00149221
0.00152908
0.00156754
0.000736971
0.00105526
0.00106384
0.00103811
0.000995064
0.000937559
0.000880234
0.000827395
0.000779741
0.000737012
0.000698948
0.000664764
0.000633628
0.000604569
0.000576288
0.000546717
0.000522163
0.00047262
0.00152462
0.0030071
0.00263917
0.00304614
0.00334143
0.00365454
0.00396695
0.00425494
0.00448684
0.00462194
0.00470139
0.00466883
0.00443602
0.0038592
0.00281864
0.0017163
0.00163644
0.00156641
0.00131829
0.00224585
0.00311277
0.00362475
0.00364864
0.00287993
0.00246291
0.00217403
0.00195487
0.00178053
0.00163171
0.00150015
0.00137774
0.00125798
0.00115051
0.00105781
0.00119151
0.000599127
0.00193407
0.0041984
0.00311344
0.00445307
0.00497555
0.00541776
0.00581948
0.00617316
0.00647292
0.00670805
0.00693586
0.00717553
0.00739567
0.00752648
0.00743913
0.00681069
0.00498089
0.0019213
0.00166367
0.00355974
0.00496688
0.00563183
0.0051207
0.00135131
0.00117502
0.00103907
0.000932722
0.000848083
0.000779754
0.000724005
0.000678649
0.000643278
0.000707328
0.000832037
0.00131757
0.000681488
0.00232899
0.00565768
0.00297913
0.00500699
0.00578032
0.00619405
0.00649829
0.00672346
0.00689169
0.00702825
0.00722238
0.0075502
0.00802831
0.00862929
0.00923319
0.00953024
0.00894775
0.00667246
0.00191389
0.0044365
0.00659788
0.00769401
0.00796311
0.00679656
0.00153903
0.00139976
0.00129199
0.00120242
0.0011261
0.00105756
0.000992926
0.000928725
0.00085937
0.000803034
0.000832531
0.00142677
0.000750143
0.00271822
0.00748936
0.0030053
0.00475991
0.00594883
0.00630136
0.00642918
0.00643396
0.00637012
0.00631385
0.00639539
0.00671393
0.00729804
0.00812499
0.00908428
0.00996828
0.01053
0.0105249
0.00944734
0.00961468
0.00983524
0.00986526
0.00966355
0.00904385
0.00719611
0.00621562
0.00554424
0.00499813
0.00446326
0.00394543
0.00343884
0.00293281
0.00241283
0.00185331
0.00141417
0.00141308
0.00111751
0.00089457
0.00118534
0.00113013
0.00310112
0.00953923
0.00353752
0.00401403
0.00569972
0.00609068
0.00605891
0.00584052
0.00552867
0.00527168
0.00526625
0.00559967
0.00626476
0.00722305
0.00834547
0.00946724
0.0104236
0.0110352
0.0111478
0.0110367
0.0108408
0.0105623
0.0102045
0.00974948
0.00908606
0.00844736
0.00786774
0.00730681
0.00670188
0.0060563
0.00536685
0.00462752
0.00383364
0.00299133
0.00222865
0.00167333
0.00129849
0.00146464
0.00255182
0.00135001
0.00349183
0.0114344
0.00471339
0.0032883
0.00512156
0.00576108
0.00568935
0.005336
0.00482388
0.00437353
0.0043606
0.00478102
0.00554157
0.00661177
0.00783131
0.00903944
0.0100804
0.0108269
0.011171
0.0111453
0.0109004
0.010529
0.0101038
0.00967967
0.00926963
0.00889359
0.00854049
0.00816313
0.00770785
0.00716014
0.00651172
0.00575943
0.00490637
0.00397458
0.00306378
0.00221358
0.00162917
0.0014628
0.00259161
0.00159423
0.00382756
0.0128675
0.00642548
0.00313026
0.0040577
0.00510784
0.00525323
0.00496241
0.0043582
0.00374458
0.00388346
0.00443909
0.00528899
0.00639156
0.00765732
0.00892183
0.0100018
0.0107531
0.011095
0.0110515
0.0107353
0.0102686
0.00976669
0.00932164
0.0089786
0.0087336
0.00854263
0.00833472
0.00804569
0.0076412
0.00710517
0.00643445
0.00563592
0.00473402
0.00379673
0.00284543
0.00198933
0.00132344
0.00381566
0.00209834
0.00392888
0.0121742
0.00794888
0.00404515
0.00275019
0.00337216
0.00394504
0.00399208
0.00352459
0.00342532
0.00378103
0.00443397
0.00535235
0.00652115
0.00784754
0.00915096
0.0102271
0.0109202
0.0111643
0.0109978
0.0105391
0.00993758
0.00934113
0.00886546
0.00856355
0.00841536
0.00834835
0.00826863
0.00810276
0.00781087
0.00737708
0.00679985
0.00608732
0.00525973
0.00435197
0.00333133
0.00195587
0.00162513
0.00597049
0.0023568
0.00384953
0.00981258
0.00820726
0.00555136
0.00366641
0.0028397
0.00269086
0.0028179
0.003054
0.0034306
0.00396489
0.00469952
0.00569823
0.00695866
0.0083577
0.00967984
0.0106996
0.0112614
0.0113198
0.0109425
0.010279
0.00951631
0.00883641
0.00837087
0.00815748
0.00813257
0.00817912
0.00817855
0.00807162
0.00783557
0.00746276
0.00695315
0.00631201
0.0055449
0.00462066
0.0033151
0.00157639
0.00265206
0.00602916
0.00242257
0.00360605
0.00838565
0.007934
0.00635184
0.00488867
0.00393591
0.00346505
0.00335903
0.00355469
0.00391462
0.0044372
0.00521286
0.00631646
0.00769956
0.00917105
0.0104658
0.0113441
0.0116695
0.0114374
0.0107641
0.00985195
0.00894061
0.00824935
0.00790227
0.00786183
0.00797601
0.00809188
0.00809406
0.00798159
0.0077529
0.00740332
0.0069289
0.00632466
0.00555648
0.00444711
0.0027414
0.00164928
0.00322446
0.00636307
0.00243639
0.00328349
0.00755975
0.00765221
0.00672258
0.00571931
0.00496387
0.00451911
0.00435974
0.00440076
0.0046189
0.00509941
0.00596692
0.00724464
0.00877887
0.0102835
0.0114487
0.0120469
0.0119924
0.011351
0.010312
0.00915792
0.00819592
0.00765102
0.00754003
0.00763495
0.00778839
0.00788933
0.00786227
0.0077315
0.00749886
0.00715697
0.00669476
0.00608355
0.005193
0.0036316
0.00191651
0.00204161
0.00375326
0.00620122
0.00239212
0.00299383
0.00676034
0.00730483
0.00686635
0.00622301
0.00568226
0.00532261
0.00514739
0.00509651
0.00528376
0.0058947
0.00703018
0.00857922
0.010243
0.0116516
0.0124949
0.01261
0.0120061
0.0108562
0.00945123
0.00818597
0.00737183
0.00700799
0.00695865
0.00706449
0.00721204
0.00730796
0.00728354
0.00715248
0.00691504
0.00656302
0.00607618
0.00537442
0.00416158
0.00239753
0.00176711
0.00257053
0.00401737
0.00535614
0.00230637
0.00300331
0.00670969
0.0074622
0.00694802
0.00642763
0.0060014
0.00569428
0.00549654
0.00549113
0.00594448
0.00702305
0.00863452
0.0104543
0.0120636
0.0130901
0.013313
0.0127069
0.0114142
0.00976823
0.00817884
0.00702354
0.00633193
0.00599802
0.00591724
0.00599304
0.00612912
0.00623014
0.00621005
0.00606612
0.00579827
0.00540661
0.004884
0.00417038
0.00310958
0.00201386
0.00191854
0.00286354
0.00414234
0.00506481
0.00224125
0.00270953
0.00282011
0.00416522
0.00489727
0.00512501
0.00513051
0.00508324
0.00518127
0.00581334
0.00715687
0.00904608
0.0110856
0.0128322
0.0139152
0.0141142
0.0133835
0.0119018
0.00995558
0.00810045
0.00664206
0.00564948
0.00506801
0.00479381
0.00471001
0.004732
0.00479247
0.00481815
0.00473262
0.00451593
0.00418424
0.00377297
0.0033307
0.00288916
0.00243788
0.00204997
0.00212523
0.00300103
0.00435218
0.00566807
0.00234721
0.000964842
0.00174033
0.00267156
0.00341943
0.00428819
0.00575783
0.00791727
0.0103102
0.0124864
0.0141135
0.0149656
0.0148936
0.0138964
0.0120745
0.00990354
0.00783981
0.00619019
0.00507024
0.00444127
0.00412332
0.00396142
0.00387364
0.00381777
0.00375913
0.00365774
0.00348129
0.00323098
0.00295147
0.00270096
0.00252254
0.00242496
0.00239498
0.00243993
0.00267051
0.0033914
0.00503394
0.00583611
0.0024563
0.00178741
0.00247492
0.0036045
0.00561724
0.0083387
0.0110551
0.0131484
0.0146541
0.015565
0.0158214
0.0153083
0.0139086
0.0118314
0.00946883
0.00728282
0.00561989
0.00461573
0.00410532
0.00385081
0.00371307
0.00363275
0.00358106
0.00353571
0.00347326
0.00337309
0.00323255
0.00307917
0.00295212
0.00288307
0.00288318
0.0029453
0.00306266
0.00325454
0.00359426
0.00427206
0.00598736
0.00631615
0.00250472
0.00323789
0.0078593
0.00725734
0.0065074
0.00826299
0.0109934
0.0132856
0.0148233
0.0156272
0.0158203
0.0155051
0.0146388
0.0131719
0.0111617
0.00887441
0.00674839
0.00525042
0.00443133
0.00402692
0.00381938
0.00371325
0.00367221
0.00367552
0.00370187
0.00372712
0.00372929
0.00369865
0.00364693
0.00360389
0.0035869
0.00360515
0.00366007
0.00374894
0.00387537
0.00406454
0.00438009
0.00495964
0.0062748
0.00678132
0.00245138
0.0030954
0.00598558
0.00774565
0.00990863
0.0109965
0.0121109
0.0127529
0.0128992
0.0126441
0.012056
0.0111637
0.00997898
0.00855492
0.00705323
0.00573246
0.00475465
0.00412423
0.00374376
0.00351801
0.00340043
0.00337126
0.00341607
0.0035156
0.00364341
0.00376885
0.00386527
0.00392122
0.00395074
0.00398334
0.00403254
0.00410473
0.0042018
0.00432072
0.00446385
0.00464373
0.00487285
0.00519057
0.00596658
0.00705519
0.0024138
0.0028954
0.00248055
0.00246804
0.00253927
0.00259768
0.00251806
0.00236617
0.00219092
0.00201734
0.00185427
0.00170276
0.00156331
0.00144035
0.0013423
0.00127675
0.00124581
0.0012364
0.00124039
0.00125413
0.0012749
0.00130009
0.00132728
0.0013546
0.0013809
0.00140587
0.00142999
0.00145435
0.0014803
0.00150916
0.0015421
0.00157979
0.00162299
0.00167382
0.00173654
0.00181856
0.0019291
0.00207349
0.00224641
0.00242985
0.00228235
)
;

boundaryField
{
    floor
    {
        type            compressible::alphatWallFunction;
        Prt             0.85;
        value           nonuniform List<scalar> 
36
(
0.000219912
0.000104504
0.000149921
0.000151121
0.00014752
0.00014147
0.000133341
0.000125179
0.000117601
0.000110717
0.000104502
9.89284e-05
9.38922e-05
8.92778e-05
8.49461e-05
8.0706e-05
7.62449e-05
7.25181e-05
6.49316e-05
6.49308e-05
8.41329e-05
9.63607e-05
0.000106417
0.000127227
0.00016798
0.000160355
0.00021991
0.000239711
0.000229104
0.000219756
0.000104503
0.000219754
0.00018624
0.000266689
0.000232718
0.00026572
)
;
    }
    ceiling
    {
        type            compressible::alphatWallFunction;
        Prt             0.85;
        value           nonuniform List<scalar> 
43
(
0.000391261
0.000338886
0.000337299
0.000346365
0.000353785
0.00034371
0.000324366
0.000301867
0.000279385
0.00025807
0.000238085
0.000219525
0.000203013
0.000189736
0.000180795
0.000176545
0.000175248
0.000175787
0.000177665
0.000180509
0.000183959
0.000187683
0.000191419
0.000195011
0.000198414
0.000201694
0.000204997
0.000208503
0.000212391
0.000216816
0.000221867
0.000227633
0.000234371
0.000242622
0.00025333
0.000267681
0.000286347
0.000308592
0.000332046
0.000313392
0.000368226
0.000382126
0.00024862
)
;
    }
    sWall
    {
        type            compressible::alphatWallFunction;
        Prt             0.85;
        value           nonuniform List<scalar> 9(0.000507612 0.00047791 0.000438245 0.00040229 0.000403464 0.000366651 0.000431971 0.000414353 0.00038951);
    }
    nWall
    {
        type            compressible::alphatWallFunction;
        Prt             0.85;
        value           nonuniform List<scalar> 
14
(
0.000159907
0.000190101
0.000222981
0.000330927
0.000332622
0.000326889
0.000315888
0.000307677
0.000321774
0.000335253
0.000341386
0.00033408
0.000329273
0.000312709
)
;
    }
    sideWalls
    {
        type            empty;
    }
    glass1
    {
        type            compressible::alphatWallFunction;
        Prt             0.85;
        value           nonuniform List<scalar> 9(0.000143924 0.000209129 0.000262683 0.000313287 0.000362354 0.000409972 0.000457975 0.000498832 0.000511209);
    }
    glass2
    {
        type            compressible::alphatWallFunction;
        Prt             0.85;
        value           nonuniform List<scalar> 2(0.000286979 0.000320206);
    }
    sun
    {
        type            compressible::alphatWallFunction;
        Prt             0.85;
        value           nonuniform List<scalar> 
14
(
0.000147958
0.000157642
0.000157087
0.000163757
0.000169844
0.000175351
0.000180461
0.000185371
0.0001903
0.000195522
0.000200486
0.000205188
0.000209807
0.00021476
)
;
    }
    Table_master
    {
        type            compressible::alphatWallFunction;
        Prt             0.85;
        value           nonuniform List<scalar> 9(0.000191006 0.000166833 0.000147909 0.000132904 0.000120819 0.000110958 0.000102836 9.6172e-05 9.09379e-05);
    }
    Table_slave
    {
        type            compressible::alphatWallFunction;
        Prt             0.85;
        value           nonuniform List<scalar> 9(0.000216363 0.000197589 0.000182918 0.00017062 0.000160058 0.000150501 0.000141424 0.000132339 0.000122441);
    }
    inlet
    {
        type            fixedValue;
        value           uniform 1.94e-05;
    }
    outlet
    {
        type            zeroGradient;
    }
}


// ************************************************************************* //
