/*--------------------------------*- C++ -*----------------------------------*\
  =========                 |
  \\      /  F ield         | OpenFOAM: The Open Source CFD Toolbox
   \\    /   O peration     | Website:  https://openfoam.org
    \\  /    A nd           | Version:  6
     \\/     M anipulation  |
\*---------------------------------------------------------------------------*/
FoamFile
{
    version     2.0;
    format      ascii;
    class       volVectorField;
    location    "2240";
    object      U;
}
// * * * * * * * * * * * * * * * * * * * * * * * * * * * * * * * * * * * * * //

dimensions      [0 1 -1 0 0 0 0];

internalField   nonuniform List<vector> 
458
(
(0.0348252 0.0885224 0)
(-0.172081 0.026584 0)
(-0.199349 0.0191133 0)
(-0.233224 0.0130811 0)
(-0.258397 0.00641374 0)
(-0.273601 -0.000804846 0)
(-0.276731 -0.00877821 0)
(-0.265483 -0.0177782 0)
(-0.239425 -0.0274272 0)
(-0.199713 -0.0361121 0)
(-0.150447 -0.042052 0)
(-0.0978296 -0.0436519 0)
(-0.0487289 -0.039082 0)
(-0.00626952 -0.0236847 0)
(-0.0102631 0.00977303 0)
(-0.0102386 0.0105133 0)
(-0.0372612 -0.0174867 0)
(-0.0145115 -0.0291032 0)
(0.0136677 -0.0251834 0)
(0.0334392 -0.0178893 0)
(0.0480557 -0.00955483 0)
(0.0568151 -0.00517623 0)
(0.0606939 -0.00363238 0)
(0.0621295 -0.00308271 0)
(0.0627789 -0.00275986 0)
(0.0630888 -0.00250941 0)
(0.063028 -0.00224147 0)
(0.0624303 -0.00179745 0)
(0.0608389 -0.000838873 0)
(0.0572372 0.00107435 0)
(0.0505181 0.00317039 0)
(0.0451139 0.00508603 0)
(-0.0141475 0.0219478 0)
(0.214273 0.18189 0)
(-0.162149 0.0709935 0)
(-0.162942 0.0577628 0)
(-0.198658 0.0457437 0)
(-0.224134 0.0319886 0)
(-0.24011 0.0161759 0)
(-0.244613 -0.00240987 0)
(-0.235117 -0.0239667 0)
(-0.211869 -0.0461702 0)
(-0.176486 -0.0649274 0)
(-0.133356 -0.0764279 0)
(-0.0881266 -0.0782003 0)
(-0.0462594 -0.0687312 0)
(-0.0100261 -0.0460176 0)
(0.0194108 -0.0133801 0)
(0.0442439 0.0078501 0)
(0.0548482 0.0347585 0)
(-0.0118079 0.0706832 0)
(0.0670392 0.0439827 0)
(0.0102864 -0.021834 0)
(0.0265176 -0.0378986 0)
(0.0407457 -0.0356452 0)
(0.0531349 -0.0273417 0)
(0.0595571 -0.0120938 0)
(0.0611772 -0.00275365 0)
(0.0612271 0.000745418 0)
(0.0613918 0.00202298 0)
(0.061717 0.00272171 0)
(0.061942 0.00322156 0)
(0.0619995 0.00367487 0)
(0.0618956 0.00440713 0)
(0.0611846 0.00620497 0)
(0.0577881 0.0112233 0)
(0.0490974 0.0155322 0)
(0.0476928 0.0187034 0)
(-0.0584296 0.0475493 0)
(0.379535 0.272956 0)
(-0.180118 0.113734 0)
(-0.123513 0.0941099 0)
(-0.159198 0.0724349 0)
(-0.1826 0.0495033 0)
(-0.198411 0.0236429 0)
(-0.204063 -0.00653487 0)
(-0.195374 -0.0409799 0)
(-0.173592 -0.0757815 0)
(-0.141425 -0.10365 0)
(-0.103841 -0.118954 0)
(-0.065895 -0.119157 0)
(-0.0318226 -0.104121 0)
(-0.00227653 -0.0743986 0)
(0.0220315 -0.0400738 0)
(0.037598 -0.0152195 0)
(0.0431799 0.013164 0)
(-0.023659 0.0623208 0)
(0.122491 -0.00753022 0)
(0.0725109 -0.0320897 0)
(0.0643127 -0.0419286 0)
(0.0672613 -0.0417569 0)
(0.0718716 -0.0380441 0)
(0.0734898 -0.0282282 0)
(0.0643665 -0.0183292 0)
(0.057412 -0.0130271 0)
(0.0548134 -0.0100786 0)
(0.054122 -0.00818604 0)
(0.0538879 -0.00689749 0)
(0.0539582 -0.00590259 0)
(0.0547575 -0.00475356 0)
(0.0572082 -0.0013989 0)
(0.0561027 0.0149935 0)
(0.0445869 0.0258687 0)
(0.0541328 0.0332459 0)
(-0.0993795 0.0727932 0)
(0.53003 0.346653 0)
(-0.21667 0.151756 0)
(-0.0801996 0.125837 0)
(-0.115538 0.0962973 0)
(-0.133418 0.0672245 0)
(-0.14693 0.0337634 0)
(-0.152516 -0.00711128 0)
(-0.142621 -0.0550543 0)
(-0.121288 -0.102309 0)
(-0.0929788 -0.137841 0)
(-0.0625317 -0.155427 0)
(-0.0335722 -0.153429 0)
(-0.00879778 -0.133439 0)
(0.0128654 -0.097924 0)
(0.030433 -0.0589731 0)
(0.0443574 -0.0228968 0)
(0.0599559 0.0131498 0)
(0.0588241 0.0534419 0)
(0.100335 0.061506 0)
(0.0988173 -0.00244033 0)
(0.0851527 -0.0293881 0)
(0.0784691 -0.0376902 0)
(0.0736177 -0.0383941 0)
(0.0670221 -0.0341077 0)
(0.0666028 -0.0208388 0)
(0.0772786 -0.0138303 0)
(0.0862415 -0.0101073 0)
(0.0916405 -0.00782432 0)
(0.0948799 -0.00591654 0)
(0.0962859 -0.00385546 0)
(0.0945176 -0.00119007 0)
(0.0882554 0.00248032 0)
(0.0757133 0.00774299 0)
(0.0597992 0.0250976 0)
(0.0440618 0.0405828 0)
(0.0629782 0.053344 0)
(-0.131388 0.0942771 0)
(0.662684 0.403811 0)
(-0.262354 0.182679 0)
(-0.0350339 0.145258 0)
(-0.0687494 0.11132 0)
(-0.077946 0.0792337 0)
(-0.0862937 0.0412502 0)
(-0.0890491 -0.00798745 0)
(-0.0740288 -0.0688146 0)
(-0.0534829 -0.125902 0)
(-0.0315793 -0.165074 0)
(-0.0112754 -0.181844 0)
(0.00616138 -0.175992 0)
(0.0193255 -0.151484 0)
(0.0303437 -0.114539 0)
(0.0401938 -0.0729584 0)
(0.0494384 -0.0337229 0)
(0.0619372 0.000675529 0)
(0.0760399 0.0197177 0)
(0.0903292 -0.000566179 0)
(0.0896867 -0.0213719 0)
(0.0826202 -0.0300334 0)
(0.0738135 -0.0325493 0)
(0.0655686 -0.0316292 0)
(0.0586241 -0.0266319 0)
(0.0568426 -0.0155115 0)
(0.0603959 -0.00902615 0)
(0.0647371 -0.00637167 0)
(0.0684602 -0.00482937 0)
(0.0717027 -0.00274919 0)
(0.0742094 0.000781513 0)
(0.0750586 0.00596845 0)
(0.0731645 0.0129867 0)
(0.0682552 0.0224379 0)
(0.0612082 0.0371776 0)
(0.050056 0.0536291 0)
(0.074859 0.072748 0)
(-0.00684604 0.10138 0)
(0.055788 0.150674 0)
(-0.0835197 0.0748405 0)
(-0.277797 0.000488006 0)
(0.761892 0.451326 0)
(-0.308551 0.20334 0)
(0.00243022 0.143886 0)
(-0.0205838 0.116259 0)
(-0.0197895 0.0857226 0)
(-0.0214992 0.0472958 0)
(-0.0143137 -0.00693655 0)
(0.0103159 -0.0859254 0)
(0.0269248 -0.146193 0)
(0.0388267 -0.182425 0)
(0.0460467 -0.194555 0)
(0.0488948 -0.185053 0)
(0.0486301 -0.158121 0)
(0.0472253 -0.119918 0)
(0.0460517 -0.0779395 0)
(0.0464686 -0.0397074 0)
(0.0508208 -0.00999097 0)
(0.0599696 0.00482468 0)
(0.0662466 -0.00105142 0)
(0.0649938 -0.0110135 0)
(0.0586084 -0.0188061 0)
(0.0504375 -0.022911 0)
(0.0427993 -0.0236606 0)
(0.0368231 -0.0211343 0)
(0.0342716 -0.0157701 0)
(0.0354207 -0.0122938 0)
(0.0383744 -0.0108625 0)
(0.0420304 -0.00977444 0)
(0.0460902 -0.00763822 0)
(0.0502726 -0.00338408 0)
(0.0544832 0.00368403 0)
(0.0570002 0.0131866 0)
(0.0581664 0.0249441 0)
(0.0592913 0.0395783 0)
(0.0583675 0.0559998 0)
(0.0797088 0.0766953 0)
(0.0654482 0.0889839 0)
(0.0997221 0.0967315 0)
(0.117478 0.0571988 0)
(-0.136895 -0.0299281 0)
(0.815615 0.49419 0)
(-0.334123 0.187371 0)
(0.0322409 0.0938001 0)
(0.039063 0.101054 0)
(0.0459316 0.0830005 0)
(0.0516241 0.039371 0)
(0.0790982 -0.031171 0)
(0.10311 -0.103704 0)
(0.113287 -0.157016 0)
(0.112862 -0.186332 0)
(0.104582 -0.192433 0)
(0.0907903 -0.178777 0)
(0.0740945 -0.14977 0)
(0.0575008 -0.111563 0)
(0.0429712 -0.0709102 0)
(0.0326163 -0.035696 0)
(0.0281003 -0.010757 0)
(0.029501 0.0009909 0)
(0.0311371 -0.000280318 0)
(0.029636 -0.00656862 0)
(0.0249845 -0.01263 0)
(0.0188651 -0.0163691 0)
(0.0128395 -0.0177424 0)
(0.00803304 -0.017104 0)
(0.00567181 -0.015195 0)
(0.00601381 -0.0141006 0)
(0.00805302 -0.0139674 0)
(0.0110513 -0.0137416 0)
(0.0148465 -0.0123608 0)
(0.0195244 -0.00873928 0)
(0.0256932 -0.00163519 0)
(0.0333027 0.00886911 0)
(0.0400691 0.0208903 0)
(0.0478779 0.0341601 0)
(0.0558773 0.0479597 0)
(0.075452 0.0644568 0)
(0.0882329 0.0697705 0)
(0.11967 0.0632093 0)
(0.163391 0.0513056 0)
(-0.0203521 0.095488 0)
(0.92187 0.497288 0)
(-0.0766775 0.16742 0)
(0.110609 0.0261625 0)
(0.163738 0.0227938 0)
(0.161399 0.0155477 0)
(0.162865 -0.0293623 0)
(0.196489 -0.0804101 0)
(0.211272 -0.125543 0)
(0.20536 -0.158278 0)
(0.185092 -0.173983 0)
(0.155585 -0.171675 0)
(0.121086 -0.153974 0)
(0.0852894 -0.124275 0)
(0.0523623 -0.0880746 0)
(0.0244569 -0.0510596 0)
(0.00511244 -0.021929 0)
(-0.00463362 -0.00442876 0)
(-0.00656012 0.00175784 0)
(-0.00644084 0.000662816 0)
(-0.00764142 -0.00366326 0)
(-0.0109412 -0.00801306 0)
(-0.0154396 -0.0110772 0)
(-0.0200739 -0.0128475 0)
(-0.0239381 -0.0136838 0)
(-0.0263202 -0.0141348 0)
(-0.0272118 -0.0148861 0)
(-0.0271758 -0.0158702 0)
(-0.026594 -0.0165837 0)
(-0.0254665 -0.016498 0)
(-0.0234871 -0.0150356 0)
(-0.0198617 -0.0114651 0)
(-0.0117089 -0.00490917 0)
(-9.4016e-05 0.00445951 0)
(0.0110863 0.0137605 0)
(0.0226898 0.0208654 0)
(0.0398998 0.0277362 0)
(0.0554299 0.0224379 0)
(0.0795691 0.00564777 0)
(0.146408 0.0479781 0)
(-0.428338 0.212666 0)
(1.06591 0.444166 0)
(0.518239 0.298302 0)
(0.529534 0.249859 0)
(0.518392 0.182906 0)
(0.469838 0.122439 0)
(0.433158 0.0601136 0)
(0.392048 -0.00742323 0)
(0.342843 -0.0669799 0)
(0.289084 -0.107862 0)
(0.232746 -0.126612 0)
(0.175363 -0.1251 0)
(0.118904 -0.108912 0)
(0.0654551 -0.0822849 0)
(0.0202335 -0.051262 0)
(-0.0161046 -0.0208448 0)
(-0.0329493 -0.0060729 0)
(-0.0401272 0.000441079 0)
(-0.0416837 0.00220647 0)
(-0.0420621 0.0010076 0)
(-0.0432039 -0.00163974 0)
(-0.0458317 -0.00451723 0)
(-0.0494806 -0.00704483 0)
(-0.0535056 -0.00913467 0)
(-0.0573702 -0.0108634 0)
(-0.0608176 -0.0123653 0)
(-0.0640106 -0.0137468 0)
(-0.0673531 -0.0148453 0)
(-0.0712206 -0.0153016 0)
(-0.0759669 -0.0146313 0)
(-0.0820652 -0.0121812 0)
(-0.0902075 -0.00711417 0)
(-0.101118 0.00142867 0)
(-0.112752 0.0133223 0)
(-0.127984 0.0284141 0)
(-0.152908 0.0467844 0)
(-0.190232 0.0673933 0)
(-0.241634 0.0862252 0)
(-0.297562 0.0999182 0)
(-0.371646 0.106911 0)
(-0.650669 0.106304 0)
(0.233922 0.052833 0)
(0.30589 0.115964 0)
(0.321217 0.0913677 0)
(0.299643 0.0395775 0)
(0.275047 -0.0106035 0)
(0.244386 -0.0469404 0)
(0.203097 -0.0684138 0)
(0.154002 -0.0754165 0)
(0.100436 -0.0686994 0)
(0.0461627 -0.0529163 0)
(-0.00863373 -0.0295129 0)
(-0.045136 -0.0114967 0)
(-0.0635939 -0.00313949 0)
(-0.0709247 -0.000758154 0)
(-0.0731605 -0.000284362 0)
(-0.0734787 -0.000982757 0)
(-0.0737804 -0.00258385 0)
(-0.0749185 -0.00467914 0)
(-0.0771333 -0.0067677 0)
(-0.0803885 -0.00854752 0)
(-0.0841845 -0.0100191 0)
(-0.0882914 -0.0111408 0)
(-0.0927206 -0.0119153 0)
(-0.0976257 -0.0123094 0)
(-0.103157 -0.0121328 0)
(-0.109348 -0.0110405 0)
(-0.116066 -0.00856324 0)
(-0.122967 -0.00415718 0)
(-0.129429 0.0027389 0)
(-0.134402 0.0123367 0)
(-0.13837 0.0256175 0)
(-0.141807 0.0431792 0)
(-0.146018 0.0642222 0)
(-0.151772 0.0850512 0)
(-0.155358 0.0955473 0)
(-0.141303 0.0734013 0)
(-0.110248 -0.0250081 0)
(-0.286611 -0.213741 0)
(0.120026 0.324336 0)
(0.00839101 0.203593 0)
(0.0392644 0.118449 0)
(0.0584777 0.0604345 0)
(0.0631249 0.0216235 0)
(0.0601106 -0.00478701 0)
(0.0401964 -0.019913 0)
(0.0054166 -0.0189536 0)
(-0.0365993 -0.0017185 0)
(-0.0701177 0.0128796 0)
(-0.0912289 0.0208812 0)
(-0.100243 0.0232642 0)
(-0.102467 0.0233919 0)
(-0.102413 0.0234445 0)
(-0.101541 0.0241584 0)
(-0.100509 0.0252848 0)
(-0.0997868 0.0264258 0)
(-0.0996596 0.027176 0)
(-0.100185 0.027111 0)
(-0.101326 0.0259062 0)
(-0.10312 0.0238732 0)
(-0.105496 0.0216292 0)
(-0.108388 0.01945 0)
(-0.111706 0.017481 0)
(-0.115314 0.0158324 0)
(-0.118997 0.0146132 0)
(-0.122446 0.0139603 0)
(-0.125176 0.0140308 0)
(-0.126372 0.0155217 0)
(-0.124865 0.01989 0)
(-0.119076 0.0282964 0)
(-0.107619 0.0417408 0)
(-0.0903519 0.0602413 0)
(-0.0683173 0.0804254 0)
(-0.0434463 0.0948377 0)
(-0.0075844 0.0857779 0)
(0.14694 0.00930472 0)
(-0.209928 -0.129684 0)
(-0.422121 -0.516031 0)
(-0.63732 -0.143275 0)
(-0.449399 0.17776 0)
(-0.357933 0.0560785 0)
(-0.213898 -0.00554149 0)
(-0.14561 -0.0477921 0)
(-0.117165 -0.0705416 0)
(-0.112985 -0.0713643 0)
(-0.122345 -0.06269 0)
(-0.134862 -0.0549782 0)
(-0.140346 -0.0505072 0)
(-0.138587 -0.0490678 0)
(-0.134126 -0.0499529 0)
(-0.128944 -0.0527751 0)
(-0.124482 -0.0563026 0)
(-0.121038 -0.0599461 0)
(-0.118239 -0.0635879 0)
(-0.115826 -0.0672845 0)
(-0.113758 -0.0708857 0)
(-0.112109 -0.0739021 0)
(-0.11101 -0.0756823 0)
(-0.110624 -0.0757897 0)
(-0.111053 -0.0743575 0)
(-0.11226 -0.0719866 0)
(-0.114071 -0.0689149 0)
(-0.116261 -0.0652753 0)
(-0.118549 -0.0610878 0)
(-0.120567 -0.0562789 0)
(-0.121832 -0.0506325 0)
(-0.121711 -0.0438023 0)
(-0.119187 -0.035815 0)
(-0.112354 -0.0266903 0)
(-0.0984066 -0.0158836 0)
(-0.0748449 -0.00248684 0)
(-0.041551 0.0143639 0)
(0.00931593 0.0362841 0)
(0.0618658 0.042347 0)
(0.109598 0.0240443 0)
(0.172058 -0.0159431 0)
(-0.19629 -0.0826848 0)
)
;

boundaryField
{
    floor
    {
        type            noSlip;
    }
    ceiling
    {
        type            noSlip;
    }
    sWall
    {
        type            noSlip;
    }
    nWall
    {
        type            noSlip;
    }
    sideWalls
    {
        type            empty;
    }
    glass1
    {
        type            noSlip;
    }
    glass2
    {
        type            noSlip;
    }
    sun
    {
        type            noSlip;
    }
    Table_master
    {
        type            noSlip;
    }
    Table_slave
    {
        type            noSlip;
    }
    inlet
    {
        type            fixedValue;
        value           uniform (0.46194 -0.191342 0);
    }
    outlet
    {
        type            zeroGradient;
    }
}


// ************************************************************************* //
