/*--------------------------------*- C++ -*----------------------------------*\
  =========                 |
  \\      /  F ield         | OpenFOAM: The Open Source CFD Toolbox
   \\    /   O peration     | Website:  https://openfoam.org
    \\  /    A nd           | Version:  6
     \\/     M anipulation  |
\*---------------------------------------------------------------------------*/
FoamFile
{
    version     2.0;
    format      ascii;
    class       volScalarField;
    location    "40199.9999992026933";
    object      alphat;
}
// * * * * * * * * * * * * * * * * * * * * * * * * * * * * * * * * * * * * * //

dimensions      [1 -1 -1 0 0 0 0];

internalField   nonuniform List<scalar> 
778
(
0.00104097
0.00111054
0.00110658
0.00115464
0.00119869
0.0012387
0.00127595
0.00131186
0.001348
0.00138641
0.00142303
0.0014578
0.00149205
0.00152889
0.00156733
0.00073686
0.00105523
0.00106373
0.00103793
0.000994842
0.000937339
0.000880057
0.000827269
0.000779652
0.000736942
0.000698881
0.000664696
0.000633559
0.000604499
0.000576221
0.000546655
0.000522116
0.000472592
0.00152463
0.00300723
0.00263924
0.00304625
0.00334165
0.00365487
0.00396736
0.00425537
0.00448719
0.00462211
0.00470143
0.00466874
0.00443584
0.00385904
0.00281852
0.00171604
0.00163617
0.00156618
0.00131865
0.00224606
0.00311268
0.0036242
0.00364784
0.00287946
0.00246252
0.00217357
0.00195441
0.00178016
0.00163148
0.00149999
0.00137761
0.00125788
0.00115042
0.00105774
0.00119172
0.00059914
0.00193408
0.00419864
0.0031135
0.00445311
0.00497574
0.0054181
0.00581992
0.0061736
0.00647321
0.00670804
0.00693559
0.00717497
0.00739484
0.00752558
0.00743856
0.00681082
0.00498165
0.00192117
0.00166381
0.00355991
0.0049673
0.00563216
0.00512114
0.00135129
0.0011749
0.00103889
0.000932517
0.000847887
0.000779587
0.000723872
0.000678545
0.000643195
0.000707238
0.00083201
0.00131814
0.000681583
0.00232901
0.00565808
0.00297922
0.00500694
0.0057804
0.00619429
0.00649863
0.00672382
0.00689193
0.00702819
0.00722203
0.00754944
0.00802712
0.00862783
0.00923197
0.00953004
0.00894983
0.00667924
0.00191374
0.00443203
0.00659535
0.00769364
0.00796352
0.00679733
0.00153908
0.00139977
0.00129194
0.00120231
0.00112594
0.00105738
0.000992749
0.000928553
0.000859197
0.000802819
0.000832463
0.00142801
0.000750304
0.00271824
0.00748997
0.00300551
0.00475978
0.00594881
0.00630146
0.00642935
0.00643414
0.00637019
0.00631368
0.00639492
0.00671298
0.00729646
0.0081229
0.00908201
0.00996639
0.0105284
0.0105233
0.00944555
0.00961217
0.00983381
0.00986498
0.00966381
0.00904428
0.00719671
0.00621591
0.00554422
0.00499819
0.00446306
0.0039449
0.00343803
0.00293187
0.00241195
0.00185249
0.00141331
0.00141323
0.00111757
0.000895157
0.00119241
0.00113555
0.00310115
0.00954005
0.00353796
0.00401387
0.00569964
0.00609067
0.00605891
0.00584046
0.00552848
0.00527135
0.00526574
0.00559875
0.00626316
0.00722088
0.00834276
0.00946477
0.0104205
0.0110321
0.0111447
0.0110342
0.0108393
0.0105619
0.0102046
0.00974976
0.00908632
0.0084474
0.00786749
0.00730654
0.00670122
0.00605515
0.00536529
0.00462578
0.00383198
0.0029897
0.00222655
0.00167166
0.00129771
0.00146727
0.00256452
0.00135502
0.00349189
0.0114353
0.00471426
0.00328819
0.00512145
0.00576104
0.00568925
0.00533577
0.00482349
0.00437318
0.00436036
0.0047806
0.00554065
0.00661069
0.00782935
0.00903702
0.0100775
0.0108236
0.0111678
0.0111427
0.0108988
0.0105284
0.0101038
0.00967998
0.00927001
0.00889388
0.00854057
0.00816307
0.00770729
0.00715895
0.00650999
0.00575742
0.0049043
0.00397214
0.00305991
0.00220888
0.00162583
0.00146218
0.00261231
0.00160292
0.00382764
0.0128682
0.00642675
0.00313037
0.00405751
0.00510792
0.0052533
0.00496236
0.00435793
0.0037446
0.00388362
0.00443931
0.00528917
0.00639169
0.00765726
0.00892124
0.0100003
0.0107508
0.0110925
0.0110493
0.010734
0.0102682
0.00976699
0.00932229
0.00897941
0.00873448
0.00854343
0.00833537
0.00804576
0.00764051
0.0071038
0.00643263
0.00563377
0.00473073
0.00379016
0.0028346
0.00197353
0.00132975
0.00386345
0.00212323
0.00392889
0.0121734
0.00794979
0.00404584
0.00274963
0.00337149
0.00394519
0.00399246
0.00352498
0.00342546
0.00378117
0.00443449
0.00535363
0.00652338
0.00785029
0.00915326
0.010228
0.0109196
0.0111627
0.0109963
0.0105385
0.00993806
0.00934232
0.00886696
0.00856521
0.00841719
0.00835024
0.00827047
0.00810406
0.00781137
0.00737679
0.00679895
0.00608567
0.00525582
0.00434286
0.00331244
0.00190043
0.00169052
0.00613853
0.00239025
0.00384946
0.00981137
0.0082074
0.00555203
0.00366659
0.00283927
0.00269028
0.00281758
0.00305362
0.00343004
0.00396459
0.00470025
0.00570094
0.00696368
0.00836412
0.00968577
0.0107034
0.0112625
0.0113194
0.010942
0.0102797
0.00951839
0.00883915
0.00837369
0.00816036
0.00813579
0.00818268
0.00818226
0.00807491
0.00783823
0.00746489
0.00695494
0.00631295
0.00554341
0.00462253
0.00332594
0.00147261
0.00300352
0.00585679
0.0024408
0.00360589
0.00838483
0.0079339
0.00635213
0.00488876
0.00393556
0.00346425
0.00335783
0.00355323
0.00391319
0.00443646
0.0052142
0.00632145
0.0077085
0.00918208
0.0104757
0.0113504
0.0116718
0.0114376
0.0107646
0.00985446
0.00894469
0.00825346
0.00790607
0.00786617
0.00798148
0.00809823
0.00810034
0.00798728
0.0077583
0.00740916
0.00693582
0.00633089
0.00556334
0.00450992
0.00294524
0.00159802
0.00323738
0.00653865
0.00247562
0.0032833
0.00755975
0.00765248
0.00672291
0.00571944
0.00496367
0.00451848
0.00435868
0.00439916
0.00461727
0.00509897
0.00597005
0.00725355
0.00879327
0.0102999
0.0114622
0.0120541
0.0119939
0.0113504
0.0103129
0.0091616
0.00820014
0.00765382
0.00754411
0.00764245
0.00779808
0.00789932
0.00787084
0.00773885
0.00750608
0.00716615
0.00670577
0.00608242
0.00518732
0.00378558
0.00220697
0.00188533
0.00377363
0.00657709
0.0025974
0.00299379
0.00676219
0.00730655
0.00686749
0.00622368
0.00568251
0.00532239
0.00514657
0.00509521
0.00528252
0.0058957
0.00703712
0.00859439
0.0102644
0.0116731
0.0125095
0.0126145
0.0120034
0.0108526
0.00945007
0.0081853
0.00736958
0.00700786
0.00696781
0.00708376
0.00723419
0.00732565
0.00729526
0.00715891
0.00691963
0.0065684
0.00607195
0.00531634
0.00405004
0.00243775
0.00179461
0.00240498
0.00423563
0.00661743
0.00249722
0.0030038
0.00671236
0.00746492
0.00694983
0.00642881
0.00600201
0.00569433
0.00549596
0.00548993
0.00594391
0.00702717
0.00864805
0.0104781
0.0120921
0.0131137
0.013323
0.012702
0.011402
0.0097573
0.00816547
0.00700647
0.00631849
0.00600135
0.00594428
0.00603766
0.00617357
0.00625713
0.00622258
0.00606684
0.00579886
0.00541205
0.00485963
0.00399854
0.00275782
0.00185729
0.00200402
0.00295497
0.00435145
0.00548989
0.00235753
0.00270983
0.00282047
0.00416497
0.00489671
0.00512426
0.00512962
0.00508225
0.00517975
0.00581114
0.00715757
0.00905597
0.0111085
0.0128648
0.0139469
0.0141317
0.013379
0.0118781
0.00992428
0.0080619
0.00659786
0.00561165
0.00505152
0.00480849
0.00475667
0.00479759
0.00485053
0.00484482
0.00473488
0.00450758
0.00419408
0.00381681
0.00337816
0.0028428
0.00223777
0.00191157
0.00226333
0.00323974
0.0044497
0.00531088
0.00227967
0.000963539
0.00173736
0.00266725
0.00341527
0.00428445
0.00575287
0.00791378
0.0103148
0.0125047
0.014145
0.0150016
0.014918
0.0138951
0.0120436
0.00984423
0.00776179
0.00610626
0.00499943
0.00439695
0.00411234
0.00398483
0.00392364
0.00387526
0.00379808
0.00366216
0.00346415
0.00322374
0.00298393
0.00277641
0.00260994
0.00247172
0.00235484
0.00233653
0.00264798
0.00350255
0.004806
0.00597144
0.0024287
0.00178738
0.00247252
0.00360021
0.00561032
0.00832954
0.0110489
0.0131478
0.0146642
0.015588
0.015853
0.0153353
0.0139083
0.0117863
0.00937469
0.00715273
0.00548375
0.00450193
0.00403072
0.00382281
0.00373018
0.00368394
0.0036468
0.00359252
0.00350421
0.00338139
0.00324344
0.00311886
0.0030307
0.00298531
0.00297623
0.0029959
0.00305191
0.00318611
0.0035006
0.00420904
0.00582304
0.00643907
0.00253424
0.0032374
0.00786945
0.00726764
0.00650549
0.00825283
0.0109779
0.0132678
0.0148096
0.0156239
0.0158283
0.0155231
0.0146567
0.0131653
0.0110906
0.00870669
0.00652965
0.0050458
0.00428153
0.00395305
0.00382965
0.00380127
0.00381609
0.00384177
0.00385439
0.00384002
0.00379854
0.00374305
0.00369204
0.00365937
0.00365057
0.00366815
0.00371376
0.00379574
0.00393653
0.00418033
0.00460737
0.00538994
0.00727301
0.00736221
0.00261618
0.00309492
0.00598312
0.00773146
0.00989604
0.0109817
0.0120927
0.0127332
0.012881
0.012631
0.0120499
0.0111603
0.0099616
0.00849258
0.00691361
0.00549951
0.00448261
0.00389676
0.00360597
0.00349115
0.00348561
0.00354917
0.00364928
0.00375611
0.00384563
0.00390515
0.00393628
0.00395123
0.00396418
0.00398366
0.00401178
0.00405099
0.00411083
0.00421321
0.0043916
0.00468425
0.00513085
0.00578945
0.00709103
0.00773412
0.00267638
0.00289522
0.00248112
0.0024688
0.00254078
0.00260012
0.00252242
0.00237276
0.00219951
0.00202681
0.00186238
0.00170656
0.00156002
0.00142913
0.00132643
0.00126386
0.00123651
0.00123115
0.00123939
0.00125547
0.00127557
0.00129709
0.0013184
0.00133871
0.00135796
0.00137677
0.00139626
0.00141784
0.00144304
0.00147362
0.00151201
0.00156182
0.00162794
0.00171552
0.0018277
0.00196369
0.00211956
0.00229102
0.00247431
0.00265698
0.00248445
)
;

boundaryField
{
    floor
    {
        type            compressible::alphatWallFunction;
        Prt             0.85;
        value           nonuniform List<scalar> 
36
(
0.000219883
0.000104488
0.000149916
0.000151104
0.000147493
0.000141438
0.000133309
0.000125154
0.000117582
0.000110704
0.000104491
9.89183e-05
9.38819e-05
8.92672e-05
8.49355e-05
8.06957e-05
7.62352e-05
7.25108e-05
6.49272e-05
6.49263e-05
8.41346e-05
9.63741e-05
0.000106439
0.00012731
0.000168971
0.000161108
0.000219881
0.000239676
0.000229068
0.000219726
0.000104487
0.000219723
0.000186287
0.000266672
0.000232736
0.000265699
)
;
    }
    ceiling
    {
        type            compressible::alphatWallFunction;
        Prt             0.85;
        value           nonuniform List<scalar> 
43
(
0.000391239
0.00033896
0.000337397
0.000346557
0.000354096
0.000344267
0.000325214
0.000302986
0.000280636
0.000259165
0.000238631
0.000219132
0.000201541
0.000187601
0.000179033
0.000175271
0.000174522
0.000175647
0.000177854
0.000180614
0.000183568
0.000186491
0.000189272
0.000191903
0.000194467
0.000197115
0.000200037
0.000203436
0.000207543
0.000212672
0.000219291
0.000228033
0.000239563
0.000254278
0.000272046
0.00029231
0.000314459
0.000337955
0.000361188
0.000339269
0.000368263
0.000382171
0.000248615
)
;
    }
    sWall
    {
        type            compressible::alphatWallFunction;
        Prt             0.85;
        value           nonuniform List<scalar> 9(0.000507604 0.00047789 0.000438223 0.000402287 0.000403524 0.000366688 0.00043191 0.000414293 0.000389488);
    }
    nWall
    {
        type            compressible::alphatWallFunction;
        Prt             0.85;
        value           nonuniform List<scalar> 
14
(
0.00016066
0.000190779
0.000224143
0.000333259
0.000337703
0.000352946
0.00033977
0.000322241
0.000312585
0.000332062
0.000345128
0.000355448
0.000362915
0.000338577
)
;
    }
    sideWalls
    {
        type            empty;
    }
    glass1
    {
        type            compressible::alphatWallFunction;
        Prt             0.85;
        value           nonuniform List<scalar> 9(0.000143926 0.00020913 0.000262684 0.000313288 0.000362356 0.000409976 0.000457983 0.000498841 0.00051121);
    }
    glass2
    {
        type            compressible::alphatWallFunction;
        Prt             0.85;
        value           nonuniform List<scalar> 2(0.000290223 0.000324398);
    }
    sun
    {
        type            compressible::alphatWallFunction;
        Prt             0.85;
        value           nonuniform List<scalar> 
14
(
0.00014796
0.000157646
0.000157093
0.000163765
0.000169852
0.000175358
0.000180466
0.000185375
0.0001903
0.000195518
0.000200477
0.000205173
0.000209786
0.000214734
)
;
    }
    Table_master
    {
        type            compressible::alphatWallFunction;
        Prt             0.85;
        value           nonuniform List<scalar> 9(0.000191002 0.000166816 0.000147882 0.000132874 0.00012079 0.000110933 0.000102816 9.61563e-05 9.09253e-05);
    }
    Table_slave
    {
        type            compressible::alphatWallFunction;
        Prt             0.85;
        value           nonuniform List<scalar> 9(0.000216368 0.00019759 0.000182911 0.000170603 0.000160035 0.000150476 0.000141398 0.000132314 0.000122415);
    }
    inlet
    {
        type            fixedValue;
        value           uniform 1.94e-05;
    }
    outlet
    {
        type            zeroGradient;
    }
}


// ************************************************************************* //
