/*--------------------------------*- C++ -*----------------------------------*\
  =========                 |
  \\      /  F ield         | OpenFOAM: The Open Source CFD Toolbox
   \\    /   O peration     | Website:  https://openfoam.org
    \\  /    A nd           | Version:  6
     \\/     M anipulation  |
\*---------------------------------------------------------------------------*/
FoamFile
{
    version     2.0;
    format      ascii;
    class       volScalarField;
    location    "44200.0000000176005";
    object      k;
}
// * * * * * * * * * * * * * * * * * * * * * * * * * * * * * * * * * * * * * //

dimensions      [0 2 -2 0 0 0 0];

internalField   nonuniform List<scalar> 
778
(
0.00158596
0.00180125
0.00178819
0.00194682
0.0020981
0.00224038
0.00237701
0.00251253
0.00265273
0.00280587
0.00295584
0.00310185
0.0032491
0.00341128
0.00358476
0.000792605
0.00162499
0.00165107
0.00157188
0.00144401
0.00128185
0.00112996
0.00099853
0.000886961
0.0007925
0.000712785
0.00064478
0.000585798
0.000533304
0.000484588
0.000436147
0.000397885
0.00032605
0.00340702
0.00643378
0.00268775
0.00274638
0.00288812
0.00305472
0.00323505
0.00343073
0.00364377
0.0038738
0.00412547
0.00437876
0.00459407
0.00469901
0.00459326
0.00429679
0.00390575
0.00357885
0.00253794
0.00281306
0.00295453
0.00289607
0.00266268
0.00226355
0.00190444
0.00160846
0.00136899
0.0011754
0.00101676
0.000885054
0.000773845
0.00068106
0.00061507
0.000574561
0.000864621
0.0005241
0.00549085
0.0127821
0.00347829
0.00321238
0.00329774
0.00345559
0.00363694
0.003841
0.0040711
0.00432737
0.00463503
0.00500989
0.00544955
0.00595872
0.0065298
0.00685881
0.00627674
0.00538526
0.00403796
0.00416989
0.00417295
0.00397489
0.00357664
0.00266454
0.00201431
0.00157478
0.00126866
0.00104875
0.000886554
0.000764361
0.000671647
0.000603509
0.00055135
0.000548612
0.00116661
0.000678402
0.00797366
0.0217606
0.00449171
0.00339097
0.00334174
0.00343829
0.0035496
0.00366896
0.003809
0.00399102
0.00425852
0.00464747
0.0051698
0.00582359
0.00655332
0.00713384
0.00722804
0.0072457
0.00534165
0.00554748
0.0053751
0.00512522
0.00478668
0.00434783
0.00345561
0.00285859
0.00243526
0.00210898
0.00184951
0.00163109
0.00143777
0.00125786
0.00107701
0.000800175
0.000659412
0.00142426
0.000822414
0.0108766
0.0336384
0.00621378
0.00342522
0.00315846
0.0031671
0.00318964
0.00320983
0.00325196
0.00336075
0.00359414
0.00398824
0.00455206
0.00527505
0.00608521
0.00681609
0.00728149
0.00764164
0.00751335
0.00665138
0.00607158
0.0055782
0.00509871
0.00462919
0.00412293
0.00366521
0.00327432
0.00293649
0.00263013
0.00234663
0.00207811
0.00181748
0.00155415
0.0012212
0.000929369
0.00119124
0.00121664
0.00117062
0.00207442
0.001891
0.0141751
0.047604
0.00928574
0.00349028
0.00290869
0.00282281
0.00276438
0.00269942
0.00266401
0.0027343
0.00298044
0.00341364
0.00402249
0.00479636
0.00565178
0.00645918
0.00706586
0.00740369
0.00731969
0.00678678
0.00621306
0.00563613
0.00507385
0.0045558
0.00409117
0.00369546
0.00336275
0.00307322
0.00280611
0.00255065
0.002298
0.00204132
0.00177323
0.00147085
0.00117707
0.00111188
0.00111125
0.00172946
0.00516961
0.00269572
0.0179926
0.0606116
0.0143633
0.0038199
0.00271533
0.00252942
0.00241172
0.00229384
0.00222078
0.0023114
0.00263028
0.00313928
0.00380175
0.00463094
0.00552748
0.00636505
0.00699842
0.00732493
0.00725112
0.00681542
0.00621375
0.00555403
0.0049116
0.00434267
0.00387246
0.00350044
0.00320672
0.00296176
0.00274114
0.00252857
0.00231269
0.00208636
0.00184469
0.00158253
0.00132575
0.00115767
0.00109169
0.00157918
0.00642238
0.00376681
0.0216417
0.0704861
0.0214411
0.00510284
0.00274282
0.00237175
0.00220994
0.0020816
0.0020259
0.00221923
0.00264988
0.00323141
0.00393799
0.00477558
0.0057001
0.00657399
0.00722294
0.00751211
0.00738208
0.00689453
0.00619745
0.00542696
0.00469186
0.00406483
0.00357477
0.00321285
0.00294809
0.00274149
0.00256454
0.00239575
0.00222151
0.00203451
0.00183132
0.00161224
0.00139465
0.00122431
0.00115495
0.00219335
0.0144121
0.00658178
0.0228331
0.0694897
0.0325402
0.0110595
0.0040672
0.00258704
0.00223507
0.00210245
0.00218929
0.00251181
0.00300029
0.00360269
0.00433437
0.0052159
0.00618916
0.00709099
0.00771871
0.00792264
0.00766332
0.00702479
0.00616574
0.00524993
0.00440921
0.00372389
0.00321783
0.00286999
0.00263672
0.00247032
0.00233732
0.00221188
0.0020792
0.00193231
0.00176892
0.00159092
0.00141075
0.00127299
0.00134737
0.00443217
0.0294401
0.00853774
0.0219171
0.0516285
0.0336448
0.0174351
0.00858644
0.00475713
0.00325935
0.00272855
0.00285156
0.00320946
0.0036716
0.00424703
0.00499847
0.00594442
0.00698199
0.00789449
0.00844554
0.0084844
0.00800271
0.00712381
0.00604336
0.00495762
0.00401539
0.00329404
0.0028005
0.00249093
0.00230448
0.00218663
0.00209848
0.00201325
0.00191748
0.00180563
0.00167651
0.00153262
0.00138464
0.00128488
0.00171175
0.0110089
0.0244679
0.00876937
0.0192311
0.0394323
0.0302372
0.0195659
0.0121807
0.0079362
0.00571426
0.00466616
0.00435897
0.00439671
0.00465045
0.00514568
0.0059397
0.0069904
0.00810053
0.00897458
0.00934859
0.00909698
0.00827195
0.00706112
0.00571569
0.00446637
0.00346833
0.00277395
0.00235234
0.00211854
0.0019944
0.001927
0.00187726
0.00182345
0.00175576
0.00167046
0.0015676
0.00145123
0.00133442
0.00128776
0.00193836
0.0102141
0.0239979
0.00889493
0.0159471
0.0315858
0.0266511
0.0195388
0.0139749
0.0102821
0.00802463
0.00674793
0.00604508
0.00572713
0.00578033
0.00627565
0.00721719
0.00843182
0.00958307
0.0102956
0.0103156
0.00959196
0.00828322
0.00666602
0.0050623
0.00372948
0.00279967
0.00223937
0.00195905
0.00181935
0.00175081
0.00171733
0.00169
0.00165466
0.0016046
0.00153705
0.00145365
0.00136285
0.00128448
0.0013284
0.00228844
0.00917207
0.0219267
0.00991958
0.0132656
0.02568
0.0233568
0.0186925
0.0145845
0.0115879
0.00954236
0.00820758
0.00729733
0.00683739
0.00695738
0.00772457
0.00899188
0.0103847
0.011425
0.0117162
0.0111052
0.00968614
0.00778129
0.00576245
0.00403728
0.00284116
0.00219726
0.00186427
0.00170148
0.00162194
0.00158251
0.00156136
0.00153992
0.00150933
0.00146537
0.00140766
0.00134121
0.00128168
0.00128917
0.00164779
0.00317631
0.00968072
0.0200051
0.0104332
0.0133542
0.0224302
0.0220682
0.0177658
0.014396
0.0118961
0.0100848
0.00876876
0.00791701
0.00777313
0.00847563
0.00987978
0.011547
0.0128967
0.01342
0.0128437
0.0112611
0.00896334
0.00651295
0.00430534
0.00295879
0.00221742
0.00184721
0.00166302
0.00156872
0.0015169
0.00148465
0.00145988
0.00143204
0.00139556
0.00134862
0.00129432
0.00124827
0.00126867
0.00156082
0.00258913
0.00502585
0.0105096
0.0193692
0.00922645
0.0108782
0.0117685
0.0129256
0.0125537
0.0113754
0.0100756
0.00894776
0.0082034
0.00830081
0.009415
0.0112991
0.0133807
0.0149809
0.0155544
0.0148416
0.0128562
0.0101111
0.0069936
0.00461512
0.0031131
0.00232307
0.00193437
0.00173909
0.00162997
0.00156076
0.00151072
0.00146927
0.00143024
0.00138972
0.001345
0.00129731
0.00125623
0.00125521
0.00139958
0.00196775
0.00346107
0.00644045
0.0111699
0.0160253
0.00820256
0.0035397
0.00481738
0.00598864
0.00659643
0.0072774
0.00878879
0.0113033
0.0141389
0.0165692
0.0180182
0.0181111
0.016765
0.0142016
0.0105655
0.00725826
0.00477436
0.00327684
0.00251122
0.00215216
0.00197161
0.00186259
0.00178295
0.00171738
0.00166013
0.00160923
0.00156472
0.00152759
0.00150391
0.00149238
0.0015012
0.00156176
0.00176825
0.00235028
0.00374569
0.00650227
0.0110203
0.0174072
0.00797078
0.00444608
0.00628405
0.00810093
0.0110115
0.0146818
0.0181412
0.020383
0.0214574
0.0213979
0.0201842
0.0176314
0.0141219
0.0104204
0.00710237
0.00476956
0.00343595
0.00280288
0.00252506
0.00239264
0.00231399
0.00225604
0.0022082
0.00216916
0.00214209
0.0021321
0.00214317
0.00217496
0.00222127
0.00228355
0.00236413
0.00248112
0.00270524
0.00319762
0.00427956
0.00656076
0.0113611
0.0171654
0.00948101
0.0150745
0.0245342
0.018134
0.0143914
0.0169897
0.0206739
0.022793
0.0234915
0.0230448
0.0217019
0.0196985
0.0170448
0.0138309
0.0104329
0.00741205
0.00525317
0.00406283
0.00353601
0.00333396
0.00326038
0.00323026
0.00320801
0.00318019
0.00314665
0.00311639
0.00310277
0.0031184
0.00317177
0.00326707
0.00340542
0.00358491
0.00380604
0.00408818
0.00451428
0.00520351
0.00638223
0.00864445
0.0147727
0.017822
0.0102371
0.0138061
0.0170606
0.0178288
0.0207413
0.0216756
0.0220943
0.0211
0.0192914
0.0171786
0.0150095
0.0128792
0.010825
0.00887449
0.00712994
0.00572684
0.00480329
0.00430886
0.00409489
0.00404182
0.00407687
0.00415353
0.00424003
0.00431715
0.00437878
0.00443086
0.00448781
0.00456778
0.00468954
0.00487257
0.00513969
0.00552002
0.00604879
0.00676116
0.00766891
0.00884983
0.0104307
0.0127454
0.0173013
0.0204218
0.0109035
0.0121357
0.00891552
0.00883103
0.00936088
0.00981568
0.0092635
0.0082175
0.00707112
0.00600173
0.00505305
0.0042198
0.00350108
0.00292159
0.00251839
0.00230479
0.00221927
0.00221248
0.00224869
0.0023063
0.00237292
0.00244139
0.00250815
0.0025727
0.00263732
0.0027067
0.00278757
0.0028888
0.0030223
0.00320452
0.00345682
0.00380239
0.00425878
0.00483053
0.00551062
0.0062977
0.00721294
0.00822667
0.00935821
0.0105328
0.00937553
)
;

boundaryField
{
    floor
    {
        type            kqRWallFunction;
        value           nonuniform List<scalar> 
36
(
0.00358476
0.000792605
0.00162499
0.00165107
0.00157188
0.00144401
0.00128185
0.00112996
0.00099853
0.000886961
0.0007925
0.000712785
0.00064478
0.000585798
0.000533304
0.000484588
0.000436147
0.000397885
0.00032605
0.00032605
0.0005241
0.000678402
0.000822414
0.00117062
0.00207442
0.001891
0.00358476
0.00429679
0.00390575
0.00357885
0.000792605
0.00357885
0.00253794
0.00538526
0.00403796
0.00534165
)
;
    }
    ceiling
    {
        type            kqRWallFunction;
        value           nonuniform List<scalar> 
43
(
0.0121357
0.00891552
0.00883103
0.00936088
0.00981568
0.0092635
0.0082175
0.00707112
0.00600173
0.00505305
0.0042198
0.00350108
0.00292159
0.00251839
0.00230479
0.00221927
0.00221248
0.00224869
0.0023063
0.00237292
0.00244139
0.00250815
0.0025727
0.00263732
0.0027067
0.00278757
0.0028888
0.0030223
0.00320452
0.00345682
0.00380239
0.00425878
0.00483053
0.00551062
0.0062977
0.00721294
0.00822667
0.00935821
0.0105328
0.00937553
0.0108782
0.0117685
0.00444608
)
;
    }
    sWall
    {
        type            kqRWallFunction;
        value           nonuniform List<scalar> 9(0.0219171 0.0192311 0.0159471 0.0132656 0.0133542 0.0108782 0.0150745 0.0138061 0.0121357);
    }
    nWall
    {
        type            kqRWallFunction;
        value           nonuniform List<scalar> 
14
(
0.001891
0.00269572
0.00376681
0.00876937
0.00889493
0.00991958
0.0104332
0.00922645
0.00820256
0.00797078
0.00948101
0.0102371
0.0109035
0.00937553
)
;
    }
    sideWalls
    {
        type            empty;
    }
    glass1
    {
        type            kqRWallFunction;
        value           nonuniform List<scalar> 9(0.00158596 0.00340702 0.00549085 0.00797366 0.0108766 0.0141751 0.0179926 0.0216417 0.0228331);
    }
    glass2
    {
        type            kqRWallFunction;
        value           nonuniform List<scalar> 2(0.00658178 0.00853774);
    }
    sun
    {
        type            kqRWallFunction;
        value           nonuniform List<scalar> 
14
(
0.00158596
0.00180125
0.00178819
0.00194682
0.0020981
0.00224038
0.00237701
0.00251253
0.00265273
0.00280587
0.00295584
0.00310185
0.0032491
0.00341128
)
;
    }
    Table_master
    {
        type            kqRWallFunction;
        value           nonuniform List<scalar> 9(0.00266454 0.00201431 0.00157478 0.00126866 0.00104875 0.000886554 0.000764361 0.000671647 0.000603509);
    }
    Table_slave
    {
        type            kqRWallFunction;
        value           nonuniform List<scalar> 9(0.00345561 0.00285859 0.00243526 0.00210898 0.00184951 0.00163109 0.00143777 0.00125786 0.00107701);
    }
    inlet
    {
        type            turbulentIntensityKineticEnergyInlet;
        intensity       0.05;
        value           uniform 0.0009375;
    }
    outlet
    {
        type            zeroGradient;
    }
}


// ************************************************************************* //
