/*--------------------------------*- C++ -*----------------------------------*\
  =========                 |
  \\      /  F ield         | OpenFOAM: The Open Source CFD Toolbox
   \\    /   O peration     | Website:  https://openfoam.org
    \\  /    A nd           | Version:  6
     \\/     M anipulation  |
\*---------------------------------------------------------------------------*/
FoamFile
{
    version     2.0;
    format      ascii;
    class       volVectorField;
    location    "44200.0000000176005";
    object      U;
}
// * * * * * * * * * * * * * * * * * * * * * * * * * * * * * * * * * * * * * //

dimensions      [0 1 -1 0 0 0 0];

internalField   nonuniform List<vector> 
778
(
(0.065603 0.0794067 0)
(-0.155173 0.0157641 0)
(-0.164297 0.0146234 0)
(-0.192412 0.0122724 0)
(-0.216844 0.00872074 0)
(-0.236898 0.00473827 0)
(-0.252016 0.000410176 0)
(-0.261776 -0.0043757 0)
(-0.265664 -0.00981765 0)
(-0.26268 -0.016196 0)
(-0.250869 -0.0242667 0)
(-0.22617 -0.0348809 0)
(-0.186056 -0.0503954 0)
(-0.144135 -0.0751553 0)
(-0.150024 -0.108532 0)
(0.0546854 0.0354494 0)
(0.0158201 -0.0268749 0)
(0.0450214 -0.0232607 0)
(0.0694338 -0.0161572 0)
(0.0844972 -0.0103517 0)
(0.0917055 -0.00641566 0)
(0.0945412 -0.00434048 0)
(0.0955821 -0.00331846 0)
(0.0960451 -0.00273032 0)
(0.0962218 -0.00231572 0)
(0.096098 -0.00195016 0)
(0.0955697 -0.00150921 0)
(0.0943092 -0.000755298 0)
(0.0914587 0.000849115 0)
(0.0852476 0.00407389 0)
(0.0736937 0.00778295 0)
(0.0600181 0.0116265 0)
(-0.00791845 0.030013 0)
(0.258405 0.167391 0)
(-0.161233 0.0483886 0)
(-0.141598 0.0459777 0)
(-0.174 0.0416103 0)
(-0.19936 0.0356603 0)
(-0.220075 0.029118 0)
(-0.236096 0.0220436 0)
(-0.247338 0.0142114 0)
(-0.253501 0.00527882 0)
(-0.253807 -0.00516919 0)
(-0.247644 -0.0170949 0)
(-0.233935 -0.030856 0)
(-0.214027 -0.0480728 0)
(-0.19745 -0.0699462 0)
(-0.193932 -0.08262 0)
(-0.166331 -0.042537 0)
(-0.105306 -0.03635 0)
(-0.0983255 -0.0444362 0)
(0.109359 -0.042163 0)
(0.0645142 -0.0412069 0)
(0.0719827 -0.0322916 0)
(0.0859812 -0.0207303 0)
(0.0938974 -0.0104772 0)
(0.0961368 -0.00363968 0)
(0.0958937 -0.000204019 0)
(0.0955025 0.00123576 0)
(0.0954663 0.00188555 0)
(0.0955486 0.00226436 0)
(0.0955574 0.0025907 0)
(0.0954583 0.00313493 0)
(0.0951674 0.00441667 0)
(0.0939093 0.00773383 0)
(0.0883071 0.0167749 0)
(0.0745329 0.0253703 0)
(0.0631856 0.0329956 0)
(-0.0519889 0.0636644 0)
(0.42999 0.25395 0)
(-0.194233 0.0847533 0)
(-0.112771 0.078427 0)
(-0.148234 0.0669471 0)
(-0.170662 0.0554863 0)
(-0.18875 0.0437078 0)
(-0.20258 0.0313196 0)
(-0.212262 0.0179799 0)
(-0.217603 0.00337135 0)
(-0.217949 -0.0126562 0)
(-0.212684 -0.0303426 0)
(-0.201572 -0.0499191 0)
(-0.185926 -0.0715699 0)
(-0.169385 -0.0932029 0)
(-0.151009 -0.104543 0)
(-0.120175 -0.0931127 0)
(-0.0794969 -0.0948939 0)
(-0.0714308 -0.107521 0)
(0.0921524 -0.0882598 0)
(0.0626063 -0.0658196 0)
(0.0744264 -0.0461706 0)
(0.0880809 -0.0292797 0)
(0.0949517 -0.0149416 0)
(0.0920673 -0.0119937 0)
(0.0878285 -0.00793098 0)
(0.0854582 -0.00577991 0)
(0.0847573 -0.00456609 0)
(0.0847242 -0.00380444 0)
(0.0849758 -0.00322945 0)
(0.0856294 -0.00259958 0)
(0.0873945 -0.00143844 0)
(0.0920855 0.00292284 0)
(0.0902439 0.0251234 0)
(0.0734167 0.0424087 0)
(0.0701769 0.0575309 0)
(-0.0900908 0.101055 0)
(0.578564 0.325833 0)
(-0.240107 0.1218 0)
(-0.0808232 0.109214 0)
(-0.121561 0.0898416 0)
(-0.138991 0.0740516 0)
(-0.153048 0.0586112 0)
(-0.163802 0.0427214 0)
(-0.171389 0.0257725 0)
(-0.175591 0.0071592 0)
(-0.175646 -0.0135671 0)
(-0.170948 -0.0364978 0)
(-0.161371 -0.0614718 0)
(-0.147494 -0.0873753 0)
(-0.130504 -0.110291 0)
(-0.109534 -0.12318 0)
(-0.0820463 -0.124506 0)
(-0.0524238 -0.126317 0)
(-0.0332749 -0.123127 0)
(0.0165092 -0.0568011 0)
(0.0609286 -0.093081 0)
(0.0685427 -0.0792394 0)
(0.0791427 -0.0588631 0)
(0.0916288 -0.0396164 0)
(0.102958 -0.0209596 0)
(0.115703 -0.013199 0)
(0.126884 -0.00880505 0)
(0.132506 -0.00560309 0)
(0.133516 -0.00310649 0)
(0.131025 -0.000889402 0)
(0.125595 0.00127863 0)
(0.117091 0.00366406 0)
(0.10474 0.00672814 0)
(0.085473 0.0111715 0)
(0.0715753 0.0368768 0)
(0.0602433 0.0606407 0)
(0.0763899 0.08345 0)
(-0.117981 0.13735 0)
(0.705751 0.38367 0)
(-0.287688 0.156991 0)
(-0.0476827 0.133768 0)
(-0.0962762 0.106904 0)
(-0.107723 0.087577 0)
(-0.116753 0.0691491 0)
(-0.123541 0.0504156 0)
(-0.128197 0.0305485 0)
(-0.130552 0.00867958 0)
(-0.129736 -0.0158641 0)
(-0.125227 -0.0431146 0)
(-0.11659 -0.0727091 0)
(-0.10385 -0.102836 0)
(-0.0873528 -0.129085 0)
(-0.0673766 -0.145767 0)
(-0.044012 -0.152229 0)
(-0.0201371 -0.152317 0)
(0.000417534 -0.143662 0)
(0.0309325 -0.114985 0)
(0.0570779 -0.10937 0)
(0.0706255 -0.0924582 0)
(0.0807353 -0.0712818 0)
(0.0907807 -0.0508259 0)
(0.10033 -0.0327887 0)
(0.109446 -0.0194085 0)
(0.116491 -0.0100398 0)
(0.119943 -0.00335553 0)
(0.120176 0.00189053 0)
(0.117799 0.00643358 0)
(0.11318 0.0107907 0)
(0.106339 0.0154751 0)
(0.0972036 0.0211889 0)
(0.0852654 0.0292293 0)
(0.0736774 0.0472878 0)
(0.0631157 0.0713856 0)
(0.0947966 0.0995134 0)
(0.0166823 0.138502 0)
(0.0962992 0.182944 0)
(0.140983 0.144144 0)
(-0.21883 0.201651 0)
(0.810465 0.431961 0)
(-0.331333 0.190656 0)
(-0.0172991 0.150229 0)
(-0.0733492 0.117503 0)
(-0.0785695 0.0954937 0)
(-0.0821898 0.0749228 0)
(-0.0844451 0.054313 0)
(-0.0854844 0.0326817 0)
(-0.08523 0.00881549 0)
(-0.0825536 -0.0184571 0)
(-0.0773795 -0.0490668 0)
(-0.0687357 -0.0825341 0)
(-0.0567099 -0.116528 0)
(-0.0416069 -0.146326 0)
(-0.0245721 -0.166003 0)
(-0.00614279 -0.174479 0)
(0.0122593 -0.1727 0)
(0.0281796 -0.160947 0)
(0.0463257 -0.139277 0)
(0.0627411 -0.122318 0)
(0.0733707 -0.102483 0)
(0.0810112 -0.0804414 0)
(0.0877426 -0.0591068 0)
(0.0939102 -0.0402425 0)
(0.0992443 -0.0250813 0)
(0.102952 -0.013745 0)
(0.104588 -0.00507503 0)
(0.104201 0.00209753 0)
(0.102092 0.00855412 0)
(0.0985071 0.0148191 0)
(0.0935936 0.0214248 0)
(0.0875719 0.0290068 0)
(0.0806915 0.0384772 0)
(0.0748875 0.0529772 0)
(0.069531 0.0730387 0)
(0.0916171 0.0987567 0)
(0.0733797 0.107356 0)
(0.0902519 0.0472791 0)
(0.146745 -0.0367616 0)
(-0.326016 0.108233 0)
(0.879938 0.47467 0)
(-0.368659 0.220933 0)
(0.0037381 0.155529 0)
(-0.0526402 0.121549 0)
(-0.0521806 0.0978332 0)
(-0.0509997 0.0758016 0)
(-0.0489983 0.0540194 0)
(-0.0464874 0.0315042 0)
(-0.0433084 0.00673561 0)
(-0.0373559 -0.0223403 0)
(-0.0302804 -0.0554116 0)
(-0.0204791 -0.0919881 0)
(-0.00863245 -0.128948 0)
(0.0046393 -0.161303 0)
(0.0177575 -0.181922 0)
(0.030594 -0.190217 0)
(0.0424296 -0.187185 0)
(0.0527384 -0.174342 0)
(0.062684 -0.153977 0)
(0.0712164 -0.132326 0)
(0.0766893 -0.109321 0)
(0.0800993 -0.0858355 0)
(0.0826565 -0.0636761 0)
(0.0848664 -0.0441984 0)
(0.0866892 -0.0281277 0)
(0.0877926 -0.0153702 0)
(0.0879533 -0.00514325 0)
(0.0870228 0.00347835 0)
(0.0851828 0.0111851 0)
(0.0825746 0.0185091 0)
(0.079363 0.0259598 0)
(0.0758114 0.0340472 0)
(0.0723011 0.0433297 0)
(0.0701838 0.0550895 0)
(0.0687998 0.0696769 0)
(0.0816627 0.0887323 0)
(0.0845608 0.0916991 0)
(0.0900556 0.0534515 0)
(0.182061 0.0256429 0)
(-0.281027 0.156551 0)
(0.927983 0.517128 0)
(-0.383179 0.234123 0)
(0.016916 0.132922 0)
(-0.0272985 0.116623 0)
(-0.0265174 0.0948997 0)
(-0.0227092 0.072409 0)
(-0.0176011 0.0500832 0)
(-0.0123342 0.0272269 0)
(-0.00538952 0.00183834 0)
(0.00458019 -0.0307749 0)
(0.0142995 -0.0653785 0)
(0.0256173 -0.103407 0)
(0.0373016 -0.140953 0)
(0.0480347 -0.172238 0)
(0.0571853 -0.192407 0)
(0.0647253 -0.199842 0)
(0.0704735 -0.195357 0)
(0.0744283 -0.181104 0)
(0.077101 -0.159982 0)
(0.0784134 -0.135973 0)
(0.0779935 -0.110966 0)
(0.0764263 -0.0864582 0)
(0.0745501 -0.0639207 0)
(0.0728957 -0.0443545 0)
(0.0716063 -0.0281406 0)
(0.0705522 -0.0149974 0)
(0.0695408 -0.00422234 0)
(0.068284 0.00496989 0)
(0.0668862 0.0131717 0)
(0.0653144 0.0208825 0)
(0.0636362 0.0285443 0)
(0.0620176 0.0365269 0)
(0.0607274 0.0451334 0)
(0.0605857 0.0548288 0)
(0.0613682 0.0655249 0)
(0.0697591 0.0786474 0)
(0.0791453 0.0812295 0)
(0.0795816 0.0593376 0)
(0.240209 0.0537366 0)
(-0.542925 0.233538 0)
(1.01134 0.50677 0)
(-0.137128 0.296304 0)
(0.041104 0.161467 0)
(0.0406471 0.12203 0)
(0.0131295 0.0919315 0)
(0.00871047 0.0653328 0)
(0.0141322 0.0413626 0)
(0.0207521 0.0169515 0)
(0.0325457 -0.0110505 0)
(0.0440039 -0.0421866 0)
(0.0558787 -0.0769732 0)
(0.0681769 -0.114742 0)
(0.0793556 -0.151244 0)
(0.087909 -0.180718 0)
(0.0931812 -0.198713 0)
(0.0952729 -0.203815 0)
(0.0945843 -0.197085 0)
(0.0916588 -0.180967 0)
(0.0871734 -0.158518 0)
(0.0815821 -0.133062 0)
(0.0751849 -0.107028 0)
(0.0685878 -0.0822342 0)
(0.06252 -0.0600352 0)
(0.0575098 -0.0411582 0)
(0.0537585 -0.0256941 0)
(0.0511748 -0.0131477 0)
(0.0494963 -0.00273747 0)
(0.0483276 0.00624336 0)
(0.0476321 0.0143118 0)
(0.0471759 0.021927 0)
(0.0468946 0.02945 0)
(0.0468124 0.0371351 0)
(0.0470134 0.0451323 0)
(0.0478465 0.0535552 0)
(0.0491095 0.0620637 0)
(0.0540038 0.0707669 0)
(0.0622186 0.0687153 0)
(0.0558756 0.0366973 0)
(0.287852 0.0690946 0)
(-0.763392 0.307695 0)
(0.779344 0.395599 0)
(0.000926809 0.319425 0)
(0.0934211 0.218859 0)
(0.110656 0.155101 0)
(0.0772223 0.10675 0)
(0.0598422 0.0674798 0)
(0.058262 0.0357064 0)
(0.0624291 0.0063665 0)
(0.0738496 -0.023477 0)
(0.0854199 -0.0550957 0)
(0.097624 -0.0898432 0)
(0.109514 -0.12641 0)
(0.118927 -0.160244 0)
(0.124079 -0.185974 0)
(0.124357 -0.200009 0)
(0.120181 -0.201523 0)
(0.112492 -0.191901 0)
(0.10236 -0.173715 0)
(0.090825 -0.150011 0)
(0.0787284 -0.123831 0)
(0.0667628 -0.0977123 0)
(0.0556633 -0.0735667 0)
(0.0461635 -0.052648 0)
(0.0387495 -0.0354058 0)
(0.0335454 -0.0216363 0)
(0.0303332 -0.0105605 0)
(0.0286643 -0.00125694 0)
(0.028073 0.00692398 0)
(0.0282754 0.0144493 0)
(0.0289269 0.0217084 0)
(0.029879 0.0289663 0)
(0.0310387 0.0364022 0)
(0.0322932 0.044136 0)
(0.0334971 0.0522743 0)
(0.0336766 0.060753 0)
(0.0323207 0.069906 0)
(0.0174624 0.0748662 0)
(0.00428733 0.103156 0)
(0.0173302 0.175069 0)
(-0.648832 0.292056 0)
(0.617256 0.220631 0)
(0.00469658 0.29802 0)
(0.11304 0.241483 0)
(0.148326 0.177471 0)
(0.130902 0.12341 0)
(0.117886 0.0777389 0)
(0.115027 0.0388083 0)
(0.117194 0.00332685 0)
(0.123553 -0.0307772 0)
(0.131779 -0.0650737 0)
(0.141476 -0.10061 0)
(0.150383 -0.135556 0)
(0.155554 -0.165496 0)
(0.15505 -0.186054 0)
(0.14855 -0.194906 0)
(0.136945 -0.192083 0)
(0.1217 -0.179354 0)
(0.104312 -0.159314 0)
(0.0861536 -0.134893 0)
(0.0683222 -0.108881 0)
(0.0517627 -0.0837658 0)
(0.0373439 -0.0614079 0)
(0.0258246 -0.0429171 0)
(0.0175183 -0.0283623 0)
(0.0122625 -0.0171652 0)
(0.00944553 -0.0081692 0)
(0.00837152 -0.000380137 0)
(0.00860466 0.00674396 0)
(0.00965498 0.0135753 0)
(0.0112443 0.0203851 0)
(0.0132208 0.027341 0)
(0.015452 0.0345919 0)
(0.0177534 0.0423356 0)
(0.0198495 0.0509285 0)
(0.0209038 0.0610891 0)
(0.0202321 0.0749742 0)
(0.00127996 0.0971568 0)
(-0.00409239 0.150099 0)
(0.0917983 0.185369 0)
(-0.547698 0.163741 0)
(0.570781 0.118278 0)
(-0.0203635 0.258524 0)
(0.113685 0.229817 0)
(0.165045 0.175962 0)
(0.166734 0.126069 0)
(0.164419 0.080991 0)
(0.16542 0.0398838 0)
(0.168342 0.00155927 0)
(0.17229 -0.0354462 0)
(0.177854 -0.0719767 0)
(0.18403 -0.107699 0)
(0.187746 -0.139836 0)
(0.185978 -0.164471 0)
(0.177339 -0.178745 0)
(0.162269 -0.18185 0)
(0.142308 -0.174686 0)
(0.119387 -0.15931 0)
(0.0952565 -0.138184 0)
(0.0715073 -0.114045 0)
(0.0493439 -0.0893826 0)
(0.0299271 -0.0666043 0)
(0.0142338 -0.0474377 0)
(0.00291793 -0.0326919 0)
(-0.00434439 -0.02165 0)
(-0.00821329 -0.0135228 0)
(-0.0100026 -0.00667049 0)
(-0.0103396 -0.000363627 0)
(-0.00949684 0.00573266 0)
(-0.00789783 0.011846 0)
(-0.00567736 0.0181308 0)
(-0.00296462 0.024689 0)
(0.000142369 0.0316994 0)
(0.00352953 0.0394337 0)
(0.00706388 0.0483365 0)
(0.0105294 0.0597873 0)
(0.0141161 0.0776711 0)
(0.00514598 0.109356 0)
(-0.0107464 0.167595 0)
(0.181588 0.195885 0)
(-0.439288 0.132417 0)
(0.628421 0.0536342 0)
(0.00893592 0.197254 0)
(0.113712 0.196864 0)
(0.17506 0.157804 0)
(0.19136 0.117543 0)
(0.198062 0.0771402 0)
(0.203419 0.0371707 0)
(0.208623 -0.00157634 0)
(0.213102 -0.0397018 0)
(0.217387 -0.0765861 0)
(0.219201 -0.110079 0)
(0.215384 -0.136993 0)
(0.204038 -0.154675 0)
(0.18525 -0.162094 0)
(0.160634 -0.1598 0)
(0.132357 -0.149209 0)
(0.102658 -0.132411 0)
(0.0732404 -0.111521 0)
(0.0458725 -0.0890851 0)
(0.0216711 -0.0672544 0)
(0.0022103 -0.0484181 0)
(-0.0116583 -0.0341163 0)
(-0.0199107 -0.0245006 0)
(-0.0246754 -0.0173443 0)
(-0.0271269 -0.0114716 0)
(-0.0280921 -0.00611513 0)
(-0.0279274 -0.000922272 0)
(-0.0267435 0.00430231 0)
(-0.0248237 0.00970815 0)
(-0.0222197 0.0154113 0)
(-0.0190675 0.0214947 0)
(-0.0154952 0.0280937 0)
(-0.0115961 0.0354573 0)
(-0.00736149 0.044043 0)
(-0.00300532 0.0557041 0)
(-2.57967e-05 0.0769229 0)
(-0.00393797 0.108382 0)
(-0.0166292 0.146958 0)
(0.205647 0.183878 0)
(-0.390404 0.184417 0)
(0.472758 0.0748616 0)
(-0.13233 0.137481 0)
(0.0941674 0.133117 0)
(0.17266 0.116589 0)
(0.203815 0.0951303 0)
(0.21815 0.0642142 0)
(0.228156 0.0282679 0)
(0.237203 -0.00900993 0)
(0.243537 -0.0453185 0)
(0.245003 -0.0782935 0)
(0.239003 -0.105262 0)
(0.224178 -0.124118 0)
(0.201047 -0.133955 0)
(0.17153 -0.135192 0)
(0.138219 -0.129075 0)
(0.103412 -0.116886 0)
(0.0694161 -0.100499 0)
(0.0374136 -0.0815467 0)
(0.00975932 -0.0625553 0)
(-0.0130648 -0.0452905 0)
(-0.027486 -0.0335906 0)
(-0.0364789 -0.025494 0)
(-0.0417213 -0.01957 0)
(-0.0447429 -0.0146638 0)
(-0.0462705 -0.0102679 0)
(-0.0466804 -0.00604616 0)
(-0.0461375 -0.00180593 0)
(-0.044649 0.00259805 0)
(-0.0424735 0.00729195 0)
(-0.0396081 0.012411 0)
(-0.036251 0.0180767 0)
(-0.0326781 0.0244497 0)
(-0.0292658 0.0318084 0)
(-0.0264265 0.0408972 0)
(-0.0252987 0.0548697 0)
(-0.0294291 0.0790627 0)
(-0.0384798 0.105666 0)
(-0.0321268 0.122816 0)
(0.130369 0.171369 0)
(-0.473925 0.231328 0)
(0.724112 0.134557 0)
(0.0819325 0.115273 0)
(0.149761 0.0990852 0)
(0.222402 0.0802307 0)
(0.244104 0.0696367 0)
(0.248944 0.0474376 0)
(0.255234 0.017438 0)
(0.261288 -0.0146955 0)
(0.260243 -0.0446579 0)
(0.249686 -0.0695392 0)
(0.229385 -0.0876044 0)
(0.200921 -0.0983306 0)
(0.166686 -0.101972 0)
(0.129255 -0.0995082 0)
(0.0911506 -0.0921954 0)
(0.0538461 -0.0807199 0)
(0.0200282 -0.0667306 0)
(-0.0107275 -0.0513414 0)
(-0.0326862 -0.0391298 0)
(-0.0474141 -0.0304081 0)
(-0.0564212 -0.0245793 0)
(-0.0619916 -0.0201477 0)
(-0.0654398 -0.016408 0)
(-0.0675093 -0.0129614 0)
(-0.068497 -0.0096715 0)
(-0.0685265 -0.00641623 0)
(-0.0676466 -0.00305667 0)
(-0.0657958 0.000583485 0)
(-0.0633252 0.00461687 0)
(-0.0601764 0.00921687 0)
(-0.0565794 0.0146414 0)
(-0.0529868 0.0212164 0)
(-0.0501555 0.0295607 0)
(-0.0488117 0.0411271 0)
(-0.04972 0.0593325 0)
(-0.0580257 0.0878065 0)
(-0.0759881 0.119402 0)
(-0.0736371 0.138618 0)
(-0.0605973 0.163746 0)
(-0.547487 0.185988 0)
(0.192268 0.0878733 0)
(0.226037 0.0995169 0)
(0.246775 0.0698323 0)
(0.242816 0.0396121 0)
(0.239897 0.0121318 0)
(0.234819 -0.0127119 0)
(0.220029 -0.0331327 0)
(0.196234 -0.0483336 0)
(0.165774 -0.058267 0)
(0.131123 -0.0633525 0)
(0.0941131 -0.0638637 0)
(0.0567884 -0.0605467 0)
(0.0211393 -0.0542732 0)
(-0.0134025 -0.0451863 0)
(-0.0400222 -0.0364874 0)
(-0.0599229 -0.0293299 0)
(-0.0732364 -0.0245578 0)
(-0.0818764 -0.0212441 0)
(-0.0875652 -0.018678 0)
(-0.0915413 -0.0162418 0)
(-0.0943475 -0.0138419 0)
(-0.0961987 -0.0114988 0)
(-0.0971604 -0.00921811 0)
(-0.0972438 -0.00692986 0)
(-0.096423 -0.0044931 0)
(-0.0946444 -0.00170535 0)
(-0.091773 0.00164177 0)
(-0.0882052 0.00571431 0)
(-0.0837902 0.0108739 0)
(-0.0788988 0.0176973 0)
(-0.0742012 0.0270876 0)
(-0.0700386 0.0406891 0)
(-0.0654745 0.0613843 0)
(-0.0626717 0.0927477 0)
(-0.0684966 0.134038 0)
(-0.050283 0.170921 0)
(0.0091784 0.159002 0)
(-0.568598 0.0317048 0)
(0.451757 0.209039 0)
(0.207276 0.178382 0)
(0.153378 0.118608 0)
(0.140013 0.0640233 0)
(0.128474 0.0260493 0)
(0.114208 0.00207029 0)
(0.0988209 -0.0126254 0)
(0.0776595 -0.0217713 0)
(0.0527841 -0.0274799 0)
(0.025405 -0.0301535 0)
(-0.00466268 -0.0297314 0)
(-0.0336486 -0.0272573 0)
(-0.0591102 -0.02402 0)
(-0.0800239 -0.0210217 0)
(-0.095204 -0.0192144 0)
(-0.10569 -0.0180027 0)
(-0.112905 -0.0169785 0)
(-0.118355 -0.0155245 0)
(-0.122833 -0.0136145 0)
(-0.126603 -0.011449 0)
(-0.129676 -0.00929164 0)
(-0.13201 -0.00732726 0)
(-0.133569 -0.005639 0)
(-0.134312 -0.00421841 0)
(-0.134149 -0.00298133 0)
(-0.132892 -0.00176099 0)
(-0.130241 -0.000270988 0)
(-0.125815 0.00190355 0)
(-0.119772 0.00531005 0)
(-0.11223 0.01078 0)
(-0.103438 0.0194672 0)
(-0.0934285 0.0329351 0)
(-0.0805398 0.0531132 0)
(-0.0627505 0.0819671 0)
(-0.0442821 0.121319 0)
(-0.0196691 0.169661 0)
(0.13983 0.164119 0)
(-0.42059 0.0479024 0)
(0.362875 -0.413036 0)
(-0.345252 -0.51222 0)
(-0.218485 -0.0287905 0)
(-0.0923806 0.11062 0)
(-0.0532722 0.0926442 0)
(-0.0310198 0.0548836 0)
(-0.0262705 0.0288993 0)
(-0.0313921 0.0122727 0)
(-0.0404719 0.00152671 0)
(-0.0511488 -0.00555517 0)
(-0.0649132 -0.00998184 0)
(-0.0804447 -0.0125258 0)
(-0.096483 -0.0143719 0)
(-0.11164 -0.0166042 0)
(-0.124592 -0.0193069 0)
(-0.134254 -0.0221585 0)
(-0.140777 -0.0247452 0)
(-0.145531 -0.0265109 0)
(-0.149782 -0.0275214 0)
(-0.154128 -0.0279638 0)
(-0.15859 -0.0280065 0)
(-0.162957 -0.0277321 0)
(-0.166976 -0.0271666 0)
(-0.170432 -0.0263038 0)
(-0.173163 -0.0251352 0)
(-0.175053 -0.0236641 0)
(-0.175971 -0.0218919 0)
(-0.175692 -0.0197774 0)
(-0.173827 -0.0171848 0)
(-0.169826 -0.0138213 0)
(-0.163065 -0.00916696 0)
(-0.153167 -0.00241296 0)
(-0.140192 0.00753871 0)
(-0.124602 0.0215939 0)
(-0.105163 0.0395857 0)
(-0.0787069 0.0609778 0)
(-0.0444295 0.0856803 0)
(-0.00568044 0.119261 0)
(0.177268 0.130883 0)
(-0.398457 0.102454 0)
(0.124959 -0.184355 0)
(-0.38703 -0.297103 0)
(-0.342614 -0.0968873 0)
(-0.264432 0.0510242 0)
(-0.210777 0.083362 0)
(-0.178638 0.0745895 0)
(-0.162315 0.0612093 0)
(-0.156262 0.0512998 0)
(-0.156288 0.0461263 0)
(-0.159544 0.0454475 0)
(-0.164125 0.0484043 0)
(-0.168382 0.0536856 0)
(-0.171567 0.0598213 0)
(-0.173531 0.0645925 0)
(-0.174976 0.0655014 0)
(-0.176655 0.0638683 0)
(-0.179173 0.0620407 0)
(-0.182553 0.0616056 0)
(-0.186433 0.0625456 0)
(-0.190424 0.0641552 0)
(-0.194232 0.0657182 0)
(-0.19768 0.0667062 0)
(-0.200671 0.066785 0)
(-0.203154 0.0658081 0)
(-0.205095 0.0637703 0)
(-0.206457 0.0606991 0)
(-0.207179 0.0565315 0)
(-0.207148 0.0510868 0)
(-0.206173 0.0442067 0)
(-0.203979 0.0360127 0)
(-0.20021 0.027123 0)
(-0.194412 0.0186512 0)
(-0.1859 0.0119712 0)
(-0.173044 0.00831546 0)
(-0.154438 0.00796628 0)
(-0.130279 0.00811546 0)
(-0.0950274 0.00651691 0)
(-0.0439856 0.0110981 0)
(0.17876 0.0720451 0)
(-0.424275 0.158935 0)
(1.14657 -0.0109192 0)
(-0.294378 -0.322023 0)
(-0.352447 -0.232884 0)
(-0.351895 -0.148561 0)
(-0.328314 -0.107208 0)
(-0.296625 -0.0984879 0)
(-0.269134 -0.100482 0)
(-0.248913 -0.105911 0)
(-0.235004 -0.113237 0)
(-0.225429 -0.122583 0)
(-0.218516 -0.134508 0)
(-0.213295 -0.149212 0)
(-0.209452 -0.165471 0)
(-0.207186 -0.180092 0)
(-0.207073 -0.18904 0)
(-0.209635 -0.192678 0)
(-0.214299 -0.192591 0)
(-0.219898 -0.190697 0)
(-0.225364 -0.188314 0)
(-0.230092 -0.185983 0)
(-0.233899 -0.183765 0)
(-0.236883 -0.181511 0)
(-0.239302 -0.178997 0)
(-0.241482 -0.17599 0)
(-0.243744 -0.172283 0)
(-0.246372 -0.167716 0)
(-0.249663 -0.162181 0)
(-0.254011 -0.155574 0)
(-0.259952 -0.147701 0)
(-0.268018 -0.138143 0)
(-0.278367 -0.126179 0)
(-0.290303 -0.110884 0)
(-0.302066 -0.0914534 0)
(-0.311243 -0.0676709 0)
(-0.315184 -0.0405637 0)
(-0.309683 -0.0126054 0)
(-0.289721 0.0145071 0)
(-0.245172 0.0477422 0)
(-0.214862 0.0995605 0)
(-0.577309 0.167786 0)
)
;

boundaryField
{
    floor
    {
        type            noSlip;
    }
    ceiling
    {
        type            noSlip;
    }
    sWall
    {
        type            noSlip;
    }
    nWall
    {
        type            noSlip;
    }
    sideWalls
    {
        type            empty;
    }
    glass1
    {
        type            noSlip;
    }
    glass2
    {
        type            noSlip;
    }
    sun
    {
        type            noSlip;
    }
    Table_master
    {
        type            noSlip;
    }
    Table_slave
    {
        type            noSlip;
    }
    inlet
    {
        type            fixedValue;
        value           uniform (0.5 0 0);
    }
    outlet
    {
        type            zeroGradient;
    }
}


// ************************************************************************* //
