/*--------------------------------*- C++ -*----------------------------------*\
  =========                 |
  \\      /  F ield         | OpenFOAM: The Open Source CFD Toolbox
   \\    /   O peration     | Website:  https://openfoam.org
    \\  /    A nd           | Version:  6
     \\/     M anipulation  |
\*---------------------------------------------------------------------------*/
FoamFile
{
    version     2.0;
    format      ascii;
    class       volScalarField;
    location    "41899.9999995490289";
    object      epsilon;
}
// * * * * * * * * * * * * * * * * * * * * * * * * * * * * * * * * * * * * * //

dimensions      [0 2 -3 0 0 0 0];

internalField   nonuniform List<scalar> 
778
(
0.000253146
0.00030639
0.000303037
0.000344209
0.000385065
0.000424857
0.000464277
0.000504516
0.000547312
0.000595384
0.000643782
0.000692131
0.000742087
0.000798446
0.000860233
8.94057e-05
0.000262822
0.000269215
0.000250117
0.00022023
0.000184148
0.00015236
0.000126543
0.000105937
8.94788e-05
7.63283e-05
6.5672e-05
5.68704e-05
4.93985e-05
4.27848e-05
3.65304e-05
3.18246e-05
2.36042e-05
0.000797075
0.00144336
0.000287007
0.000259586
0.000261674
0.000267634
0.000276517
0.000289931
0.000310166
0.000340347
0.00037954
0.000430649
0.000499047
0.000600296
0.00078552
0.00112927
0.00097866
0.000858423
0.000512447
0.000369838
0.000294513
0.000243109
0.000204208
0.000186998
0.000154718
0.000124995
0.000100686
8.14818e-05
6.65236e-05
5.48236e-05
4.56354e-05
3.87135e-05
3.45261e-05
3.27741e-05
6.58243e-05
4.81192e-05
0.00163082
0.0040797
0.000407454
0.00024292
0.000229085
0.00023099
0.000238199
0.000250459
0.000268351
0.000292607
0.000324724
0.000366795
0.000421213
0.000494987
0.000601472
0.000724799
0.000829797
0.00158449
0.00102787
0.000512596
0.000367979
0.000294513
0.000262293
0.000552126
0.000363024
0.000250954
0.000181427
0.000136323
0.000105923
8.47792e-05
6.98236e-05
5.94694e-05
4.51463e-05
3.7998e-05
0.000108219
7.08804e-05
0.00285393
0.008772
0.000710076
0.000240727
0.000202462
0.00019999
0.000203157
0.000209777
0.000220585
0.000237493
0.000263177
0.000299934
0.000349185
0.000412389
0.000488155
0.000560387
0.000612387
0.000824084
0.00156427
0.000729099
0.000459884
0.000358342
0.000301933
0.000291823
0.000814462
0.000613033
0.000482201
0.000388688
0.000319233
0.000264385
0.000218803
0.000179053
0.000141887
8.38788e-05
5.49523e-05
0.000148691
9.46938e-05
0.00454674
0.0158303
0.00134685
0.000258373
0.000175722
0.000166771
0.000165775
0.000167748
0.000173906
0.000187405
0.000211646
0.000248339
0.000297796
0.000359414
0.000427949
0.000489362
0.000528624
0.000582364
0.000627143
0.000483028
0.00039338
0.000330961
0.000282261
0.000248617
0.000247846
0.000226789
0.000202934
0.000181019
0.000162622
0.000146461
0.000131805
0.000118236
0.000105104
8.45453e-05
6.42811e-05
0.000105318
0.000138976
0.000160504
0.000366093
0.000326299
0.00676478
0.0248824
0.00255455
0.000318161
0.000155538
0.000137052
0.00013211
0.000130676
0.000134444
0.000148532
0.000176682
0.00021807
0.00027085
0.000334269
0.000401951
0.000462882
0.000503137
0.000521689
0.000504666
0.000438139
0.000373734
0.000315594
0.000264718
0.000223387
0.000193304
0.000169641
0.000150812
0.000135605
0.000123259
0.000112706
0.000103258
9.45124e-05
8.60866e-05
7.59274e-05
6.54042e-05
7.76812e-05
9.99119e-05
0.000209244
0.00106279
0.000559936
0.00967386
0.0336406
0.00458572
0.00046522
0.000150868
0.000116341
0.00010708
0.000103272
0.000107066
0.000127895
0.000166099
0.000215889
0.000273401
0.000340328
0.000409704
0.000470855
0.00051049
0.000520616
0.000494358
0.000437627
0.000371841
0.000307489
0.000250561
0.00020445
0.000169755
0.000144557
0.000126316
0.000112718
0.000102253
9.36803e-05
8.61946e-05
7.93332e-05
7.28024e-05
6.61386e-05
6.03312e-05
6.38528e-05
7.6943e-05
0.000173786
0.00159682
0.000912528
0.0127611
0.040408
0.00749266
0.000871969
0.000194413
0.000115416
9.73967e-05
9.14572e-05
9.86598e-05
0.000137675
0.000189236
0.000246265
0.00030722
0.00037425
0.000445429
0.00050877
0.000547979
0.000551322
0.000515924
0.000451704
0.000375637
0.000301064
0.000236549
0.000185998
0.000149323
0.000123976
0.000106695
9.45521e-05
8.5713e-05
7.87769e-05
7.28734e-05
6.75227e-05
6.24773e-05
5.7659e-05
5.39204e-05
5.59656e-05
7.10076e-05
0.000347313
0.00529022
0.00201332
0.0138288
0.0414555
0.0139359
0.00316656
0.000631111
0.000208339
0.000132801
0.000116048
0.000142512
0.0001929
0.00024923
0.000306458
0.000367667
0.000437353
0.00051211
0.000576807
0.000611763
0.00060372
0.000552523
0.000471265
0.00037877
0.000291148
0.000218412
0.0001641
0.000126807
0.000102614
8.72785e-05
7.7335e-05
7.06459e-05
6.56385e-05
6.14317e-05
5.75935e-05
5.39487e-05
5.0559e-05
4.83007e-05
5.29785e-05
0.000104282
0.00103008
0.0130542
0.00306005
0.0130046
0.0283639
0.0144164
0.00572956
0.00210665
0.000836002
0.000414439
0.000277263
0.000279289
0.000314699
0.000356121
0.000401902
0.000459202
0.00053206
0.000611487
0.000675386
0.000699673
0.000671214
0.000594258
0.000487169
0.000373156
0.00027113
0.000191439
0.00013592
0.000100758
7.99218e-05
6.79921e-05
6.12044e-05
5.71042e-05
5.41354e-05
5.15578e-05
4.90696e-05
4.6607e-05
4.43812e-05
4.3817e-05
5.76536e-05
0.000272635
0.00355621
0.0100178
0.00314846
0.0106877
0.0193503
0.0120376
0.00630183
0.00317638
0.00167624
0.00098783
0.000679785
0.000560551
0.000517635
0.000510645
0.000531953
0.000584827
0.000664557
0.000749462
0.000806614
0.000808122
0.000744508
0.000628512
0.000486779
0.000348382
0.000234242
0.000152914
0.000102024
7.37045e-05
5.89114e-05
5.14562e-05
4.79941e-05
4.61715e-05
4.48282e-05
4.3493e-05
4.20144e-05
4.0458e-05
3.92633e-05
4.09167e-05
7.17792e-05
0.000645849
0.00346512
0.00748658
0.00300847
0.00806895
0.0137644
0.00968985
0.00593335
0.00357033
0.00222818
0.00149144
0.00109371
0.0008698
0.000743936
0.000686383
0.000691178
0.000752499
0.000847311
0.000934482
0.000969552
0.000926128
0.000805574
0.00063548
0.000453297
0.000294166
0.000178179
0.000107308
6.96913e-05
5.26612e-05
4.45214e-05
4.06832e-05
3.9236e-05
3.86257e-05
3.81624e-05
3.75784e-05
3.68401e-05
3.61903e-05
3.63992e-05
4.0756e-05
7.76506e-05
0.000546253
0.00280303
0.00679742
0.0029148
0.00612101
0.0101649
0.00778878
0.00531179
0.00357009
0.00246931
0.0017883
0.00136856
0.00109328
0.000926494
0.000860178
0.000888618
0.000985721
0.00110036
0.00117092
0.00114955
0.00102537
0.000821321
0.000587308
0.000370266
0.000209238
0.000115036
7.22033e-05
5.23016e-05
4.29481e-05
3.82861e-05
3.59727e-05
3.50522e-05
3.47031e-05
3.44922e-05
3.43316e-05
3.44291e-05
3.53921e-05
3.86334e-05
4.85754e-05
9.03628e-05
0.000422997
0.00219429
0.0054117
0.00349423
0.00618545
0.00780777
0.00680211
0.00473823
0.00336488
0.00246203
0.00186572
0.0014623
0.00119472
0.00106527
0.00107216
0.00118343
0.00133283
0.00143915
0.00143629
0.00129612
0.00104741
0.000741681
0.00045823
0.000239251
0.000131064
8.12513e-05
5.93407e-05
4.88197e-05
4.312e-05
3.96712e-05
3.74669e-05
3.61095e-05
3.54319e-05
3.51553e-05
3.54931e-05
3.73684e-05
4.29074e-05
5.65821e-05
8.80846e-05
0.000164176
0.000452058
0.00202012
0.00420058
0.0037225
0.0045477
0.00511411
0.00418503
0.00336154
0.0026393
0.00206957
0.00164842
0.00136136
0.00124499
0.001302
0.00148143
0.00169058
0.00182565
0.00181213
0.00162773
0.00129319
0.000904574
0.000519747
0.000278161
0.000153474
9.96557e-05
7.66689e-05
6.56434e-05
5.92108e-05
5.48102e-05
5.1447e-05
4.86568e-05
4.62782e-05
4.47428e-05
4.44206e-05
4.60327e-05
5.24072e-05
7.01044e-05
0.000112004
0.000199935
0.000374861
0.000770323
0.00209378
0.00427728
0.00366864
0.0014
0.00142992
0.00143125
0.00135126
0.0013084
0.00142141
0.00170792
0.00204578
0.00230967
0.0024052
0.00228342
0.00196334
0.00151352
0.00097181
0.000562082
0.000307909
0.000182804
0.000130065
0.000108662
9.85342e-05
9.25636e-05
8.84669e-05
8.54348e-05
8.29598e-05
8.05383e-05
7.77681e-05
7.48411e-05
7.44944e-05
7.79513e-05
9.02821e-05
0.000123439
0.000201153
0.000364594
0.000683138
0.00129223
0.00243697
0.00431461
0.00316297
0.00118801
0.00171147
0.00194696
0.00230191
0.00275013
0.00315607
0.00333913
0.00330681
0.00308127
0.00268409
0.00211113
0.0014879
0.000954543
0.000557412
0.000328955
0.00022253
0.000180718
0.000164692
0.000157516
0.000153588
0.0001515
0.000150995
0.000151946
0.000153943
0.00015613
0.000157261
0.000156155
0.000153656
0.000157149
0.000171461
0.000209447
0.000297078
0.000481928
0.000848692
0.0015559
0.0028356
0.00470462
0.0029332
0.00742299
0.00812235
0.00481636
0.00339561
0.00372362
0.00413324
0.00414526
0.00393554
0.00358197
0.00312885
0.00261795
0.00206867
0.00151456
0.00102571
0.000665793
0.000452146
0.000353619
0.000315782
0.000301541
0.000294378
0.000288994
0.000284429
0.000281273
0.000280557
0.000283256
0.000289931
0.000300349
0.000313075
0.000325351
0.000334104
0.000342855
0.000367291
0.000414914
0.000506236
0.000683007
0.00102303
0.00167844
0.00295736
0.00506323
0.00387332
0.00650391
0.00514352
0.00436008
0.00461339
0.00452906
0.00426015
0.0036798
0.0030347
0.00245111
0.00196028
0.00155744
0.0012273
0.000961282
0.000762248
0.000631288
0.000559687
0.00052725
0.000514858
0.000511101
0.000510492
0.000510931
0.000512396
0.000516229
0.000524684
0.000540552
0.000566783
0.000605967
0.000659542
0.000726742
0.00080348
0.000881056
0.000955887
0.00104622
0.00117903
0.00139886
0.00177568
0.00243952
0.00386522
0.00485253
0.00481207
0.00535504
0.00337218
0.00332292
0.00362385
0.00388759
0.00355673
0.00295975
0.00234518
0.00181228
0.00137804
0.00103444
0.000774485
0.000594595
0.000487045
0.000435842
0.000419673
0.000420964
0.000429843
0.000441554
0.000454264
0.000467884
0.000483617
0.000503785
0.000531718
0.00057154
0.000627635
0.000703621
0.000801096
0.000918976
0.0010543
0.00120467
0.00137193
0.00155816
0.00176921
0.00202165
0.00233292
0.00271142
0.0031775
0.00377834
0.00362638
)
;

boundaryField
{
    floor
    {
        Cmu             0.09;
        kappa           0.41;
        E               9.8;
        type            epsilonWallFunction;
        value           nonuniform List<scalar> 
36
(
0.000860233
8.94057e-05
0.000262822
0.000269215
0.000250117
0.00022023
0.000184148
0.00015236
0.000126543
0.000105937
8.94788e-05
7.63283e-05
6.5672e-05
5.68704e-05
4.93985e-05
4.27848e-05
3.65304e-05
3.18246e-05
2.36042e-05
2.36042e-05
4.81192e-05
7.08804e-05
9.46938e-05
0.000160504
0.000366093
0.000326299
0.000860233
0.00112927
0.00097866
0.000858423
8.94057e-05
0.000858423
0.000512447
0.00158449
0.00102787
0.00156427
)
;
    }
    ceiling
    {
        Cmu             0.09;
        kappa           0.41;
        E               9.8;
        type            epsilonWallFunction;
        value           nonuniform List<scalar> 
43
(
0.00535504
0.00337218
0.00332292
0.00362385
0.00388759
0.00355673
0.00295975
0.00234518
0.00181228
0.00137804
0.00103444
0.000774485
0.000594595
0.000487045
0.000435842
0.000419673
0.000420964
0.000429843
0.000441554
0.000454264
0.000467884
0.000483617
0.000503785
0.000531718
0.00057154
0.000627635
0.000703621
0.000801096
0.000918976
0.0010543
0.00120467
0.00137193
0.00155816
0.00176921
0.00202165
0.00233292
0.00271142
0.0031775
0.00377834
0.00362638
0.0045477
0.00511411
0.00118801
)
;
    }
    sWall
    {
        Cmu             0.09;
        kappa           0.41;
        E               9.8;
        type            epsilonWallFunction;
        value           nonuniform List<scalar> 9(0.0130046 0.0106877 0.00806895 0.00612101 0.00618545 0.0045477 0.00742299 0.00650391 0.00535504);
    }
    nWall
    {
        Cmu             0.09;
        kappa           0.41;
        E               9.8;
        type            epsilonWallFunction;
        value           nonuniform List<scalar> 
14
(
0.000326299
0.000559936
0.000912528
0.00314846
0.00300847
0.0029148
0.00349423
0.0037225
0.00366864
0.00316297
0.0029332
0.00387332
0.00481207
0.00362638
)
;
    }
    sideWalls
    {
        type            empty;
    }
    glass1
    {
        Cmu             0.09;
        kappa           0.41;
        E               9.8;
        type            epsilonWallFunction;
        value           nonuniform List<scalar> 9(0.000253146 0.000797075 0.00163082 0.00285393 0.00454674 0.00676478 0.00967386 0.0127611 0.0138288);
    }
    glass2
    {
        Cmu             0.09;
        kappa           0.41;
        E               9.8;
        type            epsilonWallFunction;
        value           nonuniform List<scalar> 2(0.00201332 0.00306005);
    }
    sun
    {
        Cmu             0.09;
        kappa           0.41;
        E               9.8;
        type            epsilonWallFunction;
        value           nonuniform List<scalar> 
14
(
0.000253146
0.00030639
0.000303037
0.000344209
0.000385065
0.000424857
0.000464277
0.000504516
0.000547312
0.000595384
0.000643782
0.000692131
0.000742087
0.000798446
)
;
    }
    Table_master
    {
        Cmu             0.09;
        kappa           0.41;
        E               9.8;
        type            epsilonWallFunction;
        value           nonuniform List<scalar> 9(0.000552126 0.000363024 0.000250954 0.000181427 0.000136323 0.000105923 8.47792e-05 6.98236e-05 5.94694e-05);
    }
    Table_slave
    {
        Cmu             0.09;
        kappa           0.41;
        E               9.8;
        type            epsilonWallFunction;
        value           nonuniform List<scalar> 9(0.000814462 0.000613033 0.000482201 0.000388688 0.000319233 0.000264385 0.000218803 0.000179053 0.000141887);
    }
    inlet
    {
        type            turbulentMixingLengthDissipationRateInlet;
        mixingLength    0.01;
        phi             phi;
        k               k;
        value           uniform 0.000471671;
    }
    outlet
    {
        type            zeroGradient;
    }
}


// ************************************************************************* //
