/*--------------------------------*- C++ -*----------------------------------*\
  =========                 |
  \\      /  F ield         | OpenFOAM: The Open Source CFD Toolbox
   \\    /   O peration     | Website:  https://openfoam.org
    \\  /    A nd           | Version:  6
     \\/     M anipulation  |
\*---------------------------------------------------------------------------*/
FoamFile
{
    version     2.0;
    format      ascii;
    class       volScalarField;
    location    "41899.9999995490289";
    object      k;
}
// * * * * * * * * * * * * * * * * * * * * * * * * * * * * * * * * * * * * * //

dimensions      [0 2 -2 0 0 0 0];

internalField   nonuniform List<scalar> 
778
(
0.00158605
0.00180129
0.00178813
0.00194663
0.00209777
0.0022399
0.0023764
0.0025118
0.0026519
0.002805
0.00295502
0.00310118
0.00324866
0.00341113
0.00358492
0.000792462
0.00162621
0.00165248
0.00157337
0.0014454
0.00128286
0.00113062
0.000998992
0.000887361
0.000792895
0.000713169
0.000645142
0.000586128
0.000533595
0.000484836
0.000436354
0.000398025
0.000326133
0.00340722
0.00643403
0.00268766
0.00274612
0.00288772
0.00305418
0.00323436
0.00342987
0.00364278
0.00387278
0.00412459
0.00437823
0.00459411
0.00469969
0.00459439
0.004298
0.00390682
0.00357989
0.00253805
0.00281404
0.00295654
0.00289875
0.00266548
0.00226574
0.00190595
0.00160946
0.00136964
0.00117583
0.00101709
0.000885343
0.000774112
0.000681312
0.000615329
0.000574878
0.000864611
0.000524341
0.00549126
0.0127828
0.00347823
0.00321206
0.0032973
0.00345504
0.00363625
0.00384018
0.00407018
0.00432649
0.00463433
0.00500965
0.00545013
0.00596037
0.00653253
0.00686221
0.00627954
0.00538677
0.00403669
0.00416905
0.00417328
0.00397641
0.00357912
0.00266744
0.00201694
0.00157688
0.00127019
0.00104982
0.000887287
0.000764883
0.000672053
0.000603853
0.000551619
0.000548865
0.00116546
0.000678816
0.00797438
0.0217619
0.00449181
0.00339064
0.00334129
0.00343776
0.003549
0.00366829
0.00380827
0.00399029
0.0042579
0.00464724
0.00517036
0.00582519
0.00655583
0.00713669
0.00723011
0.00724647
0.00534083
0.00554575
0.00537313
0.00512388
0.00478625
0.00434831
0.0034566
0.00286016
0.00243718
0.00211091
0.00185129
0.00163265
0.00143914
0.00125909
0.0010782
0.000801214
0.000660188
0.0014212
0.000823409
0.0108776
0.0336402
0.00621426
0.00342493
0.00315804
0.00316663
0.00318917
0.00320936
0.00325146
0.00336022
0.00359366
0.00398812
0.00455282
0.00527709
0.00608825
0.00681942
0.00728389
0.00764247
0.0075128
0.00665015
0.00606988
0.00557668
0.00509791
0.00462929
0.00412374
0.00366646
0.00327576
0.002938
0.00263158
0.00234797
0.00207935
0.00181862
0.00155518
0.0012225
0.000931242
0.00119103
0.0012173
0.00117055
0.00202811
0.00187841
0.0141765
0.0476057
0.00928689
0.00349013
0.00290834
0.00282243
0.00276404
0.00269915
0.00266376
0.00273397
0.00298012
0.00341374
0.00402375
0.00479945
0.00565629
0.00646409
0.00706984
0.00740593
0.00732033
0.00678632
0.00621196
0.00563502
0.00507323
0.00455583
0.00409172
0.00369621
0.00336351
0.00307401
0.00280693
0.00255153
0.00229898
0.00204233
0.00177412
0.00147183
0.00117933
0.00111375
0.00111327
0.00170258
0.0050524
0.00269244
0.0179943
0.0606122
0.0143651
0.00382014
0.00271514
0.00252918
0.00241154
0.00229373
0.00222073
0.00231116
0.00262994
0.0031394
0.00380341
0.00463515
0.00553369
0.00637194
0.00700443
0.00732909
0.00725338
0.00681626
0.00621375
0.00555377
0.00491147
0.0043428
0.00387274
0.00350067
0.0032068
0.00296182
0.00274127
0.00252891
0.00231335
0.00208729
0.00184557
0.00158323
0.00132769
0.00116196
0.00109502
0.00155257
0.00624745
0.00372856
0.0216434
0.070485
0.0214427
0.00510425
0.0027431
0.00237179
0.00221002
0.00208176
0.00202609
0.00221914
0.00264952
0.00323158
0.00394006
0.00478053
0.00570757
0.00658239
0.00723056
0.00751793
0.007386
0.00689699
0.00619893
0.00542786
0.00469242
0.00406516
0.00357486
0.00321263
0.00294756
0.00274087
0.00256395
0.00239541
0.00222165
0.00203517
0.00183217
0.00161291
0.00139654
0.0012334
0.0011636
0.00210868
0.0135225
0.00631867
0.0228345
0.0694878
0.0325406
0.0110639
0.00406999
0.00258799
0.0022356
0.00210296
0.00218998
0.0025121
0.00300018
0.00360317
0.00433694
0.00522146
0.00619717
0.00709983
0.00772684
0.00792936
0.0076687
0.00702909
0.00616907
0.00525227
0.00441054
0.00372439
0.00321771
0.00286937
0.00263569
0.0024691
0.00233599
0.00221063
0.00207833
0.00193199
0.001769
0.00159132
0.00141418
0.00129574
0.00139033
0.00408745
0.026049
0.008353
0.0219179
0.0516237
0.0336444
0.0174405
0.0085933
0.00476239
0.00326261
0.00273056
0.00285366
0.00321089
0.00367247
0.00424841
0.00500175
0.00595012
0.00698927
0.00790199
0.00845247
0.008491
0.00800939
0.00713045
0.0060491
0.00496164
0.00401738
0.00329453
0.00280016
0.0024901
0.00230325
0.00218511
0.00209656
0.00201102
0.00191514
0.00180321
0.00167389
0.0015302
0.00138746
0.00132216
0.00192558
0.0106774
0.0222072
0.00851311
0.0192305
0.0394244
0.0302349
0.0195697
0.0121873
0.00794292
0.00572019
0.00467132
0.00436345
0.00440005
0.00465296
0.00514841
0.00594347
0.00699487
0.00810458
0.00897776
0.00935195
0.00910245
0.00828031
0.0070711
0.00572443
0.00447201
0.00347043
0.00277438
0.00235228
0.00211828
0.00199382
0.00192581
0.00187536
0.00182096
0.00175264
0.0016662
0.00156154
0.00144333
0.00133244
0.00136303
0.0031664
0.0111581
0.0187351
0.00825823
0.0159446
0.0315768
0.0266465
0.0195398
0.0139788
0.010287
0.00802984
0.00675427
0.00605055
0.00573156
0.00578413
0.00627919
0.00721975
0.00843161
0.00957907
0.0102898
0.0103125
0.00959601
0.00829456
0.00668056
0.00507331
0.00373551
0.00280102
0.00224144
0.00196111
0.00182084
0.00175135
0.00171683
0.0016888
0.00165322
0.00160301
0.00153444
0.00144907
0.00135382
0.00127512
0.00136435
0.00304202
0.010176
0.0186479
0.00808398
0.0132622
0.02567
0.0233491
0.0186906
0.0145853
0.0115901
0.00954556
0.00821109
0.00730089
0.00684124
0.00696137
0.00772685
0.00898869
0.0103725
0.0114047
0.0116953
0.0110937
0.00969039
0.00779717
0.00578048
0.00404444
0.00284694
0.00220174
0.00186973
0.00170721
0.00162643
0.00158474
0.00156144
0.00153902
0.00150904
0.00146722
0.00141229
0.00134622
0.00127713
0.00123786
0.00138777
0.00284046
0.00913676
0.0168528
0.00912072
0.0133551
0.0224141
0.0220585
0.0177611
0.0143936
0.0118954
0.0100854
0.00876927
0.00791869
0.00777679
0.00847887
0.00987609
0.0115284
0.0128597
0.0133719
0.0128028
0.0112429
0.00897158
0.00652809
0.0043181
0.00296423
0.00222239
0.00185548
0.00167486
0.00158153
0.00152729
0.00149023
0.00146044
0.00142957
0.00139354
0.0013505
0.00130287
0.00125977
0.00124939
0.00135518
0.0017692
0.00325789
0.00926721
0.0148916
0.00951502
0.0108792
0.0117647
0.0129244
0.0125533
0.0113746
0.0100741
0.00894531
0.00820196
0.00830377
0.00942075
0.0112984
0.0133596
0.014929
0.0154747
0.0147561
0.0127995
0.0100943
0.00700033
0.0046209
0.00311314
0.00232424
0.00194315
0.00175755
0.00165603
0.00158938
0.00153575
0.0014854
0.00143477
0.00138435
0.00133498
0.00128862
0.00125943
0.00128845
0.00146822
0.00194467
0.00289972
0.00482359
0.00994321
0.0155807
0.00942864
0.00354337
0.00482273
0.0059921
0.00659342
0.00726812
0.00878831
0.0113104
0.0141425
0.0165492
0.0179556
0.0180025
0.0166301
0.0140824
0.0105069
0.00722999
0.00476097
0.00326833
0.00251096
0.0021657
0.00200149
0.00190829
0.00184143
0.0017834
0.00172625
0.00166564
0.00159964
0.00153096
0.00147842
0.00144787
0.00146848
0.00161345
0.00202081
0.00287836
0.00438276
0.00680422
0.0104478
0.014637
0.008542
0.00444578
0.00627771
0.00808517
0.01099
0.0146669
0.0181265
0.0203722
0.0214321
0.021333
0.0200634
0.0174725
0.0139399
0.0102586
0.00698802
0.00470212
0.00341288
0.00281789
0.00257131
0.00246332
0.00240369
0.00236172
0.00232858
0.00230216
0.00228087
0.00226074
0.00223459
0.00219377
0.00214013
0.00212219
0.00216882
0.00235381
0.00281235
0.0037429
0.00538058
0.00797144
0.0115102
0.0150128
0.00812053
0.0150818
0.0245434
0.0181076
0.0143582
0.0169536
0.0206482
0.02278
0.0234875
0.023038
0.021679
0.0196201
0.0169109
0.0136728
0.0102943
0.00734656
0.00528149
0.00417337
0.00370339
0.00352661
0.00344785
0.00339097
0.00333429
0.00327778
0.00322923
0.00319816
0.00319243
0.00321552
0.00326398
0.00332578
0.00338241
0.00344165
0.00357859
0.00383629
0.00431686
0.00519628
0.00673026
0.00928146
0.0133302
0.0178391
0.00976403
0.0138097
0.017063
0.0178286
0.0207285
0.0216436
0.0220559
0.0210618
0.0192582
0.0171504
0.0149784
0.0128277
0.0107129
0.00869367
0.00694302
0.00565889
0.00491472
0.00457828
0.00445668
0.00442138
0.00440881
0.0043928
0.00436775
0.00433994
0.0043226
0.00433319
0.00439179
0.00451927
0.00473341
0.00504236
0.00543518
0.00586605
0.0062772
0.00671926
0.00732526
0.00827641
0.00980143
0.0122339
0.0166988
0.0182646
0.0112946
0.0121314
0.00891267
0.00882564
0.00935072
0.00979904
0.00923479
0.00817004
0.00699566
0.00589094
0.00490757
0.00405347
0.00334227
0.00280245
0.00245354
0.00227845
0.00222178
0.00222631
0.00225744
0.00229819
0.00234202
0.00238858
0.00244188
0.00250945
0.00260163
0.0027303
0.00290652
0.00313688
0.0034203
0.00374781
0.00410668
0.00448768
0.00489327
0.00532578
0.00579577
0.00633436
0.00696873
0.00770327
0.00856223
0.00961036
0.00935362
)
;

boundaryField
{
    floor
    {
        type            kqRWallFunction;
        value           nonuniform List<scalar> 
36
(
0.00358492
0.000792462
0.00162621
0.00165248
0.00157337
0.0014454
0.00128286
0.00113062
0.000998992
0.000887361
0.000792895
0.000713169
0.000645142
0.000586128
0.000533595
0.000484836
0.000436354
0.000398025
0.000326133
0.000326133
0.000524341
0.000678816
0.000823409
0.00117055
0.00202811
0.00187841
0.00358492
0.004298
0.00390682
0.00357989
0.000792462
0.00357989
0.00253805
0.00538677
0.00403669
0.00534083
)
;
    }
    ceiling
    {
        type            kqRWallFunction;
        value           nonuniform List<scalar> 
43
(
0.0121314
0.00891267
0.00882564
0.00935072
0.00979904
0.00923479
0.00817004
0.00699566
0.00589094
0.00490757
0.00405347
0.00334227
0.00280245
0.00245354
0.00227845
0.00222178
0.00222631
0.00225744
0.00229819
0.00234202
0.00238858
0.00244188
0.00250945
0.00260163
0.0027303
0.00290652
0.00313688
0.0034203
0.00374781
0.00410668
0.00448768
0.00489327
0.00532578
0.00579577
0.00633436
0.00696873
0.00770327
0.00856223
0.00961036
0.00935362
0.0108792
0.0117647
0.00444578
)
;
    }
    sWall
    {
        type            kqRWallFunction;
        value           nonuniform List<scalar> 9(0.0219179 0.0192305 0.0159446 0.0132622 0.0133551 0.0108792 0.0150818 0.0138097 0.0121314);
    }
    nWall
    {
        type            kqRWallFunction;
        value           nonuniform List<scalar> 
14
(
0.00187841
0.00269244
0.00372856
0.00851311
0.00825823
0.00808398
0.00912072
0.00951502
0.00942864
0.008542
0.00812053
0.00976403
0.0112946
0.00935362
)
;
    }
    sideWalls
    {
        type            empty;
    }
    glass1
    {
        type            kqRWallFunction;
        value           nonuniform List<scalar> 9(0.00158605 0.00340722 0.00549126 0.00797438 0.0108776 0.0141765 0.0179943 0.0216434 0.0228345);
    }
    glass2
    {
        type            kqRWallFunction;
        value           nonuniform List<scalar> 2(0.00631867 0.008353);
    }
    sun
    {
        type            kqRWallFunction;
        value           nonuniform List<scalar> 
14
(
0.00158605
0.00180129
0.00178813
0.00194663
0.00209777
0.0022399
0.0023764
0.0025118
0.0026519
0.002805
0.00295502
0.00310118
0.00324866
0.00341113
)
;
    }
    Table_master
    {
        type            kqRWallFunction;
        value           nonuniform List<scalar> 9(0.00266744 0.00201694 0.00157688 0.00127019 0.00104982 0.000887287 0.000764883 0.000672053 0.000603853);
    }
    Table_slave
    {
        type            kqRWallFunction;
        value           nonuniform List<scalar> 9(0.0034566 0.00286016 0.00243718 0.00211091 0.00185129 0.00163265 0.00143914 0.00125909 0.0010782);
    }
    inlet
    {
        type            turbulentIntensityKineticEnergyInlet;
        intensity       0.05;
        value           uniform 0.0009375;
    }
    outlet
    {
        type            zeroGradient;
    }
}


// ************************************************************************* //
