/*--------------------------------*- C++ -*----------------------------------*\
  =========                 |
  \\      /  F ield         | OpenFOAM: The Open Source CFD Toolbox
   \\    /   O peration     | Website:  https://openfoam.org
    \\  /    A nd           | Version:  6
     \\/     M anipulation  |
\*---------------------------------------------------------------------------*/
FoamFile
{
    version     2.0;
    format      ascii;
    class       volScalarField;
    location    "24500";
    object      epsilon;
}
// * * * * * * * * * * * * * * * * * * * * * * * * * * * * * * * * * * * * * //

dimensions      [0 2 -3 0 0 0 0];

internalField   nonuniform List<scalar> 
778
(
0.000253145
0.000306393
0.000303047
0.000344226
0.00038509
0.000424888
0.000464312
0.000504554
0.000547349
0.000595416
0.0006438
0.00069213
0.000742061
0.000798394
0.000860157
8.94014e-05
0.000262781
0.000269154
0.000250046
0.000220161
0.000184095
0.000152326
0.000126522
0.000105922
8.94661e-05
7.63167e-05
6.56614e-05
5.68608e-05
4.93903e-05
4.27779e-05
3.65249e-05
3.1821e-05
2.36024e-05
0.00079707
0.00144336
0.000287016
0.0002596
0.000261689
0.00026765
0.000276533
0.000289947
0.00031018
0.000340356
0.000379538
0.00043063
0.000499006
0.000600227
0.000785418
0.00112912
0.000978535
0.00085833
0.000512521
0.000369848
0.000294491
0.000243068
0.000204158
0.000186938
0.000154674
0.000124967
0.000100669
8.14708e-05
6.65159e-05
5.48177e-05
4.56304e-05
3.87089e-05
3.45216e-05
3.27688e-05
6.58273e-05
4.81164e-05
0.00163081
0.00407971
0.000407462
0.000242932
0.000229098
0.000231003
0.000238211
0.000250469
0.000268359
0.000292609
0.000324717
0.000366775
0.000421175
0.000494931
0.000601401
0.000724718
0.000829713
0.00158441
0.00102796
0.000512635
0.000367989
0.0002945
0.00026226
0.000552006
0.000362916
0.000250866
0.000181362
0.000136278
0.000105894
8.47595e-05
6.98097e-05
5.94587e-05
4.51386e-05
3.79917e-05
0.000108256
7.08798e-05
0.0028539
0.00877204
0.000710085
0.000240738
0.000202473
0.0002
0.000203165
0.000209783
0.000220588
0.000237491
0.000263169
0.000299914
0.00034915
0.000412338
0.000488095
0.00056033
0.000612338
0.00082404
0.00156425
0.000729152
0.000459914
0.000358358
0.000301939
0.000291818
0.000814424
0.000612966
0.000482116
0.000388597
0.000319148
0.000264311
0.000218741
0.000179002
0.000141843
8.38501e-05
5.49315e-05
0.000148798
9.46878e-05
0.0045467
0.0158304
0.00134687
0.000258382
0.000175732
0.000166779
0.00016578
0.00016775
0.000173906
0.000187403
0.000211638
0.000248321
0.000297761
0.000359357
0.000427877
0.000489289
0.000528559
0.000582316
0.000627094
0.000483016
0.000393383
0.000330969
0.000282266
0.000248617
0.00024784
0.000226779
0.000202918
0.000181001
0.000162603
0.000146442
0.000131789
0.000118224
0.000105095
8.45334e-05
6.42544e-05
0.000105352
0.000138982
0.00016057
0.00036903
0.000327649
0.00676473
0.0248827
0.0025546
0.000318168
0.000155546
0.000137058
0.000132114
0.000130677
0.000134443
0.000148532
0.00017668
0.000218059
0.00027082
0.00033421
0.000401867
0.000462792
0.00050305
0.000521618
0.000504612
0.00043811
0.000373724
0.000315593
0.000264717
0.000223384
0.000193298
0.000169636
0.000150808
0.000135602
0.000123255
0.000112701
0.000103252
9.45084e-05
8.60885e-05
7.59299e-05
6.5383e-05
7.76747e-05
9.99116e-05
0.000210234
0.00106934
0.000561417
0.00967383
0.0336409
0.00458584
0.000465226
0.000150872
0.000116345
0.000107082
0.000103272
0.000107065
0.000127898
0.000166105
0.00021589
0.000273381
0.000340276
0.00040962
0.000470756
0.000510393
0.000520534
0.000494296
0.000437589
0.000371822
0.000307481
0.000250556
0.000204444
0.000169751
0.000144555
0.000126317
0.000112721
0.000102255
9.36787e-05
8.61899e-05
7.93285e-05
7.28035e-05
6.61449e-05
6.03165e-05
6.3817e-05
7.69538e-05
0.000174952
0.00161021
0.000917019
0.0127611
0.0404083
0.00749292
0.000871975
0.000194407
0.000115413
9.73932e-05
9.14522e-05
9.86501e-05
0.000137672
0.000189241
0.00024627
0.000307209
0.000374211
0.000445363
0.000508687
0.000547891
0.000551241
0.000515858
0.00045166
0.000375614
0.000301053
0.000236545
0.000185995
0.000149323
0.000123979
0.000106702
9.45611e-05
8.57202e-05
7.87796e-05
7.28703e-05
6.7516e-05
6.24728e-05
5.76583e-05
5.38978e-05
5.58722e-05
7.10974e-05
0.000352998
0.00534147
0.00203617
0.0138288
0.0414554
0.0139364
0.00316673
0.000631095
0.00020831
0.000132776
0.000116025
0.000142475
0.000192868
0.000249213
0.000306453
0.000367662
0.000437339
0.000512085
0.000576768
0.000611707
0.000603651
0.000552453
0.000471211
0.000378741
0.00029114
0.000218416
0.000164109
0.000126818
0.000102627
8.72945e-05
7.7352e-05
7.06611e-05
6.56493e-05
6.14358e-05
5.75907e-05
5.39413e-05
5.05438e-05
4.82329e-05
5.26815e-05
0.000104641
0.00106339
0.0133377
0.00309039
0.0130044
0.0283636
0.0144166
0.00572966
0.00210655
0.000835849
0.000414308
0.000277158
0.000279176
0.000314605
0.000356059
0.000401875
0.000459208
0.000532098
0.000611544
0.00067543
0.000699671
0.000671158
0.000594172
0.000487094
0.000373119
0.000271131
0.000191463
0.000135948
0.000100785
7.99461e-05
6.80162e-05
6.12291e-05
5.71288e-05
5.41581e-05
5.15768e-05
4.90835e-05
4.66146e-05
4.43677e-05
4.36682e-05
5.66173e-05
0.000278756
0.00369119
0.0100689
0.00318204
0.0106876
0.0193503
0.0120377
0.00630181
0.0031762
0.00167601
0.000987601
0.000679568
0.000560349
0.000517471
0.000510534
0.000531913
0.000584879
0.000664708
0.000749672
0.000806795
0.000808193
0.000744447
0.000628378
0.000486658
0.000348338
0.000234265
0.00015297
0.000102073
7.37388e-05
5.89375e-05
5.14814e-05
4.80226e-05
4.62028e-05
4.48612e-05
4.35281e-05
4.20542e-05
4.05072e-05
3.93113e-05
4.07084e-05
6.71555e-05
0.000570228
0.00351053
0.00775597
0.00306618
0.00806897
0.0137647
0.00969005
0.00593333
0.00357018
0.00222799
0.00149124
0.00109348
0.000869591
0.00074376
0.000686268
0.000691182
0.000752691
0.000847703
0.000934966
0.000969931
0.000926256
0.000805444
0.00063524
0.000453113
0.000294143
0.000178241
0.000107384
6.97252e-05
5.2677e-05
4.45348e-05
4.07039e-05
3.92657e-05
3.86597e-05
3.81976e-05
3.76157e-05
3.68879e-05
3.6283e-05
3.66121e-05
4.09983e-05
7.21468e-05
0.000448384
0.0027071
0.00712406
0.0030419
0.00612132
0.0101659
0.00778945
0.00531198
0.0035701
0.00246927
0.00178823
0.00136847
0.00109317
0.000926381
0.000860132
0.000888796
0.000986258
0.00110122
0.00117184
0.00115014
0.00102546
0.000820992
0.000586923
0.000370054
0.00020932
0.000115083
7.22255e-05
5.22859e-05
4.29148e-05
3.82598e-05
3.59722e-05
3.5078e-05
3.47393e-05
3.45231e-05
3.43461e-05
3.44425e-05
3.55261e-05
3.92812e-05
5.06604e-05
9.36527e-05
0.000387547
0.00216681
0.00546424
0.00368811
0.00618606
0.00780956
0.00680322
0.00473872
0.00336515
0.00246219
0.00186581
0.00146235
0.0011947
0.0010652
0.00107227
0.00118404
0.00133407
0.0014408
0.00143776
0.00129679
0.00104718
0.000741031
0.000457892
0.000239115
0.000131092
8.12578e-05
5.92725e-05
4.86805e-05
4.29512e-05
3.95297e-05
3.74015e-05
3.61264e-05
3.54898e-05
3.51975e-05
3.54597e-05
3.72685e-05
4.31394e-05
5.8863e-05
9.73919e-05
0.000190153
0.000485411
0.00207803
0.00438541
0.00389116
0.00454802
0.00511513
0.00418555
0.00336181
0.00263948
0.0020697
0.00164852
0.00136138
0.00124484
0.0013019
0.00148192
0.00169211
0.00182813
0.00181481
0.00162953
0.00129343
0.000903742
0.000519154
0.000277916
0.000153477
9.96516e-05
7.65097e-05
6.52896e-05
5.86981e-05
5.42367e-05
5.0952e-05
4.83792e-05
4.62893e-05
4.49211e-05
4.45885e-05
4.59121e-05
5.16784e-05
6.90403e-05
0.000113806
0.000215684
0.000428431
0.000894261
0.00217139
0.0047623
0.00355528
0.00139979
0.00142965
0.00143094
0.00135104
0.00130828
0.00142093
0.00170733
0.00204587
0.00231125
0.00240846
0.00228747
0.00196674
0.00151501
0.000971448
0.000561442
0.000307642
0.000182774
0.000129966
0.000108273
9.77503e-05
9.13737e-05
8.69555e-05
8.37965e-05
8.15012e-05
7.96388e-05
7.77534e-05
7.56783e-05
7.5525e-05
7.83737e-05
8.855e-05
0.000117429
0.000190194
0.000355778
0.00070164
0.00138605
0.00261468
0.00439677
0.00308187
0.00118821
0.00171123
0.00194691
0.00230179
0.00274957
0.00315576
0.00333937
0.00330838
0.00308467
0.002689
0.00211579
0.00149181
0.000956948
0.000558557
0.0003294
0.000222462
0.000180136
0.000163545
0.00015576
0.000151205
0.000148521
0.000147563
0.000148382
0.0001508
0.000154201
0.000157467
0.000159187
0.000158502
0.000161529
0.000172865
0.000203562
0.000278146
0.000444991
0.000794267
0.00149362
0.0028339
0.00516392
0.00298229
0.00742318
0.00812586
0.00481858
0.00339651
0.00372357
0.00413227
0.00414359
0.00393365
0.00358076
0.00312884
0.00261994
0.00207099
0.00151573
0.00102512
0.000663593
0.000449203
0.0003504
0.000312547
0.000298506
0.000291631
0.000286433
0.000281805
0.000278294
0.000276989
0.00027902
0.000285258
0.000296043
0.000310786
0.000327537
0.000342987
0.000354452
0.000376514
0.00042064
0.00050306
0.000663039
0.000979437
0.00162106
0.00301171
0.00498573
0.00415165
0.00650372
0.00514411
0.00435826
0.00461225
0.00452866
0.00426021
0.00368004
0.00303483
0.00245106
0.00196032
0.00155807
0.00122935
0.000963719
0.000762822
0.000627838
0.00055275
0.000518318
0.000505701
0.000503148
0.000504554
0.000507152
0.000510322
0.000514957
0.000523039
0.000537298
0.000560911
0.000597162
0.000648908
0.000717655
0.000802169
0.000896821
0.000989724
0.00109125
0.00122826
0.0014459
0.00181758
0.00247782
0.00395321
0.00505704
0.00485602
0.00535515
0.0033727
0.003324
0.00362601
0.00389125
0.00356273
0.0029683
0.0023562
0.00182509
0.00139112
0.0010457
0.00078193
0.0005977
0.000486964
0.00043482
0.000417813
0.00041927
0.000429025
0.000441984
0.000455913
0.000470238
0.000485614
0.000503775
0.000527495
0.000560592
0.0006078
0.000674236
0.00076424
0.000879899
0.00102035
0.00118295
0.00136657
0.00157625
0.001813
0.00208761
0.00241797
0.0028164
0.00330921
0.00392867
0.00366261
)
;

boundaryField
{
    floor
    {
        Cmu             0.09;
        kappa           0.41;
        E               9.8;
        type            epsilonWallFunction;
        value           nonuniform List<scalar> 
36
(
0.000860157
8.94014e-05
0.000262781
0.000269154
0.000250046
0.000220161
0.000184095
0.000152326
0.000126522
0.000105922
8.94661e-05
7.63167e-05
6.56614e-05
5.68608e-05
4.93903e-05
4.27779e-05
3.65249e-05
3.1821e-05
2.36024e-05
2.36024e-05
4.81164e-05
7.08798e-05
9.46878e-05
0.00016057
0.00036903
0.000327649
0.000860157
0.00112912
0.000978535
0.00085833
8.94014e-05
0.00085833
0.000512521
0.00158441
0.00102796
0.00156425
)
;
    }
    ceiling
    {
        Cmu             0.09;
        kappa           0.41;
        E               9.8;
        type            epsilonWallFunction;
        value           nonuniform List<scalar> 
43
(
0.00535515
0.0033727
0.003324
0.00362601
0.00389125
0.00356273
0.0029683
0.0023562
0.00182509
0.00139112
0.0010457
0.00078193
0.0005977
0.000486964
0.00043482
0.000417813
0.00041927
0.000429025
0.000441984
0.000455913
0.000470238
0.000485614
0.000503775
0.000527495
0.000560592
0.0006078
0.000674236
0.00076424
0.000879899
0.00102035
0.00118295
0.00136657
0.00157625
0.001813
0.00208761
0.00241797
0.0028164
0.00330921
0.00392867
0.00366261
0.00454802
0.00511513
0.00118821
)
;
    }
    sWall
    {
        Cmu             0.09;
        kappa           0.41;
        E               9.8;
        type            epsilonWallFunction;
        value           nonuniform List<scalar> 9(0.0130044 0.0106876 0.00806897 0.00612132 0.00618606 0.00454802 0.00742318 0.00650372 0.00535515);
    }
    nWall
    {
        Cmu             0.09;
        kappa           0.41;
        E               9.8;
        type            epsilonWallFunction;
        value           nonuniform List<scalar> 
14
(
0.000327649
0.000561417
0.000917019
0.00318204
0.00306618
0.0030419
0.00368811
0.00389116
0.00355528
0.00308187
0.00298229
0.00415165
0.00485602
0.00366261
)
;
    }
    sideWalls
    {
        type            empty;
    }
    glass1
    {
        Cmu             0.09;
        kappa           0.41;
        E               9.8;
        type            epsilonWallFunction;
        value           nonuniform List<scalar> 9(0.000253145 0.00079707 0.00163081 0.0028539 0.0045467 0.00676473 0.00967383 0.0127611 0.0138288);
    }
    glass2
    {
        Cmu             0.09;
        kappa           0.41;
        E               9.8;
        type            epsilonWallFunction;
        value           nonuniform List<scalar> 2(0.00203617 0.00309039);
    }
    sun
    {
        Cmu             0.09;
        kappa           0.41;
        E               9.8;
        type            epsilonWallFunction;
        value           nonuniform List<scalar> 
14
(
0.000253145
0.000306393
0.000303047
0.000344226
0.00038509
0.000424888
0.000464312
0.000504554
0.000547349
0.000595416
0.0006438
0.00069213
0.000742061
0.000798394
)
;
    }
    Table_master
    {
        Cmu             0.09;
        kappa           0.41;
        E               9.8;
        type            epsilonWallFunction;
        value           nonuniform List<scalar> 9(0.000552006 0.000362916 0.000250866 0.000181362 0.000136278 0.000105894 8.47595e-05 6.98097e-05 5.94587e-05);
    }
    Table_slave
    {
        Cmu             0.09;
        kappa           0.41;
        E               9.8;
        type            epsilonWallFunction;
        value           nonuniform List<scalar> 9(0.000814424 0.000612966 0.000482116 0.000388597 0.000319148 0.000264311 0.000218741 0.000179002 0.000141843);
    }
    inlet
    {
        type            turbulentMixingLengthDissipationRateInlet;
        mixingLength    0.01;
        phi             phi;
        k               k;
        value           uniform 0.000471671;
    }
    outlet
    {
        type            zeroGradient;
    }
}


// ************************************************************************* //
