/*--------------------------------*- C++ -*----------------------------------*\
  =========                 |
  \\      /  F ield         | OpenFOAM: The Open Source CFD Toolbox
   \\    /   O peration     | Website:  https://openfoam.org
    \\  /    A nd           | Version:  6
     \\/     M anipulation  |
\*---------------------------------------------------------------------------*/
FoamFile
{
    version     2.0;
    format      ascii;
    class       volScalarField;
    location    "24500";
    object      nut;
}
// * * * * * * * * * * * * * * * * * * * * * * * * * * * * * * * * * * * * * //

dimensions      [0 2 -1 0 0 0 0];

internalField   nonuniform List<scalar> 
778
(
0.000894338
0.000953099
0.000949616
0.000990815
0.00102857
0.00106284
0.00109475
0.0011255
0.00115647
0.00118937
0.00122075
0.00125057
0.00127995
0.00131155
0.00134453
0.00063216
0.000905549
0.000912812
0.000890679
0.000853679
0.000804258
0.000755043
0.000709745
0.000668921
0.000632314
0.00059968
0.000570361
0.000543648
0.000518713
0.000494447
0.000469076
0.000448006
0.000405538
0.00131082
0.00258129
0.00226516
0.00261457
0.00286812
0.00313689
0.00340493
0.00365188
0.0038506
0.00396623
0.00403417
0.00400607
0.00380626
0.00331134
0.00241839
0.00147217
0.00140358
0.00134358
0.0011314
0.00192705
0.00267107
0.00311042
0.00313086
0.00247052
0.00211294
0.00186495
0.00167668
0.001527
0.00139946
0.00128671
0.00118177
0.00107909
0.000986945
0.0009075
0.00102217
0.000514214
0.0016641
0.00360467
0.00267229
0.00382248
0.00427135
0.00465113
0.00499596
0.00529932
0.0055562
0.00575752
0.00595258
0.00615787
0.00634661
0.00645913
0.00638505
0.00584694
0.0042767
0.00164817
0.00142682
0.00305188
0.00425983
0.00483191
0.00439532
0.00115974
0.00100844
0.000891654
0.00080026
0.00072754
0.000668864
0.000621027
0.000582129
0.000551805
0.000606573
0.000713529
0.00112983
0.000585086
0.00200536
0.0048589
0.00255732
0.00429814
0.0049628
0.00531848
0.00557995
0.00577327
0.0059174
0.00603408
0.0062
0.00648049
0.00689
0.00740522
0.00792353
0.00817955
0.00768244
0.00573532
0.00164115
0.00379614
0.0056501
0.00659422
0.00682869
0.00583132
0.00132027
0.00120095
0.00110857
0.00103169
0.000966151
0.000907305
0.00085184
0.000796772
0.000737312
0.000688732
0.000713827
0.00122301
0.000644383
0.00234213
0.00643386
0.0025805
0.00408603
0.00510798
0.00541149
0.00552182
0.00552623
0.00547134
0.00542254
0.00549176
0.00576412
0.00626427
0.00697284
0.00779477
0.00855219
0.00903228
0.00902602
0.00809958
0.00823995
0.00842942
0.00845733
0.00828683
0.00775787
0.00617496
0.00533449
0.00475863
0.00429125
0.00383223
0.00338729
0.00295189
0.00251712
0.00207068
0.00159062
0.00121387
0.00121229
0.000959567
0.000768416
0.00101388
0.000974568
0.0026738
0.00819729
0.00303858
0.00344576
0.00489435
0.00523121
0.00520472
0.00501766
0.00474998
0.00452907
0.00452395
0.00480948
0.00537957
0.00620132
0.00716272
0.0081234
0.00893986
0.00946144
0.00955601
0.00945994
0.00929264
0.00905555
0.00875063
0.00836228
0.00779489
0.00724789
0.00675104
0.00627114
0.00575238
0.0051981
0.00460601
0.00397127
0.00328996
0.00256722
0.00191313
0.00143655
0.001116
0.00124834
0.00216792
0.00116623
0.00301239
0.00982878
0.00405
0.00282324
0.00439778
0.00494846
0.00488786
0.004585
0.00414541
0.00375874
0.00374768
0.00410863
0.00476164
0.00568088
0.00672558
0.0077594
0.00864848
0.00928488
0.00957739
0.00955456
0.00934514
0.00902802
0.00866482
0.00830238
0.00795168
0.00762965
0.00732696
0.00700411
0.00661371
0.00614363
0.00558718
0.00494182
0.00421001
0.00341019
0.00262847
0.00190137
0.00140116
0.00124848
0.00220795
0.00137339
0.00330376
0.0110654
0.00552294
0.00268907
0.00348349
0.00438675
0.00451331
0.00426459
0.00374472
0.00321924
0.00333871
0.00381653
0.00454752
0.00549519
0.00658112
0.00766338
0.00858537
0.00922525
0.00951549
0.0094771
0.00920639
0.00880715
0.00837756
0.00799646
0.00770266
0.00749271
0.00732884
0.0071508
0.00690261
0.00655524
0.0060953
0.00552013
0.00483498
0.00405983
0.00325365
0.00244278
0.00171067
0.00115226
0.00313337
0.00179144
0.00339344
0.0104827
0.00683854
0.0034791
0.00236213
0.00289348
0.00338741
0.00342999
0.00302899
0.0029444
0.0032505
0.00381283
0.0046041
0.00561007
0.00674885
0.0078644
0.00878248
0.00937205
0.00957831
0.00943488
0.0090423
0.00852728
0.0080159
0.00760771
0.00734866
0.00722159
0.00716389
0.00709534
0.00695218
0.00670085
0.00632816
0.00583268
0.0052203
0.00450704
0.00372434
0.00284728
0.00165326
0.00147275
0.0047443
0.00205881
0.00332462
0.00845607
0.00706661
0.00477786
0.00315456
0.00244141
0.0023115
0.00242029
0.00262418
0.00294843
0.00340848
0.00404187
0.00490336
0.00598891
0.00719004
0.00832082
0.00918973
0.00966648
0.00971458
0.00939184
0.00882469
0.00817149
0.0075876
0.00718726
0.00700402
0.00698297
0.00702273
0.00702188
0.00692849
0.00672427
0.00640319
0.00596458
0.00541137
0.00474865
0.00395569
0.0027423
0.00119992
0.00292818
0.00444223
0.00207892
0.00311414
0.00722912
0.00683472
0.00546936
0.00420821
0.00338703
0.00298072
0.00288859
0.00305651
0.00336578
0.00381556
0.00448458
0.00543672
0.00662737
0.00788921
0.00899448
0.00974091
0.0100157
0.00981706
0.00924343
0.00846474
0.00768373
0.00708869
0.00679016
0.00675671
0.00685554
0.00695398
0.00695579
0.00685666
0.00665854
0.00635785
0.00594898
0.00542643
0.00477626
0.00391584
0.0024089
0.00133442
0.00325022
0.00432289
0.00205293
0.00283564
0.00651981
0.00659503
0.00579141
0.00492559
0.00427406
0.0038905
0.00375343
0.00378741
0.00397367
0.00438652
0.00513436
0.0062356
0.00755388
0.00884056
0.00983144
0.0103365
0.0102878
0.00974272
0.0088597
0.00787392
0.00704788
0.00657938
0.00648729
0.00657287
0.00670331
0.00678694
0.00676243
0.00664685
0.00644708
0.00615602
0.00575413
0.00522201
0.00452128
0.00357025
0.00222294
0.00147652
0.00330519
0.00481158
0.00204631
0.00258618
0.00583499
0.00630021
0.00591925
0.00536287
0.00489585
0.00458539
0.00443342
0.00438746
0.00454588
0.00507026
0.00604798
0.00738011
0.0088048
0.0100032
0.0107136
0.0108046
0.0102897
0.00931489
0.0081201
0.00703434
0.00633863
0.00603907
0.00601347
0.00610873
0.00622243
0.0062879
0.00626323
0.00614474
0.00594293
0.00564409
0.00521304
0.00459529
0.00374876
0.00274059
0.00187274
0.00173646
0.00345131
0.00481388
0.00218182
0.00259527
0.00579201
0.0064387
0.00599229
0.0055415
0.00517256
0.00490643
0.00473272
0.00472325
0.00510903
0.00603515
0.00742046
0.00898039
0.0103504
0.0112131
0.011388
0.0108635
0.00976572
0.00836782
0.00701045
0.00602755
0.00546209
0.00521389
0.0051693
0.00522647
0.00530345
0.00534585
0.0053226
0.0051936
0.00497226
0.00462716
0.00408889
0.00330349
0.00240989
0.00179573
0.00169733
0.00217457
0.00392108
0.00489023
0.00222159
0.00234235
0.00243592
0.00359218
0.00421895
0.00441173
0.00441326
0.00436868
0.004447
0.00498365
0.0061342
0.00775688
0.00950743
0.0109976
0.0119058
0.0120505
0.0114076
0.0101379
0.00848191
0.00690146
0.00567131
0.00486286
0.0044171
0.0042258
0.00416937
0.00415989
0.00414455
0.00409813
0.00401081
0.00385539
0.0036116
0.00325982
0.00275131
0.00214426
0.00171262
0.00168336
0.00204369
0.00278498
0.00417765
0.00520875
0.00215996
0.000807062
0.00146359
0.00225716
0.00289498
0.00363345
0.00488909
0.00673958
0.00879935
0.0106769
0.0120749
0.0127897
0.012694
0.0118043
0.0102277
0.00836482
0.0066123
0.00523871
0.00433881
0.00386187
0.00364147
0.00353198
0.00345095
0.00335957
0.0032443
0.0031078
0.00296069
0.0028114
0.00263887
0.00243594
0.00218743
0.0019323
0.00182373
0.00201434
0.00251438
0.00323419
0.00397906
0.00429497
0.00205858
0.00149741
0.00207236
0.00302187
0.00472235
0.0070394
0.00936952
0.0111866
0.012505
0.0133024
0.013514
0.0130351
0.0117715
0.0099312
0.00788043
0.00603057
0.00468072
0.00391926
0.00357876
0.00343863
0.00336662
0.00330494
0.00323215
0.00314467
0.00304828
0.0029519
0.00286209
0.00277919
0.00269452
0.00260293
0.00250639
0.00242166
0.00241323
0.00259417
0.00303979
0.00370263
0.00437242
0.0047169
0.00203388
0.00275788
0.00667723
0.00613013
0.00546593
0.00694773
0.00928274
0.0112644
0.0126136
0.0133362
0.0135242
0.0132468
0.0124592
0.0111227
0.00929784
0.00727271
0.0055085
0.00437612
0.00384967
0.0036598
0.00359666
0.00356223
0.00351922
0.00345749
0.00337941
0.0032932
0.00320938
0.00313884
0.00309144
0.00307397
0.00308666
0.00311675
0.00315442
0.00321305
0.00333024
0.00356356
0.00398513
0.00466275
0.00564858
0.00585373
0.00227022
0.00263896
0.00509452
0.00656017
0.0083818
0.00930851
0.0102759
0.0108475
0.0109968
0.010799
0.0103028
0.00951663
0.00842879
0.00708524
0.00568142
0.00452183
0.00381751
0.00350152
0.00340001
0.00338667
0.0033956
0.00339587
0.00337542
0.003333
0.0032734
0.00320495
0.00313926
0.00309207
0.00308288
0.00313151
0.00325194
0.00344333
0.00367285
0.00388645
0.00411311
0.00442549
0.0048916
0.00556744
0.00662607
0.00639401
0.00239404
0.00247344
0.00212016
0.0021099
0.00217195
0.00222365
0.00215919
0.00203168
0.00188107
0.00172745
0.00157788
0.00143461
0.00130214
0.00119069
0.00111221
0.00107108
0.00105699
0.00105822
0.00106633
0.00107689
0.00108802
0.00109925
0.00111111
0.00112486
0.00114242
0.0011661
0.00119831
0.00124082
0.00129398
0.00135621
0.00142459
0.00149611
0.00156931
0.00164524
0.00172322
0.00180576
0.00189617
0.00199496
0.00210502
0.00222902
0.00217899
)
;

boundaryField
{
    floor
    {
        type            nutkWallFunction;
        Cmu             0.09;
        kappa           0.41;
        E               9.8;
        value           nonuniform List<scalar> 
36
(
0.000160538
7.63561e-05
0.000109543
0.000110406
0.000107771
0.000103349
9.74078e-05
9.14482e-05
8.5922e-05
8.09055e-05
7.63757e-05
7.23108e-05
6.86357e-05
6.52671e-05
6.21043e-05
5.90083e-05
5.57509e-05
5.3029e-05
4.74922e-05
4.74921e-05
6.15313e-05
7.0484e-05
7.78723e-05
9.30729e-05
0.000122365
0.000117729
0.000160538
0.000174984
0.000167238
0.000160429
7.6356e-05
0.000160429
0.000136062
0.000194679
0.000169867
0.000193897
)
;
    }
    ceiling
    {
        type            nutkWallFunction;
        Cmu             0.09;
        kappa           0.41;
        E               9.8;
        value           nonuniform List<scalar> 
43
(
0.000284293
0.000246378
0.000245271
0.000251984
0.000257568
0.000250636
0.000236836
0.000220407
0.000203499
0.000186874
0.000170783
0.000155738
0.00014294
0.000133843
0.000129045
0.000127394
0.000127538
0.000128488
0.000129727
0.00013103
0.000132342
0.000133721
0.000135312
0.000137334
0.000140051
0.000143737
0.000148595
0.000154659
0.000161747
0.000169513
0.00017761
0.000185859
0.000194373
0.000203076
0.000212228
0.000222182
0.000232993
0.000244968
0.000258366
0.000252851
0.000270495
0.000280494
0.000177616
)
;
    }
    sWall
    {
        type            nutkWallFunction;
        Cmu             0.09;
        kappa           0.41;
        E               9.8;
        value           nonuniform List<scalar> 9(0.000373886 0.000352051 0.000322925 0.000296587 0.000297547 0.000270584 0.000314433 0.000301912 0.000284394);
    }
    nWall
    {
        type            nutkWallFunction;
        Cmu             0.09;
        kappa           0.41;
        E               9.8;
        value           nonuniform List<scalar> 
14
(
0.000117736
0.000140117
0.00016385
0.000242071
0.000239286
0.000238663
0.000253367
0.000257624
0.000250628
0.000239727
0.000237231
0.000262857
0.000275972
0.000252889
)
;
    }
    sideWalls
    {
        type            empty;
    }
    glass1
    {
        type            nutkWallFunction;
        Cmu             0.09;
        kappa           0.41;
        E               9.8;
        value           nonuniform List<scalar> 9(0.000108251 0.000156887 0.000196744 0.00023436 0.000270807 0.00030616 0.00034178 0.000372102 0.000381388);
    }
    glass2
    {
        type            nutkWallFunction;
        Cmu             0.09;
        kappa           0.41;
        E               9.8;
        value           nonuniform List<scalar> 2(0.000210727 0.000240008);
    }
    sun
    {
        type            nutkWallFunction;
        Cmu             0.09;
        kappa           0.41;
        E               9.8;
        value           nonuniform List<scalar> 
14
(
0.00010821
0.000115185
0.000114773
0.000119636
0.000124072
0.000128084
0.000131805
0.00013538
0.000138967
0.000142769
0.000146383
0.000149806
0.000153171
0.000156781
)
;
    }
    Table_master
    {
        type            nutkWallFunction;
        Cmu             0.09;
        kappa           0.41;
        E               9.8;
        value           nonuniform List<scalar> 9(0.000139336 0.000121702 0.000107884 9.69245e-05 8.80992e-05 8.09019e-05 7.4978e-05 7.01206e-05 6.63064e-05);
    }
    Table_slave
    {
        type            nutkWallFunction;
        Cmu             0.09;
        kappa           0.41;
        E               9.8;
        value           nonuniform List<scalar> 9(0.000157763 0.000144092 0.000133404 0.00012443 0.000116721 0.000109748 0.000103127 9.65036e-05 8.92909e-05);
    }
    inlet
    {
        type            calculated;
        value           uniform 0.000167705;
    }
    outlet
    {
        type            calculated;
        value           nonuniform List<scalar> 2(0.00275788 0.00667723);
    }
}


// ************************************************************************* //
