/*--------------------------------*- C++ -*----------------------------------*\
  =========                 |
  \\      /  F ield         | OpenFOAM: The Open Source CFD Toolbox
   \\    /   O peration     | Website:  https://openfoam.org
    \\  /    A nd           | Version:  6
     \\/     M anipulation  |
\*---------------------------------------------------------------------------*/
FoamFile
{
    version     2.0;
    format      ascii;
    class       volScalarField;
    location    "46200.0000004250542";
    object      k;
}
// * * * * * * * * * * * * * * * * * * * * * * * * * * * * * * * * * * * * * //

dimensions      [0 2 -2 0 0 0 0];

internalField   nonuniform List<scalar> 
778
(
0.00158599
0.00180128
0.00178821
0.00194681
0.00209806
0.00224031
0.0023769
0.00251238
0.00265253
0.00280564
0.00295558
0.00310158
0.00324884
0.00341105
0.00358458
0.000792513
0.00162529
0.00165135
0.00157215
0.00144424
0.00128199
0.00113005
0.000998596
0.000887032
0.000792578
0.000712861
0.00064485
0.00058586
0.000533356
0.000484631
0.000436182
0.000397909
0.000326065
0.00340709
0.00643391
0.00268776
0.00274635
0.00288806
0.00305464
0.00323493
0.00343055
0.00364353
0.00387351
0.00412516
0.00437846
0.00459384
0.0046989
0.00459327
0.00429683
0.00390578
0.00357895
0.00253831
0.00281352
0.00295514
0.0028967
0.00266325
0.00226392
0.00190465
0.00160858
0.00136906
0.00117544
0.0010168
0.0008851
0.000773891
0.000681104
0.000615118
0.000574626
0.00086468
0.000524176
0.00549099
0.0127824
0.00347831
0.00321233
0.00329767
0.0034555
0.00363681
0.00384082
0.00407086
0.00432708
0.00463472
0.00500962
0.00544942
0.00595884
0.00653024
0.00685953
0.00627738
0.00538566
0.00403779
0.00416991
0.00417326
0.00397541
0.00357732
0.0026653
0.00201493
0.00157522
0.00126894
0.00104893
0.000886669
0.000764443
0.000671714
0.000603569
0.000551396
0.000548664
0.00116652
0.000678571
0.0079739
0.0217613
0.00449182
0.00339092
0.00334166
0.00343818
0.00354947
0.0036688
0.00380879
0.00399076
0.00425824
0.00464721
0.00516968
0.0058237
0.00655371
0.00713445
0.00722856
0.00724628
0.00534131
0.00554676
0.00537458
0.00512498
0.00478666
0.004348
0.0034559
0.00285901
0.00243573
0.0021094
0.00184986
0.00163138
0.00143803
0.00125809
0.00107725
0.000800413
0.00065959
0.00142394
0.000822791
0.0108769
0.0336395
0.00621408
0.00342518
0.00315838
0.003167
0.00318952
0.0032097
0.0032518
0.00336054
0.0035939
0.00398802
0.00455198
0.00527522
0.0060856
0.00681662
0.00728176
0.00764147
0.00751265
0.00665075
0.00607102
0.00557781
0.00509855
0.00462925
0.00412317
0.00366553
0.00327464
0.00293679
0.00263039
0.00234684
0.00207829
0.00181767
0.00155435
0.00122151
0.000929783
0.00119141
0.00121693
0.00117097
0.00206797
0.00189179
0.0141756
0.0476054
0.00928641
0.00349029
0.00290863
0.00282273
0.00276429
0.00269933
0.00266391
0.00273416
0.00298029
0.00341354
0.00402259
0.00479683
0.00565251
0.00646002
0.00706636
0.00740371
0.0073193
0.00678627
0.00621258
0.00563578
0.0050737
0.00455582
0.00409132
0.00369564
0.00336292
0.00307338
0.00280625
0.00255077
0.00229813
0.00204148
0.00177342
0.0014711
0.00117754
0.00111232
0.00111184
0.00172431
0.0051493
0.00269982
0.0179933
0.0606125
0.0143645
0.00382006
0.00271531
0.00252937
0.00241166
0.00229377
0.00222071
0.00231132
0.00263018
0.00313929
0.00380207
0.00463187
0.00552877
0.00636643
0.00699949
0.00732547
0.00725119
0.00681526
0.00621355
0.0055539
0.00491156
0.00434271
0.00387254
0.00350051
0.00320675
0.00296178
0.00274114
0.00252857
0.00231273
0.00208649
0.00184488
0.00158271
0.00132604
0.00115847
0.00109252
0.00157446
0.0063953
0.00376572
0.0216425
0.0704862
0.0214426
0.00510345
0.00274294
0.00237177
0.00220994
0.00208158
0.00202587
0.00221916
0.00264979
0.0032315
0.00393858
0.00477691
0.00570205
0.00657609
0.00722469
0.00751324
0.00738268
0.00689485
0.00619769
0.00542719
0.00469207
0.00406498
0.00357485
0.00321287
0.00294803
0.00274142
0.00256442
0.00239562
0.00222144
0.00203455
0.00183146
0.00161233
0.0013947
0.00122578
0.00115722
0.00217962
0.0141689
0.00653444
0.0228336
0.0694881
0.0325416
0.0110617
0.00406821
0.00258731
0.00223516
0.00210249
0.00218933
0.00251174
0.00300019
0.00360286
0.00433526
0.00521777
0.00619178
0.00709375
0.00772101
0.00792426
0.00766444
0.00702568
0.00616658
0.0052507
0.00440979
0.00372424
0.003218
0.00287003
0.00263666
0.00247023
0.00233715
0.00221163
0.00207895
0.00193212
0.00176879
0.00159071
0.00141058
0.00127663
0.00136011
0.00439646
0.0285443
0.00855356
0.0219172
0.0516256
0.0336451
0.0174375
0.0085887
0.00475851
0.00326002
0.00272883
0.00285178
0.00320949
0.0036716
0.00424744
0.00499981
0.00594691
0.00698521
0.00789766
0.00844805
0.00848624
0.00800426
0.0071254
0.00604502
0.00495911
0.00401646
0.00329467
0.00280083
0.00249109
0.00230454
0.00218664
0.00209835
0.00201297
0.00191708
0.0018051
0.00167579
0.00153151
0.00138353
0.00128943
0.00176319
0.0112757
0.0236098
0.00875017
0.0192307
0.0394289
0.0302365
0.0195673
0.0121826
0.00793784
0.00571549
0.00466704
0.00435956
0.00439703
0.00465076
0.00514656
0.00594172
0.00699354
0.00810405
0.00897756
0.00935065
0.00909859
0.00827385
0.00706362
0.00571844
0.00446873
0.00346984
0.00277484
0.00235292
0.00211901
0.00199484
0.0019273
0.00187738
0.00182341
0.00175555
0.00166998
0.00156662
0.00144931
0.00133199
0.00129278
0.0020938
0.010799
0.02244
0.00876906
0.0159461
0.0315832
0.02665
0.0195392
0.0139759
0.0102833
0.0080257
0.00674915
0.00604594
0.00572772
0.00578107
0.00627723
0.00721998
0.00843531
0.00958603
0.0102971
0.0103161
0.00959277
0.0082855
0.00666968
0.0050661
0.00373237
0.00280106
0.00224059
0.00196014
0.00182034
0.00175168
0.00171799
0.00169051
0.00165513
0.00160512
0.00153747
0.00145392
0.00136188
0.00128099
0.00131509
0.00228
0.00935328
0.021114
0.00956929
0.0132647
0.0256792
0.0233561
0.0186926
0.0145849
0.0115885
0.00954314
0.0082083
0.00729792
0.00683804
0.00695864
0.007727
0.00899521
0.0103874
0.0114255
0.0117142
0.0111026
0.00968569
0.00778409
0.00576703
0.00404046
0.00284342
0.00219869
0.00186571
0.00170314
0.00162361
0.00158391
0.00156236
0.00154067
0.0015101
0.00146659
0.00140972
0.00134387
0.0012818
0.00127062
0.00153838
0.00292228
0.00947464
0.0186953
0.0103835
0.0133556
0.0224287
0.0220677
0.0177656
0.014396
0.0118963
0.0100852
0.00876895
0.00791725
0.00777394
0.00847769
0.00988299
0.0115496
0.0128959
0.0134143
0.0128352
0.0112539
0.00896176
0.00651538
0.00430779
0.00295964
0.00221758
0.00184787
0.00166476
0.00157135
0.00151973
0.00148696
0.00146125
0.00143262
0.00139582
0.00134917
0.00129603
0.00125144
0.00126862
0.00152544
0.00240395
0.0045418
0.0101071
0.0190978
0.00973503
0.0108791
0.0117686
0.0129257
0.0125537
0.0113751
0.0100751
0.0089469
0.00820256
0.00830071
0.00941645
0.0113021
0.0133834
0.0149791
0.0155446
0.0148246
0.0128391
0.0100996
0.00699035
0.00461259
0.00310965
0.00231952
0.0019322
0.00173933
0.00163282
0.00156553
0.00151616
0.00147397
0.00143312
0.00139038
0.00134405
0.00129526
0.00125507
0.00126133
0.00142817
0.00203127
0.00350913
0.00636043
0.0109909
0.016269
0.00859291
0.00354039
0.00481794
0.0059878
0.00659353
0.00727294
0.00878587
0.0113027
0.0141408
0.0165713
0.0180153
0.0180979
0.0167399
0.0141706
0.010543
0.00724047
0.00476181
0.00326642
0.00250282
0.00214674
0.00197004
0.0018653
0.00178982
0.00172772
0.00167272
0.00162238
0.00157612
0.00153409
0.0015039
0.00148512
0.00148893
0.00155637
0.00180097
0.00247584
0.00400733
0.00687298
0.0113139
0.0163858
0.00797942
0.00444644
0.00628067
0.00809452
0.0110028
0.0146738
0.0181344
0.0203797
0.0214556
0.0213928
0.0201698
0.0176054
0.0140828
0.0103765
0.00706347
0.00473873
0.00341469
0.0027907
0.00252098
0.00239547
0.00232265
0.00226986
0.00222712
0.00219352
0.00217204
0.00216637
0.00217787
0.00220277
0.00223046
0.00226485
0.00232072
0.00242409
0.0026656
0.00323224
0.00447174
0.00694098
0.0113873
0.0176065
0.00926334
0.0150775
0.0245507
0.0181347
0.0143831
0.0169762
0.0206602
0.0227806
0.0234818
0.0230385
0.0216978
0.0196891
0.0170182
0.0137878
0.0103782
0.00736219
0.00522367
0.00405691
0.00355088
0.0033638
0.00329773
0.00326791
0.00324124
0.00320813
0.00317183
0.00314268
0.00313304
0.00315322
0.00320968
0.00330526
0.00343906
0.00360365
0.00379123
0.00404076
0.00445386
0.00514085
0.00636041
0.00871335
0.0145485
0.0179378
0.0103163
0.013807
0.0170629
0.0178221
0.0207324
0.0216614
0.0220782
0.021084
0.0192769
0.0171659
0.0149976
0.0128648
0.0108005
0.00882548
0.00705584
0.00565633
0.00476896
0.00431978
0.00414416
0.00411535
0.00415818
0.00422742
0.00429594
0.00435115
0.00439329
0.00443244
0.0044842
0.00456628
0.00469739
0.00489876
0.00519597
0.00561802
0.00619009
0.00691408
0.00777843
0.00886409
0.0103725
0.0127048
0.0173476
0.0201584
0.0110583
0.0121341
0.00891535
0.00883078
0.00936073
0.0098156
0.00926334
0.00821572
0.00706495
0.00598793
0.00502923
0.00418615
0.00346181
0.00288522
0.00249381
0.00229065
0.00221329
0.0022117
0.00224917
0.00230452
0.00236632
0.00242862
0.00248922
0.00254905
0.00261181
0.00268372
0.00277343
0.00289248
0.0030561
0.0032829
0.00359165
0.00399489
0.00449335
0.0050781
0.00574376
0.00650856
0.00735936
0.00828477
0.0093201
0.0104182
0.00941356
)
;

boundaryField
{
    floor
    {
        type            kqRWallFunction;
        value           nonuniform List<scalar> 
36
(
0.00358458
0.000792513
0.00162529
0.00165135
0.00157215
0.00144424
0.00128199
0.00113005
0.000998596
0.000887032
0.000792578
0.000712861
0.00064485
0.00058586
0.000533356
0.000484631
0.000436182
0.000397909
0.000326065
0.000326065
0.000524176
0.000678571
0.000822791
0.00117097
0.00206797
0.00189179
0.00358458
0.00429683
0.00390578
0.00357895
0.000792513
0.00357895
0.00253831
0.00538566
0.00403779
0.00534131
)
;
    }
    ceiling
    {
        type            kqRWallFunction;
        value           nonuniform List<scalar> 
43
(
0.0121341
0.00891535
0.00883078
0.00936073
0.0098156
0.00926334
0.00821572
0.00706495
0.00598793
0.00502923
0.00418615
0.00346181
0.00288522
0.00249381
0.00229065
0.00221329
0.0022117
0.00224917
0.00230452
0.00236632
0.00242862
0.00248922
0.00254905
0.00261181
0.00268372
0.00277343
0.00289248
0.0030561
0.0032829
0.00359165
0.00399489
0.00449335
0.0050781
0.00574376
0.00650856
0.00735936
0.00828477
0.0093201
0.0104182
0.00941356
0.0108791
0.0117686
0.00444644
)
;
    }
    sWall
    {
        type            kqRWallFunction;
        value           nonuniform List<scalar> 9(0.0219172 0.0192307 0.0159461 0.0132647 0.0133556 0.0108791 0.0150775 0.013807 0.0121341);
    }
    nWall
    {
        type            kqRWallFunction;
        value           nonuniform List<scalar> 
14
(
0.00189179
0.00269982
0.00376572
0.00875017
0.00876906
0.00956929
0.0103835
0.00973503
0.00859291
0.00797942
0.00926334
0.0103163
0.0110583
0.00941356
)
;
    }
    sideWalls
    {
        type            empty;
    }
    glass1
    {
        type            kqRWallFunction;
        value           nonuniform List<scalar> 9(0.00158599 0.00340709 0.00549099 0.0079739 0.0108769 0.0141756 0.0179933 0.0216425 0.0228336);
    }
    glass2
    {
        type            kqRWallFunction;
        value           nonuniform List<scalar> 2(0.00653444 0.00855356);
    }
    sun
    {
        type            kqRWallFunction;
        value           nonuniform List<scalar> 
14
(
0.00158599
0.00180128
0.00178821
0.00194681
0.00209806
0.00224031
0.0023769
0.00251238
0.00265253
0.00280564
0.00295558
0.00310158
0.00324884
0.00341105
)
;
    }
    Table_master
    {
        type            kqRWallFunction;
        value           nonuniform List<scalar> 9(0.0026653 0.00201493 0.00157522 0.00126894 0.00104893 0.000886669 0.000764443 0.000671714 0.000603569);
    }
    Table_slave
    {
        type            kqRWallFunction;
        value           nonuniform List<scalar> 9(0.0034559 0.00285901 0.00243573 0.0021094 0.00184986 0.00163138 0.00143803 0.00125809 0.00107725);
    }
    inlet
    {
        type            turbulentIntensityKineticEnergyInlet;
        intensity       0.05;
        value           uniform 0.0009375;
    }
    outlet
    {
        type            zeroGradient;
    }
}


// ************************************************************************* //
