/*--------------------------------*- C++ -*----------------------------------*\
  =========                 |
  \\      /  F ield         | OpenFOAM: The Open Source CFD Toolbox
   \\    /   O peration     | Website:  https://openfoam.org
    \\  /    A nd           | Version:  6
     \\/     M anipulation  |
\*---------------------------------------------------------------------------*/
FoamFile
{
    version     2.0;
    format      ascii;
    class       volScalarField;
    location    "45000.000000180582";
    object      alphat;
}
// * * * * * * * * * * * * * * * * * * * * * * * * * * * * * * * * * * * * * //

dimensions      [1 -1 -1 0 0 0 0];

internalField   nonuniform List<scalar> 
778
(
0.00104102
0.00111058
0.00110658
0.0011546
0.00119861
0.00123857
0.00127577
0.00131163
0.00134773
0.00138611
0.00142272
0.00145751
0.0014918
0.0015287
0.0015672
0.000736678
0.00105574
0.00106425
0.00103846
0.000995323
0.000937684
0.000880281
0.000827448
0.000779838
0.000737148
0.000699094
0.000664905
0.000633754
0.000604676
0.000576377
0.000546789
0.00052221
0.000472655
0.0015247
0.00300743
0.00263941
0.00304654
0.00334196
0.00365511
0.00396742
0.00425518
0.00448678
0.0046216
0.00470092
0.00466843
0.00443592
0.00385949
0.002819
0.00171616
0.00163627
0.00156634
0.001319
0.00224678
0.00311442
0.00362683
0.00365073
0.00288065
0.0024637
0.00217454
0.001955
0.00178043
0.0016317
0.00150022
0.00137785
0.00125812
0.00115066
0.001058
0.00119155
0.00059935
0.0019342
0.00419901
0.00311343
0.00445343
0.0049762
0.00541844
0.00581996
0.00617322
0.00647241
0.00670702
0.00693448
0.00717415
0.00739489
0.00752711
0.00744196
0.00681569
0.00498577
0.00192153
0.00166357
0.00355829
0.00496677
0.00563395
0.005125
0.00135229
0.00117588
0.00103971
0.000933137
0.000848335
0.000779907
0.000724117
0.000678754
0.000643389
0.000707226
0.000831886
0.00131702
0.000681964
0.00232918
0.00565877
0.00297911
0.00500687
0.00578072
0.00619455
0.00649862
0.00672336
0.00689094
0.00702673
0.00722015
0.00754747
0.00802566
0.00862764
0.00923361
0.00953387
0.00895577
0.00668636
0.00191345
0.00442633
0.00658781
0.00768851
0.00796195
0.00679916
0.00153941
0.00140031
0.00129261
0.00120297
0.00112656
0.00105795
0.000993272
0.000929061
0.000859732
0.000803061
0.000832251
0.00142551
0.000751093
0.00271847
0.007491
0.00300572
0.00475913
0.00594883
0.00630158
0.00642932
0.00643377
0.00636933
0.00631224
0.0063929
0.00671066
0.00729449
0.008122
0.00908226
0.00996753
0.0105293
0.0105233
0.00944384
0.00960763
0.00982839
0.00986077
0.00966193
0.00904526
0.00719975
0.00621987
0.00554849
0.00500357
0.0044684
0.00394965
0.00344201
0.00293509
0.00241453
0.00185476
0.00141547
0.00141331
0.00111855
0.000895597
0.00117989
0.00113466
0.00310143
0.00954128
0.00353878
0.0040129
0.00569923
0.00609064
0.00605889
0.00584028
0.00552799
0.00527044
0.00526441
0.0055973
0.00626247
0.00722196
0.00834503
0.00946752
0.0104217
0.0110312
0.0111421
0.0110302
0.0108349
0.0105581
0.0102025
0.00974962
0.00908813
0.00845044
0.00787122
0.00731176
0.00670702
0.00606087
0.0053706
0.00463059
0.00383621
0.00299353
0.002231
0.00167521
0.00130124
0.00145409
0.00252259
0.00135813
0.00349222
0.0114364
0.00471583
0.00328759
0.00512044
0.00576078
0.00568933
0.00533594
0.0048236
0.00437307
0.00435992
0.00478033
0.00554191
0.00661505
0.00783544
0.00904345
0.0100823
0.0108258
0.0111674
0.0111407
0.0108961
0.0105259
0.0101021
0.00967937
0.00927044
0.00889499
0.00854213
0.00816582
0.0077108
0.00716291
0.0065143
0.00576199
0.00490881
0.00397637
0.00306524
0.00221784
0.00163439
0.00145525
0.00256812
0.0015987
0.00382796
0.0128689
0.00642873
0.00313096
0.00405553
0.00510643
0.00525303
0.00496284
0.00435707
0.00374497
0.0038835
0.00443979
0.00529217
0.00639848
0.00766712
0.00893188
0.0100093
0.0107569
0.0110957
0.0110505
0.0107342
0.0102681
0.00976679
0.00932222
0.00897957
0.00873476
0.00854373
0.00833625
0.00804706
0.00764229
0.00710629
0.0064359
0.00563722
0.00473368
0.00379439
0.00285034
0.001998
0.00134331
0.00363638
0.00208139
0.00392911
0.0121729
0.00795133
0.00404871
0.00274967
0.00336784
0.00394222
0.00399132
0.00352401
0.00342488
0.0037805
0.00443517
0.00535793
0.00653249
0.00786309
0.00916696
0.0102399
0.0109287
0.0111693
0.0110013
0.0105427
0.00994139
0.00934463
0.00886844
0.00856632
0.00841814
0.00835088
0.00827102
0.00810428
0.00781148
0.00737723
0.00679979
0.00608601
0.0052548
0.00434329
0.00332266
0.00193729
0.00170819
0.00548239
0.0023915
0.00384953
0.00980955
0.00820771
0.00555492
0.00366988
0.00284093
0.00268973
0.00281597
0.00305254
0.00342897
0.00396379
0.00470157
0.00570672
0.00697467
0.00837848
0.00970032
0.0107158
0.0112726
0.0113283
0.0109509
0.0102885
0.00952596
0.00884466
0.00837772
0.00816409
0.00813954
0.00818588
0.0081849
0.00807612
0.00783818
0.00746401
0.00695276
0.00630789
0.00553562
0.00461033
0.00318619
0.00141365
0.00338457
0.00516185
0.00241433
0.0036057
0.00838223
0.00793313
0.00635386
0.0048918
0.00393864
0.00346664
0.00335941
0.0035541
0.00391327
0.00443681
0.00521715
0.00632907
0.00772047
0.00919555
0.0104875
0.0113596
0.0116801
0.0114475
0.0107772
0.00986798
0.00895652
0.00826247
0.00791449
0.00787559
0.0079907
0.00810532
0.00810747
0.00799195
0.00776105
0.00741051
0.00693363
0.00632441
0.00556728
0.00455841
0.00275358
0.00159743
0.00377705
0.00495669
0.00237992
0.00328281
0.0075573
0.00765116
0.00672363
0.00572147
0.00496633
0.00452138
0.00436222
0.00440165
0.0046189
0.00510126
0.00597532
0.00726263
0.00880381
0.0103079
0.0114655
0.0120549
0.0119971
0.0113599
0.0103288
0.00917816
0.00821468
0.00766889
0.00756171
0.0076612
0.0078127
0.00791001
0.0078817
0.00774709
0.00751436
0.00717497
0.00670627
0.00608739
0.00527804
0.00417799
0.00256016
0.00174825
0.00386573
0.00546317
0.002361
0.00299327
0.00676037
0.00730532
0.00686792
0.00622521
0.00568483
0.00532527
0.00514933
0.00509749
0.00528499
0.00590009
0.00704449
0.00860253
0.0102678
0.0116674
0.0124959
0.0126005
0.0119982
0.0108596
0.00946525
0.00819888
0.00738867
0.0070405
0.00701024
0.00711937
0.00725003
0.00732608
0.00729844
0.00716118
0.00692672
0.00657871
0.00607732
0.00536568
0.00440495
0.00326373
0.00221729
0.00200695
0.0040002
0.0055422
0.00251327
0.00300434
0.00670998
0.00746451
0.00695042
0.00643011
0.00600391
0.00569657
0.00549729
0.00549143
0.00594747
0.0070339
0.00865546
0.0104788
0.0120774
0.0130814
0.0132819
0.0126672
0.011385
0.00975355
0.00817146
0.00702768
0.00637089
0.00608155
0.00602626
0.00608781
0.00617372
0.00622322
0.00619938
0.0060518
0.00579511
0.00539176
0.00476511
0.00386652
0.00285709
0.00214614
0.00198917
0.00249094
0.00450435
0.00559593
0.00256368
0.00271026
0.00282023
0.00416556
0.0048976
0.00512486
0.00512944
0.00508082
0.00517841
0.00581273
0.00716378
0.00906404
0.0111089
0.0128438
0.0138956
0.0140563
0.0133007
0.0118178
0.0098862
0.00804555
0.00661534
0.00567639
0.00515729
0.00493099
0.00485877
0.00484039
0.00481782
0.00476447
0.00466891
0.00449291
0.0042089
0.00379057
0.00318735
0.00248811
0.00200745
0.00197417
0.00236473
0.00320049
0.00492272
0.00601846
0.00253204
0.000964413
0.00173846
0.00266592
0.00340872
0.00427299
0.00574661
0.007915
0.0103212
0.0125048
0.0141206
0.0149356
0.0148075
0.01376
0.0119181
0.00974876
0.00771085
0.00611551
0.00507011
0.00451439
0.00425465
0.0041216
0.00402061
0.00390882
0.00377274
0.00361622
0.00345029
0.00328119
0.00307693
0.0028291
0.00252386
0.0022269
0.00212533
0.00236767
0.00294149
0.00375993
0.00465909
0.00510518
0.00240791
0.00178746
0.00246697
0.00358632
0.00558823
0.00830901
0.0110322
0.0131414
0.0146582
0.0155616
0.0157814
0.0151998
0.0137137
0.0115661
0.00918111
0.00703477
0.00547045
0.00458772
0.00419127
0.00402474
0.00393502
0.0038564
0.00376579
0.00366039
0.00354715
0.00343554
0.00333174
0.00323449
0.00313172
0.00301711
0.00289512
0.00279267
0.00279721
0.00303482
0.00356176
0.00429616
0.00497608
0.00519792
0.00235744
0.00323889
0.00786835
0.00725649
0.00648321
0.008221
0.0109482
0.0132464
0.0147964
0.0156123
0.0158059
0.0154578
0.0145208
0.0129538
0.01083
0.00848288
0.00644172
0.00513249
0.00452228
0.00429752
0.00421508
0.00416272
0.00409932
0.00401509
0.00391415
0.00380703
0.00370689
0.00362711
0.00357891
0.00356811
0.00359009
0.0036247
0.00366252
0.00372768
0.00386588
0.00414494
0.0046404
0.00540326
0.00641487
0.00667103
0.00261095
0.00309552
0.00597834
0.00771411
0.00987283
0.0109496
0.0120591
0.0127026
0.0128554
0.0126073
0.0120144
0.011086
0.00980914
0.00824281
0.00661893
0.00529036
0.00448687
0.00412705
0.00400735
0.00398198
0.00397671
0.00395848
0.00391594
0.00384959
0.00376656
0.00367849
0.00360155
0.00355655
0.0035666
0.00365164
0.0038204
0.00405773
0.00430624
0.00452537
0.00477781
0.00514014
0.0056807
0.00645355
0.00763055
0.00730769
0.00278186
0.00289432
0.00248096
0.00246844
0.00254018
0.00259916
0.0025206
0.00236866
0.00219053
0.00200955
0.00183393
0.00166646
0.00151261
0.00138411
0.00129416
0.00124688
0.00123103
0.00123241
0.00124138
0.00125301
0.00126531
0.001278
0.00129194
0.00130887
0.00133122
0.00136172
0.0014028
0.00145569
0.00151962
0.00159186
0.00166885
0.00174779
0.00182826
0.001911
0.00199637
0.00208868
0.0021915
0.00230458
0.00243044
0.00257423
0.00253063
)
;

boundaryField
{
    floor
    {
        type            compressible::alphatWallFunction;
        Prt             0.85;
        value           nonuniform List<scalar> 
36
(
0.000219866
0.000104461
0.000149988
0.000151177
0.000147567
0.000141505
0.000133357
0.000125185
0.000117608
0.00011073
0.000104521
9.89493e-05
9.39125e-05
8.92959e-05
8.49616e-05
8.07189e-05
7.62553e-05
7.2525e-05
6.49368e-05
6.4936e-05
8.41661e-05
9.64307e-05
0.000106555
0.000127375
0.000167272
0.000161006
0.000219863
0.000239692
0.000229081
0.000219746
0.00010446
0.000219743
0.000186336
0.000266718
0.000232705
0.000265662
)
;
    }
    ceiling
    {
        type            compressible::alphatWallFunction;
        Prt             0.85;
        value           nonuniform List<scalar> 
43
(
0.000391125
0.00033894
0.000337352
0.000346485
0.000353982
0.00034405
0.000324713
0.00030186
0.000278429
0.000255467
0.000233336
0.000212777
0.000195415
0.00018315
0.000176667
0.000174483
0.000174674
0.000175913
0.000177517
0.000179211
0.000180953
0.000182857
0.00018516
0.000188185
0.000192301
0.000197836
0.000204951
0.000213539
0.000223224
0.000233516
0.00024403
0.000254695
0.000265617
0.000276823
0.000288857
0.000302179
0.000316746
0.000332873
0.000351168
0.000345481
0.000368318
0.000382143
0.000248628
)
;
    }
    sWall
    {
        type            compressible::alphatWallFunction;
        Prt             0.85;
        value           nonuniform List<scalar> 9(0.000507612 0.000477866 0.000438161 0.000402222 0.000403594 0.000366743 0.000432095 0.000414366 0.000389374);
    }
    nWall
    {
        type            compressible::alphatWallFunction;
        Prt             0.85;
        value           nonuniform List<scalar> 
14
(
0.000160558
0.000191221
0.000223613
0.000329968
0.000325615
0.000323312
0.000342799
0.00034915
0.000344745
0.000328966
0.00032273
0.000355316
0.000376533
0.000344787
)
;
    }
    sideWalls
    {
        type            empty;
    }
    glass1
    {
        type            compressible::alphatWallFunction;
        Prt             0.85;
        value           nonuniform List<scalar> 9(0.000143932 0.00020914 0.000262698 0.00031331 0.000362385 0.00041001 0.000458023 0.000498881 0.000511237);
    }
    glass2
    {
        type            compressible::alphatWallFunction;
        Prt             0.85;
        value           nonuniform List<scalar> 2(0.000284906 0.000324689);
    }
    sun
    {
        type            compressible::alphatWallFunction;
        Prt             0.85;
        value           nonuniform List<scalar> 
14
(
0.000147966
0.000157652
0.000157093
0.00016376
0.000169841
0.00017534
0.000180442
0.000185343
0.000190263
0.000195477
0.000200434
0.000205133
0.000209752
0.000214708
)
;
    }
    Table_master
    {
        type            compressible::alphatWallFunction;
        Prt             0.85;
        value           nonuniform List<scalar> 9(0.000191139 0.000166951 0.000147996 0.000132961 0.000120853 0.000110979 0.000102851 9.61869e-05 9.09538e-05);
    }
    Table_slave
    {
        type            compressible::alphatWallFunction;
        Prt             0.85;
        value           nonuniform List<scalar> 9(0.000216413 0.000197662 0.000183002 0.000170694 0.00016012 0.000150554 0.000141471 0.000132385 0.000122491);
    }
    inlet
    {
        type            fixedValue;
        value           uniform 1.94e-05;
    }
    outlet
    {
        type            zeroGradient;
    }
}


// ************************************************************************* //
