/*--------------------------------*- C++ -*----------------------------------*\
  =========                 |
  \\      /  F ield         | OpenFOAM: The Open Source CFD Toolbox
   \\    /   O peration     | Website:  https://openfoam.org
    \\  /    A nd           | Version:  6
     \\/     M anipulation  |
\*---------------------------------------------------------------------------*/
FoamFile
{
    version     2.0;
    format      ascii;
    class       surfaceScalarField;
    location    "45000.000000180582";
    object      phi;
}
// * * * * * * * * * * * * * * * * * * * * * * * * * * * * * * * * * * * * * //

dimensions      [1 0 -1 0 0 0 0];

internalField   nonuniform List<scalar> 
1482
(
-0.00279974
0.00286378
-0.00348389
0.000684143
-0.00414444
0.000660556
-0.00475835
0.000613909
-0.00527953
0.000521175
-0.00569124
0.000411713
-0.00598229
0.000291049
-0.00613964
0.000157351
-0.00614597
6.3348e-06
-0.00597532
-0.000170658
-0.0055977
-0.000377619
-0.00498203
-0.000615666
-0.00405807
-0.000923957
-0.00257957
-0.00147851
-0.00257665
-6.38112e-05
6.8666e-05
0.000781304
-0.000845115
0.00143511
-0.000653808
0.00183579
-0.000400679
0.00205847
-0.000222685
0.00216325
-0.000104776
0.00221054
-4.72846e-05
0.00223331
-2.27714e-05
0.00224311
-9.80746e-06
0.00224409
-9.77029e-07
0.00223707
7.02041e-06
0.00221803
1.90392e-05
0.00217364
4.43869e-05
0.00207066
0.000102983
0.00185357
0.000217094
0.00149525
0.000358314
0.00102241
0.000472839
0.00102885
-0.00204033
0.00507443
-0.00290837
0.00155218
-0.00369407
0.00144625
-0.00434491
0.00126475
-0.00488193
0.0010582
-0.00531046
0.000840235
-0.00562872
0.000609317
-0.00582997
0.000358599
-0.00590355
7.99152e-05
-0.00584163
-0.00023258
-0.00563836
-0.000580889
-0.00528238
-0.000971648
-0.00477247
-0.00143387
-0.00428663
-0.00196434
-0.00470254
-0.00216074
-0.00311679
-0.00158031
-0.00163423
-0.00147688
-0.00161938
0.00131811
-0.00123923
0.00166307
-0.00119007
0.00191585
-0.000906592
0.00210828
-0.000593105
0.00221677
-0.000331177
0.00222596
-0.000113964
0.0022279
-4.92284e-05
0.00222945
-2.43229e-05
0.00223036
-1.07121e-05
0.00223034
-9.59863e-07
0.00222898
8.38101e-06
0.00222478
2.32343e-05
0.00221213
5.70395e-05
0.00215011
0.000165008
0.00190013
0.000467066
0.00146991
0.00078854
0.000904893
0.00103785
0.00195063
-0.00148821
0.00682056
-0.00235902
0.00242299
-0.00312885
0.00221608
-0.00371288
0.00184879
-0.00418332
0.00152864
-0.00455452
0.00121144
-0.00482832
0.000883116
-0.00500152
0.000531796
-0.00506773
0.00014613
-0.00501789
-0.000282421
-0.00484122
-0.000757564
-0.00453021
-0.00128266
-0.0041156
-0.00184847
-0.00371806
-0.00236189
-0.00329757
-0.00258123
-0.00236629
-0.00251159
-0.00127272
-0.00257044
-0.00287927
0.00115131
-0.00237609
0.00165509
-0.00169385
0.00195393
-0.00120544
0.0021476
-0.000786776
0.00217954
-0.000363114
0.00206573
0.00201666
0.00199249
0.00198193
0.00198113
0.00198966
0.00201305
0.00207024
0.00223541
0.00187704
0.000825432
0.00142874
0.00123684
0.000807752
0.00165884
0.0027844
-0.00110602
0.00825778
-0.00192786
0.00324483
-0.00256974
0.00285797
-0.0030299
0.00230895
-0.00339723
0.00189596
-0.00368577
0.00149998
-0.00389856
0.00109591
-0.00403379
0.000667021
-0.00408396
0.000196302
-0.0040359
-0.000330483
-0.00387728
-0.00091618
-0.00360391
-0.00155603
-0.00323828
-0.0022141
-0.00281618
-0.00278398
-0.00227661
-0.0031208
-0.00155684
-0.00323136
-0.000868568
-0.00325872
-0.000688342
-0.0030595
0.00144812
-0.00212101
0.00137896
-0.00230693
0.00169406
-0.00200895
0.00200638
-0.00151775
0.00227244
-0.00105283
0.00254763
-0.000638304
0.00286371
-0.000316242
0.00303249
-0.000168925
0.00309867
-6.63357e-05
0.00308283
1.56876e-05
0.00299376
8.89093e-05
0.00283247
0.000161138
0.00259113
0.000241192
0.00224677
0.000344201
0.00174205
0.000504567
0.00160573
0.000961747
0.00127852
0.00156405
0.000751564
0.0021858
0.00357025
-0.000803731
0.00945469
-0.00157981
0.00402091
-0.00204831
0.00332646
-0.00236385
0.00262449
-0.00260802
0.00214013
-0.00279332
0.00168528
-0.00292479
0.00122737
-0.00300315
0.000745391
-0.0030219
0.000215049
-0.00296443
-0.00038795
-0.00281747
-0.00106314
-0.00257396
-0.00179954
-0.00224038
-0.00254769
-0.00182383
-0.00320054
-0.00131841
-0.00362623
-0.000741766
-0.003808
-0.000210369
-0.00379012
0.000266881
-0.00353675
0.00112772
-0.00298186
0.00149315
-0.00267237
0.00175143
-0.00226722
0.00200345
-0.00176978
0.00223313
-0.00128251
0.00244756
-0.000852732
0.0026499
-0.000518586
0.00276164
-0.000280668
0.00279957
-0.00010426
0.00277529
3.99654e-05
0.00269511
0.000169088
0.00256147
0.000294781
0.0023732
0.000429462
0.00212808
0.000589317
0.00183451
0.000798138
0.00163009
0.00116617
0.00149137
0.00170277
0.00131724
0.00235993
0.0023136
0.00257389
0.00134482
0.00100368
0.00188458
-0.000511057
0.00200316
-0.000575833
0.0104769
-0.00132469
0.00476977
-0.00158413
0.0035859
-0.00174988
0.00279024
-0.00186367
0.00225392
-0.00193496
0.00175657
-0.00197021
0.00126263
-0.00197374
0.000748921
-0.00194233
0.000183642
-0.00185434
-0.000475944
-0.00169992
-0.00121756
-0.00146901
-0.00203045
-0.00116448
-0.00285221
-0.000792157
-0.00357287
-0.000372362
-0.00404602
6.79903e-05
-0.00424835
0.000473266
-0.00419539
0.000847659
-0.00391115
0.00129835
-0.00343256
0.0015967
-0.00297072
0.00179943
-0.00246995
0.00197053
-0.00194088
0.00212223
-0.00143421
0.00225729
-0.000987791
0.0023634
-0.000624691
0.00242331
-0.00034058
0.0024363
-0.000117248
0.00240733
6.89337e-05
0.00234103
0.000235388
0.0022411
0.000394717
0.00211158
0.000558978
0.00195973
0.000741164
0.00180055
0.000957326
0.00171114
0.00125557
0.00177217
0.00164174
0.00199116
0.00214094
0.00224522
0.00231982
0.00176318
0.00148572
0.000836169
0.000415956
0.00293656
-0.000543523
0.0115126
-0.00124369
0.00546993
-0.00119179
0.00353401
-0.00119992
0.00279837
-0.00119206
0.00224605
-0.00115837
0.00172288
-0.00110104
0.0012053
-0.00102585
0.000673726
-0.000927133
8.49263e-05
-0.000778094
-0.000624984
-0.000588816
-0.00140684
-0.000348709
-0.00227056
-6.49123e-05
-0.00313601
0.000239805
-0.00387758
0.000549691
-0.00435591
0.000844811
-0.00454347
0.0011078
-0.00445838
0.00134108
-0.00414443
0.00157255
-0.00366402
0.00173174
-0.00312992
0.00183115
-0.00256936
0.00190093
-0.00201066
0.00195698
-0.00149025
0.00200454
-0.00103535
0.00203836
-0.000658513
0.00205251
-0.000354727
0.00204321
-0.000107955
0.00201089
0.000101253
0.00195833
0.000287951
0.00188906
0.000463989
0.00180814
0.000639892
0.00172422
0.000825093
0.00165287
0.00102867
0.00163871
0.00126973
0.0017292
0.00155125
0.00194975
0.00192039
0.00222151
0.00204806
0.00224692
0.0014603
0.00165608
0.0010068
0.00469527
-0.000483764
0.0125319
-0.00105163
0.0060378
-0.000697369
0.00317974
-0.000636268
0.00273727
-0.000567634
0.00217742
-0.000462649
0.0016179
-0.000333295
0.00107594
-0.000181705
0.000522137
7.85823e-06
-0.000104637
0.000226182
-0.000843308
0.000466066
-0.00164672
0.000723825
-0.00252832
0.000980671
-0.00339285
0.00120902
-0.00410592
0.00140823
-0.00455511
0.00156936
-0.0047046
0.00168714
-0.00457616
0.00176623
-0.00422353
0.00181902
-0.00371681
0.00182871
-0.00313961
0.00180366
-0.00254431
0.00176306
-0.00197007
0.001722
-0.0014492
0.00168807
-0.00100142
0.00166125
-0.000631688
0.0016374
-0.000330879
0.00161135
-8.19047e-05
0.00158046
0.000132144
0.00154453
0.000323881
0.00150449
0.000504027
0.00146314
0.000681243
0.00142646
0.000861771
0.00140562
0.00104952
0.00142556
0.00124979
0.00151898
0.00145783
0.00174559
0.00169378
0.00207743
0.00171622
0.00223925
0.00129847
0.00174232
0.00150372
0.0068046
0.00297874
0.0101403
0.00202335
0.00699319
0.000869902
0.00433319
0.000371401
0.00323577
0.00021457
0.00233425
0.000271232
0.00156124
0.000425532
0.000921645
0.000639846
0.000307823
0.000899499
-0.00036429
0.00116482
-0.00110863
0.0014436
-0.0019255
0.00171067
-0.00279538
0.0019366
-0.00361878
0.00209716
-0.00426648
0.00218666
-0.0046446
0.00220782
-0.00472575
0.00216948
-0.00453782
0.00208529
-0.00413933
0.00197044
-0.00360196
0.00183057
-0.00299975
0.00167801
-0.00239174
0.00152985
-0.00182191
0.00140097
-0.00132032
0.00129979
-0.000900243
0.00122755
-0.000559452
0.00117923
-0.000282557
0.00114717
-4.98423e-05
0.00112554
0.000153769
0.00111029
0.000339137
0.00109858
0.000515733
0.00108969
0.000690129
0.00108533
0.000866134
0.00109031
0.00104453
0.00111671
0.00122339
0.00118638
0.00138816
0.00136647
0.00151369
0.00172076
0.00136194
0.00185223
0.00116699
0.00052473
0.00283118
0.00771332
0.00403325
0.00624728
0.00366986
0.00735658
0.00254411
0.00545895
0.00189058
0.0038893
0.00153397
0.00269086
0.00138924
0.00170597
0.00142333
0.000887557
0.0015982
0.000132944
0.00185078
-0.000616863
0.00212839
-0.00138624
0.00240837
-0.00220548
0.00265332
-0.00304033
0.00282155
-0.003787
0.00288613
-0.00433105
0.00284399
-0.00460245
0.00270908
-0.00459084
0.00250376
-0.00433249
0.0022523
-0.00388787
0.00197743
-0.0033271
0.00169633
-0.00271864
0.00142637
-0.00212179
0.00118579
-0.00158133
0.000989654
-0.00112418
0.000844749
-0.000755338
0.000749979
-0.000464682
0.000696159
-0.000228737
0.000671807
-2.54893e-05
0.000667387
0.000158188
0.000675266
0.000331258
0.000689883
0.000501116
0.000707651
0.000672361
0.000725511
0.000848275
0.000739486
0.00103056
0.000742372
0.00122051
0.000715021
0.00141551
0.000599135
0.00162958
-2.49571e-06
0.00196359
-0.00173959
0.00290405
-0.00304815
0.00413963
0.00476927
0.00241069
0.00400112
0.00330636
0.00646091
0.00325021
0.0055151
0.00303925
0.00410026
0.0028483
0.00288181
0.0027253
0.00182898
0.00271181
0.00090105
0.00280137
4.33859e-05
0.00296398
-0.000779473
0.00317513
-0.00159739
0.00339287
-0.00242322
0.00355706
-0.00320453
0.00361294
-0.00384286
0.00353395
-0.00425205
0.00332572
-0.0043942
0.00301452
-0.00427963
0.00263477
-0.00395273
0.0022198
-0.0034729
0.00179918
-0.00290647
0.00139654
-0.002316
0.00103373
-0.00175899
0.000731039
-0.00127863
0.000502943
-0.000896084
0.000349081
-0.000601475
0.0002606
-0.000376202
0.000220539
-0.000188675
0.000213857
-1.88073e-05
0.000229123
0.000142922
0.000258038
0.000302344
0.000295082
0.000464073
0.000336
0.000631442
0.000374921
0.000809354
0.000402453
0.00100303
0.00039886
0.0012241
0.000320295
0.00149407
7.58956e-05
0.00187399
-0.000635227
0.00267497
-0.00189792
0.00416697
-0.00233043
0.00457218
0.00255546
0.00145714
0.00273825
0.00274854
0.00516951
0.00343251
0.00483113
0.00371868
0.00381409
0.00381748
0.00278301
0.00384617
0.00180029
0.00388324
0.000863983
0.00395344
-2.68076e-05
0.00406421
-0.000890247
0.0042048
-0.00173798
0.00432375
-0.00254217
0.00435031
-0.00323109
0.00423298
-0.00372552
0.00395969
-0.00397875
0.00355305
-0.00398756
0.00305294
-0.0037795
0.00250311
-0.00340289
0.00194212
-0.00291191
0.00140397
-0.00236832
0.000915407
-0.00182743
0.000503895
-0.00134747
0.000189423
-0.000964162
-2.09278e-05
-0.000685734
-0.000142777
-0.000479626
-0.000201271
-0.000317708
-0.000218533
-0.000171412
-0.000208013
-2.93271e-05
-0.000178346
0.000113255
-0.000135024
0.000259023
-8.14611e-05
0.00041051
-2.04262e-05
0.000570408
4.38244e-05
0.000745104
0.000103075
0.000943775
0.000140331
0.00118684
0.000118132
0.00151627
-2.82272e-05
0.00202035
-0.000277842
0.00292487
-0.000673195
0.00456279
-0.000905018
0.00480439
0.00177935
0.00217083
0.000793407
0.00294073
0.00439961
0.00359145
0.00418042
0.00416231
0.00324324
0.00449071
0.00245461
0.00466593
0.00162507
0.00478391
0.000746005
0.00488994
-0.000132837
0.00499733
-0.000997642
0.00507593
-0.0018166
0.00506027
-0.00252652
0.00489032
-0.00306115
0.00454378
-0.00337897
0.0040397
-0.00347466
0.00342305
-0.00337089
0.0027445
-0.00310094
0.00205221
-0.00271059
0.00138379
-0.0022435
0.000777819
-0.00176234
0.000260732
-0.00131034
-0.000127936
-0.000958806
-0.000381527
-0.000710573
-0.000526255
-0.000541008
-0.000598853
-0.000407029
-0.000627811
-0.000288751
-0.000626897
-0.000172325
-0.000604359
-5.18642e-05
-0.000565663
7.45607e-05
-0.000513708
0.000207068
-0.000449844
0.000346647
-0.000374913
0.000495478
-0.000288818
0.000659009
-0.000192959
0.000847916
-9.33437e-05
0.00108722
-1.14713e-05
0.00143437
2.89496e-05
0.00197985
0.000170066
0.00278376
0.000616505
0.00411668
0.000896665
0.00452455
0.00281083
-0.00158214
0.00262065
0.00111479
0.00170268
0.00334757
0.00194764
0.00435059
0.00224022
0.00485515
0.00195005
0.00517088
0.00130934
0.00540043
0.00051645
0.00557954
-0.000311954
0.00567938
-0.0010975
0.0056381
-0.00177535
0.00540513
-0.00229357
0.00496898
-0.00262501
0.00435779
-0.00276778
0.00362453
-0.0027414
0.00282906
-0.00257542
0.00202093
-0.00229282
0.00124748
-0.00193713
0.000538754
-0.00153477
-5.74602e-05
-0.00116612
-0.000496314
-0.000871494
-0.000772182
-0.000682944
-0.000930414
-0.000552348
-0.00101674
-0.000454683
-0.00105584
-0.000367934
-0.0010633
-0.000281293
-0.00104724
-0.000188381
-0.00101332
-8.5777e-05
-0.000966651
2.78958e-05
-0.000909582
0.000150001
-0.000841895
0.00027896
-0.000763277
0.00041686
-0.000671725
0.000567459
-0.000565034
0.000741225
-0.000446229
0.000968403
-0.000327946
0.001316
-0.000180647
0.00183231
0.000174317
0.00242847
0.00103047
0.00326045
0.00156093
0.00399408
0.00451502
0.00288236
0.00456986
0.00486972
0.00164778
0.00535604
0.0017539
0.00559272
0.00171337
0.00582482
0.00107723
0.00601276
0.000328507
0.00607882
-0.000378051
0.00595219
-0.000970924
0.0056001
-0.00142331
0.00503562
-0.00172912
0.00430601
-0.00189542
0.00346981
-0.0019316
0.00258549
-0.00185708
0.00170714
-0.00169706
0.000866844
-0.00145252
0.000104725
-0.00117501
-0.000520457
-0.000909591
-0.000965384
-0.000721205
-0.0012443
-0.000592597
-0.00141448
-0.000512781
-0.00151248
-0.000454353
-0.00156458
-0.000402594
-0.00158352
-0.000348998
-0.00157605
-0.000288753
-0.00154653
-0.000217881
-0.00149973
-0.000132559
-0.00144206
-2.9767e-05
-0.00137952
8.746e-05
-0.00131455
0.000213992
-0.00124835
0.000350662
-0.00118311
0.000502227
-0.0011222
0.000680334
-0.00106739
0.000913618
-0.00100424
0.00125278
-0.000873372
0.00170114
-0.00051007
0.00206459
0.000512303
0.00223748
0.00108276
0.00342307
0.00575167
0.00793401
0.00536237
0.00581438
0.00387355
0.00556575
0.00196203
0.00563707
0.00100594
0.00560045
0.000365122
0.005355
-0.000132629
0.0048904
-0.000506367
0.00424807
-0.000781014
0.00348229
-0.000963362
0.00264616
-0.00105929
0.00178112
-0.00106657
0.000923628
-0.000999591
0.00010696
-0.000880393
-0.000612824
-0.000732741
-0.00117927
-0.000608575
-0.00157902
-0.000509852
-0.00184835
-0.0004519
-0.00202093
-0.000420054
-0.00213334
-0.00040041
-0.00220545
-0.000382268
-0.00224688
-0.000361169
-0.00226139
-0.000334471
-0.00225057
-0.000299542
-0.00221562
-0.00025278
-0.00215883
-0.000189298
-0.00208545
-0.000103129
-0.00200859
1.05989e-05
-0.00193915
0.000144547
-0.0018805
0.000291989
-0.00183984
0.000461569
-0.00182586
0.000666428
-0.0018445
0.000932424
-0.0018826
0.00129107
-0.00192988
0.00174845
-0.00207335
0.0022078
-0.00237364
0.00253723
-0.00214758
0.00319633
0.00377333
0.00411408
0.00149483
0.00451485
0.00347279
0.00374166
0.00273525
0.00323591
0.0015117
0.00288755
0.000713447
0.00251856
0.000236322
0.00206993
-5.77518e-05
0.00153129
-0.000242375
0.000921986
-0.000354052
0.000259435
-0.000396731
-0.000419452
-0.000387676
-0.0010587
-0.000360333
-0.00161018
-0.00032891
-0.00204339
-0.000299529
-0.00236496
-0.000287027
-0.00258951
-0.000285353
-0.00274996
-0.000291506
-0.00287054
-0.000299539
-0.00296454
-0.000306473
-0.00303606
-0.000310769
-0.00308539
-0.000311831
-0.00311104
-0.000308766
-0.00311078
-0.000299702
-0.00308244
-0.000281017
-0.00302494
-0.000246698
-0.00293969
-0.00018832
-0.00283289
-9.62155e-05
-0.0027241
3.56862e-05
-0.00263054
0.000198342
-0.0025543
0.000385252
-0.00249165
0.000603788
-0.00243843
0.000879378
-0.00238193
0.00123491
-0.00231987
0.00168681
-0.00244222
0.00233053
-0.00320495
0.00330025
-0.00343175
0.00342331
0.000524277
-0.00259354
-0.00675518
-0.00741145
-0.00745912
-0.00374863
-0.00216806
-0.00166957
0.00139372
-0.000756669
0.00182234
-0.00055998
0.00131499
-0.000641767
0.000795221
-0.000827729
0.000422281
-0.00106578
0.000180305
-0.00134956
4.14241e-05
-0.00168143
-2.2152e-05
-0.00203848
-3.96398e-05
-0.00239171
-3.44135e-05
-0.00271965
-3.23746e-05
-0.00299698
-5.15855e-05
-0.00320841
-8.8136e-05
-0.00336824
-0.00012726
-0.00349722
-0.00015647
-0.00361233
-0.000176491
-0.00371968
-0.000192281
-0.0038186
-0.000207601
-0.00390541
-0.000223961
-0.00397539
-0.000241789
-0.00402316
-0.000260878
-0.00404299
-0.000279703
-0.00402993
-0.00029389
-0.0039814
-0.000295057
-0.00389817
-0.000271441
-0.00378379
-0.000210591
-0.00364539
-0.000102849
-0.00350152
5.42459e-05
-0.00335547
0.000238969
-0.00318401
0.000432144
-0.00296017
0.000655488
-0.0026487
0.000923584
-0.00218949
0.00122793
-0.00145306
0.00159451
-0.000303077
0.00215064
0.00058426
0.00253633
0.00129061
-0.00734276
0.00104113
-0.00811709
-0.00668486
-0.00717177
-0.00311344
-0.00565205
-0.000126049
-0.00455967
0.000729936
-0.00396889
0.000724211
-0.00371087
0.000537223
-0.00364504
0.00035649
-0.00368682
0.000222129
-0.00377933
0.000133998
-0.00388076
7.93345e-05
-0.00396673
4.63863e-05
-0.00402774
2.66384e-05
-0.00407085
1.07369e-05
-0.00411142
-1.10522e-05
-0.00416104
-3.86035e-05
-0.00422346
-6.49463e-05
-0.00429522
-8.48384e-05
-0.004372
-9.98155e-05
-0.00445017
-0.000114193
-0.00452668
-0.000131101
-0.0045989
-0.000151698
-0.00466439
-0.000176175
-0.00472086
-0.000204209
-0.00476608
-0.000234233
-0.00479777
-0.000261937
-0.00481316
-0.000279429
-0.00480801
-0.000276435
-0.0047752
-0.000243384
-0.00470417
-0.000174028
-0.00458368
-6.65744e-05
-0.00440915
6.40183e-05
-0.00416831
0.000190908
-0.00382128
0.000308147
-0.00332292
0.000425063
-0.0026038
0.000508802
-0.00144141
0.000432241
0.000529129
0.000180291
0.00188579
0.00117991
0.00335962
0.00158288
-0.00503724
-0.00808733
-0.00815372
-0.00736915
-0.00659804
-0.00602056
-0.00562858
-0.00537405
-0.00520941
-0.00510017
-0.00502379
-0.00496658
-0.00492456
-0.0049038
-0.00491031
-0.00494301
-0.00499551
-0.00506293
-0.00514475
-0.00524359
-0.00536333
-0.00550805
-0.00568155
-0.00588608
-0.00611954
-0.00637183
-0.00662247
-0.00684124
-0.00699161
-0.0070352
-0.00694868
-0.0067356
-0.00640562
-0.00595924
-0.00542987
-0.00497806
-0.00477932
-0.0035821
)
;

boundaryField
{
    floor
    {
        type            calculated;
        value           nonuniform List<scalar> 
36
(
0
0
0
0
0
0
0
0
0
0
0
0
0
0
0
0
0
0
0
-6.43885e-06
-1.68818e-05
-2.60244e-05
-3.42882e-05
-3.49005e-05
-2.87011e-05
-2.8564e-05
-2.9204e-06
-5.44171e-06
-5.68803e-06
-5.90803e-06
-4.8547e-06
-8.93882e-06
-1.0209e-05
-1.28316e-05
-1.44564e-05
-1.54457e-05
)
;
    }
    ceiling
    {
        type            calculated;
        value           nonuniform List<scalar> 
43
(
-5.78461e-05
-6.47913e-05
-6.34019e-05
-5.96907e-05
-5.46428e-05
-4.68806e-05
-4.02058e-05
-3.54111e-05
-3.23048e-05
-3.05413e-05
-2.98263e-05
-2.99252e-05
-3.05495e-05
-3.13092e-05
-3.18698e-05
-3.21832e-05
-3.23486e-05
-3.24405e-05
-3.24718e-05
-3.24171e-05
-3.22342e-05
-3.1877e-05
-3.13051e-05
-3.04948e-05
-2.94541e-05
-2.82367e-05
-2.69462e-05
-2.57155e-05
-2.46631e-05
-2.38529e-05
-2.32809e-05
-2.28845e-05
-2.255e-05
-2.21359e-05
-2.15308e-05
-2.06758e-05
-1.959e-05
-1.8377e-05
-1.7169e-05
-1.63916e-05
1.93311e-05
1.51846e-05
-0.000246554
)
;
    }
    sWall
    {
        type            calculated;
        value           nonuniform List<scalar> 9(-0.000140237 -0.000164531 -0.000194273 -0.000225986 -0.000245103 -0.000281041 -0.000423506 -0.000453609 -0.000483933);
    }
    nWall
    {
        type            calculated;
        value           nonuniform List<scalar> 
14
(
-9.00095e-05
-9.72369e-05
-0.000102642
-0.000104119
-0.000116651
-0.000128771
-0.000134667
-0.000143417
-0.000154465
-0.000169786
-0.000182772
-0.000181635
-0.000183052
-0.000205933
)
;
    }
    sideWalls
    {
        type            empty;
        value           nonuniform 0();
    }
    glass1
    {
        type            calculated;
        value           nonuniform List<scalar> 9(-6.40339e-05 -0.00017032 -0.00025792 -0.000331202 -0.000393183 -0.000446386 -0.000492195 -0.000535476 -0.000587162);
    }
    glass2
    {
        type            calculated;
        value           nonuniform List<scalar> 2(-0.000367005 -0.000384007);
    }
    sun
    {
        type            calculated;
        value           uniform 0;
    }
    Table_master
    {
        type            calculated;
        value           nonuniform List<scalar> 9(-1.53991e-07 -1.54108e-07 -1.5414e-07 -1.5416e-07 -1.54173e-07 -1.54178e-07 -1.54176e-07 -1.54162e-07 -1.54109e-07);
    }
    Table_slave
    {
        type            calculated;
        value           nonuniform List<scalar> 9(1.53661e-07 1.53717e-07 1.53716e-07 1.53732e-07 1.53753e-07 1.53797e-07 1.53863e-07 1.53957e-07 1.54084e-07);
    }
    inlet
    {
        type            calculated;
        value           uniform -0.0116486;
    }
    outlet
    {
        type            calculated;
        value           nonuniform List<scalar> 2(0.00977217 0.012277);
    }
}


// ************************************************************************* //
