/*--------------------------------*- C++ -*----------------------------------*\
  =========                 |
  \\      /  F ield         | OpenFOAM: The Open Source CFD Toolbox
   \\    /   O peration     | Website:  https://openfoam.org
    \\  /    A nd           | Version:  6
     \\/     M anipulation  |
\*---------------------------------------------------------------------------*/
FoamFile
{
    version     2.0;
    format      ascii;
    class       volVectorField;
    location    "25799.9999988039744";
    object      U;
}
// * * * * * * * * * * * * * * * * * * * * * * * * * * * * * * * * * * * * * //

dimensions      [0 1 -1 0 0 0 0];

internalField   nonuniform List<vector> 
778
(
(0.0656026 0.0794072 0)
(-0.155173 0.0157655 0)
(-0.1643 0.0146256 0)
(-0.192418 0.0122749 0)
(-0.216854 0.00872315 0)
(-0.236913 0.00474015 0)
(-0.252035 0.000411102 0)
(-0.261797 -0.00437605 0)
(-0.265686 -0.00981945 0)
(-0.2627 -0.0161992 0)
(-0.250886 -0.0242711 0)
(-0.226182 -0.0348862 0)
(-0.186063 -0.0504014 0)
(-0.144143 -0.0751623 0)
(-0.150041 -0.108541 0)
(0.0546711 0.0354335 0)
(0.0157937 -0.0268619 0)
(0.0449776 -0.0232498 0)
(0.0693674 -0.0161467 0)
(0.0844103 -0.0103433 0)
(0.0916063 -0.00641332 0)
(0.0944395 -0.00434046 0)
(0.095482 -0.00331802 0)
(0.0959449 -0.00272933 0)
(0.0961196 -0.00231473 0)
(0.095994 -0.00194951 0)
(0.0954651 -0.00150921 0)
(0.0942056 -0.000756168 0)
(0.091358 0.000846905 0)
(0.0851531 0.00406909 0)
(0.0736127 0.00777242 0)
(0.0599636 0.0116084 0)
(-0.00796105 0.0299912 0)
(0.258404 0.167391 0)
(-0.161233 0.0483906 0)
(-0.141601 0.045982 0)
(-0.174006 0.0416161 0)
(-0.19937 0.0356669 0)
(-0.22009 0.0291245 0)
(-0.236116 0.0220489 0)
(-0.247361 0.0142147 0)
(-0.253527 0.00527937 0)
(-0.253833 -0.00517146 0)
(-0.247668 -0.0170994 0)
(-0.233955 -0.0308613 0)
(-0.214045 -0.0480778 0)
(-0.197466 -0.0699512 0)
(-0.193944 -0.0826282 0)
(-0.166335 -0.0425538 0)
(-0.1053 -0.0363693 0)
(-0.0983291 -0.0444486 0)
(0.109355 -0.0421229 0)
(0.0645037 -0.0411667 0)
(0.0719472 -0.0322533 0)
(0.0859186 -0.0206932 0)
(0.0938066 -0.0104451 0)
(0.0960292 -0.00363265 0)
(0.0957839 -0.000206269 0)
(0.095396 0.00123569 0)
(0.0953619 0.0018883 0)
(0.0954448 0.00226762 0)
(0.0954533 0.00259269 0)
(0.0953537 0.00313496 0)
(0.0950626 0.00441443 0)
(0.0938048 0.00772835 0)
(0.0882045 0.0167628 0)
(0.0744387 0.0253416 0)
(0.06312 0.0329432 0)
(-0.0520716 0.0636018 0)
(0.429989 0.253951 0)
(-0.194232 0.0847564 0)
(-0.112773 0.0784342 0)
(-0.14824 0.0669568 0)
(-0.170672 0.0554975 0)
(-0.188765 0.0437189 0)
(-0.202598 0.0313289 0)
(-0.212284 0.0179856 0)
(-0.217627 0.00337237 0)
(-0.217974 -0.01266 0)
(-0.212708 -0.0303499 0)
(-0.201594 -0.0499278 0)
(-0.185948 -0.0715776 0)
(-0.169409 -0.093209 0)
(-0.151037 -0.10455 0)
(-0.120203 -0.0931236 0)
(-0.0795262 -0.09491 0)
(-0.0714761 -0.107534 0)
(0.0921216 -0.0882249 0)
(0.0625808 -0.0657685 0)
(0.0743897 -0.0461112 0)
(0.0880245 -0.0292132 0)
(0.0948642 -0.0148682 0)
(0.0919517 -0.0119637 0)
(0.0877171 -0.00792957 0)
(0.0853499 -0.0057851 0)
(0.0846477 -0.00456927 0)
(0.0846152 -0.00380485 0)
(0.084869 -0.00322855 0)
(0.0855238 -0.00259903 0)
(0.0872882 -0.00143919 0)
(0.0919757 0.00291974 0)
(0.0901249 0.0251145 0)
(0.0732925 0.0423709 0)
(0.070085 0.057442 0)
(-0.0902463 0.100924 0)
(0.578564 0.325834 0)
(-0.240105 0.121804 0)
(-0.0808256 0.109223 0)
(-0.121566 0.0898546 0)
(-0.138999 0.0740667 0)
(-0.15306 0.0586266 0)
(-0.163818 0.0427347 0)
(-0.171409 0.0257814 0)
(-0.175614 0.00716223 0)
(-0.17567 -0.0135703 0)
(-0.170971 -0.0365054 0)
(-0.161394 -0.0614801 0)
(-0.14752 -0.0873804 0)
(-0.130537 -0.110292 0)
(-0.109574 -0.123181 0)
(-0.0820946 -0.124511 0)
(-0.0524793 -0.126327 0)
(-0.0333337 -0.123127 0)
(0.0164218 -0.0567946 0)
(0.0608678 -0.093062 0)
(0.0684905 -0.0791926 0)
(0.0790975 -0.0588011 0)
(0.0915873 -0.0395433 0)
(0.102925 -0.0208802 0)
(0.115667 -0.013152 0)
(0.126815 -0.00878171 0)
(0.132407 -0.00559117 0)
(0.133396 -0.00309892 0)
(0.130889 -0.000883229 0)
(0.125445 0.00128452 0)
(0.116929 0.00366982 0)
(0.104569 0.00673326 0)
(0.0852913 0.0111749 0)
(0.0713987 0.0368782 0)
(0.0600617 0.0606019 0)
(0.0762408 0.0833311 0)
(-0.118279 0.137087 0)
(0.705753 0.383671 0)
(-0.287686 0.156996 0)
(-0.0476844 0.13378 0)
(-0.0962808 0.10692 0)
(-0.10773 0.0875956 0)
(-0.116764 0.0691683 0)
(-0.123555 0.0504328 0)
(-0.128216 0.0305609 0)
(-0.130573 0.0086851 0)
(-0.12976 -0.0158662 0)
(-0.12525 -0.0431217 0)
(-0.116615 -0.0727156 0)
(-0.103879 -0.102836 0)
(-0.0873915 -0.129076 0)
(-0.0674244 -0.145758 0)
(-0.04407 -0.152225 0)
(-0.020201 -0.152322 0)
(0.000346997 -0.143671 0)
(0.0308658 -0.114978 0)
(0.0570156 -0.109352 0)
(0.0705691 -0.0924191 0)
(0.0806873 -0.0712262 0)
(0.090738 -0.050759 0)
(0.10029 -0.0327198 0)
(0.109395 -0.019357 0)
(0.116418 -0.00999989 0)
(0.119845 -0.00332136 0)
(0.120054 0.00191971 0)
(0.117658 0.00645767 0)
(0.113024 0.0108098 0)
(0.106172 0.0154902 0)
(0.0970262 0.0212013 0)
(0.0850756 0.0292396 0)
(0.07347 0.0472971 0)
(0.0628711 0.0713704 0)
(0.094502 0.0994266 0)
(0.0162262 0.138242 0)
(0.0957586 0.183026 0)
(0.141193 0.14402 0)
(-0.219471 0.202027 0)
(0.810472 0.431962 0)
(-0.331332 0.19066 0)
(-0.0172986 0.150243 0)
(-0.0733536 0.117522 0)
(-0.078576 0.0955156 0)
(-0.0822002 0.0749457 0)
(-0.0844594 0.0543341 0)
(-0.0855024 0.0326978 0)
(-0.0852514 0.00882443 0)
(-0.0825778 -0.0184568 0)
(-0.077405 -0.0490722 0)
(-0.068764 -0.0825374 0)
(-0.0567443 -0.116522 0)
(-0.0416521 -0.146306 0)
(-0.0246243 -0.165984 0)
(-0.00620532 -0.174467 0)
(0.0121948 -0.172699 0)
(0.0281114 -0.160951 0)
(0.0462596 -0.139276 0)
(0.0626798 -0.122306 0)
(0.0733162 -0.102453 0)
(0.0809639 -0.0803915 0)
(0.0876988 -0.0590417 0)
(0.0938639 -0.0401698 0)
(0.0991865 -0.0250118 0)
(0.102874 -0.0136817 0)
(0.104485 -0.00501847 0)
(0.104074 0.00214656 0)
(0.101946 0.00859442 0)
(0.0983456 0.0148504 0)
(0.0934221 0.0214488 0)
(0.0873936 0.0290281 0)
(0.0805033 0.0385034 0)
(0.074675 0.0530183 0)
(0.0692561 0.0730908 0)
(0.0912384 0.0987883 0)
(0.072772 0.107279 0)
(0.0894784 0.0470862 0)
(0.146649 -0.0374868 0)
(-0.328051 0.108206 0)
(0.879956 0.47467 0)
(-0.368661 0.220938 0)
(0.00374433 0.155546 0)
(-0.0526439 0.12157 0)
(-0.0521867 0.0978589 0)
(-0.0510105 0.0758286 0)
(-0.0490139 0.0540444 0)
(-0.0465072 0.0315237 0)
(-0.0433331 0.00674765 0)
(-0.0373844 -0.0223369 0)
(-0.030312 -0.0554143 0)
(-0.0205157 -0.0919868 0)
(-0.00867591 -0.128934 0)
(0.00458666 -0.161273 0)
(0.0177031 -0.181897 0)
(0.0305353 -0.190201 0)
(0.0423683 -0.187181 0)
(0.0526757 -0.174346 0)
(0.0626237 -0.15398 0)
(0.0711615 -0.13232 0)
(0.0766413 -0.109297 0)
(0.0800572 -0.0857896 0)
(0.0826158 -0.0636097 0)
(0.08482 -0.0441171 0)
(0.0866287 -0.0280401 0)
(0.08771 -0.0152832 0)
(0.087845 -0.00506228 0)
(0.0868871 0.00354932 0)
(0.0850255 0.0112423 0)
(0.0824028 0.0185505 0)
(0.0791854 0.0259875 0)
(0.0756365 0.0340696 0)
(0.0721312 0.0433651 0)
(0.0700049 0.055168 0)
(0.0685597 0.0698313 0)
(0.0812701 0.088972 0)
(0.0838311 0.0919239 0)
(0.0889229 0.0533343 0)
(0.181915 0.0244155 0)
(-0.282483 0.155771 0)
(0.928013 0.517124 0)
(-0.383187 0.234132 0)
(0.0169287 0.13295 0)
(-0.0273024 0.116653 0)
(-0.0265236 0.0949311 0)
(-0.0227211 0.0724415 0)
(-0.0176198 0.0501139 0)
(-0.0123588 0.0272522 0)
(-0.00542809 0.00186228 0)
(0.00454411 -0.0307684 0)
(0.0142564 -0.0653765 0)
(0.0255679 -0.103399 0)
(0.0372466 -0.140934 0)
(0.0479774 -0.172209 0)
(0.0571284 -0.19238 0)
(0.0646684 -0.199824 0)
(0.0704175 -0.195352 0)
(0.0743743 -0.18111 0)
(0.0770513 -0.15999 0)
(0.0783702 -0.135974 0)
(0.0779574 -0.110948 0)
(0.0763955 -0.0864149 0)
(0.0745191 -0.0638506 0)
(0.0728565 -0.0442614 0)
(0.0715491 -0.0280324 0)
(0.0704685 -0.0148838 0)
(0.0694262 -0.00411279 0)
(0.0681352 0.00506689 0)
(0.066711 0.0132478 0)
(0.0651231 0.0209318 0)
(0.0634447 0.0285664 0)
(0.0618457 0.0365317 0)
(0.060594 0.0451493 0)
(0.0604952 0.0549152 0)
(0.0612713 0.0657823 0)
(0.069482 0.0792064 0)
(0.0782492 0.0820646 0)
(0.0773511 0.0595411 0)
(0.240535 0.0513482 0)
(-0.546894 0.232003 0)
(1.01136 0.506768 0)
(-0.137192 0.296304 0)
(0.0411021 0.161481 0)
(0.0406284 0.122061 0)
(0.0131125 0.0919684 0)
(0.00869426 0.0653729 0)
(0.0141095 0.0414018 0)
(0.0207216 0.0169856 0)
(0.0325069 -0.0110256 0)
(0.0439579 -0.0421727 0)
(0.0558237 -0.0769649 0)
(0.0681148 -0.114731 0)
(0.0792897 -0.151223 0)
(0.0878438 -0.18069 0)
(0.09312 -0.198688 0)
(0.0952168 -0.2038 0)
(0.0945339 -0.197084 0)
(0.0916148 -0.180977 0)
(0.0871369 -0.158533 0)
(0.0815547 -0.13307 0)
(0.0751668 -0.107016 0)
(0.0685762 -0.082193 0)
(0.0625086 -0.0599596 0)
(0.0574881 -0.0410495 0)
(0.0537137 -0.0255602 0)
(0.0510954 -0.0130007 0)
(0.0493756 -0.002591 0)
(0.0481602 0.00637471 0)
(0.0474275 0.0144124 0)
(0.0469483 0.0219836 0)
(0.0466687 0.0294543 0)
(0.0466261 0.0370892 0)
(0.0469194 0.0450638 0)
(0.0479069 0.0535462 0)
(0.0493544 0.0623161 0)
(0.0542133 0.0717458 0)
(0.0611864 0.071344 0)
(0.0514599 0.0407055 0)
(0.289832 0.0687531 0)
(-0.77806 0.305308 0)
(0.779361 0.395621 0)
(0.000846455 0.319433 0)
(0.0933956 0.218866 0)
(0.110626 0.15512 0)
(0.077191 0.106781 0)
(0.0598147 0.0675202 0)
(0.058233 0.0357509 0)
(0.0623935 0.00640902 0)
(0.0738037 -0.023442 0)
(0.0853646 -0.0550713 0)
(0.0975592 -0.0898267 0)
(0.109442 -0.126393 0)
(0.118852 -0.160223 0)
(0.124006 -0.185951 0)
(0.124292 -0.199991 0)
(0.120124 -0.201517 0)
(0.112445 -0.191909 0)
(0.102324 -0.173735 0)
(0.0908015 -0.150037 0)
(0.0787193 -0.12385 0)
(0.0667691 -0.0977107 0)
(0.0556819 -0.0735296 0)
(0.0461863 -0.0525669 0)
(0.0387614 -0.0352776 0)
(0.0335262 -0.0214681 0)
(0.0302654 -0.0103676 0)
(0.028536 -0.00105854 0)
(0.0278789 0.00710519 0)
(0.0280244 0.0145882 0)
(0.0286352 0.0217806 0)
(0.0295773 0.0289476 0)
(0.0307823 0.0362696 0)
(0.0321805 0.0438809 0)
(0.0337093 0.0519299 0)
(0.0345616 0.0604811 0)
(0.0343005 0.0702123 0)
(0.0209238 0.07685 0)
(0.00871814 0.101441 0)
(0.0390689 0.170582 0)
(-0.658553 0.287143 0)
(0.617275 0.220701 0)
(0.00463242 0.298044 0)
(0.113021 0.24149 0)
(0.148306 0.177486 0)
(0.130879 0.123439 0)
(0.117862 0.0777799 0)
(0.114998 0.0388561 0)
(0.117156 0.00337705 0)
(0.123504 -0.0307305 0)
(0.131719 -0.0650377 0)
(0.141406 -0.100584 0)
(0.150306 -0.135535 0)
(0.155474 -0.165476 0)
(0.154973 -0.186037 0)
(0.14848 -0.194897 0)
(0.136884 -0.192088 0)
(0.12165 -0.179375 0)
(0.104277 -0.159349 0)
(0.086138 -0.134935 0)
(0.0683315 -0.10892 0)
(0.0518016 -0.083783 0)
(0.03741 -0.0613822 0)
(0.0259057 -0.0428337 0)
(0.017588 -0.0282095 0)
(0.0122868 -0.0169481 0)
(0.00939673 -0.00790774 0)
(0.00822539 -0.000105516 0)
(0.0083718 0.00699793 0)
(0.00933702 0.0137768 0)
(0.0108531 0.0204984 0)
(0.0127807 0.027323 0)
(0.0150116 0.0343824 0)
(0.0174095 0.041848 0)
(0.019812 0.0500433 0)
(0.0216605 0.0596925 0)
(0.0225108 0.0731377 0)
(0.00735513 0.0948483 0)
(-0.00644033 0.142972 0)
(0.144989 0.183177 0)
(-0.556444 0.176916 0)
(0.570779 0.11837 0)
(-0.0203854 0.25855 0)
(0.113692 0.22982 0)
(0.165052 0.175975 0)
(0.166738 0.126102 0)
(0.164415 0.0810395 0)
(0.165405 0.0399428 0)
(0.168304 0.00162235 0)
(0.172243 -0.0353881 0)
(0.177797 -0.0719305 0)
(0.183963 -0.107664 0)
(0.187671 -0.139809 0)
(0.185899 -0.164449 0)
(0.177258 -0.178732 0)
(0.162191 -0.181848 0)
(0.142233 -0.174701 0)
(0.119321 -0.159346 0)
(0.0952083 -0.13824 0)
(0.071489 -0.114116 0)
(0.0493712 -0.089458 0)
(0.0300139 -0.0666601 0)
(0.0143775 -0.0474427 0)
(0.00309534 -0.0326193 0)
(-0.00419082 -0.0214581 0)
(-0.00812843 -0.0132281 0)
(-0.0100233 -0.00630623 0)
(-0.0104836 2.13106e-05 0)
(-0.00977416 0.00609494 0)
(-0.00829625 0.0121505 0)
(-0.00619052 0.0183367 0)
(-0.00358379 0.0247456 0)
(-0.000589564 0.0315026 0)
(0.00269904 0.0388582 0)
(0.0061956 0.0470924 0)
(0.00990877 0.0573874 0)
(0.0135756 0.0740028 0)
(0.00449672 0.10438 0)
(-0.0167334 0.153337 0)
(0.208728 0.188513 0)
(-0.454329 0.164542 0)
(0.628387 0.0537258 0)
(0.00896416 0.197269 0)
(0.113751 0.196861 0)
(0.175102 0.157819 0)
(0.191397 0.117582 0)
(0.198087 0.0772011 0)
(0.203427 0.037247 0)
(0.208611 -0.00149428 0)
(0.213072 -0.039628 0)
(0.217345 -0.0765277 0)
(0.219149 -0.110034 0)
(0.215322 -0.136957 0)
(0.203966 -0.154647 0)
(0.185165 -0.162076 0)
(0.160535 -0.159797 0)
(0.132247 -0.149227 0)
(0.102549 -0.13246 0)
(0.0731528 -0.111607 0)
(0.0458359 -0.0892045 0)
(0.0217243 -0.0674011 0)
(0.0023806 -0.0485593 0)
(-0.011395 -0.0341772 0)
(-0.0196129 -0.024422 0)
(-0.0244132 -0.0170966 0)
(-0.026964 -0.0110726 0)
(-0.0280754 -0.00561591 0)
(-0.0280737 -0.000389533 0)
(-0.0270781 0.00481116 0)
(-0.0253152 0.010152 0)
(-0.0228603 0.0157554 0)
(-0.0198602 0.0217091 0)
(-0.0164931 0.0281297 0)
(-0.0129543 0.0352257 0)
(-0.00934359 0.0433459 0)
(-0.00594584 0.0542091 0)
(-0.00588223 0.0750152 0)
(-0.0150225 0.105372 0)
(-0.0278344 0.130833 0)
(0.208101 0.177717 0)
(-0.465031 0.211151 0)
(0.472965 0.0748647 0)
(-0.1323 0.137483 0)
(0.0942138 0.133118 0)
(0.172722 0.116607 0)
(0.203877 0.0951783 0)
(0.218201 0.0642934 0)
(0.228185 0.0283666 0)
(0.237209 -0.0089078 0)
(0.243527 -0.0452308 0)
(0.244986 -0.0782243 0)
(0.238977 -0.105206 0)
(0.224138 -0.124069 0)
(0.200983 -0.133909 0)
(0.171429 -0.135152 0)
(0.138074 -0.12905 0)
(0.103227 -0.116892 0)
(0.069222 -0.100557 0)
(0.0372505 -0.0816747 0)
(0.00969825 -0.0627645 0)
(-0.0129434 -0.0455803 0)
(-0.0272003 -0.0338557 0)
(-0.036075 -0.0256269 0)
(-0.0412783 -0.0194887 0)
(-0.044349 -0.0143371 0)
(-0.046008 -0.0097261 0)
(-0.0466097 -0.00536346 0)
(-0.0462864 -0.0010735 0)
(-0.0450477 0.00329538 0)
(-0.0430578 0.00790171 0)
(-0.0403468 0.0129115 0)
(-0.037116 0.0184747 0)
(-0.0336885 0.0247892 0)
(-0.0305954 0.0321996 0)
(-0.0284887 0.0415336 0)
(-0.0285693 0.0560397 0)
(-0.0361717 0.0821685 0)
(-0.054495 0.113103 0)
(-0.0508793 0.132256 0)
(0.0371796 0.176847 0)
(-0.522475 0.221218 0)
(0.724195 0.134552 0)
(0.0818885 0.115274 0)
(0.149773 0.0990703 0)
(0.222444 0.0802296 0)
(0.244161 0.0696845 0)
(0.248995 0.0475368 0)
(0.255262 0.0175621 0)
(0.261309 -0.0145781 0)
(0.260263 -0.0445641 0)
(0.24971 -0.0694642 0)
(0.229402 -0.0875341 0)
(0.200911 -0.0982537 0)
(0.166618 -0.101882 0)
(0.129103 -0.0994108 0)
(0.0909074 -0.0921131 0)
(0.0535195 -0.0806847 0)
(0.0196983 -0.0667947 0)
(-0.0109848 -0.0515555 0)
(-0.0327157 -0.039522 0)
(-0.0472103 -0.0308787 0)
(-0.0560107 -0.024984 0)
(-0.0614412 -0.0203473 0)
(-0.064842 -0.016304 0)
(-0.0669647 -0.0125226 0)
(-0.068102 -0.00893967 0)
(-0.0683599 -0.00548733 0)
(-0.067765 -0.00205565 0)
(-0.0662424 0.00151597 0)
(-0.0640242 0.00539711 0)
(-0.0610359 0.00981901 0)
(-0.0574796 0.015067 0)
(-0.0537295 0.0215296 0)
(-0.0505018 0.0299143 0)
(-0.0485276 0.041766 0)
(-0.0478396 0.0606523 0)
(-0.0528636 0.0917632 0)
(-0.0702191 0.131906 0)
(-0.0635206 0.160942 0)
(-0.0589313 0.160175 0)
(-0.5745 0.106525 0)
(0.192289 0.0878443 0)
(0.226028 0.0994868 0)
(0.246766 0.0698804 0)
(0.242807 0.0397378 0)
(0.239895 0.0122764 0)
(0.234851 -0.0125967 0)
(0.220092 -0.0330486 0)
(0.196313 -0.0482573 0)
(0.165833 -0.0581692 0)
(0.131116 -0.0632149 0)
(0.0939879 -0.0636742 0)
(0.0565118 -0.0603199 0)
(0.0207141 -0.0540587 0)
(-0.0139666 -0.0450813 0)
(-0.0404844 -0.0366303 0)
(-0.0601899 -0.0297501 0)
(-0.0732171 -0.0252006 0)
(-0.0815667 -0.021953 0)
(-0.0870123 -0.019262 0)
(-0.0908288 -0.016532 0)
(-0.0935737 -0.0137325 0)
(-0.0954621 -0.0109674 0)
(-0.0965554 -0.00832062 0)
(-0.096863 -0.00577815 0)
(-0.0963573 -0.00323044 0)
(-0.0949337 -0.000488227 0)
(-0.0926671 0.00264463 0)
(-0.0894866 0.00639657 0)
(-0.0853029 0.0111636 0)
(-0.0802341 0.0175019 0)
(-0.0746661 0.0263311 0)
(-0.0688266 0.0393366 0)
(-0.0613475 0.0595256 0)
(-0.0517703 0.0912077 0)
(-0.0478909 0.136702 0)
(-0.0329212 0.186487 0)
(0.097752 0.178857 0)
(-0.498551 0.0222177 0)
(0.451663 0.209077 0)
(0.206967 0.178369 0)
(0.153142 0.118605 0)
(0.139891 0.0640548 0)
(0.128458 0.0260897 0)
(0.114267 0.00210027 0)
(0.0989278 -0.0125897 0)
(0.0777638 -0.0216928 0)
(0.0528219 -0.0273116 0)
(0.0253142 -0.0298661 0)
(-0.00497317 -0.0293141 0)
(-0.0341644 -0.0267834 0)
(-0.0597914 -0.0236469 0)
(-0.0807404 -0.0209917 0)
(-0.0957502 -0.0197018 0)
(-0.105916 -0.0190138 0)
(-0.112742 -0.0183599 0)
(-0.117836 -0.0170012 0)
(-0.122046 -0.0148845 0)
(-0.125658 -0.0122561 0)
(-0.128673 -0.00947372 0)
(-0.131029 -0.00683727 0)
(-0.13268 -0.00453329 0)
(-0.133604 -0.0026187 0)
(-0.133759 -0.0010328 0)
(-0.133021 0.000383025 0)
(-0.131073 0.00185638 0)
(-0.127748 0.0036917 0)
(-0.122711 0.00634644 0)
(-0.115616 0.0105669 0)
(-0.10636 0.017492 0)
(-0.0946916 0.0288242 0)
(-0.0790377 0.0468722 0)
(-0.0567344 0.07407 0)
(-0.0308082 0.112292 0)
(-0.00665698 0.162154 0)
(0.163792 0.159978 0)
(-0.393703 0.078019 0)
(0.36177 -0.413826 0)
(-0.345293 -0.512108 0)
(-0.218315 -0.028501 0)
(-0.0926123 0.110642 0)
(-0.053395 0.0926105 0)
(-0.0310734 0.0548442 0)
(-0.0262675 0.0288584 0)
(-0.0313431 0.0122526 0)
(-0.0404171 0.00156945 0)
(-0.0511561 -0.00539699 0)
(-0.065045 -0.00967347 0)
(-0.0806998 -0.0121047 0)
(-0.0969449 -0.0138905 0)
(-0.112306 -0.0162027 0)
(-0.125468 -0.0190336 0)
(-0.135188 -0.0220293 0)
(-0.141466 -0.0247413 0)
(-0.145761 -0.0265659 0)
(-0.149502 -0.0275312 0)
(-0.153408 -0.0278219 0)
(-0.157552 -0.0276447 0)
(-0.161741 -0.027134 0)
(-0.165716 -0.0263526 0)
(-0.169232 -0.0252986 0)
(-0.172081 -0.0239453 0)
(-0.174118 -0.0222875 0)
(-0.175257 -0.0203565 0)
(-0.175411 -0.0181837 0)
(-0.174369 -0.0157303 0)
(-0.171681 -0.0128489 0)
(-0.166669 -0.00924473 0)
(-0.158565 -0.00432262 0)
(-0.146609 0.00298851 0)
(-0.130205 0.0141077 0)
(-0.108492 0.0298616 0)
(-0.0792471 0.0499042 0)
(-0.042026 0.0739043 0)
(-0.00258139 0.108902 0)
(0.185226 0.129522 0)
(-0.397795 0.134119 0)
(0.124246 -0.184766 0)
(-0.387313 -0.297282 0)
(-0.342727 -0.0968067 0)
(-0.264549 0.0510408 0)
(-0.210888 0.083292 0)
(-0.178743 0.0745063 0)
(-0.162412 0.0611478 0)
(-0.156344 0.0512859 0)
(-0.156352 0.0461832 0)
(-0.159595 0.0455916 0)
(-0.164175 0.0486524 0)
(-0.168503 0.0541035 0)
(-0.17171 0.0604257 0)
(-0.173623 0.0653934 0)
(-0.174847 0.0661829 0)
(-0.176296 0.063196 0)
(-0.178631 0.0597179 0)
(-0.181985 0.0579921 0)
(-0.186012 0.0582879 0)
(-0.190259 0.0599137 0)
(-0.19434 0.0620554 0)
(-0.198004 0.0640296 0)
(-0.201118 0.0652979 0)
(-0.20363 0.0654997 0)
(-0.20552 0.064503 0)
(-0.20677 0.0623881 0)
(-0.207359 0.0593131 0)
(-0.207246 0.055319 0)
(-0.206327 0.0502237 0)
(-0.20436 0.0437155 0)
(-0.200908 0.035652 0)
(-0.195375 0.0263333 0)
(-0.18709 0.0166747 0)
(-0.17523 0.00797201 0)
(-0.158462 0.00111526 0)
(-0.135111 -0.00490634 0)
(-0.101829 -0.0109051 0)
(-0.0525209 -0.00572473 0)
(0.186529 0.07084 0)
(-0.445672 0.190762 0)
(1.14717 -0.0108291 0)
(-0.295087 -0.322136 0)
(-0.352608 -0.23262 0)
(-0.352145 -0.148313 0)
(-0.328588 -0.107023 0)
(-0.296968 -0.0983422 0)
(-0.269559 -0.10034 0)
(-0.249406 -0.105725 0)
(-0.235506 -0.112919 0)
(-0.225816 -0.122008 0)
(-0.218608 -0.133572 0)
(-0.21288 -0.147971 0)
(-0.208366 -0.164282 0)
(-0.205395 -0.179569 0)
(-0.20476 -0.189463 0)
(-0.207274 -0.193091 0)
(-0.212641 -0.192519 0)
(-0.21952 -0.189765 0)
(-0.226518 -0.186389 0)
(-0.232719 -0.183165 0)
(-0.237702 -0.180288 0)
(-0.241392 -0.177648 0)
(-0.243945 -0.17501 0)
(-0.245676 -0.172119 0)
(-0.246971 -0.168748 0)
(-0.248195 -0.164725 0)
(-0.249631 -0.159956 0)
(-0.25154 -0.154414 0)
(-0.254297 -0.148087 0)
(-0.258491 -0.140856 0)
(-0.264802 -0.132294 0)
(-0.273682 -0.121427 0)
(-0.284942 -0.106645 0)
(-0.297554 -0.0860843 0)
(-0.309562 -0.0586768 0)
(-0.316824 -0.0251728 0)
(-0.309252 0.0129036 0)
(-0.27471 0.0582369 0)
(-0.247047 0.118454 0)
(-0.591085 0.197812 0)
)
;

boundaryField
{
    floor
    {
        type            noSlip;
    }
    ceiling
    {
        type            noSlip;
    }
    sWall
    {
        type            noSlip;
    }
    nWall
    {
        type            noSlip;
    }
    sideWalls
    {
        type            empty;
    }
    glass1
    {
        type            noSlip;
    }
    glass2
    {
        type            noSlip;
    }
    sun
    {
        type            noSlip;
    }
    Table_master
    {
        type            noSlip;
    }
    Table_slave
    {
        type            noSlip;
    }
    inlet
    {
        type            fixedValue;
        value           uniform (0.5 0 0);
    }
    outlet
    {
        type            zeroGradient;
    }
}


// ************************************************************************* //
