/*--------------------------------*- C++ -*----------------------------------*\
  =========                 |
  \\      /  F ield         | OpenFOAM: The Open Source CFD Toolbox
   \\    /   O peration     | Website:  https://openfoam.org
    \\  /    A nd           | Version:  6
     \\/     M anipulation  |
\*---------------------------------------------------------------------------*/
FoamFile
{
    version     2.0;
    format      ascii;
    class       volScalarField;
    location    "1110";
    object      epsilon;
}
// * * * * * * * * * * * * * * * * * * * * * * * * * * * * * * * * * * * * * //

dimensions      [0 2 -3 0 0 0 0];

internalField   nonuniform List<scalar> 
458
(
0.000432858
0.000557975
0.000596674
0.000686477
0.000776778
0.000869265
0.000968859
0.00107747
0.00117206
0.0012342
0.00124131
0.00117488
0.0010223
0.000744105
0.00032499
3.92351e-05
6.32067e-05
9.21099e-05
0.000104422
9.95977e-05
8.16182e-05
6.44063e-05
5.12226e-05
4.13718e-05
3.39161e-05
2.81884e-05
2.37393e-05
2.02088e-05
1.73145e-05
1.48379e-05
1.26008e-05
1.13844e-05
8.83756e-06
0.0010611
0.00158346
0.000518592
0.000502769
0.000518631
0.000551125
0.0006065
0.000688741
0.00078002
0.000854254
0.00088233
0.000848052
0.000757074
0.00062411
0.000502112
0.000747479
0.000426838
0.000231825
3.82957e-05
7.53705e-05
9.2761e-05
9.34506e-05
8.97533e-05
9.00562e-05
7.05755e-05
5.35038e-05
4.08134e-05
3.15412e-05
2.47439e-05
1.97251e-05
1.59694e-05
1.317e-05
1.14075e-05
1.06897e-05
3.04866e-05
2.00743e-05
0.00190722
0.00384789
0.000603907
0.000458429
0.000466187
0.000508357
0.000580702
0.00068396
0.000797484
0.000884758
0.000918428
0.000888298
0.000802296
0.000667377
0.000517805
0.000416556
0.000353197
0.000381982
0.000139902
0.000139228
0.000125593
0.000111545
0.000103554
0.000198189
0.000132989
9.1143e-05
6.4532e-05
4.72897e-05
3.58153e-05
2.79888e-05
2.25656e-05
1.88689e-05
1.48295e-05
1.31286e-05
6.48674e-05
3.31318e-05
0.00306298
0.00799437
0.000904001
0.000439094
0.000429346
0.000481401
0.000575177
0.000718235
0.000863072
0.000958484
0.000989741
0.000953395
0.000855632
0.000703637
0.000548747
0.000432558
0.000366039
0.000380654
0.00058407
0.000375974
0.000245274
0.000178361
0.000140532
0.000123052
0.000283318
0.000218225
0.000180142
0.000155074
0.000135785
0.000118261
0.000103084
8.85206e-05
7.33176e-05
4.54046e-05
2.92942e-05
0.000114633
5.06233e-05
0.00464989
0.014427
0.00174067
0.000470996
0.000395747
0.000451765
0.000589152
0.000833214
0.00101892
0.00111225
0.00112881
0.00106965
0.00093782
0.000754
0.00056507
0.000420232
0.000331801
0.000302806
0.000303916
0.000253693
0.000209463
0.000175196
0.000146367
0.000122131
0.000113117
0.000103858
9.75731e-05
9.22226e-05
8.62221e-05
7.87861e-05
7.08977e-05
6.31666e-05
5.591e-05
4.60338e-05
3.61926e-05
7.47522e-05
0.000114583
0.000120966
0.000143505
0.000184282
0.00687193
0.0217345
0.00400238
0.000791029
0.000465299
0.000474288
0.000701205
0.00112047
0.00130674
0.0013664
0.00134409
0.00124662
0.00106763
0.000825526
0.000577849
0.000388882
0.000278949
0.00023863
0.000228328
0.000218337
0.000201227
0.000176847
0.000149373
0.000123818
0.000107376
0.000100944
9.97749e-05
9.93665e-05
9.7225e-05
9.16826e-05
8.17242e-05
7.04587e-05
5.98119e-05
5.01514e-05
4.34425e-05
5.55243e-05
8.83464e-05
0.000106125
0.000206701
0.000205618
0.00965899
0.0261936
0.00879671
0.00280184
0.00145505
0.00114174
0.0014841
0.00172745
0.00178668
0.00174977
0.0016504
0.00148402
0.00123038
0.000908417
0.000588434
0.000356039
0.000234613
0.000200317
0.000202476
0.00020312
0.000190136
0.000166946
0.000141417
0.000120262
0.00010911
0.00010858
0.000113684
0.000120172
0.000125743
0.000128189
0.000124111
0.000111099
9.7498e-05
8.59431e-05
8.04547e-05
8.87288e-05
0.000120588
0.000176779
0.000327318
0.000344811
0.010447
0.0300933
0.0160952
0.00965364
0.00597159
0.0041823
0.00338488
0.00287696
0.00253894
0.00228195
0.00203983
0.0017616
0.00139764
0.000968636
0.000561501
0.000300584
0.000190482
0.000174484
0.000179738
0.000177219
0.000162294
0.000142032
0.000124178
0.000113572
0.000112254
0.000119075
0.000131185
0.000146865
0.000165746
0.000187732
0.000212031
0.00023295
0.000246023
0.000273135
0.000329094
0.00048007
0.000820433
0.00137752
0.00410982
0.00128193
0.00984366
0.0172556
0.0132405
0.0099904
0.00750841
0.00579451
0.00459035
0.00379156
0.00325196
0.00282463
0.00242776
0.0020071
0.00148423
0.000914252
0.000407093
0.00021616
0.000158955
0.00014761
0.000144533
0.000137002
0.000124657
0.000112531
0.000104999
0.000104124
0.000109959
0.000121524
0.000138068
0.000159895
0.00018836
0.000225717
0.000275031
0.000339924
0.000427247
0.000551956
0.000734024
0.000976714
0.00125097
0.00149864
0.00170342
0.00104496
0.00347906
0.00472039
0.0051232
0.0050286
0.00473371
0.00432064
0.00378439
0.00315916
0.00254867
0.00194882
0.00116373
0.000536531
0.000254534
0.000159692
0.000129175
0.000118204
0.000110934
0.000103113
9.54576e-05
8.99652e-05
8.84335e-05
9.12923e-05
9.81513e-05
0.000108606
0.000122659
0.00014089
0.000164546
0.000195753
0.00023798
0.000297001
0.000378463
0.000488598
0.000629965
0.000786476
0.000911346
0.000944871
0.000871318
0.000544328
0.00289507
0.00862202
0.0082836
0.00717435
0.00607636
0.00479049
0.00347916
0.00225707
0.00128322
0.000710125
0.000375214
0.000215363
0.000151205
0.000124107
0.000111019
0.000102128
9.41386e-05
8.6976e-05
8.1642e-05
7.88754e-05
7.89571e-05
8.1996e-05
8.79532e-05
9.70092e-05
0.000109685
0.00012689
0.000150014
0.000181131
0.000223199
0.000279987
0.000356625
0.000458316
0.000585886
0.000728699
0.000842162
0.000956415
0.000733741
0.000565831
0.00336791
0.00362375
0.003867
0.00532544
0.00449726
0.00312961
0.0018792
0.00115795
0.000823615
0.000572263
0.00039845
0.000290032
0.000215269
0.000168074
0.000139705
0.000121132
0.000107449
9.6535e-05
8.81013e-05
8.26971e-05
8.07392e-05
8.22062e-05
8.66637e-05
9.35048e-05
0.000102651
0.00011424
0.000128614
0.000146363
0.000168438
0.000196486
0.000232002
0.000276323
0.000331607
0.000400537
0.000486117
0.000603753
0.000660712
0.000620947
0.000499671
0.000395309
)
;

boundaryField
{
    floor
    {
        Cmu             0.09;
        kappa           0.41;
        E               9.8;
        type            epsilonWallFunction;
        value           nonuniform List<scalar> 
36
(
0.00032499
3.92351e-05
6.32067e-05
9.21099e-05
0.000104422
9.95977e-05
8.16182e-05
6.44063e-05
5.12226e-05
4.13718e-05
3.39161e-05
2.81884e-05
2.37393e-05
2.02088e-05
1.73145e-05
1.48379e-05
1.26008e-05
1.13844e-05
8.83756e-06
8.83756e-06
2.00743e-05
3.31318e-05
5.06233e-05
0.000120966
0.000143505
0.000184282
0.00032499
0.000747479
0.000426838
0.000231825
3.92351e-05
0.000231825
3.82957e-05
0.000381982
0.000139902
0.00058407
)
;
    }
    ceiling
    {
        Cmu             0.09;
        kappa           0.41;
        E               9.8;
        type            epsilonWallFunction;
        value           nonuniform List<scalar> 
43
(
0.00336791
0.00362375
0.003867
0.00532544
0.00449726
0.00312961
0.0018792
0.00115795
0.000823615
0.000572263
0.00039845
0.000290032
0.000215269
0.000168074
0.000139705
0.000121132
0.000107449
9.6535e-05
8.81013e-05
8.26971e-05
8.07392e-05
8.22062e-05
8.66637e-05
9.35048e-05
0.000102651
0.00011424
0.000128614
0.000146363
0.000168438
0.000196486
0.000232002
0.000276323
0.000331607
0.000400537
0.000486117
0.000603753
0.000660712
0.000620947
0.000499671
0.000395309
0.00984366
0.0172556
0.00289507
)
;
    }
    sWall
    {
        Cmu             0.09;
        kappa           0.41;
        E               9.8;
        type            epsilonWallFunction;
        value           uniform 0.00336791;
    }
    nWall
    {
        Cmu             0.09;
        kappa           0.41;
        E               9.8;
        type            epsilonWallFunction;
        value           nonuniform List<scalar> 6(0.000184282 0.000205618 0.000344811 0.000544328 0.000565831 0.000395309);
    }
    sideWalls
    {
        type            empty;
    }
    glass1
    {
        Cmu             0.09;
        kappa           0.41;
        E               9.8;
        type            epsilonWallFunction;
        value           nonuniform List<scalar> 9(0.000432858 0.0010611 0.00190722 0.00306298 0.00464989 0.00687193 0.00965899 0.010447 0.00984366);
    }
    glass2
    {
        Cmu             0.09;
        kappa           0.41;
        E               9.8;
        type            epsilonWallFunction;
        value           nonuniform List<scalar> 2(0.00128193 0.00104496);
    }
    sun
    {
        Cmu             0.09;
        kappa           0.41;
        E               9.8;
        type            epsilonWallFunction;
        value           nonuniform List<scalar> 
14
(
0.000432858
0.000557975
0.000596674
0.000686477
0.000776778
0.000869265
0.000968859
0.00107747
0.00117206
0.0012342
0.00124131
0.00117488
0.0010223
0.000744105
)
;
    }
    Table_master
    {
        Cmu             0.09;
        kappa           0.41;
        E               9.8;
        type            epsilonWallFunction;
        value           nonuniform List<scalar> 9(0.000198189 0.000132989 9.1143e-05 6.4532e-05 4.72897e-05 3.58153e-05 2.79888e-05 2.25656e-05 1.88689e-05);
    }
    Table_slave
    {
        Cmu             0.09;
        kappa           0.41;
        E               9.8;
        type            epsilonWallFunction;
        value           nonuniform List<scalar> 9(0.000283318 0.000218225 0.000180142 0.000155074 0.000135785 0.000118261 0.000103084 8.85206e-05 7.33176e-05);
    }
    inlet
    {
        type            turbulentMixingLengthDissipationRateInlet;
        mixingLength    0.01;
        phi             phi;
        k               k;
        value           uniform 0.000471672;
    }
    outlet
    {
        type            zeroGradient;
    }
}


// ************************************************************************* //
