/*--------------------------------*- C++ -*----------------------------------*=========                 |
  \      /  F ield         | OpenFOAM: The Open Source CFD Toolbox
   \    /   O peration     | Website:  https://openfoam.org
    \  /    A nd           | Version:  6
     \/     M anipulation  |
\*---------------------------------------------------------------------------*/
FoamFile
{
    version     2.0;
    format      ascii;
    class       volScalarField;
    location    "330";
    object      PMV;
}
// * * * * * * * * * * * * * * * * * * * * * * * * * * * * * * * * * * * * * //

dimensions      [0 0 0 0 0 0 0];

internalField   nonuniform List<scalar> 
458
(
1.3237601864789885
1.0777170574445802
1.043454255329275
1.0147362400916773
0.99681505343756
0.9896973365380104
0.9933808091633992
1.0099192831686175
1.0423109903835275
1.0947380874238117
1.1699898888844198
1.2296356382626044
1.2449176228395331
1.253035867394614
1.2644965379411064
1.3943475902403748
1.3800295096861344
1.3762111823538312
1.38384776505489
1.390052274647613
1.3943475902403748
1.38848376494991
1.3848067569710523
1.3859678122438606
1.3885588558176831
1.3917804241717033
1.3957517461023479
1.4008288352402574
1.4080012784011149
1.4195373018174673
1.4334781967628945
1.4392039191359214
1.454471583473037
1.255760519703657
1.0906330660891213
1.0775677975955005
1.0495435913132611
1.0328297713435395
1.0254012098684353
1.0280749166858913
1.0372071736005921
1.0523939144180714
1.078993738937239
1.12241708540381
1.1877431657643063
1.243962520882753
1.253513404315162
1.2415088648262214
1.2057691834899635
1.2129964960513444
1.2416294604295783
1.3539339850899224
1.3652330970265527
1.3652330970265527
1.3743019919303134
1.3765503238982304
1.3769466468436813
1.3779132025604917
1.3803523500109027
1.3819442562753381
1.3831291165244592
1.384491800138574
1.3866710031081138
1.3891706736030105
1.3927393556532874
1.4022166542055525
1.4148683294263205
1.4225033784356913
1.4104773866605913
1.2848958472676872
1.083080812487049
1.1115540341906485
1.0975799059865663
1.091525468431862
1.0882580386329488
1.0888268193739261
1.0829521348278843
1.0668939435009213
1.055369100615463
1.0715516549916289
1.128225406102723
1.2252929837595474
1.261631412856607
1.267361634208881
1.2593107637518173
1.2569383701198802
1.2485441395964267
1.2602129751041657
1.3160093918724303
1.324203544725807
1.3350931045905345
1.3486557130221943
1.3538609036745508
1.37769126617021
1.3957793411366919
1.3972110814833874
1.3981655691674735
1.3995972918437374
1.401029003864945
1.4024607051914837
1.4043696235885899
1.4079029454091354
1.412482311678249
1.4073633866600395
1.3384657674208567
1.3581774201462942
1.0770126159640288
1.1362385684034664
1.1497597909183126
1.1685449735870186
1.1807369105851198
1.1817927521133418
1.1487415882395606
1.0848565025900787
1.032492316964607
1.0301755116282083
1.0883681145625164
1.1841436684071907
1.2714213117354507
1.2831191364505634
1.2824965047156764
1.242660620120439
1.2181598009781733
1.174637537729063
1.2389711525181106
1.278677629835058
1.3096653900523427
1.3452785857375402
1.3844071940424048
1.4145656411031728
1.4121655687133703
1.4103498547694746
1.4125966656020426
1.4166394559121438
1.4224927819035722
1.4325173528752426
1.447892588975518
1.4733869432520754
1.468117697417341
1.4477921484884466
1.390458251253176
1.2954400251463616
1.4514065751624763
1.0863415522659876
1.154694732271483
1.1961336050388462
1.2556413846395404
1.304180403126198
1.3047351428708212
1.2135917904005824
1.0968095656201502
1.0122840759090221
0.9998548275151016
1.0619154097623136
1.1636434572907133
1.264975296155354
1.3055600307183124
1.3065149187286722
1.279249532380001
1.2520255052237566
1.253622501019837
1.2732772624895785
1.3088398261888063
1.3545777747817154
1.402127863167199
1.447691261337761
1.4841836874029644
1.4969430602135938
1.5024900065343647
1.5057456469330575
1.5074742422597274
1.5067273449899883
1.5065990976787604
1.5068454558951845
1.506021078654441
1.4880677008446221
1.456530873286777
1.3789873900211962
1.3745265452736624
1.3817407378402342
1.468094716292605
1.3477134827355655
1.5476183931175143
1.1173597642684314
1.187542131222328
1.229583867899241
1.3212008575169065
1.39052953657392
1.3866966826441633
1.2309805135540186
1.0881658278085105
0.9916800398335873
0.9791226591991588
1.048961329213471
1.1647711634679767
1.2855855354534627
1.3385014898593899
1.341843117688658
1.3385014898593899
1.3382473714570198
1.343936685853909
1.3692097934800935
1.4083829801950518
1.4520861013235622
1.4845256826894244
1.5117125051169475
1.5322185369487002
1.5470000955557794
1.5570124939227883
1.5632102661932163
1.5665474063843965
1.5660706773258872
1.5617800370634796
1.554628657734312
1.5409675230009217
1.5086569971297186
1.4680489319675099
1.3941603345410902
1.3845066712122385
1.3803523249570864
1.4058795161219781
1.4147886671754015
1.6408076016083735
1.2045471382086694
1.3092036013110897
1.2924504105671712
1.3535842035460626
1.4186410131396399
1.3299517557855143
1.1974634577648
1.05232987645706
0.9593560150409262
0.9617220554542567
1.0545515186824739
1.197430107794737
1.3450579023787554
1.3833704870943782
1.3914840569565574
1.3910067973440323
1.3972110814833874
1.4182087025164836
1.4482692597265496
1.4811866170094616
1.5126663388172927
1.5398479271580738
1.561303290541435
1.5760816162918012
1.5860903639531774
1.5918100909577038
1.5941932319110776
1.5941932319110776
1.5908568215812824
1.5837070663215547
1.5741748312160402
1.56273352489118
1.546102260381235
1.499407685189756
1.4344927302297954
1.4026578789897737
1.3816421347118721
1.3544853873500753
1.4588612994828645
1.7813345531459863
1.5748617949351345
1.5181138598780237
1.405668477385077
1.3846507835328377
1.3649606736039728
1.2724769482590488
1.1126400404269075
0.9646858227385059
0.9023280573783411
0.9526194152960983
1.096054999199149
1.282679871960922
1.4053240756013572
1.4406353203856324
1.4506547958122862
1.454471583473037
1.4663984807985466
1.4892956523142196
1.5179123124244194
1.5450928874211043
1.5694077437885874
1.587996969093489
1.6008657779120172
1.6089676565132653
1.6132566619395075
1.6142097529586146
1.6132566619395075
1.6103973423676374
1.6056316556288963
1.598959373781046
1.5899035448017644
1.5789417400778578
1.5651172139470313
1.5493840678515318
1.5322185369487002
1.5228780298998832
1.495119332895806
1.4179559243201412
1.3314386370551614
1.9902207507845313
1.845006663682349
1.685692664302723
1.5469479362482277
1.4554076647688607
1.3650376284061116
1.1312274336948196
0.9035092314285502
0.795875730306271
0.8323829839370555
0.991024202317809
1.223045078949477
1.4072329651961848
1.4768934283734874
1.5026507767723034
1.5131432533317009
1.5222043308666873
1.5369869551284534
1.5570124939227883
1.5784650572796743
1.5970529395223756
1.6118270108605042
1.6152970531162631
1.6129739601452244
1.6085466934258628
1.6026801832589697
1.5954653148796942
1.58683315882826
1.5768733214210642
1.5650555348984636
1.5509609076329467
1.5357685774692156
1.5213432857997427
1.5035064080247902
1.4834683440161007
1.4654202590628813
1.4537984848059964
1.449207264617831
1.4393986565905879
1.4092480610152816
-1.7146620329789948
-0.8518714463513466
-0.33718976910015697
-0.16203024884882086
0.026214239551529055
0.2723871550399384
0.5803922816822229
0.9053684933651412
1.2205616129045853
1.4239349145331905
1.4933254083410714
1.5079033791196237
1.5182227917956745
1.5281537253445967
1.5414418132758756
1.5570755835511256
1.5729758704875052
1.584389405834591
1.5906567698157894
1.5923203974904294
1.5903697916465982
1.5859064299443169
1.5802155312512938
1.5730491044462473
1.564774612385635
1.5560234284685277
1.5476623368401852
1.539761534902222
1.5337713177082513
1.5292933144278082
1.5256975927743432
1.5225422392444417
1.5199500005885447
1.5201569712821215
1.5305388147156758
1.5674679671197291
1.638987229805435
1.4880798836547644
-1.7213110882064673
-0.6528013477254927
-0.05728844565146262
0.25763468669736006
0.5211588105291792
0.8240295698490404
1.1575145949546695
1.3519372658484006
1.4176770299912445
1.468353995583197
1.496400575579007
1.5129779854816932
1.5248785412512216
1.5351483784772464
1.545388235836632
1.555382614349349
1.5633554538802603
1.5692052661564535
1.5719360487072878
1.5732185711756663
1.5725622762887708
1.5699592862894598
1.5674356334552495
1.563621619717322
1.5601122789898219
1.5570700487898284
1.5542186550321115
1.5520334701551188
1.5514327928986158
1.5532990762002175
1.5596673227475273
1.5696604267822671
1.5811196889232544
1.5904447987160188
1.6013639575669203
1.637326670780044
1.5837141902441532
1.5288297105856032
-1.1171798126271917
-1.119005674084379
-0.9951226829917517
-0.16809519253682084
0.44621562498605843
0.8900872651098428
1.1773062352577606
1.3125883126501554
1.3975777874318487
1.447726242337039
1.4808522645405513
1.5037784763403468
1.5188866467749775
1.5288307791735456
1.5354894310751155
1.5404673401259807
1.5440376385163403
1.545369653372244
1.544015392982118
1.5411911042261202
1.5373993682220437
1.5339170827984907
1.530511426006531
1.5272679732839183
1.5247550302437198
1.5230814896323763
1.5229587036809298
1.523690078970727
1.5262809572426008
1.5319413205193801
1.5401860337271276
1.55286627008969
1.575111217081018
1.6148144216477571
1.6623303949363384
1.6680462838037904
1.6381874833904215
1.5837662251579103
1.5365501041142602
1.5493616699509791
)
;

boundaryField
{
    ".*"
    {
        type            zeroGradient;
    }
}


// ************************************************************************* //
