/*--------------------------------*- C++ -*----------------------------------*=========                 |
  \      /  F ield         | OpenFOAM: The Open Source CFD Toolbox
   \    /   O peration     | Website:  https://openfoam.org
    \  /    A nd           | Version:  6
     \/     M anipulation  |
\*---------------------------------------------------------------------------*/
FoamFile
{
    version     2.0;
    format      ascii;
    class       volScalarField;
    location    "330";
    object      PPD;
}
// * * * * * * * * * * * * * * * * * * * * * * * * * * * * * * * * * * * * * //

dimensions      [0 0 0 0 0 0 0];

internalField   nonuniform List<scalar> 
458
(
41.49142285441471
29.500934218573136
27.982111104795038
26.74190273645671
25.983545306819366
25.685727115654174
25.83960913682111
26.536878172342327
27.93215919207387
30.270830232743748
33.790385565974475
36.703815320766566
37.46626996918027
37.873800472158194
38.45197749028378
45.20457016078706
44.44440544395888
44.24223759917639
44.6468060215625
44.97619152212107
45.20457016078706
44.89286556748408
44.69767752427789
44.75928733534523
44.89685384753105
45.0680421008397
45.27928859980547
45.549696526037835
45.93233888920871
46.549261680775125
47.29707654267867
47.604888615000675
48.427426628726884
38.010955450233624
30.084235310209095
29.494227427986033
28.248968011462082
27.519742118535206
27.198920104649588
27.314156502895457
27.709742897263624
28.374340541696213
29.55833202638243
31.54389932474848
34.6467417184481
37.41843683268637
37.897825301897036
37.29566301879187
35.52577983934714
35.88083974615169
37.30169357970037
43.06768240664237
43.66234258166447
43.66234258166447
44.14124237641627
44.26018433761363
44.281159414647774
44.33232444880936
44.46150968375479
44.545874298711496
44.608693568404675
44.680968446018795
44.796611523236514
44.929352412725265
45.1190286861427
45.62367792156055
46.29935993350478
46.7081647558818
46.06460444106802
39.48909037715805
29.7424636974133
31.041196447903502
30.400344253993993
30.124750450995734
29.97654258191173
30.002315529439826
29.736657615019496
29.016642578332224
28.505517439103414
29.224550866647874
31.814287931450863
36.48829287459832
38.30712612031883
38.597030961327036
38.18995196744552
38.07030510507611
37.64810833304392
38.23549035654169
41.08947189311804
41.51445287011844
42.081358771587546
42.79068644156388
43.063843693641495
44.32057479501541
45.28075729234248
45.356974473978944
45.407802501315196
45.484069219011104
45.56036532915641
45.636690584313634
45.73850249935347
45.92708801700157
46.17176255167969
45.898278578706794
42.257417811379916
43.290741945323326
29.46928793408297
32.189124662106664
32.8263038976998
33.72110727052157
34.30765451974233
34.35866131823464
32.778118936880915
29.82264360198218
27.5051241526466
27.404877148973796
29.981529539192877
34.47235164109327
38.802908909201726
39.398365725869375
39.366589672664226
37.35327384259436
36.135399348935664
34.013654483278145
37.168849864553046
39.171893661681594
40.76142155875889
42.6137325422239
44.676480194525496
46.283168803188204
46.154829814962866
46.05779004408834
46.177876122642935
46.394123838473604
46.707596862787376
47.24545928794862
48.07268542325258
49.44964407080634
49.16456460280343
48.067273093159955
44.9977649260992
40.02901754075615
48.262105738727016
29.889783870634034
33.060306150015634
35.05472721795449
38.00495441848943
40.47849257038375
40.507077457658625
35.91015074731368
30.365209220426337
26.637422329543327
26.11132252650974
28.795264024423645
33.486574990239134
38.47620183442355
40.54959517631049
40.59883221666905
39.201028679748106
37.822988481219916
37.903314762115976
38.8971633595504
40.71879504435467
43.10150266390154
45.61894384549231
48.06183680062024
50.034471192624316
50.72668249642372
51.02792876826583
51.20481783228401
51.29876048179847
51.2581675436435
51.2511977484255
51.26458653507588
51.21978547740056
50.24506807527019
48.538553256827754
44.38920498294126
44.15311799091594
44.53508636488348
49.16332178366576
42.741294092382404
53.48368404863295
31.309376893265124
34.63699178759704
36.70124298453866
41.358559205668634
45.001553255841614
44.79797469674968
36.77066409631133
29.97236532008617
25.76849283353289
25.246844141749094
28.22339308189359
33.54046904129743
39.52432803410216
42.25928377872938
42.43394377722076
42.25928377872938
42.24601040406692
42.54347990807759
43.87216660988466
45.9527226135513
48.298749979099576
50.05301038736526
51.52915709531074
52.64494113354926
53.45000080032632
53.99549622812845
54.33318711963374
54.51501159648954
54.489037261622535
54.25525986878438
53.86561324504081
53.121391775869924
51.36304749627282
49.16084578119105
45.194608081921096
44.68175735029818
44.46150835632569
45.819069145619586
46.295098593823646
58.55278273463508
35.46589032913761
40.737576102096945
39.87567123874665
43.049310482880394
46.501266653973175
41.81340446724856
35.119580113311585
28.371520590245524
24.438057920882983
24.534067055723938
28.469438274734387
35.11795310883082
42.602176729323
44.621493378108035
45.05228703058458
45.026918428345745
45.356974473978944
46.47812074691874
48.09298362112882
49.872039731944014
51.5810203402801
53.06041160247808
54.229283866168814
55.03443690060922
55.57956719163627
55.890989303200854
56.02071598265206
56.02071598265206
55.83909302282284
55.449778783264954
54.930563122591714
54.30721150610379
53.40108996996135
50.86051056193006
47.35158979792839
45.6472044069558
44.52985993284463
43.09664880189096
48.664360979412294
66.04151345970442
54.96798665408712
51.877298239535435
45.80780635125828
44.68940263068427
43.647978616760206
38.85650915509344
31.091276096691203
24.654639343355242
22.19109012762118
24.165901785195757
30.33081328886398
39.37594688401967
45.78942753764684
47.68189824456636
48.22157062910843
48.427426628726884
49.071602091176906
50.31167116753038
51.86633430500544
53.34610431623248
54.670852507578964
55.6833860671631
56.383834129527955
56.82449839969985
57.05765682746046
57.109456066576065
57.05765682746046
56.90222886245854
56.643086606104234
56.28010468874005
55.787193666203954
55.190234222054514
54.437087959076926
53.57987600042105
52.64494113354926
52.13650960807056
50.627678425854455
46.46458813376079
41.890842748499566
76.30684085946112
69.30955278927468
60.97484071989133
53.44715931917777
48.47793576393417
43.65203605192427
31.95447110572738
22.23630675025082
18.35225118448008
19.615571883049554
25.741099010277367
36.376933231140086
45.89131540709926
49.63948062201584
51.03666256741687
51.60695340121001
52.099849436725265
52.9045969327565
53.99549622812845
55.16426919389557
56.1763600231749
56.9799484354643
57.16854357468836
57.042291454801315
56.80160924178539
56.482544579346694
56.089954517365925
55.62001512579663
55.077564167260256
54.433727371413696
53.66578332195272
52.83824699653123
52.05299703109761
51.083146886629265
49.995695932257725
49.01871871133035
48.39111287899615
48.14353766451387
47.61536417590813
45.99892733049183
62.525415515738075
20.31284440710928
7.36479305493738
5.544096311110948
5.014225538813193
6.540756767200875
12.058233544522835
22.307595884330098
36.254065406090554
46.78489719146423
50.53031238183818
51.32208481574692
51.88322407112946
52.4236475711043
53.147225306679495
53.998933690790935
54.86524620926856
55.48693863951796
55.82820180048941
55.91876942098645
55.81257792509191
55.56955109064131
55.25961592920122
54.869235895563314
54.418421266793686
53.94160681586926
53.48607800729211
53.05570624388803
52.7294887586548
52.48568334736307
52.28995709239255
52.118236934854174
51.977189547809644
51.988450178872185
52.55348906882229
54.5651674941097
58.4541571727149
50.245728810531475
62.87958706453694
13.949427372298416
5.067948305507883
6.3779390461969285
10.680258235550667
19.321557854268633
33.194360008086775
42.96283693141537
46.4496583487573
49.17734387207507
50.69723069236598
51.59796655563613
52.245379476239464
52.80447379351612
53.3621932854785
53.90669216987154
54.341097770905535
54.659821038694375
54.80859746256576
54.87846818732669
54.84271404172668
54.70090169244475
54.56340583341312
54.35559998568483
54.164390393775925
53.99863212713747
53.843274602612674
53.72421862324644
53.69149242727958
53.79317253649039
54.14014651249733
54.6846192366333
55.30886233344557
55.81666153792899
56.41093828149027
58.36416780273181
55.45016675384204
52.46044568011125
31.301047638049823
31.385609476896477
25.912558502422385
5.585641520518735
9.154242513120252
21.72583829033195
34.14215231563226
40.91245972687069
45.376500571728236
48.06372173566547
49.853923039594896
51.09792851750856
51.919338422439665
52.46050385115447
52.82304584434467
53.094148394976216
53.28862120303734
53.36118101045837
53.28740942946765
53.1335696928222
52.92705673797221
52.7374258719984
52.55199796356818
52.37543269931292
52.238657476560135
52.14758144636976
52.1408996827835
52.180700445943614
52.32170860057553
52.62984761062609
53.07882673695216
53.76959185764111
54.98157419574733
57.142316548085816
59.716717556312666
60.02508845465118
58.41081976666602
55.45300058459212
52.88080667303081
53.57865576590766
)
;

boundaryField
{
    ".*"
    {
        type            zeroGradient;
    }
}


// ************************************************************************* //
