/*--------------------------------*- C++ -*----------------------------------*\
  =========                 |
  \\      /  F ield         | OpenFOAM: The Open Source CFD Toolbox
   \\    /   O peration     | Website:  https://openfoam.org
    \\  /    A nd           | Version:  6
     \\/     M anipulation  |
\*---------------------------------------------------------------------------*/
FoamFile
{
    version     2.0;
    format      ascii;
    class       surfaceScalarField;
    location    "4420";
    object      phi;
}
// * * * * * * * * * * * * * * * * * * * * * * * * * * * * * * * * * * * * * //

dimensions      [1 0 -1 0 0 0 0];

internalField   nonuniform List<scalar> 
850
(
-0.00305311
0.00311357
-0.00414582
0.0010927
-0.0050149
0.000869087
-0.00570376
0.000688851
-0.00617583
0.000472075
-0.00639707
0.000221239
-0.00632785
-6.92201e-05
-0.00592402
-0.000403831
-0.00517376
-0.000750257
-0.00412859
-0.00104517
-0.00290028
-0.00122831
-0.00164148
-0.0012588
-0.000538982
-0.0011025
0.000135925
-0.000674908
0.000138276
-0.000922421
0.000926077
-0.000690028
-0.000232393
-6.07972e-05
-0.000629231
0.000542645
-0.000603442
0.00100183
-0.000459182
0.0012584
-0.000256575
0.00136652
-0.000108115
0.00141933
-5.28163e-05
0.00144968
-3.03529e-05
0.00146475
-1.50654e-05
0.00146836
-3.6102e-06
0.00146136
7.00015e-06
0.00143811
2.32538e-05
0.00137959
5.85206e-05
0.00125367
0.000125919
0.00105009
0.00020358
0.000793443
0.000256645
0.000798282
-0.00220745
0.00548442
-0.0032951
0.00218036
-0.00420832
0.00178231
-0.00490609
0.00138662
-0.0053876
0.000953582
-0.00563053
0.000464174
-0.0055945
-0.000105255
-0.00524029
-0.000758038
-0.00456677
-0.00142378
-0.00364272
-0.00196923
-0.00258802
-0.002283
-0.00154149
-0.00230534
-0.000628654
-0.00201533
9.29449e-05
-0.00139651
0.000872764
-0.000641543
0.00114861
-0.00027206
0.000956839
0.000196129
0.000969528
4.152e-05
0.000895558
0.000421776
-0.000612649
0.000786657
-0.000994112
0.00109963
-0.00091641
0.00135048
-0.000710033
0.00140694
-0.000313041
0.00141508
-0.000116251
0.0014258
-6.35412e-05
0.00143479
-3.93386e-05
0.00144006
-2.03333e-05
0.00144222
-5.77383e-06
0.00144183
7.39142e-06
0.00143635
2.87325e-05
0.00139989
9.49772e-05
0.00124702
0.000278798
0.000978553
0.000472042
0.000644611
0.000590587
0.00145527
-0.00156234
0.00729718
-0.00251037
0.00312839
-0.003343
0.00261494
-0.00396557
0.00200918
-0.00441314
0.00140115
-0.00466166
0.000712691
-0.00465599
-0.000110925
-0.00433469
-0.00107934
-0.00371314
-0.00204532
-0.00288871
-0.00279366
-0.00198659
-0.00318512
-0.00112265
-0.00316927
-0.000373452
-0.00276453
0.000240549
-0.00201051
0.000752049
-0.00115304
0.000899399
-0.00041941
0.000707507
0.00038802
0.0016883
0.00143724
-0.000527841
0.00163273
-0.000808147
0.00157514
-0.000936513
0.00160842
-0.000949698
0.00181169
-0.0009133
0.0014988
0.00138271
0.00131932
0.00128013
0.00125995
0.00125433
0.00126188
0.00129077
0.0013859
0.00115887
0.000505825
0.000869989
0.000760923
0.000498891
0.000961685
0.00197273
-0.00109547
0.0087173
-0.00185227
0.0038852
-0.0024366
0.00319926
-0.00288268
0.00245526
-0.00322781
0.00174628
-0.00344067
0.000925554
-0.00344208
-0.000109523
-0.00312366
-0.00139776
-0.00254778
-0.0026212
-0.00184606
-0.00349538
-0.00113041
-0.00390078
-0.000480685
-0.00381899
6.57884e-05
-0.00331101
0.000526384
-0.0024711
0.000902485
-0.00152914
0.00111956
-0.000636483
0.00130374
0.000203837
0.0022575
0.000734536
0.0021677
0.000101746
0.00199492
-0.000355064
0.00190895
-0.00072218
0.00179815
-0.000825714
0.00166595
-0.000817498
0.00143499
-0.000682337
0.0017586
-0.000323765
0.00193627
-0.000177826
0.00206721
-0.000131086
0.002168
-0.000100946
0.00222823
-6.03839e-05
0.00222567
2.40234e-06
0.00213278
9.27371e-05
0.00191323
0.000219401
0.00150707
0.000406004
0.00126968
0.000743216
0.000902425
0.00112818
0.000384083
0.00148003
0.00238045
-0.000756067
0.00986109
-0.00132705
0.00445618
-0.00150962
0.00338184
-0.00168822
0.00263386
-0.00185321
0.00191127
-0.00196223
0.00103458
-0.00191377
-0.000157986
-0.00155674
-0.00175479
-0.00105572
-0.00312222
-0.000537806
-0.00401329
-7.33134e-05
-0.00436527
0.000305339
-0.00419764
0.000596508
-0.00360218
0.000849391
-0.00272399
0.00106873
-0.00174849
0.00127614
-0.00084389
0.00158681
-0.000106837
0.00203037
0.000290982
0.00206424
6.78741e-05
0.00199693
-0.000287752
0.00181243
-0.000537683
0.00162456
-0.00063784
0.00144747
-0.000640409
0.00131879
-0.000553658
0.00137755
-0.000382526
0.00146562
-0.000265891
0.00155009
-0.000215561
0.00163158
-0.000182437
0.00170172
-0.000130522
0.00174075
-3.66301e-05
0.00172469
0.000108802
0.00163842
0.000305664
0.00148619
0.00055824
0.0013301
0.0008993
0.00115113
0.00130716
0.000804092
0.00182706
0.00101982
0.00216473
-0.00109517
0.00213611
-0.00179343
0.000717875
-0.00172066
-0.000638709
0.0109406
-0.00101437
0.00483184
-0.00063343
0.0030009
-0.000448692
0.00244913
-0.000384075
0.00184665
-0.000303719
0.000954227
-5.19311e-05
-0.000409774
0.000334475
-0.0021412
0.000692158
-0.0034799
0.000952005
-0.00427314
0.00109503
-0.00450829
0.00114535
-0.00424797
0.00113925
-0.00359608
0.00111607
-0.0027008
0.0011006
-0.00173302
0.00113277
-0.000876059
0.00126984
-0.000243902
0.00148461
7.62094e-05
0.00153587
1.66118e-05
0.0014379
-0.000189778
0.00126352
-0.000363308
0.00108386
-0.000458177
0.000926562
-0.000483109
0.00082154
-0.000448636
0.000810744
-0.000371731
0.000860092
-0.000315238
0.000936262
-0.000291732
0.00102701
-0.000273186
0.00112584
-0.000229354
0.00122285
-0.000133635
0.00129576
3.58906e-05
0.00133282
0.000268604
0.00134812
0.00054294
0.00138214
0.00086528
0.00148259
0.0012067
0.00168608
0.00162358
0.00203682
0.00181399
0.00233694
0.00183598
0.00182999
0.00122483
0.000174759
-0.000763859
0.0121917
-0.00062148
0.00468946
0.000492279
0.00188714
0.000960633
0.00198077
0.00121799
0.00158929
0.0015995
0.000572724
0.00210278
-0.000913057
0.00243994
-0.00247836
0.00257374
-0.0036137
0.00250619
-0.00420559
0.00227297
-0.00427507
0.00193601
-0.00391101
0.00155908
-0.00321915
0.00120034
-0.00234206
0.000896618
-0.0014293
0.000705086
-0.000684527
0.000653496
-0.000192312
0.000704659
2.50463e-05
0.000712741
8.53062e-06
0.000636479
-0.000113517
0.000509155
-0.000235983
0.000368859
-0.000317881
0.00024296
-0.000357211
0.000156851
-0.000362526
0.00013389
-0.00034877
0.000162898
-0.000344245
0.000222528
-0.000351362
0.000302984
-0.000353642
0.000405272
-0.000331642
0.000534362
-0.000262725
0.000687268
-0.000117015
0.000845209
0.000110663
0.00100721
0.000380936
0.00120906
0.000663431
0.00148366
0.00093211
0.00188404
0.0012232
0.00241743
0.00128059
0.00318504
0.00106838
0.00336162
0.00104825
0.00360519
0.00273593
0.00999912
0.0033917
0.00403368
0.00344936
0.00182948
0.00353505
0.00189508
0.00374632
0.00137802
0.00422224
9.68112e-05
0.00469337
-0.0013842
0.0047884
-0.00257338
0.00451406
-0.00333937
0.00396091
-0.00365243
0.00322974
-0.0035439
0.00242475
-0.00310602
0.00162792
-0.00242232
0.000922022
-0.00163615
0.000347364
-0.000854643
-2.51511e-06
-0.000334648
-0.000140827
-5.4e-05
-0.000155254
3.94734e-05
-0.000163107
1.63828e-05
-0.000215236
-6.13874e-05
-0.000306055
-0.000145165
-0.000412281
-0.000211654
-0.0005116
-0.000257892
-0.00058587
-0.000288256
-0.000623868
-0.000310772
-0.000633081
-0.000335032
-0.000625257
-0.000359187
-0.000604694
-0.000374205
-0.000566414
-0.000369922
-0.000494195
-0.000334944
-0.000356731
-0.000254479
-0.000146598
-9.94704e-05
0.000104171
0.000130167
0.000388867
0.000378735
0.000707309
0.000613668
0.00108958
0.000840923
0.00150689
0.000863286
0.00189864
0.000676622
0.00120605
0.00174085
0.00509765
0.010598
0.0146275
0.0125614
0.00389561
0.0112292
0.00322726
0.0103408
0.0022665
0.00953392
0.000903645
0.00853149
-0.000381761
0.00735256
-0.00139445
0.00607927
-0.00206608
0.00476044
-0.0023336
0.00342924
-0.0022127
0.00216421
-0.00184099
0.00100939
-0.00126751
5.63604e-05
-0.000683125
-0.000566052
-0.00023223
-0.000859639
-4.10615e-05
-0.000956775
4.31357e-05
-0.000976433
5.91319e-05
-0.000991822
3.17721e-05
-0.00103526
-1.79539e-05
-0.00110784
-7.25843e-05
-0.00119687
-0.00012262
-0.00128868
-0.000166084
-0.0013743
-0.00020263
-0.0014515
-0.000233575
-0.00152704
-0.000259491
-0.0016102
-0.000276024
-0.00170952
-0.000274885
-0.00183466
-0.000244784
-0.00199852
-0.000171088
-0.00221651
-3.64819e-05
-0.00248302
0.00016703
-0.00280699
0.000454138
-0.00327095
0.000842704
-0.00398816
0.00133087
-0.0050297
0.00188247
-0.00651692
0.0023505
-0.00825536
0.00241507
-0.00777181
0.0012573
-0.00235715
0.00895045
0.00560354
0.00747188
0.00470582
0.00708001
0.00265837
0.00672918
0.00125448
0.00611919
0.000228227
0.00524677
-0.000522027
0.00417817
-0.000997489
0.00298278
-0.0011382
0.00169119
-0.000921117
0.000430336
-0.000580133
-0.000609534
-0.000227636
-0.00127074
-2.19152e-05
-0.00156322
6.02469e-05
-0.00167789
7.3611e-05
-0.00170786
7.31047e-05
-0.00171363
6.49024e-05
-0.00172866
4.67952e-05
-0.00176747
2.08578e-05
-0.00183139
-8.66176e-06
-0.00191294
-4.10726e-05
-0.00200444
-7.45799e-05
-0.00210375
-0.000103323
-0.0022122
-0.000125123
-0.00233323
-0.000138466
-0.00246896
-0.000140291
-0.00261827
-0.000125574
-0.00277574
-8.73187e-05
-0.00292901
-1.78154e-05
-0.00306256
9.70691e-05
-0.00317483
0.000279305
-0.00327578
0.00055508
-0.00337729
0.000944211
-0.00348611
0.00143969
-0.00356962
0.00196597
-0.00356799
0.00234888
-0.00331004
0.00215711
-0.00195005
-0.00010269
-0.00422387
-0.000826097
0.00648295
0.000742102
0.00313763
0.00140781
0.00199266
0.00164672
0.00101557
0.00158289
0.000292054
0.00121188
-0.000151012
0.000529654
-0.000315266
-0.000363771
-0.000244777
-0.00124109
-4.37984e-05
-0.00188639
6.5166e-05
-0.00222713
0.000113102
-0.00235809
0.000109045
-0.00238118
8.33419e-05
-0.00237095
6.33811e-05
-0.00234988
5.20364e-05
-0.00232932
4.43387e-05
-0.00231833
3.58068e-05
-0.00232221
2.47371e-05
-0.00234158
1.07104e-05
-0.00237542
-7.23088e-06
-0.00242401
-2.59901e-05
-0.00248537
-4.19706e-05
-0.00255738
-5.3106e-05
-0.00263754
-5.83059e-05
-0.00272179
-5.60486e-05
-0.00280353
-4.38327e-05
-0.0028733
-1.75462e-05
-0.00291855
2.74314e-05
-0.00291853
9.70507e-05
-0.00284797
0.000208743
-0.00267232
0.000379432
-0.00236026
0.000632151
-0.00190395
0.000983386
-0.00128938
0.0013514
-0.00029969
0.00135919
0.00114765
0.000709772
0.00164262
-0.000597658
-0.00248957
-0.0120486
-0.0155771
-0.00905365
-0.00588861
-0.00387368
-0.0028395
-0.00253242
-0.00267143
-0.00297676
-0.00321304
-0.00324917
-0.00317672
-0.00305648
-0.00294032
-0.00284986
-0.00277933
-0.00272012
-0.00266856
-0.00262548
-0.00259344
-0.00257541
-0.00257537
-0.00259417
-0.00262906
-0.00267521
-0.00272671
-0.00277611
-0.00281346
-0.00282473
-0.00279122
-0.00268831
-0.00247394
-0.00208913
-0.00145187
-0.000463677
0.000892149
0.00225548
0.0029693
0.00237583
)
;

boundaryField
{
    floor
    {
        type            calculated;
        value           nonuniform List<scalar> 
36
(
0
0
0
0
0
0
0
0
0
0
0
0
0
0
0
0
0
0
0
-4.83914e-06
-1.23781e-05
-1.85697e-05
-2.36404e-05
-2.11162e-05
-1.96191e-05
-1.84535e-05
-2.35097e-06
-3.78399e-06
-4.35946e-06
-5.04476e-06
-3.65657e-06
-7.64391e-06
-1.10004e-05
-1.12624e-05
-1.38364e-05
-1.19395e-05
)
;
    }
    ceiling
    {
        type            calculated;
        value           nonuniform List<scalar> 
43
(
-4.1844e-05
-4.11787e-05
-4.04782e-05
-2.74141e-05
-2.22701e-05
-1.86048e-05
-1.50289e-05
-1.20046e-05
-9.92942e-06
-8.50214e-06
-7.66632e-06
-7.28567e-06
-7.13794e-06
-7.11116e-06
-7.12496e-06
-7.14628e-06
-7.17747e-06
-7.22029e-06
-7.2666e-06
-7.30719e-06
-7.31479e-06
-7.2761e-06
-7.19261e-06
-7.08108e-06
-6.95225e-06
-6.80912e-06
-6.64849e-06
-6.4752e-06
-6.28369e-06
-6.07857e-06
-5.85894e-06
-5.62507e-06
-5.37645e-06
-5.1058e-06
-4.81119e-06
-4.4248e-06
-4.13948e-06
-4.04924e-06
-4.18129e-06
-3.60358e-06
6.94074e-06
4.17887e-06
-5.3314e-05
)
;
    }
    sWall
    {
        type            calculated;
        value           uniform -0.0002414;
    }
    nWall
    {
        type            calculated;
        value           nonuniform List<scalar> 6(-5.43171e-05 -6.54339e-05 -6.88139e-05 -8.33267e-05 -9.16858e-05 -0.00011014);
    }
    sideWalls
    {
        type            empty;
        value           nonuniform 0();
    }
    glass1
    {
        type            calculated;
        value           nonuniform List<scalar> 9(-6.04583e-05 -0.000163401 -0.000250424 -0.000324644 -0.000387723 -0.000440785 -0.00048727 -0.000543331 -0.000605862);
    }
    glass2
    {
        type            calculated;
        value           nonuniform List<scalar> 2(-0.000286411 -0.000317012);
    }
    sun
    {
        type            calculated;
        value           uniform 0;
    }
    Table_master
    {
        type            calculated;
        value           nonuniform List<scalar> 9(-1.5364e-07 -1.53789e-07 -1.53839e-07 -1.53869e-07 -1.53889e-07 -1.53902e-07 -1.53906e-07 -1.539e-07 -1.5387e-07);
    }
    Table_slave
    {
        type            calculated;
        value           nonuniform List<scalar> 9(1.5353e-07 1.53515e-07 1.53468e-07 1.53431e-07 1.53408e-07 1.53408e-07 1.53413e-07 1.53451e-07 1.53535e-07);
    }
    inlet
    {
        type            calculated;
        value           uniform -0.0106584;
    }
    outlet
    {
        type            calculated;
        value           nonuniform List<scalar> 2(0.0123318 0.00356969);
    }
}


// ************************************************************************* //
