/*--------------------------------*- C++ -*----------------------------------*\
  =========                 |
  \\      /  F ield         | OpenFOAM: The Open Source CFD Toolbox
   \\    /   O peration     | Website:  https://openfoam.org
    \\  /    A nd           | Version:  6
     \\/     M anipulation  |
\*---------------------------------------------------------------------------*/
FoamFile
{
    version     2.0;
    format      ascii;
    class       volScalarField;
    location    "1020";
    object      nut;
}
// * * * * * * * * * * * * * * * * * * * * * * * * * * * * * * * * * * * * * //

dimensions      [0 2 -1 0 0 0 0];

internalField   nonuniform List<scalar> 
458
(
0.00106946
0.00116391
0.00119022
0.00124716
0.00129961
0.00134927
0.00139895
0.00144939
0.00149062
0.00151651
0.00151941
0.0014918
0.0014242
0.00128112
0.000972011
0.000480404
0.000563164
0.000638484
0.000665751
0.000655338
0.000613259
0.000566705
0.000525051
0.00048897
0.000457632
0.000430266
0.000406321
0.000385088
0.000365749
0.000347407
0.000328988
0.000318041
0.000292297
0.00144201
0.00324164
0.00298996
0.00342593
0.00386065
0.00430783
0.0047091
0.00501941
0.00533809
0.00563632
0.00587548
0.00602069
0.00603412
0.00582401
0.00473318
0.00128306
0.00106448
0.0008685
0.000476538
0.00113087
0.0016481
0.00204855
0.00217521
0.0015853
0.00133831
0.00117024
0.00104621
0.000951177
0.000875777
0.000810745
0.000749649
0.000688663
0.00063419
0.000588518
0.000719988
0.00038423
0.00175327
0.00435726
0.00359579
0.00438429
0.00471587
0.00494875
0.00512772
0.00529286
0.00552258
0.00580169
0.00610668
0.00640567
0.00664187
0.0067245
0.00633613
0.00516397
0.00391357
0.00102581
0.00073393
0.00126646
0.00184284
0.00241621
0.00258005
0.000824286
0.000721644
0.000636246
0.000567077
0.000511256
0.000466021
0.00042925
0.000399513
0.000376383
0.000417085
0.000483043
0.000844796
0.000454073
0.00205319
0.00556615
0.00349819
0.00454252
0.00472427
0.00470652
0.00468999
0.00476921
0.00495601
0.00523202
0.00558281
0.00597435
0.00631748
0.00653329
0.00648451
0.00614904
0.0052774
0.00289742
0.00118179
0.00150467
0.00206855
0.00275919
0.00335807
0.00338776
0.000928565
0.000851179
0.00079847
0.000759567
0.000726666
0.000693956
0.0006629
0.000630083
0.000591723
0.000557311
0.000549169
0.00100694
0.000522992
0.00235973
0.00719279
0.00366966
0.00431241
0.00457208
0.00441776
0.00429213
0.00436417
0.00456139
0.00484849
0.00522656
0.00565588
0.00599218
0.00615985
0.00615587
0.00603843
0.00569042
0.00470557
0.00426491
0.00429588
0.00454638
0.0048449
0.00502829
0.00494608
0.00422018
0.00384697
0.00364132
0.00349404
0.00334492
0.00315296
0.00282612
0.00240524
0.00192652
0.00146539
0.00109906
0.00102395
0.000888909
0.000699197
0.000740172
0.000804523
0.00268787
0.00902569
0.00502641
0.00399307
0.00435205
0.00434345
0.00418315
0.00424344
0.00444447
0.00473148
0.0051149
0.00552633
0.00583772
0.00593774
0.00584398
0.00570939
0.00564874
0.00556763
0.00573526
0.00602606
0.00623031
0.00626715
0.00613049
0.0058438
0.00544307
0.00511743
0.00486383
0.00464036
0.00442078
0.00418765
0.00388643
0.00347346
0.00295116
0.00236044
0.00181374
0.00131515
0.00108089
0.000942921
0.00118741
0.000834448
0.00301086
0.010411
0.00750142
0.00490918
0.00427184
0.0043334
0.004389
0.00442074
0.00453409
0.00478681
0.00516396
0.00557174
0.00585738
0.00589002
0.00571182
0.00558288
0.00579745
0.0062727
0.00675665
0.00703
0.00703115
0.00679769
0.00640191
0.00591989
0.00543956
0.00505289
0.00476005
0.00452246
0.0043146
0.00412787
0.00395798
0.00373576
0.00337058
0.00288264
0.00237591
0.00188913
0.00157146
0.00143961
0.00137225
0.00099138
0.00309061
0.00966255
0.00820302
0.00688373
0.00587565
0.00542959
0.00501078
0.00472543
0.00471891
0.00495951
0.00534964
0.00575285
0.00599384
0.00594029
0.00572219
0.00577833
0.00639105
0.00689369
0.00715566
0.00714405
0.00686066
0.00637015
0.0057664
0.00515729
0.00465091
0.00429592
0.00405643
0.00388438
0.003757
0.00367109
0.00363286
0.00363449
0.00353708
0.00324695
0.00296422
0.0028066
0.00287499
0.00303497
0.0036054
0.0015358
0.00302993
0.00365333
0.00403426
0.00424619
0.00427556
0.00421058
0.00421082
0.00438519
0.00474103
0.00519589
0.00566266
0.00603173
0.00615211
0.00594312
0.00588587
0.00619749
0.00655689
0.00668013
0.00659119
0.00627966
0.00575733
0.00511209
0.00446773
0.00393876
0.00357266
0.00333945
0.00318299
0.00306406
0.00296264
0.0028674
0.00276978
0.00266263
0.00256544
0.00248134
0.00242568
0.00239441
0.00233494
0.00221226
0.00206303
0.00143465
0.00133526
0.00234672
0.00322188
0.0039066
0.0045319
0.00514123
0.00562574
0.00595281
0.00616773
0.00620123
0.00600248
0.0057578
0.0057604
0.0058639
0.00578514
0.00555245
0.00518536
0.00469104
0.00412243
0.00356672
0.00312426
0.00282618
0.00264337
0.00253116
0.00245664
0.00240228
0.00236063
0.0023299
0.00231263
0.00231801
0.00233156
0.00234368
0.0023444
0.00230744
0.00219319
0.00199178
0.00174214
0.00115434
0.00201495
0.00395754
0.00507575
0.00580118
0.00636595
0.00641574
0.00608773
0.00575789
0.00547383
0.00492892
0.0045414
0.00445205
0.00439123
0.00421963
0.0039608
0.0036398
0.00326346
0.00286741
0.00251024
0.00223244
0.00204078
0.00193025
0.00187842
0.00186719
0.00188543
0.001926
0.00198281
0.00204853
0.00212547
0.00221379
0.00230832
0.00240116
0.00247674
0.00251453
0.00247947
0.00244895
0.00225473
0.00116934
0.00211917
0.00217152
0.00221906
0.00246886
0.00233359
0.00206793
0.00174461
0.00148461
0.00132524
0.00117377
0.00104034
0.000935833
0.000847307
0.000780207
0.000733574
0.000699504
0.000672105
0.000648532
0.000629068
0.000615934
0.000611033
0.000614712
0.000625629
0.000641677
0.000661954
0.000685982
0.000713625
0.000745047
0.000780769
0.000821901
0.000868706
0.000920834
0.000978553
0.00104214
0.00111162
0.0011949
0.00123135
0.00120613
0.00112186
0.00103758
)
;

boundaryField
{
    floor
    {
        type            nutkWallFunction;
        Cmu             0.09;
        kappa           0.41;
        E               9.8;
        value           nonuniform List<scalar> 
36
(
0.00011742
5.72057e-05
6.77283e-05
7.71401e-05
8.05135e-05
7.92272e-05
7.40039e-05
6.8174e-05
6.29079e-05
5.83046e-05
5.4272e-05
5.07222e-05
4.75928e-05
4.4798e-05
4.22354e-05
3.97886e-05
3.73148e-05
3.58359e-05
3.23309e-05
3.23309e-05
4.4684e-05
5.38111e-05
6.26455e-05
8.46279e-05
8.96379e-05
9.74409e-05
0.00011742
0.00015353
0.000128276
0.000105125
5.72056e-05
0.000105125
5.67087e-05
0.00012375
8.88773e-05
0.000141896
)
;
    }
    ceiling
    {
        type            nutkWallFunction;
        Cmu             0.09;
        kappa           0.41;
        E               9.8;
        value           nonuniform List<scalar> 
43
(
0.000246191
0.000251845
0.000256968
0.000283771
0.000269364
0.00024075
0.000205367
0.000176387
0.000158346
0.000140973
0.000125455
0.000113142
0.000102587
9.45014e-05
8.88337e-05
8.46659e-05
8.12966e-05
7.83845e-05
7.59705e-05
7.43365e-05
7.37258e-05
7.41843e-05
7.55431e-05
7.75353e-05
8.00441e-05
8.3005e-05
8.63961e-05
9.02319e-05
9.45694e-05
9.95351e-05
0.00010515
0.000111363
0.000118195
0.000125667
0.000133774
0.000143414
0.00014761
0.00014471
0.000134964
0.000125134
0.000343196
0.000407602
0.000234814
)
;
    }
    sWall
    {
        type            nutkWallFunction;
        Cmu             0.09;
        kappa           0.41;
        E               9.8;
        value           uniform 0.000246258;
    }
    nWall
    {
        type            nutkWallFunction;
        Cmu             0.09;
        kappa           0.41;
        E               9.8;
        value           nonuniform List<scalar> 6(9.74414e-05 0.000101045 0.000119711 0.00013874 0.000140475 0.000125142);
    }
    sideWalls
    {
        type            empty;
    }
    glass1
    {
        type            nutkWallFunction;
        Cmu             0.09;
        kappa           0.41;
        E               9.8;
        value           nonuniform List<scalar> 9(0.000128965 0.000171813 0.000206649 0.000239577 0.000272699 0.000307653 0.000341624 0.000349962 0.000343644);
    }
    glass2
    {
        type            nutkWallFunction;
        Cmu             0.09;
        kappa           0.41;
        E               9.8;
        value           nonuniform List<scalar> 2(0.000182234 0.000170844);
    }
    sun
    {
        type            nutkWallFunction;
        Cmu             0.09;
        kappa           0.41;
        E               9.8;
        value           nonuniform List<scalar> 
14
(
0.000128861
0.000139831
0.000142868
0.000149418
0.000155422
0.000161081
0.000166719
0.00017242
0.000177064
0.000179974
0.0001803
0.000177198
0.000169576
0.000153307
)
;
    }
    Table_master
    {
        type            nutkWallFunction;
        Cmu             0.09;
        kappa           0.41;
        E               9.8;
        value           nonuniform List<scalar> 9(9.98211e-05 8.73782e-05 7.68651e-05 6.82252e-05 6.11589e-05 5.53626e-05 5.05993e-05 4.67095e-05 4.36586e-05);
    }
    Table_slave
    {
        type            nutkWallFunction;
        Cmu             0.09;
        kappa           0.41;
        E               9.8;
        value           nonuniform List<scalar> 9(0.000112278 0.00010305 9.67097e-05 9.19982e-05 8.79915e-05 8.39864e-05 8.01629e-05 7.60993e-05 7.13165e-05);
    }
    inlet
    {
        type            calculated;
        value           uniform 0.000167705;
    }
    outlet
    {
        type            calculated;
        value           nonuniform List<scalar> 2(0.00211917 0.00217152);
    }
}


// ************************************************************************* //
