/*--------------------------------*- C++ -*----------------------------------*\
  =========                 |
  \\      /  F ield         | OpenFOAM: The Open Source CFD Toolbox
   \\    /   O peration     | Website:  https://openfoam.org
    \\  /    A nd           | Version:  6
     \\/     M anipulation  |
\*---------------------------------------------------------------------------*/
FoamFile
{
    version     2.0;
    format      ascii;
    class       surfaceScalarField;
    location    "1660";
    object      phi;
}
// * * * * * * * * * * * * * * * * * * * * * * * * * * * * * * * * * * * * * //

dimensions      [1 0 -1 0 0 0 0];

internalField   nonuniform List<scalar> 
850
(
-0.00305311
0.00311357
-0.00414581
0.0010927
-0.00501492
0.000869106
-0.00570378
0.000688868
-0.00617588
0.000472096
-0.00639715
0.000221267
-0.00632796
-6.91847e-05
-0.00592418
-0.000403786
-0.00517398
-0.000750201
-0.00412887
-0.00104511
-0.00290062
-0.00122825
-0.00164186
-0.00125876
-0.00053936
-0.0011025
0.000135708
-0.000675068
0.000138059
-0.000922201
0.000925857
-0.000689491
-0.000232709
-5.98578e-05
-0.000629633
0.00054373
-0.000603588
0.00100293
-0.000459197
0.00125945
-0.000256528
0.00136753
-0.000108075
0.00142032
-5.27853e-05
0.00145064
-3.03283e-05
0.00146568
-1.50347e-05
0.00146926
-3.57757e-06
0.00146223
7.02861e-06
0.00143893
2.32961e-05
0.00138034
5.8588e-05
0.00125432
0.000126028
0.00105056
0.000203755
0.000793651
0.000256909
0.00079849
-0.00220747
0.00548444
-0.00329512
0.00218035
-0.00420834
0.00178232
-0.00490611
0.00138664
-0.00538763
0.000953613
-0.00563058
0.000464219
-0.00559457
-0.000105193
-0.0052404
-0.000757956
-0.00456693
-0.00142367
-0.00364293
-0.00196911
-0.00258828
-0.00228289
-0.00154177
-0.00230527
-0.000628947
-0.00201533
9.26415e-05
-0.00139666
0.000872415
-0.000641714
0.00114837
-0.000272167
0.000956711
0.000196014
0.000969399
4.20568e-05
0.000894801
0.000422394
-0.000613047
0.000787108
-0.000994347
0.00110012
-0.000916596
0.00135106
-0.000710138
0.00140755
-0.000313021
0.00141568
-0.000116205
0.00142639
-6.34984e-05
0.00143537
-3.9309e-05
0.00144063
-2.02961e-05
0.0014428
-5.74131e-06
0.0014424
7.42949e-06
0.00143691
2.87841e-05
0.00140043
9.50678e-05
0.00124748
0.00027898
0.000978893
0.000472341
0.000644774
0.000591028
0.00145564
-0.00156234
0.0072972
-0.00251036
0.00312838
-0.003343
0.00261496
-0.00396556
0.0020092
-0.00441313
0.00140119
-0.00466166
0.000712747
-0.00465601
-0.000110843
-0.00433473
-0.00107923
-0.00371322
-0.00204519
-0.00288883
-0.0027935
-0.00198675
-0.00318497
-0.00112284
-0.00316918
-0.000373658
-0.00276451
0.000240275
-0.00201059
0.000751711
-0.00115315
0.000899045
-0.000419501
0.000707207
0.000387852
0.00168787
0.00143703
-0.000528391
0.00163243
-0.000808444
0.0015748
-0.000936719
0.00160813
-0.000949923
0.00181161
-0.000913618
0.00149874
0.00138269
0.00131934
0.00128019
0.00126004
0.00125446
0.00126204
0.00129098
0.0013862
0.00115914
0.00050604
0.000870203
0.000761278
0.000499005
0.000962225
0.00197322
-0.00109549
0.00871734
-0.00185228
0.00388517
-0.00243659
0.00319927
-0.00288266
0.00245527
-0.00322778
0.00174631
-0.00344064
0.000925606
-0.00344205
-0.000109433
-0.00312363
-0.00139765
-0.00254777
-0.00262104
-0.00184608
-0.0034952
-0.00113045
-0.0039006
-0.000480759
-0.00381887
6.56825e-05
-0.00331095
0.000526193
-0.0024711
0.000902178
-0.00152914
0.00111913
-0.000636456
0.00130316
0.000203821
0.0022566
0.00073443
0.00216687
0.00010167
0.00199377
-0.000355289
0.00190776
-0.000722433
0.00179697
-0.000825934
0.00166477
-0.000817725
0.00143372
-0.000682561
0.00175745
-0.000323883
0.00193523
-0.00017794
0.00206631
-0.000131232
0.00216726
-0.000101104
0.00222765
-6.05451e-05
0.00222524
2.26266e-06
0.00213244
9.26467e-05
0.00191293
0.000219355
0.00150678
0.000405997
0.0012695
0.000743318
0.000902349
0.00112843
0.000384171
0.0014804
0.00238103
-0.000756054
0.00986112
-0.00132705
0.00445617
-0.00150961
0.00338182
-0.00168819
0.00263385
-0.00185314
0.00191126
-0.00196215
0.00103461
-0.00191368
-0.000157901
-0.00155661
-0.00175472
-0.00105559
-0.00312206
-0.000537699
-0.00401309
-7.32253e-05
-0.00436507
0.000305406
-0.0041975
0.000596539
-0.00360209
0.000849336
-0.0027239
0.00106854
-0.00174834
0.00127574
-0.000843659
0.00158616
-0.000106598
0.00202943
0.000291157
0.00206313
6.79768e-05
0.00199562
-0.00028778
0.001811
-0.000537815
0.00162308
-0.000638019
0.00144598
-0.000640622
0.00131731
-0.000553893
0.00137619
-0.000382758
0.00146442
-0.000266167
0.00154907
-0.000215889
0.00163075
-0.000182781
0.00170106
-0.000130854
0.00174024
-3.69182e-05
0.00172429
0.000108597
0.00163809
0.000305557
0.00148587
0.000558217
0.00132981
0.000899372
0.00115089
0.00130735
0.000803948
0.00182735
0.00101978
0.0021652
-0.00109538
0.00213627
-0.00179357
0.000717808
-0.00172079
-0.000638756
0.0109407
-0.0010144
0.00483181
-0.000633428
0.00300085
-0.000448656
0.00244908
-0.000383992
0.0018466
-0.000303585
0.000954201
-5.17397e-05
-0.000409746
0.000334705
-0.00214116
0.000692406
-0.00347976
0.000952253
-0.00427294
0.00109527
-0.00450809
0.00114558
-0.00424782
0.00113946
-0.00359596
0.0011162
-0.00270064
0.00110058
-0.00173272
0.00113249
-0.000875569
0.00126924
-0.000243346
0.00148368
7.67168e-05
0.0015347
1.69475e-05
0.00143658
-0.000189654
0.00126211
-0.000363342
0.0010824
-0.000458318
0.000925104
-0.000483322
0.000820127
-0.000448916
0.000809452
-0.000372084
0.000858967
-0.000315681
0.000935314
-0.000292237
0.00102623
-0.000273698
0.00112521
-0.000229838
0.00122236
-0.00013406
0.00129537
3.558e-05
0.00133248
0.000268451
0.00134779
0.000542909
0.00138181
0.00086535
0.0014823
0.00120686
0.00168584
0.00162381
0.00203672
0.00181432
0.0023369
0.00183609
0.00182992
0.00122478
0.000174561
-0.000763867
0.0121918
-0.000621489
0.00468944
0.000492282
0.00188708
0.000960671
0.00198069
0.00121809
0.00158918
0.00159968
0.000572616
0.00210305
-0.000913122
0.00244025
-0.00247836
0.00257409
-0.0036136
0.00250656
-0.0042054
0.00227334
-0.00427487
0.00193638
-0.00391087
0.00155945
-0.00321903
0.00120065
-0.00234184
0.000896752
-0.00142881
0.000704898
-0.000683715
0.000652947
-0.000191395
0.000703783
2.58812e-05
0.000711671
9.05856e-06
0.000635323
-0.000113305
0.000507946
-0.000235965
0.000367632
-0.000318003
0.000241743
-0.000357433
0.000155687
-0.00036286
0.000132842
-0.000349239
0.000161989
-0.000344828
0.000221755
-0.000352003
0.000302322
-0.000354265
0.000404688
-0.000332203
0.000533826
-0.000263199
0.000686803
-0.000117397
0.000844816
0.000110439
0.00100685
0.000380877
0.0012087
0.000663496
0.00148334
0.000932227
0.00188379
0.00122336
0.00241733
0.00128077
0.00318505
0.00106838
0.00336172
0.00104812
0.00360509
0.00273594
0.00999921
0.00339169
0.00403368
0.00344936
0.00182941
0.0035351
0.00189494
0.00374646
0.00137782
0.00422249
9.6592e-05
0.00469372
-0.00138436
0.0047888
-0.00257343
0.00451449
-0.0033393
0.00396135
-0.00365226
0.00323019
-0.00354371
0.00242522
-0.0031059
0.0016284
-0.00242221
0.00092245
-0.00163589
0.000347532
-0.000853897
-2.71626e-06
-0.000333466
-0.00014132
-5.27908e-05
-0.000155951
4.05114e-05
-0.000163896
1.70036e-05
-0.000216044
-6.11564e-05
-0.00030688
-0.00014513
-0.000413099
-0.000211784
-0.000512394
-0.000258137
-0.000586616
-0.000288639
-0.000624532
-0.000311323
-0.000633673
-0.000335687
-0.000625781
-0.000359894
-0.000605182
-0.000374865
-0.000566892
-0.000370493
-0.000494679
-0.000335412
-0.000357241
-0.000254836
-0.000147071
-9.97311e-05
0.000103772
0.000130033
0.00038852
0.000378748
0.000707015
0.000613732
0.00108938
0.000840998
0.00150681
0.00086334
0.00189861
0.000676575
0.00120598
0.00174074
0.00509748
0.0105981
0.0146276
0.0125615
0.00389551
0.0112295
0.00322702
0.0103411
0.00226618
0.00953434
0.000903357
0.00853194
-0.000381959
0.00735304
-0.00139453
0.00607975
-0.00206601
0.00476088
-0.00233339
0.00342966
-0.00221248
0.00216464
-0.00184088
0.00100982
-0.00126739
5.66268e-05
-0.000682697
-0.000566113
-0.000231157
-0.000859949
-3.96298e-05
-0.000957127
4.4387e-05
-0.000976685
6.00695e-05
-0.000992
3.23179e-05
-0.00103542
-1.77337e-05
-0.00110804
-7.25117e-05
-0.00119706
-0.000122761
-0.00128885
-0.000166346
-0.00137445
-0.000203041
-0.00145159
-0.000234183
-0.00152712
-0.000260159
-0.00161028
-0.000276737
-0.00170963
-0.000275513
-0.00183481
-0.000245311
-0.0019987
-0.000171521
-0.00221671
-3.68268e-05
-0.00248323
0.000166791
-0.0028072
0.000453999
-0.0032711
0.000842649
-0.00398825
0.00133088
-0.00502976
0.00188251
-0.00651696
0.00235054
-0.00825544
0.00241505
-0.00777185
0.00125716
-0.00235736
0.00895054
0.00560337
0.007472
0.00470555
0.00708014
0.00265804
0.00672934
0.00125416
0.00611937
0.000228006
0.00524696
-0.000522117
0.00417834
-0.000997385
0.00298285
-0.00113791
0.00169127
-0.0009209
0.000430429
-0.000580037
-0.000609548
-0.000227416
-0.00127098
-2.12663e-05
-0.00156347
6.133e-05
-0.00167787
7.47772e-05
-0.00170757
7.40876e-05
-0.00171311
6.56082e-05
-0.001728
4.72017e-05
-0.00176682
2.10902e-05
-0.00183082
-8.51225e-06
-0.00191237
-4.12076e-05
-0.0020038
-7.49185e-05
-0.002103
-0.000103844
-0.00221139
-0.000125791
-0.00233244
-0.000139109
-0.0024683
-0.000140876
-0.00261777
-0.000126045
-0.00277539
-8.7693e-05
-0.0029288
-1.81052e-05
-0.00306246
9.68369e-05
-0.0031748
0.00027913
-0.00327576
0.000554956
-0.00337726
0.000944144
-0.00348605
0.00143968
-0.00356952
0.00196598
-0.00356784
0.00234886
-0.00330979
0.002157
-0.00194984
-0.000102797
-0.00422387
-0.000826079
0.00648277
0.000742031
0.00313744
0.00140763
0.00199244
0.00164644
0.00101535
0.00158254
0.000291902
0.0012115
-0.000151068
0.000529257
-0.000315146
-0.000364111
-0.000244538
-0.0012413
-4.37148e-05
-0.00188653
6.51938e-05
-0.00222721
0.000113265
-0.00235797
0.000109493
-0.00238065
8.40156e-05
-0.00237005
6.41692e-05
-0.00234867
5.27112e-05
-0.00232787
4.48122e-05
-0.00231682
3.61499e-05
-0.00232083
2.51012e-05
-0.00234029
1.09478e-05
-0.00237411
-7.38616e-06
-0.00242261
-2.64222e-05
-0.00248388
-4.2577e-05
-0.00255596
-5.37101e-05
-0.0026363
-5.87627e-05
-0.0027208
-5.63782e-05
-0.00280277
-4.40769e-05
-0.00287273
-1.77346e-05
-0.00291813
2.7293e-05
-0.00291824
9.69449e-05
-0.00284776
0.000208654
-0.00267217
0.000379366
-0.00236014
0.000632113
-0.00190384
0.000983377
-0.00128926
0.0013514
-0.000299563
0.00135916
0.0011477
0.000709737
0.00164258
-0.00059768
-0.0024896
-0.0120484
-0.015577
-0.00905372
-0.00588887
-0.00387416
-0.00284021
-0.00253328
-0.00267235
-0.00297757
-0.00321361
-0.00324966
-0.00317718
-0.00305677
-0.00294017
-0.00284903
-0.00277772
-0.00271784
-0.00266582
-0.00262241
-0.00259002
-0.00257179
-0.00257192
-0.00259117
-0.00262668
-0.00267343
-0.00272539
-0.00277512
-0.00281272
-0.00282417
-0.0027908
-0.00268799
-0.00247371
-0.00208897
-0.00145175
-0.000463562
0.000892267
0.00225557
0.00296936
0.00237586
)
;

boundaryField
{
    floor
    {
        type            calculated;
        value           nonuniform List<scalar> 
36
(
0
0
0
0
0
0
0
0
0
0
0
0
0
0
0
0
0
0
0
-4.83914e-06
-1.23785e-05
-1.85698e-05
-2.36401e-05
-2.11164e-05
-1.96192e-05
-1.84535e-05
-2.35095e-06
-3.78392e-06
-4.35935e-06
-5.04465e-06
-3.6566e-06
-7.64374e-06
-1.10003e-05
-1.12616e-05
-1.38372e-05
-1.19388e-05
)
;
    }
    ceiling
    {
        type            calculated;
        value           nonuniform List<scalar> 
43
(
-4.18414e-05
-4.11763e-05
-4.04765e-05
-2.74117e-05
-2.22667e-05
-1.86017e-05
-1.50272e-05
-1.20025e-05
-9.92697e-06
-8.49992e-06
-7.66521e-06
-7.28599e-06
-7.13844e-06
-7.1109e-06
-7.12228e-06
-7.13992e-06
-7.16679e-06
-7.20857e-06
-7.25871e-06
-7.2902e-06
-7.28818e-06
-7.25081e-06
-7.17282e-06
-7.07151e-06
-6.95218e-06
-6.80963e-06
-6.64888e-06
-6.47544e-06
-6.28408e-06
-6.07905e-06
-5.85936e-06
-5.62547e-06
-5.37669e-06
-5.10611e-06
-4.81156e-06
-4.42499e-06
-4.13959e-06
-4.04935e-06
-4.18153e-06
-3.60387e-06
6.94078e-06
4.17897e-06
-5.33152e-05
)
;
    }
    sWall
    {
        type            calculated;
        value           uniform -0.000241394;
    }
    nWall
    {
        type            calculated;
        value           nonuniform List<scalar> 6(-5.43172e-05 -6.54339e-05 -6.88134e-05 -8.33262e-05 -9.16832e-05 -0.000110142);
    }
    sideWalls
    {
        type            empty;
        value           nonuniform 0();
    }
    glass1
    {
        type            calculated;
        value           nonuniform List<scalar> 9(-6.04581e-05 -0.000163403 -0.000250424 -0.000324651 -0.000387723 -0.000440785 -0.000487285 -0.000543339 -0.000605862);
    }
    glass2
    {
        type            calculated;
        value           nonuniform List<scalar> 2(-0.00028641 -0.00031701);
    }
    sun
    {
        type            calculated;
        value           uniform 0;
    }
    Table_master
    {
        type            calculated;
        value           nonuniform List<scalar> 9(-1.5364e-07 -1.53789e-07 -1.53839e-07 -1.53869e-07 -1.53889e-07 -1.53902e-07 -1.53906e-07 -1.539e-07 -1.5387e-07);
    }
    Table_slave
    {
        type            calculated;
        value           nonuniform List<scalar> 9(1.5353e-07 1.53516e-07 1.53468e-07 1.53431e-07 1.53408e-07 1.53409e-07 1.53414e-07 1.53451e-07 1.53535e-07);
    }
    inlet
    {
        type            calculated;
        value           uniform -0.0106584;
    }
    outlet
    {
        type            calculated;
        value           nonuniform List<scalar> 2(0.0123317 0.00356971);
    }
}


// ************************************************************************* //
