/*--------------------------------*- C++ -*----------------------------------*\
  =========                 |
  \\      /  F ield         | OpenFOAM: The Open Source CFD Toolbox
   \\    /   O peration     | Website:  https://openfoam.org
    \\  /    A nd           | Version:  6
     \\/     M anipulation  |
\*---------------------------------------------------------------------------*/
FoamFile
{
    version     2.0;
    format      ascii;
    class       volScalarField;
    location    "47900.0000007713898";
    object      alphat;
}
// * * * * * * * * * * * * * * * * * * * * * * * * * * * * * * * * * * * * * //

dimensions      [1 -1 -1 0 0 0 0];

internalField   nonuniform List<scalar> 
778
(
0.00104101
0.00111055
0.00110653
0.00115454
0.00119853
0.00123849
0.0012757
0.00131158
0.00134771
0.00138612
0.00142278
0.00145762
0.00149197
0.0015289
0.00156743
0.000736786
0.00105577
0.00106439
0.00103867
0.000995582
0.000937936
0.000880481
0.000827585
0.000779931
0.000737222
0.000699166
0.00066498
0.000633832
0.000604753
0.000576451
0.000546857
0.000522259
0.000472684
0.00152469
0.00300733
0.00263934
0.00304642
0.00334172
0.00365473
0.00396694
0.00425467
0.00448634
0.00462134
0.00470083
0.00466852
0.00443615
0.00385976
0.00281921
0.00171642
0.00163652
0.00156652
0.00131864
0.00224653
0.00311445
0.00362738
0.0036516
0.00288122
0.00246418
0.00217507
0.00195552
0.00178085
0.00163195
0.00150039
0.00137798
0.00125822
0.00115075
0.00105808
0.00119135
0.000599329
0.00193419
0.00419884
0.00311335
0.00445337
0.00497598
0.00541805
0.00581945
0.00617269
0.00647203
0.00670694
0.00693468
0.00717469
0.00739574
0.00752807
0.00744264
0.00681575
0.00498531
0.00192161
0.00166346
0.00355802
0.00496623
0.00563354
0.00512462
0.00135234
0.00117602
0.00103992
0.000933369
0.000848557
0.000780095
0.000724265
0.000678869
0.000643481
0.000707324
0.000831923
0.00131645
0.00068185
0.00232916
0.0056585
0.002979
0.00500689
0.00578061
0.00619426
0.00649821
0.00672293
0.00689061
0.0070267
0.00722042
0.00754819
0.00802689
0.00862922
0.00923506
0.00953448
0.00895458
0.00668166
0.00191363
0.00442989
0.00658993
0.00768877
0.00796147
0.0067985
0.00153939
0.00140033
0.00129269
0.00120312
0.00112675
0.00105815
0.000993475
0.00092925
0.000859913
0.000803256
0.000832312
0.00142425
0.000750902
0.00271845
0.00749059
0.00300554
0.0047592
0.00594883
0.00630146
0.00642911
0.00643355
0.00636921
0.00631236
0.00639334
0.00671164
0.00729622
0.00812442
0.00908501
0.00997002
0.0105315
0.0105254
0.00944609
0.00961018
0.00982977
0.00986096
0.00966156
0.00904481
0.00719939
0.00621975
0.0055486
0.00500353
0.0044685
0.00395003
0.00344271
0.00293599
0.00241538
0.00185552
0.00141629
0.00141309
0.00111849
0.000894959
0.00117167
0.00112859
0.0031014
0.00954074
0.00353842
0.00401298
0.00569929
0.00609064
0.0060589
0.00584035
0.00552821
0.00527078
0.00526494
0.00559832
0.00626436
0.00722469
0.0083485
0.0094709
0.0104256
0.011035
0.0111456
0.0110329
0.0108364
0.0105586
0.0102023
0.0097493
0.00908791
0.00845046
0.00787151
0.00731203
0.0067076
0.00606192
0.00537212
0.00463233
0.00383785
0.00299509
0.00223306
0.00167689
0.00130202
0.00145128
0.00250901
0.00135225
0.00349216
0.0114359
0.00471516
0.00328763
0.0051205
0.00576081
0.00568947
0.00533626
0.0048241
0.00437349
0.00436016
0.0047808
0.00554311
0.00661681
0.00783826
0.00904687
0.0100862
0.0108298
0.0111712
0.0111437
0.0108979
0.0105266
0.0101021
0.00967903
0.00927004
0.00889467
0.00854201
0.00816581
0.00771128
0.00716406
0.00651603
0.00576402
0.00491085
0.00397873
0.00306912
0.00222273
0.00163797
0.00145646
0.00254566
0.00158947
0.0038279
0.0128686
0.00642781
0.00313086
0.00405566
0.0051063
0.00525297
0.00496299
0.00435732
0.00374503
0.00388332
0.00443956
0.00529216
0.0063988
0.0076679
0.00893334
0.0100117
0.01076
0.011099
0.0110534
0.010736
0.0102687
0.00976656
0.00932155
0.00897869
0.00873375
0.00854275
0.00833537
0.00804678
0.00764284
0.0071076
0.00643765
0.00563927
0.00473692
0.0038013
0.002862
0.00201485
0.00133894
0.00358979
0.00206172
0.00392909
0.0121736
0.00795069
0.00404812
0.00275015
0.0033683
0.00394188
0.00399085
0.00352353
0.00342471
0.00378027
0.00443456
0.00535662
0.00653038
0.00786064
0.00916512
0.0102396
0.01093
0.0111716
0.0110035
0.0105438
0.00994121
0.00934351
0.00886687
0.00856449
0.00841602
0.00834855
0.00826866
0.00810249
0.00781059
0.00737723
0.00680043
0.00608744
0.0052588
0.00435326
0.00334252
0.00199589
0.00164897
0.00533275
0.0023671
0.00384958
0.00981065
0.00820769
0.00555437
0.00366981
0.00284148
0.00269036
0.00281626
0.00305296
0.00342956
0.00396407
0.0047007
0.00570373
0.00696924
0.00837165
0.00969416
0.0107121
0.0112718
0.0113294
0.0109521
0.0102883
0.00952417
0.00884191
0.00837472
0.00816091
0.0081358
0.00818156
0.00818021
0.00807186
0.00783469
0.00746118
0.00695031
0.00630641
0.00553715
0.00460844
0.00318749
0.00150878
0.00308482
0.00528607
0.0023955
0.00360583
0.00838313
0.00793334
0.00635365
0.00489186
0.00393924
0.00346775
0.00336092
0.00355589
0.00391499
0.00443768
0.00521561
0.00632336
0.00771033
0.00918312
0.0104764
0.0113527
0.0116779
0.011448
0.0107776
0.00986618
0.00895267
0.00825833
0.0079106
0.00787098
0.00798444
0.00809801
0.00809962
0.00798463
0.00775422
0.0074034
0.0069257
0.00631688
0.00556086
0.00448901
0.00251749
0.00178359
0.00362073
0.0048786
0.00235404
0.00328297
0.00755741
0.00765095
0.00672334
0.00572147
0.00496677
0.00452232
0.00436373
0.00440367
0.00462094
0.00510191
0.00597175
0.00725222
0.00878695
0.0102887
0.0114498
0.0120464
0.0119956
0.0113614
0.0103291
0.00917524
0.00821087
0.00766694
0.00755838
0.00765344
0.00780124
0.00789849
0.00787049
0.00773731
0.00750517
0.00716449
0.00669715
0.00608481
0.00529938
0.00407515
0.00199348
0.00208261
0.00382136
0.00478902
0.00228502
0.00299327
0.00675808
0.00730325
0.00686662
0.00622453
0.00568468
0.00532566
0.00515033
0.0050991
0.00528668
0.00589922
0.00703643
0.00858442
0.0102421
0.0116414
0.0124778
0.0125944
0.0120012
0.0108645
0.00946791
0.00820092
0.00739326
0.00704418
0.00700336
0.00709852
0.00722258
0.00730339
0.00728182
0.00715137
0.00692038
0.00657257
0.00607964
0.00541638
0.00456629
0.00343186
0.00201561
0.00214695
0.00392664
0.00538337
0.00229979
0.00300375
0.00670661
0.00746135
0.00694841
0.00642886
0.00600331
0.00569659
0.005498
0.00549311
0.00594877
0.00702959
0.00863932
0.0104496
0.012042
0.0130515
0.0132677
0.0126708
0.0113982
0.00976608
0.00818733
0.0070501
0.00639327
0.00608654
0.00600123
0.00603612
0.00611537
0.00618223
0.0061783
0.00604757
0.00579508
0.00538804
0.00479062
0.00401994
0.00319638
0.00250316
0.00204486
0.00234483
0.0041768
0.00533622
0.00243873
0.00270985
0.00281961
0.00416552
0.00489787
0.00512536
0.00513024
0.00508198
0.00518067
0.00581652
0.0071644
0.00905276
0.0110804
0.0128022
0.0138544
0.0140313
0.0133013
0.0118414
0.00991915
0.00808809
0.00666904
0.00572975
0.00518966
0.00492561
0.00481062
0.00476189
0.00473838
0.0047184
0.00466867
0.00450129
0.00420175
0.00373917
0.00313564
0.00254417
0.00216547
0.00207801
0.00226368
0.00289517
0.00480259
0.00550268
0.00246514
0.000964989
0.00174006
0.00266898
0.0034126
0.00427749
0.00575393
0.00792134
0.0103168
0.0124811
0.0140781
0.0148865
0.014772
0.0137545
0.0119462
0.00980913
0.00779486
0.00621363
0.00516212
0.00458137
0.0042842
0.00410909
0.00397302
0.00384515
0.0037185
0.00359331
0.00346404
0.00329491
0.00304731
0.00272566
0.00239324
0.0021881
0.00221148
0.00246189
0.00291755
0.0036783
0.00522247
0.00598679
0.00245833
0.00178715
0.00246896
0.00359041
0.00559556
0.00831927
0.0110391
0.0131416
0.0146428
0.015526
0.0157333
0.0151596
0.0137078
0.0116084
0.00927423
0.00717183
0.00562604
0.0047313
0.00430085
0.00408692
0.00394541
0.00382128
0.00370077
0.0035855
0.00348001
0.00338524
0.00329419
0.00318729
0.00304818
0.00288824
0.002749
0.00271066
0.00284532
0.00315935
0.00360719
0.00414234
0.00468519
0.00489977
0.0023549
0.00323894
0.00785837
0.00724675
0.006484
0.00823026
0.0109641
0.0132659
0.0148116
0.0156137
0.0157906
0.0154291
0.0145023
0.0129808
0.0109346
0.0086781
0.00669078
0.00537796
0.00472117
0.00442197
0.00424973
0.00410556
0.00396196
0.00382102
0.00369558
0.00360019
0.00354512
0.00353211
0.00355116
0.00357738
0.00358117
0.00357706
0.00359495
0.00367285
0.00385187
0.00415395
0.00456045
0.0050084
0.00531688
0.00528807
0.00235773
0.00309577
0.0059801
0.0077261
0.00988413
0.010964
0.0120779
0.0127239
0.0128752
0.0126196
0.0120146
0.0110772
0.00981088
0.00829849
0.00677686
0.00555796
0.0048063
0.00441148
0.00420585
0.00406586
0.0039356
0.00379941
0.00366154
0.00353638
0.00344332
0.00340237
0.00342913
0.00352922
0.00369251
0.00388591
0.00404628
0.00416239
0.00428281
0.0044482
0.00469085
0.00503375
0.00548655
0.00604113
0.00668222
0.0060094
0.00265621
0.00289451
0.00248042
0.00246744
0.00253827
0.00259609
0.00251527
0.00236047
0.00217931
0.00199621
0.00182099
0.00165788
0.00151249
0.00139363
0.00130973
0.00126188
0.00124177
0.00123934
0.00124381
0.00125143
0.00126187
0.00127647
0.00129723
0.00132597
0.00136345
0.00140878
0.00145963
0.0015131
0.00156673
0.00161937
0.00167174
0.0017243
0.00177894
0.00183968
0.00191022
0.00199286
0.00208719
0.00218932
0.0022966
0.00242248
0.00244851
)
;

boundaryField
{
    floor
    {
        type            compressible::alphatWallFunction;
        Prt             0.85;
        value           nonuniform List<scalar> 
36
(
0.000219896
0.000104477
0.000149993
0.000151197
0.000147597
0.000141542
0.000133393
0.000125214
0.000117627
0.000110744
0.000104532
9.89601e-05
9.39238e-05
8.93076e-05
8.49733e-05
8.07301e-05
7.62657e-05
7.25325e-05
6.49414e-05
6.49405e-05
8.41632e-05
9.64144e-05
0.000106528
0.000127285
0.00016612
0.000160163
0.000219894
0.000239726
0.000229113
0.00021977
0.000104475
0.000219767
0.000186288
0.000266729
0.00023269
0.000265684
)
;
    }
    ceiling
    {
        type            compressible::alphatWallFunction;
        Prt             0.85;
        value           nonuniform List<scalar> 
43
(
0.000391148
0.00033887
0.000337224
0.000346243
0.000353592
0.000343373
0.000323663
0.000300405
0.000276675
0.000253732
0.000232146
0.000212701
0.000196647
0.000185228
0.00017869
0.000175946
0.000175626
0.000176249
0.0001773
0.000178731
0.000180719
0.00018354
0.000187441
0.000192523
0.000198666
0.00020555
0.000212775
0.000220004
0.000227077
0.000234085
0.000241094
0.000248343
0.000256357
0.000265621
0.000276425
0.000288705
0.000301943
0.00031581
0.000331995
0.0003352
0.000368268
0.000382064
0.000248585
)
;
    }
    sWall
    {
        type            compressible::alphatWallFunction;
        Prt             0.85;
        value           nonuniform List<scalar> 9(0.000507617 0.000477882 0.000438181 0.00040222 0.000403521 0.000366693 0.0004321 0.000414397 0.000389397);
    }
    nWall
    {
        type            compressible::alphatWallFunction;
        Prt             0.85;
        value           nonuniform List<scalar> 
14
(
0.000159715
0.000190425
0.000222376
0.000327526
0.000322215
0.000313428
0.000315567
0.000333168
0.000336529
0.000335358
0.000322226
0.000322911
0.000361072
0.00033451
)
;
    }
    sideWalls
    {
        type            empty;
    }
    glass1
    {
        type            compressible::alphatWallFunction;
        Prt             0.85;
        value           nonuniform List<scalar> 9(0.000143931 0.000209139 0.000262697 0.000313308 0.000362383 0.000410007 0.000458016 0.000498873 0.000511235);
    }
    glass2
    {
        type            compressible::alphatWallFunction;
        Prt             0.85;
        value           nonuniform List<scalar> 2(0.000282337 0.000321574);
    }
    sun
    {
        type            compressible::alphatWallFunction;
        Prt             0.85;
        value           nonuniform List<scalar> 
14
(
0.000147965
0.000157648
0.000157086
0.00016375
0.00016983
0.00017533
0.000180433
0.000185337
0.000190261
0.000195479
0.000200443
0.000205148
0.000209774
0.000214735
)
;
    }
    Table_master
    {
        type            compressible::alphatWallFunction;
        Prt             0.85;
        value           nonuniform List<scalar> 9(0.000191147 0.000166971 0.000148026 0.000132995 0.000120886 0.000111006 0.000102873 9.62039e-05 9.09676e-05);
    }
    Table_slave
    {
        type            compressible::alphatWallFunction;
        Prt             0.85;
        value           nonuniform List<scalar> 9(0.000216411 0.000197666 0.000183013 0.000170715 0.000160147 0.000150584 0.000141501 0.000132413 0.000122518);
    }
    inlet
    {
        type            fixedValue;
        value           uniform 1.94e-05;
    }
    outlet
    {
        type            zeroGradient;
    }
}


// ************************************************************************* //
