/*--------------------------------*- C++ -*----------------------------------*\
  =========                 |
  \\      /  F ield         | OpenFOAM: The Open Source CFD Toolbox
   \\    /   O peration     | Website:  https://openfoam.org
    \\  /    A nd           | Version:  6
     \\/     M anipulation  |
\*---------------------------------------------------------------------------*/
FoamFile
{
    version     2.0;
    format      ascii;
    class       volScalarField;
    location    "25099.9999989160242";
    object      alphat;
}
// * * * * * * * * * * * * * * * * * * * * * * * * * * * * * * * * * * * * * //

dimensions      [1 -1 -1 0 0 0 0];

internalField   nonuniform List<scalar> 
778
(
0.00104097
0.00111051
0.0011065
0.00115453
0.00119856
0.00123855
0.0012758
0.00131172
0.00134789
0.00138633
0.00142301
0.00145786
0.0014922
0.00152911
0.00156762
0.000736939
0.0010555
0.00106414
0.00103846
0.000995424
0.000937862
0.00088046
0.000827565
0.000779886
0.000737152
0.000699087
0.000664902
0.000633761
0.000604694
0.000576402
0.000546818
0.000522234
0.000472666
0.00152465
0.00300713
0.00263919
0.00304618
0.00334141
0.00365442
0.0039667
0.00425459
0.00448644
0.00462161
0.00470118
0.00466881
0.00443624
0.0038596
0.00281899
0.00171649
0.00163661
0.00156656
0.00131831
0.00224605
0.00311352
0.00362615
0.00365034
0.00288076
0.00246371
0.00217477
0.00195545
0.00178092
0.00163198
0.00150036
0.00137792
0.00125816
0.00115067
0.00105798
0.00119137
0.00059921
0.00193412
0.00419849
0.00311334
0.00445314
0.00497559
0.00541766
0.0058192
0.00617271
0.00647239
0.0067076
0.00693554
0.00717554
0.00739622
0.00752773
0.00744105
0.00681297
0.00498263
0.00192152
0.00166357
0.00355895
0.00496643
0.00563245
0.0051223
0.0013518
0.00117554
0.00103955
0.000933129
0.000848411
0.00078001
0.000724206
0.000678814
0.000643422
0.000707377
0.000832009
0.00131684
0.0006816
0.00232906
0.00565788
0.00297901
0.00500694
0.00578036
0.00619398
0.00649805
0.00672304
0.00689112
0.00702766
0.0072218
0.00754984
0.00802847
0.00863018
0.00923485
0.00953251
0.00895029
0.00667419
0.00191392
0.00443556
0.00659567
0.00769207
0.00796235
0.00679721
0.00153919
0.00140002
0.00129234
0.00120281
0.00112649
0.00105793
0.00099328
0.000929066
0.000859718
0.000803242
0.000832469
0.0014251
0.000750394
0.00271831
0.00748966
0.0030053
0.00475963
0.00594881
0.00630133
0.00642904
0.0064337
0.00636972
0.00631336
0.00639485
0.00671358
0.00729825
0.00812603
0.009086
0.0099703
0.0105319
0.0105264
0.00944817
0.00961436
0.00983394
0.00986383
0.00966276
0.00904422
0.00719746
0.00621742
0.00554624
0.00500056
0.00446571
0.00394773
0.00344095
0.00293471
0.00241444
0.00185476
0.00141558
0.00141302
0.00111787
0.000894406
0.00117567
0.00112637
0.00310123
0.00953957
0.00353771
0.00401362
0.00569957
0.00609066
0.00605891
0.00584051
0.00552862
0.00527152
0.00526601
0.00559965
0.00626552
0.00722498
0.00834826
0.00947023
0.0104262
0.0110371
0.0111487
0.0110367
0.01084
0.0105612
0.0102037
0.00974938
0.00908683
0.00844875
0.00786954
0.00730928
0.00670475
0.00605936
0.00536998
0.00463059
0.00383645
0.00299397
0.00223181
0.0016758
0.00130039
0.00145759
0.00252833
0.00134814
0.00349196
0.0114347
0.00471379
0.00328803
0.00512115
0.00576099
0.00568948
0.00533629
0.00482425
0.00437373
0.00436053
0.00478111
0.00554264
0.00661436
0.00783509
0.00904369
0.0100843
0.0108299
0.0111729
0.0111461
0.0109004
0.0105285
0.0101032
0.0096793
0.00926963
0.00889389
0.00854109
0.00816432
0.00770965
0.00716251
0.00651457
0.00576259
0.00490959
0.00397793
0.00306841
0.00222008
0.00163464
0.00146046
0.00256185
0.00158759
0.00382769
0.0128677
0.00642597
0.00313045
0.0040569
0.00510715
0.00525311
0.00496273
0.00435796
0.00374477
0.00388328
0.00443908
0.00528999
0.00639413
0.00766128
0.00892647
0.0100063
0.010757
0.0110981
0.0110535
0.0107364
0.0102689
0.00976649
0.00932123
0.00897813
0.00873309
0.00854216
0.0083346
0.00804611
0.00764232
0.00710705
0.00643695
0.00563877
0.00473743
0.00380267
0.00285827
0.00200821
0.00132689
0.00368848
0.00207068
0.00392897
0.0121743
0.00794931
0.00404613
0.00275039
0.00337079
0.00394359
0.00399134
0.00352391
0.003425
0.00378062
0.00443381
0.00535307
0.00652315
0.00785069
0.00915481
0.0102312
0.0109243
0.011168
0.0110008
0.0105413
0.00993869
0.00934131
0.00886505
0.00856283
0.00841441
0.00834718
0.00826749
0.00810188
0.00781052
0.00737742
0.00680078
0.00608861
0.00526202
0.004358
0.003346
0.00200147
0.00160532
0.00559033
0.00235231
0.00384958
0.00981227
0.00820742
0.00555237
0.00366778
0.0028407
0.00269098
0.00281741
0.00305383
0.00343054
0.00396474
0.00469945
0.00569853
0.00695941
0.00835886
0.00968148
0.010702
0.0112646
0.0113238
0.0109465
0.0102821
0.00951801
0.00883676
0.0083705
0.00815688
0.00813167
0.00817778
0.0081769
0.00806975
0.00783374
0.00746106
0.00695123
0.00630958
0.00554317
0.00461522
0.00325797
0.00158481
0.0026818
0.00576812
0.00240364
0.00360603
0.008385
0.00793383
0.00635252
0.00489002
0.00393756
0.00346669
0.00336057
0.0035561
0.00391567
0.00443783
0.00521303
0.00631587
0.00769794
0.00916861
0.0104635
0.0113435
0.0116713
0.0114415
0.010769
0.00985586
0.00894263
0.00825013
0.00790293
0.00786242
0.00797562
0.00809027
0.00809237
0.0079794
0.00775041
0.00740025
0.00692411
0.00631823
0.00555507
0.00442276
0.00254539
0.00169581
0.00338346
0.00561557
0.0023864
0.00328336
0.00755888
0.00765165
0.0067228
0.00572021
0.00496527
0.00452088
0.00436208
0.00440293
0.00462072
0.00510066
0.00596678
0.00724187
0.0087728
0.010275
0.0114406
0.0120421
0.0119927
0.0113555
0.0103181
0.00916227
0.00819894
0.00765529
0.00754435
0.00763695
0.00778683
0.00788732
0.00786008
0.00772942
0.00749747
0.00715537
0.00669063
0.00608397
0.00523928
0.00361856
0.00179285
0.0021997
0.00374365
0.00514758
0.0023135
0.0029936
0.00675849
0.00730333
0.00686591
0.00622334
0.00568319
0.00532406
0.00514908
0.00509833
0.00528569
0.00589585
0.00702823
0.00857163
0.0102291
0.0116341
0.012479
0.0126011
0.012006
0.0108617
0.00945847
0.00819228
0.00738174
0.00702212
0.00696959
0.00706433
0.00720112
0.00729599
0.00727531
0.0071484
0.00691517
0.00656442
0.00608012
0.0054294
0.00444309
0.00275057
0.00174844
0.00252999
0.00391341
0.00483846
0.0022388
0.00300322
0.00670695
0.00746038
0.00694721
0.00642753
0.00600189
0.00569524
0.00549749
0.00549269
0.0059466
0.00702305
0.00862785
0.0104375
0.0120372
0.0130602
0.0132888
0.0126958
0.0114157
0.0097744
0.00819086
0.00704544
0.00636495
0.00602982
0.00593092
0.00597904
0.00609366
0.00619398
0.00619
0.00605954
0.00579815
0.00539662
0.00485713
0.00419417
0.00338207
0.00237846
0.00185648
0.00262472
0.00405518
0.00545718
0.00227397
0.00270947
0.00281964
0.00416525
0.00489756
0.00512529
0.00513066
0.00508314
0.00518194
0.00581604
0.0071594
0.00904235
0.0110691
0.0128001
0.0138718
0.0140707
0.0133537
0.0118926
0.00996081
0.0081204
0.00668213
0.00570636
0.00512593
0.00483423
0.00471715
0.00469938
0.00473245
0.0047624
0.00470932
0.0045181
0.00418633
0.00373417
0.00323035
0.00277243
0.00242485
0.00218647
0.00214415
0.00280248
0.0044514
0.00549786
0.00241283
0.000965376
0.00174117
0.00267183
0.00341808
0.00428558
0.00575918
0.00792086
0.0103093
0.0124722
0.0140799
0.0149131
0.0148317
0.0138417
0.0120423
0.00990244
0.00787139
0.0062545
0.00515372
0.00452583
0.0041933
0.00400328
0.00387891
0.00378833
0.00371305
0.00362743
0.00348961
0.00326304
0.00296547
0.00265864
0.00242689
0.00232269
0.0023455
0.00248113
0.00277312
0.00345221
0.00526532
0.00578784
0.00244677
0.00178725
0.00247349
0.00360087
0.00561254
0.00833653
0.0110523
0.0131451
0.014642
0.0155351
0.0157697
0.0152379
0.0138338
0.0117719
0.00944927
0.00732103
0.00571145
0.00473799
0.00423367
0.00396298
0.00379145
0.00366847
0.00357665
0.00350595
0.00344329
0.00336843
0.00325685
0.00310459
0.00294141
0.00281638
0.00277752
0.0028447
0.00300879
0.00326327
0.00364819
0.00430085
0.00577324
0.006296
0.00246543
0.00323859
0.007855
0.00724968
0.00649989
0.00825615
0.0109915
0.0132888
0.0148269
0.0156237
0.0158053
0.0154726
0.0145879
0.0131119
0.0111178
0.00889101
0.00686294
0.00543294
0.00464434
0.00423238
0.0039823
0.00380658
0.003683
0.00360919
0.00358252
0.00359276
0.00362035
0.00363867
0.00362356
0.00358668
0.0035578
0.00356016
0.00361181
0.00371899
0.00387306
0.00405841
0.00426881
0.00452229
0.00485512
0.00499287
0.00234903
0.00309575
0.00598464
0.00774461
0.00990565
0.0109924
0.012109
0.0127537
0.0129006
0.0126411
0.0120406
0.0111278
0.00992309
0.00849834
0.00703588
0.00580089
0.0049446
0.00438329
0.00401698
0.00375352
0.00355506
0.00341696
0.00334577
0.00334658
0.00341634
0.00354026
0.00369064
0.00382946
0.00391794
0.00397282
0.00402858
0.00410578
0.00421485
0.00435833
0.00453356
0.00473824
0.00497443
0.00524704
0.00558482
0.00561022
0.00231315
0.00289512
0.00248011
0.00246717
0.00253778
0.00259534
0.00251408
0.0023596
0.00218068
0.00200284
0.00183606
0.00168313
0.00154612
0.00142967
0.00134025
0.0012813
0.00125032
0.00124126
0.00124234
0.00125145
0.00126832
0.00129256
0.00132281
0.00135688
0.00139241
0.00142756
0.00146137
0.00149396
0.00152653
0.00155965
0.0015954
0.00163605
0.00168312
0.00173733
0.00179852
0.00186538
0.00193539
0.00201009
0.00211637
0.00227843
0.00224784
)
;

boundaryField
{
    floor
    {
        type            compressible::alphatWallFunction;
        Prt             0.85;
        value           nonuniform List<scalar> 
36
(
0.000219921
0.000104499
0.000149954
0.000151163
0.000147568
0.00014152
0.000133384
0.000125211
0.000117625
0.000110738
0.000104522
9.89488e-05
9.39126e-05
8.92975e-05
8.49647e-05
8.07231e-05
7.626e-05
7.25288e-05
6.49386e-05
6.49378e-05
8.41455e-05
9.63774e-05
0.000106454
0.000127205
0.000166649
0.000159841
0.000219919
0.000239736
0.000229126
0.000219776
0.000104498
0.000219773
0.000186242
0.000266718
0.000232705
0.000265723
)
;
    }
    ceiling
    {
        type            compressible::alphatWallFunction;
        Prt             0.85;
        value           nonuniform List<scalar> 
43
(
0.000391224
0.00033883
0.000337188
0.000346177
0.000353492
0.000343211
0.000323533
0.000300554
0.000277499
0.000255671
0.000235462
0.000217187
0.000201524
0.00018941
0.000181382
0.000177145
0.000175907
0.000176055
0.000177297
0.000179599
0.000182908
0.000187037
0.000191686
0.00019653
0.000201315
0.000205907
0.000210321
0.000214716
0.000219171
0.000223961
0.000229387
0.000235655
0.000242854
0.000250958
0.000259786
0.000268987
0.000278706
0.000292333
0.00031313
0.000309475
0.000368219
0.000382066
0.000248598
)
;
    }
    sWall
    {
        type            compressible::alphatWallFunction;
        Prt             0.85;
        value           nonuniform List<scalar> 9(0.000507618 0.000477907 0.000438228 0.000402262 0.000403453 0.000366644 0.000432058 0.000414395 0.000389473);
    }
    nWall
    {
        type            compressible::alphatWallFunction;
        Prt             0.85;
        value           nonuniform List<scalar> 
14
(
0.000159394
0.000189856
0.000222105
0.00032852
0.000326263
0.000316899
0.000307384
0.000312227
0.000329743
0.000334049
0.000336195
0.000321392
0.000317113
0.000308796
)
;
    }
    sideWalls
    {
        type            empty;
    }
    glass1
    {
        type            compressible::alphatWallFunction;
        Prt             0.85;
        value           nonuniform List<scalar> 9(0.000143926 0.000209133 0.000262688 0.000313295 0.000362366 0.000409986 0.000457991 0.000498847 0.00051122);
    }
    glass2
    {
        type            compressible::alphatWallFunction;
        Prt             0.85;
        value           nonuniform List<scalar> 2(0.000283437 0.000319671);
    }
    sun
    {
        type            compressible::alphatWallFunction;
        Prt             0.85;
        value           nonuniform List<scalar> 
14
(
0.00014796
0.000157642
0.000157082
0.000163749
0.000169833
0.000175337
0.000180445
0.000185355
0.000190284
0.000195507
0.000200474
0.000205181
0.000209805
0.000214764
)
;
    }
    Table_master
    {
        type            compressible::alphatWallFunction;
        Prt             0.85;
        value           nonuniform List<scalar> 9(0.000191073 0.000166905 0.000147976 0.000132961 0.000120865 0.000110995 0.000102865 9.61963e-05 9.09593e-05);
    }
    Table_slave
    {
        type            compressible::alphatWallFunction;
        Prt             0.85;
        value           nonuniform List<scalar> 9(0.000216384 0.000197625 0.000182966 0.000170673 0.000160111 0.000150553 0.000141474 0.000132387 0.000122491);
    }
    inlet
    {
        type            fixedValue;
        value           uniform 1.94e-05;
    }
    outlet
    {
        type            zeroGradient;
    }
}


// ************************************************************************* //
