/*--------------------------------*- C++ -*----------------------------------*\
  =========                 |
  \\      /  F ield         | OpenFOAM: The Open Source CFD Toolbox
   \\    /   O peration     | Website:  https://openfoam.org
    \\  /    A nd           | Version:  6
     \\/     M anipulation  |
\*---------------------------------------------------------------------------*/
FoamFile
{
    version     2.0;
    format      ascii;
    class       volVectorField;
    location    "25099.9999989160242";
    object      U;
}
// * * * * * * * * * * * * * * * * * * * * * * * * * * * * * * * * * * * * * //

dimensions      [0 1 -1 0 0 0 0];

internalField   nonuniform List<vector> 
778
(
(0.0655947 0.0794099 0)
(-0.155181 0.0157695 0)
(-0.164316 0.0146306 0)
(-0.192444 0.012282 0)
(-0.216892 0.00873252 0)
(-0.236967 0.00475131 0)
(-0.252108 0.000423052 0)
(-0.261891 -0.00436475 0)
(-0.265801 -0.00981053 0)
(-0.262833 -0.0161945 0)
(-0.251031 -0.0242722 0)
(-0.226325 -0.0348961 0)
(-0.186188 -0.0504238 0)
(-0.14424 -0.0752039 0)
(-0.150139 -0.108611 0)
(0.0546096 0.0354815 0)
(0.0156842 -0.0268595 0)
(0.0448427 -0.0232546 0)
(0.0692138 -0.0161519 0)
(0.0842504 -0.0103467 0)
(0.0914475 -0.00641288 0)
(0.0942799 -0.00433538 0)
(0.0953113 -0.00331201 0)
(0.0957588 -0.00272532 0)
(0.0959232 -0.00231327 0)
(0.0957947 -0.00195028 0)
(0.0952677 -0.00151151 0)
(0.0940129 -0.000759438 0)
(0.0911728 0.000842039 0)
(0.0849821 0.00406015 0)
(0.0734687 0.0077599 0)
(0.0598485 0.011597 0)
(-0.00797121 0.029954 0)
(0.25839 0.167399 0)
(-0.161239 0.0484023 0)
(-0.141617 0.0459938 0)
(-0.174031 0.0416316 0)
(-0.199406 0.0356875 0)
(-0.220141 0.0291504 0)
(-0.236187 0.0220792 0)
(-0.247455 0.0142468 0)
(-0.253645 0.00530999 0)
(-0.253974 -0.00514617 0)
(-0.247826 -0.0170851 0)
(-0.234124 -0.0308622 0)
(-0.214217 -0.0480973 0)
(-0.197644 -0.0699919 0)
(-0.194136 -0.0826858 0)
(-0.166509 -0.0426036 0)
(-0.105408 -0.0364356 0)
(-0.0983426 -0.0445304 0)
(0.109327 -0.0419809 0)
(0.0644155 -0.0410907 0)
(0.0718097 -0.0322158 0)
(0.0857513 -0.0206759 0)
(0.0936182 -0.0104358 0)
(0.0958373 -0.00363377 0)
(0.0955988 -0.000191239 0)
(0.0952138 0.00125952 0)
(0.0951778 0.0019079 0)
(0.0952573 0.00227801 0)
(0.0952624 0.0025946 0)
(0.0951608 0.00313174 0)
(0.0948693 0.00440848 0)
(0.0936136 0.00771786 0)
(0.0880236 0.0167368 0)
(0.0742873 0.0252965 0)
(0.0629847 0.0328885 0)
(-0.0520516 0.0634704 0)
(0.429965 0.253964 0)
(-0.194236 0.0847771 0)
(-0.112794 0.0784542 0)
(-0.148268 0.0669824 0)
(-0.170711 0.0555318 0)
(-0.188817 0.0437626 0)
(-0.202668 0.0313806 0)
(-0.212373 0.0180412 0)
(-0.217737 0.00342559 0)
(-0.218106 -0.0126164 0)
(-0.212856 -0.0303215 0)
(-0.201754 -0.0499194 0)
(-0.186118 -0.0715922 0)
(-0.169591 -0.093247 0)
(-0.151228 -0.104609 0)
(-0.120386 -0.0931976 0)
(-0.0796756 -0.0950211 0)
(-0.0715823 -0.107696 0)
(0.0920661 -0.0880282 0)
(0.062501 -0.0656388 0)
(0.0742737 -0.0460327 0)
(0.0878745 -0.029163 0)
(0.0946653 -0.01482 0)
(0.0917239 -0.0120171 0)
(0.0874956 -0.00797763 0)
(0.0851259 -0.00580238 0)
(0.0844321 -0.00456709 0)
(0.084414 -0.00379678 0)
(0.084676 -0.00322255 0)
(0.0853309 -0.00259745 0)
(0.0870906 -0.00144107 0)
(0.0917682 0.00291498 0)
(0.0899204 0.0250785 0)
(0.0731311 0.0422898 0)
(0.0699102 0.0573462 0)
(-0.0901484 0.100709 0)
(0.578526 0.325855 0)
(-0.240102 0.121835 0)
(-0.0808519 0.109253 0)
(-0.121601 0.0898898 0)
(-0.139044 0.0741119 0)
(-0.153115 0.0586831 0)
(-0.163886 0.0428016 0)
(-0.171492 0.0258545 0)
(-0.175713 0.00723414 0)
(-0.175788 -0.0135083 0)
(-0.171106 -0.0364612 0)
(-0.161545 -0.0614578 0)
(-0.147689 -0.0873808 0)
(-0.13073 -0.110312 0)
(-0.109794 -0.123222 0)
(-0.0823366 -0.124579 0)
(-0.0527483 -0.126434 0)
(-0.0336438 -0.123239 0)
(0.0160122 -0.0568208 0)
(0.0605955 -0.0929532 0)
(0.0683125 -0.0790808 0)
(0.0789643 -0.0587191 0)
(0.0914683 -0.0394786 0)
(0.102825 -0.0208125 0)
(0.115568 -0.0131702 0)
(0.126685 -0.00881026 0)
(0.132256 -0.00560637 0)
(0.133217 -0.00309924 0)
(0.130673 -0.000873481 0)
(0.125192 0.00129664 0)
(0.116652 0.00367572 0)
(0.104289 0.00672555 0)
(0.0850473 0.0111462 0)
(0.071195 0.0367951 0)
(0.0599278 0.0604617 0)
(0.0760243 0.0831817 0)
(-0.117894 0.136801 0)
(0.705701 0.383699 0)
(-0.287675 0.157038 0)
(-0.0477161 0.133821 0)
(-0.0963218 0.106966 0)
(-0.107781 0.0876506 0)
(-0.116824 0.0692349 0)
(-0.123623 0.050511 0)
(-0.128292 0.0306473 0)
(-0.130659 0.00877221 0)
(-0.129859 -0.0157882 0)
(-0.125363 -0.0430607 0)
(-0.116746 -0.0726734 0)
(-0.104039 -0.10281 0)
(-0.0875936 -0.129063 0)
(-0.0676712 -0.145765 0)
(-0.044357 -0.152265 0)
(-0.0205143 -0.152401 0)
(3.44567e-06 -0.143775 0)
(0.0305495 -0.115009 0)
(0.0567526 -0.109327 0)
(0.0703767 -0.0923712 0)
(0.0805508 -0.0711778 0)
(0.0906311 -0.0507119 0)
(0.100197 -0.0326712 0)
(0.109298 -0.0193195 0)
(0.116297 -0.00995387 0)
(0.119691 -0.00326396 0)
(0.119857 0.00198258 0)
(0.117417 0.00651787 0)
(0.112743 0.0108559 0)
(0.105865 0.0155088 0)
(0.0967175 0.0211809 0)
(0.084798 0.0291735 0)
(0.0732478 0.0471671 0)
(0.0627461 0.0711791 0)
(0.0942456 0.0992274 0)
(0.0162627 0.138 0)
(0.0955085 0.182869 0)
(0.141086 0.147074 0)
(-0.224652 0.203455 0)
(0.810409 0.431997 0)
(-0.331312 0.190714 0)
(-0.0173344 0.150301 0)
(-0.0734009 0.117581 0)
(-0.0786344 0.0955801 0)
(-0.0822663 0.0750191 0)
(-0.0845301 0.0544175 0)
(-0.0855754 0.0327894 0)
(-0.0853253 0.00891857 0)
(-0.0826528 -0.0183682 0)
(-0.0774876 -0.0489943 0)
(-0.0688666 -0.0824669 0)
(-0.0568873 -0.116453 0)
(-0.0418589 -0.146238 0)
(-0.0248932 -0.16594 0)
(-0.00653323 -0.174471 0)
(0.01185 -0.172763 0)
(0.0277596 -0.161044 0)
(0.0459371 -0.139355 0)
(0.0624136 -0.122353 0)
(0.073118 -0.102469 0)
(0.0808255 -0.080386 0)
(0.0875992 -0.059019 0)
(0.0937823 -0.0401313 0)
(0.0991019 -0.0249591 0)
(0.102765 -0.0136092 0)
(0.104338 -0.00492578 0)
(0.103873 0.00225233 0)
(0.101686 0.008699 0)
(0.098029 0.0149325 0)
(0.0930628 0.0214831 0)
(0.0870197 0.0289916 0)
(0.0801566 0.0383834 0)
(0.0743993 0.0528155 0)
(0.0691167 0.0728374 0)
(0.0910395 0.0985695 0)
(0.0726638 0.107283 0)
(0.0890412 0.0478481 0)
(0.146177 -0.0372428 0)
(-0.329728 0.105988 0)
(0.879893 0.474711 0)
(-0.368632 0.221005 0)
(0.00370909 0.155626 0)
(-0.0526973 0.121645 0)
(-0.0522531 0.0979337 0)
(-0.0510849 0.0759076 0)
(-0.0490914 0.0541294 0)
(-0.046583 0.0316138 0)
(-0.0434006 0.00683903 0)
(-0.0374396 -0.0222463 0)
(-0.0303657 -0.0553223 0)
(-0.0205907 -0.0918795 0)
(-0.00880354 -0.128803 0)
(0.00437489 -0.161123 0)
(0.0174193 -0.181791 0)
(0.0301923 -0.190167 0)
(0.0419934 -0.187229 0)
(0.0522989 -0.174453 0)
(0.0622805 -0.154107 0)
(0.0708788 -0.132435 0)
(0.0764306 -0.109381 0)
(0.0799142 -0.0858372 0)
(0.082524 -0.0636205 0)
(0.0847576 -0.0440911 0)
(0.0865708 -0.0279752 0)
(0.0876304 -0.015176 0)
(0.087719 -0.00491591 0)
(0.0866907 0.00372231 0)
(0.084745 0.0114183 0)
(0.0820338 0.0186956 0)
(0.0787406 0.02606 0)
(0.0751505 0.0340271 0)
(0.0716655 0.0431779 0)
(0.0696424 0.0548406 0)
(0.0684178 0.0694419 0)
(0.0812402 0.088708 0)
(0.0838471 0.0922169 0)
(0.0884662 0.0545844 0)
(0.180729 0.024399 0)
(-0.282324 0.153551 0)
(0.927955 0.517166 0)
(-0.383163 0.234224 0)
(0.0169001 0.133071 0)
(-0.0273617 0.116749 0)
(-0.0265969 0.0950173 0)
(-0.0228033 0.072526 0)
(-0.0177042 0.0501985 0)
(-0.0124386 0.0273347 0)
(-0.00549025 0.00193196 0)
(0.00449929 -0.0306926 0)
(0.0142158 -0.0652769 0)
(0.0255024 -0.103248 0)
(0.0371204 -0.140727 0)
(0.0477695 -0.171984 0)
(0.0568367 -0.192198 0)
(0.0643077 -0.199737 0)
(0.0700174 -0.19538 0)
(0.0739709 -0.181234 0)
(0.0766817 -0.160167 0)
(0.0780635 -0.136159 0)
(0.077729 -0.111107 0)
(0.0762467 -0.0865287 0)
(0.0744392 -0.0639097 0)
(0.072825 -0.0442595 0)
(0.0715374 -0.0279619 0)
(0.0704405 -0.0147388 0)
(0.0693433 -0.00389785 0)
(0.0679572 0.00533329 0)
(0.066411 0.0135312 0)
(0.0646846 0.021182 0)
(0.0628728 0.0287182 0)
(0.061178 0.0365085 0)
(0.0599183 0.0448773 0)
(0.0599664 0.0543613 0)
(0.0611397 0.0650437 0)
(0.0698676 0.0786622 0)
(0.0788934 0.0827203 0)
(0.0768639 0.0624387 0)
(0.238703 0.051598 0)
(-0.559356 0.230281 0)
(1.0113 0.506845 0)
(-0.137366 0.296375 0)
(0.0410745 0.161576 0)
(0.0405544 0.12217 0)
(0.0130361 0.0920658 0)
(0.00861038 0.0654573 0)
(0.0140254 0.0414771 0)
(0.0206424 0.0170535 0)
(0.0324528 -0.0109696 0)
(0.0439171 -0.0421099 0)
(0.0557834 -0.0768572 0)
(0.0680458 -0.114538 0)
(0.0791585 -0.150944 0)
(0.0876289 -0.180378 0)
(0.0928177 -0.198425 0)
(0.0948416 -0.203655 0)
(0.0941145 -0.197088 0)
(0.091188 -0.181116 0)
(0.08674 -0.15876 0)
(0.0812204 -0.13333 0)
(0.074917 -0.107261 0)
(0.0684221 -0.0823908 0)
(0.0624495 -0.0600896 0)
(0.0575087 -0.0410932 0)
(0.0537808 -0.0254975 0)
(0.0511582 -0.0128164 0)
(0.0493748 -0.00228787 0)
(0.0480317 0.0067721 0)
(0.0471235 0.0148578 0)
(0.0464316 0.022409 0)
(0.0459236 0.0297651 0)
(0.0456739 0.0371568 0)
(0.0458569 0.0447221 0)
(0.0469776 0.0526187 0)
(0.0490781 0.0607419 0)
(0.0553402 0.0700083 0)
(0.0637539 0.0718968 0)
(0.0541274 0.0494152 0)
(0.294126 0.072192 0)
(-0.776715 0.299422 0)
(0.779346 0.395784 0)
(0.000711644 0.31953 0)
(0.0933623 0.218948 0)
(0.110571 0.155221 0)
(0.0771353 0.106886 0)
(0.05976 0.0676127 0)
(0.0581761 0.0358225 0)
(0.0623378 0.00646082 0)
(0.0737676 -0.0234017 0)
(0.0853386 -0.0550158 0)
(0.0975266 -0.0897037 0)
(0.109373 -0.126153 0)
(0.118716 -0.159869 0)
(0.123785 -0.18555 0)
(0.123984 -0.199646 0)
(0.119741 -0.201312 0)
(0.112012 -0.191885 0)
(0.101876 -0.173883 0)
(0.0903741 -0.150309 0)
(0.0783497 -0.124187 0)
(0.0664902 -0.0980529 0)
(0.055523 -0.0738368 0)
(0.0461664 -0.0528026 0)
(0.0388753 -0.0354027 0)
(0.033733 -0.0214376 0)
(0.0304902 -0.0101467 0)
(0.0286883 -0.000642486 0)
(0.0278594 0.00768483 0)
(0.0277579 0.0152723 0)
(0.0280565 0.0224881 0)
(0.0286295 0.0295623 0)
(0.0294239 0.0366115 0)
(0.030431 0.0436534 0)
(0.031781 0.0506567 0)
(0.0332535 0.0574799 0)
(0.035668 0.0648868 0)
(0.0275035 0.0694032 0)
(0.021568 0.081283 0)
(0.1359 0.159575 0)
(-0.6525 0.302707 0)
(0.617288 0.220932 0)
(0.00459678 0.298158 0)
(0.11303 0.24157 0)
(0.148297 0.177586 0)
(0.13086 0.12355 0)
(0.117836 0.0778789 0)
(0.114971 0.0389323 0)
(0.117135 0.00343005 0)
(0.123498 -0.0306939 0)
(0.131723 -0.0649796 0)
(0.1414 -0.100435 0)
(0.150256 -0.135237 0)
(0.155352 -0.16504 0)
(0.154765 -0.185547 0)
(0.148183 -0.194468 0)
(0.136507 -0.191818 0)
(0.121211 -0.179315 0)
(0.103805 -0.159496 0)
(0.0856638 -0.135243 0)
(0.067903 -0.109335 0)
(0.0514736 -0.0842412 0)
(0.0372488 -0.0618411 0)
(0.0259661 -0.0432355 0)
(0.017878 -0.0284799 0)
(0.0127383 -0.0169918 0)
(0.00989238 -0.00765463 0)
(0.00861883 0.000455298 0)
(0.00854691 0.00782169 0)
(0.00917986 0.0147918 0)
(0.0102763 0.0216206 0)
(0.011676 0.0284507 0)
(0.0132215 0.035351 0)
(0.0147105 0.0423166 0)
(0.0159551 0.0492782 0)
(0.0167863 0.0561931 0)
(0.016686 0.0648478 0)
(-0.00700591 0.0850996 0)
(-0.00194233 0.118752 0)
(0.130178 0.177243 0)
(-0.56003 0.240477 0)
(0.570768 0.118574 0)
(-0.0203089 0.258671 0)
(0.113747 0.229908 0)
(0.16509 0.17609 0)
(0.166746 0.126227 0)
(0.164397 0.0811454 0)
(0.165375 0.0400141 0)
(0.168292 0.00165983 0)
(0.172259 -0.035369 0)
(0.177838 -0.0718757 0)
(0.184002 -0.107487 0)
(0.187668 -0.139448 0)
(0.185824 -0.163928 0)
(0.177098 -0.178149 0)
(0.161937 -0.181328 0)
(0.141882 -0.174351 0)
(0.118877 -0.159226 0)
(0.0946882 -0.138357 0)
(0.0709197 -0.114434 0)
(0.0488276 -0.0899482 0)
(0.0295983 -0.0672673 0)
(0.0142383 -0.0481415 0)
(0.00333038 -0.0333171 0)
(-0.00358757 -0.0219829 0)
(-0.00729884 -0.0133944 0)
(-0.00914788 -0.00601107 0)
(-0.00974384 0.000776582 0)
(-0.00932853 0.00723702 0)
(-0.00825645 0.0135862 0)
(-0.00664304 0.0199899 0)
(-0.00464306 0.0265833 0)
(-0.00248657 0.0334986 0)
(-0.000567516 0.040862 0)
(0.000539004 0.0487552 0)
(0.000633606 0.057635 0)
(-0.00452931 0.0733132 0)
(-0.035658 0.109197 0)
(-0.0264526 0.146115 0)
(0.0620588 0.183361 0)
(-0.52597 0.185462 0)
(0.628413 0.0537221 0)
(0.0093901 0.197321 0)
(0.113885 0.196983 0)
(0.175181 0.157984 0)
(0.191413 0.117748 0)
(0.198048 0.0773293 0)
(0.203364 0.0373153 0)
(0.20857 -0.00149119 0)
(0.213092 -0.0396589 0)
(0.217425 -0.0765024 0)
(0.219248 -0.109841 0)
(0.215396 -0.136542 0)
(0.203984 -0.154046 0)
(0.185103 -0.161398 0)
(0.160366 -0.15917 0)
(0.131936 -0.148761 0)
(0.102075 -0.132229 0)
(0.0725136 -0.111635 0)
(0.045057 -0.089484 0)
(0.020964 -0.0679725 0)
(0.00183079 -0.0494024 0)
(-0.0114215 -0.0353258 0)
(-0.0190916 -0.02558 0)
(-0.0234009 -0.0179609 0)
(-0.0256471 -0.0113855 0)
(-0.0267068 -0.00525158 0)
(-0.0268874 0.000622335 0)
(-0.0262815 0.00634119 0)
(-0.0250032 0.0120574 0)
(-0.0230626 0.0179462 0)
(-0.0205798 0.0242226 0)
(-0.017804 0.0311694 0)
(-0.015247 0.0391659 0)
(-0.0138146 0.0488001 0)
(-0.0140947 0.0617519 0)
(-0.0197157 0.0859992 0)
(-0.0476877 0.132478 0)
(-0.0415806 0.175402 0)
(-0.0194801 0.173219 0)
(-0.542129 0.0998225 0)
(0.472598 0.0747825 0)
(-0.132017 0.137614 0)
(0.0942792 0.133363 0)
(0.172758 0.116882 0)
(0.203841 0.095426 0)
(0.218099 0.0644594 0)
(0.22807 0.0284206 0)
(0.237158 -0.00897503 0)
(0.243581 -0.0453477 0)
(0.245125 -0.0782549 0)
(0.23916 -0.105023 0)
(0.224328 -0.123624 0)
(0.201147 -0.133249 0)
(0.171518 -0.134379 0)
(0.138016 -0.128286 0)
(0.102934 -0.116242 0)
(0.0686238 -0.100117 0)
(0.0363073 -0.0815032 0)
(0.00846927 -0.0629186 0)
(-0.0140149 -0.0463743 0)
(-0.0278391 -0.0352321 0)
(-0.0360306 -0.0274016 0)
(-0.040488 -0.0212632 0)
(-0.0428977 -0.0156675 0)
(-0.044135 -0.010248 0)
(-0.0446539 -0.00491255 0)
(-0.0445637 0.000274686 0)
(-0.0438517 0.00530533 0)
(-0.0424665 0.0103084 0)
(-0.0402839 0.0155226 0)
(-0.0373432 0.0212832 0)
(-0.0338177 0.0280505 0)
(-0.0301404 0.0364823 0)
(-0.0271799 0.0476909 0)
(-0.025055 0.0640655 0)
(-0.0216574 0.0919872 0)
(-0.0306501 0.141597 0)
(-0.0242247 0.201653 0)
(0.0959179 0.193274 0)
(-0.507623 0.0316718 0)
(0.724103 0.134435 0)
(0.0818325 0.115247 0)
(0.149738 0.0992618 0)
(0.22237 0.0805718 0)
(0.244002 0.0700274 0)
(0.248778 0.0477453 0)
(0.255087 0.0175747 0)
(0.261238 -0.01475 0)
(0.260317 -0.0447956 0)
(0.249875 -0.0695829 0)
(0.229662 -0.0874037 0)
(0.20124 -0.0978234 0)
(0.166964 -0.101188 0)
(0.129357 -0.0985278 0)
(0.0909221 -0.0911424 0)
(0.0531016 -0.0797171 0)
(0.0187308 -0.0659491 0)
(-0.012638 -0.0510116 0)
(-0.0344927 -0.039727 0)
(-0.048755 -0.0320223 0)
(-0.0569264 -0.0269981 0)
(-0.0614646 -0.0229027 0)
(-0.0638969 -0.0188444 0)
(-0.0651553 -0.0144352 0)
(-0.065709 -0.00972455 0)
(-0.0657941 -0.00491469 0)
(-0.0654583 -0.000242508 0)
(-0.0646439 0.00417044 0)
(-0.0632787 0.00841348 0)
(-0.0610674 0.0127815 0)
(-0.0579477 0.0177215 0)
(-0.053944 0.0238473 0)
(-0.0492034 0.0320405 0)
(-0.0440283 0.043634 0)
(-0.0378134 0.060692 0)
(-0.0260782 0.0868211 0)
(-0.0128622 0.128801 0)
(-0.00327516 0.189695 0)
(0.159077 0.186988 0)
(-0.380634 0.083352 0)
(0.191733 0.0880481 0)
(0.225608 0.0998602 0)
(0.246391 0.0702674 0)
(0.242469 0.0399352 0)
(0.239704 0.0121972 0)
(0.234766 -0.0128835 0)
(0.220126 -0.0333916 0)
(0.196493 -0.0484804 0)
(0.166175 -0.0581293 0)
(0.131588 -0.0628345 0)
(0.0944993 -0.0629378 0)
(0.056826 -0.0592101 0)
(0.0205687 -0.052596 0)
(-0.0149986 -0.0433315 0)
(-0.0423536 -0.0349776 0)
(-0.0626606 -0.0287349 0)
(-0.0757895 -0.0253464 0)
(-0.0837239 -0.0234812 0)
(-0.0883145 -0.0220046 0)
(-0.091013 -0.0199632 0)
(-0.0925734 -0.0170938 0)
(-0.093391 -0.0134636 0)
(-0.093692 -0.00931655 0)
(-0.0936231 -0.00496593 0)
(-0.0932361 -0.000729391 0)
(-0.0925237 0.00318364 0)
(-0.0915162 0.00675615 0)
(-0.0898665 0.0102567 0)
(-0.0874017 0.0141925 0)
(-0.0838702 0.0192407 0)
(-0.0788566 0.026262 0)
(-0.0718294 0.0363141 0)
(-0.0616929 0.0506269 0)
(-0.0449112 0.0706208 0)
(-0.0190464 0.0987793 0)
(0.00609136 0.145759 0)
(0.181631 0.159127 0)
(-0.347507 0.141489 0)
(0.450841 0.209877 0)
(0.20584 0.178841 0)
(0.152401 0.118817 0)
(0.139464 0.0639917 0)
(0.128263 0.0257693 0)
(0.11438 0.00163736 0)
(0.0990789 -0.0130697 0)
(0.0780697 -0.022085 0)
(0.0533135 -0.0274517 0)
(0.0259258 -0.0295767 0)
(-0.00440922 -0.0283613 0)
(-0.0341768 -0.0248843 0)
(-0.0607137 -0.0207529 0)
(-0.0828177 -0.0175125 0)
(-0.0988423 -0.0165898 0)
(-0.109505 -0.0173661 0)
(-0.116164 -0.0190213 0)
(-0.120467 -0.020224 0)
(-0.12344 -0.0203061 0)
(-0.125601 -0.019036 0)
(-0.127173 -0.0164787 0)
(-0.128259 -0.0128546 0)
(-0.128919 -0.00850435 0)
(-0.129194 -0.00387634 0)
(-0.129109 0.000492925 0)
(-0.128724 0.0041006 0)
(-0.128213 0.0069763 0)
(-0.127358 0.0095325 0)
(-0.125897 0.0122438 0)
(-0.123369 0.0156016 0)
(-0.119021 0.0201284 0)
(-0.111969 0.0263829 0)
(-0.101073 0.0347143 0)
(-0.083474 0.0447366 0)
(-0.0539734 0.0558457 0)
(-0.012427 0.0752717 0)
(0.187389 0.123259 0)
(-0.404868 0.208914 0)
(0.358481 -0.417335 0)
(-0.346442 -0.512861 0)
(-0.218459 -0.027123 0)
(-0.0934993 0.11106 0)
(-0.0539724 0.0925557 0)
(-0.0315513 0.0544556 0)
(-0.0266385 0.0282191 0)
(-0.0315027 0.0114706 0)
(-0.0401686 0.000694743 0)
(-0.0506799 -0.00621146 0)
(-0.0644369 -0.01019 0)
(-0.0801408 -0.0120788 0)
(-0.0966869 -0.0131848 0)
(-0.112621 -0.0150513 0)
(-0.126727 -0.0180831 0)
(-0.138022 -0.0215017 0)
(-0.145821 -0.0244821 0)
(-0.150652 -0.0267206 0)
(-0.153891 -0.0282096 0)
(-0.156515 -0.0289181 0)
(-0.158918 -0.0288197 0)
(-0.161189 -0.027909 0)
(-0.163305 -0.0262482 0)
(-0.165224 -0.0239566 0)
(-0.16692 -0.0211681 0)
(-0.168362 -0.0179537 0)
(-0.169411 -0.0142418 0)
(-0.169785 -0.00980364 0)
(-0.16932 -0.00530501 0)
(-0.168174 -0.00111512 0)
(-0.16636 0.00297297 0)
(-0.163706 0.00721939 0)
(-0.159883 0.0118867 0)
(-0.154769 0.0172774 0)
(-0.148588 0.0235698 0)
(-0.140269 0.030693 0)
(-0.123341 0.0406192 0)
(-0.0826026 0.0661394 0)
(-0.0287342 0.129394 0)
(-0.537843 0.227237 0)
(0.12215 -0.186455 0)
(-0.388812 -0.298203 0)
(-0.343746 -0.0962858 0)
(-0.265361 0.0517724 0)
(-0.211663 0.0835553 0)
(-0.179554 0.0745204 0)
(-0.163323 0.0610403 0)
(-0.157351 0.051182 0)
(-0.157399 0.0462541 0)
(-0.160625 0.0460518 0)
(-0.165145 0.0497145 0)
(-0.169456 0.0560003 0)
(-0.172719 0.0635079 0)
(-0.174763 0.0705248 0)
(-0.175984 0.075074 0)
(-0.176988 0.0747257 0)
(-0.178487 0.068598 0)
(-0.180727 0.0614641 0)
(-0.183786 0.0552395 0)
(-0.187564 0.0505534 0)
(-0.191831 0.0475603 0)
(-0.196258 0.0462539 0)
(-0.20046 0.0465054 0)
(-0.204062 0.0480335 0)
(-0.206775 0.0503399 0)
(-0.208464 0.0526403 0)
(-0.209125 0.0538357 0)
(-0.20871 0.0526274 0)
(-0.207107 0.0501978 0)
(-0.20435 0.0475815 0)
(-0.200503 0.0449387 0)
(-0.19543 0.0423375 0)
(-0.188837 0.0399072 0)
(-0.180752 0.0377556 0)
(-0.171756 0.035454 0)
(-0.16017 0.0312544 0)
(-0.134114 0.0240171 0)
(-0.0668192 0.0238924 0)
(0.122122 0.0714184 0)
(-0.586026 0.15451 0)
(1.14916 -0.0111557 0)
(-0.297899 -0.323674 0)
(-0.353603 -0.233173 0)
(-0.35332 -0.148831 0)
(-0.329625 -0.107613 0)
(-0.298164 -0.0992075 0)
(-0.271161 -0.101554 0)
(-0.251667 -0.107382 0)
(-0.238622 -0.115018 0)
(-0.229819 -0.124296 0)
(-0.223223 -0.135453 0)
(-0.217439 -0.148615 0)
(-0.211863 -0.163294 0)
(-0.206605 -0.178061 0)
(-0.20237 -0.190568 0)
(-0.200328 -0.198181 0)
(-0.201698 -0.199358 0)
(-0.206902 -0.197126 0)
(-0.215089 -0.192494 0)
(-0.225138 -0.186159 0)
(-0.235933 -0.178786 0)
(-0.246469 -0.171062 0)
(-0.255894 -0.163574 0)
(-0.263514 -0.156656 0)
(-0.268807 -0.150309 0)
(-0.27147 -0.144244 0)
(-0.271551 -0.137992 0)
(-0.269526 -0.13112 0)
(-0.266297 -0.124464 0)
(-0.262258 -0.118044 0)
(-0.257418 -0.111385 0)
(-0.251604 -0.104221 0)
(-0.244672 -0.0965483 0)
(-0.237289 -0.0885825 0)
(-0.231545 -0.0808174 0)
(-0.227351 -0.0737449 0)
(-0.210899 -0.0647237 0)
(-0.160627 -0.0399903 0)
(-0.14981 0.0165298 0)
(-0.661946 0.0766901 0)
)
;

boundaryField
{
    floor
    {
        type            noSlip;
    }
    ceiling
    {
        type            noSlip;
    }
    sWall
    {
        type            noSlip;
    }
    nWall
    {
        type            noSlip;
    }
    sideWalls
    {
        type            empty;
    }
    glass1
    {
        type            noSlip;
    }
    glass2
    {
        type            noSlip;
    }
    sun
    {
        type            noSlip;
    }
    Table_master
    {
        type            noSlip;
    }
    Table_slave
    {
        type            noSlip;
    }
    inlet
    {
        type            fixedValue;
        value           uniform (0.5 0 0);
    }
    outlet
    {
        type            zeroGradient;
    }
}


// ************************************************************************* //
