/*--------------------------------*- C++ -*----------------------------------*\
  =========                 |
  \\      /  F ield         | OpenFOAM: The Open Source CFD Toolbox
   \\    /   O peration     | Website:  https://openfoam.org
    \\  /    A nd           | Version:  6
     \\/     M anipulation  |
\*---------------------------------------------------------------------------*/
FoamFile
{
    version     2.0;
    format      ascii;
    class       surfaceScalarField;
    location    "3810";
    object      phi;
}
// * * * * * * * * * * * * * * * * * * * * * * * * * * * * * * * * * * * * * //

dimensions      [1 0 -1 0 0 0 0];

internalField   nonuniform List<scalar> 
850
(
-0.00305312
0.00311358
-0.00414584
0.00109271
-0.00501493
0.000869096
-0.00570379
0.000688856
-0.00617587
0.000472077
-0.0063971
0.000221239
-0.00632788
-6.92221e-05
-0.00592405
-0.000403835
-0.00517378
-0.000750263
-0.0041286
-0.00104518
-0.00290029
-0.00122832
-0.00164148
-0.00125881
-0.000538966
-0.00110251
0.000135943
-0.000674909
0.000138294
-0.000922428
0.000926084
-0.000690043
-0.000232385
-6.08198e-05
-0.000629223
0.000542624
-0.000603444
0.00100181
-0.000459183
0.00125838
-0.000256577
0.0013665
-0.000108116
0.00141932
-5.28171e-05
0.00144967
-3.03519e-05
0.00146473
-1.50657e-05
0.00146835
-3.61354e-06
0.00146135
6.9971e-06
0.0014381
2.32518e-05
0.00137958
5.85212e-05
0.00125366
0.000125919
0.00105008
0.000203577
0.000793442
0.000256639
0.000798282
-0.00220746
0.00548444
-0.00329512
0.00218037
-0.00420834
0.00178232
-0.00490611
0.00138663
-0.00538762
0.000953585
-0.00563056
0.000464173
-0.00559452
-0.000105259
-0.00524031
-0.000758046
-0.00456678
-0.00142379
-0.00364272
-0.00196924
-0.00258802
-0.00228302
-0.00154148
-0.00230535
-0.000628641
-0.00201535
9.29621e-05
-0.00139651
0.000872794
-0.000641538
0.00114863
-0.000272052
0.000956848
0.000196141
0.000969537
4.15052e-05
0.000895579
0.000421759
-0.000612639
0.000786647
-0.000994111
0.00109962
-0.000916414
0.00135047
-0.000710036
0.00140694
-0.000313043
0.00141507
-0.000116253
0.0014258
-6.35438e-05
0.00143479
-3.93377e-05
0.00144005
-2.03339e-05
0.00144222
-5.77451e-06
0.00144182
7.38864e-06
0.00143634
2.87316e-05
0.00139989
9.49765e-05
0.00124701
0.000278797
0.00097855
0.000472039
0.000644611
0.000590578
0.00145527
-0.00156234
0.00729721
-0.00251038
0.00312841
-0.00334301
0.00261495
-0.00396558
0.00200919
-0.00441315
0.00140116
-0.00466167
0.000712689
-0.00465599
-0.000110932
-0.00433469
-0.00107935
-0.00371314
-0.00204534
-0.0028887
-0.00279368
-0.00198658
-0.00318514
-0.00112264
-0.00316929
-0.000373437
-0.00276455
0.000240567
-0.00201052
0.000752074
-0.00115304
0.000899424
-0.000419402
0.000707527
0.000388038
0.00168833
0.00143724
-0.00052782
0.00163274
-0.000808141
0.00157514
-0.000936516
0.00160843
-0.000949705
0.0018117
-0.000913304
0.00149881
0.00138271
0.00131932
0.00128014
0.00125996
0.00125434
0.00126188
0.00129077
0.0013859
0.00115887
0.000505823
0.000869988
0.000760921
0.00049889
0.000961677
0.00197273
-0.00109548
0.00871733
-0.00185228
0.00388522
-0.0024366
0.00319928
-0.00288268
0.00245527
-0.00322781
0.00174628
-0.00344067
0.00092555
-0.00344207
-0.000109532
-0.00312365
-0.00139777
-0.00254777
-0.00262122
-0.00184605
-0.0034954
-0.00113039
-0.0039008
-0.000480668
-0.00381902
6.58059e-05
-0.00331103
0.000526404
-0.00247111
0.000902507
-0.00152915
0.00111958
-0.000636477
0.00130377
0.000203853
0.00225753
0.000734559
0.00216771
0.000101765
0.00199494
-0.000355051
0.00190897
-0.000722175
0.00179818
-0.000825719
0.00166598
-0.000817507
0.00143502
-0.000682344
0.00175863
-0.000323765
0.0019363
-0.000177821
0.00206722
-0.000131079
0.00216801
-0.000100939
0.00222823
-6.03781e-05
0.00222567
2.40538e-06
0.00213278
9.27374e-05
0.00191323
0.0002194
0.00150707
0.000406003
0.00126968
0.000743216
0.000902421
0.00112818
0.000384074
0.00148002
0.00238044
-0.000756064
0.00986111
-0.00132705
0.0044562
-0.00150962
0.00338185
-0.00168821
0.00263386
-0.00185319
0.00191126
-0.00196222
0.00103457
-0.00191376
-0.000157995
-0.00155672
-0.00175481
-0.0010557
-0.00312224
-0.000537786
-0.00401331
-7.32925e-05
-0.00436529
0.00030536
-0.00419767
0.00059653
-0.0036022
0.000849412
-0.002724
0.00106876
-0.00174849
0.00127616
-0.000843886
0.00158684
-0.000106824
0.0020304
0.000291001
0.00206427
6.78932e-05
0.00199696
-0.00028774
0.00181246
-0.000537679
0.00162459
-0.000637844
0.0014475
-0.000640416
0.00131882
-0.000553661
0.00137757
-0.000382522
0.00146563
-0.000265881
0.0015501
-0.00021555
0.00163159
-0.000182426
0.00170172
-0.000130512
0.00174075
-3.66247e-05
0.00172469
0.000108803
0.00163843
0.000305664
0.00148619
0.00055824
0.0013301
0.000899302
0.00115112
0.00130716
0.000804084
0.00182706
0.00101981
0.00216472
-0.00109518
0.0021361
-0.00179343
0.000717873
-0.00172066
-0.000638715
0.0109406
-0.00101437
0.00483186
-0.000633425
0.0030009
-0.000448679
0.00244912
-0.000384055
0.00184664
-0.000303694
0.000954215
-5.19033e-05
-0.000409786
0.000334504
-0.00214122
0.000692187
-0.00347992
0.000952033
-0.00427316
0.00109505
-0.00450831
0.00114538
-0.00424799
0.00113928
-0.0035961
0.00111609
-0.00270081
0.00110062
-0.00173303
0.00113279
-0.000876055
0.00126986
-0.000243892
0.00148464
7.62245e-05
0.0015359
1.66272e-05
0.00143793
-0.000189767
0.00126355
-0.000363302
0.00108389
-0.000458177
0.000926582
-0.000483113
0.000821555
-0.000448634
0.000810755
-0.000371722
0.0008601
-0.000315225
0.000936268
-0.000291718
0.00102701
-0.000273172
0.00112584
-0.000229343
0.00122285
-0.000133628
0.00129576
3.58916e-05
0.00133282
0.000268602
0.00134812
0.00054294
0.00138214
0.000865284
0.00148259
0.00120671
0.00168607
0.00162358
0.00203681
0.00181398
0.00233694
0.00183597
0.00182999
0.00122483
0.000174762
-0.00076386
0.0121917
-0.000621472
0.00468947
0.000492298
0.00188713
0.000960653
0.00198076
0.00121802
0.00158928
0.00159952
0.000572707
0.00210281
-0.000913076
0.00243997
-0.00247838
0.00257378
-0.00361372
0.00250622
-0.0042056
0.00227299
-0.00427508
0.00193603
-0.00391103
0.0015591
-0.00321916
0.00120035
-0.00234206
0.000896626
-0.0014293
0.000705092
-0.000684522
0.000653505
-0.000192305
0.000704672
2.50572e-05
0.000712757
8.54225e-06
0.000636496
-0.000113506
0.00050917
-0.000235975
0.00036887
-0.000317878
0.000242968
-0.00035721
0.000156855
-0.000362521
0.000133892
-0.00034876
0.0001629
-0.000344233
0.000222531
-0.000351349
0.000302987
-0.000353628
0.000405275
-0.00033163
0.000534365
-0.000262718
0.00068727
-0.000117013
0.00084521
0.000110662
0.00100721
0.000380937
0.00120906
0.000663433
0.00148366
0.000932116
0.00188404
0.0012232
0.00241743
0.00128059
0.00318504
0.00106837
0.00336162
0.00104825
0.00360519
0.00273595
0.00999913
0.00339173
0.00403369
0.00344938
0.00182948
0.00353507
0.00189508
0.00374635
0.001378
0.00422227
9.67852e-05
0.00469342
-0.00138422
0.00478844
-0.0025734
0.0045141
-0.00333938
0.00396094
-0.00365244
0.00322977
-0.00354391
0.00242477
-0.00310603
0.00162793
-0.00242232
0.000922017
-0.00163615
0.000347351
-0.000854633
-2.52879e-06
-0.000334641
-0.000140839
-5.39945e-05
-0.000155262
3.94805e-05
-0.000163111
1.6391e-05
-0.000215239
-6.13778e-05
-0.000306059
-0.000145156
-0.000412288
-0.000211649
-0.000511608
-0.000257889
-0.000585878
-0.000288251
-0.000623874
-0.000310764
-0.000633085
-0.000335022
-0.000625258
-0.000359176
-0.000604693
-0.000374194
-0.00056641
-0.000369913
-0.00049419
-0.000334938
-0.000356726
-0.000254477
-0.000146595
-9.94689e-05
0.000104171
0.00013017
0.000388867
0.000378738
0.000707311
0.000613672
0.00108959
0.000840925
0.00150689
0.000863286
0.00189864
0.000676619
0.00120604
0.00174085
0.00509764
0.0105981
0.0146276
0.0125614
0.0038956
0.0112293
0.00322724
0.0103408
0.00226647
0.00953398
0.000903614
0.00853155
-0.000381786
0.00735261
-0.00139446
0.00607932
-0.00206609
0.00476047
-0.0023336
0.00342926
-0.0022127
0.00216421
-0.00184098
0.00100937
-0.00126749
5.63271e-05
-0.000683107
-0.000566088
-0.000232218
-0.000859673
-4.10567e-05
-0.000956806
4.31391e-05
-0.000976461
5.91353e-05
-0.000991846
3.17757e-05
-0.00103528
-1.79483e-05
-0.00110785
-7.25778e-05
-0.00119689
-0.000122616
-0.0012887
-0.00016608
-0.00137432
-0.000202627
-0.00145151
-0.00023357
-0.00152705
-0.000259486
-0.00161021
-0.000276018
-0.00170952
-0.000274879
-0.00183466
-0.000244778
-0.00199851
-0.000171083
-0.00221651
-3.64771e-05
-0.00248302
0.000167035
-0.00280699
0.000454143
-0.00327096
0.000842709
-0.00398817
0.00133088
-0.00502971
0.00188247
-0.00651692
0.0023505
-0.00825537
0.00241507
-0.00777182
0.00125729
-0.00235717
0.00895046
0.00560353
0.00747189
0.0047058
0.00708002
0.00265833
0.00672919
0.00125445
0.0061192
0.000228204
0.00524677
-0.000522036
0.00417817
-0.000997485
0.00298276
-0.00113819
0.00169115
-0.000921093
0.000430281
-0.00058011
-0.000609589
-0.000227616
-0.00127079
-2.19054e-05
-0.00156326
6.02542e-05
-0.00167794
7.36155e-05
-0.0017079
7.31061e-05
-0.00171367
6.49005e-05
-0.00172868
4.67913e-05
-0.00176749
2.08559e-05
-0.0018314
-8.6599e-06
-0.00191295
-4.10667e-05
-0.00200446
-7.45742e-05
-0.00210377
-0.00010332
-0.00221221
-0.000125123
-0.00233323
-0.000138467
-0.00246896
-0.000140291
-0.00261827
-0.000125573
-0.00277573
-8.73153e-05
-0.002929
-1.78103e-05
-0.00306255
9.70751e-05
-0.00317483
0.000279311
-0.00327577
0.000555087
-0.00337728
0.000944217
-0.0034861
0.0014397
-0.00356961
0.00196597
-0.00356798
0.00234887
-0.00331002
0.0021571
-0.00195003
-0.000102699
-0.00422387
-0.000826104
0.00648295
0.000742088
0.00313761
0.00140778
0.00199264
0.00164668
0.00101555
0.00158284
0.000292044
0.00121182
-0.000151013
0.00052958
-0.000315249
-0.000363852
-0.000244753
-0.00124116
-4.37861e-05
-0.00188644
6.51708e-05
-0.00222716
0.000113105
-0.00235812
0.000109051
-0.00238121
8.33486e-05
-0.00237098
6.33863e-05
-0.00234991
5.20353e-05
-0.00232934
4.43313e-05
-0.00231835
3.57971e-05
-0.00232222
2.47325e-05
-0.0023416
1.07133e-05
-0.00237544
-7.22242e-06
-0.00242403
-2.59837e-05
-0.00248538
-4.19708e-05
-0.00255739
-5.31112e-05
-0.00263755
-5.8312e-05
-0.00272179
-5.60535e-05
-0.00280352
-4.38345e-05
-0.00287329
-1.75444e-05
-0.00291854
2.74363e-05
-0.00291852
9.7057e-05
-0.00284796
0.000208749
-0.00267231
0.000379438
-0.00236025
0.000632156
-0.00190394
0.00098339
-0.00128937
0.0013514
-0.000299683
0.00135919
0.00114765
0.000709768
0.00164261
-0.000597662
-0.00248957
-0.0120486
-0.0155771
-0.00905366
-0.00588863
-0.00387372
-0.00283957
-0.0025325
-0.00267151
-0.00297683
-0.00321308
-0.0032492
-0.00317674
-0.0030565
-0.00294033
-0.00284986
-0.00277933
-0.00272011
-0.00266856
-0.0026255
-0.00259346
-0.00257543
-0.00257538
-0.00259417
-0.00262906
-0.00267522
-0.00272672
-0.00277613
-0.00281348
-0.00282475
-0.00279123
-0.00268831
-0.00247394
-0.00208913
-0.00145186
-0.000463663
0.000892163
0.00225549
0.00296931
0.00237583
)
;

boundaryField
{
    floor
    {
        type            calculated;
        value           nonuniform List<scalar> 
36
(
0
0
0
0
0
0
0
0
0
0
0
0
0
0
0
0
0
0
0
-4.83914e-06
-1.23782e-05
-1.85697e-05
-2.36403e-05
-2.11162e-05
-1.96191e-05
-1.84535e-05
-2.35097e-06
-3.78399e-06
-4.35946e-06
-5.04476e-06
-3.65659e-06
-7.64391e-06
-1.10004e-05
-1.12623e-05
-1.38364e-05
-1.19394e-05
)
;
    }
    ceiling
    {
        type            calculated;
        value           nonuniform List<scalar> 
43
(
-4.18439e-05
-4.11785e-05
-4.04782e-05
-2.74141e-05
-2.22701e-05
-1.86049e-05
-1.5029e-05
-1.20046e-05
-9.92936e-06
-8.5021e-06
-7.66631e-06
-7.28576e-06
-7.13804e-06
-7.11128e-06
-7.12499e-06
-7.14636e-06
-7.17756e-06
-7.22038e-06
-7.26669e-06
-7.30729e-06
-7.31489e-06
-7.27617e-06
-7.19269e-06
-7.08115e-06
-6.95231e-06
-6.80918e-06
-6.64853e-06
-6.47528e-06
-6.28376e-06
-6.07866e-06
-5.85902e-06
-5.62513e-06
-5.37651e-06
-5.10585e-06
-4.81123e-06
-4.42483e-06
-4.13951e-06
-4.04927e-06
-4.18131e-06
-3.60358e-06
6.94076e-06
4.1789e-06
-5.3314e-05
)
;
    }
    sWall
    {
        type            calculated;
        value           uniform -0.000241399;
    }
    nWall
    {
        type            calculated;
        value           nonuniform List<scalar> 6(-5.43171e-05 -6.54339e-05 -6.88139e-05 -8.33262e-05 -9.16851e-05 -0.00011014);
    }
    sideWalls
    {
        type            empty;
        value           nonuniform 0();
    }
    glass1
    {
        type            calculated;
        value           nonuniform List<scalar> 9(-6.04583e-05 -0.000163402 -0.000250424 -0.000324645 -0.000387723 -0.000440785 -0.000487273 -0.000543334 -0.000605862);
    }
    glass2
    {
        type            calculated;
        value           nonuniform List<scalar> 2(-0.000286411 -0.000317012);
    }
    sun
    {
        type            calculated;
        value           uniform 0;
    }
    Table_master
    {
        type            calculated;
        value           nonuniform List<scalar> 9(-1.5364e-07 -1.53789e-07 -1.53839e-07 -1.53869e-07 -1.53889e-07 -1.53902e-07 -1.53906e-07 -1.539e-07 -1.5387e-07);
    }
    Table_slave
    {
        type            calculated;
        value           nonuniform List<scalar> 9(1.5353e-07 1.53515e-07 1.53468e-07 1.53431e-07 1.53408e-07 1.53408e-07 1.53413e-07 1.53451e-07 1.53535e-07);
    }
    inlet
    {
        type            calculated;
        value           uniform -0.0106584;
    }
    outlet
    {
        type            calculated;
        value           nonuniform List<scalar> 2(0.0123318 0.00356969);
    }
}


// ************************************************************************* //
