/*--------------------------------*- C++ -*----------------------------------*=========                 |
  \      /  F ield         | OpenFOAM: The Open Source CFD Toolbox
   \    /   O peration     | Website:  https://openfoam.org
    \  /    A nd           | Version:  6
     \/     M anipulation  |
\*---------------------------------------------------------------------------*/
FoamFile
{
    version     2.0;
    format      ascii;
    class       volScalarField;
    location    "480";
    object      PPD;
}
// * * * * * * * * * * * * * * * * * * * * * * * * * * * * * * * * * * * * * //

dimensions      [0 0 0 0 0 0 0];

internalField   nonuniform List<scalar> 
458
(
41.55844778295608
29.56279932750182
28.101938340830287
26.851398083283897
26.070650371319047
25.713958866551692
25.82969163578275
26.465289660392145
27.718374848580538
29.87601169176959
33.183862424657676
36.52779772655306
37.31250776691178
37.74327996355867
38.34469660334491
44.43170505190657
43.725389389109026
43.5241360854269
43.87649283161238
44.153872879289324
44.35588847578263
44.10843715205918
43.902239496481656
43.95006666938708
44.072280861498704
44.22751537573118
44.398124105942806
44.65157592867834
45.01625343468088
45.61395485185067
46.107524828601655
46.36265665282414
47.1297816861638
38.11719902510573
30.111876594697847
29.55966223839431
28.29457597803419
27.563821777974624
27.20566432896652
27.263025964625214
27.61452050157385
28.251925327973765
29.356444762478148
31.198465132855958
34.12698569373856
37.169343631425996
37.71929827556277
37.877853741844305
35.83830153703774
35.913492848379235
37.075642755641134
42.05689514753895
43.02212021020534
42.99706219639112
43.42360409877533
43.55118066427949
43.53646938728299
43.56438529254863
43.64829105429984
43.71009867184333
43.72459527304502
43.77239956993342
43.81540107915344
43.92353449268483
44.08807544893217
44.54279193889847
45.03939637960606
45.39480156893642
44.5803333270363
39.703711327342106
29.71337414993465
31.055259463686554
30.37193930711834
30.070343574872638
29.913217008009426
29.9166852309409
29.73216272636408
29.11486325047494
28.59065302398541
29.09581030571563
31.37613976449559
35.828419894775806
38.05556938561194
38.36882739699898
38.51373026523128
38.426312877890666
37.55843213530101
37.44183686180315
40.60262587822481
41.083958413400694
41.54322592603028
42.131827143869685
42.35305662803537
43.54174520019856
44.35588847578263
44.38115701404333
44.40642920905281
44.40642920905281
44.43170505190657
44.48226764549866
44.50755437839667
44.68466214866716
44.861943843752684
44.493393342699704
40.73995187122136
43.56077401121835
29.43700488763679
32.18163856010564
32.71212125669926
33.53552486223879
34.096676239011146
34.19514997338784
32.991969739808496
30.26109700833878
27.869064979710686
27.386126238225515
29.488553817748837
33.8340727707142
38.38238295882051
39.07104218746394
39.143948391313025
37.66490904349003
36.462160579254196
34.05473643382362
37.29074302692303
39.13617885827069
40.52482864421747
42.12190327561876
43.97002341884184
45.409837793265034
45.11860560551043
44.854494866668695
44.8322946527299
44.90996791037404
45.08323751993506
45.468373256839236
46.204087434673525
47.45624956672415
47.36902800022399
46.566974609301695
43.469831502575694
38.491101963284194
48.5847147162983
29.814716238190314
33.01212579540646
34.85500645022135
37.62314681871887
40.035710883070614
40.447158954941386
36.605695056418696
31.203205228597525
27.2155285280502
26.1378881255162
28.318172867284503
32.693013669338114
37.74141311697235
40.09607467532795
40.194174817127944
39.44172596134233
38.01591999882337
37.96910833040591
38.81201856245031
40.44963861570975
42.57458436809713
44.839461360588004
47.027720734684486
48.61945634207051
49.26241591195848
49.32968221598195
49.35113434867434
49.30031690001947
49.15356385462381
49.05368867821625
49.04821557738843
49.004462541665994
48.173948632720226
46.692943471419795
42.690028774307834
42.6843863966582
42.620876769506076
47.12901021645344
40.711450761355565
53.884901946151416
31.19470960036969
34.514968839522794
36.429545002194324
40.77516995056521
44.7099775284333
46.32360034211593
37.97486505600176
31.083943072091714
26.456710650776202
25.28640876976533
27.63615913910722
32.54587685921743
38.38812250878142
41.575856328221114
41.87386285783843
41.74961360420084
41.82414954764902
42.32472544513283
43.46592016288335
45.28813626802155
47.1297816861638
48.64520788669003
49.90940566269082
50.86662646241996
51.5143864667247
51.955223228167554
52.21465107107227
52.31844247461474
52.29249360523771
52.03304358339088
51.669946132034724
50.744928642501826
49.120256238447524
47.09760515253416
43.310650172633125
42.942942931254564
42.60368017872612
43.935289213150675
44.352028923117615
58.904251899207104
35.329646491576526
40.499249043026474
39.406352468453626
42.314479714742376
46.566974609301695
42.75592915156673
36.448251265849365
29.66007445911194
25.20404743651656
24.51231405373555
27.67020208331313
33.68999940931283
40.8997561808688
43.64989001342219
44.20435453586843
44.22960094696492
44.53284472346418
45.521889855112214
46.95056211439675
48.490730368624405
49.98694292792105
51.25519993799114
52.240597893119464
52.91542811122166
53.330861904363495
53.56457489178726
53.64248249648993
53.590543946383896
53.43473224354238
53.0712054007414
52.55201083362029
51.955223228167554
51.035211950733085
48.61057241412382
45.25559269145811
43.701919380441716
42.60002155163067
41.16684460514856
46.74246407988804
66.38344584699394
54.964995690616405
51.807788463702956
45.5510184755493
44.43055730919214
43.78902676071271
39.896296089322895
32.71969907776786
26.02426076199211
22.808540725453582
23.81651269539543
28.991906744385915
37.188624647267794
44.254851068115435
46.38818618747746
47.05295713260041
47.25787573526891
47.82225017178689
48.902836877456146
50.2196389062459
51.5143864667247
52.629877558082
53.51263727603933
54.08397257980346
54.421575692600534
54.57738325269081
54.603350363534766
54.551415891077994
54.39560704901694
54.16188258102831
53.82427094739527
53.330861904363495
52.75966603805988
52.11087091763573
51.358862121045064
50.53008651388972
50.00444756071766
48.523437561618394
44.304795682297524
39.813502068649115
76.6139169340747
69.56482857407131
61.147074502514435
53.41612008925102
48.45504939310362
44.48224848835239
34.23948158619514
24.350953567150796
19.500661143051246
19.71706161297719
24.440911977991803
33.83210504260978
43.624731368073014
47.79657076836404
49.341258907339444
50.012791854322074
50.478331097451935
51.151555089231216
52.11087091763573
53.0971696034181
53.95412172501346
54.62931721300065
54.93328197726677
54.70442351859159
54.40147911603374
54.06375370892795
53.651598136998366
53.16709994818435
52.61842280507031
51.97664573260872
51.267674009899565
50.46434056414569
49.68568227368697
48.780282457505926
47.711403492399974
46.768231525077226
46.14113236845088
45.900942417282955
45.38355687021191
43.737914692063256
60.19595721765196
17.599115018246835
6.031392594015131
5.01689787807004
5.307142436126128
7.090428228978311
11.811157696279977
20.439082694260037
33.14784985522441
43.80092374065553
48.95438693896931
49.78311267855876
50.27851412937995
50.73547507677148
51.35193985018253
52.05602833136243
52.7327147410262
53.21637570210028
53.47089372693209
53.51104067247831
53.36481130944985
53.11735381014575
52.76301460781009
52.34457983352758
51.8874526470145
51.40527204874566
50.95035001534076
50.53091135029696
50.228296550628095
49.997837669540644
49.849581820729796
49.7247685404938
49.62373264690383
49.639976550041474
50.21220458988929
52.21290410750215
55.88976382932668
47.65168801846623
60.774072286999804
12.529923647361798
5.008411071182891
6.865705692769367
10.61663365510259
17.978490899623466
29.002849849565592
39.900119566108685
44.52848164841216
46.96665762469368
48.521489088715555
49.40416451192339
50.02740350313387
50.52592382448814
50.99823003797633
51.40662112099728
51.7664462506648
52.03835465888806
52.19622639241067
52.20758397709214
52.155940945187226
52.02170457559557
51.86563160789838
51.669487381414555
51.4954352836257
51.32668756333563
51.20196491908919
51.1196533531125
51.104259691472095
51.25162194241565
51.62198909237122
52.225589968299964
52.91837051268965
53.45567029494864
54.04040568673377
55.9583885505854
53.09931793427305
49.96039222708353
31.918308057889732
31.88419092258775
26.371715963691997
5.837357614814408
8.129529029559876
18.773757710025464
30.72784236616947
37.70128420949334
42.19373090917631
44.99583552730358
46.838581844395115
48.12349573305748
48.93525633800898
49.400246110337314
49.716323578301086
49.89097860611934
49.997992405373395
50.00034567109878
49.91382877280604
49.78498527563384
49.62308776692979
49.48067787049887
49.31091704063996
49.174114464359114
49.076208766572655
49.02618442802779
49.03740361367244
49.1016875873751
49.302605913213576
49.652283499898715
50.15559134600476
50.92727405998791
52.187841675741346
54.390631788970566
57.533309701252655
57.84363128821504
56.3162995607956
53.119445086099674
50.33798135610202
51.060442207098745
)
;

boundaryField
{
    ".*"
    {
        type            zeroGradient;
    }
}


// ************************************************************************* //
