/*--------------------------------*- C++ -*----------------------------------*\
  =========                 |
  \\      /  F ield         | OpenFOAM: The Open Source CFD Toolbox
   \\    /   O peration     | Website:  https://openfoam.org
    \\  /    A nd           | Version:  6
     \\/     M anipulation  |
\*---------------------------------------------------------------------------*/
FoamFile
{
    version     2.0;
    format      ascii;
    class       volScalarField;
    location    "480";
    object      T;
}
// * * * * * * * * * * * * * * * * * * * * * * * * * * * * * * * * * * * * * //

dimensions      [0 0 0 1 0 0 0];

internalField   nonuniform List<scalar> 
458
(
301.783
301.484
301.47
301.466
301.462
301.458
301.454
301.449
301.441
301.435
301.436
301.45
301.483
301.501
301.526
301.772
301.744
301.736
301.75
301.761
301.769
301.776
301.783
301.79
301.797
301.804
301.81
301.817
301.824
301.831
301.838
301.848
301.878
301.979
301.513
301.484
301.483
301.483
301.481
301.477
301.465
301.444
301.423
301.417
301.438
301.477
301.5
301.514
301.524
301.535
301.561
301.781
301.716
301.715
301.732
301.749
301.755
301.759
301.762
301.765
301.767
301.77
301.772
301.776
301.78
301.786
301.796
301.81
301.86
302.187
301.558
301.513
301.521
301.532
301.539
301.538
301.517
301.471
301.421
301.401
301.428
301.481
301.514
301.527
301.533
301.539
301.558
301.725
301.698
301.708
301.737
301.768
301.768
301.768
301.769
301.77
301.771
301.771
301.772
301.774
301.775
301.782
301.789
301.802
301.855
302.401
301.619
301.549
301.569
301.599
301.625
301.634
301.602
301.515
301.423
301.383
301.416
301.486
301.535
301.556
301.559
301.557
301.561
301.574
301.603
301.653
301.711
301.767
301.814
301.851
301.876
301.896
301.912
301.924
301.933
301.94
301.946
301.948
301.901
301.856
301.83
301.861
302.614
301.698
301.587
301.611
301.664
301.72
301.752
301.701
301.563
301.425
301.365
301.405
301.491
301.564
301.598
301.602
301.596
301.595
301.613
301.654
301.713
301.778
301.841
301.893
301.936
301.966
301.987
302.003
302.013
302.016
302.014
302.008
301.995
301.962
301.911
301.865
301.866
301.997
302.08
302.079
302.81
301.802
301.643
301.644
301.702
301.783
301.859
301.776
301.589
301.418
301.348
301.395
301.505
301.605
301.658
301.67
301.665
301.668
301.696
301.749
301.812
301.878
301.937
301.986
302.023
302.048
302.065
302.075
302.079
302.078
302.068
302.054
302.034
302.003
301.957
301.906
301.885
301.943
301.977
302.026
302.981
301.974
301.787
301.742
301.772
301.856
301.916
301.797
301.574
301.384
301.319
301.391
301.535
301.668
301.741
301.763
301.764
301.776
301.815
301.871
301.931
301.989
302.038
302.076
302.102
302.118
302.127
302.13
302.128
302.122
302.108
302.088
302.065
302.035
301.996
301.951
301.923
301.936
301.954
301.988
303.232
302.48
302.251
302.097
302.04
302.077
301.996
301.749
301.465
301.283
301.268
301.404
301.602
301.765
301.849
301.875
301.883
301.905
301.947
301.998
302.048
302.091
302.125
302.147
302.16
302.166
302.167
302.165
302.159
302.15
302.137
302.118
302.096
302.071
302.042
302.01
301.994
302.006
302.035
302.219
303.591
303.241
302.952
302.681
302.486
302.321
301.914
301.458
301.161
301.092
301.219
301.48
301.74
301.904
301.964
301.99
302.008
302.034
302.071
302.109
302.142
302.168
302.185
302.194
302.197
302.197
302.194
302.189
302.183
302.176
302.171
302.169
302.169
302.176
302.193
302.224
302.268
302.314
302.349
302.426
296.295
298.193
299.215
299.509
299.746
300.062
300.468
300.901
301.321
301.747
301.949
302.039
302.078
302.099
302.12
302.143
302.168
302.19
302.207
302.218
302.223
302.225
302.224
302.222
302.22
302.218
302.217
302.216
302.217
302.218
302.223
302.233
302.251
302.277
302.311
302.345
302.372
302.397
296.584
298.24
299.055
299.51
299.968
300.526
301.116
301.59
301.865
302.029
302.11
302.148
302.171
302.188
302.204
302.218
302.231
302.241
302.247
302.249
302.25
302.249
302.248
302.246
302.245
302.244
302.244
302.244
302.244
302.246
302.25
302.257
302.27
302.288
302.311
302.338
302.339
302.376
298.084
298.045
298.042
299.328
300.16
300.929
301.53
301.816
301.999
302.105
302.166
302.207
302.234
302.251
302.264
302.273
302.281
302.287
302.291
302.293
302.293
302.293
302.291
302.289
302.287
302.285
302.283
302.28
302.278
302.276
302.274
302.273
302.273
302.275
302.28
302.292
302.305
302.316
302.321
302.363
)
;

boundaryField
{
    floor
    {
        type            wallHeatTransfer;
        Tinf            uniform 305.2;
        alphaWall       uniform 0.24;
        value           nonuniform List<scalar> 
36
(
301.938
302.379
302.292
302.24
302.237
302.253
302.283
302.317
302.35
302.383
302.414
302.445
302.474
302.502
302.529
302.557
302.588
302.612
302.675
302.675
302.541
302.468
302.421
302.435
302.492
302.469
301.938
301.872
301.923
302
302.379
302
302.392
301.963
302.206
301.949
)
;
    }
    ceiling
    {
        type            wallHeatTransfer;
        Tinf            uniform 303.2;
        alphaWall       uniform 0.24;
        value           nonuniform List<scalar> 
43
(
298.382
298.34
298.332
299.527
300.329
301.076
301.659
301.933
302.108
302.21
302.268
302.309
302.336
302.354
302.367
302.377
302.385
302.393
302.398
302.402
302.404
302.404
302.404
302.402
302.401
302.398
302.395
302.391
302.387
302.383
302.378
302.373
302.369
302.367
302.367
302.374
302.384
302.395
302.404
302.447
303.574
303.239
296.981
)
;
    }
    sWall
    {
        type            wallHeatTransfer;
        Tinf            uniform 315.2;
        alphaWall       uniform 0.36;
        value           uniform 299.54;
    }
    nWall
    {
        type            wallHeatTransfer;
        Tinf            uniform 307.2;
        alphaWall       uniform 0.36;
        value           nonuniform List<scalar> 6(302.984 302.916 302.778 303.058 303.033 303.061);
    }
    sideWalls
    {
        type            empty;
    }
    glass1
    {
        type            wallHeatTransfer;
        Tinf            uniform 315.2;
        alphaWall       uniform 4.3;
        value           nonuniform List<scalar> 9(310.82 310.136 309.708 309.386 309.122 308.88 308.675 308.742 308.985);
    }
    glass2
    {
        type            wallHeatTransfer;
        Tinf            uniform 307.2;
        alphaWall       uniform 4.3;
        value           nonuniform List<scalar> 2(305.194 305.359);
    }
    sun
    {
        type            wallHeatTransfer;
        Tinf            uniform 305.2;
        alphaWall       uniform 0.24;
        value           nonuniform List<scalar> 
14
(
302.129
301.835
301.815
301.798
301.784
301.77
301.756
301.742
301.729
301.721
301.724
301.745
301.805
301.865
)
;
    }
    Table_master
    {
        type            zeroGradient;
    }
    Table_slave
    {
        type            zeroGradient;
    }
    inlet
    {
        type            fixedValue;
        value           uniform 293.15;
    }
    outlet
    {
        type            zeroGradient;
    }
}


// ************************************************************************* //
