/*--------------------------------*- C++ -*----------------------------------*\
  =========                 |
  \\      /  F ield         | OpenFOAM: The Open Source CFD Toolbox
   \\    /   O peration     | Website:  https://openfoam.org
    \\  /    A nd           | Version:  6
     \\/     M anipulation  |
\*---------------------------------------------------------------------------*/
FoamFile
{
    version     2.0;
    format      ascii;
    class       surfaceScalarField;
    location    "45400.0000002620727";
    object      phi;
}
// * * * * * * * * * * * * * * * * * * * * * * * * * * * * * * * * * * * * * //

dimensions      [1 0 -1 0 0 0 0];

internalField   nonuniform List<scalar> 
1482
(
-0.00279975
0.00286378
-0.003484
0.00068425
-0.0041448
0.000660809
-0.00475903
0.000614222
-0.00528051
0.000521487
-0.00569248
0.000411966
-0.00598367
0.000291187
-0.006141
0.000157335
-0.00614716
6.1541e-06
-0.00597617
-0.000170985
-0.00559815
-0.000378026
-0.00498212
-0.000616031
-0.00405796
-0.000924153
-0.00257946
-0.0014785
-0.00257654
-6.41126e-05
6.89666e-05
0.000779127
-0.00084324
0.00143111
-0.000651987
0.00182989
-0.000398775
0.00205094
-0.000221054
0.00215513
-0.000104186
0.00220259
-4.74616e-05
0.00222555
-2.29545e-05
0.00223534
-9.79155e-06
0.00223619
-8.51534e-07
0.00222906
7.13341e-06
0.00221
1.90556e-05
0.00216575
4.42497e-05
0.00206313
0.000102616
0.00184681
0.000216329
0.00149009
0.00035671
0.00101999
0.000470104
0.00102643
-0.00204035
0.00507446
-0.00290849
0.00155238
-0.00369443
0.00144675
-0.00434561
0.0012654
-0.00488301
0.00105888
-0.00531186
0.000840821
-0.00563036
0.000609685
-0.00583168
0.000358651
-0.00590513
7.961e-05
-0.00584292
-0.000233194
-0.00563928
-0.000581668
-0.00528293
-0.000972384
-0.00477271
-0.00143437
-0.00428663
-0.00196458
-0.00470217
-0.002161
-0.00311594
-0.00158079
-0.00163288
-0.00147738
-0.00161803
0.00131801
-0.00123883
0.00166181
-0.00118704
0.00191252
-0.000902696
0.00210257
-0.00058883
0.00220888
-0.000327363
0.00221749
-0.000112796
0.00221951
-4.94764e-05
0.0022212
-2.46447e-05
0.00222223
-1.08224e-05
0.00222227
-8.94094e-07
0.0022209
8.50086e-06
0.00221668
2.32772e-05
0.00220403
5.69024e-05
0.0021421
0.000164542
0.00189248
0.000465954
0.00146351
0.000785682
0.000901418
0.00103219
0.00194473
-0.00148822
0.00682061
-0.0023591
0.00242326
-0.00312915
0.00221681
-0.00371349
0.00184973
-0.00418426
0.00152966
-0.00455579
0.00121234
-0.00482983
0.000883731
-0.00500314
0.000531961
-0.00506931
0.000145777
-0.00501928
-0.000283224
-0.00484235
-0.000758598
-0.00453114
-0.00128359
-0.00411652
-0.00184899
-0.00371918
-0.00236193
-0.003299
-0.00258117
-0.00236802
-0.00251177
-0.00127445
-0.00257095
-0.00287964
0.00114956
-0.00237394
0.00165275
-0.00169023
0.00195056
-0.0012005
0.0021424
-0.000780672
0.0021706
-0.00035557
0.00205796
0.00200864
0.00198415
0.00197348
0.00197274
0.0019814
0.00200483
0.00206188
0.00222658
0.00186745
0.000825087
0.00141943
0.0012337
0.000801444
0.00165018
0.00277221
-0.00110601
0.00825783
-0.00192788
0.00324513
-0.00256995
0.00285888
-0.00303036
0.00231014
-0.00339797
0.00189727
-0.00368683
0.0015012
-0.0038999
0.0010968
-0.00403531
0.000667374
-0.00408553
0.000195998
-0.00403738
-0.000331379
-0.0038786
-0.000917374
-0.00360516
-0.00155703
-0.00323971
-0.00221443
-0.00281811
-0.00278352
-0.00227913
-0.00312015
-0.00155993
-0.00323097
-0.000872051
-0.00325882
-0.000692396
-0.0030593
0.0014435
-0.00212045
0.00137516
-0.00230559
0.00169053
-0.0020056
0.00200295
-0.00151292
0.00226921
-0.00104693
0.00254601
-0.000632369
0.00285841
-0.000312557
0.00302482
-0.000166563
0.00308926
-6.45989e-05
0.00307218
1.69349e-05
0.00298224
8.97804e-05
0.00282033
0.000161759
0.00257847
0.000241701
0.00223364
0.000344683
0.00172855
0.000504936
0.00159177
0.000961862
0.00126367
0.0015618
0.000737475
0.00217637
0.003544
-0.000803705
0.00945474
-0.00157979
0.00402122
-0.00204843
0.00332752
-0.00236416
0.00262587
-0.00260859
0.0021417
-0.00279421
0.00168681
-0.00292599
0.00122858
-0.00300463
0.000746018
-0.00302356
0.000214924
-0.00296612
-0.000388816
-0.00281909
-0.0010644
-0.00257559
-0.00180054
-0.00224225
-0.00254777
-0.00182625
-0.00319951
-0.00132137
-0.00362503
-0.000745283
-0.00380706
-0.000214378
-0.00378972
0.000262899
-0.00353657
0.00112368
-0.00298123
0.00148903
-0.00267094
0.00174757
-0.00226415
0.00199979
-0.00176514
0.00222955
-0.00127669
0.0024437
-0.000846522
0.00264429
-0.000513142
0.002754
-0.00027628
0.00279018
-0.000100777
0.00276449
4.26223e-05
0.00268329
0.000170983
0.00254897
0.000296078
0.00236021
0.000430463
0.00211446
0.000590436
0.00181961
0.000799779
0.00161279
0.00116868
0.00146965
0.00170495
0.00128767
0.00235835
0.00227091
0.00256076
0.00132059
0.000985247
0.00191036
-0.000561241
0.00202902
-0.000575759
0.0104769
-0.00132458
0.00477004
-0.00158414
0.00358708
-0.00175006
0.00279179
-0.00186413
0.00225577
-0.00193576
0.00175844
-0.00197139
0.00126421
-0.00197529
0.000749915
-0.00194426
0.000183899
-0.00185648
-0.000476594
-0.00170214
-0.00121874
-0.00147132
-0.00203136
-0.00116696
-0.00285213
-0.000794986
-0.00357148
-0.000375451
-0.00404457
6.46535e-05
-0.00424716
0.000469698
-0.00419477
0.000843893
-0.00391077
0.00129454
-0.00343188
0.00159285
-0.00296924
0.00179571
-0.002467
0.00196681
-0.00193624
0.00211821
-0.00142809
0.00225249
-0.000980797
0.00235708
-0.000617732
0.0024151
-0.0003343
0.00242632
-0.000111998
0.00239596
7.29811e-05
0.00232876
0.000238179
0.00222842
0.000396415
0.0020988
0.000560082
0.00194666
0.000742583
0.00178605
0.000960388
0.00169282
0.00126191
0.00174567
0.00165209
0.00195071
0.00215332
0.00218757
0.0023239
0.0017048
0.00146802
0.000785708
0.000357854
0.00291221
-0.000543287
0.0115124
-0.00124338
0.00547013
-0.00119159
0.00353529
-0.00119998
0.00280018
-0.00119246
0.00224825
-0.00115921
0.0017252
-0.00110238
0.00120737
-0.00102763
0.000675169
-0.00092966
8.59288e-05
-0.00078106
-0.000625194
-0.000592078
-0.00140773
-0.000352133
-0.00227131
-6.83381e-05
-0.00313593
0.000236662
-0.00387649
0.00054683
-0.00435474
0.00084209
-0.00454243
0.001105
-0.00445768
0.00133817
-0.00414393
0.00156958
-0.00366329
0.00172873
-0.00312839
0.00182808
-0.00256635
0.00189759
-0.00200575
0.00195294
-0.00148344
0.00199929
-0.00102714
0.00203132
-0.000649771
0.0020434
-0.00034638
0.00203219
-0.000100782
0.00199843
0.000106737
0.00194516
0.00029145
0.00187602
0.000465559
0.00179594
0.000640156
0.00171304
0.00082549
0.00164164
0.00103178
0.00162406
0.00127949
0.00170396
0.0015722
0.00190259
0.00195469
0.00214375
0.00208274
0.00216189
0.00144988
0.00162503
0.000894718
0.00463985
-0.000483449
0.0125314
-0.00105128
0.00603797
-0.000697036
0.00318104
-0.000636247
0.00273939
-0.000568023
0.00218003
-0.000463635
0.00162081
-0.000335045
0.00107878
-0.000184421
0.000524545
4.29153e-06
-0.000102784
0.000222007
-0.000842909
0.000461411
-0.00164713
0.000719085
-0.00252898
0.000976327
-0.00339318
0.00120556
-0.00410572
0.00140551
-0.0045547
0.00156724
-0.00470416
0.00168535
-0.0045758
0.0017646
-0.00422318
0.00181745
-0.00371614
0.00182711
-0.00313805
0.00180187
-0.00254111
0.00176072
-0.0019646
0.00171856
-0.00144129
0.00168287
-0.000991448
0.0016537
-0.000620597
0.00162725
-0.000319926
0.0015988
-7.23321e-05
0.00156618
0.000139349
0.00152965
0.000327986
0.00149044
0.000504765
0.00145151
0.000679091
0.00141859
0.000858401
0.00140168
0.00104869
0.00142242
0.00125875
0.00150575
0.00148887
0.00169677
0.00176367
0.00195303
0.00182647
0.00208088
0.00132204
0.0016965
0.0012791
0.00670107
0.00297725
0.0101413
0.00202173
0.00699348
0.00086868
0.0043341
0.000370468
0.0032376
0.000213658
0.00233684
0.000269883
0.00156458
0.000423356
0.000925312
0.000636653
0.000311248
0.000895352
-0.000361483
0.00115953
-0.00110708
0.00143766
-0.00192526
0.00170474
-0.00279607
0.00193138
-0.00361982
0.00209316
-0.0042675
0.00218395
-0.0046455
0.00220623
-0.00472645
0.00216874
-0.00453832
0.00208512
-0.00413956
0.00197063
-0.00360165
0.00183093
-0.00299836
0.00167823
-0.0023884
0.00152937
-0.00181573
0.00139899
-0.00131091
0.00129533
-0.000887783
0.00121978
-0.000545054
0.00116781
-0.000267957
0.00113236
-3.68777e-05
0.00110828
0.000163431
0.00109218
0.000344078
0.0010819
0.000515052
0.00107739
0.000683601
0.0010811
0.000854684
0.00109801
0.00103179
0.00113783
0.00121893
0.00121119
0.00141552
0.00134466
0.0016302
0.00150539
0.00166574
0.00154487
0.00128258
0.000202561
0.00262147
0.0072877
0.00403101
0.00625052
0.00366692
0.00735757
0.00254139
0.00545963
0.00188821
0.00389078
0.0015317
0.00269335
0.00138682
0.00170947
0.00142036
0.000891766
0.00159422
0.000137385
0.00184557
-0.000612831
0.00212201
-0.00138352
0.00240134
-0.00220459
0.0026464
-0.00304113
0.00281553
-0.00378895
0.00288158
-0.00433357
0.00284111
-0.00460504
0.00270778
-0.00459313
0.0025038
-0.00433434
0.00225346
-0.00388923
0.00197954
-0.00332774
0.00169919
-0.002718
0.00142956
-0.00211878
0.0011884
-0.00157458
0.000990445
-0.00111295
0.000841982
-0.000739321
0.000742293
-0.000445365
0.000683015
-0.000208679
0.000653546
-7.40836e-06
0.000645277
0.000171699
0.000651427
0.000337929
0.000667297
0.000499183
0.000690713
0.000660184
0.000721281
0.000824116
0.000759112
0.000993958
0.000803494
0.00117455
0.000843149
0.00137586
0.000827945
0.0016454
0.000445212
0.00204846
-0.00122742
0.00295543
-0.00267991
0.00407422
0.00471111
0.00240906
0.00400599
0.00330381
0.00646282
0.00324781
0.00551563
0.00303712
0.00410148
0.00284609
0.00288438
0.00272267
0.00183289
0.00270845
0.000905978
0.00279686
4.89795e-05
0.00295803
-0.000774006
0.00316797
-0.00159346
0.00338506
-0.00242169
0.00354941
-0.00320547
0.00360622
-0.00384576
0.00352874
-0.0042561
0.00332227
-0.00439858
0.00301286
-0.00428373
0.0026349
-0.00395639
0.00222181
-0.00347614
0.00180318
-0.00290912
0.00140256
-0.00231738
0.00104135
-0.00175757
0.000738656
-0.00127188
0.000508408
-0.000882703
0.00034918
-0.000580093
0.00025307
-0.000349255
0.000204377
-0.000159986
0.000189994
6.97441e-06
0.000199586
0.000162107
0.000225034
0.00031248
0.000261558
0.000462659
0.000306293
0.000615448
0.000357269
0.000773141
0.00041209
0.000939137
0.000467441
0.0011192
0.000510301
0.001333
0.000486307
0.00166938
0.000247624
0.00228703
-5.92977e-05
0.00326221
-0.000261196
0.00427618
0.00456362
0.00145624
0.00274399
0.00274749
0.00517157
0.00343192
0.00483119
0.00371836
0.00381504
0.00381701
0.00278572
0.00384497
0.00180493
0.00388055
0.000870397
0.00394893
-1.94032e-05
0.00405811
-0.000883193
0.00419742
-0.00173276
0.00431564
-0.00253991
0.00434221
-0.00323204
0.00422554
-0.00372909
0.00395334
-0.0039839
0.00354807
-0.00399332
0.00304962
-0.00378528
0.00250201
-0.00340879
0.00194405
-0.00291819
0.00140985
-0.00237492
0.000925832
-0.00183336
0.00051851
-0.00135025
0.000205111
-0.000958484
-8.83145e-06
-0.000668761
-0.000138915
-0.00045001
-0.000208606
-0.000279564
-0.000237973
-0.000130619
-0.000238448
7.44849e-06
-0.000217412
0.00014107
-0.000180083
0.00027515
-0.000130237
0.000412813
-7.11891e-05
0.0005564
-6.27996e-06
0.000708232
6.06941e-05
0.000872163
0.00012674
0.00105315
0.000180643
0.0012791
0.000145317
0.00170464
2.31743e-05
0.00240882
0.000323278
0.00296166
0.000518413
0.00408075
0.00520454
0.00216814
0.000801808
0.00294121
0.0043985
0.00359343
0.00417897
0.00416479
0.00324368
0.00449316
0.00245735
0.00466755
0.00163055
0.00478392
0.000754022
0.00488761
-0.000123093
0.00499261
-0.000988191
0.00506941
-0.00180955
0.00505262
-0.0025231
0.0048821
-0.00306151
0.00453526
-0.00338224
0.00403104
-0.00347967
0.00341461
-0.0033769
0.00273718
-0.00310784
0.00204772
-0.00271933
0.00138447
-0.00225494
0.000786347
-0.0017768
0.000278805
-0.00132582
-0.000102756
-0.00096869
-0.000355162
-0.000706077
-0.000505833
-0.000518089
-0.000590081
-0.000365762
-0.000634854
-0.000234793
-0.000650988
-0.000114487
-0.000643938
3.97128e-07
-0.00061706
0.000114191
-0.000572992
0.000231082
-0.000515084
0.000354904
-0.000447927
0.000489243
-0.000378038
0.000638343
-0.000314771
0.000808898
-0.000275441
0.00101383
-0.000300696
0.00130437
-0.000456392
0.00186028
-0.000693011
0.0026451
-0.000820289
0.00308835
-0.000734634
0.00399452
0.0046074
-0.00157438
0.00262133
0.00111964
0.00170449
0.00335167
0.00194693
0.00435553
0.00223982
0.0048605
0.00195238
0.0051753
0.00131575
0.00540257
0.00052675
0.00557884
-0.000299358
0.00567635
-0.00108569
0.0056333
-0.00176647
0.00539874
-0.00228851
0.00496075
-0.00262351
0.00434715
-0.00276863
0.00361121
-0.00274373
0.00281386
-0.00257955
0.00200606
-0.00230004
0.00123709
-0.00195037
0.00053834
-0.00155618
-4.27781e-05
-0.00119568
-0.000466696
-0.000901898
-0.000733582
-0.000701798
-0.0008907
-0.000548955
-0.000985029
-0.000423759
-0.00103998
-0.000310811
-0.00106891
-0.000205876
-0.00107644
-0.000106954
-0.00106416
-1.18948e-05
-0.00103265
8.26809e-05
-0.000982965
0.000181398
-0.00091824
0.00029018
-0.000844363
0.000415365
-0.000771222
0.000565202
-0.0007158
0.00075348
-0.000710722
0.00100878
-0.000809889
0.00140365
-0.00104881
0.00209943
-0.00156428
0.00316073
-0.00262297
0.00414703
-0.00284148
0.00421287
0.00191908
0.00288307
0.00457237
0.00487331
0.00164599
0.00536154
0.00175159
0.00559918
0.00171473
0.00583024
0.00108469
0.00601591
0.000341084
0.00608037
-0.000363804
0.00595259
-0.00095787
0.00559889
-0.00141274
0.00503149
-0.00172108
0.0042972
-0.00188919
0.00345452
-0.00192593
0.00256334
-0.00185254
0.00168036
-0.00169656
0.000840594
-0.00146027
8.83502e-05
-0.00119812
-0.000517706
-0.000950122
-0.000940048
-0.000773329
-0.00120042
-0.000641506
-0.00135982
-0.000542384
-0.0014568
-0.000451972
-0.0015183
-0.000362267
-0.00155626
-0.000272866
-0.00157544
-0.000186712
-0.00157679
-0.000105615
-0.00155981
-2.88888e-05
-0.00152382
4.66911e-05
-0.00146881
0.000126386
-0.00139647
0.000217844
-0.00131132
0.000330215
-0.00122131
0.000475179
-0.00113856
0.000670718
-0.00108074
0.000950972
-0.00106489
0.00138793
-0.00106501
0.0020999
-0.00106438
0.00316062
-0.00136365
0.00444677
-0.00143571
0.0042854
0.000649952
0.00793504
0.00535967
0.00581663
0.00386994
0.00556869
0.00196259
0.00563928
0.00101404
0.0056031
0.000377243
0.00535959
-0.000120285
0.0048958
-0.000494053
0.00425117
-0.000768087
0.00347906
-0.000948945
0.00263307
-0.00104318
0.00175547
-0.00104831
0.000886216
-0.000983265
6.37196e-05
-0.000874051
-0.000649078
-0.000747466
-0.0011947
-0.000652475
-0.00156673
-0.000578072
-0.00180879
-0.000531234
-0.00195979
-0.000490479
-0.00205968
-0.000442475
-0.00212983
-0.000381828
-0.00218017
-0.000311951
-0.0022142
-0.000238882
-0.00223284
-0.00016812
-0.00223575
-0.00010274
-0.00222179
-4.28616e-05
-0.00218959
1.44791e-05
-0.00213716
7.39731e-05
-0.00206226
0.000142959
-0.00196264
0.000230592
-0.00183627
0.00034878
-0.00168161
0.00051599
-0.00149416
0.000763443
-0.00125136
0.0011451
-0.000890985
0.00173969
-0.000328704
0.00259877
0.000399252
0.00371923
0.00101359
0.00367155
0.00183376
0.00410149
0.00150473
0.00450207
0.00346931
0.0037317
0.0027329
0.00323157
0.00151413
0.00288947
0.000719342
0.00252522
0.000243979
0.00207779
-4.66145e-05
0.00153365
-0.000223936
0.000912079
-0.000327371
0.000232036
-0.000363134
-0.000464648
-0.000351624
-0.00111456
-0.000333343
-0.00166393
-0.000324668
-0.00207898
-0.000332393
-0.00237049
-0.000360915
-0.00255967
-0.000388837
-0.00268809
-0.000402754
-0.00278534
-0.000393197
-0.00286696
-0.000360848
-0.00293719
-0.000311641
-0.00299564
-0.00025358
-0.00304075
-0.000193859
-0.00307146
-0.000137505
-0.00308726
-8.70102e-05
-0.00308764
-4.25064e-05
-0.00307013
-3.00275e-06
-0.00303006
3.396e-05
-0.00295984
7.27998e-05
-0.0028489
0.000119689
-0.00268427
0.000184127
-0.00245153
0.000283148
-0.00213165
0.000443372
-0.00168453
0.000697753
-0.00103351
0.00108848
-0.000120664
0.00168591
0.000966184
0.00263257
0.00153929
0.00309872
0.00355094
-0.00261718
-0.00678281
-0.00741119
-0.00746575
-0.00374928
-0.00215709
-0.0016752
0.00139523
-0.000761485
0.00181917
-0.000560147
0.00131278
-0.000637284
0.000796466
-0.000822754
0.000429432
-0.00106582
0.000196439
-0.00135915
6.93706e-05
-0.00170573
1.91875e-05
-0.00208146
1.25762e-05
-0.00245156
1.84653e-05
-0.00279057
5.66955e-06
-0.00306788
-4.73134e-05
-0.00325489
-0.00014531
-0.00337161
-0.000244111
-0.00345281
-0.000307553
-0.00352748
-0.000328029
-0.00360707
-0.000313585
-0.00369213
-0.00027584
-0.0037786
-0.00022527
-0.0038614
-0.000170927
-0.00393517
-0.000120248
-0.00399455
-7.82571e-05
-0.00403494
-4.67167e-05
-0.00405316
-2.42995e-05
-0.00404909
-7.02116e-06
-0.00402228
7.27054e-06
-0.00396635
1.70237e-05
-0.00386786
2.13358e-05
-0.00370535
2.17101e-05
-0.00345006
2.78478e-05
-0.00306735
6.05328e-05
-0.00250868
0.000138824
-0.00168894
0.000268388
-0.000546819
0.000543404
0.000783906
0.00130163
0.00128541
0.00259711
0.00502089
-0.00736391
0.00103461
-0.00812883
-0.00670078
-0.00717879
-0.0031071
-0.00565742
-0.000126126
-0.00456466
0.000726396
-0.00397243
0.000720503
-0.00371201
0.000535991
-0.0036438
0.000361161
-0.00368451
0.000237078
-0.00377843
0.00016323
-0.0038838
0.000124525
-0.0039723
0.000101051
-0.00402908
7.52633e-05
-0.00405917
3.58137e-05
-0.00408258
-2.38194e-05
-0.00411903
-0.000108756
-0.00417864
-0.000184391
-0.00426126
-0.000224852
-0.00435975
-0.000229514
-0.00446359
-0.000209787
-0.00456281
-0.000176722
-0.00465018
-0.000138078
-0.00472168
-9.96252e-05
-0.00477581
-6.63167e-05
-0.00481216
-4.20769e-05
-0.00483049
-2.84907e-05
-0.00483083
-2.39729e-05
-0.0048124
-2.53846e-05
-0.00477478
-3.01924e-05
-0.00471489
-4.26371e-05
-0.00462394
-6.93379e-05
-0.00448635
-0.000115587
-0.00427923
-0.000178972
-0.00397701
-0.000241439
-0.00355942
-0.000278614
-0.00298178
-0.000309254
-0.00199875
-0.000439836
-0.00018648
-0.000510994
0.00074825
0.00166209
0.00596185
0.00157623
-0.00506008
-0.00810434
-0.00817142
-0.00739105
-0.00662432
-0.00604869
-0.00565255
-0.00538342
-0.00518971
-0.00503529
-0.00490417
-0.00479817
-0.00473081
-0.00472253
-0.00479912
-0.00495162
-0.00514504
-0.00534361
-0.00552286
-0.00566931
-0.00577724
-0.00584676
-0.00588294
-0.0058949
-0.00589335
-0.00588751
-0.00588348
-0.00588488
-0.00589956
-0.00594197
-0.00603189
-0.00618665
-0.0064055
-0.00666325
-0.00695329
-0.00737534
-0.00786965
-0.00619166
)
;

boundaryField
{
    floor
    {
        type            calculated;
        value           nonuniform List<scalar> 
36
(
0
0
0
0
0
0
0
0
0
0
0
0
0
0
0
0
0
0
0
-6.43922e-06
-1.68858e-05
-2.60352e-05
-3.43151e-05
-3.49221e-05
-2.85314e-05
-2.85869e-05
-2.92024e-06
-5.44214e-06
-5.68844e-06
-5.90868e-06
-4.85381e-06
-8.9398e-06
-1.0212e-05
-1.28346e-05
-1.44567e-05
-1.5445e-05
)
;
    }
    ceiling
    {
        type            calculated;
        value           nonuniform List<scalar> 
43
(
-5.78139e-05
-6.44573e-05
-6.28427e-05
-5.90822e-05
-5.40283e-05
-4.631e-05
-3.97325e-05
-3.50841e-05
-3.21527e-05
-3.0551e-05
-2.99401e-05
-3.00717e-05
-3.06968e-05
-3.14733e-05
-3.19998e-05
-3.20608e-05
-3.18025e-05
-3.13869e-05
-3.09619e-05
-3.06243e-05
-3.04119e-05
-3.0314e-05
-3.02904e-05
-3.02857e-05
-3.02401e-05
-3.00946e-05
-2.97978e-05
-2.93128e-05
-2.86216e-05
-2.77217e-05
-2.66184e-05
-2.53221e-05
-2.3855e-05
-2.22718e-05
-2.06783e-05
-1.92164e-05
-1.79973e-05
-1.70428e-05
-1.63204e-05
-1.68519e-05
1.93416e-05
1.51859e-05
-0.000246559
)
;
    }
    sWall
    {
        type            calculated;
        value           nonuniform List<scalar> 9(-0.000140238 -0.000164522 -0.000194246 -0.000225955 -0.000245142 -0.000281078 -0.00042363 -0.000453474 -0.000483783);
    }
    nWall
    {
        type            calculated;
        value           nonuniform List<scalar> 
14
(
-9.0084e-05
-9.748e-05
-0.000102613
-0.000103308
-0.000113681
-0.000122734
-0.000137679
-0.000153227
-0.000166039
-0.000169846
-0.00017771
-0.000184626
-0.000192967
-0.000213331
)
;
    }
    sideWalls
    {
        type            empty;
        value           nonuniform 0();
    }
    glass1
    {
        type            calculated;
        value           nonuniform List<scalar> 9(-6.40347e-05 -0.000170323 -0.000257926 -0.000331212 -0.000393199 -0.000446406 -0.00049222 -0.000535501 -0.000587179);
    }
    glass2
    {
        type            calculated;
        value           nonuniform List<scalar> 2(-0.000364755 -0.000384101);
    }
    sun
    {
        type            calculated;
        value           uniform 0;
    }
    Table_master
    {
        type            calculated;
        value           nonuniform List<scalar> 9(-1.53994e-07 -1.54111e-07 -1.54143e-07 -1.54163e-07 -1.54176e-07 -1.54181e-07 -1.54179e-07 -1.54165e-07 -1.54112e-07);
    }
    Table_slave
    {
        type            calculated;
        value           nonuniform List<scalar> 9(1.53663e-07 1.53719e-07 1.53719e-07 1.53736e-07 1.53757e-07 1.538e-07 1.53867e-07 1.53961e-07 1.54089e-07);
    }
    inlet
    {
        type            calculated;
        value           uniform -0.0116487;
    }
    outlet
    {
        type            calculated;
        value           nonuniform List<scalar> 2(0.00982369 0.0122598);
    }
}


// ************************************************************************* //
