/*--------------------------------*- C++ -*----------------------------------*\
  =========                 |
  \\      /  F ield         | OpenFOAM: The Open Source CFD Toolbox
   \\    /   O peration     | Website:  https://openfoam.org
    \\  /    A nd           | Version:  6
     \\/     M anipulation  |
\*---------------------------------------------------------------------------*/
FoamFile
{
    version     2.0;
    format      ascii;
    class       volScalarField;
    location    "550";
    object      alphat;
}
// * * * * * * * * * * * * * * * * * * * * * * * * * * * * * * * * * * * * * //

dimensions      [1 -1 -1 0 0 0 0];

internalField   nonuniform List<scalar> 
458
(
0.00124906
0.00136123
0.00139259
0.00145948
0.00152114
0.00157959
0.00163816
0.00169746
0.00174588
0.00177618
0.00177934
0.00174648
0.00166632
0.00149479
0.00113739
0.000561348
0.000658001
0.000746692
0.000779481
0.000767579
0.000718054
0.000663272
0.000614306
0.000571943
0.000535177
0.000503101
0.00047504
0.000450185
0.000427568
0.000406129
0.000384605
0.000371555
0.000341268
0.00168117
0.00379782
0.00350701
0.0040193
0.00453155
0.00505781
0.00552884
0.00589525
0.00627101
0.00662204
0.0069028
0.0070717
0.00708333
0.00682665
0.00552773
0.00150183
0.00124657
0.00101634
0.000556119
0.00132274
0.00193081
0.0024013
0.00254984
0.00185555
0.0015651
0.00136752
0.0012217
0.0011101
0.00102158
0.000945827
0.000874632
0.000803418
0.000739597
0.000686299
0.000838633
0.000447049
0.00204141
0.00510552
0.00422347
0.00514407
0.0055355
0.00581105
0.00602313
0.00622058
0.00649373
0.00682514
0.00718688
0.00753975
0.00781333
0.00789897
0.0074325
0.00605774
0.00458287
0.00120303
0.000853888
0.00147666
0.00215459
0.00282949
0.00302321
0.000965909
0.000845252
0.000744863
0.000663552
0.000597927
0.000544751
0.000501512
0.000466553
0.000439379
0.000486713
0.000564008
0.000985262
0.00052772
0.00238782
0.00651445
0.00411302
0.0053299
0.00554517
0.00552688
0.00551037
0.0056066
0.00582945
0.00615892
0.00657764
0.00704254
0.00744134
0.00768187
0.00761649
0.00721805
0.00618996
0.00339695
0.00138452
0.00175362
0.00241137
0.00322308
0.0039304
0.00397045
0.0010894
0.00099822
0.000935787
0.000889477
0.000850231
0.000811525
0.000774748
0.00073592
0.00069062
0.000649989
0.000640644
0.00117463
0.000607544
0.00274151
0.00840721
0.00431571
0.00506184
0.00536823
0.00519028
0.00504609
0.00513189
0.00536514
0.00570821
0.00616143
0.00667268
0.00706067
0.00724787
0.00723543
0.00709263
0.00667897
0.00552072
0.00498759
0.00502789
0.00532549
0.00568054
0.00590115
0.0058091
0.00495797
0.00451683
0.00427176
0.00409552
0.00391729
0.00368485
0.00329942
0.00280544
0.00224497
0.00170631
0.00127993
0.00119533
0.00103337
0.000811846
0.000859765
0.00093473
0.00312011
0.0105375
0.00590297
0.00469459
0.00511269
0.00510956
0.00491976
0.00499286
0.00522752
0.00557123
0.00603224
0.00652123
0.00688202
0.00698864
0.00687101
0.00671052
0.00663737
0.00653799
0.00672726
0.00706935
0.00731341
0.00736333
0.0072099
0.00687905
0.00641076
0.0060271
0.00572596
0.00545906
0.00519604
0.00491606
0.00455374
0.0040627
0.00344608
0.00275277
0.00211433
0.00153588
0.00126065
0.00109791
0.0013818
0.000969755
0.00349185
0.0121388
0.00877824
0.00577378
0.00503784
0.0051166
0.00517054
0.00519813
0.00533068
0.00563732
0.00609417
0.00657998
0.00690876
0.00693304
0.00671593
0.00656556
0.00681815
0.00736985
0.00793328
0.00825896
0.00826804
0.00800353
0.0075483
0.00698978
0.00642791
0.00596932
0.00561683
0.00532829
0.005075
0.00484761
0.00464116
0.00437277
0.00393996
0.00336648
0.00277364
0.00220645
0.00183558
0.00168052
0.00160083
0.00115329
0.00358089
0.0112295
0.00955309
0.00804198
0.00689077
0.00638615
0.00587807
0.00554099
0.00554323
0.00584477
0.00632216
0.00680181
0.00707236
0.00698943
0.00672689
0.00679975
0.00751662
0.00809871
0.00840907
0.00840687
0.0080861
0.00752165
0.00682051
0.00610558
0.00550258
0.00507248
0.0047781
0.00456483
0.00440608
0.00429794
0.00424731
0.00424447
0.00412666
0.00378786
0.00345897
0.00327592
0.00335502
0.00353943
0.00419852
0.00178416
0.00350619
0.00423065
0.00467515
0.00492469
0.00496448
0.00489259
0.00490533
0.00513048
0.00557566
0.00614149
0.00671134
0.00714131
0.00725482
0.00697917
0.00692415
0.00728743
0.00770446
0.00785082
0.00775555
0.00740376
0.00680199
0.00604958
0.00528819
0.00465388
0.00420861
0.003922
0.00372913
0.00358323
0.0034599
0.00334526
0.00322883
0.00310203
0.00298808
0.0028898
0.0028243
0.00278658
0.00271574
0.00257178
0.00239765
0.00166568
0.0015711
0.00274843
0.00377234
0.00458831
0.00534401
0.00608576
0.00668109
0.00708992
0.00733553
0.00733443
0.00705233
0.00672766
0.00673607
0.00686863
0.00678752
0.00652408
0.00610042
0.00552346
0.00485743
0.00419687
0.00366422
0.00330282
0.00308094
0.00294555
0.00285676
0.00279306
0.00274493
0.00270986
0.00269043
0.00269742
0.00271339
0.0027276
0.0027283
0.00268494
0.0025517
0.00231754
0.0020275
0.00134052
0.00238087
0.00467933
0.00601628
0.00689308
0.00757463
0.007632
0.00725928
0.00688646
0.00647808
0.00577055
0.00529157
0.00517762
0.00511268
0.00491963
0.00461974
0.00424202
0.00379596
0.00332506
0.00290115
0.00257719
0.00235235
0.00222437
0.00216625
0.00215586
0.00217965
0.00222913
0.00229717
0.00237533
0.0024668
0.00257083
0.00268173
0.00279041
0.00287874
0.0029229
0.00288155
0.00284552
0.00262499
0.00135815
0.00249303
0.00255548
0.00261177
0.0028964
0.00273117
0.0024154
0.00204021
0.00174261
0.00155592
0.00137584
0.00121502
0.00108925
0.000981588
0.000901635
0.000846811
0.00080684
0.000774656
0.000747005
0.000724265
0.000709044
0.000703533
0.000707961
0.00072118
0.000740315
0.00076431
0.000792616
0.000825084
0.000861912
0.000903722
0.000951806
0.0010064
0.00106716
0.00113441
0.00120848
0.00128943
0.00138644
0.0014284
0.00139886
0.00130118
0.00120326
)
;

boundaryField
{
    floor
    {
        type            compressible::alphatWallFunction;
        Prt             0.85;
        value           nonuniform List<scalar> 
36
(
0.000161463
7.85403e-05
9.29816e-05
0.000106007
0.000110775
0.000109047
0.000101824
9.37625e-05
8.64885e-05
8.01378e-05
7.45792e-05
6.96906e-05
6.53821e-05
6.15388e-05
5.80183e-05
5.46592e-05
5.12637e-05
4.91933e-05
4.43513e-05
4.43507e-05
6.10527e-05
7.3447e-05
8.54799e-05
0.000115466
0.000122363
0.000133055
0.000161461
0.000211199
0.000176529
0.000144561
7.85393e-05
0.000144559
7.77499e-05
0.000170539
0.000121504
0.000195357
)
;
    }
    ceiling
    {
        type            compressible::alphatWallFunction;
        Prt             0.85;
        value           nonuniform List<scalar> 
43
(
0.000340456
0.000348389
0.000355524
0.000391432
0.000370717
0.000330705
0.000282412
0.000243419
0.000218588
0.000194314
0.000172331
0.000154907
0.000139805
0.000128465
0.000120621
0.000114864
0.000110204
0.000106182
0.000102861
0.000100631
9.98219e-05
0.000100472
0.00010241
0.000105207
0.000108702
0.000112808
0.000117497
0.000122789
0.000128765
0.000135597
0.000143305
0.000151827
0.000161194
0.000171438
0.000182551
0.000195767
0.000201449
0.000197451
0.000184159
0.000170722
0.000467294
0.000555366
0.000326055
)
;
    }
    sWall
    {
        type            compressible::alphatWallFunction;
        Prt             0.85;
        value           uniform 0.000339214;
    }
    nWall
    {
        type            compressible::alphatWallFunction;
        Prt             0.85;
        value           nonuniform List<scalar> 6(0.000132837 0.000137792 0.000163454 0.000189185 0.000191581 0.000170382);
    }
    sideWalls
    {
        type            empty;
    }
    glass1
    {
        type            compressible::alphatWallFunction;
        Prt             0.85;
        value           nonuniform List<scalar> 9(0.000172329 0.000229787 0.000276566 0.000320801 0.000365332 0.000412382 0.000458045 0.000469045 0.000460172);
    }
    glass2
    {
        type            compressible::alphatWallFunction;
        Prt             0.85;
        value           nonuniform List<scalar> 2(0.000246949 0.000231414);
    }
    sun
    {
        type            compressible::alphatWallFunction;
        Prt             0.85;
        value           nonuniform List<scalar> 
14
(
0.000176889
0.000192194
0.00019645
0.000205496
0.000213793
0.000221624
0.000229438
0.000237319
0.000243731
0.000247732
0.000248149
0.000243808
0.000233182
0.00021025
)
;
    }
    Table_master
    {
        type            compressible::alphatWallFunction;
        Prt             0.85;
        value           nonuniform List<scalar> 9(0.000137606 0.000120412 0.000105883 9.39421e-05 8.41748e-05 7.61633e-05 6.9577e-05 6.41997e-05 5.99846e-05);
    }
    Table_slave
    {
        type            compressible::alphatWallFunction;
        Prt             0.85;
        value           nonuniform List<scalar> 9(0.000154949 0.00014217 0.000133341 0.000126748 0.000121129 0.000115557 0.000110233 0.00010458 9.79379e-05);
    }
    inlet
    {
        type            fixedValue;
        value           uniform 1.94e-05;
    }
    outlet
    {
        type            zeroGradient;
    }
}


// ************************************************************************* //
