/*--------------------------------*- C++ -*----------------------------------*\
  =========                 |
  \\      /  F ield         | OpenFOAM: The Open Source CFD Toolbox
   \\    /   O peration     | Website:  https://openfoam.org
    \\  /    A nd           | Version:  6
     \\/     M anipulation  |
\*---------------------------------------------------------------------------*/
FoamFile
{
    version     2.0;
    format      ascii;
    class       volScalarField;
    location    "550";
    object      epsilon;
}
// * * * * * * * * * * * * * * * * * * * * * * * * * * * * * * * * * * * * * //

dimensions      [0 2 -3 0 0 0 0];

internalField   nonuniform List<scalar> 
458
(
0.000438043
0.000565409
0.00060531
0.000696768
0.000788839
0.000883284
0.000985185
0.00109606
0.00119247
0.00125552
0.00126213
0.00119344
0.00103657
0.000748384
0.000329838
3.97094e-05
6.39407e-05
9.3431e-05
0.000106294
0.000101506
8.31031e-05
6.55008e-05
5.20415e-05
4.20026e-05
3.44139e-05
2.8591e-05
2.40701e-05
2.04872e-05
1.75528e-05
1.50435e-05
1.2777e-05
1.15209e-05
8.92903e-06
0.00107011
0.00159116
0.000525621
0.000510154
0.000526692
0.000560202
0.000617104
0.00070118
0.000794148
0.000869324
0.000897178
0.000861426
0.000768245
0.000631516
0.000507776
0.00075919
0.000434187
0.000235364
3.86147e-05
7.60027e-05
9.42556e-05
9.52425e-05
9.1619e-05
9.19604e-05
7.19943e-05
5.45121e-05
4.15369e-05
3.207e-05
2.51402e-05
2.00262e-05
1.62034e-05
1.33538e-05
1.15556e-05
1.08122e-05
3.03225e-05
2.00695e-05
0.00191978
0.00385502
0.000610867
0.000464886
0.00047335
0.000516808
0.00059109
0.000696818
0.000812424
0.000900916
0.000934734
0.000903379
0.000815147
0.000677133
0.000526105
0.000423794
0.000359758
0.00039035
0.000139732
0.000140423
0.000127518
0.000113749
0.00010585
0.00020229
0.000135559
9.27684e-05
6.5584e-05
4.79868e-05
3.62889e-05
2.83157e-05
2.27976e-05
1.90419e-05
1.49494e-05
1.32102e-05
6.43067e-05
3.3013e-05
0.00307862
0.00800066
0.000912638
0.000445019
0.000435779
0.000489426
0.00058592
0.000732716
0.000879541
0.00097612
0.00100783
0.000970293
0.000869524
0.000715058
0.000558145
0.000440458
0.000372914
0.000386572
0.000595088
0.000382302
0.000250031
0.000182277
0.000143923
0.00012619
0.000290388
0.000223446
0.000184113
0.000158129
0.00013812
0.000120111
0.000104516
8.95803e-05
7.40365e-05
4.5717e-05
2.93981e-05
0.000113711
5.03786e-05
0.0046687
0.0144322
0.00175549
0.000477656
0.000401885
0.000459827
0.000602059
0.000852406
0.0010384
0.00113233
0.00114944
0.00108853
0.000953556
0.000766169
0.00057455
0.000428009
0.000338523
0.000308651
0.000309895
0.000259151
0.000214436
0.000179732
0.000150395
0.000125572
0.0001162
0.000106473
9.97727e-05
9.40442e-05
8.77031e-05
8.00033e-05
7.18902e-05
6.39311e-05
5.64456e-05
4.633e-05
3.63117e-05
7.44007e-05
0.000113557
0.000120327
0.000143029
0.000183803
0.00689501
0.0217412
0.00403241
0.000804233
0.000474734
0.000485248
0.000724708
0.00114828
0.00133121
0.00139053
0.0013684
0.0012691
0.00108557
0.000838359
0.000587099
0.00039613
0.00028513
0.000244406
0.000234207
0.000224143
0.000206826
0.00018199
0.000153797
0.000127371
0.000110127
0.000103074
0.000101425
0.000100602
9.80945e-05
9.22691e-05
8.21775e-05
7.08293e-05
6.01117e-05
5.03705e-05
4.35886e-05
5.54528e-05
8.7898e-05
0.000105661
0.000206054
0.000205166
0.00968027
0.0262049
0.00883682
0.00283899
0.00148674
0.00117607
0.00152848
0.00176368
0.00181818
0.00178005
0.00168053
0.00151131
0.00125098
0.000921892
0.000597169
0.000362577
0.000240373
0.00020607
0.000208527
0.00020925
0.000195911
0.000171995
0.000145504
0.00012333
0.000111303
0.000110126
0.000114741
0.000120808
0.000126003
0.000128147
0.000123842
0.000110983
9.75581e-05
8.61213e-05
8.0704e-05
8.89604e-05
0.000120734
0.000176891
0.000327171
0.000345018
0.0104644
0.0300416
0.0160955
0.0096855
0.00602484
0.00424995
0.00343881
0.00291901
0.00257643
0.00231976
0.00207807
0.00179518
0.00142067
0.000981721
0.000568488
0.000305674
0.000195554
0.000179852
0.00018533
0.000182652
0.000167079
0.000145918
0.000127104
0.000115628
0.000113629
0.000119959
0.000131683
0.000147031
0.000165609
0.000187332
0.000211432
0.000232194
0.000245646
0.000273122
0.000329309
0.000480368
0.000820315
0.00137603
0.00409666
0.00127976
0.00985578
0.01726
0.013239
0.0099907
0.00751702
0.00581239
0.00461361
0.0038229
0.00329235
0.00287301
0.00247788
0.00204759
0.00150568
0.000922572
0.000408143
0.000219374
0.00016247
0.000151337
0.000148184
0.00014029
0.000127336
0.000114524
0.000106341
0.000104939
0.000110397
0.000121697
0.000138036
0.000159683
0.00018798
0.000225166
0.000274305
0.000339006
0.000426191
0.000550718
0.000732207
0.0009739
0.00124698
0.00149377
0.00169821
0.00104316
0.00345608
0.0046965
0.00511718
0.00505012
0.00477803
0.00438209
0.00385464
0.0032313
0.00261047
0.00198377
0.00115693
0.000531192
0.000251734
0.000158859
0.000129038
0.000118203
0.000110785
0.000102683
9.48277e-05
8.91109e-05
8.7393e-05
9.01399e-05
9.69502e-05
0.000107394
0.000121457
0.000139712
0.000163402
0.000194635
0.000236851
0.000295823
0.000377142
0.000487056
0.000628083
0.000784222
0.000908957
0.000942977
0.000870402
0.000543689
0.00289482
0.0086995
0.00839637
0.00729255
0.0061905
0.00488243
0.00354846
0.00228324
0.00130505
0.000714312
0.000370845
0.000210289
0.000146157
0.00011886
0.00010564
9.67173e-05
8.8848e-05
8.19718e-05
7.70822e-05
7.48742e-05
7.54519e-05
7.8912e-05
8.52177e-05
9.45515e-05
0.000107437
0.000124785
0.000147988
0.000179123
0.000221144
0.00027779
0.000354194
0.000455552
0.000582676
0.000724993
0.000837748
0.000951095
0.000733935
0.000565343
0.00337394
0.00363244
0.00387767
0.00534372
0.0045093
0.00313574
0.0018987
0.001187
0.000846518
0.000586044
0.000403944
0.000291174
0.000213144
0.000165216
0.000136889
0.000118414
0.000104808
9.39848e-05
8.56631e-05
8.03769e-05
7.85182e-05
8.00102e-05
8.45764e-05
9.14882e-05
0.000100675
0.000112279
0.000126649
0.000144376
0.000166421
0.000194423
0.000229835
0.000274029
0.000329173
0.000397961
0.000483428
0.000601019
0.000657319
0.000617429
0.000496927
0.000393127
)
;

boundaryField
{
    floor
    {
        Cmu             0.09;
        kappa           0.41;
        E               9.8;
        type            epsilonWallFunction;
        value           nonuniform List<scalar> 
36
(
0.000329838
3.97094e-05
6.39407e-05
9.3431e-05
0.000106294
0.000101506
8.31031e-05
6.55008e-05
5.20415e-05
4.20026e-05
3.44139e-05
2.8591e-05
2.40701e-05
2.04872e-05
1.75528e-05
1.50435e-05
1.2777e-05
1.15209e-05
8.92903e-06
8.92903e-06
2.00695e-05
3.3013e-05
5.03786e-05
0.000120327
0.000143029
0.000183803
0.000329838
0.00075919
0.000434187
0.000235364
3.97094e-05
0.000235364
3.86147e-05
0.00039035
0.000139732
0.000595088
)
;
    }
    ceiling
    {
        Cmu             0.09;
        kappa           0.41;
        E               9.8;
        type            epsilonWallFunction;
        value           nonuniform List<scalar> 
43
(
0.00337394
0.00363244
0.00387767
0.00534372
0.0045093
0.00313574
0.0018987
0.001187
0.000846518
0.000586044
0.000403944
0.000291174
0.000213144
0.000165216
0.000136889
0.000118414
0.000104808
9.39848e-05
8.56631e-05
8.03769e-05
7.85182e-05
8.00102e-05
8.45764e-05
9.14882e-05
0.000100675
0.000112279
0.000126649
0.000144376
0.000166421
0.000194423
0.000229835
0.000274029
0.000329173
0.000397961
0.000483428
0.000601019
0.000657319
0.000617429
0.000496927
0.000393127
0.00985578
0.01726
0.00289482
)
;
    }
    sWall
    {
        Cmu             0.09;
        kappa           0.41;
        E               9.8;
        type            epsilonWallFunction;
        value           uniform 0.00337394;
    }
    nWall
    {
        Cmu             0.09;
        kappa           0.41;
        E               9.8;
        type            epsilonWallFunction;
        value           nonuniform List<scalar> 6(0.000183803 0.000205166 0.000345018 0.000543689 0.000565343 0.000393127);
    }
    sideWalls
    {
        type            empty;
    }
    glass1
    {
        Cmu             0.09;
        kappa           0.41;
        E               9.8;
        type            epsilonWallFunction;
        value           nonuniform List<scalar> 9(0.000438043 0.00107011 0.00191978 0.00307862 0.0046687 0.00689501 0.00968027 0.0104644 0.00985578);
    }
    glass2
    {
        Cmu             0.09;
        kappa           0.41;
        E               9.8;
        type            epsilonWallFunction;
        value           nonuniform List<scalar> 2(0.00127976 0.00104316);
    }
    sun
    {
        Cmu             0.09;
        kappa           0.41;
        E               9.8;
        type            epsilonWallFunction;
        value           nonuniform List<scalar> 
14
(
0.000438043
0.000565409
0.00060531
0.000696768
0.000788839
0.000883284
0.000985185
0.00109606
0.00119247
0.00125552
0.00126213
0.00119344
0.00103657
0.000748384
)
;
    }
    Table_master
    {
        Cmu             0.09;
        kappa           0.41;
        E               9.8;
        type            epsilonWallFunction;
        value           nonuniform List<scalar> 9(0.00020229 0.000135559 9.27684e-05 6.5584e-05 4.79868e-05 3.62889e-05 2.83157e-05 2.27976e-05 1.90419e-05);
    }
    Table_slave
    {
        Cmu             0.09;
        kappa           0.41;
        E               9.8;
        type            epsilonWallFunction;
        value           nonuniform List<scalar> 9(0.000290388 0.000223446 0.000184113 0.000158129 0.00013812 0.000120111 0.000104516 8.95803e-05 7.40365e-05);
    }
    inlet
    {
        type            turbulentMixingLengthDissipationRateInlet;
        mixingLength    0.01;
        phi             phi;
        k               k;
        value           uniform 0.000471672;
    }
    outlet
    {
        type            zeroGradient;
    }
}


// ************************************************************************* //
