/*--------------------------------*- C++ -*----------------------------------*\
  =========                 |
  \\      /  F ield         | OpenFOAM: The Open Source CFD Toolbox
   \\    /   O peration     | Website:  https://openfoam.org
    \\  /    A nd           | Version:  6
     \\/     M anipulation  |
\*---------------------------------------------------------------------------*/
FoamFile
{
    version     2.0;
    format      ascii;
    class       volScalarField;
    location    "550";
    object      T;
}
// * * * * * * * * * * * * * * * * * * * * * * * * * * * * * * * * * * * * * //

dimensions      [0 0 0 1 0 0 0];

internalField   nonuniform List<scalar> 
458
(
302.744
302.466
302.453
302.449
302.446
302.442
302.439
302.434
302.427
302.419
302.411
302.407
302.41
302.425
302.467
302.612
302.59
302.582
302.588
302.595
302.6
302.606
302.611
302.617
302.622
302.628
302.633
302.638
302.644
302.649
302.655
302.663
302.687
302.93
302.499
302.474
302.475
302.477
302.477
302.475
302.469
302.455
302.432
302.408
302.394
302.395
302.41
302.43
302.44
302.45
302.472
302.618
302.568
302.564
302.571
302.582
302.585
302.588
302.59
302.592
302.594
302.596
302.598
302.601
302.604
302.609
302.617
302.629
302.67
303.126
302.544
302.504
302.513
302.526
302.536
302.54
302.536
302.511
302.466
302.417
302.386
302.384
302.404
302.425
302.437
302.445
302.465
302.575
302.555
302.556
302.572
302.591
302.591
302.592
302.592
302.593
302.594
302.595
302.596
302.597
302.598
302.603
302.61
302.621
302.664
303.326
302.602
302.536
302.554
302.583
302.611
302.63
302.631
302.59
302.512
302.43
302.379
302.374
302.401
302.43
302.447
302.453
302.462
302.472
302.49
302.518
302.553
302.588
302.619
302.643
302.66
302.674
302.687
302.696
302.703
302.709
302.714
302.716
302.687
302.658
302.641
302.667
303.523
302.677
302.57
302.587
302.63
302.679
302.723
302.734
302.671
302.555
302.439
302.369
302.365
302.399
302.441
302.469
302.479
302.484
302.499
302.525
302.56
302.6
302.639
302.674
302.704
302.726
302.743
302.756
302.764
302.769
302.768
302.764
302.755
302.733
302.699
302.667
302.669
302.76
302.839
302.841
303.702
302.776
302.625
302.616
302.656
302.715
302.79
302.814
302.723
302.573
302.434
302.357
302.354
302.402
302.462
302.506
302.528
302.539
302.56
302.591
302.63
302.671
302.709
302.743
302.77
302.79
302.804
302.814
302.819
302.819
302.814
302.803
302.789
302.766
302.734
302.698
302.683
302.722
302.752
302.794
303.857
302.939
302.769
302.718
302.727
302.772
302.852
302.85
302.728
302.55
302.399
302.327
302.342
302.415
302.5
302.564
302.6
302.621
302.646
302.678
302.715
302.751
302.785
302.812
302.833
302.847
302.857
302.861
302.862
302.859
302.85
302.835
302.817
302.794
302.765
302.733
302.712
302.72
302.733
302.764
304.089
303.403
303.204
303.063
302.99
302.979
302.986
302.873
302.663
302.447
302.306
302.272
302.336
302.451
302.569
302.649
302.691
302.715
302.74
302.769
302.799
302.828
302.853
302.871
302.884
302.891
302.894
302.894
302.891
302.885
302.876
302.863
302.844
302.824
302.802
302.78
302.767
302.774
302.794
302.945
304.418
304.101
303.853
303.613
303.422
303.287
303.071
302.723
302.394
302.191
302.14
302.213
302.371
302.541
302.688
302.752
302.783
302.804
302.825
302.848
302.87
302.889
302.904
302.913
302.918
302.92
302.919
302.917
302.913
302.908
302.904
302.902
302.903
302.908
302.921
302.945
302.98
303.017
303.045
303.111
297.628
299.329
300.376
300.814
300.982
301.173
301.41
301.693
301.989
302.267
302.551
302.724
302.805
302.841
302.861
302.878
302.894
302.909
302.922
302.932
302.938
302.942
302.943
302.943
302.943
302.942
302.941
302.941
302.942
302.943
302.947
302.955
302.969
302.99
303.017
303.045
303.07
303.093
297.986
299.399
300.247
300.694
301.025
301.38
301.754
302.147
302.471
302.673
302.797
302.861
302.891
302.909
302.921
302.932
302.942
302.95
302.955
302.959
302.961
302.962
302.963
302.963
302.963
302.963
302.964
302.964
302.965
302.967
302.97
302.976
302.985
303
303.018
303.04
303.04
303.074
299.477
299.437
299.434
300.472
301.117
301.651
302.128
302.457
302.646
302.777
302.857
302.902
302.932
302.949
302.961
302.969
302.975
302.979
302.983
302.985
302.986
302.987
302.986
302.986
302.985
302.984
302.984
302.983
302.983
302.982
302.982
302.983
302.984
302.986
302.991
303
303.011
303.019
303.023
303.064
)
;

boundaryField
{
    floor
    {
        type            wallHeatTransfer;
        Tinf            uniform 305.2;
        alphaWall       uniform 0.24;
        value           nonuniform List<scalar> 
36
(
302.777
303.096
303.029
302.985
302.978
302.988
303.012
303.04
303.068
303.094
303.12
303.145
303.168
303.191
303.213
303.236
303.26
303.279
303.328
303.328
303.218
303.158
303.116
303.114
303.168
303.151
302.777
302.694
302.742
302.809
303.096
302.809
303.104
302.763
302.943
302.739
)
;
    }
    ceiling
    {
        type            wallHeatTransfer;
        Tinf            uniform 303.2;
        alphaWall       uniform 0.24;
        value           nonuniform List<scalar> 
43
(
299.706
299.664
299.657
300.62
301.236
301.749
302.205
302.518
302.696
302.818
302.894
302.937
302.966
302.983
302.994
303.002
303.008
303.013
303.017
303.019
303.021
303.021
303.02
303.019
303.018
303.016
303.015
303.013
303.012
303.011
303.009
303.008
303.008
303.009
303.012
303.02
303.029
303.037
303.041
303.079
304.362
304.065
298.319
)
;
    }
    sWall
    {
        type            wallHeatTransfer;
        Tinf            uniform 315.2;
        alphaWall       uniform 0.36;
        value           uniform 300.889;
    }
    nWall
    {
        type            wallHeatTransfer;
        Tinf            uniform 307.2;
        alphaWall       uniform 0.36;
        value           nonuniform List<scalar> 6(303.647 303.589 303.473 303.683 303.66 303.706);
    }
    sideWalls
    {
        type            empty;
    }
    glass1
    {
        type            wallHeatTransfer;
        Tinf            uniform 315.2;
        alphaWall       uniform 4.3;
        value           nonuniform List<scalar> 9(311.272 310.627 310.216 309.901 309.639 309.397 309.195 309.255 309.48);
    }
    glass2
    {
        type            wallHeatTransfer;
        Tinf            uniform 307.2;
        alphaWall       uniform 4.3;
        value           nonuniform List<scalar> 2(305.549 305.67);
    }
    sun
    {
        type            wallHeatTransfer;
        Tinf            uniform 305.2;
        alphaWall       uniform 0.24;
        value           nonuniform List<scalar> 
14
(
303.004
302.737
302.721
302.708
302.697
302.686
302.676
302.666
302.654
302.643
302.635
302.635
302.647
302.681
)
;
    }
    Table_master
    {
        type            zeroGradient;
    }
    Table_slave
    {
        type            zeroGradient;
    }
    inlet
    {
        type            fixedValue;
        value           uniform 295.15;
    }
    outlet
    {
        type            zeroGradient;
    }
}


// ************************************************************************* //
