/*--------------------------------*- C++ -*----------------------------------*\
  =========                 |
  \\      /  F ield         | OpenFOAM: The Open Source CFD Toolbox
   \\    /   O peration     | Website:  https://openfoam.org
    \\  /    A nd           | Version:  6
     \\/     M anipulation  |
\*---------------------------------------------------------------------------*/
FoamFile
{
    version     2.0;
    format      ascii;
    class       volScalarField;
    location    "23500";
    object      k;
}
// * * * * * * * * * * * * * * * * * * * * * * * * * * * * * * * * * * * * * //

dimensions      [0 2 -2 0 0 0 0];

internalField   nonuniform List<scalar> 
778
(
0.00158603
0.00180131
0.00178818
0.00194672
0.0020979
0.00224007
0.00237659
0.002512
0.0026521
0.00280517
0.00295513
0.0031012
0.00324858
0.00341094
0.00358462
0.000792431
0.00162593
0.00165208
0.0015729
0.00144493
0.00128249
0.00113036
0.000998821
0.000887231
0.000792777
0.000713056
0.000645033
0.000586026
0.000533502
0.000484756
0.000436286
0.000397979
0.000326107
0.0034072
0.00643404
0.00268772
0.00274623
0.00288787
0.00305437
0.00323458
0.00343011
0.00364301
0.00387296
0.00412466
0.00437814
0.00459381
0.00469921
0.00459382
0.00429742
0.00390631
0.00357949
0.00253839
0.00281407
0.00295621
0.0028981
0.00266468
0.00226502
0.00190541
0.00160907
0.00136938
0.00117565
0.00101696
0.000885243
0.000774024
0.000681231
0.000615249
0.000574787
0.000864675
0.000524304
0.0054912
0.0127828
0.00347829
0.00321218
0.00329745
0.00345522
0.00363646
0.00384039
0.00407037
0.0043266
0.00463432
0.00500945
0.00544967
0.00595965
0.00653163
0.00686128
0.00627882
0.00538645
0.00403711
0.00416948
0.00417346
0.00397622
0.00357861
0.0026668
0.00201629
0.0015763
0.00126972
0.00104947
0.000887033
0.000764702
0.000671917
0.000603741
0.000551531
0.000548792
0.00116593
0.000678796
0.00797428
0.0217619
0.00449188
0.00339075
0.00334143
0.00343791
0.00354916
0.00366844
0.00380839
0.00399036
0.00425788
0.00464705
0.00516991
0.00582447
0.00655496
0.00713588
0.00722957
0.0072466
0.00534081
0.0055458
0.00537352
0.00512427
0.00478644
0.00434826
0.00345641
0.00285982
0.00243671
0.00211039
0.00185077
0.00163217
0.00143872
0.00125872
0.00107785
0.000800942
0.000659989
0.00142239
0.000823326
0.0108775
0.0336404
0.00621433
0.00342504
0.00315816
0.00316675
0.00318928
0.00320945
0.00325153
0.00336025
0.00359362
0.00398792
0.00455232
0.00527621
0.00608711
0.00681827
0.0072829
0.00764179
0.00751223
0.00665001
0.00607006
0.00557698
0.00509811
0.0046293
0.00412358
0.00366617
0.00327538
0.00293756
0.00263113
0.00234752
0.00207892
0.00181824
0.00155488
0.00122217
0.000930742
0.00119134
0.00121727
0.00117099
0.00204481
0.00188601
0.0141764
0.0476062
0.00928702
0.00349022
0.00290845
0.00282253
0.00276411
0.00269918
0.00266376
0.00273398
0.00298011
0.00341357
0.00402321
0.00479839
0.0056548
0.00646251
0.00706834
0.00740476
0.0073195
0.00678592
0.00621192
0.00563516
0.00507335
0.00455582
0.0040916
0.00369603
0.00336331
0.00307378
0.00280666
0.0025512
0.00229861
0.00204199
0.00177388
0.0014716
0.00117868
0.00111329
0.0011129
0.00171058
0.00508873
0.00269909
0.0179942
0.0606128
0.0143654
0.00382019
0.00271522
0.00252925
0.00241156
0.00229371
0.00222067
0.00231118
0.00263
0.00313936
0.00380294
0.00463406
0.00553201
0.00637001
0.00700258
0.00732756
0.00725227
0.00681561
0.00621348
0.00555372
0.00491147
0.00434277
0.00387268
0.00350063
0.00320679
0.00296181
0.00274119
0.00252873
0.00231305
0.00208695
0.00184534
0.00158307
0.001327
0.00116065
0.00109425
0.00156087
0.00630628
0.0037469
0.0216434
0.0704854
0.0214434
0.0051042
0.00274309
0.00237179
0.00220998
0.00208165
0.00202595
0.0022191
0.0026496
0.00323161
0.00393972
0.00477958
0.00570605
0.00658057
0.00722871
0.00751627
0.00738467
0.00689607
0.00619843
0.00542765
0.00469236
0.00406516
0.0035749
0.00321276
0.00294777
0.00274111
0.00256412
0.00239543
0.00222148
0.00203486
0.00183188
0.00161265
0.00139558
0.00123037
0.00116172
0.00213568
0.0137112
0.00639488
0.0228344
0.0694871
0.0325417
0.0110641
0.00406969
0.0025878
0.00223542
0.00210273
0.00218965
0.00251185
0.00300011
0.00360314
0.00433671
0.00522087
0.00619623
0.00709861
0.00772542
0.00792783
0.00766724
0.00702791
0.00616834
0.00525197
0.00441055
0.00372456
0.00321798
0.00286975
0.00263617
0.00246964
0.00233648
0.00221098
0.00207846
0.00193191
0.00176878
0.00159082
0.00141214
0.00128826
0.00138307
0.00421739
0.0268081
0.00844054
0.0219176
0.051623
0.0336448
0.0174404
0.00859234
0.00476126
0.00326168
0.00272983
0.00285279
0.00321015
0.003672
0.0042482
0.00500172
0.00595026
0.00698949
0.00790201
0.00845196
0.00848981
0.00800777
0.00712889
0.00604811
0.00496136
0.00401767
0.00329506
0.00280076
0.00249076
0.002304
0.00218594
0.00209742
0.00201186
0.00191587
0.00180383
0.00167436
0.00153008
0.00138453
0.00130842
0.00191251
0.0110865
0.0224099
0.00860987
0.0192303
0.0394246
0.0302352
0.0195693
0.0121861
0.00794132
0.00571851
0.00466962
0.00436177
0.00439864
0.004652
0.00514807
0.00594403
0.00699649
0.00810691
0.00897985
0.00935277
0.00910156
0.00827822
0.00706889
0.0057232
0.00447197
0.00347122
0.00277528
0.00235305
0.00211903
0.00199468
0.00192683
0.00187653
0.00182223
0.00175403
0.00166784
0.00156352
0.00144512
0.00133039
0.00132924
0.00275081
0.0112744
0.0197114
0.00843002
0.0159447
0.0315784
0.0266475
0.0195398
0.0139779
0.0102857
0.00802833
0.00675234
0.00604866
0.00572991
0.00578302
0.00627931
0.00722195
0.00843619
0.00958499
0.0102949
0.0103148
0.00959484
0.00829133
0.00667737
0.0050722
0.00373594
0.00280204
0.00224188
0.0019614
0.00182133
0.00175219
0.00171797
0.0016901
0.00165457
0.00160447
0.00153629
0.00145181
0.00135743
0.00127579
0.00132518
0.0025655
0.00983616
0.019925
0.00847145
0.013263
0.0256742
0.0233523
0.0186917
0.0145854
0.0115897
0.00954475
0.00821007
0.00729969
0.00683996
0.00696079
0.00772872
0.00899467
0.0103825
0.0114162
0.011704
0.0110965
0.00968749
0.00779213
0.00577656
0.00404459
0.00284671
0.00220114
0.00186863
0.00170625
0.00162618
0.00158539
0.00156273
0.00154048
0.00151016
0.0014677
0.00141231
0.0013468
0.00127997
0.00124527
0.00140791
0.00271437
0.00912747
0.0172504
0.00963207
0.0133563
0.0224208
0.022063
0.0177633
0.0143948
0.011896
0.0100855
0.00876917
0.00791802
0.00777578
0.00847968
0.00988214
0.0115417
0.0128785
0.0133904
0.0128139
0.0112436
0.0089651
0.00652296
0.00431433
0.00296237
0.0022199
0.00185182
0.00167065
0.00157795
0.00152535
0.00149029
0.00146205
0.00143172
0.00139492
0.00135007
0.00130029
0.00125736
0.00125859
0.00141726
0.00197427
0.00356852
0.00964716
0.0158631
0.00994396
0.0108798
0.011767
0.0129254
0.0125537
0.0113748
0.0100743
0.00894557
0.00820162
0.00830193
0.00941936
0.0113026
0.0133743
0.0149546
0.0155049
0.0147803
0.0128083
0.0100888
0.00699256
0.00461462
0.00310875
0.00231907
0.00193556
0.00174775
0.00164541
0.00157988
0.0015292
0.00148298
0.00143647
0.00138839
0.00133909
0.00129037
0.00125593
0.00127882
0.00146956
0.00203413
0.00323054
0.00550985
0.0101887
0.0167811
0.00910177
0.00354258
0.00482103
0.00598977
0.00659188
0.00726771
0.00878485
0.0113057
0.014143
0.0165628
0.0179858
0.0180441
0.0166704
0.0141068
0.0105098
0.00722281
0.00475246
0.00325984
0.00250044
0.00215135
0.00198303
0.00188657
0.00181801
0.00176045
0.0017066
0.00165282
0.00159713
0.00153952
0.00149268
0.0014618
0.00146849
0.00157663
0.00192973
0.00277282
0.0044082
0.00713883
0.0109311
0.0145117
0.00832722
0.00444645
0.00627721
0.00808583
0.0109907
0.0146648
0.0181258
0.020374
0.0214441
0.0213622
0.0201103
0.0175245
0.0139872
0.0102896
0.00700053
0.00469976
0.00339857
0.00279426
0.0025408
0.00242813
0.00236545
0.00232142
0.00228718
0.00226173
0.00224572
0.00223803
0.00223371
0.00222356
0.00219689
0.00218343
0.00221327
0.00234291
0.00269822
0.00349767
0.0050532
0.00771702
0.0117527
0.0171673
0.00829688
0.0150819
0.0245574
0.0181212
0.0143655
0.0169562
0.0206448
0.0227713
0.0234774
0.0230339
0.021686
0.0196474
0.0169465
0.0136995
0.0102966
0.00731783
0.00522895
0.00410666
0.00363227
0.00346042
0.0033935
0.00335135
0.00330834
0.0032619
0.00321908
0.00318998
0.00318403
0.0032079
0.00326379
0.0033474
0.00344556
0.00353732
0.00366387
0.00390297
0.00432648
0.00510087
0.00651441
0.00907531
0.0139746
0.018081
0.0103389
0.0138091
0.0170647
0.0178214
0.0207248
0.0216433
0.0220563
0.0210619
0.0192575
0.0171501
0.014982
0.0128404
0.0107416
0.00872517
0.00694659
0.00560501
0.00481168
0.00444763
0.00432433
0.00430944
0.00433191
0.00435685
0.00437081
0.00437424
0.00437657
0.00439242
0.00443935
0.00453737
0.0047085
0.00497433
0.00534944
0.00582945
0.00636821
0.00692677
0.00758092
0.00852276
0.0100191
0.012449
0.0171817
0.0192698
0.0113511
0.0121318
0.00891401
0.00882841
0.00935616
0.00980806
0.0092501
0.0081934
0.00702864
0.00593337
0.00495599
0.00410059
0.00337831
0.00282111
0.00245663
0.00227479
0.00221279
0.00221764
0.00225318
0.0023005
0.00235093
0.00240165
0.00245397
0.0025126
0.00258536
0.00268296
0.0028185
0.00300592
0.00325649
0.00357429
0.00395375
0.00438277
0.00485125
0.00536274
0.00592049
0.00653036
0.00721836
0.00800008
0.00891399
0.00998692
0.00943007
)
;

boundaryField
{
    floor
    {
        type            kqRWallFunction;
        value           nonuniform List<scalar> 
36
(
0.00358462
0.000792431
0.00162593
0.00165208
0.0015729
0.00144493
0.00128249
0.00113036
0.000998821
0.000887231
0.000792777
0.000713056
0.000645033
0.000586026
0.000533502
0.000484756
0.000436286
0.000397979
0.000326107
0.000326107
0.000524304
0.000678796
0.000823326
0.00117099
0.00204481
0.00188601
0.00358462
0.00429742
0.00390631
0.00357949
0.000792431
0.00357949
0.00253839
0.00538645
0.00403711
0.00534081
)
;
    }
    ceiling
    {
        type            kqRWallFunction;
        value           nonuniform List<scalar> 
43
(
0.0121318
0.00891401
0.00882841
0.00935616
0.00980806
0.0092501
0.0081934
0.00702864
0.00593337
0.00495599
0.00410059
0.00337831
0.00282111
0.00245663
0.00227479
0.00221279
0.00221764
0.00225318
0.0023005
0.00235093
0.00240165
0.00245397
0.0025126
0.00258536
0.00268296
0.0028185
0.00300592
0.00325649
0.00357429
0.00395375
0.00438277
0.00485125
0.00536274
0.00592049
0.00653036
0.00721836
0.00800008
0.00891399
0.00998692
0.00943007
0.0108798
0.011767
0.00444645
)
;
    }
    sWall
    {
        type            kqRWallFunction;
        value           nonuniform List<scalar> 9(0.0219176 0.0192303 0.0159447 0.013263 0.0133563 0.0108798 0.0150819 0.0138091 0.0121318);
    }
    nWall
    {
        type            kqRWallFunction;
        value           nonuniform List<scalar> 
14
(
0.00188601
0.00269909
0.0037469
0.00860987
0.00843002
0.00847145
0.00963207
0.00994396
0.00910177
0.00832722
0.00829688
0.0103389
0.0113511
0.00943007
)
;
    }
    sideWalls
    {
        type            empty;
    }
    glass1
    {
        type            kqRWallFunction;
        value           nonuniform List<scalar> 9(0.00158603 0.0034072 0.0054912 0.00797428 0.0108775 0.0141764 0.0179942 0.0216434 0.0228344);
    }
    glass2
    {
        type            kqRWallFunction;
        value           nonuniform List<scalar> 2(0.00639488 0.00844054);
    }
    sun
    {
        type            kqRWallFunction;
        value           nonuniform List<scalar> 
14
(
0.00158603
0.00180131
0.00178818
0.00194672
0.0020979
0.00224007
0.00237659
0.002512
0.0026521
0.00280517
0.00295513
0.0031012
0.00324858
0.00341094
)
;
    }
    Table_master
    {
        type            kqRWallFunction;
        value           nonuniform List<scalar> 9(0.0026668 0.00201629 0.0015763 0.00126972 0.00104947 0.000887033 0.000764702 0.000671917 0.000603741);
    }
    Table_slave
    {
        type            kqRWallFunction;
        value           nonuniform List<scalar> 9(0.00345641 0.00285982 0.00243671 0.00211039 0.00185077 0.00163217 0.00143872 0.00125872 0.00107785);
    }
    inlet
    {
        type            turbulentIntensityKineticEnergyInlet;
        intensity       0.05;
        value           uniform 0.0009375;
    }
    outlet
    {
        type            zeroGradient;
    }
}


// ************************************************************************* //
