/*--------------------------------*- C++ -*----------------------------------*\
  =========                 |
  \\      /  F ield         | OpenFOAM: The Open Source CFD Toolbox
   \\    /   O peration     | Website:  https://openfoam.org
    \\  /    A nd           | Version:  6
     \\/     M anipulation  |
\*---------------------------------------------------------------------------*/
FoamFile
{
    version     2.0;
    format      ascii;
    class       volVectorField;
    location    "23500";
    object      U;
}
// * * * * * * * * * * * * * * * * * * * * * * * * * * * * * * * * * * * * * //

dimensions      [0 1 -1 0 0 0 0];

internalField   nonuniform List<vector> 
778
(
(0.0656005 0.0794064 0)
(-0.155175 0.0157631 0)
(-0.164298 0.0146212 0)
(-0.192408 0.0122705 0)
(-0.216837 0.00872 0)
(-0.236889 0.00473935 0)
(-0.252008 0.000413369 0)
(-0.261772 -0.00437048 0)
(-0.265667 -0.00981092 0)
(-0.262691 -0.0161886 0)
(-0.250891 -0.0242596 0)
(-0.226199 -0.0348758 0)
(-0.186087 -0.0503942 0)
(-0.144158 -0.0751597 0)
(-0.150036 -0.108545 0)
(0.0546838 0.0354949 0)
(0.0158155 -0.0268954 0)
(0.0450356 -0.0232801 0)
(0.0694767 -0.0161754 0)
(0.0845702 -0.0103653 0)
(0.0917977 -0.00641797 0)
(0.0946356 -0.00433742 0)
(0.095668 -0.00331624 0)
(0.0961242 -0.00273027 0)
(0.0963002 -0.00231695 0)
(0.0961789 -0.00195172 0)
(0.0956527 -0.00151015 0)
(0.0943923 -0.000754889 0)
(0.0915389 0.000851487 0)
(0.0853215 0.00407931 0)
(0.0737554 0.00779514 0)
(0.0600494 0.0116495 0)
(-0.00785787 0.0300289 0)
(0.258401 0.167392 0)
(-0.161234 0.0483888 0)
(-0.141598 0.0459734 0)
(-0.173996 0.0416048 0)
(-0.199351 0.0356555 0)
(-0.220062 0.0291157 0)
(-0.236082 0.0220454 0)
(-0.247326 0.014218 0)
(-0.253497 0.00529001 0)
(-0.253813 -0.0051547 0)
(-0.247662 -0.0170806 0)
(-0.233963 -0.030846 0)
(-0.214063 -0.0480706 0)
(-0.197492 -0.0699518 0)
(-0.193982 -0.0826267 0)
(-0.166387 -0.0425287 0)
(-0.105353 -0.0363454 0)
(-0.0983206 -0.0444501 0)
(0.109355 -0.0421666 0)
(0.0644928 -0.0412406 0)
(0.0719801 -0.0323389 0)
(0.0860097 -0.0207836 0)
(0.0939625 -0.0105241 0)
(0.0962276 -0.00365027 0)
(0.0959914 -0.000192085 0)
(0.0955958 0.00124732 0)
(0.0955545 0.00188915 0)
(0.0956339 0.00226227 0)
(0.0956417 0.00258726 0)
(0.0955427 0.00313326 0)
(0.0952523 0.00441853 0)
(0.0939938 0.00774049 0)
(0.0883899 0.0167891 0)
(0.07461 0.0253996 0)
(0.0632223 0.0330532 0)
(-0.0518545 0.0636989 0)
(0.429983 0.253952 0)
(-0.194235 0.0847542 0)
(-0.112773 0.0784202 0)
(-0.148233 0.0669376 0)
(-0.170657 0.0554777 0)
(-0.188742 0.0437034 0)
(-0.202569 0.0313225 0)
(-0.212252 0.0179916 0)
(-0.217598 0.00339162 0)
(-0.217952 -0.0126305 0)
(-0.212697 -0.0303164 0)
(-0.201593 -0.049899 0)
(-0.185952 -0.0715615 0)
(-0.169409 -0.0932075 0)
(-0.151031 -0.104556 0)
(-0.12019 -0.093124 0)
(-0.0794993 -0.0949092 0)
(-0.0713954 -0.107557 0)
(0.0921806 -0.0882332 0)
(0.0626154 -0.0658449 0)
(0.0744369 -0.046232 0)
(0.0881074 -0.0293648 0)
(0.0950059 -0.0150365 0)
(0.0921523 -0.0120637 0)
(0.0879112 -0.00795353 0)
(0.0855365 -0.00577718 0)
(0.0848422 -0.0045584 0)
(0.0848143 -0.00379983 0)
(0.0850652 -0.00322869 0)
(0.0857165 -0.00260018 0)
(0.0874812 -0.00143785 0)
(0.0921752 0.00292718 0)
(0.0903431 0.0251382 0)
(0.0735312 0.0424421 0)
(0.0702303 0.0576262 0)
(-0.0898126 0.101152 0)
(0.57855 0.325837 0)
(-0.240107 0.121803 0)
(-0.0808279 0.109206 0)
(-0.121564 0.0898295 0)
(-0.138991 0.0740396 0)
(-0.153044 0.0586037 0)
(-0.163795 0.0427226 0)
(-0.171382 0.0257851 0)
(-0.175585 0.00718352 0)
(-0.175646 -0.0135346 0)
(-0.170955 -0.0364643 0)
(-0.161386 -0.0614464 0)
(-0.147512 -0.0873663 0)
(-0.130519 -0.1103 0)
(-0.109544 -0.123196 0)
(-0.0820513 -0.124523 0)
(-0.0524273 -0.126337 0)
(-0.0332879 -0.123161 0)
(0.0164964 -0.0568109 0)
(0.0609238 -0.0930645 0)
(0.0685574 -0.0792644 0)
(0.0791627 -0.0589266 0)
(0.0916491 -0.0397063 0)
(0.102976 -0.0210578 0)
(0.115731 -0.0132829 0)
(0.126956 -0.00885731 0)
(0.132618 -0.00562968 0)
(0.133649 -0.00311688 0)
(0.131163 -0.000890976 0)
(0.125731 0.00127996 0)
(0.117226 0.00366376 0)
(0.104877 0.00672369 0)
(0.0856263 0.0111616 0)
(0.0717339 0.0368621 0)
(0.0604414 0.0606518 0)
(0.0765006 0.083565 0)
(-0.117367 0.137604 0)
(0.70573 0.383675 0)
(-0.287684 0.156997 0)
(-0.0476904 0.13376 0)
(-0.0962817 0.106891 0)
(-0.107727 0.0875622 0)
(-0.116754 0.0691381 0)
(-0.123537 0.0504137 0)
(-0.128191 0.0305599 0)
(-0.130543 0.00870553 0)
(-0.12973 -0.0158269 0)
(-0.125226 -0.0430747 0)
(-0.116595 -0.0726788 0)
(-0.103858 -0.102826 0)
(-0.0873595 -0.129097 0)
(-0.0673843 -0.145788 0)
(-0.0440177 -0.152251 0)
(-0.020144 -0.152336 0)
(0.000409293 -0.143679 0)
(0.0309255 -0.114996 0)
(0.0570815 -0.10938 0)
(0.0706443 -0.092494 0)
(0.0807616 -0.0713482 0)
(0.0908105 -0.0509149 0)
(0.100365 -0.0328824 0)
(0.109498 -0.0194803 0)
(0.116572 -0.0100883 0)
(0.120052 -0.00338634 0)
(0.120304 0.00187443 0)
(0.117936 0.00642915 0)
(0.113318 0.0107928 0)
(0.106476 0.0154763 0)
(0.0973413 0.0211809 0)
(0.0854205 0.0292065 0)
(0.0738713 0.0472415 0)
(0.0634017 0.0713407 0)
(0.0950915 0.0995589 0)
(0.0173468 0.138779 0)
(0.0969615 0.182771 0)
(0.140378 0.145608 0)
(-0.220129 0.201524 0)
(0.810434 0.431968 0)
(-0.331323 0.190665 0)
(-0.0173114 0.150223 0)
(-0.0733574 0.117491 0)
(-0.0785783 0.0954767 0)
(-0.0821946 0.0749075 0)
(-0.084444 0.0543058 0)
(-0.0854767 0.0326879 0)
(-0.085216 0.00883776 0)
(-0.0825351 -0.0184197 0)
(-0.0773618 -0.0490229 0)
(-0.0687212 -0.0824983 0)
(-0.0567002 -0.116514 0)
(-0.0416031 -0.146336 0)
(-0.0245807 -0.166021 0)
(-0.00615723 -0.1745 0)
(0.0122401 -0.17272 0)
(0.0281625 -0.160966 0)
(0.0463146 -0.139296 0)
(0.0627418 -0.122342 0)
(0.073385 -0.102529 0)
(0.0810364 -0.0805151 0)
(0.0877782 -0.059204 0)
(0.0939593 -0.0403496 0)
(0.0993145 -0.0251792 0)
(0.103049 -0.0138232 0)
(0.10471 -0.00512875 0)
(0.104342 0.00206879 0)
(0.102238 0.00854737 0)
(0.0986464 0.0148261 0)
(0.0937196 0.0214312 0)
(0.0876871 0.0289934 0)
(0.0808153 0.0384229 0)
(0.0750607 0.0528621 0)
(0.0698434 0.0728734 0)
(0.0920544 0.0986211 0)
(0.0741963 0.107475 0)
(0.0912366 0.0479207 0)
(0.146549 -0.0355179 0)
(-0.323028 0.107187 0)
(0.879895 0.47468 0)
(-0.368642 0.220946 0)
(0.00371806 0.155527 0)
(-0.0526519 0.121537 0)
(-0.0521932 0.0978135 0)
(-0.0510068 0.0757808 0)
(-0.0489971 0.0540047 0)
(-0.0464767 0.0315027 0)
(-0.0432846 0.00675023 0)
(-0.0373199 -0.022308 0)
(-0.0302379 -0.0553667 0)
(-0.0204361 -0.0919456 0)
(-0.00859827 -0.128922 0)
(0.00465556 -0.161299 0)
(0.0177469 -0.181925 0)
(0.0305656 -0.19023 0)
(0.0423914 -0.187204 0)
(0.0527 -0.174366 0)
(0.0626528 -0.154006 0)
(0.071198 -0.132365 0)
(0.0766865 -0.109382 0)
(0.0801131 -0.0859237 0)
(0.0826896 -0.0637905 0)
(0.0849236 -0.0443282 0)
(0.0867766 -0.0282547 0)
(0.0879131 -0.0154768 0)
(0.0881017 -0.00521698 0)
(0.0871893 0.00344252 0)
(0.0853479 0.0111856 0)
(0.0827193 0.0185357 0)
(0.079472 0.0259909 0)
(0.0758796 0.0340481 0)
(0.072346 0.0432533 0)
(0.0702599 0.0548823 0)
(0.0690404 0.0693108 0)
(0.0821753 0.088267 0)
(0.0856103 0.0914766 0)
(0.091546 0.05415 0)
(0.181729 0.0272542 0)
(-0.278234 0.156845 0)
(0.927929 0.51714 0)
(-0.383155 0.234138 0)
(0.0168898 0.132923 0)
(-0.0273125 0.116607 0)
(-0.0265329 0.0948746 0)
(-0.0227172 0.0723798 0)
(-0.0175964 0.0500569 0)
(-0.0123151 0.0272104 0)
(-0.00533686 0.00182223 0)
(0.00463751 -0.0307549 0)
(0.0143719 -0.065339 0)
(0.0256914 -0.103357 0)
(0.0373603 -0.140905 0)
(0.0480622 -0.172199 0)
(0.057176 -0.192382 0)
(0.0646853 -0.199834 0)
(0.0704137 -0.195367 0)
(0.0743613 -0.181129 0)
(0.0770379 -0.160021 0)
(0.0783622 -0.136029 0)
(0.0779599 -0.111045 0)
(0.0764155 -0.0865691 0)
(0.0745688 -0.0640634 0)
(0.0729522 -0.044519 0)
(0.0717082 -0.0283062 0)
(0.070701 -0.0151397 0)
(0.0697271 -0.00431995 0)
(0.0684934 0.00492902 0)
(0.0670887 0.0131907 0)
(0.0654781 0.0209516 0)
(0.063729 0.0286357 0)
(0.0620145 0.0365884 0)
(0.0606273 0.0450806 0)
(0.060442 0.0545413 0)
(0.0613651 0.0648678 0)
(0.0702407 0.0775664 0)
(0.0807145 0.0802374 0)
(0.082499 0.0603693 0)
(0.239139 0.0568794 0)
(-0.542927 0.235288 0)
(1.01129 0.506789 0)
(-0.137111 0.296321 0)
(0.0410975 0.161474 0)
(0.0406483 0.122017 0)
(0.0131293 0.0918996 0)
(0.00870851 0.0652878 0)
(0.0141443 0.041315 0)
(0.0207833 0.0169107 0)
(0.0326053 -0.011077 0)
(0.0440846 -0.0421872 0)
(0.0559776 -0.0769423 0)
(0.0682769 -0.114682 0)
(0.0794352 -0.151166 0)
(0.0879497 -0.180639 0)
(0.0931752 -0.198648 0)
(0.0952244 -0.203775 0)
(0.0945048 -0.197076 0)
(0.0915622 -0.180986 0)
(0.0870726 -0.158563 0)
(0.081488 -0.133132 0)
(0.0751065 -0.107129 0)
(0.0685358 -0.0823763 0)
(0.062508 -0.0602195 0)
(0.0575534 -0.0413748 0)
(0.0538714 -0.0259169 0)
(0.0513596 -0.013342 0)
(0.0497397 -0.00287005 0)
(0.0486083 0.00619569 0)
(0.0479052 0.0143614 0)
(0.0473913 0.0220702 0)
(0.0469934 0.0296598 0)
(0.0467297 0.0373488 0)
(0.0466926 0.0452255 0)
(0.04728 0.0533031 0)
(0.0484689 0.0610753 0)
(0.0540262 0.0684375 0)
(0.064929 0.0648321 0)
(0.0629016 0.0346089 0)
(0.287188 0.0703409 0)
(-0.747061 0.30892 0)
(0.779313 0.395621 0)
(0.000984477 0.319442 0)
(0.0934475 0.218868 0)
(0.110684 0.155098 0)
(0.0772558 0.106728 0)
(0.0598721 0.0674348 0)
(0.0582964 0.0356443 0)
(0.0624794 0.00630028 0)
(0.0739312 -0.0235323 0)
(0.0855266 -0.0551214 0)
(0.097748 -0.0898219 0)
(0.109636 -0.126337 0)
(0.119025 -0.160132 0)
(0.124132 -0.185846 0)
(0.124358 -0.199893 0)
(0.12013 -0.201441 0)
(0.1124 -0.191862 0)
(0.102239 -0.173718 0)
(0.0906864 -0.150052 0)
(0.0785833 -0.123908 0)
(0.0666228 -0.0978335 0)
(0.0555471 -0.0737462 0)
(0.0460968 -0.0528894 0)
(0.0387633 -0.0356995 0)
(0.0336672 -0.0219474 0)
(0.03057 -0.0108377 0)
(0.0289988 -0.00144855 0)
(0.0284718 0.00685844 0)
(0.0286755 0.0145363 0)
(0.0292589 0.0219588 0)
(0.0300515 0.0293701 0)
(0.0309268 0.0369162 0)
(0.0317253 0.0446422 0)
(0.0322366 0.052508 0)
(0.031458 0.0601141 0)
(0.029521 0.0670485 0)
(0.0136533 0.0678173 0)
(0.00303978 0.101131 0)
(0.0191054 0.178569 0)
(-0.634786 0.302507 0)
(0.617233 0.220617 0)
(0.00478715 0.298019 0)
(0.113079 0.241488 0)
(0.148363 0.177471 0)
(0.130941 0.123392 0)
(0.117924 0.0776945 0)
(0.115073 0.0387399 0)
(0.117261 0.00324283 0)
(0.123653 -0.0308606 0)
(0.131908 -0.0651235 0)
(0.141623 -0.100596 0)
(0.150525 -0.135467 0)
(0.155669 -0.165346 0)
(0.15512 -0.185874 0)
(0.148566 -0.194733 0)
(0.136907 -0.19195 0)
(0.121612 -0.179273 0)
(0.10418 -0.159286 0)
(0.0859809 -0.134911 0)
(0.068116 -0.108949 0)
(0.0515352 -0.083895 0)
(0.0371277 -0.0616261 0)
(0.0256683 -0.0432335 0)
(0.0174845 -0.0287725 0)
(0.0123988 -0.0176168 0)
(0.00976491 -0.00858271 0)
(0.00885091 -0.000672823 0)
(0.00918848 0.0066362 0)
(0.0102631 0.0136927 0)
(0.0117956 0.0207577 0)
(0.0136065 0.0279929 0)
(0.0155101 0.0355474 0)
(0.0172146 0.043592 0)
(0.0182162 0.0524154 0)
(0.0172078 0.0624477 0)
(0.0133162 0.0752133 0)
(-0.0142387 0.0998808 0)
(-0.0140678 0.154136 0)
(0.00492473 0.185259 0)
(-0.541939 0.169918 0)
(0.570784 0.118205 0)
(-0.0202643 0.258515 0)
(0.113711 0.22983 0)
(0.165064 0.175971 0)
(0.166744 0.126054 0)
(0.164425 0.0809383 0)
(0.165437 0.0397927 0)
(0.16841 0.00144113 0)
(0.172393 -0.0355641 0)
(0.177995 -0.0720523 0)
(0.184192 -0.107692 0)
(0.187906 -0.13973 0)
(0.186114 -0.164282 0)
(0.177438 -0.178514 0)
(0.162323 -0.181622 0)
(0.142312 -0.174497 0)
(0.119333 -0.159174 0)
(0.0951349 -0.1381 0)
(0.0713037 -0.114008 0)
(0.049055 -0.0894045 0)
(0.029564 -0.0667119 0)
(0.0138627 -0.0476893 0)
(0.00262848 -0.033109 0)
(-0.00442575 -0.0222558 0)
(-0.00804218 -0.0142023 0)
(-0.00956589 -0.00729978 0)
(-0.00967526 -0.000821264 0)
(-0.00866079 0.00553441 0)
(-0.00699765 0.0119564 0)
(-0.00479899 0.0185906 0)
(-0.00220066 0.0255537 0)
(0.000701397 0.0331093 0)
(0.00366895 0.0415149 0)
(0.0063451 0.0514507 0)
(0.00789021 0.0643006 0)
(0.00891746 0.0832959 0)
(-0.00703944 0.118926 0)
(-0.0120142 0.187923 0)
(0.114048 0.201327 0)
(-0.489792 0.0682027 0)
(0.628497 0.0534411 0)
(0.00910518 0.197232 0)
(0.113711 0.196906 0)
(0.175035 0.157838 0)
(0.191311 0.117541 0)
(0.198001 0.0770808 0)
(0.203374 0.0370488 0)
(0.208623 -0.00174836 0)
(0.213169 -0.0398781 0)
(0.217514 -0.0767053 0)
(0.219363 -0.11009 0)
(0.215556 -0.13688 0)
(0.204206 -0.154462 0)
(0.185405 -0.161828 0)
(0.160768 -0.159529 0)
(0.132453 -0.148965 0)
(0.102683 -0.1322 0)
(0.0731541 -0.111341 0)
(0.0456234 -0.088932 0)
(0.021242 -0.0671582 0)
(0.00161729 -0.0484382 0)
(-0.0122357 -0.0344316 0)
(-0.0203408 -0.0251219 0)
(-0.024824 -0.0182196 0)
(-0.0269182 -0.0124593 0)
(-0.0275068 -0.00704069 0)
(-0.0270129 -0.00161753 0)
(-0.025565 0.00396045 0)
(-0.0235413 0.00977519 0)
(-0.0209306 0.0159068 0)
(-0.0178231 0.0224431 0)
(-0.014241 0.0295927 0)
(-0.0101823 0.0377459 0)
(-0.00568797 0.0477323 0)
(-0.00118405 0.0616584 0)
(0.00448706 0.0844672 0)
(0.00382182 0.121257 0)
(-0.00404696 0.184467 0)
(0.16975 0.202621 0)
(-0.363196 0.112856 0)
(0.472213 0.0747925 0)
(-0.13225 0.137523 0)
(0.0941141 0.13321 0)
(0.172576 0.116665 0)
(0.2037 0.0951535 0)
(0.218015 0.0641477 0)
(0.228043 0.0281013 0)
(0.237161 -0.00925639 0)
(0.243576 -0.0455696 0)
(0.245105 -0.0784677 0)
(0.239147 -0.105305 0)
(0.224357 -0.124022 0)
(0.201264 -0.133752 0)
(0.171789 -0.134928 0)
(0.1385 -0.128786 0)
(0.103672 -0.11659 0)
(0.0695666 -0.100183 0)
(0.0373597 -0.0811966 0)
(0.0093801 -0.0621625 0)
(-0.0137558 -0.0449827 0)
(-0.0283497 -0.033562 0)
(-0.037325 -0.0259033 0)
(-0.0423606 -0.0204454 0)
(-0.04501 -0.0159127 0)
(-0.0460563 -0.0116922 0)
(-0.0459474 -0.0074035 0)
(-0.0449268 -0.00285865 0)
(-0.0430498 0.00204515 0)
(-0.0407409 0.00729228 0)
(-0.0379069 0.0129083 0)
(-0.0346333 0.0189657 0)
(-0.0309635 0.0255975 0)
(-0.0268587 0.0331192 0)
(-0.0223318 0.0425039 0)
(-0.0180703 0.0568 0)
(-0.0136446 0.0800709 0)
(-0.00743896 0.108851 0)
(-0.00499343 0.149237 0)
(0.187096 0.179422 0)
(-0.33126 0.177301 0)
(0.723921 0.134497 0)
(0.0819379 0.115247 0)
(0.149706 0.0991501 0)
(0.222297 0.0803519 0)
(0.243948 0.0697109 0)
(0.248759 0.047376 0)
(0.255091 0.0172221 0)
(0.261202 -0.0150147 0)
(0.260219 -0.0449786 0)
(0.249714 -0.069773 0)
(0.229476 -0.0877053 0)
(0.201106 -0.0982971 0)
(0.166995 -0.101841 0)
(0.129692 -0.0993101 0)
(0.0916653 -0.0919319 0)
(0.0543399 -0.0803707 0)
(0.0203003 -0.0662375 0)
(-0.0108766 -0.0506657 0)
(-0.0333402 -0.0383847 0)
(-0.0484511 -0.0298636 0)
(-0.0576453 -0.0245054 0)
(-0.0631775 -0.0207169 0)
(-0.0663718 -0.0176339 0)
(-0.0679992 -0.0147064 0)
(-0.0684016 -0.0116786 0)
(-0.067764 -0.00836371 0)
(-0.0662234 -0.00460562 0)
(-0.0638811 -0.000277649 0)
(-0.0610605 0.00457913 0)
(-0.0580904 0.0098866 0)
(-0.0549824 0.0157206 0)
(-0.0520324 0.0222249 0)
(-0.0495482 0.0298176 0)
(-0.0477443 0.0398315 0)
(-0.0472256 0.0550627 0)
(-0.0485643 0.0761202 0)
(-0.046025 0.0947818 0)
(-0.0276716 0.108329 0)
(0.140194 0.156816 0)
(-0.441216 0.235829 0)
(0.192083 0.0879571 0)
(0.225878 0.0996867 0)
(0.246605 0.0699379 0)
(0.242653 0.0395151 0)
(0.23979 0.0118418 0)
(0.234703 -0.0130827 0)
(0.219912 -0.0334924 0)
(0.196155 -0.0486281 0)
(0.165813 -0.0584753 0)
(0.131362 -0.0634734 0)
(0.0946132 -0.0639176 0)
(0.0575079 -0.060505 0)
(0.0219517 -0.0540506 0)
(-0.0126976 -0.0446467 0)
(-0.0398635 -0.0355147 0)
(-0.0603789 -0.0280718 0)
(-0.074286 -0.0233055 0)
(-0.0833442 -0.0203708 0)
(-0.0892217 -0.0184911 0)
(-0.0931521 -0.016899 0)
(-0.0956999 -0.0153209 0)
(-0.097101 -0.0136188 0)
(-0.097432 -0.011683 0)
(-0.0967165 -0.00937346 0)
(-0.0949795 -0.00650849 0)
(-0.0922752 -0.00287741 0)
(-0.0886362 0.00165767 0)
(-0.085012 0.00696864 0)
(-0.0815719 0.0130814 0)
(-0.0787402 0.0203095 0)
(-0.0770511 0.029267 0)
(-0.0765528 0.041278 0)
(-0.0778696 0.058316 0)
(-0.0847333 0.0805547 0)
(-0.094878 0.101602 0)
(-0.0863867 0.116451 0)
(-0.0778881 0.152964 0)
(-0.537589 0.206715 0)
(0.451537 0.209273 0)
(0.207216 0.178589 0)
(0.15341 0.118718 0)
(0.140027 0.0639478 0)
(0.128413 0.0258182 0)
(0.114141 0.00177621 0)
(0.0986634 -0.0129495 0)
(0.0775681 -0.0221562 0)
(0.0529075 -0.0279318 0)
(0.0258515 -0.0306287 0)
(-0.0037735 -0.0301398 0)
(-0.0325795 -0.0273511 0)
(-0.0581252 -0.0234878 0)
(-0.0794931 -0.0196166 0)
(-0.0954135 -0.0169579 0)
(-0.10668 -0.0152804 0)
(-0.114532 -0.0143856 0)
(-0.120367 -0.0136799 0)
(-0.124966 -0.0129805 0)
(-0.128636 -0.0122561 0)
(-0.131433 -0.0115401 0)
(-0.133325 -0.0108343 0)
(-0.134234 -0.0100917 0)
(-0.134045 -0.00919113 0)
(-0.132622 -0.00789811 0)
(-0.12986 -0.0058363 0)
(-0.125727 -0.00253653 0)
(-0.120206 0.00234889 0)
(-0.114703 0.00870996 0)
(-0.109836 0.0166641 0)
(-0.105654 0.0268436 0)
(-0.101528 0.0403804 0)
(-0.0963647 0.0587936 0)
(-0.0924302 0.0833706 0)
(-0.0911205 0.113715 0)
(-0.0615013 0.14214 0)
(-0.0179043 0.135422 0)
(-0.581967 0.0361879 0)
(0.363551 -0.412933 0)
(-0.345565 -0.512696 0)
(-0.218693 -0.0286353 0)
(-0.0923381 0.110779 0)
(-0.0532631 0.0926824 0)
(-0.0310945 0.0547798 0)
(-0.0264232 0.0286938 0)
(-0.0315719 0.0119746 0)
(-0.0405223 0.00107449 0)
(-0.0510059 -0.00619983 0)
(-0.0645596 -0.0107552 0)
(-0.0797569 -0.0133501 0)
(-0.0953915 -0.0151082 0)
(-0.110302 -0.0171031 0)
(-0.123361 -0.0195574 0)
(-0.13364 -0.022237 0)
(-0.141156 -0.0247831 0)
(-0.146931 -0.0266677 0)
(-0.151952 -0.027928 0)
(-0.156721 -0.0286872 0)
(-0.161283 -0.0290403 0)
(-0.165491 -0.0290186 0)
(-0.169157 -0.0286253 0)
(-0.172091 -0.0278445 0)
(-0.174075 -0.0266429 0)
(-0.17485 -0.0249605 0)
(-0.174141 -0.022681 0)
(-0.171736 -0.019579 0)
(-0.167573 -0.0152682 0)
(-0.161751 -0.00922814 0)
(-0.154284 -0.00103052 0)
(-0.14628 0.00924801 0)
(-0.138342 0.0211699 0)
(-0.128829 0.0348734 0)
(-0.115257 0.0512189 0)
(-0.0956025 0.0708106 0)
(-0.069508 0.0956883 0)
(-0.0260436 0.130465 0)
(0.138421 0.137652 0)
(-0.415767 0.0457983 0)
(0.125301 -0.184267 0)
(-0.387113 -0.297135 0)
(-0.342785 -0.0967869 0)
(-0.264476 0.0513498 0)
(-0.210822 0.0836132 0)
(-0.178721 0.0747545 0)
(-0.162465 0.0612826 0)
(-0.156485 0.0512716 0)
(-0.156557 0.0459978 0)
(-0.159809 0.0452287 0)
(-0.164226 0.0480761 0)
(-0.168377 0.0533971 0)
(-0.17166 0.0599268 0)
(-0.173918 0.0657118 0)
(-0.175685 0.0689225 0)
(-0.177565 0.0700686 0)
(-0.180026 0.0701477 0)
(-0.183052 0.0700613 0)
(-0.186404 0.0699121 0)
(-0.189865 0.0694167 0)
(-0.193269 0.0682949 0)
(-0.196492 0.0663858 0)
(-0.199436 0.0635906 0)
(-0.20201 0.0598107 0)
(-0.204122 0.0549497 0)
(-0.205674 0.0490199 0)
(-0.206564 0.0423107 0)
(-0.206681 0.0354852 0)
(-0.205875 0.0294807 0)
(-0.203901 0.0252382 0)
(-0.200274 0.0233995 0)
(-0.193851 0.0238609 0)
(-0.184424 0.0255635 0)
(-0.172257 0.0279542 0)
(-0.154668 0.0313811 0)
(-0.128297 0.0341259 0)
(-0.0882981 0.0336498 0)
(-0.027533 0.0363925 0)
(0.171996 0.071984 0)
(-0.376541 0.108184 0)
(1.14627 -0.0111261 0)
(-0.294148 -0.322454 0)
(-0.352508 -0.233643 0)
(-0.351826 -0.149284 0)
(-0.328126 -0.107839 0)
(-0.296372 -0.0991617 0)
(-0.268886 -0.101282 0)
(-0.248801 -0.106966 0)
(-0.235239 -0.114722 0)
(-0.226302 -0.124643 0)
(-0.22034 -0.137088 0)
(-0.216234 -0.151877 0)
(-0.213328 -0.167445 0)
(-0.211419 -0.181003 0)
(-0.210686 -0.189898 0)
(-0.211357 -0.194432 0)
(-0.213187 -0.195765 0)
(-0.215736 -0.195384 0)
(-0.218616 -0.194203 0)
(-0.221678 -0.192547 0)
(-0.224992 -0.190409 0)
(-0.228737 -0.187619 0)
(-0.23313 -0.183942 0)
(-0.238393 -0.179125 0)
(-0.244771 -0.172933 0)
(-0.252509 -0.165165 0)
(-0.261756 -0.155669 0)
(-0.272364 -0.144375 0)
(-0.28367 -0.131345 0)
(-0.294393 -0.116792 0)
(-0.302765 -0.101022 0)
(-0.306808 -0.0843769 0)
(-0.304372 -0.0673344 0)
(-0.295106 -0.0514107 0)
(-0.280917 -0.0377839 0)
(-0.261925 -0.0259976 0)
(-0.232186 -0.013945 0)
(-0.182498 0.00873856 0)
(-0.163524 0.0566064 0)
(-0.568072 0.113857 0)
)
;

boundaryField
{
    floor
    {
        type            noSlip;
    }
    ceiling
    {
        type            noSlip;
    }
    sWall
    {
        type            noSlip;
    }
    nWall
    {
        type            noSlip;
    }
    sideWalls
    {
        type            empty;
    }
    glass1
    {
        type            noSlip;
    }
    glass2
    {
        type            noSlip;
    }
    sun
    {
        type            noSlip;
    }
    Table_master
    {
        type            noSlip;
    }
    Table_slave
    {
        type            noSlip;
    }
    inlet
    {
        type            fixedValue;
        value           uniform (0.5 0 0);
    }
    outlet
    {
        type            zeroGradient;
    }
}


// ************************************************************************* //
