/*--------------------------------*- C++ -*----------------------------------*\
  =========                 |
  \\      /  F ield         | OpenFOAM: The Open Source CFD Toolbox
   \\    /   O peration     | Website:  https://openfoam.org
    \\  /    A nd           | Version:  6
     \\/     M anipulation  |
\*---------------------------------------------------------------------------*/
FoamFile
{
    version     2.0;
    format      ascii;
    class       volScalarField;
    location    "370";
    object      epsilon;
}
// * * * * * * * * * * * * * * * * * * * * * * * * * * * * * * * * * * * * * //

dimensions      [0 2 -3 0 0 0 0];

internalField   nonuniform List<scalar> 
458
(
0.000541825
0.000708209
0.000768632
0.000891095
0.00101826
0.00115525
0.00131447
0.0014673
0.00158859
0.00164363
0.00159833
0.00141246
0.000970123
0.000588453
0.000359209
5.2541e-05
8.49132e-05
0.000124633
0.000142173
0.000135343
0.000111448
8.87275e-05
7.11853e-05
5.79439e-05
4.78314e-05
4.00013e-05
3.38819e-05
2.89827e-05
2.49313e-05
2.1437e-05
1.82531e-05
1.6343e-05
1.26137e-05
0.00127342
0.00183481
0.000650348
0.000635143
0.00066523
0.000728688
0.000836526
0.000969066
0.00108837
0.00114596
0.00111042
0.000989098
0.00075693
0.000565064
0.000426451
0.000695873
0.00045147
0.000266185
4.97794e-05
9.00719e-05
0.000111075
0.00011367
0.000110916
0.000114016
9.04196e-05
6.94251e-05
5.36058e-05
4.18951e-05
3.32145e-05
2.6743e-05
2.18273e-05
1.80979e-05
1.57609e-05
1.48316e-05
3.99479e-05
2.69289e-05
0.00222153
0.00425693
0.000730967
0.000575481
0.000601164
0.000682409
0.000813237
0.000973047
0.00110577
0.00116767
0.0011397
0.00102697
0.000820497
0.000622521
0.000466021
0.000390027
0.000348059
0.000374754
0.000146886
0.000152504
0.000141106
0.000129433
0.000124755
0.000257655
0.000171093
0.000116294
8.18714e-05
5.97908e-05
4.52123e-05
3.53607e-05
2.86085e-05
2.41213e-05
1.87619e-05
1.68536e-05
8.44086e-05
4.34026e-05
0.0034743
0.00863596
0.0010401
0.000549943
0.00056124
0.000663767
0.000838912
0.00104612
0.00118964
0.00125091
0.00122369
0.00109522
0.000873483
0.000649352
0.000474222
0.000363085
0.000308434
0.000335614
0.000497442
0.00036647
0.000252919
0.000194317
0.000160603
0.000146953
0.000361317
0.0002766
0.000226709
0.000193121
0.000166593
0.000143499
0.000123307
0.00010404
8.42189e-05
5.03096e-05
3.27749e-05
0.00015727
6.37345e-05
0.00514834
0.0154219
0.00189728
0.000574401
0.000524386
0.000661763
0.000959062
0.00124294
0.0013871
0.00143405
0.00138489
0.00121306
0.000939781
0.00066258
0.000459861
0.000339809
0.000277808
0.000277612
0.000324169
0.000282115
0.000241096
0.000208047
0.000177227
0.000149571
0.000140544
0.000129646
0.000121878
0.00011456
0.00010591
9.57342e-05
8.52211e-05
7.49023e-05
6.50576e-05
5.18671e-05
4.01449e-05
9.99226e-05
0.000153731
0.00015153
0.000175693
0.000221784
0.00745123
0.0231986
0.00418641
0.000874725
0.000572172
0.000702618
0.00130682
0.00161786
0.00172304
0.00172466
0.00162675
0.00138856
0.00102733
0.00066942
0.000422162
0.000293432
0.000245734
0.000251341
0.000274168
0.000274036
0.000256785
0.000226387
0.000190049
0.000155724
0.000133647
0.000124888
0.000122598
0.000120486
0.000115523
0.000106259
9.28986e-05
7.90781e-05
6.65147e-05
5.51274e-05
4.79149e-05
6.95868e-05
0.000116854
0.000138518
0.00025259
0.00024894
0.0103102
0.0279678
0.00899983
0.00282947
0.00156537
0.00166638
0.00212392
0.00225473
0.002235
0.00213784
0.00195007
0.00160468
0.00111987
0.0006621
0.0003711
0.00024632
0.000223443
0.000245862
0.00027428
0.000279834
0.00025972
0.000224162
0.000185509
0.000153596
0.000136214
0.00013363
0.000138065
0.000143475
0.000147049
0.000146299
0.000136365
0.000120597
0.000105459
9.27601e-05
8.76721e-05
0.00010169
0.000146452
0.000224482
0.000422754
0.000430315
0.0111316
0.0319255
0.0169166
0.00958898
0.0059512
0.00454957
0.00377519
0.0032992
0.00295892
0.0026671
0.00233007
0.00182079
0.00116357
0.000597978
0.000302412
0.000224622
0.000223364
0.000247454
0.000266693
0.000261158
0.000233831
0.00019864
0.000167971
0.000148683
0.000142819
0.000147896
0.000159558
0.000175511
0.000195377
0.000219009
0.000245051
0.000262526
0.000278159
0.00031242
0.000380235
0.000573475
0.00103075
0.0018429
0.00565176
0.0015751
0.0105104
0.0185344
0.0143832
0.010778
0.00811454
0.00631891
0.00511825
0.00430708
0.00369446
0.00319403
0.00266932
0.00190983
0.00100778
0.000447691
0.000270629
0.000230138
0.000231371
0.000241017
0.00024111
0.000225569
0.000200482
0.00017541
0.000157688
0.000149858
0.000151143
0.000159648
0.000174267
0.00019561
0.000225777
0.000267989
0.000326515
0.000406113
0.000514645
0.000675039
0.000906094
0.00120884
0.00154301
0.00183209
0.00205996
0.00122311
0.00436196
0.00580918
0.006255
0.00611583
0.00562061
0.00485861
0.00402315
0.00333095
0.00258878
0.00138758
0.000670985
0.000380217
0.000288703
0.000264294
0.000260454
0.000259548
0.000253161
0.000239205
0.000221725
0.000206085
0.000195145
0.000189321
0.000187947
0.000190474
0.00019702
0.000208693
0.000227773
0.000258026
0.000305336
0.000376081
0.000477115
0.000616508
0.000794886
0.000986934
0.00112831
0.00114132
0.000988401
0.000635498
0.00357033
0.0108829
0.0100528
0.00830829
0.00635774
0.00426981
0.00249944
0.00150296
0.000938364
0.000603962
0.000459035
0.000404011
0.000388529
0.00038759
0.000389588
0.000388541
0.000381214
0.000367163
0.00034761
0.000327887
0.000310305
0.000295349
0.000283348
0.000275065
0.000271807
0.000275317
0.000287749
0.000311869
0.000351984
0.000413604
0.000503181
0.000626706
0.000784286
0.000964973
0.00110946
0.00123316
0.000840188
0.000660962
0.00408158
0.00434343
0.00460921
0.00646046
0.00481168
0.00275506
0.00148922
0.00106991
0.000807636
0.000654704
0.000560618
0.000479791
0.000421335
0.000384378
0.000360126
0.000340079
0.000318916
0.00029461
0.000268858
0.000245993
0.000230114
0.00021941
0.000213402
0.000211495
0.000213386
0.000219166
0.000229285
0.000244577
0.00026647
0.000297534
0.000338308
0.000391073
0.000458256
0.000543097
0.000648834
0.000801254
0.000866527
0.000812782
0.000656155
0.000516384
)
;

boundaryField
{
    floor
    {
        Cmu             0.09;
        kappa           0.41;
        E               9.8;
        type            epsilonWallFunction;
        value           nonuniform List<scalar> 
36
(
0.000359209
5.2541e-05
8.49132e-05
0.000124633
0.000142173
0.000135343
0.000111448
8.87275e-05
7.11853e-05
5.79439e-05
4.78314e-05
4.00013e-05
3.38819e-05
2.89827e-05
2.49313e-05
2.1437e-05
1.82531e-05
1.6343e-05
1.26137e-05
1.26137e-05
2.69289e-05
4.34026e-05
6.37345e-05
0.00015153
0.000175693
0.000221784
0.000359209
0.000695873
0.00045147
0.000266185
5.2541e-05
0.000266185
4.97794e-05
0.000374754
0.000146886
0.000497442
)
;
    }
    ceiling
    {
        Cmu             0.09;
        kappa           0.41;
        E               9.8;
        type            epsilonWallFunction;
        value           nonuniform List<scalar> 
43
(
0.00408158
0.00434343
0.00460921
0.00646046
0.00481168
0.00275506
0.00148922
0.00106991
0.000807636
0.000654704
0.000560618
0.000479791
0.000421335
0.000384378
0.000360126
0.000340079
0.000318916
0.00029461
0.000268858
0.000245993
0.000230114
0.00021941
0.000213402
0.000211495
0.000213386
0.000219166
0.000229285
0.000244577
0.00026647
0.000297534
0.000338308
0.000391073
0.000458256
0.000543097
0.000648834
0.000801254
0.000866527
0.000812782
0.000656155
0.000516384
0.0105104
0.0185344
0.00357033
)
;
    }
    sWall
    {
        Cmu             0.09;
        kappa           0.41;
        E               9.8;
        type            epsilonWallFunction;
        value           uniform 0.00408158;
    }
    nWall
    {
        Cmu             0.09;
        kappa           0.41;
        E               9.8;
        type            epsilonWallFunction;
        value           nonuniform List<scalar> 6(0.000221784 0.00024894 0.000430315 0.000635498 0.000660962 0.000516384);
    }
    sideWalls
    {
        type            empty;
    }
    glass1
    {
        Cmu             0.09;
        kappa           0.41;
        E               9.8;
        type            epsilonWallFunction;
        value           nonuniform List<scalar> 9(0.000541825 0.00127342 0.00222153 0.0034743 0.00514834 0.00745123 0.0103102 0.0111316 0.0105104);
    }
    glass2
    {
        Cmu             0.09;
        kappa           0.41;
        E               9.8;
        type            epsilonWallFunction;
        value           nonuniform List<scalar> 2(0.0015751 0.00122311);
    }
    sun
    {
        Cmu             0.09;
        kappa           0.41;
        E               9.8;
        type            epsilonWallFunction;
        value           nonuniform List<scalar> 
14
(
0.000541825
0.000708209
0.000768632
0.000891095
0.00101826
0.00115525
0.00131447
0.0014673
0.00158859
0.00164363
0.00159833
0.00141246
0.000970123
0.000588453
)
;
    }
    Table_master
    {
        Cmu             0.09;
        kappa           0.41;
        E               9.8;
        type            epsilonWallFunction;
        value           nonuniform List<scalar> 9(0.000257655 0.000171093 0.000116294 8.18714e-05 5.97908e-05 4.52123e-05 3.53607e-05 2.86085e-05 2.41213e-05);
    }
    Table_slave
    {
        Cmu             0.09;
        kappa           0.41;
        E               9.8;
        type            epsilonWallFunction;
        value           nonuniform List<scalar> 9(0.000361317 0.0002766 0.000226709 0.000193121 0.000166593 0.000143499 0.000123307 0.00010404 8.42189e-05);
    }
    inlet
    {
        type            turbulentMixingLengthDissipationRateInlet;
        mixingLength    0.01;
        phi             phi;
        k               k;
        value           uniform 0.000471671;
    }
    outlet
    {
        type            zeroGradient;
    }
}


// ************************************************************************* //
