// -*- C++ -*-
// File generated by PyFoam - sorry for the ugliness

FoamFile
{
 version 2.0;
 format ascii;
 class volScalarField;
 location "0";
 object T;
}

dimensions [ 0 0 0 1 0 0 0 ];

internalField uniform 303.37579807788643;

boundaryField
{
  floor
  {
    type wallHeatTransfer;
    Tinf uniform 305.2;
    alphaWall uniform 0.24;
    value nonuniform List<scalar> 36
(
  300
  300
  300
  300
  300
  300
  300
  300
  300
  300
  300
  300
  300
  300
  300
  300
  300
  300
  300
  300
  306
  306
  306
  306
  306
  306
  306
  306
  306
  306
  306
  306
  306
  306
  306
  306
)
;
  }
  ceiling
  {
    type wallHeatTransfer;
    Tinf uniform 303.2;
    alphaWall uniform 0.24;
    value uniform 300;
  }
  sWall
  {
    type wallHeatTransfer;
    Tinf uniform 315.2;
    alphaWall uniform 0.36;
    value uniform 300;
  }
  nWall
  {
    type wallHeatTransfer;
    Tinf uniform 307.2;
    alphaWall uniform 0.36;
    value uniform 300;
  }
  sideWalls
  {
    type empty;
  }
  outlet
  {
    type zeroGradient;
  }
  inlet
  {
    type fixedValue;
    value uniform 288.15;
  }
  heatsource2
  {
    type fixedGradient;
    gradient uniform 0;
  }
  heatsource1
  {
    type fixedGradient;
    gradient uniform 0;
  }
  glass1
  {
    type wallHeatTransfer;
    Tinf uniform 315.2;
    alphaWall uniform 4.3;
    value uniform 300;
  }
  glass2
  {
    type wallHeatTransfer;
    Tinf uniform 307.2;
    alphaWall uniform 4.3;
    value uniform 300;
  }
  sun
  {
    type wallHeatTransfer;
    Tinf uniform 305.2;
    alphaWall uniform 0.24;
    value uniform 300;
  }
} 	// ************************************************************************* //

