/*--------------------------------*- C++ -*----------------------------------*\
  =========                 |
  \\      /  F ield         | OpenFOAM: The Open Source CFD Toolbox
   \\    /   O peration     | Website:  https://openfoam.org
    \\  /    A nd           | Version:  6
     \\/     M anipulation  |
\*---------------------------------------------------------------------------*/
FoamFile
{
    version     2.0;
    format      ascii;
    class       volScalarField;
    location    "8200";
    object      T;
}
// * * * * * * * * * * * * * * * * * * * * * * * * * * * * * * * * * * * * * //

dimensions      [0 0 0 1 0 0 0];

internalField   nonuniform List<scalar> 
662
(
302.573
302.282
302.267
302.262
302.258
302.252
302.247
302.241
302.232
302.218
302.2
302.181
302.171
302.177
302.212
302.374
302.35
302.342
302.349
302.356
302.362
302.368
302.373
302.379
302.384
302.39
302.395
302.4
302.405
302.411
302.417
302.424
302.449
302.787
302.335
302.313
302.319
302.325
302.328
302.328
302.324
302.311
302.282
302.235
302.185
302.156
302.157
302.174
302.187
302.2
302.224
302.38
302.328
302.324
302.332
302.342
302.346
302.348
302.35
302.352
302.354
302.355
302.357
302.359
302.363
302.367
302.375
302.387
302.43
303.01
302.4
302.364
302.384
302.409
302.43
302.446
302.452
302.439
302.391
302.3
302.199
302.146
302.146
302.168
302.183
302.194
302.217
302.332
302.313
302.316
302.333
302.352
302.352
302.352
302.353
302.353
302.353
302.354
302.354
302.355
302.356
302.36
302.366
302.377
302.424
303.229
302.482
302.411
302.44
302.485
302.532
302.577
302.606
302.603
302.534
302.38
302.211
302.132
302.137
302.168
302.191
302.202
302.213
302.225
302.246
302.278
302.315
302.351
302.382
302.406
302.423
302.438
302.45
302.46
302.467
302.472
302.477
302.478
302.448
302.416
302.397
302.427
303.43
302.593
302.471
302.482
302.53
302.592
302.663
302.729
302.754
302.668
302.445
302.211
302.116
302.128
302.174
302.212
302.23
302.239
302.257
302.287
302.324
302.365
302.405
302.439
302.469
302.49
302.507
302.52
302.529
302.533
302.533
302.528
302.518
302.494
302.458
302.425
302.428
302.526
302.604
302.606
303.589
302.808
302.634
302.58
302.589
302.63
302.694
302.786
302.838
302.727
302.454
302.194
302.088
302.121
302.192
302.251
302.283
302.301
302.326
302.359
302.398
302.439
302.476
302.509
302.535
302.555
302.569
302.579
302.585
302.585
302.579
302.568
302.552
302.528
302.494
302.457
302.442
302.485
302.514
302.558
304.843
303.542
303.14
302.923
302.804
302.759
302.777
302.847
302.906
302.796
302.478
302.151
302.029
302.122
302.233
302.316
302.363
302.391
302.418
302.449
302.485
302.52
302.552
302.578
302.599
302.614
302.623
302.629
302.631
302.627
302.618
302.602
302.582
302.558
302.528
302.494
302.472
302.481
302.495
302.527
307.142
305.01
304.266
303.834
303.504
303.275
303.149
303.089
302.952
302.619
302.191
301.934
302.006
302.173
302.322
302.416
302.463
302.488
302.513
302.54
302.569
302.597
302.62
302.639
302.652
302.66
302.664
302.665
302.663
302.658
302.649
302.635
302.614
302.592
302.569
302.546
302.533
302.539
302.561
302.728
293.648
299.509
301.62
302.377
302.593
302.561
302.296
301.903
301.675
301.742
302.102
302.316
302.465
302.527
302.557
302.578
302.598
302.619
302.64
302.659
302.674
302.684
302.69
302.693
302.694
302.692
302.689
302.685
302.682
302.681
302.682
302.688
302.702
302.727
302.764
302.802
302.836
302.913
295.443
295.285
297.668
299.481
300.427
300.765
300.885
301.099
301.467
301.893
302.372
302.513
302.583
302.616
302.636
302.652
302.667
302.681
302.694
302.705
302.712
302.716
302.718
302.72
302.72
302.72
302.72
302.721
302.722
302.724
302.728
302.736
302.75
302.77
302.796
302.822
302.847
302.896
299.823
297.763
295.635
295.66
297.342
298.878
299.803
300.402
300.937
301.477
301.997
302.356
302.588
302.639
302.668
302.685
302.697
302.707
302.716
302.724
302.73
302.734
302.737
302.739
302.74
302.741
302.741
302.742
302.743
302.744
302.745
302.748
302.751
302.757
302.766
302.78
302.797
302.817
302.843
302.871
300.083
298.957
298.455
298.504
299.268
300.073
300.751
301.357
301.887
302.277
302.529
302.662
302.721
302.734
302.744
302.751
302.757
302.761
302.765
302.768
302.77
302.77
302.77
302.77
302.77
302.769
302.768
302.768
302.767
302.766
302.766
302.766
302.767
302.769
302.774
302.781
302.793
302.801
302.862
302.969
303.796
303.334
303.014
302.851
302.768
302.756
302.802
302.888
302.879
302.654
302.297
302.062
305.82
304.556
304.035
303.657
303.376
303.2
303.118
303.041
302.81
302.4
302.029
301.916
297.541
300.817
302.1
302.526
302.602
302.461
302.097
301.754
301.675
301.855
294.385
296.469
298.692
300.048
300.653
300.823
300.972
301.267
301.683
302.079
299.118
296.515
295.125
296.466
298.175
299.399
300.125
300.668
301.207
301.74
302.201
302.467
299.293
298.664
298.366
298.851
299.686
300.424
301.06
301.636
302.101
302.419
302.608
302.695
304.008
304.016
303.632
303.346
303.13
302.994
302.943
302.962
302.952
302.749
302.369
302.053
307.229
305.052
304.472
303.945
303.585
303.344
303.187
303.065
302.788
302.347
301.947
301.817
295.327
296.446
299.229
300.812
301.492
301.644
301.539
301.402
301.477
301.758
293.954
295.164
297.136
298.829
299.83
300.327
300.687
301.152
301.669
302.118
299.848
298.179
296.941
296.934
298.173
299.339
300.157
300.807
301.407
301.905
302.295
302.527
299.885
299.886
299.96
300.11
300.545
301.063
301.566
302.017
302.357
302.567
302.679
302.717
304.305
303.807
303.479
303.229
303.05
302.957
302.946
302.973
302.881
302.569
302.186
301.988
305.847
304.823
304.183
303.748
303.452
303.257
303.128
302.952
302.58
302.124
301.843
301.858
294.879
297.971
300.164
301.236
301.619
301.616
301.455
301.407
301.601
301.925
294.473
296.117
298.066
299.41
300.122
300.498
300.908
301.409
301.91
302.286
298.935
297.479
296.647
297.518
298.798
299.781
300.492
301.114
301.671
302.115
302.433
302.581
299.868
299.917
300.015
300.303
300.803
301.318
301.801
302.204
302.477
302.634
302.705
302.721
)
;

boundaryField
{
    floor
    {
        type            wallHeatTransfer;
        Tinf            uniform 305.2;
        alphaWall       uniform 0.24;
        value           nonuniform List<scalar> 
36
(
302.522
302.895
302.821
302.776
302.771
302.783
302.809
302.839
302.869
302.899
302.927
302.954
302.979
303.004
303.028
303.052
303.078
303.096
303.148
303.148
303.022
302.955
302.91
302.906
302.96
302.941
302.522
302.459
302.513
302.587
302.895
302.587
302.901
302.535
302.718
302.507
)
;
    }
    ceiling
    {
        type            wallHeatTransfer;
        Tinf            uniform 303.2;
        alphaWall       uniform 0.24;
        value           nonuniform List<scalar> 
58
(
300.085
300.122
300.206
300.475
300.949
301.439
301.9
302.283
302.542
302.693
302.763
302.777
302.781
302.793
302.803
302.81
302.817
302.822
302.826
302.83
302.832
302.833
302.833
302.833
302.831
302.83
302.828
302.826
302.824
302.822
302.819
302.817
302.816
302.816
302.817
302.822
302.832
302.842
302.899
302.991
305.7
304.74
294.881
300.297
300.098
300.158
300.293
300.704
301.196
301.675
302.105
302.428
302.629
302.737
302.774
306.91
304.955
296.097
)
;
    }
    sWall
    {
        type            wallHeatTransfer;
        Tinf            uniform 315.2;
        alphaWall       uniform 0.36;
        value           nonuniform List<scalar> 4(301.091 301.215 301.077 301.591);
    }
    nWall
    {
        type            wallHeatTransfer;
        Tinf            uniform 307.2;
        alphaWall       uniform 0.36;
        value           nonuniform List<scalar> 6(303.444 303.383 303.267 303.502 303.465 303.562);
    }
    sideWalls
    {
        type            empty;
    }
    glass1
    {
        type            wallHeatTransfer;
        Tinf            uniform 315.2;
        alphaWall       uniform 4.3;
        value           nonuniform List<scalar> 10(311.393 310.726 310.269 309.896 309.593 309.29 309.283 311.378 309.822 311.429);
    }
    glass2
    {
        type            wallHeatTransfer;
        Tinf            uniform 307.2;
        alphaWall       uniform 4.3;
        value           nonuniform List<scalar> 2(305.469 305.597);
    }
    sun
    {
        type            wallHeatTransfer;
        Tinf            uniform 305.2;
        alphaWall       uniform 0.24;
        value           nonuniform List<scalar> 
14
(
302.868
302.591
302.573
302.559
302.545
302.532
302.519
302.506
302.491
302.472
302.45
302.431
302.426
302.445
)
;
    }
    Table_master
    {
        type            zeroGradient;
    }
    Table_slave
    {
        type            zeroGradient;
    }
    inlet
    {
        type            fixedValue;
        value           uniform 293.15;
    }
    outlet
    {
        type            zeroGradient;
    }
}


// ************************************************************************* //
