/*--------------------------------*- C++ -*----------------------------------*\
  =========                 |
  \\      /  F ield         | OpenFOAM: The Open Source CFD Toolbox
   \\    /   O peration     | Website:  https://openfoam.org
    \\  /    A nd           | Version:  6
     \\/     M anipulation  |
\*---------------------------------------------------------------------------*/
FoamFile
{
    version     2.0;
    format      ascii;
    class       volVectorField;
    location    "8200";
    object      U;
}
// * * * * * * * * * * * * * * * * * * * * * * * * * * * * * * * * * * * * * //

dimensions      [0 1 -1 0 0 0 0];

internalField   nonuniform List<vector> 
778
(
(0.0656023 0.0794064 0)
(-0.155174 0.0157633 0)
(-0.164297 0.0146219 0)
(-0.192409 0.0122709 0)
(-0.216838 0.00871959 0)
(-0.23689 0.00473789 0)
(-0.252007 0.000410826 0)
(-0.261767 -0.00437391 0)
(-0.265657 -0.00981483 0)
(-0.262676 -0.0161924 0)
(-0.25087 -0.0242627 0)
(-0.226174 -0.0348773 0)
(-0.186063 -0.0503928 0)
(-0.14414 -0.075154 0)
(-0.150021 -0.108533 0)
(0.0546903 0.0354702 0)
(0.0158283 -0.0268861 0)
(0.0450418 -0.0232707 0)
(0.0694714 -0.0161667 0)
(0.0845518 -0.0103589 0)
(0.0917706 -0.00641718 0)
(0.0946077 -0.0043395 0)
(0.0956453 -0.00331795 0)
(0.0961063 -0.00273071 0)
(0.0962836 -0.0023165 0)
(0.0961613 -0.0019509 0)
(0.0956338 -0.0015095 0)
(0.094373 -0.000754821 0)
(0.0915203 0.000850722 0)
(0.0853048 0.00407742 0)
(0.0737422 0.00779065 0)
(0.0600474 0.0116403 0)
(-0.00788321 0.0300258 0)
(0.258404 0.167391 0)
(-0.161234 0.048388 0)
(-0.141597 0.0459748 0)
(-0.173997 0.0416064 0)
(-0.199353 0.0356563 0)
(-0.220065 0.0291148 0)
(-0.236084 0.0220421 0)
(-0.247325 0.0142122 0)
(-0.25349 0.00528202 0)
(-0.253799 -0.00516389 0)
(-0.247641 -0.0170888 0)
(-0.233936 -0.0308509 0)
(-0.214032 -0.0480702 0)
(-0.197457 -0.0699459 0)
(-0.193943 -0.0826188 0)
(-0.166347 -0.0425277 0)
(-0.105324 -0.0363411 0)
(-0.0983227 -0.044436 0)
(0.109359 -0.0421791 0)
(0.0645106 -0.0412326 0)
(0.0719943 -0.0323208 0)
(0.0860128 -0.0207608 0)
(0.0939511 -0.0105037 0)
(0.0962047 -0.0036454 0)
(0.0959645 -0.000199239 0)
(0.0955706 0.00123939 0)
(0.0955319 0.00188552 0)
(0.095613 0.00226238 0)
(0.0956217 0.00258886 0)
(0.0955228 0.00313444 0)
(0.0952322 0.00441817 0)
(0.0939738 0.0077381 0)
(0.0883702 0.0167841 0)
(0.0745909 0.02539 0)
(0.0632205 0.0330328 0)
(-0.0519146 0.0636974 0)
(0.429988 0.253951 0)
(-0.194234 0.0847526 0)
(-0.11277 0.0784223 0)
(-0.148232 0.0669405 0)
(-0.170657 0.0554794 0)
(-0.188742 0.0437021 0)
(-0.20257 0.0313169 0)
(-0.212251 0.0179812 0)
(-0.217592 0.00337716 0)
(-0.217941 -0.0126469 0)
(-0.212679 -0.0303317 0)
(-0.20157 -0.0499095 0)
(-0.185926 -0.0715642 0)
(-0.169383 -0.0932018 0)
(-0.151006 -0.104545 0)
(-0.120169 -0.093112 0)
(-0.0794867 -0.0948926 0)
(-0.0714024 -0.107529 0)
(0.0921726 -0.0882633 0)
(0.0626179 -0.0658462 0)
(0.0744424 -0.046212 0)
(0.0881092 -0.0293313 0)
(0.0950001 -0.0149985 0)
(0.092136 -0.0120272 0)
(0.0878951 -0.00793849 0)
(0.0855223 -0.00577691 0)
(0.084824 -0.00456243 0)
(0.0847922 -0.00380288 0)
(0.0850427 -0.0032296 0)
(0.0856952 -0.00259999 0)
(0.0874605 -0.00143795 0)
(0.0921537 0.00292544 0)
(0.0903181 0.0251325 0)
(0.0734972 0.0424331 0)
(0.0702261 0.0575931 0)
(-0.0899427 0.101132 0)
(0.578559 0.325834 0)
(-0.240107 0.1218 0)
(-0.0808239 0.109208 0)
(-0.12156 0.0898331 0)
(-0.138988 0.0740422 0)
(-0.153042 0.058603 0)
(-0.163794 0.0427166 0)
(-0.17138 0.0257728 0)
(-0.175581 0.00716545 0)
(-0.175637 -0.0135559 0)
(-0.170941 -0.0364845 0)
(-0.161367 -0.0614606 0)
(-0.14749 -0.0873704 0)
(-0.130496 -0.110294 0)
(-0.109522 -0.123184 0)
(-0.0820295 -0.124509 0)
(-0.052404 -0.126319 0)
(-0.0332574 -0.123138 0)
(0.0165368 -0.0568066 0)
(0.0609487 -0.0930817 0)
(0.0685659 -0.079264 0)
(0.0791648 -0.0589059 0)
(0.0916495 -0.0396718 0)
(0.102975 -0.0210197 0)
(0.115725 -0.0132433 0)
(0.126932 -0.00883037 0)
(0.132577 -0.00561585 0)
(0.133602 -0.00311249 0)
(0.131118 -0.000892192 0)
(0.125693 0.00127681 0)
(0.117193 0.00366179 0)
(0.104846 0.00672495 0)
(0.0855874 0.0111674 0)
(0.0716888 0.0368729 0)
(0.0603711 0.0606586 0)
(0.0764771 0.0835293 0)
(-0.117672 0.137524 0)
(0.705743 0.383671 0)
(-0.287687 0.156992 0)
(-0.0476846 0.133761 0)
(-0.0962763 0.106894 0)
(-0.107722 0.0875654 0)
(-0.11675 0.0691383 0)
(-0.123534 0.0504083 0)
(-0.128189 0.0305471 0)
(-0.130541 0.00868537 0)
(-0.129726 -0.0158519 0)
(-0.125218 -0.0430995 0)
(-0.116582 -0.0726971 0)
(-0.103842 -0.102833 0)
(-0.0873402 -0.129092 0)
(-0.0673607 -0.145777 0)
(-0.0439915 -0.152237 0)
(-0.0201149 -0.152321 0)
(0.000441489 -0.143664 0)
(0.0309549 -0.11499 0)
(0.0571017 -0.109379 0)
(0.0706517 -0.0924832 0)
(0.0807605 -0.071323 0)
(0.0908047 -0.0508786 0)
(0.100355 -0.0328436 0)
(0.10948 -0.0194502 0)
(0.116542 -0.01007 0)
(0.120013 -0.00337807 0)
(0.12026 0.00187435 0)
(0.117894 0.00642295 0)
(0.113281 0.0107841 0)
(0.106444 0.01547 0)
(0.0973123 0.0211824 0)
(0.0853838 0.0292196 0)
(0.073814 0.0472713 0)
(0.063294 0.0713783 0)
(0.0949931 0.0995602 0)
(0.0170526 0.138685 0)
(0.0966981 0.182853 0)
(0.140688 0.144639 0)
(-0.218965 0.201451 0)
(0.810452 0.431963 0)
(-0.331329 0.190657 0)
(-0.0173033 0.150222 0)
(-0.0733502 0.117493 0)
(-0.07857 0.0954803 0)
(-0.0821877 0.0749093 0)
(-0.0844397 0.0543027 0)
(-0.0854756 0.0326773 0)
(-0.085218 0.00881886 0)
(-0.0825392 -0.0184457 0)
(-0.0773648 -0.0490511 0)
(-0.0687209 -0.0825218 0)
(-0.0566941 -0.116527 0)
(-0.0415884 -0.146337 0)
(-0.0245546 -0.166016 0)
(-0.00612293 -0.17449 0)
(0.0122783 -0.172706 0)
(0.0282004 -0.16095 0)
(0.0463471 -0.139282 0)
(0.062764 -0.122328 0)
(0.0733949 -0.102508 0)
(0.0810356 -0.0804824 0)
(0.0877687 -0.0591611 0)
(0.0939412 -0.0403029 0)
(0.0992862 -0.0251379 0)
(0.10301 -0.0137933 0)
(0.104663 -0.00511338 0)
(0.104291 0.00206969 0)
(0.102192 0.00853645 0)
(0.0986109 0.0148094 0)
(0.0936971 0.0214181 0)
(0.0876745 0.0289956 0)
(0.0808001 0.0384521 0)
(0.0750198 0.0529282 0)
(0.0697288 0.0729702 0)
(0.0918894 0.0987056 0)
(0.0738545 0.107427 0)
(0.0908408 0.0475515 0)
(0.146696 -0.0361039 0)
(-0.324266 0.1079 0)
(0.879917 0.474673 0)
(-0.368652 0.220936 0)
(0.0037292 0.155522 0)
(-0.0526427 0.121537 0)
(-0.0521825 0.0978176 0)
(-0.0509981 0.0757849 0)
(-0.0489924 0.0540053 0)
(-0.046477 0.0314962 0)
(-0.0432922 0.00673548 0)
(-0.0373346 -0.0223316 0)
(-0.0302559 -0.0553968 0)
(-0.0204524 -0.0919757 0)
(-0.0086056 -0.128946 0)
(0.00466458 -0.161314 0)
(0.0177755 -0.181932 0)
(0.0306083 -0.190227 0)
(0.0424419 -0.187192 0)
(0.0527509 -0.174347 0)
(0.0626975 -0.153983 0)
(0.0712313 -0.132338 0)
(0.0767059 -0.109348 0)
(0.0801184 -0.085879 0)
(0.0826805 -0.0637359 0)
(0.0848997 -0.044269 0)
(0.0867371 -0.0282002 0)
(0.0878592 -0.0154365 0)
(0.0880386 -0.0051974 0)
(0.0871246 0.00343956 0)
(0.0852929 0.0111629 0)
(0.0826844 0.0185013 0)
(0.0794641 0.0259594 0)
(0.0758988 0.0340402 0)
(0.0723791 0.0432948 0)
(0.0702739 0.0549987 0)
(0.0689627 0.0695091 0)
(0.0819641 0.0885032 0)
(0.085153 0.0915545 0)
(0.0909264 0.0537298 0)
(0.181963 0.0266022 0)
(-0.279641 0.156898 0)
(0.927954 0.517133 0)
(-0.383167 0.234125 0)
(0.0169026 0.132913 0)
(-0.0273018 0.116607 0)
(-0.0265203 0.0948802 0)
(-0.0227075 0.0723876 0)
(-0.0175929 0.0500634 0)
(-0.0123193 0.0272121 0)
(-0.00535905 0.00182435 0)
(0.00461093 -0.0307711 0)
(0.0143375 -0.0653671 0)
(0.0256585 -0.103395 0)
(0.0373405 -0.140946 0)
(0.0480653 -0.172238 0)
(0.0572049 -0.192411 0)
(0.0647356 -0.199846 0)
(0.0704774 -0.195361 0)
(0.074429 -0.181108 0)
(0.0771009 -0.159989 0)
(0.0784141 -0.135988 0)
(0.0779962 -0.110995 0)
(0.0764335 -0.0865072 0)
(0.0745658 -0.0639902 0)
(0.0729257 -0.0444401 0)
(0.0716569 -0.0282328 0)
(0.0706275 -0.0150852 0)
(0.0696399 -0.00429527 0)
(0.0684039 0.00491899 0)
(0.067015 0.0131474 0)
(0.0654381 0.0208845 0)
(0.0637385 0.0285645 0)
(0.0620829 0.0365457 0)
(0.0607476 0.0451137 0)
(0.0605754 0.0547107 0)
(0.0614029 0.0652284 0)
(0.0700105 0.0781071 0)
(0.0799722 0.0806192 0)
(0.0813055 0.0596554 0)
(0.239612 0.0556422 0)
(-0.541765 0.234575 0)
(1.01131 0.506776 0)
(-0.1371 0.296309 0)
(0.0411023 0.161464 0)
(0.040654 0.122014 0)
(0.0131355 0.0919075 0)
(0.00871568 0.0653036 0)
(0.0141442 0.041333 0)
(0.020773 0.016926 0)
(0.0325783 -0.0110679 0)
(0.0440456 -0.0421918 0)
(0.0559295 -0.0769668 0)
(0.0682308 -0.114729 0)
(0.0794051 -0.151229 0)
(0.0879468 -0.180706 0)
(0.0932035 -0.198704 0)
(0.0952805 -0.203808 0)
(0.0945802 -0.197082 0)
(0.0916468 -0.180967 0)
(0.0871569 -0.158524 0)
(0.0815637 -0.133077 0)
(0.0751672 -0.107061 0)
(0.0685749 -0.0822913 0)
(0.0625186 -0.060119 0)
(0.0575287 -0.0412652 0)
(0.0538071 -0.0258137 0)
(0.0512588 -0.0132646 0)
(0.0496148 -0.00283602 0)
(0.0484765 0.00617625 0)
(0.0477943 0.0142866 0)
(0.0473304 0.0219483 0)
(0.0470132 0.0295134 0)
(0.0468599 0.0372206 0)
(0.0469516 0.0451906 0)
(0.0476489 0.053485 0)
(0.0488181 0.0616658 0)
(0.0539319 0.0696712 0)
(0.0635078 0.0664838 0)
(0.059756 0.034689 0)
(0.286724 0.0696923 0)
(-0.752843 0.308667 0)
(0.779326 0.395599 0)
(0.000975346 0.319428 0)
(0.0934394 0.21886 0)
(0.110676 0.155093 0)
(0.0772446 0.106731 0)
(0.0598617 0.0674505 0)
(0.0582833 0.0356704 0)
(0.0624578 0.00633011 0)
(0.0738916 -0.023507 0)
(0.0854731 -0.0551126 0)
(0.0976862 -0.0898431 0)
(0.109578 -0.126394 0)
(0.118986 -0.16022 0)
(0.124123 -0.185945 0)
(0.124383 -0.199982 0)
(0.120188 -0.201501 0)
(0.112483 -0.191885 0)
(0.102337 -0.173706 0)
(0.0907922 -0.150011 0)
(0.0786876 -0.123844 0)
(0.066717 -0.0977468 0)
(0.0556191 -0.0736329 0)
(0.0461318 -0.0527506 0)
(0.0387455 -0.0355433 0)
(0.0335857 -0.0217958 0)
(0.0304275 -0.0107209 0)
(0.0288127 -0.00139474 0)
(0.0282683 0.00683066 0)
(0.028495 0.0144192 0)
(0.0291433 0.0217556 0)
(0.0300515 0.0290981 0)
(0.0311061 0.0366145 0)
(0.0321636 0.0443951 0)
(0.0330267 0.0524852 0)
(0.0326463 0.0606699 0)
(0.0306771 0.0689268 0)
(0.0150188 0.0718616 0)
(0.00177552 0.103366 0)
(0.0110134 0.177896 0)
(-0.640434 0.297156 0)
(0.617241 0.220601 0)
(0.00475196 0.298011 0)
(0.11306 0.241482 0)
(0.148345 0.177466 0)
(0.130923 0.123394 0)
(0.117906 0.0777099 0)
(0.115052 0.0387692 0)
(0.117228 0.00328214 0)
(0.123602 -0.0308203 0)
(0.131841 -0.0651023 0)
(0.141547 -0.100615 0)
(0.150455 -0.135538 0)
(0.155619 -0.16546 0)
(0.155101 -0.186008 0)
(0.148582 -0.194858 0)
(0.136958 -0.192041 0)
(0.121693 -0.17932 0)
(0.104286 -0.15929 0)
(0.0861075 -0.134879 0)
(0.0682559 -0.108883 0)
(0.0516778 -0.0837947 0)
(0.0372508 -0.0614803 0)
(0.0257423 -0.0430421 0)
(0.0174761 -0.0285437 0)
(0.0122885 -0.0173861 0)
(0.00955562 -0.00839821 0)
(0.00856782 -0.000580095 0)
(0.0088709 0.00660673 0)
(0.00996517 0.0135274 0)
(0.011569 0.0204519 0)
(0.0135156 0.0275484 0)
(0.015646 0.0349711 0)
(0.0177248 0.0429178 0)
(0.0193662 0.0517364 0)
(0.019481 0.0620563 0)
(0.017209 0.0757775 0)
(-0.00582218 0.0987831 0)
(-0.0062202 0.153946 0)
(0.0438406 0.18551 0)
(-0.542623 0.160716 0)
(0.570783 0.118219 0)
(-0.0203216 0.258511 0)
(0.113692 0.229821 0)
(0.165049 0.175961 0)
(0.166735 0.126054 0)
(0.164421 0.0809569 0)
(0.16543 0.0398334 0)
(0.168376 0.00149907 0)
(0.172338 -0.0355041 0)
(0.177919 -0.0720169 0)
(0.184104 -0.10771 0)
(0.187822 -0.139815 0)
(0.186049 -0.164423 0)
(0.177399 -0.178682 0)
(0.162317 -0.181782 0)
(0.142339 -0.174623 0)
(0.119397 -0.159254 0)
(0.0952391 -0.138134 0)
(0.0714535 -0.114003 0)
(0.0492461 -0.089356 0)
(0.0297827 -0.0666106 0)
(0.0140632 -0.0475068 0)
(0.00275664 -0.0328412 0)
(-0.00443567 -0.0219043 0)
(-0.00820307 -0.013842 0)
(-0.00987102 -0.00700564 0)
(-0.0100889 -0.000659616 0)
(-0.00913731 0.00552098 0)
(-0.00746548 0.0117509 0)
(-0.00520119 0.0181845 0)
(-0.00247931 0.0249316 0)
(0.000608461 0.0322171 0)
(0.00389888 0.0403069 0)
(0.00718198 0.0497863 0)
(0.00998306 0.0621058 0)
(0.0127537 0.0808316 0)
(0.00162753 0.114041 0)
(-0.0087174 0.179063 0)
(0.152544 0.200709 0)
(-0.451026 0.100722 0)
(0.628458 0.0535377 0)
(0.00897494 0.197243 0)
(0.113695 0.196879 0)
(0.175035 0.157811 0)
(0.191329 0.11753 0)
(0.198031 0.0770996 0)
(0.2034 0.037104 0)
(0.208626 -0.0016607 0)
(0.213133 -0.0397835 0)
(0.217441 -0.0766442 0)
(0.219269 -0.110099 0)
(0.215459 -0.136973 0)
(0.204116 -0.154623 0)
(0.185329 -0.162023 0)
(0.160713 -0.159721 0)
(0.13243 -0.149129 0)
(0.102709 -0.132327 0)
(0.0732499 -0.111431 0)
(0.045813 -0.0889892 0)
(0.0215215 -0.0671636 0)
(0.00196415 -0.0483631 0)
(-0.0119385 -0.0341805 0)
(-0.0201629 -0.0247113 0)
(-0.024832 -0.0176991 0)
(-0.0271398 -0.0119233 0)
(-0.0279351 -0.00659368 0)
(-0.0276034 -0.00135258 0)
(-0.026259 0.0039822 0)
(-0.0242355 0.00953698 0)
(-0.0215609 0.0154157 0)
(-0.0183582 0.0217007 0)
(-0.0147064 0.028553 0)
(-0.0106317 0.0362733 0)
(-0.00609514 0.045475 0)
(-0.00133795 0.0581304 0)
(0.00355913 0.0800138 0)
(0.00259919 0.113648 0)
(-0.00761606 0.165984 0)
(0.18987 0.193553 0)
(-0.358572 0.152656 0)
(0.472507 0.0748398 0)
(-0.132318 0.137494 0)
(0.094133 0.133147 0)
(0.17261 0.116607 0)
(0.203754 0.0951215 0)
(0.218086 0.0641643 0)
(0.228107 0.0281781 0)
(0.237187 -0.00912539 0)
(0.243551 -0.0454284 0)
(0.245039 -0.078372 0)
(0.239054 -0.105297 0)
(0.224245 -0.124109 0)
(0.201136 -0.133914 0)
(0.171648 -0.135131 0)
(0.138361 -0.128999 0)
(0.103565 -0.116795 0)
(0.0695397 -0.10038 0)
(0.0374637 -0.0813892 0)
(0.00967125 -0.0623518 0)
(-0.0133195 -0.0450787 0)
(-0.0278587 -0.0334704 0)
(-0.036895 -0.0255552 0)
(-0.0420941 -0.0198544 0)
(-0.0449893 -0.0151576 0)
(-0.0463258 -0.0109036 0)
(-0.0465073 -0.00672731 0)
(-0.0457301 -0.00242981 0)
(-0.0440145 0.00212766 0)
(-0.0417074 0.00702081 0)
(-0.0387725 0.0123431 0)
(-0.035381 0.0181908 0)
(-0.0317263 0.0246903 0)
(-0.0279919 0.0320844 0)
(-0.0243595 0.0411354 0)
(-0.0217726 0.0549297 0)
(-0.0216939 0.0780927 0)
(-0.0218039 0.103837 0)
(-0.0202724 0.125763 0)
(0.189004 0.169434 0)
(-0.402418 0.215882 0)
(0.724018 0.13454 0)
(0.0819535 0.115265 0)
(0.149742 0.099111 0)
(0.222355 0.0802718 0)
(0.244034 0.0696463 0)
(0.248866 0.047383 0)
(0.255177 0.0173231 0)
(0.261252 -0.0148395 0)
(0.260226 -0.0447913 0)
(0.249683 -0.0696376 0)
(0.229402 -0.0876618 0)
(0.200979 -0.0983518 0)
(0.166804 -0.101971 0)
(0.129446 -0.0994904 0)
(0.0914035 -0.0921513 0)
(0.0541269 -0.08063 0)
(0.0202435 -0.0665566 0)
(-0.0106676 -0.0510521 0)
(-0.032869 -0.0387474 0)
(-0.0478044 -0.0300529 0)
(-0.0569497 -0.0243886 0)
(-0.0625652 -0.0202276 0)
(-0.0659597 -0.0168017 0)
(-0.0678825 -0.0136422 0)
(-0.0686451 -0.0105517 0)
(-0.0683925 -0.007371 0)
(-0.0671999 -0.00394274 0)
(-0.0650757 -9.5703e-05 0)
(-0.0623468 0.00423752 0)
(-0.0591547 0.00914171 0)
(-0.0556714 0.0148065 0)
(-0.0523586 0.0214632 0)
(-0.0498616 0.0296026 0)
(-0.0487481 0.0405574 0)
(-0.0500168 0.0574686 0)
(-0.0574197 0.0823003 0)
(-0.069054 0.105916 0)
(-0.0582365 0.120479 0)
(0.00987659 0.166401 0)
(-0.500613 0.232081 0)
(0.192202 0.0879107 0)
(0.225985 0.0995853 0)
(0.246721 0.0698524 0)
(0.242766 0.0395347 0)
(0.239864 0.0119841 0)
(0.234771 -0.0128715 0)
(0.219967 -0.0332735 0)
(0.196175 -0.0484499 0)
(0.165758 -0.058368 0)
(0.131195 -0.0634459 0)
(0.0943126 -0.0639599 0)
(0.0571169 -0.0606308 0)
(0.0215575 -0.0542956 0)
(-0.0129606 -0.0450666 0)
(-0.0397872 -0.0361364 0)
(-0.059952 -0.0287825 0)
(-0.0735576 -0.0239244 0)
(-0.0824363 -0.0206983 0)
(-0.0882755 -0.0183856 0)
(-0.0923004 -0.0163136 0)
(-0.0950576 -0.0143108 0)
(-0.0967703 -0.0123206 0)
(-0.0975087 -0.010289 0)
(-0.0972833 -0.00810956 0)
(-0.096076 -0.00562029 0)
(-0.0938478 -0.00260559 0)
(-0.0904832 0.00114854 0)
(-0.0866346 0.00574396 0)
(-0.0823651 0.0114256 0)
(-0.0781736 0.0186839 0)
(-0.074826 0.0282873 0)
(-0.0725796 0.0417021 0)
(-0.0712389 0.0614795 0)
(-0.0750714 0.0898322 0)
(-0.0863739 0.122695 0)
(-0.0736375 0.145755 0)
(-0.0804611 0.143606 0)
(-0.579096 0.103384 0)
(0.451708 0.209103 0)
(0.20737 0.178456 0)
(0.153482 0.118647 0)
(0.140068 0.0639872 0)
(0.128462 0.025962 0)
(0.114162 0.00197078 0)
(0.0987271 -0.0127333 0)
(0.0775852 -0.021914 0)
(0.0528022 -0.0276844 0)
(0.0255716 -0.0304172 0)
(-0.00427288 -0.0300301 0)
(-0.033116 -0.0274872 0)
(-0.0585315 -0.0240146 0)
(-0.0795701 -0.0206122 0)
(-0.0950465 -0.0183408 0)
(-0.1059 -0.0167808 0)
(-0.113459 -0.0156485 0)
(-0.119161 -0.0143799 0)
(-0.123773 -0.01291 0)
(-0.127571 -0.0113482 0)
(-0.130589 -0.00984982 0)
(-0.132801 -0.00850455 0)
(-0.13416 -0.00733219 0)
(-0.134587 -0.00628914 0)
(-0.133944 -0.00525527 0)
(-0.132026 -0.00398584 0)
(-0.128582 -0.0020696 0)
(-0.123306 0.00102381 0)
(-0.116801 0.00579988 0)
(-0.109865 0.0127889 0)
(-0.102789 0.0228811 0)
(-0.0954608 0.0373011 0)
(-0.0860566 0.057666 0)
(-0.0740755 0.0859442 0)
(-0.0632995 0.123795 0)
(-0.0371683 0.165977 0)
(0.0974132 0.159146 0)
(-0.488617 0.0181806 0)
(0.363505 -0.412698 0)
(-0.345333 -0.512414 0)
(-0.218612 -0.0288473 0)
(-0.0922746 0.110663 0)
(-0.0532174 0.0926682 0)
(-0.0310202 0.0548667 0)
(-0.0263184 0.0288543 0)
(-0.0314673 0.0121928 0)
(-0.0405117 0.00137609 0)
(-0.0511062 -0.00580972 0)
(-0.0647533 -0.0103355 0)
(-0.0801568 -0.0129264 0)
(-0.0959897 -0.0147691 0)
(-0.110969 -0.016907 0)
(-0.123859 -0.0194844 0)
(-0.133691 -0.0222217 0)
(-0.140616 -0.0247464 0)
(-0.145861 -0.0265345 0)
(-0.15054 -0.0276515 0)
(-0.15518 -0.0282564 0)
(-0.159787 -0.0284756 0)
(-0.164167 -0.0283586 0)
(-0.168102 -0.0279194 0)
(-0.17141 -0.0271544 0)
(-0.173939 -0.0260548 0)
(-0.175522 -0.024604 0)
(-0.175917 -0.0227571 0)
(-0.174784 -0.0204001 0)
(-0.171727 -0.0172828 0)
(-0.166407 -0.012945 0)
(-0.158603 -0.00670673 0)
(-0.148376 0.00218315 0)
(-0.136816 0.0141739 0)
(-0.124094 0.0291272 0)
(-0.10756 0.0470468 0)
(-0.0837869 0.0681075 0)
(-0.0523944 0.0929726 0)
(-0.0122589 0.125898 0)
(0.166794 0.132674 0)
(-0.403559 0.0775586 0)
(0.125333 -0.184168 0)
(-0.386949 -0.297046 0)
(-0.342623 -0.0968871 0)
(-0.264398 0.0511178 0)
(-0.210746 0.0834658 0)
(-0.178623 0.0746731 0)
(-0.162324 0.0612579 0)
(-0.156298 0.0513004 0)
(-0.156346 0.0460709 0)
(-0.15961 0.0453319 0)
(-0.164144 0.0482074 0)
(-0.168313 0.0533989 0)
(-0.171513 0.0595438 0)
(-0.173617 0.0644706 0)
(-0.175253 0.0662469 0)
(-0.177087 0.0660181 0)
(-0.179653 0.065425 0)
(-0.182924 0.065593 0)
(-0.18658 0.0664414 0)
(-0.190313 0.0673976 0)
(-0.193905 0.067929 0)
(-0.197214 0.0676993 0)
(-0.200154 0.0665428 0)
(-0.202661 0.0643969 0)
(-0.204677 0.0612093 0)
(-0.206126 0.0568685 0)
(-0.206901 0.0512366 0)
(-0.206855 0.0443181 0)
(-0.205813 0.03648 0)
(-0.203572 0.0285444 0)
(-0.199844 0.021645 0)
(-0.194096 0.0169246 0)
(-0.184972 0.0151862 0)
(-0.171193 0.0165686 0)
(-0.153739 0.0194121 0)
(-0.128853 0.0218573 0)
(-0.0910223 0.0209068 0)
(-0.0359974 0.0230942 0)
(0.17556 0.0702147 0)
(-0.405808 0.133985 0)
(1.14625 -0.0110151 0)
(-0.294034 -0.322109 0)
(-0.352403 -0.233215 0)
(-0.351776 -0.148876 0)
(-0.328148 -0.10747 0)
(-0.296412 -0.098748 0)
(-0.268888 -0.100779 0)
(-0.248677 -0.106302 0)
(-0.234865 -0.11381 0)
(-0.225521 -0.123432 0)
(-0.219008 -0.135654 0)
(-0.214333 -0.150498 0)
(-0.211056 -0.166481 0)
(-0.209188 -0.180405 0)
(-0.209114 -0.189091 0)
(-0.21111 -0.193039 0)
(-0.214632 -0.193602 0)
(-0.218808 -0.192512 0)
(-0.222902 -0.190861 0)
(-0.226559 -0.189051 0)
(-0.229759 -0.187095 0)
(-0.232685 -0.184838 0)
(-0.235602 -0.182063 0)
(-0.23879 -0.178541 0)
(-0.242518 -0.174061 0)
(-0.247081 -0.168442 0)
(-0.252843 -0.161512 0)
(-0.260216 -0.153053 0)
(-0.269491 -0.142751 0)
(-0.280508 -0.130212 0)
(-0.292313 -0.115095 0)
(-0.303057 -0.097281 0)
(-0.310314 -0.0770088 0)
(-0.311393 -0.0551221 0)
(-0.3041 -0.0334019 0)
(-0.289604 -0.0143444 0)
(-0.263066 0.00366241 0)
(-0.214861 0.030176 0)
(-0.189281 0.0792024 0)
(-0.572417 0.141667 0)
)
;

boundaryField
{
    floor
    {
        type            noSlip;
    }
    ceiling
    {
        type            noSlip;
    }
    sWall
    {
        type            noSlip;
    }
    nWall
    {
        type            noSlip;
    }
    sideWalls
    {
        type            empty;
    }
    glass1
    {
        type            noSlip;
    }
    glass2
    {
        type            noSlip;
    }
    sun
    {
        type            noSlip;
    }
    Table_master
    {
        type            noSlip;
    }
    Table_slave
    {
        type            noSlip;
    }
    inlet
    {
        type            fixedValue;
        value           uniform (0.5 0 0);
    }
    outlet
    {
        type            zeroGradient;
    }
}


// ************************************************************************* //
