/*--------------------------------*- C++ -*----------------------------------*\
  =========                 |
  \\      /  F ield         | OpenFOAM: The Open Source CFD Toolbox
   \\    /   O peration     | Website:  https://openfoam.org
    \\  /    A nd           | Version:  6
     \\/     M anipulation  |
\*---------------------------------------------------------------------------*/
FoamFile
{
    version     2.0;
    format      ascii;
    class       surfaceScalarField;
    location    "390";
    object      phi;
}
// * * * * * * * * * * * * * * * * * * * * * * * * * * * * * * * * * * * * * //

dimensions      [1 0 -1 0 0 0 0];

internalField   nonuniform List<scalar> 
850
(
-0.00320478
0.0032687
-0.00440008
0.00119529
-0.00530735
0.000907272
-0.00597258
0.000665225
-0.00634696
0.000374377
-0.00638022
3.3255e-05
-0.00601403
-0.000366186
-0.0052118
-0.000802236
-0.00401294
-0.00119886
-0.0025455
-0.00146745
-0.00100741
-0.00153809
0.000323614
-0.00133103
0.00100759
-0.000683984
0.00102902
-2.14252e-05
0.00103209
-0.00101621
0.00102072
-0.000715371
-0.000300848
2.23128e-05
-0.000737689
0.000704725
-0.000682418
0.00121019
-0.000505473
0.00148524
-0.000275057
0.00159939
-0.00011415
0.0016543
-5.49248e-05
0.00168495
-3.06482e-05
0.00169881
-1.38737e-05
0.00170008
-1.2705e-06
0.00168973
1.03393e-05
0.00166079
2.89335e-05
0.00159157
6.9209e-05
0.00144538
0.000146186
0.00120988
0.000235489
0.000905328
0.000304546
0.000911223
-0.00232123
0.00576284
-0.00349794
0.002372
-0.00445658
0.00186591
-0.00514619
0.00135483
-0.00555025
0.000778439
-0.0056261
0.000109102
-0.00532158
-0.000670712
-0.00461272
-0.0015111
-0.00356873
-0.00224284
-0.00234656
-0.00268963
-0.0011411
-0.00274355
-0.000117402
-0.00235473
0.000648666
-0.00145006
0.00117256
-0.000545326
0.00199899
0.000205662
0.00173018
0.000273943
0.00120747
0.000528444
0.00122382
3.75003e-05
0.000996867
0.000458548
-0.000721901
0.000864188
-0.00114333
0.00122062
-0.00103886
0.0015041
-0.000788954
0.00156918
-0.000340152
0.00157848
-0.00012345
0.00158944
-6.58948e-05
0.00159856
-3.97719e-05
0.00160372
-1.90377e-05
0.00160574
-3.30651e-06
0.00160463
1.14445e-05
0.00159747
3.60871e-05
0.00155566
0.000111009
0.00138162
0.00032022
0.0010832
0.000533906
0.000718162
0.000669571
0.00164455
-0.0016448
0.00767301
-0.00266745
0.00339465
-0.00355707
0.00275553
-0.00419341
0.00199116
-0.00459272
0.00117775
-0.00470629
0.000222673
-0.00445278
-0.000924234
-0.0038088
-0.00215508
-0.00288869
-0.00316295
-0.00186389
-0.00371443
-0.000898848
-0.00370859
-0.000105557
-0.00314803
0.000553956
-0.00210957
0.00108021
-0.00107158
0.0014838
-0.000197933
0.00139443
0.000363313
0.000967629
0.00095524
0.00220649
0.00151918
-0.000504349
0.00170635
-0.000909073
0.00164205
-0.00107904
0.00169092
-0.00108774
0.00192312
-0.00102116
0.00158312
0.00145982
0.00139407
0.00135445
0.00133556
0.0013324
0.00134399
0.00138022
0.00149138
0.00123086
0.000580729
0.000915498
0.000849263
0.000536962
0.0010481
0.00220428
-0.00114737
0.00916503
-0.00195698
0.00420426
-0.00260698
0.00340552
-0.00308676
0.00247093
-0.00341715
0.00150813
-0.00353493
0.00034045
-0.00329977
-0.0011594
-0.00270031
-0.00275454
-0.00192191
-0.00394136
-0.00112254
-0.0045138
-0.000413477
-0.00441766
0.000151474
-0.00371298
0.000639767
-0.00259787
0.00102574
-0.00145756
0.00130523
-0.000477429
0.00139838
0.00027016
0.00146298
0.000890638
0.00243942
0.00123004
0.0021266
0.000329374
0.00197009
-0.000347847
0.00190622
-0.000845199
0.00181703
-0.000989858
0.00170192
-0.000972631
0.0014788
-0.000798048
0.00185486
-0.000376225
0.00205563
-0.000200934
0.00219551
-0.000140042
0.00229421
-9.88582e-05
0.00234025
-4.62062e-05
0.00231222
2.78687e-05
0.00218465
0.000127406
0.00192175
0.000262737
0.00146132
0.000460265
0.00122101
0.000821023
0.000842912
0.00122736
0.000318709
0.00157229
0.00255214
-0.000778799
0.0103563
-0.00137739
0.00480285
-0.00162035
0.00364848
-0.00184087
0.00269144
-0.00201439
0.00168165
-0.00206261
0.000388665
-0.00177552
-0.00144648
-0.00123106
-0.003299
-0.00065728
-0.00451514
-0.000150381
-0.0050207
0.000248686
-0.00481673
0.00054612
-0.00401042
0.000799589
-0.00285134
0.000999302
-0.00165728
0.00116847
-0.000646599
0.00133946
9.91622e-05
0.00162146
0.000608634
0.00207413
0.00077736
0.00210872
0.000294784
0.00204917
-0.000288301
0.00185558
-0.000651617
0.00165606
-0.000790341
0.0014691
-0.000785681
0.00133547
-0.00066442
0.00140638
-0.000447149
0.0015038
-0.000298356
0.00159238
-0.000228635
0.00167343
-0.000179921
0.00173784
-0.000110626
0.00176216
3.53878e-06
0.00172269
0.000166866
0.00160952
0.000375892
0.00143091
0.000638869
0.00125798
0.000993942
0.00106754
0.00141779
0.000671577
0.00196824
0.000899003
0.0023247
-0.00134915
0.002274
-0.00202199
0.00069712
-0.00193849
-0.000640048
0.011466
-0.00101615
0.00517895
-0.000668337
0.00330066
-0.000529838
0.00255294
-0.000494933
0.00164674
-0.000304827
0.000198553
0.00013083
-0.00188215
0.000545911
-0.00371408
0.000836671
-0.0048059
0.000981881
-0.00516591
0.00101353
-0.00484838
0.000980956
-0.00397785
0.000925716
-0.00279611
0.00087281
-0.00160437
0.000866853
-0.000640648
0.00095343
1.25803e-05
0.00116015
0.000401905
0.00145729
0.000480219
0.0015762
0.000175872
0.00148953
-0.000201642
0.00130144
-0.000463534
0.00109819
-0.0005871
0.00091614
-0.000603637
0.000793015
-0.000541303
0.000776928
-0.000431073
0.000828681
-0.000350119
0.000910231
-0.000310196
0.00100693
-0.00027663
0.00110962
-0.000213328
0.0012038
-9.06504e-05
0.00126739
0.000103258
0.00129595
0.000347322
0.00130388
0.000630923
0.0013352
0.000962617
0.00144543
0.00130754
0.00166781
0.00174586
0.0020665
0.001926
0.00242611
0.00191439
0.00190089
0.00122232
3.52213e-05
-0.000752382
0.0127383
-0.000573558
0.00500012
0.000537497
0.0021896
0.000982676
0.00210775
0.0013177
0.00131171
0.00185587
-0.000339616
0.00233893
-0.00236521
0.00252419
-0.00389934
0.00245598
-0.00473769
0.00217701
-0.00488694
0.00176986
-0.00444124
0.00131677
-0.00352477
0.000885685
-0.00236503
0.000539415
-0.00125811
0.000340597
-0.000441836
0.000325979
2.71922e-05
0.000464153
0.000263725
0.000658879
0.000285487
0.000735263
9.94824e-05
0.000666914
-0.0001333
0.000516966
-0.000313595
0.000342278
-0.000412421
0.000182374
-0.000443742
7.17291e-05
-0.00043067
3.87733e-05
-0.000398128
6.92967e-05
-0.000380654
0.000137235
-0.000378147
0.000230352
-0.000369761
0.000349087
-0.000332075
0.000497719
-0.000239295
0.000660768
-5.98038e-05
0.000822441
0.000185637
0.000993445
0.000459907
0.00120808
0.000747972
0.00150171
0.0010139
0.00193627
0.00131129
0.00252733
0.00133492
0.00340651
0.0010352
0.00366727
0.000961553
0.00377849
0.00294829
0.0103697
0.00366139
0.00428702
0.00352064
0.00233034
0.00361568
0.00201271
0.00409125
0.000836141
0.00471272
-0.00096109
0.00491318
-0.00256568
0.00466068
-0.00364684
0.00404493
-0.00412193
0.00319221
-0.00403421
0.00224368
-0.00349272
0.00130916
-0.00259026
0.000490457
-0.00154633
-9.14139e-05
-0.00067625
-0.000372821
-0.000160436
-0.000421696
7.60601e-05
-0.000335595
0.000177616
-0.000220002
0.000169887
-0.000181997
6.14692e-05
-0.00023855
-7.67561e-05
-0.000358089
-0.000194066
-0.000499592
-0.000270929
-0.000629513
-0.000313832
-0.000723856
-0.000336339
-0.000770241
-0.000351756
-0.000779575
-0.000371333
-0.000766428
-0.000391307
-0.000735888
-0.000400314
-0.000681586
-0.00038639
-0.000583983
-0.000336911
-0.000408414
-0.000235386
-0.000171844
-5.09455e-05
9.51538e-05
0.000192896
0.000397881
0.000445232
0.000722564
0.000689207
0.00110559
0.000928254
0.00150892
0.000931574
0.00186467
0.000679436
0.00106901
0.00175721
0.00517168
0.0110138
0.015301
0.0126637
0.0049677
0.0112881
0.00338822
0.0103256
0.00179872
0.00927568
8.87901e-05
0.0079744
-0.00126439
0.00652609
-0.00219852
0.00499019
-0.00258603
0.00341836
-0.00246238
0.00192758
-0.00200195
0.000571583
-0.00123427
-0.000426812
-0.000547951
-0.000967548
-0.000135523
-0.0011659
3.79079e-05
-0.00119782
0.000107968
-0.00115148
0.000131272
-0.00109528
0.000113674
-0.00108633
5.25041e-05
-0.00113529
-2.78051e-05
-0.00122683
-0.000102533
-0.00133646
-0.000161315
-0.00144487
-0.000205432
-0.00154197
-0.000239258
-0.00162727
-0.000266469
-0.00171032
-0.000288292
-0.00180186
-0.000299785
-0.00191093
-0.000291259
-0.00204711
-0.000250216
-0.00222272
-0.000161321
-0.00245501
-3.1001e-06
-0.00273233
0.000226359
-0.00308459
0.00054514
-0.00361489
0.000975523
-0.00443491
0.00150922
-0.00560359
0.00209693
-0.00723188
0.00255985
-0.00909912
0.00254667
-0.00847851
0.00113658
-0.00294751
0.0092228
0.00729706
0.00734237
0.00526867
0.00676681
0.0023743
0.00624604
0.000609593
0.00540657
-0.000424897
0.00429919
-0.00109114
0.00295877
-0.00124561
0.00144929
-0.000952906
-1.68437e-07
-0.000552507
-0.00109013
-0.000144323
-0.0016644
2.63015e-05
-0.00189291
9.29799e-05
-0.00195796
0.00010295
-0.00195146
0.00010145
-0.00191722
9.70268e-05
-0.00188577
8.22061e-05
-0.00188332
5.00402e-05
-0.0019163
5.17022e-06
-0.00197364
-4.52101e-05
-0.00204674
-8.82285e-05
-0.00213128
-0.000120899
-0.00222752
-0.000143035
-0.00233896
-0.000155047
-0.00246996
-0.000157302
-0.0026215
-0.000148259
-0.00278911
-0.000123665
-0.00296213
-7.72089e-05
-0.00311887
-4.59073e-06
-0.00324263
0.000120644
-0.00334275
0.000326471
-0.00343529
0.000637666
-0.00353582
0.00107605
-0.00365574
0.00162912
-0.00374814
0.00218931
-0.00371448
0.00252618
-0.00334291
0.00217508
-0.00193093
-0.000275411
-0.00478585
-0.000681026
0.00804252
0.000987647
0.00360001
0.00149372
0.00186823
0.00148174
0.000621588
0.00111098
-5.41436e-05
0.000342709
-0.000322871
-0.00067575
-0.000227178
-0.00162663
-2.04692e-06
-0.00228013
0.000100986
-0.0025695
0.000145032
-0.00266788
0.000124664
-0.00266887
9.39559e-05
-0.00264044
7.45083e-05
-0.00260133
6.23244e-05
-0.00255728
5.29675e-05
-0.00251517
4.00869e-05
-0.00248558
2.0437e-05
-0.00247673
-3.6931e-06
-0.00248362
-3.83355e-05
-0.00250541
-6.64585e-05
-0.00254111
-8.52058e-05
-0.00258876
-9.54006e-05
-0.00264645
-9.73735e-05
-0.00271238
-9.13807e-05
-0.00278376
-7.6893e-05
-0.00285545
-5.1992e-05
-0.00292017
-1.25027e-05
-0.00296621
4.14385e-05
-0.00296114
0.000115567
-0.00287532
0.000240639
-0.00267095
0.000433284
-0.00231645
0.000721528
-0.00181755
0.00113022
-0.00116833
0.00154008
-0.000121459
0.0014793
0.00130475
0.000748862
0.00165034
-0.000621013
-0.0030337
-0.0134339
-0.0173025
-0.00920745
-0.00557115
-0.00367225
-0.00302436
-0.00305574
-0.00335806
-0.00356609
-0.00354976
-0.00343076
-0.00326778
-0.00312509
-0.00301302
-0.00292035
-0.00283981
-0.0027685
-0.00270986
-0.00267056
-0.00265504
-0.00267385
-0.00272054
-0.0027858
-0.00286115
-0.00293844
-0.0030098
-0.00306682
-0.00309917
-0.00309236
-0.00303204
-0.00289812
-0.00263971
-0.00218932
-0.00145138
-0.000305492
0.00124927
0.00274271
0.00350575
0.00289958
)
;

boundaryField
{
    floor
    {
        type            calculated;
        value           nonuniform List<scalar> 
36
(
0
0
0
0
0
0
0
0
0
0
0
0
0
0
0
0
0
0
0
-5.90319e-06
-1.51722e-05
-2.27785e-05
-2.91591e-05
-2.58566e-05
-2.42912e-05
-2.29591e-05
-3.07585e-06
-5.14073e-06
-5.73446e-06
-6.50997e-06
-4.51223e-06
-9.84205e-06
-1.36534e-05
-1.5043e-05
-1.79693e-05
-1.65541e-05
)
;
    }
    ceiling
    {
        type            calculated;
        value           nonuniform List<scalar> 
43
(
-5.42514e-05
-5.33538e-05
-5.25165e-05
-3.62998e-05
-3.0686e-05
-2.63201e-05
-2.27881e-05
-2.05725e-05
-1.91589e-05
-1.83936e-05
-1.8026e-05
-1.79603e-05
-1.80466e-05
-1.81284e-05
-1.81752e-05
-1.82315e-05
-1.83495e-05
-1.85667e-05
-1.88803e-05
-1.92305e-05
-1.95335e-05
-1.97836e-05
-1.99626e-05
-2.00658e-05
-2.00906e-05
-2.00333e-05
-1.98899e-05
-1.96561e-05
-1.93266e-05
-1.8889e-05
-1.83695e-05
-1.77777e-05
-1.71263e-05
-1.64244e-05
-1.56788e-05
-1.46904e-05
-1.41609e-05
-1.41867e-05
-1.4857e-05
-1.50013e-05
1.94953e-06
-1.84912e-07
-6.44293e-05
)
;
    }
    sWall
    {
        type            calculated;
        value           uniform -0.000250066;
    }
    nWall
    {
        type            calculated;
        value           nonuniform List<scalar> 6(-6.05496e-05 -7.28317e-05 -7.60043e-05 -9.25905e-05 -0.00010183 -0.00011913);
    }
    sideWalls
    {
        type            empty;
        value           nonuniform 0();
    }
    glass1
    {
        type            calculated;
        value           nonuniform List<scalar> 9(-6.39226e-05 -0.000172906 -0.000265367 -0.000344653 -0.000412426 -0.00046972 -0.000519931 -0.000579649 -0.000646084);
    }
    glass2
    {
        type            calculated;
        value           nonuniform List<scalar> 2(-0.000324188 -0.000359332);
    }
    sun
    {
        type            calculated;
        value           uniform 0;
    }
    Table_master
    {
        type            calculated;
        value           nonuniform List<scalar> 9(-1.54389e-07 -1.54557e-07 -1.5461e-07 -1.54641e-07 -1.54661e-07 -1.54672e-07 -1.54673e-07 -1.54664e-07 -1.54627e-07);
    }
    Table_slave
    {
        type            calculated;
        value           nonuniform List<scalar> 9(1.54242e-07 1.5422e-07 1.54164e-07 1.54122e-07 1.54101e-07 1.541e-07 1.54112e-07 1.5416e-07 1.54257e-07);
    }
    inlet
    {
        type            calculated;
        value           uniform -0.0115522;
    }
    outlet
    {
        type            calculated;
        value           nonuniform List<scalar> 2(0.0137382 0.00392191);
    }
}


// ************************************************************************* //
