/*--------------------------------*- C++ -*----------------------------------*=========                 |
  \      /  F ield         | OpenFOAM: The Open Source CFD Toolbox
   \    /   O peration     | Website:  https://openfoam.org
    \  /    A nd           | Version:  6
     \/     M anipulation  |
\*---------------------------------------------------------------------------*/
FoamFile
{
    version     2.0;
    format      ascii;
    class       volScalarField;
    location    "390";
    object      PMV;
}
// * * * * * * * * * * * * * * * * * * * * * * * * * * * * * * * * * * * * * //

dimensions      [0 0 0 0 0 0 0];

internalField   nonuniform List<scalar> 
458
(
1.3262585238357565
1.0804385482741532
1.0466484515981893
1.0178405938448094
0.9996337571676593
0.9914678229515832
0.9947973896766289
1.010118741736949
1.0408282863140876
1.0907054898515918
1.1636741961045973
1.2285204915813186
1.2442779829518473
1.2523951623514387
1.2643317842364699
1.3865303440919523
1.372690876622516
1.3688729274834204
1.3760315241347743
1.38175822107053
1.3855759286134552
1.3805292508601439
1.3769792038999222
1.3777881015909625
1.3800149774979293
1.3828672138565503
1.3869344434594069
1.3916326384785112
1.398417533956122
1.4095601507442328
1.4213632758741979
1.4261344028366285
1.4409240829083456
1.258554605712307
1.092960052968297
1.0803372546525685
1.0520958932840037
1.0355917803162709
1.0276506850156457
1.0295094382963796
1.0377090036414116
1.0524125259153116
1.0777712437743832
1.1189437205655475
1.1822775941870627
1.2418905357062573
1.2523951623514387
1.249467674950768
1.2104205348139658
1.2143188976908517
1.239898460311555
1.3435235204540183
1.358850479853716
1.3583732086352651
1.366963926622293
1.3694847659825302
1.3693099159257127
1.3702932890019182
1.3718490245708546
1.3730010919557323
1.374195338225346
1.3750990446965328
1.376365176184808
1.3784074303534706
1.3819789857785703
1.3910105016692131
1.4013231903964174
1.4089577625085425
1.3951812719580325
1.2891093146944195
1.0850433709582565
1.1139521626140847
1.099482567623239
1.0931104249529178
1.0899435682973917
1.0899235262558393
1.0854436456531324
1.0700603164493059
1.0581451144711982
1.071292481296979
1.1236944568008587
1.2182806218209363
1.2595571945644162
1.265286692583323
1.265500063450516
1.261732654331319
1.2487675270555667
1.251454092475702
1.3111404283783201
1.3197673235127287
1.32963702016382
1.3420397435941793
1.346501239151532
1.3697292797422669
1.3860531369252302
1.387007550112156
1.387484754984429
1.388439161279364
1.389393562965177
1.390347960030254
1.391302352462945
1.3951198756376786
1.3989373237625387
1.3927176417509852
1.3224704418905007
1.363215271393165
1.0792183471248604
1.138364377247218
1.150903065356705
1.1691484135914292
1.181093479242546
1.1827137688359692
1.1544300112144585
1.0929752483282278
1.0393483104564651
1.0310683237598
1.0826732529696512
1.1769513046640954
1.2673270515464015
1.2800873540893056
1.281042208031298
1.2467643278097873
1.222399361077671
1.1762617868760403
1.2412233960292287
1.2786440416224831
1.3072165825986621
1.3403689853645402
1.377232827368912
1.4053807098057371
1.4013621109561205
1.397411441833305
1.3980071263835028
1.4009284974410705
1.4051684728589484
1.413254390861983
1.4277706475779894
1.4518563057268354
1.449437808937292
1.4323366778793063
1.3744329771492936
1.2785519971417538
1.4566352093541701
1.087833601836699
1.1566175266069572
1.196534079174595
1.2540572062104922
1.3024321856046044
1.3075700868041593
1.2251650849406817
1.1102979730038811
1.0218472201653208
1.001031931617593
1.0563665291986384
1.1544415160848946
1.2568563661776695
1.301093342860864
1.302525507121098
1.2822816262817787
1.2547509159658694
1.254687648375241
1.2730420635222037
1.3063483495941999
1.3493846193529657
1.3935968159839287
1.4367567773666914
1.4695456335596397
1.4814302487709474
1.4842622040225297
1.4857625248215405
1.485849354046031
1.48447478271105
1.4830009725264668
1.4830598798379433
1.482709673263192
1.4661215387130628
1.4371489434085452
1.3609307407391682
1.3588486426834034
1.361323109921856
1.4465839811126544
1.3261945083688795
1.554168863505847
1.1187315308202437
1.188685590571035
1.2292197503881863
1.3176397042790824
1.390347960030254
1.4065714364641313
1.2482391706959342
1.1054723937638302
1.0034026056674474
0.9804419088924144
1.0417897228712618
1.1531020796109863
1.2727645623102934
1.3311670353368297
1.335940286671495
1.333553673393047
1.3349856443443344
1.3421959297000612
1.3649850687546958
1.401706029441263
1.4399699477003127
1.4700226173090916
1.4943468791400438
1.513422019293476
1.5262963315304467
1.5353553313998618
1.5410765002606046
1.5434602500947814
1.5425067551657443
1.538215945583445
1.5315410872431716
1.5156156760558304
1.4849900156181763
1.445926327652982
1.373902353930797
1.3660449334300344
1.360238224424983
1.3857676947145225
1.3944387354199148
1.6469604158920825
1.2057613115442858
1.309153888583711
1.2901747845751974
1.3483465185524082
1.4294741162691302
1.3437666687014973
1.216501087556896
1.071818261030307
0.9716323240589578
0.9613708231578301
1.0440703204122215
1.180528069082628
1.326124584974825
1.373168115307602
1.3827126547775368
1.3827126547775368
1.388916362699142
1.4084806108038141
1.4361533544381957
1.4666837014793086
1.4957775990129032
1.520574557819338
1.540122988670134
1.5539482497017216
1.5620520466613672
1.5672954122602358
1.569202037924461
1.568248728623825
1.565388758402501
1.5587152495573524
1.5491810786987528
1.5377391806749807
1.5212491755032556
1.475714490587261
1.4124597460264867
1.3821076921029243
1.3611411465711205
1.3338165822892551
1.4385893985190028
1.7875574203838251
1.5773081876979536
1.5199435953578841
1.4054150518551012
1.3844802758329071
1.370256927124504
1.2880923623029397
1.1358942664892184
0.9862958011836629
0.912474881191572
0.9468399749509991
1.079030148254435
1.2574946849792732
1.388916362699142
1.4270886130444218
1.438538735038338
1.4423552758396294
1.4533273567322686
1.4743154072761384
1.5005465674313132
1.5258195258653595
1.5477508942914349
1.5649120905464826
1.576351631066961
1.583499417072272
1.5868355673576264
1.5877887366406076
1.586358979958379
1.583499417072272
1.5792113554624332
1.5730152042042476
1.5639587495773193
1.5534715402734918
1.5405997452962454
1.5258195258653595
1.5100840472646695
1.5006136174009062
1.4727929918122937
1.394869051182349
1.3087049809811842
1.996569414568411
1.8497566877618077
1.6897843141468845
1.5486211524469828
1.4575532030617575
1.380364517396339
1.1637124477084346
0.9372329838792252
0.8158630770087474
0.8334384193059607
0.970888642084777
1.1934894702687833
1.3831898699293699
1.4571435653417126
1.4848084046930756
1.4962545026371594
1.504838509286769
1.5186672489277078
1.5372624141153306
1.5563317711350555
1.5734918419801618
1.5868355673576264
1.59176791449169
1.5882053800060882
1.5833797034374857
1.577055914325934
1.5698546163386449
1.5608258497215088
1.5510288307386746
1.538978682312597
1.5256432777711828
1.5105500755714378
1.4963588159878534
1.4792709611166934
1.4592732351533424
1.4416373322331857
1.4298770739583686
1.4257909553609007
1.415398538914667
1.38518434281345
-1.6891381895053528
-0.8054668568843354
-0.26978083988613355
-0.087733097286193
0.07814181813697091
0.2948362616341837
0.5714955963926784
0.8734880549812923
1.1841089923397339
1.3951198756376786
1.4785887828547342
1.4915068268871337
1.5008256208525648
1.5104108560492793
1.522217138202963
1.5364701747029097
1.5501033058587246
1.560405459309274
1.5655104688062746
1.566697114723752
1.5641075898809202
1.5597881245476903
1.5536216531621765
1.546364226121161
1.5379556141951154
1.5290814153124315
1.520661382428753
1.5132989639577021
1.5074862225576142
1.5028958800595051
1.4997233250447224
1.49748694171726
1.495244242024145
1.4957234928524388
1.5059081376377288
1.5427305130410225
1.6114897055532955
1.4606810344451469
-1.698468916634602
-0.6219585457058943
-0.0372907776624567
0.2785945486656648
0.5158380872018088
0.7981248831789048
1.1024362089924618
1.3182787688639817
1.395217289675949
1.4450869441239163
1.4735406996827776
1.4895699292081177
1.5014232339132154
1.5108368431244505
1.5202316777213483
1.5289087927381944
1.5361099167177017
1.540882125499523
1.5438714707758576
1.5448457303681873
1.5437504112811877
1.5416537034723767
1.5386652169978858
1.535401358925617
1.5320118316601214
1.5286668287627176
1.526074776132005
1.524212054551341
1.5240153632491533
1.5263004228806718
1.5331319517082345
1.543687579457535
1.55582139314785
1.5656807321241748
1.5764896421599102
1.6117557941349283
1.5587460377637246
1.5027755639454674
-1.125249867733343
-1.1259641681540362
-1.0018846166068127
-0.1879495166959209
0.4113918808193788
0.843125896455299
1.1365570296084795
1.2767629504803675
1.3627675302183397
1.41496063437493
1.4487179412607218
1.4722726024617523
1.4871436151051556
1.496278018116711
1.5026668001057526
1.5069011801030157
1.5092896340219475
1.5095836109849041
1.5079774211966976
1.5052998945651406
1.5023545883960727
1.4987728200760573
1.495755094432167
1.4933794559748559
1.4912169274134013
1.4899192686536962
1.4897140384375993
1.490946536339597
1.4941237668302978
1.500472990317606
1.5090204895186696
1.5229993483090543
1.54547056821608
1.5857526220669333
1.6392485376418504
1.644964861671976
1.61651134172752
1.5595798048675285
1.5095955610091376
1.5229301599361895
)
;

boundaryField
{
    ".*"
    {
        type            zeroGradient;
    }
}


// ************************************************************************* //
