/*--------------------------------*- C++ -*----------------------------------*=========                 |
  \      /  F ield         | OpenFOAM: The Open Source CFD Toolbox
   \    /   O peration     | Website:  https://openfoam.org
    \  /    A nd           | Version:  6
     \/     M anipulation  |
\*---------------------------------------------------------------------------*/
FoamFile
{
    version     2.0;
    format      ascii;
    class       volScalarField;
    location    "390";
    object      PPD;
}
// * * * * * * * * * * * * * * * * * * * * * * * * * * * * * * * * * * * * * //

dimensions      [0 0 0 0 0 0 0];

internalField   nonuniform List<scalar> 
458
(
41.62125040736306
29.623357321352813
28.121924790377903
26.874493897404392
26.102017987076565
25.75962690171238
25.89892649995255
26.545350465432577
27.867447297670495
30.087522332853865
33.488043504415145
36.648422603468234
37.43423307662587
37.84157582851997
38.44364254968938
44.789144957938056
44.056062478975115
43.85438186305489
44.232731191399125
44.53601307508282
44.738490187379945
44.47088269427644
44.28288258606961
44.32570131173253
44.44363556120584
44.59480600035121
44.810596492252365
45.06018555137775
45.42122228021654
46.015598852731905
46.64707216216984
46.90284304898871
47.69743648466895
38.15180126380273
30.189938114795083
29.618796111134316
28.3612182520324
27.639545050325864
27.295854530006537
27.376093095920766
27.73156966711454
28.37516013826665
29.50336920134656
31.38273838686962
34.3820947883697
37.31475034364106
37.84157582851997
37.694470054417366
35.7541198278749
35.94596540864974
37.21516907130511
42.52185632217538
43.3261517513871
43.30104157841108
43.7536334877893
43.88668514509633
43.87745292075328
43.929382594968985
44.011570982935446
44.072460225174694
44.13560223722321
44.18339870685368
44.250386430184946
44.35849252860268
44.54771527747299
45.02711531729037
45.57604625396742
45.98342108081987
45.24892876301157
39.70453842049276
29.831087863428877
31.15183537091127
30.48721093039535
30.196775126842056
30.052950833589605
30.052041714165824
29.849179666560048
29.157897897645185
28.62819946509859
29.21296188332255
31.603268346914405
36.14136491300522
38.20238833405678
38.4919610066052
38.502760679809874
38.31224107177709
37.659320423637396
37.79426321291822
40.83761922100456
41.28419891587268
41.79701841973304
42.44422772817131
42.67777200520911
43.899596544555855
44.76381581150357
44.814477617687366
44.83981378175258
44.89049658679772
44.94119330095365
44.99190385200816
45.04262816765667
45.24566162698861
45.4489095120921
45.117873998680594
41.42445078869149
43.555980236267466
29.56843598927128
32.288914074561475
32.880446751702365
33.750032203166484
34.32487631600681
34.403182053475675
33.04773432003148
30.1906289719158
27.802934438209192
27.443485269861995
29.72407612462898
34.125050005086806
38.59527891036624
39.2437247395888
39.2924051694063
37.5588235359908
36.34497043943784
34.09183648955627
37.281389255456126
39.17018278515647
40.63502493525428
42.35686726886509
44.29630690076388
45.792449676008225
45.57812091720738
45.36764287289327
45.39936423321724
45.55500835679546
45.781124431796535
46.21304275404967
46.9906242705328
48.28635746031231
48.15596431469719
47.23575450784017
44.14816949222943
39.16549447042663
48.54418470555832
29.957317517980727
33.15168717832067
35.074251727307185
37.92519100316055
40.38845402962111
40.65326320477399
36.481953145236545
30.98332422009085
27.046153665529957
26.16089637202579
28.54956558128292
33.04828065051112
38.06617194350695
40.319545325050925
40.39325866452799
39.355625457238176
37.96011144577699
37.95692613017308
38.885214158647
40.590241948535066
42.82890760543719
45.164631856470756
47.4732854311334
49.24179632051829
49.88524130314819
50.03872741923168
50.120065245450434
50.12477306217077
50.05025110128969
49.970364022485114
49.97355675817784
49.95457617680826
49.05662953973251
47.49437088388069
43.43564589952092
43.32605508643055
43.45630681266311
48.002178169095416
41.61792221047602
53.840561761389075
31.37290591651606
34.69246408911589
36.68315297073767
41.1739142781432
44.99190385200816
45.85600020716815
37.632803652525915
30.76148180585635
26.260896754596118
25.30136250109362
27.909399594243155
32.984702898587756
38.871117530142115
41.87669414322775
42.12556217616695
42.00107221628007
42.07575283245596
42.4523971217009
43.64926483775774
45.596454468811125
47.64609823457259
49.26759847794174
50.58575067916132
51.62211226566615
52.32254541141826
52.81574340034662
53.127327486198176
53.2571695756761
53.20523181057846
52.97152823678638
52.60805659894269
51.74141199643215
50.07818271674701
47.966750903882705
44.120109405330346
43.705155624524195
43.39918686515914
44.74866685510499
45.20941931216992
58.88593796931917
35.525393917828225
40.735009353767644
39.759084497628656
42.77447642367682
47.082046697104275
42.53458142927717
36.05354090830269
29.23647465919946
24.938578529659893
24.519800923068118
28.009048141651178
34.29756951807644
41.614286953069794
44.08128962172651
44.586610914161376
44.586610914161376
44.91584320974827
45.957936630062584
47.44084484488805
49.08702292261927
50.66341114565366
52.0111702660399
53.07539294086688
53.8285418590696
54.270080568690624
54.55576604290055
54.659645156566256
54.607706125872355
54.45188305964581
54.088271937726816
53.568817199626736
52.94556303557978
52.047876335964304
49.57564346175057
46.170556171361696
44.55453804933086
43.4467248618375
42.01478047978617
47.571834349443805
66.36519543785911
55.10125261305682
51.97684106180471
45.79428227304582
44.68035708880366
43.927462114387225
39.65250063626839
32.17297621265591
25.54408418307004
22.58136294683557
23.933836751559966
29.559969773902978
38.09834896919159
44.91584320974827
46.954030496505645
47.56910941658412
47.77446222489102
48.36569814594045
49.49990026212715
50.92236337692772
52.29659360385064
53.49090243242375
54.42591178875261
55.049145766512986
55.43847010424017
55.62014627688374
55.67204780696518
55.59419448845228
55.43847010424017
55.20492005978872
54.86738905736501
54.373968691067496
53.80256897541716
53.10136003946847
52.29659360385064
51.440622044741524
50.9260050997913
49.4174981811042
45.232314873233726
40.71183395731798
76.5954005297705
69.54914022110536
61.19452944955084
53.53831278952185
48.59373715870879
44.46215435087365
33.48987097489146
23.55100291319448
19.036954510047195
19.65292791035037
24.90809078101843
34.925933609771164
44.61191521584964
48.57162428733507
50.06833707570935
50.689300613525226
51.15552452574835
51.907402772027346
52.91959824518212
53.95840687975115
54.89335549463926
55.62014627688374
55.88869326100724
55.69473392895283
55.431950397939396
55.087510576818445
54.69519907595709
54.20327002010893
53.6694838747265
53.013068829346835
52.28700087939252
51.46595751444085
50.694963614120155
49.768252481026906
48.68660466482317
47.735820211397446
47.10367793141111
46.88442197859929
46.327724362709695
44.717711264746576
61.1598517781497
18.678707545093815
6.511325236927362
5.159388432784851
5.1264346778772705
6.806120942326871
11.841559316307212
21.104709335940257
34.470673509705236
45.24566162698861
49.73129987930909
50.43162900469476
50.937519931377714
51.458388783697444
52.1005463483988
52.87645388318222
53.61906027146215
54.1803646200388
54.45851444058535
54.523168351315526
54.382078325375325
54.146728516606906
53.81074766137855
53.41536080728533
52.95735020889303
52.47414790199177
52.01589431157293
51.61542066242015
51.299411619196896
51.04997801021944
50.87765224694388
50.756211920856
50.63445867357043
50.66047399520589
51.21364793373867
53.2174199727826
56.96161277158896
48.76263503533746
61.660106310116795
13.116061573301863
5.028787950277064
6.612005967328187
10.56391804348661
18.428457065913975
30.622304508586012
41.20703005514699
45.250845431581304
47.9215406771499
49.457966160989635
50.32654911890053
50.96998027232727
51.48154805014608
51.99251476440254
52.464750708438906
52.856835165992784
53.11674040989173
53.279569622320565
53.33264064977287
53.27297523090899
53.158766626965765
52.99599655758616
52.81824984019896
52.63368669036095
52.45157887412297
52.31048639420864
52.20910703064143
52.19840272386821
52.32276810064319
52.69467503607261
53.26955264516454
53.9305989354126
54.467791211208464
55.056663781455406
56.97607719491556
54.089949458956994
51.04344169458438
31.675632452451907
31.708891273188897
26.196840058885527
5.732379255999049
8.527422232160518
19.99798087063205
32.204064539030156
39.0744089999273
43.53238886405809
46.30429766956585
48.11716430000064
49.389336015498664
50.194953220704264
50.69057722452096
51.03753303842674
51.26761501191912
51.397436456062344
51.413417162051054
51.32610922498079
51.18059537931521
51.02057232573189
50.826034232436754
50.66218948333108
50.53324554403288
50.41589990395383
50.34549951540409
50.33436642224723
50.40122976943313
50.573641139556074
50.91836717110738
51.38280602304008
52.14311147537871
53.366678327008124
55.561175440137404
58.468316100788144
58.77791919868567
57.23452457538604
54.13537801617173
51.414066779079874
52.13934639760226
)
;

boundaryField
{
    ".*"
    {
        type            zeroGradient;
    }
}


// ************************************************************************* //
