/*--------------------------------*- C++ -*----------------------------------*\
  =========                 |
  \\      /  F ield         | OpenFOAM: The Open Source CFD Toolbox
   \\    /   O peration     | Website:  https://openfoam.org
    \\  /    A nd           | Version:  6
     \\/     M anipulation  |
\*---------------------------------------------------------------------------*/
FoamFile
{
    version     2.0;
    format      ascii;
    class       volScalarField;
    location    "400";
    object      k;
}
// * * * * * * * * * * * * * * * * * * * * * * * * * * * * * * * * * * * * * //

dimensions      [0 2 -2 0 0 0 0];

internalField   nonuniform List<scalar> 
458
(
0.00235285
0.00279743
0.0029344
0.00322653
0.00350896
0.0037888
0.00408155
0.00438578
0.00464061
0.00480066
0.00481151
0.00462511
0.00419384
0.00330366
0.00195927
0.000477169
0.000656972
0.000852259
0.000935513
0.000908956
0.000794211
0.000676421
0.000579321
0.000501538
0.000438703
0.000387417
0.000345173
0.000309875
0.00027947
0.000252142
0.00022613
0.000210054
0.000176423
0.00423587
0.00775617
0.00435583
0.00460296
0.00497599
0.00543137
0.00596865
0.00657814
0.00722121
0.0077557
0.00802928
0.00794351
0.0074878
0.0066135
0.0052884
0.0034107
0.00235929
0.0015619
0.000465758
0.0010143
0.00138361
0.0015605
0.00158032
0.00134753
0.00109231
0.000886503
0.000730058
0.000610574
0.000518011
0.000444653
0.000384471
0.000334248
0.000297872
0.000276982
0.000494574
0.000295449
0.00622698
0.0139292
0.0051514
0.00496959
0.00521385
0.00559484
0.00610561
0.00674985
0.00744756
0.0080348
0.00839151
0.00843802
0.00814355
0.00742996
0.00635219
0.00515724
0.00412851
0.00221979
0.00108814
0.00145685
0.00170055
0.00185598
0.00185707
0.00144487
0.00110111
0.000851305
0.000672899
0.000544438
0.000450468
0.000380675
0.00032867
0.000291088
0.000271168
0.000274437
0.000773079
0.000407279
0.00850128
0.0225778
0.0062059
0.00494957
0.00500721
0.00531298
0.00582592
0.00658479
0.00734617
0.00794829
0.00834889
0.0084711
0.00822083
0.0075592
0.00665115
0.00575599
0.00489962
0.00367761
0.00292574
0.00262273
0.00250787
0.00249886
0.00246962
0.00233363
0.00185173
0.00154937
0.00135548
0.00121836
0.00110726
0.00100508
0.000912288
0.000819367
0.000717736
0.000542778
0.000430089
0.00111896
0.000536495
0.0111905
0.0343468
0.00880094
0.00501258
0.00474604
0.00501485
0.00570535
0.00682075
0.00765474
0.00823442
0.00863025
0.00873378
0.00838724
0.0075999
0.00657898
0.00563709
0.0048749
0.00422864
0.00402138
0.00371621
0.0035018
0.00332966
0.00311745
0.00283306
0.00251579
0.00228935
0.00214319
0.00202515
0.00190146
0.00175027
0.00156278
0.00135194
0.00112923
0.000884988
0.000674325
0.000921221
0.0010405
0.000954498
0.00107626
0.00127443
0.0144828
0.0471168
0.0155216
0.00630824
0.00508343
0.0051735
0.00635806
0.00782831
0.00854647
0.0090066
0.00931251
0.00932448
0.00883094
0.00779314
0.00647181
0.00528495
0.00449317
0.00414751
0.00413127
0.00415458
0.00407091
0.00384327
0.00350401
0.00311588
0.00278735
0.00259623
0.00248921
0.00240053
0.00229496
0.00215107
0.00194471
0.00169948
0.00143743
0.00117201
0.000952679
0.000909823
0.00102596
0.00104788
0.00164321
0.00137291
0.0181033
0.0554619
0.0277247
0.0130548
0.00899116
0.00817274
0.00930143
0.00985135
0.0100588
0.0102411
0.0103786
0.010229
0.00949524
0.0081237
0.00644049
0.00500981
0.00421629
0.00408982
0.00427477
0.00437376
0.00424023
0.0039154
0.00349886
0.00309185
0.00279687
0.00265329
0.00259859
0.00257073
0.00253946
0.00248502
0.00237745
0.00218248
0.00194368
0.00168966
0.00148638
0.00139138
0.00147354
0.00170186
0.00225058
0.00195581
0.0190424
0.0567789
0.0385315
0.0276815
0.0205209
0.0168272
0.0144381
0.0128757
0.0121235
0.0118892
0.0117753
0.0113537
0.0102307
0.00838817
0.00627144
0.00469025
0.00402222
0.00402641
0.00416778
0.00414201
0.00388824
0.00350436
0.00310547
0.00278189
0.00258827
0.00252102
0.00253377
0.00259125
0.00268073
0.00279964
0.00294541
0.00307884
0.00312707
0.00316556
0.00332766
0.00391235
0.00516311
0.00684781
0.0127839
0.00465583
0.0182776
0.0264878
0.0243584
0.0217119
0.0189536
0.016595
0.014887
0.013992
0.0137063
0.0136156
0.0133212
0.012451
0.0106145
0.00802991
0.00535801
0.00412034
0.00369429
0.0036202
0.00356697
0.00339334
0.00310039
0.00276389
0.00246982
0.00227251
0.00218591
0.00218942
0.00225347
0.00236066
0.00250575
0.00268886
0.0029106
0.00316853
0.0034873
0.00389899
0.00444099
0.00508021
0.00566694
0.00603099
0.00620888
0.00406154
0.00700067
0.0108662
0.0134681
0.0149921
0.0159858
0.016587
0.0165163
0.0157545
0.0143947
0.0123243
0.00881707
0.00578712
0.0040444
0.00330309
0.00299354
0.00282224
0.00264206
0.00241164
0.00216078
0.00193247
0.00176755
0.00168522
0.00167556
0.00171837
0.00179834
0.00190889
0.00205028
0.00222804
0.00245358
0.00275037
0.00311769
0.0035545
0.00403779
0.00447602
0.00469956
0.00456859
0.00411452
0.00263402
0.00805158
0.0200703
0.022745
0.0229445
0.022326
0.0199251
0.0166759
0.0129314
0.00941972
0.00641743
0.00431044
0.0031669
0.00258464
0.00226312
0.00204878
0.00186033
0.00166848
0.00148361
0.00133376
0.00123852
0.00119865
0.00120421
0.00124896
0.0013268
0.00143573
0.00157717
0.00175467
0.001973
0.00224393
0.00257546
0.00297727
0.00345035
0.00396805
0.00446353
0.00476092
0.00503642
0.00431063
0.00270542
0.00895717
0.00942252
0.009851
0.0122238
0.0109163
0.00858072
0.00625881
0.00470005
0.00377049
0.00293211
0.00225204
0.00177248
0.00140643
0.00117092
0.00102541
0.000924981
0.000846928
0.000782008
0.000730394
0.000696962
0.000685259
0.000694696
0.000722451
0.000765279
0.000819797
0.000885776
0.000963988
0.00105619
0.00116551
0.00129745
0.00145467
0.00163981
0.00185739
0.00211265
0.00241037
0.00279376
0.00296039
0.00283533
0.00245468
0.0020999
)
;

boundaryField
{
    floor
    {
        type            kqRWallFunction;
        value           nonuniform List<scalar> 
36
(
0.00195927
0.000477169
0.000656972
0.000852259
0.000935513
0.000908956
0.000794211
0.000676421
0.000579321
0.000501538
0.000438703
0.000387417
0.000345173
0.000309875
0.00027947
0.000252142
0.00022613
0.000210054
0.000176423
0.000176423
0.000295449
0.000407279
0.000536495
0.000954498
0.00107626
0.00127443
0.00195927
0.0034107
0.00235929
0.0015619
0.000477169
0.0015619
0.000465758
0.00221979
0.00108814
0.00292574
)
;
    }
    ceiling
    {
        type            kqRWallFunction;
        value           nonuniform List<scalar> 
43
(
0.00895717
0.00942252
0.009851
0.0122238
0.0109163
0.00858072
0.00625881
0.00470005
0.00377049
0.00293211
0.00225204
0.00177248
0.00140643
0.00117092
0.00102541
0.000924981
0.000846928
0.000782008
0.000730394
0.000696962
0.000685259
0.000694696
0.000722451
0.000765279
0.000819797
0.000885776
0.000963988
0.00105619
0.00116551
0.00129745
0.00145467
0.00163981
0.00185739
0.00211265
0.00241037
0.00279376
0.00296039
0.00283533
0.00245468
0.0020999
0.0182776
0.0264878
0.00805158
)
;
    }
    sWall
    {
        type            kqRWallFunction;
        value           uniform 0.00895717;
    }
    nWall
    {
        type            kqRWallFunction;
        value           nonuniform List<scalar> 6(0.00127443 0.00137291 0.00195581 0.00263402 0.00270542 0.0020999);
    }
    sideWalls
    {
        type            empty;
    }
    glass1
    {
        type            kqRWallFunction;
        value           nonuniform List<scalar> 9(0.00235285 0.00423587 0.00622698 0.00850128 0.0111905 0.0144828 0.0181033 0.0190424 0.0182776);
    }
    glass2
    {
        type            kqRWallFunction;
        value           nonuniform List<scalar> 2(0.00465583 0.00406154);
    }
    sun
    {
        type            kqRWallFunction;
        value           nonuniform List<scalar> 
14
(
0.00235285
0.00279743
0.0029344
0.00322653
0.00350896
0.0037888
0.00408155
0.00438578
0.00464061
0.00480066
0.00481151
0.00462511
0.00419384
0.00330366
)
;
    }
    Table_master
    {
        type            kqRWallFunction;
        value           nonuniform List<scalar> 9(0.00144487 0.00110111 0.000851305 0.000672899 0.000544438 0.000450468 0.000380675 0.00032867 0.000291088);
    }
    Table_slave
    {
        type            kqRWallFunction;
        value           nonuniform List<scalar> 9(0.00185173 0.00154937 0.00135548 0.00121836 0.00110726 0.00100508 0.000912288 0.000819367 0.000717736);
    }
    inlet
    {
        type            turbulentIntensityKineticEnergyInlet;
        intensity       0.05;
        value           uniform 0.000937501;
    }
    outlet
    {
        type            zeroGradient;
    }
}


// ************************************************************************* //
