// -*- C++ -*-
// File generated by PyFoam - sorry for the ugliness

FoamFile
{
 version 2.0;
 format ascii;
 class volScalarField;
 location "400";
 object T;
}

dimensions [ 0 0 0 1 0 0 0 ];

internalField nonuniform List<scalar> 458
(
  305.463
  305.215
  305.209
  305.211
  305.213
  305.214
  305.214
  305.214
  305.213
  305.211
  305.208
  305.202
  305.194
  305.184
  305.172
  303.922
  303.933
  303.942
  303.927
  303.93
  303.947
  303.956
  303.938
  303.905
  303.889
  303.881
  303.879
  303.873
  303.869
  303.879
  303.911
  303.898
  303.883
  305.654
  305.279
  305.258
  305.265
  305.272
  305.278
  305.282
  305.283
  305.283
  305.28
  305.272
  305.26
  305.241
  305.214
  305.177
  305.142
  305.108
  305.025
  304.066
  304.1
  304.13
  304.139
  304.099
  304.041
  304.057
  304.029
  304.01
  303.996
  303.988
  303.992
  304.035
  304.086
  304.138
  304.12
  304.089
  304.059
  305.83
  305.349
  305.303
  305.312
  305.326
  305.338
  305.349
  305.356
  305.36
  305.36
  305.354
  305.34
  305.317
  305.282
  305.235
  305.18
  305.12
  305.066
  304.5
  304.443
  304.431
  304.437
  304.458
  304.311
  304.151
  304.099
  304.132
  304.165
  304.202
  304.246
  304.301
  304.404
  304.582
  304.541
  304.534
  304.59
  305.991
  305.436
  305.357
  305.358
  305.376
  305.395
  305.412
  305.427
  305.438
  305.443
  305.44
  305.428
  305.405
  305.368
  305.317
  305.252
  305.169
  305.066
  304.965
  304.876
  304.894
  304.944
  305.012
  305.07
  305.117
  305.122
  305.124
  305.127
  305.13
  305.133
  305.135
  305.135
  305.113
  305.017
  304.962
  304.905
  304.894
  306.139
  305.543
  305.44
  305.42
  305.431
  305.45
  305.471
  305.491
  305.508
  305.519
  305.521
  305.513
  305.493
  305.461
  305.416
  305.362
  305.299
  305.236
  305.18
  305.137
  305.126
  305.132
  305.144
  305.154
  305.159
  305.16
  305.162
  305.164
  305.167
  305.172
  305.177
  305.18
  305.178
  305.161
  305.148
  305.132
  305.087
  305.111
  305.114
  305.124
  306.27
  305.676
  305.58
  305.54
  305.524
  305.525
  305.538
  305.554
  305.571
  305.584
  305.589
  305.584
  305.569
  305.542
  305.504
  305.456
  305.401
  305.346
  305.296
  305.257
  305.232
  305.217
  305.208
  305.202
  305.197
  305.193
  305.191
  305.191
  305.194
  305.199
  305.205
  305.212
  305.218
  305.221
  305.224
  305.225
  305.223
  305.222
  305.187
  305.155
  306.393
  305.856
  305.798
  305.746
  305.697
  305.663
  305.645
  305.64
  305.64
  305.643
  305.643
  305.637
  305.624
  305.603
  305.573
  305.533
  305.485
  305.435
  305.388
  305.347
  305.314
  305.288
  305.268
  305.252
  305.239
  305.228
  305.221
  305.216
  305.215
  305.219
  305.225
  305.234
  305.243
  305.251
  305.256
  305.259
  305.258
  305.25
  305.226
  305.168
  306.576
  306.191
  306.075
  305.989
  305.897
  305.826
  305.777
  305.744
  305.722
  305.704
  305.689
  305.674
  305.658
  305.638
  305.613
  305.583
  305.547
  305.507
  305.465
  305.424
  305.388
  305.356
  305.329
  305.306
  305.287
  305.27
  305.255
  305.244
  305.237
  305.234
  305.238
  305.245
  305.255
  305.263
  305.271
  305.277
  305.281
  305.286
  305.29
  305.298
  306.833
  306.655
  306.033
  305.906
  305.849
  305.811
  305.781
  305.757
  305.736
  305.718
  305.701
  305.684
  305.666
  305.647
  305.626
  305.603
  305.577
  305.547
  305.515
  305.481
  305.448
  305.417
  305.388
  305.362
  305.338
  305.316
  305.297
  305.279
  305.264
  305.253
  305.248
  305.248
  305.251
  305.256
  305.259
  305.262
  305.264
  305.268
  305.277
  305.316
  302.626
  304.948
  305.388
  305.541
  305.611
  305.641
  305.652
  305.653
  305.648
  305.641
  305.632
  305.621
  305.609
  305.594
  305.577
  305.557
  305.535
  305.51
  305.484
  305.457
  305.431
  305.405
  305.381
  305.358
  305.336
  305.315
  305.296
  305.28
  305.267
  305.258
  305.255
  305.254
  305.254
  305.254
  305.253
  305.252
  305.252
  305.259
  303.302
  304.678
  305.167
  305.397
  305.504
  305.556
  305.58
  305.591
  305.594
  305.593
  305.59
  305.585
  305.578
  305.569
  305.559
  305.546
  305.53
  305.513
  305.493
  305.472
  305.45
  305.428
  305.405
  305.383
  305.361
  305.341
  305.321
  305.303
  305.287
  305.273
  305.264
  305.258
  305.255
  305.252
  305.248
  305.244
  305.241
  305.251
  305.312
  304.561
  303.752
  304.891
  305.275
  305.402
  305.476
  305.519
  305.534
  305.54
  305.542
  305.541
  305.538
  305.535
  305.53
  305.524
  305.517
  305.509
  305.499
  305.487
  305.474
  305.459
  305.442
  305.425
  305.406
  305.386
  305.367
  305.347
  305.328
  305.31
  305.293
  305.278
  305.266
  305.257
  305.249
  305.243
  305.237
  305.231
  305.229
  305.253
)
;

boundaryField
{
  floor
  {
    type wallHeatTransfer;
    Tinf uniform 305.2;
    alphaWall uniform 0.24;
    value nonuniform List<scalar> 36
(
  305.176
  304.294
  304.289
  304.299
  304.323
  304.354
  304.38
  304.393
  304.387
  304.358
  304.327
  304.296
  304.272
  304.262
  304.255
  304.249
  304.247
  304.244
  304.254
  304.254
  304.324
  304.696
  304.938
  305.121
  305.124
  305.134
  305.176
  305.149
  305.12
  305.056
  304.294
  305.056
  304.329
  305.082
  304.617
  304.994
)
;
  }
  ceiling
  {
    type wallHeatTransfer;
    Tinf uniform 303.2;
    alphaWall uniform 0.24;
    value nonuniform List<scalar> 43
(
  305.169
  304.493
  303.731
  304.807
  305.154
  305.273
  305.334
  305.362
  305.364
  305.359
  305.352
  305.344
  305.336
  305.33
  305.325
  305.319
  305.313
  305.306
  305.297
  305.287
  305.274
  305.26
  305.245
  305.228
  305.211
  305.193
  305.174
  305.156
  305.138
  305.121
  305.105
  305.091
  305.079
  305.069
  305.06
  305.052
  305.043
  305.032
  305.028
  305.06
  306.663
  306.509
  303.299
)
;
  }
  sWall
  {
    type wallHeatTransfer;
    Tinf uniform 315.2;
    alphaWall uniform 0.36;
    value uniform 306.283;
  }
  nWall
  {
    type wallHeatTransfer;
    Tinf uniform 307.2;
    alphaWall uniform 0.36;
    value nonuniform List<scalar> 6
(
  305.514
  305.516
  305.529
  305.486
  305.472
  305.516
)
;
  }
  sideWalls
  {
    type empty;
  }
  glass1
  {
    type wallHeatTransfer;
    Tinf uniform 315.2;
    alphaWall uniform 4.3;
    value nonuniform List<scalar> 9
(
  312.919
  312.108
  311.558
  311.141
  310.83
  310.597
  310.455
  310.551
  310.77
)
;
  }
  glass2
  {
    type wallHeatTransfer;
    Tinf uniform 307.2;
    alphaWall uniform 4.3;
    value nonuniform List<scalar> 2
(
  306.542
  306.484
)
;
  }
  sun
  {
    type wallHeatTransfer;
    Tinf uniform 305.2;
    alphaWall uniform 0.24;
    value nonuniform List<scalar> 14
(
  305.423
  305.212
  305.207
  305.21
  305.211
  305.212
  305.212
  305.212
  305.211
  305.21
  305.207
  305.202
  305.195
  305.187
)
;
  }
  Table_master
  {
    type zeroGradient;
  }
  Table_slave
  {
    type zeroGradient;
  }
  inlet
  {
    type fixedValue;
    value uniform 295.15;
  }
  outlet
  {
    type zeroGradient;
  }
} 	// ************************************************************************* //

