/*--------------------------------*- C++ -*----------------------------------*\
  =========                 |
  \\      /  F ield         | OpenFOAM: The Open Source CFD Toolbox
   \\    /   O peration     | Website:  https://openfoam.org
    \\  /    A nd           | Version:  6
     \\/     M anipulation  |
\*---------------------------------------------------------------------------*/
FoamFile
{
    version     2.0;
    format      ascii;
    class       volScalarField;
    location    "30899.999997987612";
    object      alphat;
}
// * * * * * * * * * * * * * * * * * * * * * * * * * * * * * * * * * * * * * //

dimensions      [1 -1 -1 0 0 0 0];

internalField   nonuniform List<scalar> 
778
(
0.00104098
0.00111056
0.00110659
0.00115465
0.0011987
0.0012387
0.00127594
0.00131183
0.00134797
0.00138636
0.00142296
0.00145772
0.00149196
0.0015288
0.00156723
0.000736792
0.0010553
0.00106377
0.00103796
0.000994849
0.000937327
0.000880041
0.000827263
0.000779659
0.000736956
0.000698897
0.00066471
0.00063357
0.000604508
0.000576227
0.000546658
0.000522118
0.000472594
0.00152465
0.0030073
0.00263928
0.00304632
0.00334176
0.00365502
0.00396751
0.00425548
0.00448725
0.00462211
0.00470139
0.00466868
0.00443582
0.00385906
0.00281854
0.00171597
0.0016361
0.00156614
0.00131884
0.00224626
0.00311294
0.00362444
0.00364804
0.00287949
0.00246259
0.00217358
0.00195436
0.00178009
0.00163145
0.00149998
0.00137762
0.00125789
0.00115044
0.00105776
0.00119177
0.000599182
0.00193411
0.00419878
0.0031135
0.00445316
0.00497586
0.00541826
0.00582008
0.00617369
0.00647319
0.0067079
0.00693535
0.00717468
0.0073946
0.00752556
0.00743896
0.00681172
0.00498262
0.00192122
0.00166382
0.00355973
0.0049674
0.0056326
0.00512196
0.00135145
0.00117503
0.00103897
0.000932553
0.000847899
0.000779588
0.000723873
0.000678549
0.000643203
0.000707204
0.00083198
0.00131817
0.000681683
0.00232905
0.00565833
0.00297923
0.0050069
0.00578047
0.0061944
0.00649874
0.00672388
0.00689187
0.00702797
0.00722165
0.00754893
0.00802653
0.00862737
0.00923189
0.00953069
0.00895159
0.00668252
0.00191366
0.00442975
0.0065933
0.00769272
0.00796346
0.00679792
0.00153915
0.00139986
0.00129204
0.00120238
0.00112599
0.00105742
0.000992781
0.000928586
0.000859236
0.000802794
0.000832405
0.00142803
0.000750497
0.00271829
0.00749035
0.00300561
0.00475962
0.0059488
0.0063015
0.0064294
0.00643415
0.0063701
0.00631342
0.00639448
0.00671234
0.00729567
0.0081221
0.00908132
0.00996597
0.010528
0.0105229
0.00944476
0.00961073
0.00983257
0.00986431
0.00966368
0.00904465
0.00719743
0.00621667
0.00554493
0.00499913
0.00446392
0.00394555
0.00343845
0.00293212
0.00241212
0.00185265
0.00141342
0.00141331
0.00111777
0.000895425
0.00119282
0.00113719
0.00310122
0.00954053
0.00353825
0.00401365
0.00569954
0.00609066
0.00605891
0.00584042
0.00552836
0.00527112
0.00526538
0.00559823
0.00626252
0.00722029
0.00834216
0.0094643
0.0104196
0.0110309
0.0111434
0.0110328
0.0108382
0.0105612
0.0102044
0.00974988
0.00908673
0.00844793
0.00786802
0.00730733
0.00670198
0.00605573
0.00536568
0.00462603
0.00383218
0.00298988
0.00222668
0.00167173
0.00129805
0.00146598
0.00256267
0.00135725
0.00349199
0.0114358
0.00471482
0.00328805
0.00512125
0.00576099
0.00568924
0.00533573
0.00482339
0.00437305
0.00436021
0.00478041
0.00554048
0.00661087
0.00782948
0.00903704
0.0100772
0.0108228
0.0111667
0.0111416
0.0108979
0.0105279
0.0101036
0.00968002
0.00927021
0.00889415
0.00854085
0.00816352
0.0077077
0.00715923
0.00651016
0.00575756
0.00490444
0.00397217
0.00305967
0.00220889
0.00162613
0.00146068
0.00261235
0.00160522
0.00382774
0.0128686
0.00642751
0.00313049
0.00405712
0.00510771
0.00525329
0.00496242
0.0043577
0.00374466
0.00388364
0.00443942
0.00528959
0.00639258
0.00765849
0.0089224
0.010001
0.0107508
0.011092
0.0110487
0.0107336
0.0102681
0.00976705
0.00932248
0.00897969
0.00873479
0.00854373
0.00833574
0.00804603
0.00764062
0.00710381
0.00643265
0.00563376
0.00473033
0.00378889
0.00283359
0.00197197
0.00133384
0.00383596
0.00212454
0.00392895
0.0121731
0.00795038
0.00404656
0.00274944
0.00337068
0.00394478
0.00399241
0.00352496
0.00342543
0.00378112
0.00443472
0.00535457
0.00652525
0.00785282
0.00915577
0.0102298
0.0109206
0.0111631
0.0109965
0.0105389
0.00993864
0.00934299
0.00886761
0.00856586
0.00841788
0.00835093
0.00827116
0.00810457
0.00781164
0.00737687
0.00679893
0.00608539
0.00525464
0.00434008
0.00330762
0.0018874
0.00171744
0.00606462
0.00240757
0.00384946
0.00981065
0.00820751
0.00555274
0.00366717
0.00283938
0.00269001
0.00281724
0.00305335
0.00342972
0.00396438
0.00470064
0.00570254
0.00696672
0.00836805
0.00968958
0.0107062
0.0112642
0.0113204
0.0109431
0.0102811
0.00952004
0.00884072
0.00837509
0.00816173
0.0081373
0.00818427
0.00818387
0.00807623
0.00783921
0.00746562
0.0069554
0.00631273
0.00554199
0.00462135
0.00331022
0.00143023
0.00319785
0.00567251
0.00244619
0.00360581
0.00838414
0.00793376
0.00635251
0.00488925
0.00393591
0.00346435
0.00335769
0.00355289
0.00391274
0.00443627
0.00521502
0.00632404
0.00771293
0.00918738
0.0104805
0.0113536
0.0116736
0.011439
0.0107664
0.00985705
0.00894753
0.00825592
0.00790834
0.00786874
0.00798444
0.0081012
0.00810345
0.00798993
0.00776064
0.00741151
0.00693803
0.00633218
0.00556618
0.00453508
0.00299847
0.00156055
0.00337793
0.00627273
0.00247341
0.00328316
0.00755944
0.00765242
0.00672315
0.0057198
0.00496402
0.00451872
0.00435886
0.004399
0.00461697
0.00509914
0.00597177
0.00725761
0.00879927
0.0103061
0.0114669
0.0120565
0.0119949
0.0113515
0.0103154
0.00916496
0.00820338
0.00765664
0.00754766
0.00764721
0.00780307
0.00790414
0.00787523
0.00774259
0.00750993
0.0071708
0.00670925
0.00608333
0.00519818
0.00387255
0.00234119
0.00183556
0.00372863
0.00640365
0.00261757
0.00299371
0.00676265
0.007307
0.00686798
0.00622416
0.00568297
0.00532277
0.00514673
0.00509511
0.00528245
0.00589663
0.00704035
0.00860036
0.0102717
0.0116792
0.0125123
0.0126141
0.0120018
0.0108525
0.00945174
0.00818689
0.00737143
0.00701209
0.0069761
0.00709428
0.00724315
0.00733118
0.0072996
0.00716168
0.00692262
0.00657205
0.00607181
0.00530868
0.00408045
0.00255274
0.00183065
0.00230976
0.00431039
0.00655272
0.00263192
0.00300405
0.00671296
0.00746574
0.00695052
0.00642942
0.00600253
0.0056947
0.00549598
0.00548975
0.0059442
0.00702941
0.00865342
0.0104859
0.0120993
0.0131168
0.0133206
0.0126957
0.0113959
0.00975335
0.00816217
0.00700413
0.00632127
0.00601274
0.00596311
0.00605781
0.00618732
0.00626142
0.00622396
0.00606569
0.00579913
0.00541082
0.00483585
0.00392079
0.00267498
0.00185198
0.00200909
0.00292553
0.00447944
0.00593973
0.00245801
0.00271
0.00282058
0.00416497
0.00489665
0.00512406
0.00512922
0.00508163
0.00517896
0.00581053
0.00715853
0.0090602
0.011116
0.0128726
0.0139501
0.0141269
0.0133667
0.0118622
0.00990919
0.00804779
0.00658676
0.00560863
0.00506015
0.00482882
0.00478433
0.00482337
0.00486428
0.00484395
0.00473031
0.00450412
0.00419969
0.00382779
0.00336813
0.00277296
0.00214023
0.00189409
0.00232915
0.00331565
0.00449812
0.00515279
0.00232264
0.0009635
0.0017367
0.00266539
0.00341247
0.00428117
0.00574997
0.00791244
0.0103169
0.0125105
0.0141521
0.0150047
0.0149111
0.013876
0.0120161
0.00981216
0.00773055
0.0060818
0.00498722
0.00439887
0.0041277
0.00401011
0.00395166
0.00389642
0.0038053
0.00365716
0.00345706
0.0032303
0.00300592
0.00280703
0.0026311
0.00246053
0.00230478
0.00229592
0.00268688
0.00358578
0.00478491
0.00597345
0.00235285
0.00178742
0.0024708
0.00359654
0.00560472
0.0083236
0.0110445
0.0131465
0.0146664
0.0155924
0.0158551
0.0153275
0.0138824
0.011741
0.00931799
0.00709616
0.00544029
0.00447892
0.00402954
0.00384099
0.00376196
0.00372084
0.00367954
0.0036147
0.0035165
0.0033923
0.00326353
0.00315283
0.00307272
0.00302451
0.00299994
0.00299468
0.00302337
0.00313952
0.00346434
0.00420472
0.00569475
0.00646723
0.00254283
0.00323776
0.00787356
0.00727008
0.00650213
0.0082452
0.0109689
0.0132591
0.0148033
0.0156213
0.0158288
0.0155236
0.0146485
0.0131366
0.0110281
0.00862003
0.00644881
0.00499398
0.00426774
0.00397675
0.00388442
0.00387551
0.00389493
0.00391094
0.00390491
0.00387129
0.00381727
0.0037579
0.00370803
0.0036766
0.00366687
0.00367975
0.00372178
0.00380544
0.00395201
0.00420429
0.00464729
0.00544949
0.00725646
0.00736931
0.0026337
0.00309498
0.00598192
0.00772449
0.00988884
0.0109726
0.0120823
0.0127227
0.0128715
0.012623
0.0120423
0.0111482
0.00993573
0.00844022
0.00682967
0.00539068
0.00439667
0.00385693
0.00361772
0.00354933
0.0035775
0.00365646
0.00375181
0.00383709
0.00389642
0.00392662
0.00393514
0.0039335
0.00393076
0.00393174
0.0039414
0.00397165
0.004045
0.00419338
0.00444909
0.00484415
0.00540611
0.00616813
0.00751582
0.0077738
0.00271247
0.00289497
0.0024812
0.00246894
0.00254112
0.00260073
0.00252352
0.00237424
0.00220096
0.00202744
0.00186117
0.00170252
0.00155277
0.00141966
0.00131737
0.00125813
0.00123294
0.00122972
0.0012392
0.00125527
0.00127421
0.00129377
0.00131274
0.00133074
0.0013481
0.00136578
0.00138516
0.00140793
0.00143617
0.00147258
0.00152081
0.00158516
0.00166937
0.00177457
0.00189831
0.00203624
0.00218619
0.00234667
0.002516
0.00268289
0.00252024
)
;

boundaryField
{
    floor
    {
        type            compressible::alphatWallFunction;
        Prt             0.85;
        value           nonuniform List<scalar> 
36
(
0.000219871
0.000104478
0.000149926
0.00015111
0.000147497
0.000141439
0.000133307
0.000125151
0.000117581
0.000110704
0.000104493
9.89204e-05
9.38838e-05
8.92687e-05
8.49365e-05
8.06964e-05
7.62356e-05
7.2511e-05
6.49274e-05
6.49266e-05
8.41408e-05
9.63887e-05
0.000106467
0.000127349
0.000169037
0.00016134
0.000219868
0.000239667
0.000229058
0.000219719
0.000104477
0.000219717
0.000186313
0.000266678
0.000232739
0.000265689
)
;
    }
    ceiling
    {
        type            compressible::alphatWallFunction;
        Prt             0.85;
        value           nonuniform List<scalar> 
43
(
0.000391208
0.000338971
0.000337415
0.000346602
0.000354175
0.00034441
0.000325408
0.00030318
0.000280729
0.00025902
0.000238111
0.000218176
0.000200271
0.00018637
0.000178247
0.000174777
0.000174323
0.000175621
0.000177829
0.000180431
0.000183118
0.000185721
0.000188186
0.000190558
0.000192965
0.000195594
0.000198671
0.000202468
0.000207342
0.000213766
0.000222305
0.00023344
0.000247306
0.000263557
0.000281583
0.000301039
0.000321728
0.000343412
0.00036466
0.000343995
0.000368285
0.000382185
0.000248621
)
;
    }
    sWall
    {
        type            compressible::alphatWallFunction;
        Prt             0.85;
        value           nonuniform List<scalar> 9(0.000507603 0.00047788 0.000438206 0.000402276 0.000403555 0.00036671 0.000431953 0.0004143 0.000389457);
    }
    nWall
    {
        type            compressible::alphatWallFunction;
        Prt             0.85;
        value           nonuniform List<scalar> 
14
(
0.000160892
0.000191083
0.000224457
0.000333962
0.000337492
0.000355763
0.000357078
0.000335002
0.000317898
0.000322322
0.000346227
0.000357705
0.0003676
0.0003433
)
;
    }
    sideWalls
    {
        type            empty;
    }
    glass1
    {
        type            compressible::alphatWallFunction;
        Prt             0.85;
        value           nonuniform List<scalar> 9(0.000143927 0.000209132 0.000262687 0.000313293 0.000362363 0.000409984 0.000457994 0.000498853 0.000511217);
    }
    glass2
    {
        type            compressible::alphatWallFunction;
        Prt             0.85;
        value           nonuniform List<scalar> 2(0.000290427 0.000326618);
    }
    sun
    {
        type            compressible::alphatWallFunction;
        Prt             0.85;
        value           nonuniform List<scalar> 
14
(
0.000147961
0.000157648
0.000157095
0.000163766
0.000169853
0.000175358
0.000180465
0.000185372
0.000190295
0.000195511
0.000200468
0.000205162
0.000209774
0.000214722
)
;
    }
    Table_master
    {
        type            compressible::alphatWallFunction;
        Prt             0.85;
        value           nonuniform List<scalar> 9(0.000191024 0.000166833 0.000147893 0.000132879 0.000120791 0.000110933 0.000102816 9.61568e-05 9.09263e-05);
    }
    Table_slave
    {
        type            compressible::alphatWallFunction;
        Prt             0.85;
        value           nonuniform List<scalar> 9(0.000216378 0.000197602 0.000182924 0.000170613 0.000160041 0.00015048 0.000141402 0.000132318 0.000122421);
    }
    inlet
    {
        type            fixedValue;
        value           uniform 1.94e-05;
    }
    outlet
    {
        type            zeroGradient;
    }
}


// ************************************************************************* //
