/*--------------------------------*- C++ -*----------------------------------*\
  =========                 |
  \\      /  F ield         | OpenFOAM: The Open Source CFD Toolbox
   \\    /   O peration     | Website:  https://openfoam.org
    \\  /    A nd           | Version:  6
     \\/     M anipulation  |
\*---------------------------------------------------------------------------*/
FoamFile
{
    version     2.0;
    format      ascii;
    class       volScalarField;
    location    "30899.999997987612";
    object      nut;
}
// * * * * * * * * * * * * * * * * * * * * * * * * * * * * * * * * * * * * * //

dimensions      [0 2 -1 0 0 0 0];

internalField   nonuniform List<scalar> 
778
(
0.000894309
0.000953076
0.000949619
0.000990846
0.00102863
0.00106294
0.00109488
0.00112566
0.00115665
0.00118958
0.00122096
0.00125075
0.00128009
0.00131165
0.00134458
0.000632262
0.000905196
0.00091244
0.000890297
0.000853325
0.000803996
0.00075487
0.00070961
0.000668787
0.000632167
0.000599529
0.000570212
0.000543508
0.000518586
0.000494334
0.000468977
0.000447937
0.000405491
0.00131078
0.00258117
0.00226506
0.00261438
0.00286794
0.00313678
0.00340495
0.00365207
0.00385093
0.0039666
0.00403452
0.00400627
0.00380619
0.00331102
0.00241805
0.00147205
0.00140347
0.00134344
0.00113123
0.0019266
0.00266988
0.00310856
0.00312879
0.00246965
0.00211209
0.00186424
0.00167623
0.00152677
0.00139928
0.00128654
0.00118159
0.00107892
0.000986774
0.000907317
0.00102232
0.000514076
0.00166403
0.00360446
0.00267234
0.00382226
0.00427106
0.00465095
0.00499599
0.00529964
0.00555678
0.00575822
0.00595329
0.00615833
0.00634645
0.00645797
0.0063827
0.00584374
0.00427412
0.00164792
0.00142701
0.003053
0.00426026
0.00483077
0.00439283
0.00115907
0.00100777
0.000891081
0.000799815
0.000727213
0.000668628
0.000620845
0.000581975
0.000551664
0.000606567
0.00071361
0.00113069
0.000584848
0.00200525
0.00485851
0.00255741
0.00429816
0.00496259
0.00531833
0.00558001
0.00577363
0.00591811
0.00603506
0.00620123
0.00648173
0.00689082
0.00740516
0.00792229
0.00817704
0.00767894
0.00573181
0.00164132
0.0037992
0.00565471
0.00659762
0.00682984
0.00583025
0.00132006
0.0012006
0.00110812
0.00103123
0.000965715
0.000906902
0.000851466
0.000796409
0.000736931
0.000688537
0.000713957
0.0012249
0.000643883
0.00234198
0.00643329
0.0025804
0.00408644
0.00510796
0.00541141
0.00552186
0.0055265
0.00547194
0.0054235
0.00549306
0.00576556
0.00626539
0.00697316
0.0077943
0.0085512
0.00903152
0.0090259
0.00810053
0.00824267
0.00843289
0.00846017
0.00828818
0.00775731
0.00617305
0.00533191
0.00475578
0.00428767
0.00382863
0.00338403
0.0029491
0.00251483
0.00206883
0.00158899
0.0012123
0.00121226
0.00095893
0.000768212
0.0010234
0.000975984
0.00267362
0.00819664
0.00303812
0.00344637
0.00489461
0.00523123
0.00520473
0.00501778
0.00475029
0.00452965
0.00452477
0.00481033
0.0053798
0.00620028
0.00716079
0.00812119
0.00893861
0.00946157
0.00955736
0.00946235
0.00929549
0.00905803
0.00875212
0.00836244
0.00779373
0.00724587
0.00674851
0.0062676
0.00574839
0.00519409
0.0046022
0.00396779
0.00328688
0.00256443
0.00190985
0.00143392
0.00111352
0.00125762
0.00219855
0.00116492
0.0030122
0.00982821
0.00404911
0.00282362
0.00439844
0.00494864
0.0048878
0.00458485
0.00414529
0.00375877
0.00374794
0.00410874
0.00476063
0.00567774
0.00672114
0.00775466
0.00864476
0.00928295
0.00957721
0.00955561
0.0093468
0.00902967
0.008666
0.00830286
0.00795146
0.00762895
0.00732592
0.00700226
0.00661127
0.0061408
0.00558403
0.00493847
0.00420669
0.00340703
0.00262436
0.00189467
0.0013949
0.00125303
0.0022411
0.0013777
0.00330356
0.0110651
0.00552186
0.00268869
0.00348478
0.00438777
0.00451351
0.00426427
0.00374525
0.00321899
0.0033388
0.00381621
0.00454547
0.00549053
0.00657434
0.00765599
0.00857899
0.00922079
0.00951294
0.00947593
0.00920604
0.00880719
0.00837774
0.0079966
0.00770266
0.00749263
0.00732874
0.0071503
0.00690175
0.00655395
0.00609343
0.00551768
0.00483238
0.00405743
0.00324991
0.00243053
0.00169153
0.0011442
0.00329103
0.00182452
0.0033933
0.0104829
0.0068377
0.0034773
0.00236199
0.00289581
0.00338943
0.00343081
0.00302969
0.00294481
0.00325097
0.00381241
0.0046013
0.0056041
0.00674043
0.00785531
0.00877441
0.00936576
0.00957364
0.00943125
0.00903939
0.00852508
0.00801449
0.0076069
0.00734811
0.00722117
0.0071637
0.00709521
0.00695222
0.00670087
0.00632785
0.00583203
0.00521991
0.00450727
0.00372277
0.00283717
0.001619
0.00147333
0.00520417
0.00206872
0.00332457
0.00845707
0.00706644
0.00477602
0.00315237
0.00244023
0.00231179
0.00242133
0.00262486
0.00294909
0.00340898
0.00404103
0.00489972
0.00598202
0.00718105
0.00831165
0.00918172
0.00965977
0.00970848
0.00938575
0.00881885
0.00816662
0.0075842
0.00718487
0.00700184
0.00698082
0.00702102
0.00702058
0.00692814
0.00672471
0.00640415
0.00596641
0.00541505
0.00475387
0.00396413
0.00283947
0.0012269
0.00274456
0.00487102
0.00210201
0.00311424
0.00723075
0.00683524
0.00546824
0.00420616
0.0033849
0.00297899
0.00288736
0.00305571
0.00336553
0.00381521
0.00448272
0.00543213
0.00662033
0.00788144
0.00898772
0.00973548
0.0100103
0.00981036
0.00923491
0.00845587
0.0076762
0.00708309
0.0067849
0.00675082
0.00684995
0.00694999
0.00695178
0.00685427
0.00665747
0.00635788
0.00595164
0.00543186
0.00477473
0.00389022
0.00257214
0.00133878
0.00289922
0.00538682
0.0021255
0.00283594
0.00652153
0.006596
0.00579098
0.00492424
0.00427224
0.00388846
0.00375089
0.00378548
0.00397233
0.00438489
0.00513115
0.00623053
0.00754855
0.00883725
0.00983095
0.0103369
0.0102858
0.00973617
0.00884906
0.00786313
0.00703852
0.00656946
0.0064758
0.00656103
0.00669456
0.0067811
0.00675615
0.00664225
0.00644254
0.00615153
0.00575551
0.00521851
0.00445916
0.00332201
0.00200843
0.00157491
0.00320042
0.00549912
0.0022493
0.00258653
0.00583655
0.00630132
0.00591914
0.00536194
0.00489434
0.00458342
0.00443143
0.00438573
0.00454403
0.0050674
0.00604386
0.00737654
0.00880526
0.0100099
0.0107249
0.0108148
0.0102929
0.00930971
0.0081096
0.00702499
0.00632534
0.00601682
0.0059857
0.00608686
0.00621438
0.00628973
0.00626249
0.00614405
0.00593886
0.00563803
0.00520883
0.00455413
0.00350047
0.00218997
0.00157068
0.00198227
0.00370052
0.00562774
0.00226174
0.00259497
0.00579403
0.00643936
0.00599217
0.00554082
0.00517139
0.00490492
0.00473176
0.00472212
0.0051066
0.00603116
0.00741723
0.00898311
0.0103642
0.0112382
0.0114174
0.0108865
0.00977565
0.00836888
0.00700456
0.0060109
0.00542471
0.00515968
0.00511683
0.00519784
0.00530876
0.00537217
0.00533989
0.005204
0.00497523
0.00464203
0.00414871
0.00336367
0.00229493
0.001589
0.0017242
0.00251158
0.00384709
0.00510285
0.00211262
0.00234211
0.00243612
0.0035917
0.00421821
0.00441115
0.0044132
0.00436949
0.00444779
0.00498243
0.00613023
0.00775279
0.00951022
0.0110162
0.011945
0.0121043
0.0114603
0.0101756
0.00850348
0.00690732
0.00565359
0.00481393
0.00434294
0.00414416
0.00410573
0.00413901
0.00417393
0.00415634
0.00405872
0.00386457
0.00360332
0.0032842
0.0028898
0.00237917
0.00183636
0.00162535
0.00199919
0.00284708
0.00386408
0.00442788
0.00199653
0.000806338
0.00146228
0.00225707
0.00289849
0.00364063
0.00489279
0.00673848
0.00879572
0.0106791
0.0120955
0.0128395
0.0127727
0.0118962
0.0103088
0.00842138
0.00663614
0.00522115
0.00428145
0.00377621
0.00354324
0.0034421
0.00339172
0.00334413
0.00326577
0.00313852
0.00296672
0.0027721
0.00257954
0.00240886
0.0022579
0.00211153
0.00197791
0.00197044
0.0023064
0.00307903
0.00411029
0.00513276
0.0020223
0.00149733
0.00207557
0.00303041
0.00473628
0.00705225
0.00938023
0.0111908
0.0125101
0.013323
0.0135672
0.0131321
0.0119049
0.0100748
0.00799885
0.00609282
0.00467146
0.00384601
0.00346007
0.00329805
0.00323004
0.00319457
0.00315895
0.00310313
0.00301873
0.00291204
0.00280148
0.00270647
0.00263774
0.00259638
0.00257531
0.00257079
0.00259541
0.00269515
0.0029742
0.00361051
0.00489154
0.00555636
0.00218524
0.00275694
0.00668031
0.00613984
0.00548088
0.00696786
0.00930088
0.0112767
0.0126208
0.0133436
0.0135405
0.0132951
0.0125576
0.01127
0.00946611
0.00740158
0.00553831
0.00428926
0.00366561
0.00341569
0.00333632
0.00332856
0.0033451
0.0033587
0.00335338
0.0033244
0.00327795
0.00322697
0.00318418
0.00315728
0.00314904
0.00316021
0.00319637
0.00326824
0.00339408
0.00361069
0.00399114
0.0046803
0.00623323
0.00633114
0.00226333
0.00263858
0.00509762
0.00656974
0.00839581
0.0093284
0.0102964
0.0108658
0.0110118
0.0108129
0.010325
0.00956497
0.00852889
0.00724766
0.00586601
0.0046307
0.00377711
0.00331355
0.00310808
0.00304931
0.00307345
0.00314118
0.00322298
0.00329612
0.00334698
0.00337285
0.00338015
0.00337879
0.00337652
0.00337751
0.00338599
0.00341217
0.00347539
0.00360304
0.00382284
0.00416226
0.004645
0.00529962
0.00645752
0.00667943
0.0023312
0.002474
0.00212039
0.00211031
0.00217263
0.00222471
0.00216109
0.00203539
0.00188833
0.00174042
0.00159828
0.00146241
0.00133401
0.0012198
0.00113199
0.00108113
0.00105952
0.00105677
0.00106492
0.00107872
0.00109497
0.00111176
0.00112803
0.00114347
0.00115837
0.00117356
0.00119022
0.00120982
0.00123412
0.00126547
0.00130699
0.00136238
0.00143484
0.00152533
0.00163173
0.00175029
0.00187916
0.00201704
0.00216254
0.00230594
0.00216633
)
;

boundaryField
{
    floor
    {
        type            nutkWallFunction;
        Cmu             0.09;
        kappa           0.41;
        E               9.8;
        value           nonuniform List<scalar> 
36
(
0.000160544
7.63691e-05
0.000109501
0.000110362
0.000107726
0.000103307
9.73767e-05
9.14275e-05
8.59057e-05
8.0889e-05
7.63575e-05
7.2292e-05
6.86171e-05
6.52495e-05
6.20882e-05
5.89939e-05
5.57383e-05
5.30201e-05
4.74862e-05
4.74861e-05
6.15137e-05
7.04537e-05
7.78096e-05
9.30466e-05
0.000123467
0.000117883
0.000160544
0.00017497
0.000167226
0.000160413
7.63691e-05
0.000160413
0.000136042
0.000194651
0.000169888
0.000193917
)
;
    }
    ceiling
    {
        type            nutkWallFunction;
        Cmu             0.09;
        kappa           0.41;
        E               9.8;
        value           nonuniform List<scalar> 
43
(
0.000284353
0.000246403
0.000245314
0.000252056
0.000257678
0.000250833
0.000237226
0.000221185
0.000204912
0.000189134
0.000173909
0.000159376
0.000146314
0.00013617
0.000130241
0.000127709
0.00012738
0.000128328
0.00012994
0.000131839
0.000133799
0.000135697
0.000137495
0.000139226
0.000140984
0.000142905
0.000145156
0.000147934
0.0001515
0.000156201
0.000162448
0.000170591
0.00018073
0.000192608
0.00020578
0.000219993
0.000235104
0.000250941
0.000266461
0.000251383
0.000270468
0.000280515
0.000177606
)
;
    }
    sWall
    {
        type            nutkWallFunction;
        Cmu             0.09;
        kappa           0.41;
        E               9.8;
        value           nonuniform List<scalar> 9(0.000373881 0.000352062 0.000322957 0.000296624 0.000297515 0.000270557 0.000314333 0.000301872 0.000284454);
    }
    nWall
    {
        type            nutkWallFunction;
        Cmu             0.09;
        kappa           0.41;
        E               9.8;
        value           nonuniform List<scalar> 
14
(
0.000117891
0.000139952
0.000164321
0.000244519
0.00024711
0.000260454
0.000261427
0.000245328
0.000232853
0.000236067
0.000253506
0.000261894
0.000269144
0.000251421
)
;
    }
    sideWalls
    {
        type            empty;
    }
    glass1
    {
        type            nutkWallFunction;
        Cmu             0.09;
        kappa           0.41;
        E               9.8;
        value           nonuniform List<scalar> 9(0.000108248 0.000156882 0.000196736 0.000234348 0.000270791 0.000306142 0.00034176 0.000372081 0.000381374);
    }
    glass2
    {
        type            nutkWallFunction;
        Cmu             0.09;
        kappa           0.41;
        E               9.8;
        value           nonuniform List<scalar> 2(0.000214342 0.000240993);
    }
    sun
    {
        type            nutkWallFunction;
        Cmu             0.09;
        kappa           0.41;
        E               9.8;
        value           nonuniform List<scalar> 
14
(
0.000108207
0.000115182
0.000114773
0.00011964
0.00012408
0.000128095
0.00013182
0.000135398
0.000138989
0.000142792
0.000146406
0.000149828
0.000153188
0.000156793
)
;
    }
    Table_master
    {
        type            nutkWallFunction;
        Cmu             0.09;
        kappa           0.41;
        E               9.8;
        value           nonuniform List<scalar> 9(0.000139258 0.000121624 0.000107816 9.68711e-05 8.80596e-05 8.0873e-05 7.49556e-05 7.01014e-05 6.62888e-05);
    }
    Table_slave
    {
        type            nutkWallFunction;
        Cmu             0.09;
        kappa           0.41;
        E               9.8;
        value           nonuniform List<scalar> 9(0.000157739 0.000144051 0.000133351 0.000124376 0.00011667 0.0001097 0.000103083 9.646e-05 8.92447e-05);
    }
    inlet
    {
        type            calculated;
        value           uniform 0.000167705;
    }
    outlet
    {
        type            calculated;
        value           nonuniform List<scalar> 2(0.00275694 0.00668031);
    }
}


// ************************************************************************* //
