/*--------------------------------*- C++ -*----------------------------------*\
  =========                 |
  \\      /  F ield         | OpenFOAM: The Open Source CFD Toolbox
   \\    /   O peration     | Website:  https://openfoam.org
    \\  /    A nd           | Version:  6
     \\/     M anipulation  |
\*---------------------------------------------------------------------------*/
FoamFile
{
    version     2.0;
    format      ascii;
    class       volVectorField;
    location    "14300";
    object      U;
}
// * * * * * * * * * * * * * * * * * * * * * * * * * * * * * * * * * * * * * //

dimensions      [0 1 -1 0 0 0 0];

internalField   nonuniform List<vector> 
778
(
(0.0656012 0.0794064 0)
(-0.155175 0.0157632 0)
(-0.164297 0.0146214 0)
(-0.192408 0.0122705 0)
(-0.216837 0.00871965 0)
(-0.236888 0.0047386 0)
(-0.252007 0.000412246 0)
(-0.261769 -0.00437187 0)
(-0.265661 -0.00981238 0)
(-0.262684 -0.0161899 0)
(-0.250881 -0.0242605 0)
(-0.226188 -0.034876 0)
(-0.186077 -0.0503931 0)
(-0.14415 -0.0751568 0)
(-0.150028 -0.108539 0)
(0.0546875 0.0354864 0)
(0.0158221 -0.0268923 0)
(0.0450404 -0.0232768 0)
(0.069478 -0.0161724 0)
(0.0845673 -0.0103631 0)
(0.0917918 -0.00641771 0)
(0.0946294 -0.00433826 0)
(0.0956638 -0.003317 0)
(0.0961221 -0.00273056 0)
(0.0962988 -0.00231686 0)
(0.0961773 -0.00195144 0)
(0.0956506 -0.00150988 0)
(0.0943899 -0.000754789 0)
(0.0915366 0.000851331 0)
(0.0853196 0.00407884 0)
(0.0737541 0.00779388 0)
(0.0600513 0.0116467 0)
(-0.00786545 0.0300288 0)
(0.258402 0.167392 0)
(-0.161234 0.0483885 0)
(-0.141598 0.0459738 0)
(-0.173997 0.0416051 0)
(-0.199352 0.0356554 0)
(-0.220063 0.0291149 0)
(-0.236082 0.0220436 0)
(-0.247324 0.0142153 0)
(-0.253492 0.00528661 0)
(-0.253806 -0.00515838 0)
(-0.247652 -0.0170837 0)
(-0.23395 -0.0308476 0)
(-0.214049 -0.04807 0)
(-0.197477 -0.069949 0)
(-0.193966 -0.0826229 0)
(-0.166371 -0.0425267 0)
(-0.105342 -0.036342 0)
(-0.0983215 -0.0444434 0)
(0.109357 -0.0421743 0)
(0.0644999 -0.0412398 0)
(0.0719873 -0.0323338 0)
(0.0860141 -0.0207765 0)
(0.0939627 -0.0105176 0)
(0.0962242 -0.00364849 0)
(0.0959864 -0.000194753 0)
(0.0955911 0.00124398 0)
(0.0955507 0.00188732 0)
(0.0956308 0.00226197 0)
(0.095639 0.00258774 0)
(0.0955401 0.00313376 0)
(0.0952496 0.00441857 0)
(0.0939912 0.00773992 0)
(0.0883871 0.0167879 0)
(0.0746069 0.0253973 0)
(0.0632249 0.0330476 0)
(-0.0518733 0.0637014 0)
(0.429985 0.253952 0)
(-0.194235 0.0847536 0)
(-0.112772 0.0784208 0)
(-0.148232 0.0669383 0)
(-0.170657 0.0554776 0)
(-0.188741 0.043702 0)
(-0.202568 0.0313194 0)
(-0.212251 0.0179868 0)
(-0.217594 0.00338546 0)
(-0.217946 -0.0126371 0)
(-0.212688 -0.0303222 0)
(-0.201582 -0.0499026 0)
(-0.18594 -0.0715619 0)
(-0.169397 -0.0932046 0)
(-0.151019 -0.10455 0)
(-0.12018 -0.0931182 0)
(-0.0794923 -0.0949013 0)
(-0.0713949 -0.107545 0)
(0.0921792 -0.0882464 0)
(0.062617 -0.0658483 0)
(0.0744403 -0.0462275 0)
(0.0881105 -0.0293553 0)
(0.0950077 -0.0150254 0)
(0.0921518 -0.0120507 0)
(0.0879108 -0.00794718 0)
(0.0855367 -0.0057765 0)
(0.0848408 -0.00455979 0)
(0.0848112 -0.0038011 0)
(0.0850617 -0.00322919 0)
(0.0857134 -0.00260016 0)
(0.0874784 -0.00143784 0)
(0.0921723 0.0029267 0)
(0.0903391 0.025137 0)
(0.0735235 0.0424405 0)
(0.070233 0.0576172 0)
(-0.0898548 0.10115 0)
(0.578554 0.325836 0)
(-0.240107 0.121802 0)
(-0.0808263 0.109206 0)
(-0.121562 0.0898302 0)
(-0.138989 0.0740397 0)
(-0.153043 0.0586023 0)
(-0.163794 0.0427191 0)
(-0.17138 0.0257792 0)
(-0.175582 0.0071757 0)
(-0.175641 -0.0135432 0)
(-0.170948 -0.0364721 0)
(-0.161377 -0.0614516 0)
(-0.147501 -0.0873675 0)
(-0.130508 -0.110297 0)
(-0.109532 -0.123191 0)
(-0.082039 -0.124517 0)
(-0.0524142 -0.126329 0)
(-0.0332723 -0.123152 0)
(0.0165173 -0.0568093 0)
(0.0609364 -0.0930711 0)
(0.068563 -0.0792665 0)
(0.0791651 -0.0589218 0)
(0.0916505 -0.0396967 0)
(0.102976 -0.021047 0)
(0.11573 -0.0132699 0)
(0.126949 -0.0088478 0)
(0.132607 -0.00562467 0)
(0.133637 -0.00311546 0)
(0.131152 -0.000891816 0)
(0.125724 0.00127832 0)
(0.117222 0.00366267 0)
(0.104874 0.00672409 0)
(0.0856201 0.0111642 0)
(0.0717242 0.0368672 0)
(0.0604215 0.0606569 0)
(0.0764977 0.0835565 0)
(-0.117471 0.137585 0)
(0.705735 0.383674 0)
(-0.287685 0.156995 0)
(-0.0476881 0.13376 0)
(-0.0962794 0.106891 0)
(-0.107725 0.0875624 0)
(-0.116752 0.0691368 0)
(-0.123536 0.0504102 0)
(-0.128189 0.0305535 0)
(-0.130541 0.00869666 0)
(-0.129727 -0.0158371 0)
(-0.125221 -0.0430844 0)
(-0.116588 -0.0726858 0)
(-0.10385 -0.102829 0)
(-0.0873491 -0.129095 0)
(-0.0673712 -0.145784 0)
(-0.0440027 -0.152246 0)
(-0.0201275 -0.152329 0)
(0.000427019 -0.143672 0)
(0.0309412 -0.114993 0)
(0.0570928 -0.10938 0)
(0.0706498 -0.0924912 0)
(0.0807628 -0.071341 0)
(0.0908093 -0.0509041 0)
(0.100362 -0.0328708 0)
(0.109492 -0.0194713 0)
(0.116563 -0.0100835 0)
(0.120041 -0.00338538 0)
(0.120293 0.00187227 0)
(0.117927 0.00642489 0)
(0.113312 0.010788 0)
(0.106473 0.0154731 0)
(0.0973397 0.0211815 0)
(0.0854159 0.0292124 0)
(0.0738585 0.0472545 0)
(0.0633693 0.0713579 0)
(0.0950644 0.0995644 0)
(0.0172462 0.138755 0)
(0.0968787 0.182796 0)
(0.140471 0.145198 0)
(-0.21957 0.201449 0)
(0.810441 0.431966 0)
(-0.331325 0.190662 0)
(-0.0173083 0.150222 0)
(-0.0733544 0.117491 0)
(-0.0785747 0.0954769 0)
(-0.0821914 0.0749067 0)
(-0.0844418 0.054303 0)
(-0.0854756 0.0326823 0)
(-0.0852161 0.00882922 0)
(-0.0825359 -0.0184305 0)
(-0.0773622 -0.0490341 0)
(-0.0687199 -0.0825078 0)
(-0.0566959 -0.11652 0)
(-0.0415941 -0.146338 0)
(-0.0245661 -0.166021 0)
(-0.00613826 -0.174497 0)
(0.0122607 -0.172713 0)
(0.0281829 -0.160958 0)
(0.0463321 -0.139288 0)
(0.0627543 -0.122336 0)
(0.0733916 -0.102522 0)
(0.0810377 -0.0805041 0)
(0.0877754 -0.0591902 0)
(0.093953 -0.040335 0)
(0.0993048 -0.0251669 0)
(0.103037 -0.0138154 0)
(0.104696 -0.0051266 0)
(0.104328 0.00206548 0)
(0.102229 0.00853994 0)
(0.0986421 0.0148173 0)
(0.0937213 0.0214249 0)
(0.0876928 0.0289944 0)
(0.0808199 0.0384354 0)
(0.0750549 0.0528892 0)
(0.0698094 0.0729122 0)
(0.0920043 0.0986555 0)
(0.0740864 0.107461 0)
(0.091118 0.0477762 0)
(0.146601 -0.0357152 0)
(-0.323359 0.107477 0)
(0.879903 0.474678 0)
(-0.368646 0.220942 0)
(0.00372189 0.155524 0)
(-0.0526481 0.121536 0)
(-0.0521887 0.0978137 0)
(-0.0510029 0.0757808 0)
(-0.0489946 0.0540033 0)
(-0.0464761 0.0314986 0)
(-0.0432868 0.0067433 0)
(-0.037325 -0.0223179 0)
(-0.0302443 -0.055379 0)
(-0.0204413 -0.0919584 0)
(-0.00859892 -0.128933 0)
(0.00466288 -0.161308 0)
(0.0177629 -0.18193 0)
(0.0305879 -0.19023 0)
(0.0424172 -0.187198 0)
(0.0527258 -0.174356 0)
(0.0626755 -0.153994 0)
(0.071215 -0.132353 0)
(0.0766968 -0.109368 0)
(0.0801166 -0.0859071 0)
(0.0826866 -0.0637717 0)
(0.0849146 -0.044309 0)
(0.0867621 -0.0282383 0)
(0.0878944 -0.0154666 0)
(0.0880814 -0.00521517 0)
(0.0871708 0.00343566 0)
(0.0853354 0.0111718 0)
(0.0827166 0.0185188 0)
(0.079481 0.025977 0)
(0.0758993 0.0340455 0)
(0.0723701 0.0432714 0)
(0.0702749 0.0549294 0)
(0.0690189 0.069387 0)
(0.0821056 0.0883527 0)
(0.0854587 0.0914962 0)
(0.0913524 0.0539832 0)
(0.18181 0.0270584 0)
(-0.278728 0.156903 0)
(0.927937 0.517138 0)
(-0.383159 0.234133 0)
(0.0168937 0.132917 0)
(-0.0273082 0.116606 0)
(-0.0265277 0.0948751 0)
(-0.0227128 0.072381 0)
(-0.0175942 0.0500576 0)
(-0.0123158 0.0272095 0)
(-0.00534415 0.00182165 0)
(0.00462794 -0.0307618 0)
(0.0143595 -0.0653507 0)
(0.0256802 -0.103374 0)
(0.0373553 -0.140924 0)
(0.0480674 -0.172219 0)
(0.0571924 -0.192397 0)
(0.0647108 -0.199841 0)
(0.0704449 -0.195364 0)
(0.0743938 -0.181118 0)
(0.0770677 -0.160005 0)
(0.0783864 -0.136009 0)
(0.0779765 -0.111023 0)
(0.0764235 -0.0865447 0)
(0.0745675 -0.0640368 0)
(0.0729414 -0.0444923 0)
(0.0716882 -0.0282835 0)
(0.0706739 -0.0151258 0)
(0.069697 -0.00431862 0)
(0.0684656 0.0049167 0)
(0.0670703 0.0131664 0)
(0.0654755 0.0209201 0)
(0.0637475 0.0286057 0)
(0.0620559 0.0365733 0)
(0.0606865 0.0450981 0)
(0.0605015 0.0546122 0)
(0.0613819 0.0650071 0)
(0.0701542 0.0777591 0)
(0.080456 0.0803446 0)
(0.0821354 0.0600795 0)
(0.239242 0.0565304 0)
(-0.542301 0.235049 0)
(1.0113 0.506785 0)
(-0.137102 0.296317 0)
(0.0410993 0.16147 0)
(0.0406516 0.122014 0)
(0.0131327 0.0919006 0)
(0.0087121 0.0652919 0)
(0.0141453 0.04132 0)
(0.0207805 0.0169149 0)
(0.0325959 -0.0110746 0)
(0.0440706 -0.0421897 0)
(0.0559604 -0.076953 0)
(0.0682612 -0.114703 0)
(0.0794268 -0.151195 0)
(0.0879531 -0.180671 0)
(0.0931918 -0.198674 0)
(0.0952525 -0.20379 0)
(0.0945406 -0.197078 0)
(0.0916012 -0.180975 0)
(0.0871105 -0.158543 0)
(0.0815212 -0.133105 0)
(0.075132 -0.107098 0)
(0.0685511 -0.0823414 0)
(0.0625106 -0.0601813 0)
(0.0575415 -0.0413361 0)
(0.0538444 -0.0258837 0)
(0.0513201 -0.0133215 0)
(0.0496939 -0.00286835 0)
(0.0485644 0.0061759 0)
(0.0478741 0.0143211 0)
(0.047384 0.0220146 0)
(0.0470205 0.0295996 0)
(0.0468001 0.0373023 0)
(0.0468092 0.0452224 0)
(0.0474289 0.0533891 0)
(0.048592 0.0613148 0)
(0.0539622 0.0688886 0)
(0.0644152 0.0653198 0)
(0.0618803 0.0344006 0)
(0.286722 0.0701063 0)
(-0.74856 0.308825 0)
(0.779317 0.395611 0)
(0.000987096 0.319437 0)
(0.0934461 0.218865 0)
(0.110683 0.155095 0)
(0.0772531 0.106728 0)
(0.0598692 0.0674389 0)
(0.0582923 0.0356524 0)
(0.0624721 0.00631016 0)
(0.073917 -0.0235237 0)
(0.0855072 -0.055119 0)
(0.0977258 -0.0898319 0)
(0.109616 -0.126363 0)
(0.119013 -0.160172 0)
(0.124134 -0.185891 0)
(0.124373 -0.199933 0)
(0.120159 -0.201467 0)
(0.112439 -0.19187 0)
(0.102283 -0.173709 0)
(0.0907326 -0.15003 0)
(0.0786272 -0.123876 0)
(0.0666606 -0.0977938 0)
(0.0555738 -0.0736983 0)
(0.0461066 -0.0528348 0)
(0.0387509 -0.0356423 0)
(0.0336299 -0.0218965 0)
(0.0305111 -0.0108048 0)
(0.0289272 -0.00144369 0)
(0.0283998 0.00682982 0)
(0.0286195 0.0144738 0)
(0.0292352 0.0218666 0)
(0.0300785 0.0292584 0)
(0.0310262 0.036804 0)
(0.031922 0.0445661 0)
(0.0325539 0.0525378 0)
(0.0318835 0.0603885 0)
(0.0298369 0.0678441 0)
(0.0139321 0.0693843 0)
(0.00193064 0.102402 0)
(0.0141447 0.178716 0)
(-0.636384 0.300404 0)
(0.617235 0.220606 0)
(0.00477861 0.298015 0)
(0.113073 0.241486 0)
(0.148357 0.177469 0)
(0.130935 0.123392 0)
(0.117918 0.0776987 0)
(0.115065 0.0387492 0)
(0.117249 0.00325619 0)
(0.123634 -0.0308465 0)
(0.131883 -0.0651167 0)
(0.141595 -0.100606 0)
(0.1505 -0.135499 0)
(0.155653 -0.165397 0)
(0.155118 -0.185933 0)
(0.148578 -0.194788 0)
(0.136933 -0.191988 0)
(0.12165 -0.17929 0)
(0.104228 -0.159282 0)
(0.0860355 -0.134891 0)
(0.0681739 -0.108914 0)
(0.051591 -0.0838472 0)
(0.0371719 -0.0615625 0)
(0.0256891 -0.0431558 0)
(0.01747 -0.0286857 0)
(0.0123442 -0.0175362 0)
(0.00967461 -0.0085274 0)
(0.00873819 -0.000659316 0)
(0.00907118 0.00659874 0)
(0.0101639 0.0136025 0)
(0.0117351 0.0206171 0)
(0.0136092 0.0278074 0)
(0.0156097 0.0353252 0)
(0.0174652 0.0433546 0)
(0.0187143 0.0522131 0)
(0.0181166 0.0624172 0)
(0.0147758 0.0756408 0)
(-0.0110671 0.0996383 0)
(-0.0107539 0.154806 0)
(0.0164662 0.185267 0)
(-0.541826 0.164616 0)
(0.570784 0.118204 0)
(-0.0202854 0.258512 0)
(0.113702 0.229828 0)
(0.165056 0.175968 0)
(0.166739 0.126053 0)
(0.164422 0.0809436 0)
(0.165434 0.0398061 0)
(0.168397 0.00146136 0)
(0.172372 -0.0355426 0)
(0.177966 -0.0720403 0)
(0.184158 -0.107702 0)
(0.187875 -0.139769 0)
(0.186092 -0.164345 0)
(0.177427 -0.178588 0)
(0.162326 -0.181691 0)
(0.142329 -0.17455 0)
(0.119366 -0.159204 0)
(0.0951833 -0.138107 0)
(0.071369 -0.113997 0)
(0.0491336 -0.0893735 0)
(0.0296484 -0.0666594 0)
(0.013933 -0.0476061 0)
(0.00266297 -0.0329962 0)
(-0.00444984 -0.0221189 0)
(-0.00812574 -0.0140728 0)
(-0.00970155 -0.00720749 0)
(-0.00984467 -0.0007902 0)
(-0.00884201 0.00549126 0)
(-0.00716079 0.0118371 0)
(-0.00492095 0.0183972 0)
(-0.00225928 0.0252854 0)
(0.000731722 0.0327526 0)
(0.00384385 0.0410577 0)
(0.00678477 0.0508569 0)
(0.00885861 0.0635772 0)
(0.0106298 0.0825679 0)
(-0.00298802 0.117023 0)
(-0.0107754 0.185211 0)
(0.133244 0.202626 0)
(-0.476674 0.078781 0)
(0.628484 0.0534744 0)
(0.00904628 0.197237 0)
(0.1137 0.196897 0)
(0.17503 0.157828 0)
(0.191314 0.117535 0)
(0.19801 0.0770854 0)
(0.203382 0.037067 0)
(0.208623 -0.00171718 0)
(0.213154 -0.0398431 0)
(0.217484 -0.0766832 0)
(0.219325 -0.110097 0)
(0.215517 -0.136923 0)
(0.204171 -0.154534 0)
(0.185378 -0.161915 0)
(0.160752 -0.159613 0)
(0.132452 -0.149034 0)
(0.102704 -0.13225 0)
(0.073203 -0.11137 0)
(0.0457082 -0.088943 0)
(0.0213569 -0.0671434 0)
(0.00174948 -0.0483881 0)
(-0.0121353 -0.0343121 0)
(-0.020297 -0.0249464 0)
(-0.024859 -0.0180137 0)
(-0.0270375 -0.0122633 0)
(-0.0277015 -0.00689628 0)
(-0.0272595 -0.00155884 0)
(-0.025834 0.0039146 0)
(-0.0237902 0.00962506 0)
(-0.0211342 0.0156622 0)
(-0.0179713 0.0221098 0)
(-0.0143445 0.029155 0)
(-0.010254 0.0371495 0)
(-0.00569516 0.0468402 0)
(-0.0010026 0.0602966 0)
(0.00455837 0.0827538 0)
(0.00421649 0.118191 0)
(-0.00458666 0.177429 0)
(0.177804 0.199789 0)
(-0.357465 0.128747 0)
(0.472319 0.0748136 0)
(-0.132282 0.137512 0)
(0.0941182 0.133186 0)
(0.172584 0.116642 0)
(0.203716 0.0951388 0)
(0.218039 0.06415 0)
(0.228065 0.0281266 0)
(0.237169 -0.00920864 0)
(0.243563 -0.0455159 0)
(0.245076 -0.0784317 0)
(0.239107 -0.105306 0)
(0.22431 -0.124064 0)
(0.201213 -0.133827 0)
(0.171736 -0.135021 0)
(0.138452 -0.128881 0)
(0.103642 -0.116678 0)
(0.069573 -0.100262 0)
(0.0374201 -0.0812664 0)
(0.00951201 -0.0622223 0)
(-0.0135789 -0.0449928 0)
(-0.0281657 -0.0334917 0)
(-0.0371803 -0.025733 0)
(-0.0422928 -0.0201898 0)
(-0.0450468 -0.0156104 0)
(-0.0462087 -0.0113994 0)
(-0.0462078 -0.00717886 0)
(-0.0452678 -0.00275316 0)
(-0.0434291 0.00200057 0)
(-0.0410935 0.00710554 0)
(-0.0381942 0.012614 0)
(-0.0348571 0.0186039 0)
(-0.0311874 0.0251951 0)
(-0.0272238 0.0326571 0)
(-0.0230247 0.0418623 0)
(-0.0193713 0.055884 0)
(-0.0164865 0.0789922 0)
(-0.0124074 0.106215 0)
(-0.00994584 0.138436 0)
(0.190319 0.17476 0)
(-0.349474 0.193398 0)
(0.723953 0.134516 0)
(0.081951 0.115256 0)
(0.149723 0.0991387 0)
(0.222318 0.0803227 0)
(0.243978 0.0696838 0)
(0.248797 0.0473734 0)
(0.255122 0.0172557 0)
(0.261219 -0.0149494 0)
(0.260217 -0.0449056 0)
(0.249695 -0.0697203 0)
(0.229439 -0.0876922 0)
(0.201049 -0.098328 0)
(0.166917 -0.101907 0)
(0.129599 -0.0993987 0)
(0.0915747 -0.0920358 0)
(0.054279 -0.0804867 0)
(0.0203076 -0.0663692 0)
(-0.0107607 -0.0508115 0)
(-0.0331327 -0.0385018 0)
(-0.04819 -0.0298962 0)
(-0.0573834 -0.0244095 0)
(-0.0629666 -0.0204769 0)
(-0.0662552 -0.0172729 0)
(-0.0680099 -0.0142777 0)
(-0.068559 -0.0112554 0)
(-0.0680691 -0.00802692 0)
(-0.066649 -0.00443087 0)
(-0.0643661 -0.000315655 0)
(-0.061533 0.00433219 0)
(-0.0584372 0.00950028 0)
(-0.0551622 0.0153049 0)
(-0.0520901 0.0219113 0)
(-0.0496753 0.0297442 0)
(-0.0482744 0.04011 0)
(-0.0487067 0.0559318 0)
(-0.0528443 0.078185 0)
(-0.0561715 0.0979623 0)
(-0.0374597 0.111364 0)
(0.0869966 0.161484 0)
(-0.460267 0.238898 0)
(0.19213 0.0879444 0)
(0.225922 0.0996523 0)
(0.246652 0.069903 0)
(0.242698 0.0395153 0)
(0.239819 0.0118904 0)
(0.234726 -0.0130022 0)
(0.219927 -0.0334048 0)
(0.196152 -0.0485568 0)
(0.165779 -0.0584375 0)
(0.131287 -0.0634754 0)
(0.0944928 -0.0639562 0)
(0.0573647 -0.0605843 0)
(0.021823 -0.0541793 0)
(-0.0127556 -0.0448393 0)
(-0.0397849 -0.0357698 0)
(-0.0601674 -0.0283383 0)
(-0.073971 -0.0235103 0)
(-0.0829783 -0.0204416 0)
(-0.088862 -0.0183836 0)
(-0.0928499 -0.016608 0)
(-0.0954984 -0.0148803 0)
(-0.0970384 -0.0130922 0)
(-0.0975429 -0.0111535 0)
(-0.0970262 -0.00893586 0)
(-0.0954888 -0.00626301 0)
(-0.0929369 -0.00291523 0)
(-0.0893444 0.00129359 0)
(-0.0855286 0.00635225 0)
(-0.0816939 0.0123674 0)
(-0.0783143 0.0197106 0)
(-0.0760514 0.0290437 0)
(-0.0750363 0.0417252 0)
(-0.075678 0.0599829 0)
(-0.0823375 0.0847765 0)
(-0.0941871 0.110334 0)
(-0.0870295 0.127275 0)
(-0.0973809 0.147654 0)
(-0.557133 0.170829 0)
(0.45161 0.209206 0)
(0.207302 0.17854 0)
(0.15346 0.118693 0)
(0.140054 0.0639642 0)
(0.128433 0.0258775 0)
(0.11414 0.00185897 0)
(0.0986762 -0.0128571 0)
(0.0775605 -0.0220573 0)
(0.0528535 -0.0278413 0)
(0.0257346 -0.0305674 0)
(-0.00396235 -0.0301373 0)
(-0.0327605 -0.0274621 0)
(-0.058231 -0.0237555 0)
(-0.0794539 -0.0200522 0)
(-0.0952008 -0.0175103 0)
(-0.106321 -0.0158325 0)
(-0.114082 -0.0147974 0)
(-0.11989 -0.0138355 0)
(-0.124518 -0.0128166 0)
(-0.128259 -0.011765 0)
(-0.131163 -0.0107587 0)
(-0.133204 -0.00983141 0)
(-0.134316 -0.00896478 0)
(-0.134392 -0.0080753 0)
(-0.133281 -0.0069782 0)
(-0.130817 -0.005339 0)
(-0.126866 -0.0026772 0)
(-0.121301 0.00149002 0)
(-0.115189 0.00735661 0)
(-0.109406 0.0151411 0)
(-0.104104 0.0255351 0)
(-0.0988336 0.0396406 0)
(-0.0920465 0.0590637 0)
(-0.0848828 0.0855101 0)
(-0.0801551 0.119544 0)
(-0.051347 0.153852 0)
(0.0379515 0.146612 0)
(-0.5581 0.0151585 0)
(0.363623 -0.412776 0)
(-0.345473 -0.512598 0)
(-0.218679 -0.0287427 0)
(-0.0922946 0.110733 0)
(-0.0532343 0.0926821 0)
(-0.0310602 0.0548227 0)
(-0.0263815 0.028769 0)
(-0.0315354 0.0120733 0)
(-0.0405287 0.00120384 0)
(-0.0510551 -0.00604271 0)
(-0.0646415 -0.0105979 0)
(-0.0799156 -0.0132023 0)
(-0.095614 -0.0150024 0)
(-0.110526 -0.0170542 0)
(-0.123487 -0.0195483 0)
(-0.133569 -0.0222371 0)
(-0.140855 -0.0247635 0)
(-0.146443 -0.0266062 0)
(-0.151362 -0.0278142 0)
(-0.156113 -0.0285223 0)
(-0.160721 -0.0288347 0)
(-0.165021 -0.0287884 0)
(-0.168816 -0.028392 0)
(-0.17193 -0.0276369 0)
(-0.174177 -0.0265015 0)
(-0.175323 -0.0249443 0)
(-0.175073 -0.0228791 0)
(-0.173125 -0.020125 0)
(-0.169258 -0.0163362 0)
(-0.163421 -0.0109737 0)
(-0.155595 -0.00342861 0)
(-0.146369 0.00659034 0)
(-0.137097 0.0188765 0)
(-0.126487 0.0332352 0)
(-0.11182 0.0502944 0)
(-0.0903203 0.0705303 0)
(-0.0619324 0.0953395 0)
(-0.0201408 0.129163 0)
(0.154208 0.136724 0)
(-0.408718 0.0589303 0)
(0.125373 -0.184195 0)
(-0.387025 -0.297085 0)
(-0.342713 -0.0968357 0)
(-0.264437 0.0512513 0)
(-0.210783 0.0835581 0)
(-0.178672 0.0747291 0)
(-0.162398 0.06128 0)
(-0.1564 0.0512882 0)
(-0.156463 0.0460273 0)
(-0.15972 0.0452609 0)
(-0.164182 0.0481009 0)
(-0.16833 0.0533369 0)
(-0.171576 0.0596647 0)
(-0.173786 0.0650368 0)
(-0.175518 0.0676901 0)
(-0.177401 0.068384 0)
(-0.17992 0.0683319 0)
(-0.18305 0.0684745 0)
(-0.186518 0.0688141 0)
(-0.190076 0.0689462 0)
(-0.193541 0.068498 0)
(-0.196788 0.0672561 0)
(-0.199723 0.0651141 0)
(-0.202267 0.0619907 0)
(-0.204337 0.0577763 0)
(-0.205838 0.0523719 0)
(-0.206656 0.045841 0)
(-0.206667 0.0385932 0)
(-0.205731 0.0314401 0)
(-0.203645 0.0254248 0)
(-0.200039 0.021522 0)
(-0.194052 0.0202857 0)
(-0.184233 0.021482 0)
(-0.171635 0.0238795 0)
(-0.154286 0.0273049 0)
(-0.128342 0.0300345 0)
(-0.0889486 0.0291142 0)
(-0.0306393 0.0308604 0)
(0.174047 0.0709081 0)
(-0.388506 0.117505 0)
(1.14621 -0.0110882 0)
(-0.294043 -0.322296 0)
(-0.352454 -0.233481 0)
(-0.351787 -0.14913 0)
(-0.328113 -0.107695 0)
(-0.296359 -0.0989958 0)
(-0.268847 -0.101077 0)
(-0.248698 -0.106695 0)
(-0.235024 -0.114356 0)
(-0.225919 -0.124172 0)
(-0.219747 -0.136553 0)
(-0.215449 -0.151387 0)
(-0.212453 -0.167104 0)
(-0.210635 -0.180721 0)
(-0.210246 -0.189493 0)
(-0.21149 -0.193791 0)
(-0.213985 -0.194848 0)
(-0.217119 -0.194241 0)
(-0.220383 -0.192938 0)
(-0.223565 -0.191286 0)
(-0.226714 -0.189286 0)
(-0.230022 -0.186776 0)
(-0.233726 -0.183532 0)
(-0.238072 -0.179313 0)
(-0.243318 -0.173889 0)
(-0.249761 -0.167056 0)
(-0.257704 -0.158615 0)
(-0.267297 -0.148372 0)
(-0.278284 -0.136175 0)
(-0.28976 -0.121992 0)
(-0.300107 -0.105966 0)
(-0.307227 -0.088412 0)
(-0.308812 -0.0698599 0)
(-0.302642 -0.0512691 0)
(-0.290264 -0.0348932 0)
(-0.272413 -0.0209321 0)
(-0.243576 -0.00713656 0)
(-0.194485 0.0166989 0)
(-0.173031 0.0649932 0)
(-0.569799 0.124154 0)
)
;

boundaryField
{
    floor
    {
        type            noSlip;
    }
    ceiling
    {
        type            noSlip;
    }
    sWall
    {
        type            noSlip;
    }
    nWall
    {
        type            noSlip;
    }
    sideWalls
    {
        type            empty;
    }
    glass1
    {
        type            noSlip;
    }
    glass2
    {
        type            noSlip;
    }
    sun
    {
        type            noSlip;
    }
    Table_master
    {
        type            noSlip;
    }
    Table_slave
    {
        type            noSlip;
    }
    inlet
    {
        type            fixedValue;
        value           uniform (0.5 0 0);
    }
    outlet
    {
        type            zeroGradient;
    }
}


// ************************************************************************* //
