/*--------------------------------*- C++ -*----------------------------------*\
  =========                 |
  \\      /  F ield         | OpenFOAM: The Open Source CFD Toolbox
   \\    /   O peration     | Website:  https://openfoam.org
    \\  /    A nd           | Version:  6
     \\/     M anipulation  |
\*---------------------------------------------------------------------------*/
FoamFile
{
    version     2.0;
    format      ascii;
    class       volScalarField;
    location    "40099.9999991823206";
    object      epsilon;
}
// * * * * * * * * * * * * * * * * * * * * * * * * * * * * * * * * * * * * * //

dimensions      [0 2 -3 0 0 0 0];

internalField   nonuniform List<scalar> 
778
(
0.000253125
0.000306377
0.000303053
0.00034426
0.000385158
0.000424994
0.00046446
0.000504743
0.000547574
0.000595672
0.00064406
0.000692367
0.000742248
0.00079851
0.00086019
8.94323e-05
0.000262519
0.000268864
0.000249757
0.000219911
0.000183928
0.000152227
0.000126455
0.000105864
8.94109e-05
7.62656e-05
6.56157e-05
5.68216e-05
4.93576e-05
4.27514e-05
3.65041e-05
3.18076e-05
2.35951e-05
0.000797001
0.00144328
0.000287036
0.00025965
0.000261755
0.000267728
0.000276624
0.000290052
0.000310301
0.000340492
0.000379673
0.00043074
0.000499061
0.000600195
0.000785263
0.0011288
0.000978265
0.00085805
0.000512396
0.000369629
0.000294225
0.000242801
0.000203918
0.000186708
0.00015454
0.000124894
0.000100625
8.14403e-05
6.64917e-05
5.47966e-05
4.56113e-05
3.86912e-05
3.45032e-05
3.27443e-05
6.58105e-05
4.80848e-05
0.00163063
0.0040794
0.000407456
0.000242981
0.000229158
0.000231069
0.000238282
0.000250547
0.000268443
0.000292695
0.000324793
0.000366818
0.000421154
0.00049482
0.000601188
0.000724433
0.000829471
0.00158381
0.00102836
0.000512605
0.00036786
0.000294334
0.00026205
0.000551199
0.000362296
0.000250443
0.000181092
0.000136111
0.000105791
8.46915e-05
6.97595e-05
5.94178e-05
4.51048e-05
3.7959e-05
0.000108335
7.08121e-05
0.00285353
0.00877133
0.000710009
0.000240775
0.000202525
0.000200055
0.00020322
0.000209838
0.000220644
0.000237545
0.000263212
0.000299922
0.000349092
0.000412191
0.000487873
0.000560097
0.000612245
0.00082413
0.00156465
0.000729243
0.000459935
0.000358362
0.000301931
0.000291793
0.0008141
0.000612512
0.000481617
0.000388145
0.000318765
0.000263998
0.000218484
0.000178785
0.000141649
8.36865e-05
5.48126e-05
0.000149064
9.45136e-05
0.00454602
0.0158294
0.00134665
0.000258395
0.000175772
0.000166823
0.000165822
0.000167788
0.000173941
0.000187436
0.000211663
0.00024831
0.000297673
0.000359158
0.000427587
0.000488974
0.000528353
0.000582284
0.000627229
0.00048311
0.000393473
0.00033104
0.000282303
0.000248617
0.000247811
0.000226731
0.000202867
0.00018097
0.000162585
0.000146429
0.000131773
0.000118201
0.000105064
8.44547e-05
6.41078e-05
0.000105345
0.000138898
0.000160507
0.000378805
0.000329494
0.00676369
0.0248817
0.00255414
0.000318138
0.00015557
0.00013709
0.000132143
0.000130701
0.000134464
0.000148554
0.000176697
0.000218037
0.0002707
0.000333933
0.000401467
0.000462349
0.000502702
0.000521433
0.000504574
0.000438137
0.000373781
0.000315643
0.000264739
0.000223376
0.000193275
0.000169615
0.000150798
0.000135608
0.00012327
0.000112717
0.00010326
9.45081e-05
8.6087e-05
7.59146e-05
6.5275e-05
7.75762e-05
9.97691e-05
0.000214367
0.00109618
0.000560722
0.0096724
0.033641
0.00458515
0.000465103
0.00015087
0.00011636
0.000107099
0.000103287
0.000107079
0.000127926
0.000166136
0.000215875
0.000273236
0.000339913
0.000409085
0.000470163
0.000509885
0.000520197
0.000494122
0.000437519
0.000371802
0.000307472
0.00025054
0.000204422
0.000169731
0.000144548
0.000126326
0.000112742
0.000102282
9.37017e-05
8.61994e-05
7.93226e-05
7.27961e-05
6.61498e-05
6.02683e-05
6.36358e-05
7.68513e-05
0.000179348
0.00165932
0.000926434
0.0127595
0.04041
0.00749235
0.000871569
0.000194307
0.000115385
9.73852e-05
9.14508e-05
9.86312e-05
0.000137698
0.000189281
0.000246255
0.000307024
0.000373771
0.000444698
0.000507947
0.000547243
0.000550773
0.00051556
0.000451475
0.000375491
0.000300966
0.000236483
0.000185958
0.00014931
0.000123988
0.00010673
9.45983e-05
8.57618e-05
7.88164e-05
7.28906e-05
6.7513e-05
6.24579e-05
5.76557e-05
5.38682e-05
5.54809e-05
7.09088e-05
0.000378093
0.00574125
0.00214206
0.0138275
0.0414585
0.0139364
0.00316518
0.000630292
0.000208037
0.000132658
0.000115959
0.000142383
0.000192828
0.000249211
0.000306394
0.000367404
0.000436794
0.000511306
0.000575931
0.000610979
0.000603094
0.000552037
0.000470885
0.000378482
0.000290951
0.000218301
0.000164059
0.000126815
0.000102654
8.73406e-05
7.74047e-05
7.0721e-05
6.57108e-05
6.14874e-05
5.76212e-05
5.39524e-05
5.05458e-05
4.81296e-05
5.14e-05
0.000100846
0.00119255
0.0152808
0.00315832
0.0130039
0.0283678
0.0144169
0.00572764
0.00210453
0.000834553
0.000413581
0.000276745
0.00027882
0.000314373
0.000355915
0.000401689
0.00045882
0.000531441
0.000610718
0.000674616
0.000698986
0.000670579
0.000593627
0.000486566
0.000372663
0.000270811
0.000191299
0.000135899
0.000100797
7.9984e-05
6.80666e-05
6.12871e-05
5.72007e-05
5.42434e-05
5.16707e-05
4.91817e-05
4.67215e-05
4.44857e-05
4.355e-05
5.25222e-05
0.000216134
0.00382261
0.011386
0.00329116
0.0106883
0.0193551
0.0120387
0.00630042
0.00317434
0.00167443
0.0009864
0.000678646
0.000559628
0.000516967
0.000510171
0.000531531
0.000584336
0.000664015
0.000748992
0.000806261
0.000807762
0.000743919
0.000627641
0.00048581
0.000347614
0.00023381
0.000152804
0.000102043
7.37514e-05
5.89533e-05
5.14952e-05
4.80615e-05
4.62634e-05
4.49418e-05
4.36312e-05
4.21932e-05
4.0719e-05
3.9699e-05
4.10978e-05
5.76642e-05
0.000254099
0.00308394
0.0101103
0.00336917
0.00807098
0.0137689
0.00969172
0.00593297
0.00356922
0.00222699
0.00149031
0.00109246
0.000868774
0.000743135
0.000685742
0.000690631
0.000752105
0.000847269
0.000934905
0.000970166
0.000926388
0.000804989
0.000634151
0.000451804
0.000293198
0.000177773
0.00010734
6.96634e-05
5.26182e-05
4.44769e-05
4.06655e-05
3.92706e-05
3.8685e-05
3.82334e-05
3.7653e-05
3.69323e-05
3.64344e-05
3.74217e-05
4.4105e-05
7.67952e-05
0.00030538
0.00236569
0.0081184
0.00397639
0.00612339
0.0101688
0.00779167
0.00531258
0.0035701
0.00246904
0.00178785
0.00136805
0.00109273
0.000925903
0.000859576
0.000888245
0.000986043
0.00110181
0.00117336
0.00115191
0.00102644
0.000820439
0.000585286
0.000368397
0.000208747
0.000114805
7.21703e-05
5.22056e-05
4.27593e-05
3.80663e-05
3.58156e-05
3.50189e-05
3.47247e-05
3.45094e-05
3.42594e-05
3.4223e-05
3.55272e-05
4.18835e-05
6.62096e-05
0.000155073
0.000480257
0.00228813
0.00670583
0.00425679
0.00618468
0.00781492
0.00680635
0.00474034
0.00336612
0.00246275
0.00186602
0.00146247
0.00119461
0.0010648
0.00107171
0.00118392
0.0013353
0.00144403
0.00144243
0.00130083
0.0010489
0.00073994
0.00045623
0.000238168
0.000131067
8.15257e-05
5.94281e-05
4.85373e-05
4.2519e-05
3.89573e-05
3.69126e-05
3.59148e-05
3.54681e-05
3.5229e-05
3.52716e-05
3.64507e-05
4.20792e-05
6.36666e-05
0.000137637
0.000355765
0.000935968
0.0025664
0.00632234
0.00352472
0.00454703
0.00511656
0.00418637
0.00336242
0.00264014
0.0020704
0.00164922
0.00136186
0.00124469
0.00130122
0.00148161
0.00169376
0.00183318
0.00182325
0.00163889
0.00129929
0.000905247
0.000518169
0.000277797
0.000154407
0.000100895
7.74298e-05
6.54881e-05
5.80207e-05
5.27979e-05
4.91354e-05
4.6753e-05
4.5386e-05
4.49892e-05
4.51542e-05
4.60986e-05
4.93857e-05
6.06539e-05
9.79234e-05
0.000212574
0.00052802
0.00129626
0.00288999
0.0052089
0.00295121
0.00139834
0.00142842
0.00143054
0.00135188
0.00131008
0.00142138
0.0017066
0.00204522
0.00231315
0.00241536
0.0022998
0.00198218
0.00152826
0.000976554
0.000564423
0.00030997
0.000185529
0.00013271
0.000110296
9.8447e-05
9.03077e-05
8.39542e-05
7.90858e-05
7.58154e-05
7.4228e-05
7.42327e-05
7.55421e-05
7.85269e-05
8.28143e-05
8.97999e-05
0.000104854
0.000144185
0.000251451
0.000532067
0.00120115
0.00263724
0.00553118
0.0028585
0.00118811
0.00171325
0.00195063
0.00230603
0.00275248
0.00315871
0.00334166
0.00331222
0.00309295
0.00270328
0.00213251
0.00151085
0.000973448
0.000570354
0.00033795
0.000228572
0.000184259
0.000165621
0.000155498
0.000148192
0.000142341
0.000138002
0.000135721
0.000136124
0.000139654
0.000146345
0.000155699
0.00016678
0.000179859
0.000195602
0.000217348
0.000257088
0.000344937
0.000552517
0.00105748
0.00240785
0.0047537
0.00370243
0.00741726
0.00810645
0.0048199
0.00340273
0.00373128
0.00413854
0.0041484
0.00393662
0.00358254
0.00313069
0.00262739
0.00208445
0.0015316
0.00103998
0.000672939
0.00045182
0.000347764
0.000306305
0.00029033
0.000282955
0.000277903
0.000273001
0.000267968
0.000263655
0.000261556
0.000263297
0.000270237
0.000283345
0.000303326
0.000330708
0.000365565
0.000408065
0.00046111
0.000541661
0.00067623
0.000917968
0.00143178
0.00318169
0.00452296
0.00414371
0.00650131
0.00513934
0.00435705
0.00461406
0.0045359
0.00426984
0.00369001
0.00304353
0.00245761
0.00196494
0.00156239
0.00123928
0.000983042
0.000787688
0.000646234
0.000555431
0.00050487
0.000481022
0.000473693
0.000476139
0.00048369
0.000493183
0.000502909
0.00051265
0.000523578
0.000538032
0.000559314
0.000591595
0.000639968
0.000710547
0.000810519
0.000947709
0.00112899
0.00135512
0.00164552
0.00205628
0.00269084
0.00408607
0.00562672
0.0045508
0.00535802
0.00337379
0.00332594
0.00362968
0.00389735
0.00357309
0.00298534
0.00238316
0.00186395
0.00144056
0.00110003
0.000831881
0.00063439
0.000507523
0.000444017
0.000419269
0.000417146
0.000427354
0.000443945
0.000463483
0.000483912
0.000504136
0.000523925
0.000543898
0.000565465
0.000590755
0.000622679
0.000665345
0.000724817
0.000809846
0.000931728
0.00110244
0.00133146
0.00162426
0.00198747
0.0024405
0.0029802
0.00362461
0.00433682
0.00363373
)
;

boundaryField
{
    floor
    {
        Cmu             0.09;
        kappa           0.41;
        E               9.8;
        type            epsilonWallFunction;
        value           nonuniform List<scalar> 
36
(
0.00086019
8.94323e-05
0.000262519
0.000268864
0.000249757
0.000219911
0.000183928
0.000152227
0.000126455
0.000105864
8.94109e-05
7.62656e-05
6.56157e-05
5.68216e-05
4.93576e-05
4.27514e-05
3.65041e-05
3.18076e-05
2.35951e-05
2.35951e-05
4.80848e-05
7.08121e-05
9.45136e-05
0.000160507
0.000378805
0.000329494
0.00086019
0.0011288
0.000978265
0.00085805
8.94323e-05
0.00085805
0.000512396
0.00158381
0.00102836
0.00156465
)
;
    }
    ceiling
    {
        Cmu             0.09;
        kappa           0.41;
        E               9.8;
        type            epsilonWallFunction;
        value           nonuniform List<scalar> 
43
(
0.00535802
0.00337379
0.00332594
0.00362968
0.00389735
0.00357309
0.00298534
0.00238316
0.00186395
0.00144056
0.00110003
0.000831881
0.00063439
0.000507523
0.000444017
0.000419269
0.000417146
0.000427354
0.000443945
0.000463483
0.000483912
0.000504136
0.000523925
0.000543898
0.000565465
0.000590755
0.000622679
0.000665345
0.000724817
0.000809846
0.000931728
0.00110244
0.00133146
0.00162426
0.00198747
0.0024405
0.0029802
0.00362461
0.00433682
0.00363373
0.00454703
0.00511656
0.00118811
)
;
    }
    sWall
    {
        Cmu             0.09;
        kappa           0.41;
        E               9.8;
        type            epsilonWallFunction;
        value           nonuniform List<scalar> 9(0.0130039 0.0106883 0.00807098 0.00612339 0.00618468 0.00454703 0.00741726 0.00650131 0.00535802);
    }
    nWall
    {
        Cmu             0.09;
        kappa           0.41;
        E               9.8;
        type            epsilonWallFunction;
        value           nonuniform List<scalar> 
14
(
0.000329494
0.000560722
0.000926434
0.00329116
0.00336917
0.00397639
0.00425679
0.00352472
0.00295121
0.0028585
0.00370243
0.00414371
0.0045508
0.00363373
)
;
    }
    sideWalls
    {
        type            empty;
    }
    glass1
    {
        Cmu             0.09;
        kappa           0.41;
        E               9.8;
        type            epsilonWallFunction;
        value           nonuniform List<scalar> 9(0.000253125 0.000797001 0.00163063 0.00285353 0.00454602 0.00676369 0.0096724 0.0127595 0.0138275);
    }
    glass2
    {
        Cmu             0.09;
        kappa           0.41;
        E               9.8;
        type            epsilonWallFunction;
        value           nonuniform List<scalar> 2(0.00214206 0.00315832);
    }
    sun
    {
        Cmu             0.09;
        kappa           0.41;
        E               9.8;
        type            epsilonWallFunction;
        value           nonuniform List<scalar> 
14
(
0.000253125
0.000306377
0.000303053
0.00034426
0.000385158
0.000424994
0.00046446
0.000504743
0.000547574
0.000595672
0.00064406
0.000692367
0.000742248
0.00079851
)
;
    }
    Table_master
    {
        Cmu             0.09;
        kappa           0.41;
        E               9.8;
        type            epsilonWallFunction;
        value           nonuniform List<scalar> 9(0.000551199 0.000362296 0.000250443 0.000181092 0.000136111 0.000105791 8.46915e-05 6.97595e-05 5.94178e-05);
    }
    Table_slave
    {
        Cmu             0.09;
        kappa           0.41;
        E               9.8;
        type            epsilonWallFunction;
        value           nonuniform List<scalar> 9(0.0008141 0.000612512 0.000481617 0.000388145 0.000318765 0.000263998 0.000218484 0.000178785 0.000141649);
    }
    inlet
    {
        type            turbulentMixingLengthDissipationRateInlet;
        mixingLength    0.01;
        phi             phi;
        k               k;
        value           uniform 0.000471671;
    }
    outlet
    {
        type            zeroGradient;
    }
}


// ************************************************************************* //
