/*--------------------------------*- C++ -*----------------------------------*\
  =========                 |
  \\      /  F ield         | OpenFOAM: The Open Source CFD Toolbox
   \\    /   O peration     | Website:  https://openfoam.org
    \\  /    A nd           | Version:  6
     \\/     M anipulation  |
\*---------------------------------------------------------------------------*/
FoamFile
{
    version     2.0;
    format      ascii;
    class       volScalarField;
    location    "4800";
    object      k;
}
// * * * * * * * * * * * * * * * * * * * * * * * * * * * * * * * * * * * * * //

dimensions      [0 2 -2 0 0 0 0];

internalField   nonuniform List<scalar> 
778
(
0.00139626
0.00156508
0.00301293
0.00155973
0.00558058
0.00489396
0.0016925
0.00216925
0.0112078
0.00719702
0.00181552
0.00220462
0.00275009
0.019553
0.00996308
0.00192847
0.00228463
0.00255066
0.00355367
0.0310698
0.0131726
0.00203429
0.00238501
0.00259201
0.00268708
0.00502165
0.0450414
0.0169442
0.00213667
0.00249787
0.00269403
0.00263366
0.00270374
0.00781555
0.0583532
0.0207245
0.00223989
0.00262556
0.00281466
0.00269697
0.00248776
0.00274574
0.0127112
0.0685511
0.0220522
0.00234951
0.00277087
0.00295102
0.00276504
0.00248967
0.00228701
0.00301515
0.0198713
0.0688443
0.0213649
0.00246259
0.0029355
0.0031029
0.00283031
0.00249081
0.00222228
0.00212991
0.00414968
0.0313095
0.0513916
0.0189518
0.00257799
0.00312168
0.00326906
0.00289948
0.00247906
0.00216465
0.00199331
0.00214329
0.00983334
0.032974
0.0392896
0.0158479
0.00270265
0.00332034
0.00345935
0.00298855
0.00247082
0.0020905
0.00189474
0.001867
0.00329153
0.016507
0.0298375
0.0313908
0.0132072
0.00284963
0.00351245
0.00370233
0.00312507
0.00249909
0.00202531
0.00178474
0.00173903
0.00204386
0.00775429
0.0189677
0.0263575
0.0253633
0.0131999
0.00301822
0.00364976
0.00401262
0.00335202
0.00260648
0.00202492
0.00169549
0.0016224
0.00176302
0.00409792
0.0115459
0.0191504
0.0230736
0.0221405
0.0107848
0.00366758
0.00440915
0.00369359
0.00282895
0.00215217
0.00171377
0.00155316
0.00164093
0.0027082
0.00733854
0.0135448
0.0184105
0.021837
0.0116374
0.00360855
0.00489034
0.00416691
0.00318258
0.00241194
0.00191348
0.00166186
0.00166666
0.00220952
0.00515436
0.00984294
0.0142934
0.0175475
0.0122134
0.00343286
0.00523917
0.00474936
0.00367955
0.00279114
0.00225014
0.00197256
0.00192473
0.00227232
0.00411853
0.00758409
0.0112867
0.0141681
0.0117244
0.0196548
0.00330992
0.00499848
0.00530149
0.00431038
0.0032957
0.00267026
0.00238029
0.0023139
0.00259236
0.00381183
0.00629945
0.00923011
0.0116504
0.0105981
0.00550452
0.0145757
0.00468708
0.00562015
0.00500126
0.00393656
0.00318662
0.00282764
0.00273656
0.00296168
0.00381454
0.00559586
0.00787344
0.00981077
0.00932692
0.00302037
0.0057041
0.0106177
0.00593063
0.00568688
0.00467006
0.00383948
0.0033423
0.00317371
0.0033154
0.00391544
0.00517344
0.00688722
0.0084222
0.00812313
0.00258214
0.00294489
0.00570571
0.0172716
0.0126499
0.00502822
0.00649872
0.00543961
0.00459393
0.00398674
0.00369045
0.00369766
0.00406993
0.00491368
0.00611952
0.00719754
0.00687652
0.00222064
0.00257632
0.00791485
0.0142584
0.0116454
0.0133638
0.00674776
0.00553909
0.00696738
0.00616757
0.00536719
0.00476002
0.00436436
0.00422022
0.00436887
0.0048621
0.00562464
0.00628144
0.00587674
0.00233954
0.0045864
0.0135241
0.0155014
0.00711398
0.0111026
0.00729993
0.00405159
0.00538212
0.00624031
0.00649559
0.00601462
0.00554992
0.00518178
0.00495914
0.0049396
0.0051652
0.00559278
0.00597004
0.0056908
0.00390606
0.00932389
0.0177035
0.017133
0.00753019
0.0106765
0.00275474
0.00429194
0.00517229
0.00583659
0.00623056
0.00632263
0.00617301
0.00599774
0.00585348
0.0058057
0.00591145
0.00617779
0.00649679
0.00663682
0.00683076
0.0143336
0.0200054
0.0175006
0.00743899
0.00152865
0.00298519
0.00433653
0.00484538
0.00545575
0.00586655
0.00621027
0.00644891
0.00659573
0.00669739
0.00680728
0.00699415
0.00731544
0.00780635
0.00856198
0.0103991
0.0177566
0.0205773
0.0167917
0.00687741
0.00162309
0.00313111
0.00412182
0.00440258
0.00503407
0.00542056
0.00584336
0.00632141
0.00679725
0.00723416
0.00764846
0.00809765
0.00867137
0.00949472
0.0108502
0.0135883
0.0192116
0.0199356
0.0154987
0.00611581
0.00164596
0.00304724
0.00369681
0.00347951
0.00459094
0.00492897
0.00532591
0.00588081
0.0065571
0.00728668
0.00803465
0.00882755
0.00974622
0.0109464
0.0126973
0.0154954
0.0189384
0.0184189
0.0139846
0.00536843
0.00159527
0.00279193
0.00274448
0.00288175
0.00408613
0.00444445
0.00475525
0.00525746
0.00596822
0.00683736
0.00781448
0.00888641
0.0101033
0.0115669
0.0134522
0.0157056
0.0169952
0.0161502
0.0124046
0.00471648
0.00149022
0.00237756
0.00206877
0.00246336
0.00362755
0.00399163
0.00421431
0.00458548
0.00519047
0.00601941
0.00703282
0.00820649
0.00953703
0.0110643
0.0127527
0.0143138
0.0139774
0.0133302
0.0108224
0.00415582
0.00133974
0.00200808
0.00161567
0.00213972
0.00323817
0.00359985
0.00375005
0.00397074
0.00438981
0.00503683
0.00589964
0.00694636
0.00816363
0.00948133
0.0107877
0.0113848
0.0106672
0.0104145
0.00931645
0.00367182
0.00119236
0.00170422
0.00130194
0.00188266
0.00290734
0.00327189
0.00337729
0.0034704
0.00368976
0.00409041
0.00467749
0.00543785
0.00630975
0.00725856
0.00794136
0.00808402
0.00760341
0.00786576
0.00800931
0.00326706
0.00106191
0.00145756
0.00107764
0.00166637
0.00260959
0.00299326
0.0030855
0.00309464
0.00314994
0.00331447
0.00360628
0.00400338
0.0044958
0.00489158
0.00525407
0.00543255
0.00533248
0.00599124
0.00699788
0.00295321
0.000949519
0.00125574
0.000912723
0.00147466
0.0023358
0.00274013
0.00285021
0.00282267
0.00277134
0.00275969
0.0028109
0.00292588
0.00303285
0.00324407
0.00347941
0.00371462
0.00396359
0.00485199
0.00625928
0.00273474
0.000853993
0.00108936
0.000788813
0.00129569
0.00207803
0.00250132
0.00264534
0.0026194
0.00252004
0.00240468
0.00230893
0.00224218
0.00224055
0.00232197
0.00251168
0.00280764
0.00326191
0.00425388
0.00568249
0.00260655
0.000772203
0.000950355
0.000695269
0.001115
0.00182875
0.00226692
0.00245287
0.00245524
0.0023495
0.00219392
0.00202881
0.001893
0.00183324
0.00186577
0.00203247
0.00236987
0.00292238
0.00393487
0.00524349
0.00255508
0.000701504
0.000831834
0.000627584
0.000835834
0.0015766
0.00202858
0.00225904
0.00230579
0.00222525
0.00206906
0.00188489
0.00172532
0.00163332
0.00163644
0.00178694
0.00214091
0.00273529
0.00373837
0.00491446
0.00254313
0.000639476
0.000731408
0.000577941
0.000693002
0.00125168
0.00177717
0.00205425
0.00215388
0.00211696
0.00198862
0.00181429
0.00164719
0.00153631
0.00151418
0.00163944
0.00199036
0.00260495
0.00360259
0.00468453
0.00256624
0.000583667
0.000659792
0.00057997
0.00146427
0.000961211
0.00148719
0.00183121
0.00198879
0.00200523
0.00191925
0.0017737
0.00161484
0.00149072
0.00144472
0.00153608
0.00186672
0.00249567
0.00350767
0.00455423
0.00262338
0.00053138
0.000616457
0.00120495
0.000853757
0.00123138
0.001198
0.00158275
0.00180425
0.00187924
0.00184266
0.00173475
0.0015969
0.00147184
0.0014044
0.00145797
0.00175373
0.00239388
0.00344303
0.00452245
0.00271128
0.000478917
0.000900887
0.000706495
0.00124395
0.00114232
0.00133259
0.00159877
0.00173376
0.00174991
0.00168364
0.00157461
0.0014594
0.00138142
0.00139943
0.00164971
0.00229451
0.00339615
0.00457896
0.00282292
0.000435028
0.000552138
0.00119641
0.00113788
0.00117326
0.00138924
0.00156918
0.00163756
0.00161412
0.00153803
0.0014412
0.00136279
0.00135826
0.00156066
0.00219908
0.00335302
0.00470217
0.00294901
0.000355695
0.00205073
0.00173172
0.00110942
0.00122622
0.00139863
0.00150752
0.00152482
0.00148207
0.00140972
0.00134024
0.00132568
0.00149645
0.00211676
0.00330488
0.00486083
0.00308057
0.00188321
0.00513191
0.00157711
0.00115416
0.00126834
0.00137217
0.00142059
0.0014067
0.00136092
0.00130863
0.00129594
0.00145732
0.00206394
0.00325711
0.00501961
0.00321118
0.00268931
0.00629294
0.00209098
0.00130444
0.00128542
0.00132004
0.00132191
0.001297
0.00126617
0.00126838
0.00144384
0.00205435
0.00323318
0.00514825
0.00333838
0.00372321
0.0142549
0.00384898
0.0015997
0.00132999
0.00127024
0.0012382
0.00121858
0.00124767
0.00146565
0.00210251
0.0032574
0.00523479
0.00346455
0.0063582
0.0282298
0.00758653
0.00225536
0.00157798
0.00128508
0.00119562
0.0012465
0.00153604
0.00222792
0.00335771
0.00532978
0.00359553
0.008142
0.0265706
0.00892416
0.00370109
0.00198885
0.00132125
0.00129762
0.00166757
0.00244703
0.00355527
0.00547468
0.00373521
0.00856916
0.0239
0.00981837
0.00476245
0.00210208
0.00150183
0.00188012
0.00277039
0.0038688
0.0056991
0.00389477
0.00855386
0.0202332
0.0102546
0.00473214
0.00219217
0.00224081
0.00321398
0.00431406
0.00602661
0.00408289
0.00814087
0.016903
0.00985484
0.00430466
0.00296341
0.00383499
0.00491078
0.00648222
0.00430489
0.00761102
0.017386
0.00942436
0.00469715
0.00480618
0.00570449
0.00710475
0.00456341
0.00754682
0.0161162
0.0104141
0.00662595
0.00681319
0.0079693
0.0048596
0.0086889
0.0146491
0.0118207
0.00853231
0.00920033
0.00519579
0.00903299
0.0153016
0.0115503
0.010929
0.00558896
0.00931629
0.015079
0.0137363
0.00613392
0.00847985
0.0172011
0.00694822
0.00808574
0.00806185
0.00748289
)
;

boundaryField
{
    floor
    {
        type            kqRWallFunction;
        value           nonuniform List<scalar> 
36
(
0.00301822
0.00152865
0.00162309
0.00164596
0.00159527
0.00149022
0.00133974
0.00119236
0.00106191
0.000949519
0.000853993
0.000772203
0.000701504
0.000639476
0.000583667
0.00053138
0.000478917
0.000435028
0.000355695
0.000355695
0.000552138
0.000706495
0.000853757
0.00119641
0.00205073
0.00188321
0.00301822
0.00360855
0.00343286
0.00330992
0.00152865
0.00330992
0.00275474
0.00468708
0.00405159
0.00502822
)
;
    }
    ceiling
    {
        type            kqRWallFunction;
        value           nonuniform List<scalar> 
43
(
0.0106765
0.00729993
0.00674776
0.00711398
0.00753019
0.00743899
0.00687741
0.00611581
0.00536843
0.00471648
0.00415582
0.00367182
0.00326706
0.00295321
0.00273474
0.00260655
0.00255508
0.00254313
0.00256624
0.00262338
0.00271128
0.00282292
0.00294901
0.00308057
0.00321118
0.00333838
0.00346455
0.00359553
0.00373521
0.00389477
0.00408289
0.00430489
0.00456341
0.0048596
0.00519579
0.00558896
0.00613392
0.00694822
0.00806185
0.00748289
0.0107848
0.0116374
0.0145757
)
;
    }
    sWall
    {
        type            kqRWallFunction;
        value           nonuniform List<scalar> 9(0.0213649 0.0189518 0.0158479 0.0132072 0.0131999 0.0107848 0.0116454 0.0111026 0.0106765);
    }
    nWall
    {
        type            kqRWallFunction;
        value           nonuniform List<scalar> 
14
(
0.00188321
0.00268931
0.00372321
0.00856916
0.00855386
0.00814087
0.00761102
0.00754682
0.0086889
0.00903299
0.00931629
0.00847985
0.00808574
0.00748289
)
;
    }
    sideWalls
    {
        type            empty;
    }
    glass1
    {
        type            kqRWallFunction;
        value           nonuniform List<scalar> 9(0.00139626 0.00301293 0.00489396 0.00719702 0.00996308 0.0131726 0.0169442 0.0207245 0.0220522);
    }
    glass2
    {
        type            kqRWallFunction;
        value           nonuniform List<scalar> 2(0.0063582 0.008142);
    }
    sun
    {
        type            kqRWallFunction;
        value           nonuniform List<scalar> 
14
(
0.00139626
0.00156508
0.00155973
0.0016925
0.00181552
0.00192847
0.00203429
0.00213667
0.00223989
0.00234951
0.00246259
0.00257799
0.00270265
0.00284963
)
;
    }
    Table_master
    {
        type            kqRWallFunction;
        value           nonuniform List<scalar> 9(0.00274448 0.00206877 0.00161567 0.00130194 0.00107764 0.000912723 0.000788813 0.000695269 0.000627584);
    }
    Table_slave
    {
        type            kqRWallFunction;
        value           nonuniform List<scalar> 9(0.00347951 0.00288175 0.00246336 0.00213972 0.00188266 0.00166637 0.00147466 0.00129569 0.001115);
    }
    inlet
    {
        type            turbulentIntensityKineticEnergyInlet;
        intensity       0.5;
        value           uniform 0.09375;
    }
    outlet
    {
        type            zeroGradient;
    }
}


// ************************************************************************* //
