/*--------------------------------*- C++ -*----------------------------------*\
  =========                 |
  \\      /  F ield         | OpenFOAM: The Open Source CFD Toolbox
   \\    /   O peration     | Website:  https://openfoam.org
    \\  /    A nd           | Version:  6
     \\/     M anipulation  |
\*---------------------------------------------------------------------------*/
FoamFile
{
    version     2.0;
    format      ascii;
    class       volScalarField;
    location    "4800";
    object      nut;
}
// * * * * * * * * * * * * * * * * * * * * * * * * * * * * * * * * * * * * * //

dimensions      [0 2 -1 0 0 0 0];

internalField   nonuniform List<scalar> 
662
(
0.00098824
0.00106634
0.00108315
0.00113381
0.0011811
0.00122588
0.00127018
0.00131655
0.0013635
0.00140717
0.00144183
0.00145537
0.00142845
0.00133733
0.00108912
0.000488624
0.000574392
0.00064826
0.000668802
0.000654295
0.000611312
0.000564682
0.000522999
0.000486856
0.000455433
0.000427981
0.00040401
0.000382745
0.000363401
0.000345103
0.000326876
0.00031787
0.00029369
0.00135657
0.00283147
0.00252212
0.00288767
0.00323023
0.0035883
0.00393758
0.00423473
0.00452313
0.00487048
0.00526197
0.0056428
0.00590912
0.00591128
0.00514262
0.00130485
0.00107335
0.000875367
0.000489686
0.00114726
0.00165956
0.00205457
0.00217267
0.0015941
0.00134753
0.00117942
0.00105489
0.000959213
0.000883004
0.000816348
0.000754351
0.000693298
0.000639088
0.000592392
0.000732849
0.000393998
0.00168859
0.00394417
0.00288513
0.00369552
0.00402007
0.00422371
0.00434072
0.00441471
0.00453185
0.00477497
0.00517148
0.00571873
0.00630047
0.00669398
0.00654342
0.00538082
0.00419308
0.00103949
0.000779234
0.00132261
0.00189265
0.00245366
0.00259928
0.000826449
0.000722547
0.000636895
0.000567883
0.000512359
0.00046744
0.000430957
0.000401378
0.000378205
0.000417282
0.000481368
0.000862059
0.000469353
0.00202786
0.00543268
0.00287734
0.00381475
0.00417246
0.00417619
0.00401966
0.00385439
0.00381574
0.00395994
0.00433909
0.00501091
0.00580354
0.00640941
0.00661537
0.00639978
0.00557759
0.00307433
0.00121328
0.00158301
0.00217619
0.00287103
0.00345239
0.00343941
0.000926948
0.00084603
0.00079144
0.000751715
0.000718637
0.000685856
0.000654456
0.000621375
0.000582782
0.000550204
0.000547509
0.00104056
0.000540188
0.00236563
0.00710674
0.00371123
0.00347966
0.00404583
0.00410498
0.0038539
0.00351024
0.00335595
0.00343211
0.00378619
0.00454598
0.00542133
0.00598787
0.00624785
0.00627063
0.00598718
0.00497885
0.00459085
0.00457413
0.00478725
0.00503911
0.00517235
0.00503518
0.00423401
0.00383599
0.00361946
0.00346568
0.00331237
0.00312045
0.00279457
0.0023751
0.00190028
0.00144584
0.00108599
0.00101958
0.000922515
0.00072672
0.000760615
0.000824955
0.0027475
0.00861939
0.00557683
0.00364982
0.00350435
0.00367533
0.00371639
0.00345149
0.00325589
0.00328255
0.00362943
0.00438229
0.00528443
0.00578553
0.00595887
0.0059649
0.00596771
0.00592707
0.0061307
0.00636783
0.00649547
0.00645607
0.00625738
0.00591967
0.00546627
0.00510004
0.00481567
0.0045683
0.00433045
0.00408622
0.00379388
0.00339467
0.00289174
0.00232238
0.00179485
0.00128584
0.0010867
0.000971095
0.00121873
0.000856601
0.00129109
0.00405157
0.00524852
0.00453198
0.00378812
0.00348278
0.00345285
0.00344598
0.00331952
0.00325034
0.00348945
0.00421813
0.00544798
0.00582638
0.00591076
0.00592287
0.00619298
0.00668047
0.00710687
0.00729305
0.00721183
0.00691111
0.00646411
0.00594028
0.00541996
0.00499764
0.0046733
0.00440829
0.00417849
0.00397697
0.00380286
0.00361416
0.00328449
0.00282694
0.00235215
0.00188578
0.00159047
0.00146397
0.00137621
0.00101292
0.00101807
0.00205582
0.00295327
0.00357635
0.00384066
0.00377927
0.00361335
0.00345317
0.00326727
0.00325079
0.00372304
0.00464371
0.00577326
0.00601408
0.00605259
0.00622836
0.00676344
0.00717956
0.00736164
0.00727661
0.00693486
0.00640139
0.00576848
0.00513841
0.0046114
0.00423114
0.00396386
0.00376692
0.0036216
0.00352614
0.00348601
0.00349875
0.00347862
0.00321914
0.00297106
0.00284144
0.00290808
0.00300482
0.0036528
0.00153619
0.00026824
0.00131207
0.00212189
0.00263338
0.00286165
0.00291461
0.00300782
0.0034827
0.00443571
0.00539449
0.006078
0.00618024
0.00636863
0.006574
0.00677218
0.00681604
0.00667845
0.00632826
0.00578734
0.00514169
0.00450656
0.0039799
0.0035996
0.00333975
0.00315366
0.0030096
0.002892
0.00279223
0.00270309
0.00261753
0.00254162
0.00247874
0.00243728
0.002414
0.00236124
0.00224742
0.00209524
0.001439
0.000611216
0.00066101
0.00123801
0.00187159
0.00239445
0.00290669
0.00366768
0.00470575
0.00557525
0.00590481
0.0059795
0.00616313
0.00618094
0.00606949
0.005865
0.00560755
0.00527448
0.00483417
0.00432249
0.00382598
0.00341404
0.00310905
0.00289393
0.00273913
0.00262169
0.00252952
0.00245809
0.00240734
0.0023805
0.0023822
0.00240301
0.00243151
0.00246085
0.00247396
0.00244839
0.00237861
0.00212271
0.00119318
0.00106468
0.00276477
0.00140913
0.00125621
0.00191639
0.0027462
0.0036034
0.00452477
0.00532795
0.00570756
0.00559846
0.00503773
0.00459351
0.00473538
0.0046153
0.00441544
0.00421201
0.00399344
0.00373027
0.00343076
0.00312965
0.00286424
0.00265045
0.00248741
0.00236762
0.00228434
0.00223367
0.00221278
0.00221761
0.0022411
0.0022842
0.00235117
0.00243501
0.00252697
0.00261357
0.00267918
0.00273148
0.00282615
0.00191092
0.00123729
0.000822607
0.00193958
0.00263632
0.00317392
0.00361545
0.00398154
0.00422157
0.00427823
0.00409966
0.00367766
0.00289437
0.001697
0.000859609
0.000840146
0.000821231
0.000801748
0.000783019
0.000763638
0.000744263
0.000727103
0.000714455
0.000707225
0.000705809
0.000710003
0.000719473
0.000733988
0.000753483
0.000778104
0.000808333
0.000845251
0.000889199
0.000939574
0.000996535
0.00105992
0.00112901
0.00120351
0.001245
0.00113248
0.00105851
0.00119661
0.00215673
0.00550894
0.00514798
0.00414091
0.00359306
0.00345214
0.00347139
0.003387
0.0032689
0.00331432
0.0038009
0.00469213
0.00160275
0.0025843
0.00329373
0.00376185
0.00383617
0.00369773
0.00353494
0.00335697
0.00321663
0.00341347
0.0041539
0.00511342
0.000849298
0.00174983
0.00241692
0.00277747
0.00290137
0.00293747
0.00317732
0.00391971
0.00495073
0.00572637
0.000500636
0.000921727
0.00156481
0.00214632
0.00263663
0.00324266
0.00417461
0.00519429
0.00580658
0.00595311
0.00297902
0.00230435
0.00109099
0.00156286
0.00232309
0.00316593
0.0040605
0.00496344
0.00557018
0.00572481
0.0053373
0.00487527
0.00205344
0.00227774
0.00296468
0.00340071
0.00381133
0.00412008
0.00427723
0.00421909
0.00392125
0.00334662
0.00231856
0.00121544
0.00134743
0.0027059
0.00402187
0.00438734
0.00414926
0.00379071
0.00357295
0.00346955
0.00332281
0.00325043
0.00356575
0.00438132
0.00107528
0.00118034
0.00159506
0.00235195
0.00298042
0.0032733
0.00331243
0.00323431
0.00313131
0.00329339
0.00399872
0.00499335
0.000469097
0.000760737
0.00149953
0.00211396
0.00249561
0.00273306
0.00311378
0.00395417
0.00501525
0.00574892
0.000487886
0.000775067
0.00134463
0.00203097
0.00274772
0.00359854
0.00459045
0.00543026
0.0058441
0.00569792
0.00107429
0.0026128
0.00223139
0.00230276
0.00296817
0.00369873
0.00438917
0.00498383
0.00532246
0.00524859
0.00468818
0.00381604
0.000982603
0.000898895
0.000952747
0.00098905
0.0009819
0.000934968
0.000854956
0.000748723
0.000635862
0.000532942
0.000438815
0.000400005
0.00186527
0.00359038
0.00432348
0.00431575
0.00396066
0.00365869
0.00352043
0.00340058
0.00326025
0.00334095
0.00392672
0.00486182
0.00109608
0.00119865
0.00196816
0.00270476
0.00316721
0.0033153
0.00328097
0.0031737
0.00315434
0.00357889
0.00449597
0.00541592
0.000456314
0.00112836
0.00183488
0.00233185
0.00262098
0.00287592
0.00347655
0.00449351
0.00544497
0.0059365
0.000550118
0.00103634
0.00168206
0.00238309
0.00314618
0.00410039
0.00504493
0.00570967
0.00581881
0.0056402
0.00288404
0.00254788
0.00214271
0.00261838
0.00333476
0.00404968
0.00470669
0.00519681
0.00534079
0.00503313
0.0042431
0.00366248
0.000875545
0.000929348
0.000973113
0.00099143
0.000962757
0.000898888
0.000804207
0.000691562
0.00058325
0.000483824
0.000407422
0.000410446
)
;

boundaryField
{
    floor
    {
        type            nutkWallFunction;
        Cmu             0.09;
        kappa           0.41;
        E               9.8;
        value           nonuniform List<scalar> 
36
(
0.000131148
5.82639e-05
6.91434e-05
7.83536e-05
8.08919e-05
7.91005e-05
7.37637e-05
6.79223e-05
6.26505e-05
5.80372e-05
5.39917e-05
5.04288e-05
4.72939e-05
4.44931e-05
4.19278e-05
3.94851e-05
3.7035e-05
3.58178e-05
3.25268e-05
3.25267e-05
4.59767e-05
5.5787e-05
6.48292e-05
8.79977e-05
9.21255e-05
9.99025e-05
0.000131148
0.000156016
0.00012931
0.000105945
5.82638e-05
0.000105945
5.83997e-05
0.000125352
9.4384e-05
0.000145523
)
;
    }
    ceiling
    {
        type            nutkWallFunction;
        Cmu             0.09;
        kappa           0.41;
        E               9.8;
        value           nonuniform List<scalar> 
58
(
0.000105954
0.000112353
0.000117527
0.000119687
0.000116312
0.000108743
9.74011e-05
8.36941e-05
7.02567e-05
5.765e-05
4.7744e-05
4.81401e-05
0.000104062
0.000101729
9.94549e-05
9.71066e-05
9.48428e-05
9.24933e-05
9.01375e-05
8.8045e-05
8.64988e-05
8.56135e-05
8.54399e-05
8.59536e-05
8.71123e-05
8.88848e-05
9.12589e-05
9.42469e-05
9.79003e-05
0.000102341
0.000107597
0.000113585
0.000120312
0.000127745
0.00013579
0.000144404
0.000149173
0.000136193
0.000127581
0.000143611
0.000132004
0.000143878
5.82805e-05
9.9614e-05
0.000108736
0.000115122
0.000119405
0.000118567
0.000113027
0.000103499
9.06807e-05
7.68186e-05
6.39142e-05
5.18403e-05
4.67704e-05
0.000122886
0.000141769
7.38026e-05
)
;
    }
    sWall
    {
        type            nutkWallFunction;
        Cmu             0.09;
        kappa           0.41;
        E               9.8;
        value           nonuniform List<scalar> 4(0.0001294 0.000118655 0.000128278 9.9617e-05);
    }
    nWall
    {
        type            nutkWallFunction;
        Cmu             0.09;
        kappa           0.41;
        E               9.8;
        value           nonuniform List<scalar> 6(9.99035e-05 0.000103703 0.000122243 0.000143225 0.000148301 0.000143622);
    }
    sideWalls
    {
        type            empty;
    }
    glass1
    {
        type            nutkWallFunction;
        Cmu             0.09;
        kappa           0.41;
        E               9.8;
        value           nonuniform List<scalar> 10(0.000119412 0.00016211 0.00019947 0.000236816 0.000273328 0.00031395 0.000161034 0.000129648 0.000154606 0.000122932);
    }
    glass2
    {
        type            nutkWallFunction;
        Cmu             0.09;
        kappa           0.41;
        E               9.8;
        value           nonuniform List<scalar> 2(0.000182275 0.000171334);
    }
    sun
    {
        type            nutkWallFunction;
        Cmu             0.09;
        kappa           0.41;
        E               9.8;
        value           nonuniform List<scalar> 
14
(
0.000119335
0.000128492
0.000130453
0.000136343
0.000141814
0.000146971
0.000152053
0.00015735
0.000162694
0.000167645
0.000171562
0.00017309
0.00017005
0.000159716
)
;
    }
    Table_master
    {
        type            nutkWallFunction;
        Cmu             0.09;
        kappa           0.41;
        E               9.8;
        value           nonuniform List<scalar> 9(0.000100082 8.74902e-05 7.69482e-05 6.833e-05 6.13033e-05 5.555e-05 5.08265e-05 4.696e-05 4.39055e-05);
    }
    Table_slave
    {
        type            nutkWallFunction;
        Cmu             0.09;
        kappa           0.41;
        E               9.8;
        value           nonuniform List<scalar> 9(0.000112086 0.000102434 9.58615e-05 9.10453e-05 8.7012e-05 8.29931e-05 7.91219e-05 7.50193e-05 7.01995e-05);
    }
    inlet
    {
        type            calculated;
        value           uniform 0.000167705;
    }
    outlet
    {
        type            calculated;
        value           nonuniform List<scalar> 4(0.00297902 0.00230435 0.00107429 0.00276477);
    }
}


// ************************************************************************* //
