/*--------------------------------*- C++ -*----------------------------------*\
  =========                 |
  \\      /  F ield         | OpenFOAM: The Open Source CFD Toolbox
   \\    /   O peration     | Website:  https://openfoam.org
    \\  /    A nd           | Version:  6
     \\/     M anipulation  |
\*---------------------------------------------------------------------------*/
FoamFile
{
    version     2.0;
    format      ascii;
    class       volScalarField;
    location    "4800";
    object      nut;
}
// * * * * * * * * * * * * * * * * * * * * * * * * * * * * * * * * * * * * * //

dimensions      [0 2 -1 0 0 0 0];

internalField   nonuniform List<scalar> 
778
(
0.000894332
0.000953073
0.000949568
0.000990751
0.00102849
0.00106277
0.00109468
0.00112545
0.00115643
0.00118937
0.0012208
0.00125066
0.00128009
0.00131173
0.00134474
0.000632251
0.000905608
0.000912968
0.000890908
0.000853948
0.000804511
0.00075524
0.000709881
0.000669017
0.000632394
0.000599759
0.000570443
0.000543731
0.000518795
0.000494525
0.000469146
0.000448056
0.000405568
0.00131082
0.0025812
0.00226511
0.00261447
0.00286791
0.00313656
0.00340449
0.0036514
0.00385017
0.00396595
0.00403404
0.00400613
0.00380647
0.00331162
0.00241862
0.00147243
0.00140382
0.00134376
0.00113108
0.00192685
0.0026712
0.00311109
0.00313185
0.00247112
0.00211345
0.0018655
0.0016772
0.00152739
0.0013997
0.00128688
0.0011819
0.0010792
0.000987044
0.000907588
0.00102197
0.000514205
0.0016641
0.00360453
0.00267222
0.00382245
0.00427117
0.00465079
0.00499548
0.0052988
0.00555579
0.00575739
0.00595269
0.00615831
0.00634739
0.0064601
0.00638586
0.00584725
0.00427649
0.00164825
0.0014267
0.00305152
0.00425928
0.00483161
0.00439517
0.00115985
0.00100863
0.000891892
0.000800512
0.000727772
0.000669058
0.000621178
0.000582246
0.000551901
0.000606665
0.000713558
0.00112923
0.000585
0.00200535
0.00485868
0.00255722
0.00429816
0.00496272
0.00531824
0.00557957
0.00577284
0.00591704
0.00603396
0.00620013
0.00648103
0.00689104
0.00740666
0.00792495
0.0081803
0.00768161
0.00573133
0.00164128
0.00379911
0.00565164
0.00659415
0.00682813
0.00583078
0.00132027
0.001201
0.00110868
0.00103186
0.000966367
0.000907531
0.000852059
0.000796976
0.000737509
0.000688927
0.000713873
0.00122168
0.000644247
0.00234212
0.00643353
0.00258034
0.00408607
0.00510799
0.00541139
0.00552162
0.005526
0.00547116
0.00542256
0.00549203
0.00576489
0.00626576
0.00697503
0.00779733
0.00855456
0.00903441
0.00902793
0.00810153
0.00824201
0.00843035
0.00845722
0.00828633
0.00775748
0.00617478
0.0053346
0.00475898
0.0042915
0.00383261
0.00338792
0.00295277
0.00251814
0.00207162
0.00159144
0.00121474
0.00121208
0.000959562
0.000767844
0.00100544
0.00096885
0.00267378
0.00819686
0.00303829
0.00344579
0.00489439
0.00523122
0.00520472
0.00501772
0.00475015
0.00452933
0.00452435
0.00481034
0.00538129
0.00620394
0.00716611
0.00812673
0.00894356
0.00946493
0.00955906
0.00946217
0.00929374
0.0090557
0.00875032
0.00836194
0.00779478
0.00724808
0.00675153
0.00627168
0.00575325
0.00519942
0.00460773
0.00397317
0.00329172
0.00256887
0.00191528
0.00143831
0.00111693
0.00124496
0.0021525
0.00116091
0.00301235
0.00982835
0.00404946
0.00282325
0.00439778
0.00494848
0.00488799
0.0045853
0.00414589
0.00375913
0.00374789
0.00410906
0.00476286
0.00568284
0.00672865
0.00776304
0.00865242
0.0092888
0.00958091
0.00955719
0.00934662
0.00902849
0.00866467
0.00830201
0.00795133
0.00762942
0.00732694
0.00700426
0.00661436
0.00614493
0.00558904
0.00494397
0.00421214
0.00341259
0.00263235
0.00190643
0.00140501
0.00124928
0.00218424
0.00136452
0.0033037
0.0110651
0.00552218
0.00268901
0.00348349
0.00438654
0.00451324
0.00426476
0.0037449
0.00321931
0.00333853
0.00381636
0.00454775
0.00549599
0.00658256
0.0076655
0.00858821
0.00922859
0.00951884
0.00947981
0.00920803
0.00880769
0.00837733
0.00799583
0.00770185
0.00749179
0.00732794
0.00715003
0.00690242
0.00655585
0.00609666
0.00552193
0.00483705
0.00406296
0.00326029
0.0024546
0.00172792
0.00114894
0.00307943
0.00177105
0.00339343
0.0104833
0.00683801
0.0034787
0.00236259
0.0028937
0.00338691
0.00342948
0.00302847
0.0029442
0.00325024
0.00381232
0.00460321
0.00560877
0.00674749
0.00786367
0.00878302
0.00937393
0.00958092
0.00943724
0.00904362
0.00852733
0.00801502
0.00760635
0.00734705
0.00721969
0.00716177
0.00709317
0.00695051
0.0067
0.00632816
0.00583329
0.00522159
0.00451064
0.00373365
0.00286641
0.00171005
0.00141726
0.00457617
0.00203486
0.00332467
0.00845701
0.0070666
0.00477749
0.00315469
0.00244204
0.00231206
0.00242046
0.0026245
0.00294892
0.00340869
0.00404116
0.00490099
0.00598465
0.00718473
0.00831614
0.00918719
0.0096665
0.00971625
0.00939359
0.00882517
0.00817035
0.00758542
0.00718476
0.00700135
0.00697976
0.00701894
0.00701768
0.00692458
0.00672098
0.00640044
0.00596209
0.00540961
0.00474953
0.00395295
0.00273266
0.00129052
0.00266518
0.00452619
0.00205877
0.00311425
0.00722982
0.00683487
0.00546926
0.00420845
0.00338779
0.0029819
0.0028901
0.00305823
0.00336739
0.0038164
0.00448335
0.00543196
0.0066188
0.00787862
0.00898501
0.00973518
0.0100142
0.00981827
0.00924467
0.00846399
0.00768097
0.00708548
0.00678714
0.00675311
0.00685037
0.00694767
0.00694893
0.0068501
0.00665228
0.00635123
0.00594135
0.00541896
0.00477049
0.0038544
0.00216551
0.00152745
0.00311788
0.00417916
0.00202298
0.00283576
0.00651974
0.00659474
0.00579117
0.00492571
0.00427464
0.00389156
0.00375507
0.00378945
0.00397567
0.00438727
0.00513138
0.00622654
0.00753896
0.00882335
0.00981707
0.0103287
0.0102866
0.00974477
0.00886104
0.00787234
0.00704534
0.00657862
0.00648543
0.00656702
0.00669372
0.0067769
0.00675272
0.00663822
0.00643893
0.00614665
0.0057455
0.00521995
0.00454626
0.0035116
0.00173177
0.00177233
0.00328654
0.0041294
0.00196545
0.00258615
0.00583268
0.00629815
0.00591804
0.00536232
0.00489585
0.00458593
0.00443452
0.0043891
0.00454759
0.0050697
0.00604094
0.00736383
0.00878116
0.00997871
0.010696
0.010798
0.0102922
0.00931989
0.00812358
0.00703715
0.00634415
0.00604471
0.00601009
0.00609202
0.00619821
0.00626687
0.00624798
0.00613561
0.00593725
0.00563884
0.00521546
0.00464451
0.00391289
0.00295181
0.0017503
0.00182615
0.00337362
0.00463245
0.00198504
0.00259475
0.00578866
0.00643571
0.00599045
0.00554041
0.0051721
0.00490658
0.00473344
0.00472487
0.00511041
0.0060315
0.0074059
0.00895334
0.0103165
0.0111833
0.0113721
0.0108645
0.00977683
0.00837919
0.00702549
0.00604962
0.00548628
0.00522407
0.00515201
0.00518239
0.00524963
0.00530542
0.00530118
0.0051883
0.00497163
0.0046224
0.00410774
0.00344039
0.00272657
0.00213388
0.00175813
0.00201181
0.00359526
0.0045809
0.00209953
0.002342
0.00243531
0.00359219
0.00421927
0.00441226
0.00441403
0.00436969
0.00444901
0.00498722
0.00613511
0.00774685
0.00948095
0.0109575
0.0118641
0.0120224
0.0114031
0.0101558
0.00850998
0.00693968
0.00572195
0.00491639
0.00445428
0.00422943
0.00413212
0.00409051
0.00406892
0.0040492
0.00400498
0.00386136
0.0036056
0.00320997
0.0026898
0.0021763
0.00184807
0.00177687
0.00194623
0.00249656
0.00413964
0.00473649
0.00212208
0.000807582
0.0014651
0.00226003
0.00289838
0.00363707
0.00489558
0.00674558
0.00879571
0.0106548
0.0120337
0.0127394
0.0126535
0.0117904
0.0102458
0.00841471
0.00668672
0.00532986
0.00442834
0.00393155
0.0036784
0.00352978
0.00341387
0.00330383
0.00319366
0.00308405
0.00297137
0.00282767
0.00261793
0.00234435
0.00205706
0.0018753
0.00189238
0.00211064
0.00250864
0.00316451
0.0044581
0.0051476
0.00210771
0.00149711
0.0020739
0.0030249
0.00472782
0.00704753
0.00937477
0.0111864
0.0124906
0.0132675
0.013464
0.0129878
0.0117526
0.0099561
0.00795434
0.00614974
0.00482346
0.0040572
0.00369025
0.00350939
0.00339042
0.00328557
0.00318273
0.00308324
0.00299137
0.00290855
0.00282966
0.00273896
0.00262154
0.00248559
0.00236425
0.00232586
0.00243677
0.00270729
0.00309748
0.00355963
0.00400981
0.0041709
0.00202129
0.00275785
0.00666749
0.00612003
0.0054651
0.00695418
0.00929542
0.0112811
0.0126269
0.0133367
0.0135082
0.0132144
0.012431
0.0111321
0.0093784
0.00744022
0.00573361
0.00460902
0.00404936
0.00379734
0.00365426
0.00353457
0.00341399
0.00329382
0.00318487
0.00309987
0.00304843
0.00303322
0.00304716
0.00307049
0.00307638
0.00307412
0.00308908
0.00315404
0.00330601
0.00356754
0.00392634
0.00433082
0.00462804
0.00463749
0.00203297
0.00263913
0.00509567
0.00656999
0.00839058
0.00931963
0.0102911
0.0108655
0.0110139
0.0108095
0.0103012
0.00950374
0.00841968
0.00712017
0.00580959
0.00476031
0.0041152
0.0037803
0.00360998
0.00349634
0.00339045
0.00327808
0.0031621
0.00305425
0.00297093
0.00292969
0.00294502
0.0030236
0.00315922
0.00332654
0.0034728
0.00357765
0.00368262
0.00382456
0.00403339
0.00433118
0.00472838
0.00522068
0.00580595
0.00524572
0.00229513
0.00247355
0.00211963
0.00210895
0.00217017
0.00222079
0.00215422
0.00202393
0.00187021
0.00171406
0.00156403
0.00142391
0.00129873
0.00119632
0.00112417
0.00108328
0.00106639
0.00106465
0.00106871
0.0010754
0.00108433
0.0010966
0.00111396
0.00113807
0.00116977
0.00120854
0.00125252
0.00129918
0.00134627
0.0013926
0.00143858
0.00148475
0.00153241
0.001585
0.00164587
0.00171718
0.00179873
0.00188736
0.00198134
0.00209175
0.0021111
)
;

boundaryField
{
    floor
    {
        type            nutkWallFunction;
        Cmu             0.09;
        kappa           0.41;
        E               9.8;
        value           nonuniform List<scalar> 
36
(
0.000160562
7.63673e-05
0.00010955
0.000110425
0.000107799
0.000103382
9.74386e-05
9.14723e-05
8.59388e-05
8.09175e-05
7.63858e-05
7.23208e-05
6.86461e-05
6.52778e-05
6.21149e-05
5.90183e-05
5.576e-05
5.30356e-05
4.74963e-05
4.74962e-05
6.15305e-05
7.04736e-05
7.78561e-05
9.3004e-05
0.000121362
0.000117054
0.000160562
0.000175012
0.000167265
0.000160449
7.63672e-05
0.000160449
0.000136025
0.000194689
0.000169852
0.000193912
)
;
    }
    ceiling
    {
        type            nutkWallFunction;
        Cmu             0.09;
        kappa           0.41;
        E               9.8;
        value           nonuniform List<scalar> 
43
(
0.000284303
0.000246321
0.000245167
0.000251792
0.00025726
0.000250099
0.000235992
0.000219212
0.000202004
0.000185302
0.000169537
0.000155302
0.000143541
0.000135191
0.000130441
0.000128481
0.000128287
0.000128769
0.000129552
0.000130593
0.000132015
0.000134019
0.000136799
0.000140452
0.000144917
0.000149976
0.000155335
0.000160731
0.000166022
0.000171253
0.000176487
0.000181862
0.00018776
0.000194554
0.000202476
0.000211496
0.000221255
0.000231573
0.000243634
0.000245643
0.000270457
0.000280428
0.000177582
)
;
    }
    sWall
    {
        type            nutkWallFunction;
        Cmu             0.09;
        kappa           0.41;
        E               9.8;
        value           nonuniform List<scalar> 9(0.000373891 0.000352063 0.000322938 0.000296583 0.000297492 0.000270547 0.00031443 0.00030193 0.000284404);
    }
    nWall
    {
        type            nutkWallFunction;
        Cmu             0.09;
        kappa           0.41;
        E               9.8;
        value           nonuniform List<scalar> 
14
(
0.000117062
0.000139504
0.000162841
0.000239853
0.000235955
0.000229731
0.000232069
0.000244379
0.00024682
0.00024501
0.000235701
0.000237219
0.000265664
0.00024568
)
;
    }
    sideWalls
    {
        type            empty;
    }
    glass1
    {
        type            nutkWallFunction;
        Cmu             0.09;
        kappa           0.41;
        E               9.8;
        value           nonuniform List<scalar> 9(0.000108251 0.000156887 0.000196744 0.00023436 0.000270806 0.000306159 0.000341776 0.000372096 0.000381387);
    }
    glass2
    {
        type            nutkWallFunction;
        Cmu             0.09;
        kappa           0.41;
        E               9.8;
        value           nonuniform List<scalar> 2(0.000208452 0.000237392);
    }
    sun
    {
        type            nutkWallFunction;
        Cmu             0.09;
        kappa           0.41;
        E               9.8;
        value           nonuniform List<scalar> 
14
(
0.000108209
0.000115182
0.000114767
0.000119629
0.000124063
0.000128075
0.000131796
0.000135373
0.000138963
0.000142768
0.000146387
0.000149817
0.000153187
0.000156801
)
;
    }
    Table_master
    {
        type            nutkWallFunction;
        Cmu             0.09;
        kappa           0.41;
        E               9.8;
        value           nonuniform List<scalar> 9(0.000139349 0.000121725 0.000107913 9.69555e-05 8.81278e-05 8.0926e-05 7.4997e-05 7.01354e-05 6.63186e-05);
    }
    Table_slave
    {
        type            nutkWallFunction;
        Cmu             0.09;
        kappa           0.41;
        E               9.8;
        value           nonuniform List<scalar> 9(0.000157763 0.000144099 0.000133417 0.000124451 0.000116747 0.000109775 0.000103154 9.65287e-05 8.93154e-05);
    }
    inlet
    {
        type            calculated;
        value           uniform 0.000167705;
    }
    outlet
    {
        type            calculated;
        value           nonuniform List<scalar> 2(0.00275785 0.00666749);
    }
}


// ************************************************************************* //
