/*--------------------------------*- C++ -*----------------------------------*\
  =========                 |
  \\      /  F ield         | OpenFOAM: The Open Source CFD Toolbox
   \\    /   O peration     | Website:  https://openfoam.org
    \\  /    A nd           | Version:  6
     \\/     M anipulation  |
\*---------------------------------------------------------------------------*/
FoamFile
{
    version     2.0;
    format      ascii;
    class       volScalarField;
    location    "500";
    object      epsilon;
}
// * * * * * * * * * * * * * * * * * * * * * * * * * * * * * * * * * * * * * //

dimensions      [0 2 -3 0 0 0 0];

internalField   nonuniform List<scalar> 
458
(
0.000110682
0.000120881
8.69502e-05
9.41214e-05
0.000103587
0.000113416
0.000123564
0.000134295
0.000146153
0.000158966
0.000171209
0.000182468
0.000192843
0.000203121
0.000211922
6.26867e-06
1.0805e-05
1.09265e-05
8.42061e-06
6.37314e-06
5.44667e-06
5.57929e-06
6.35044e-06
7.47992e-06
8.65235e-06
9.39118e-06
9.80573e-06
9.98135e-06
9.91898e-06
9.76956e-06
8.89264e-06
7.49812e-06
5.76262e-06
0.000570481
0.00125061
0.000129709
7.09351e-05
7.08325e-05
7.50901e-05
8.02006e-05
8.61723e-05
9.35228e-05
0.000102661
0.000113336
0.000126107
0.000141991
0.000162959
0.000197
0.000280085
0.000239044
7.02156e-05
3.12461e-05
2.59587e-05
2.02741e-05
1.60789e-05
1.38044e-05
1.30919e-05
1.69848e-05
2.16004e-05
2.59672e-05
2.95195e-05
3.18499e-05
3.2743e-05
3.17444e-05
2.86797e-05
2.29444e-05
1.65226e-05
1.28152e-05
8.82036e-06
0.00151388
0.00434826
0.000383895
9.33564e-05
7.59865e-05
7.95689e-05
8.63064e-05
9.4294e-05
0.000103358
0.000113653
0.000124729
0.000136485
0.00014904
0.000162149
0.000175657
0.000193062
0.000220189
0.000294248
7.98013e-05
6.33595e-05
4.3201e-05
3.48702e-05
2.78234e-05
1.35823e-05
1.56704e-05
1.86248e-05
2.19272e-05
2.56854e-05
3.00595e-05
3.52029e-05
4.19755e-05
5.2524e-05
3.59513e-05
3.47373e-05
3.47902e-05
2.7771e-05
0.0030748
0.00969929
0.00106213
0.000161878
9.47322e-05
9.3966e-05
0.000102418
0.000113448
0.000125825
0.000139138
0.000152286
0.000165219
0.000178578
0.000192192
0.000204292
0.000214221
0.000225651
0.000247017
0.00030788
8.85066e-05
7.01461e-05
6.82456e-05
7.4964e-05
9.06149e-05
0.000122238
0.00011465
0.000108774
0.000103909
0.000100437
9.9027e-05
0.000100699
0.000107066
0.000121071
7.05572e-05
8.37098e-05
0.000108669
0.000152348
0.00526168
0.016506
0.00251907
0.000372306
0.000153956
0.000131067
0.000136864
0.000150022
0.000166247
0.000183313
0.000197476
0.000210239
0.000224094
0.000239835
0.000254713
0.000264059
0.000263228
0.000244797
0.000200116
0.000139981
0.00011166
9.99775e-05
9.56851e-05
9.37591e-05
9.14157e-05
8.68993e-05
8.29924e-05
7.98634e-05
7.76596e-05
7.66913e-05
7.74485e-05
8.05954e-05
8.6884e-05
9.6835e-05
0.000118055
0.000153061
0.00020949
0.000293028
0.000246646
0.000149822
0.00806801
0.022344
0.00520346
0.00113052
0.000428677
0.000277397
0.000247374
0.000248851
0.000264299
0.000274299
0.000276714
0.000277178
0.000281705
0.000293282
0.000309847
0.000325101
0.00033034
0.000314401
0.000272903
0.000222966
0.000185755
0.000163132
0.000150114
0.000141657
0.000134618
0.000128069
0.000122425
0.00011765
0.000113708
0.000110773
0.000109345
0.000110448
0.000115918
0.000128711
0.000153126
0.000193312
0.00024962
0.000309589
0.000348645
0.000159253
0.0111055
0.0245838
0.00980976
0.00377451
0.00181188
0.000989538
0.000702998
0.00058259
0.00053886
0.000487481
0.000436771
0.00039437
0.000366166
0.000355503
0.000361993
0.000377591
0.000390375
0.000385855
0.000357275
0.000315453
0.000276479
0.000247614
0.000228033
0.000214316
0.000203585
0.000194531
0.000186797
0.000180113
0.000174295
0.000169373
0.000165711
0.000164277
0.000167246
0.000179145
0.000207901
0.000263041
0.000352293
0.000478663
0.000616119
0.000567922
0.011403
0.0271162
0.0162284
0.0115653
0.00695448
0.00403374
0.00251759
0.00171654
0.00124917
0.00095296
0.000748695
0.000606461
0.000511472
0.000454846
0.000430058
0.000428851
0.000439643
0.000446533
0.00043661
0.000410838
0.000379956
0.000352984
0.000332312
0.000316729
0.000304384
0.000293993
0.000284917
0.000276765
0.000269308
0.000262514
0.000256646
0.000252457
0.00025164
0.000258166
0.000281693
0.000341741
0.000468941
0.000710137
0.00109058
0.00102834
0.00999562
0.0155506
0.0361035
0.0274509
0.0166775
0.00982892
0.00592573
0.00372854
0.00244432
0.00166768
0.00119366
0.000901318
0.000721849
0.000615056
0.000557111
0.000532812
0.00053001
0.000535845
0.000538342
0.000532264
0.000519875
0.000505802
0.000493036
0.000482458
0.000473698
0.000465752
0.000458035
0.00045029
0.000442421
0.000434444
0.000426526
0.000419118
0.000413225
0.000411083
0.000417617
0.00044112
0.000485765
0.000565998
0.00111894
0.00124012
0.11122
0.0995132
0.0277371
0.012557
0.00691239
0.00421594
0.00277219
0.0019484
0.00145785
0.00116907
0.00100281
0.00091063
0.000862103
0.000838966
0.000831085
0.000832419
0.000838103
0.000844322
0.000849351
0.000853282
0.000856834
0.000860502
0.000864004
0.00086517
0.000863693
0.000859908
0.000854296
0.000847312
0.000839346
0.000830803
0.000822267
0.000814729
0.000809802
0.000808964
0.000808999
0.000808281
0.00093299
0.00137805
0.0735364
0.0525623
0.0206488
0.0102053
0.00594708
0.00392453
0.00288426
0.00233743
0.00206491
0.00194871
0.00192137
0.00193625
0.00196254
0.00198375
0.00199435
0.00199489
0.00198838
0.00197888
0.00197044
0.00196589
0.00196644
0.00197186
0.0019803
0.00198471
0.00198372
0.00197787
0.00196808
0.00195491
0.00193839
0.00191796
0.00189255
0.00186067
0.00182045
0.00176884
0.00170241
0.00161085
0.00187367
0.00191469
0.00153755
0.00389061
0.0254037
0.0178389
0.0107254
0.00670815
0.00443491
0.00311804
0.00233087
0.00185046
0.00155831
0.00139016
0.00130323
0.00126833
0.00126401
0.00127507
0.0012918
0.00130875
0.00132297
0.0013329
0.00133796
0.00133839
0.00133499
0.00132867
0.00132072
0.00131464
0.00130744
0.00129781
0.00128533
0.00126984
0.00125112
0.00122861
0.00120133
0.00116783
0.00112607
0.00107295
0.0010032
0.000908367
0.00084964
0.00077679
)
;

boundaryField
{
    floor
    {
        Cmu             0.09;
        kappa           0.41;
        E               9.8;
        type            epsilonWallFunction;
        value           nonuniform List<scalar> 
36
(
0.000211922
6.26867e-06
1.0805e-05
1.09265e-05
8.42061e-06
6.37314e-06
5.44667e-06
5.57929e-06
6.35044e-06
7.47992e-06
8.65235e-06
9.39118e-06
9.80573e-06
9.98135e-06
9.91898e-06
9.76956e-06
8.89264e-06
7.49812e-06
5.76262e-06
5.76262e-06
8.82036e-06
2.7771e-05
0.000152348
0.000293028
0.000246646
0.000149822
0.000211922
0.000280085
0.000239044
7.02156e-05
6.26867e-06
7.02156e-05
3.12461e-05
0.000294248
7.98013e-05
0.00030788
)
;
    }
    ceiling
    {
        Cmu             0.09;
        kappa           0.41;
        E               9.8;
        type            epsilonWallFunction;
        value           nonuniform List<scalar> 
43
(
0.00153755
0.00389061
0.0254037
0.0178389
0.0107254
0.00670815
0.00443491
0.00311804
0.00233087
0.00185046
0.00155831
0.00139016
0.00130323
0.00126833
0.00126401
0.00127507
0.0012918
0.00130875
0.00132297
0.0013329
0.00133796
0.00133839
0.00133499
0.00132867
0.00132072
0.00131464
0.00130744
0.00129781
0.00128533
0.00126984
0.00125112
0.00122861
0.00120133
0.00116783
0.00112607
0.00107295
0.0010032
0.000908367
0.00084964
0.00077679
0.00999562
0.0155506
0.0735364
)
;
    }
    sWall
    {
        Cmu             0.09;
        kappa           0.41;
        E               9.8;
        type            epsilonWallFunction;
        value           uniform 0.00153755;
    }
    nWall
    {
        Cmu             0.09;
        kappa           0.41;
        E               9.8;
        type            epsilonWallFunction;
        value           nonuniform List<scalar> 6(0.000149822 0.000159253 0.000567922 0.00137805 0.00191469 0.00077679);
    }
    sideWalls
    {
        type            empty;
    }
    glass1
    {
        Cmu             0.09;
        kappa           0.41;
        E               9.8;
        type            epsilonWallFunction;
        value           nonuniform List<scalar> 9(0.000110682 0.000570481 0.00151388 0.0030748 0.00526168 0.00806801 0.0111055 0.011403 0.00999562);
    }
    glass2
    {
        Cmu             0.09;
        kappa           0.41;
        E               9.8;
        type            epsilonWallFunction;
        value           nonuniform List<scalar> 2(0.00102834 0.00124012);
    }
    sun
    {
        Cmu             0.09;
        kappa           0.41;
        E               9.8;
        type            epsilonWallFunction;
        value           nonuniform List<scalar> 
14
(
0.000110682
0.000120881
8.69502e-05
9.41214e-05
0.000103587
0.000113416
0.000123564
0.000134295
0.000146153
0.000158966
0.000171209
0.000182468
0.000192843
0.000203121
)
;
    }
    Table_master
    {
        Cmu             0.09;
        kappa           0.41;
        E               9.8;
        type            epsilonWallFunction;
        value           nonuniform List<scalar> 9(1.35823e-05 1.56704e-05 1.86248e-05 2.19272e-05 2.56854e-05 3.00595e-05 3.52029e-05 4.19755e-05 5.2524e-05);
    }
    Table_slave
    {
        Cmu             0.09;
        kappa           0.41;
        E               9.8;
        type            epsilonWallFunction;
        value           nonuniform List<scalar> 9(0.000122238 0.00011465 0.000108774 0.000103909 0.000100437 9.9027e-05 0.000100699 0.000107066 0.000121071);
    }
    inlet
    {
        type            turbulentMixingLengthDissipationRateInlet;
        mixingLength    0.01;
        phi             phi;
        k               k;
        value           uniform 0.11122;
    }
    outlet
    {
        type            zeroGradient;
    }
}


// ************************************************************************* //
