/*--------------------------------*- C++ -*----------------------------------*\
  =========                 |
  \\      /  F ield         | OpenFOAM: The Open Source CFD Toolbox
   \\    /   O peration     | Website:  https://openfoam.org
    \\  /    A nd           | Version:  6
     \\/     M anipulation  |
\*---------------------------------------------------------------------------*/
FoamFile
{
    version     2.0;
    format      ascii;
    class       volScalarField;
    location    "500";
    object      k;
}
// * * * * * * * * * * * * * * * * * * * * * * * * * * * * * * * * * * * * * //

dimensions      [0 2 -2 0 0 0 0];

internalField   nonuniform List<scalar> 
458
(
0.000913664
0.000968961
0.000777861
0.000820059
0.000874155
0.000928615
0.000983214
0.00103935
0.00109966
0.00116303
0.001222
0.00127501
0.00132289
0.00136949
0.00140877
0.000134787
0.000193695
0.000195178
0.000164094
0.000136292
0.000122739
0.000124716
0.000135947
0.000151613
0.000167061
0.000176433
0.000181587
0.000183744
0.000182971
0.000181118
0.000170101
0.000151813
0.000127371
0.00272628
0.00557964
0.00155129
0.00135814
0.0014262
0.00152033
0.00161876
0.0017183
0.00181821
0.00192139
0.00201782
0.00209761
0.00214104
0.00210272
0.00191429
0.00169663
0.00152657
0.000674569
0.000393258
0.00046109
0.000419903
0.000362258
0.00032599
0.000321441
0.000394211
0.000478021
0.000553649
0.000610907
0.000641555
0.000646843
0.000623658
0.000576622
0.000516029
0.000391569
0.000293394
0.000169148
0.00522564
0.0137023
0.00280571
0.00181125
0.00183048
0.00194734
0.00208211
0.00222118
0.00236003
0.00249725
0.00262773
0.00274177
0.00282488
0.0028455
0.0027593
0.00255843
0.00220908
0.0017534
0.000734788
0.00100544
0.000739721
0.000566948
0.000417908
0.000225618
0.00024818
0.000278465
0.000310473
0.000344997
0.000383115
0.000425636
0.000478585
0.000555708
0.000683446
0.000636786
0.000561438
0.000363398
0.00838085
0.0253748
0.00540894
0.00234371
0.00216897
0.00228225
0.00244938
0.00263147
0.00281688
0.00299934
0.00317381
0.00333728
0.00348521
0.00359193
0.00359784
0.00343637
0.00305076
0.0023983
0.00180724
0.00155568
0.00140464
0.00124337
0.001127
0.00103258
0.000976215
0.000935355
0.000903095
0.000875941
0.000856297
0.000848245
0.000857746
0.000893513
0.000969816
0.00111199
0.00116895
0.0012123
0.00113038
0.0119901
0.0388254
0.0105476
0.00353844
0.00268081
0.00267714
0.00284052
0.00304954
0.0032715
0.00349104
0.00369621
0.00390278
0.00412719
0.00436184
0.00455768
0.00464984
0.00458715
0.00430308
0.0037368
0.0030724
0.00264729
0.00241534
0.00228742
0.00219522
0.00210309
0.00200657
0.00191707
0.00183314
0.00175498
0.00168537
0.00162973
0.00159557
0.00159066
0.00161879
0.00168918
0.00180709
0.00192505
0.00174833
0.00155859
0.00111792
0.0159435
0.0504004
0.0193975
0.0072824
0.00432973
0.00364931
0.00362122
0.00376676
0.00396335
0.00411818
0.00424693
0.00439368
0.00460188
0.00488395
0.00519846
0.00546265
0.00558411
0.00544768
0.00499958
0.00441147
0.0039184
0.00358371
0.00336886
0.00321504
0.00308074
0.00295283
0.00283379
0.00272135
0.00261262
0.00250637
0.00240405
0.00231121
0.00223963
0.00220802
0.00223913
0.00234398
0.00249064
0.00258704
0.00252068
0.00116434
0.0197286
0.0560001
0.0320312
0.0168868
0.0102401
0.00706667
0.00598054
0.00559928
0.00545818
0.00526602
0.00508556
0.00497577
0.0049906
0.00516342
0.00548132
0.00583564
0.00610899
0.0061601
0.00591959
0.00549084
0.00504729
0.00468864
0.00442444
0.00422456
0.00405786
0.00390914
0.0037741
0.00364886
0.00352965
0.00341387
0.00330062
0.00319148
0.00309259
0.00301956
0.00300112
0.00306362
0.00322374
0.00348904
0.00365777
0.00271753
0.0200794
0.0559588
0.0412079
0.0334408
0.0238114
0.0166833
0.0125202
0.0100903
0.00848083
0.00734616
0.00651338
0.00593061
0.00558624
0.00547995
0.00559784
0.00587576
0.00620341
0.00643005
0.00643839
0.00624145
0.00594889
0.00566227
0.0054212
0.00522368
0.00505568
0.00490636
0.0047703
0.00464366
0.00452343
0.00440804
0.00429817
0.00419781
0.00411552
0.00406702
0.00407796
0.00416716
0.0043779
0.00497864
0.00596516
0.00403785
0.0183912
0.0246926
0.0554453
0.0506673
0.0380372
0.0275982
0.0203148
0.0154375
0.0120961
0.00977129
0.00818511
0.0071294
0.0064699
0.00611898
0.00601844
0.00611589
0.00633972
0.00658556
0.00674787
0.00678158
0.00671282
0.00659354
0.00646232
0.0063365
0.00621937
0.00610729
0.00599754
0.00588857
0.00577928
0.00566909
0.00555853
0.00545054
0.0053523
0.00527905
0.00526046
0.00533464
0.00547975
0.00567453
0.0077644
0.00457485
0.145667
0.133203
0.0554898
0.0333645
0.0230588
0.0171087
0.0133741
0.0109521
0.00936446
0.00837794
0.00781176
0.00752923
0.00743165
0.0074558
0.0075629
0.00771964
0.00788638
0.00802663
0.00812313
0.00817862
0.00820479
0.00821254
0.00820642
0.00817914
0.00813166
0.00806754
0.00799019
0.00790207
0.00780467
0.00769922
0.00758781
0.00747489
0.00736827
0.00727267
0.00715546
0.00695182
0.00691721
0.00490817
0.0695677
0.0860676
0.0465978
0.0294844
0.0209447
0.0162152
0.0135145
0.0120299
0.0113295
0.0111224
0.0112038
0.0114116
0.0116359
0.0118219
0.0119573
0.0120503
0.0121137
0.0121599
0.0122003
0.0122428
0.012291
0.0123446
0.012395
0.0124079
0.0123838
0.0123294
0.0122508
0.0121512
0.0120298
0.0118818
0.0116992
0.0114712
0.011184
0.0108173
0.0103402
0.00966776
0.00985631
0.00611145
0.00527975
0.009804
0.0342506
0.0270592
0.0192757
0.0140972
0.0106984
0.00845896
0.00696747
0.00597381
0.00532725
0.00493681
0.00472881
0.00464403
0.00463349
0.00466046
0.00470116
0.00474217
0.00477645
0.00480033
0.00481246
0.00481351
0.00480535
0.00479017
0.00477107
0.00475642
0.00473903
0.00471573
0.00468543
0.00464772
0.00460192
0.00454653
0.00447897
0.00439531
0.0042899
0.00415392
0.0039719
0.0037175
0.00355551
0.0033492
)
;

boundaryField
{
    floor
    {
        type            kqRWallFunction;
        value           nonuniform List<scalar> 
36
(
0.00140877
0.000134787
0.000193695
0.000195178
0.000164094
0.000136292
0.000122739
0.000124716
0.000135947
0.000151613
0.000167061
0.000176433
0.000181587
0.000183744
0.000182971
0.000181118
0.000170101
0.000151813
0.000127371
0.000127371
0.000169148
0.000363398
0.00113038
0.00174833
0.00155859
0.00111792
0.00140877
0.00169663
0.00152657
0.000674569
0.000134787
0.000674569
0.000393258
0.0017534
0.000734788
0.00180724
)
;
    }
    ceiling
    {
        type            kqRWallFunction;
        value           nonuniform List<scalar> 
43
(
0.00527975
0.009804
0.0342506
0.0270592
0.0192757
0.0140972
0.0106984
0.00845896
0.00696747
0.00597381
0.00532725
0.00493681
0.00472881
0.00464403
0.00463349
0.00466046
0.00470116
0.00474217
0.00477645
0.00480033
0.00481246
0.00481351
0.00480535
0.00479017
0.00477107
0.00475642
0.00473903
0.00471573
0.00468543
0.00464772
0.00460192
0.00454653
0.00447897
0.00439531
0.0042899
0.00415392
0.0039719
0.0037175
0.00355551
0.0033492
0.0183912
0.0246926
0.0695677
)
;
    }
    sWall
    {
        type            kqRWallFunction;
        value           uniform 0.00527975;
    }
    nWall
    {
        type            kqRWallFunction;
        value           nonuniform List<scalar> 6(0.00111792 0.00116434 0.00271753 0.00490817 0.00611145 0.0033492);
    }
    sideWalls
    {
        type            empty;
    }
    glass1
    {
        type            kqRWallFunction;
        value           nonuniform List<scalar> 9(0.000913664 0.00272628 0.00522564 0.00838085 0.0119901 0.0159435 0.0197286 0.0200794 0.0183912);
    }
    glass2
    {
        type            kqRWallFunction;
        value           nonuniform List<scalar> 2(0.00403785 0.00457485);
    }
    sun
    {
        type            kqRWallFunction;
        value           nonuniform List<scalar> 
14
(
0.000913664
0.000968961
0.000777861
0.000820059
0.000874155
0.000928615
0.000983214
0.00103935
0.00109966
0.00116303
0.001222
0.00127501
0.00132289
0.00136949
)
;
    }
    Table_master
    {
        type            kqRWallFunction;
        value           nonuniform List<scalar> 9(0.000225618 0.00024818 0.000278465 0.000310473 0.000344997 0.000383115 0.000425636 0.000478585 0.000555708);
    }
    Table_slave
    {
        type            kqRWallFunction;
        value           nonuniform List<scalar> 9(0.000976215 0.000935355 0.000903095 0.000875941 0.000856297 0.000848245 0.000857746 0.000893513 0.000969816);
    }
    inlet
    {
        type            turbulentIntensityKineticEnergyInlet;
        intensity       0.05;
        value           uniform 0.145667;
    }
    outlet
    {
        type            zeroGradient;
    }
}


// ************************************************************************* //
