/*--------------------------------*- C++ -*----------------------------------*\
  =========                 |
  \\      /  F ield         | OpenFOAM: The Open Source CFD Toolbox
   \\    /   O peration     | Website:  https://openfoam.org
    \\  /    A nd           | Version:  6
     \\/     M anipulation  |
\*---------------------------------------------------------------------------*/
FoamFile
{
    version     2.0;
    format      ascii;
    class       volScalarField;
    location    "500";
    object      k;
}
// * * * * * * * * * * * * * * * * * * * * * * * * * * * * * * * * * * * * * //

dimensions      [0 2 -2 0 0 0 0];

internalField   nonuniform List<scalar> 
458
(
0.00229826
0.00272613
0.00285438
0.00313586
0.00340722
0.00367504
0.00395383
0.00424599
0.00449195
0.00464888
0.00466445
0.00449212
0.00408656
0.00327713
0.00190595
0.000464389
0.000638174
0.000822985
0.000898201
0.000871389
0.000762421
0.000650372
0.000557788
0.000483451
0.000423266
0.000374043
0.000333474
0.000299498
0.000270176
0.000243781
0.00021864
0.000203825
0.000171798
0.00416229
0.00762231
0.00422348
0.00445649
0.00481023
0.00524308
0.00575522
0.00633652
0.00695563
0.00747734
0.0077535
0.00768702
0.00726247
0.00645601
0.00520201
0.00332289
0.0022909
0.00152153
0.000455254
0.00098599
0.00133045
0.00149326
0.00150986
0.00128985
0.00104764
0.000851749
0.000702491
0.000588234
0.000499526
0.000428967
0.000371042
0.000322795
0.000288024
0.000268269
0.000492617
0.000293097
0.00614027
0.0137448
0.00499605
0.00481238
0.00504021
0.00539882
0.00588105
0.00649192
0.00716268
0.00773226
0.00808147
0.00813613
0.00786509
0.00720285
0.00615992
0.00499388
0.00400125
0.00213867
0.00107125
0.00141643
0.00163495
0.00177247
0.00176864
0.00138107
0.00105672
0.000819955
0.00065021
0.000527582
0.00043763
0.00037069
0.000320658
0.000284317
0.000265036
0.000268147
0.00077596
0.000407452
0.00840716
0.0223546
0.00602516
0.00479242
0.00484014
0.00512442
0.00560287
0.00632352
0.0070632
0.00764736
0.00803124
0.00815383
0.00793028
0.0073053
0.00642831
0.005561
0.00473821
0.00356988
0.00283027
0.00254844
0.00242033
0.00239343
0.00235184
0.00221517
0.00175985
0.00147664
0.00129648
0.00117006
0.00106786
0.00097213
0.000885286
0.00079805
0.00070208
0.000534308
0.000424903
0.00112605
0.000539349
0.0110921
0.0340963
0.00855879
0.00484096
0.00457534
0.00481699
0.00544345
0.00653201
0.00736387
0.00792951
0.00830222
0.00840746
0.00809063
0.00734585
0.00635774
0.00543657
0.0046941
0.00407408
0.00387785
0.00356463
0.00334113
0.00316253
0.00295097
0.00267649
0.00237792
0.00217053
0.0020408
0.00193754
0.00182764
0.00169069
0.00151513
0.00131613
0.00110485
0.000871213
0.000667063
0.00092065
0.00105367
0.000963131
0.00108218
0.00127953
0.0143804
0.0468465
0.0151607
0.00605864
0.00486221
0.00492121
0.00592663
0.00748498
0.00823074
0.00868123
0.00896358
0.00897534
0.00852301
0.00754416
0.00626224
0.00508994
0.00430077
0.00395457
0.00392832
0.00394128
0.00385302
0.00362891
0.00330253
0.00293561
0.00263287
0.00246596
0.00238008
0.00231056
0.00222244
0.00209375
0.00189981
0.0016647
0.00141142
0.00115382
0.000939967
0.000902515
0.00102706
0.00105081
0.00164724
0.00137702
0.0180211
0.0552043
0.02732
0.0126143
0.00855851
0.00769491
0.0088107
0.00945843
0.00971059
0.00987998
0.00998654
0.00984137
0.0091679
0.00787816
0.00624299
0.00481918
0.00400876
0.00386346
0.00403282
0.0041228
0.00399272
0.00368199
0.00328892
0.00291189
0.00264863
0.00253346
0.00250305
0.00249651
0.00248384
0.00244452
0.0023485
0.00215733
0.00191995
0.00166748
0.00146521
0.00137175
0.00145654
0.00168625
0.00223713
0.00194931
0.0189769
0.0568228
0.0383899
0.0273717
0.020042
0.0162582
0.0140175
0.0125278
0.0117724
0.011482
0.0113156
0.0109104
0.00988548
0.00815984
0.00609396
0.00450517
0.00380123
0.0037872
0.00391778
0.00388985
0.00364913
0.00328872
0.00292081
0.00263165
0.00247094
0.00243157
0.0024671
0.00254326
0.00264775
0.00277801
0.00293143
0.003069
0.00311281
0.00314531
0.00330076
0.00387913
0.00512786
0.00681937
0.012804
0.00466655
0.0182302
0.026474
0.0243596
0.0217109
0.0189121
0.0165168
0.0147482
0.013751
0.0133323
0.013105
0.0127454
0.0119473
0.0103004
0.00789184
0.00522874
0.0039505
0.00350317
0.00341629
0.00336107
0.00319603
0.00291805
0.00260778
0.00234547
0.00218037
0.00212119
0.00214533
0.00222431
0.0023423
0.00249505
0.00268338
0.00290842
0.00316818
0.00348619
0.00389716
0.00444178
0.00508726
0.00568196
0.00605166
0.0062307
0.00407217
0.00711171
0.0110055
0.0135142
0.0148675
0.0156619
0.0160605
0.0158319
0.0149772
0.0137018
0.0119058
0.00883704
0.00583862
0.00402623
0.00323885
0.00290733
0.00272997
0.00255516
0.00233856
0.00210567
0.00189479
0.0017498
0.00168412
0.0016851
0.00173347
0.00181555
0.00192592
0.0020656
0.00224087
0.00246395
0.00275809
0.00312387
0.0035597
0.00404312
0.00448208
0.00470498
0.00456898
0.00410814
0.00263843
0.00804956
0.0197054
0.0220553
0.0220669
0.0213565
0.019056
0.0158776
0.0123983
0.00908685
0.00630719
0.00432304
0.00320622
0.00264759
0.00233531
0.00212845
0.00194727
0.00176174
0.00158081
0.0014307
0.00133013
0.00127853
0.00127454
0.00131046
0.00138041
0.00148268
0.00161871
0.00179193
0.00200683
0.00227445
0.00260399
0.00300454
0.00347702
0.00399509
0.00449128
0.00479328
0.00507488
0.00429476
0.00270837
0.00892235
0.00937518
0.00979429
0.0121331
0.010832
0.00850089
0.00610755
0.00449338
0.00359122
0.00280659
0.00218119
0.00174658
0.0014104
0.00118625
0.00104469
0.000947127
0.000871956
0.000809884
0.000760658
0.000728725
0.00071754
0.000726921
0.000754931
0.000796465
0.00084986
0.000914877
0.000992245
0.00108367
0.00119223
0.00132338
0.00148032
0.00166522
0.00188251
0.00213725
0.00243419
0.00281575
0.00298795
0.0028651
0.00247941
0.002121
)
;

boundaryField
{
    floor
    {
        type            kqRWallFunction;
        value           nonuniform List<scalar> 
36
(
0.00190595
0.000464389
0.000638174
0.000822985
0.000898201
0.000871389
0.000762421
0.000650372
0.000557788
0.000483451
0.000423266
0.000374043
0.000333474
0.000299498
0.000270176
0.000243781
0.00021864
0.000203825
0.000171798
0.000171798
0.000293097
0.000407452
0.000539349
0.000963131
0.00108218
0.00127953
0.00190595
0.00332289
0.0022909
0.00152153
0.000464389
0.00152153
0.000455254
0.00213867
0.00107125
0.00283027
)
;
    }
    ceiling
    {
        type            kqRWallFunction;
        value           nonuniform List<scalar> 
43
(
0.00892235
0.00937518
0.00979429
0.0121331
0.010832
0.00850089
0.00610755
0.00449338
0.00359122
0.00280659
0.00218119
0.00174658
0.0014104
0.00118625
0.00104469
0.000947127
0.000871956
0.000809884
0.000760658
0.000728725
0.00071754
0.000726921
0.000754931
0.000796465
0.00084986
0.000914877
0.000992245
0.00108367
0.00119223
0.00132338
0.00148032
0.00166522
0.00188251
0.00213725
0.00243419
0.00281575
0.00298795
0.0028651
0.00247941
0.002121
0.0182302
0.026474
0.00804956
)
;
    }
    sWall
    {
        type            kqRWallFunction;
        value           uniform 0.00892235;
    }
    nWall
    {
        type            kqRWallFunction;
        value           nonuniform List<scalar> 6(0.00127953 0.00137702 0.00194931 0.00263843 0.00270837 0.002121);
    }
    sideWalls
    {
        type            empty;
    }
    glass1
    {
        type            kqRWallFunction;
        value           nonuniform List<scalar> 9(0.00229826 0.00416229 0.00614027 0.00840716 0.0110921 0.0143804 0.0180211 0.0189769 0.0182302);
    }
    glass2
    {
        type            kqRWallFunction;
        value           nonuniform List<scalar> 2(0.00466655 0.00407217);
    }
    sun
    {
        type            kqRWallFunction;
        value           nonuniform List<scalar> 
14
(
0.00229826
0.00272613
0.00285438
0.00313586
0.00340722
0.00367504
0.00395383
0.00424599
0.00449195
0.00464888
0.00466445
0.00449212
0.00408656
0.00327713
)
;
    }
    Table_master
    {
        type            kqRWallFunction;
        value           nonuniform List<scalar> 9(0.00138107 0.00105672 0.000819955 0.00065021 0.000527582 0.00043763 0.00037069 0.000320658 0.000284317);
    }
    Table_slave
    {
        type            kqRWallFunction;
        value           nonuniform List<scalar> 9(0.00175985 0.00147664 0.00129648 0.00117006 0.00106786 0.00097213 0.000885286 0.00079805 0.00070208);
    }
    inlet
    {
        type            turbulentIntensityKineticEnergyInlet;
        intensity       0.05;
        value           uniform 0.000937501;
    }
    outlet
    {
        type            zeroGradient;
    }
}


// ************************************************************************* //
