/*--------------------------------*- C++ -*----------------------------------*\
  =========                 |
  \\      /  F ield         | OpenFOAM: The Open Source CFD Toolbox
   \\    /   O peration     | Website:  https://openfoam.org
    \\  /    A nd           | Version:  6
     \\/     M anipulation  |
\*---------------------------------------------------------------------------*/
FoamFile
{
    version     2.0;
    format      ascii;
    class       volScalarField;
    location    "500";
    object      nut;
}
// * * * * * * * * * * * * * * * * * * * * * * * * * * * * * * * * * * * * * //

dimensions      [0 2 -1 0 0 0 0];

internalField   nonuniform List<scalar> 
458
(
0.000678794
0.000699029
0.000626291
0.00064305
0.00066392
0.000684288
0.000704119
0.00072394
0.000744651
0.000765807
0.000784984
0.000801829
0.000816748
0.00083101
0.000842846
0.000260832
0.000312505
0.00031378
0.000287794
0.000262319
0.00024893
0.000250903
0.000261926
0.000276579
0.000290307
0.000298319
0.000302642
0.000304426
0.000303767
0.000302198
0.000292836
0.000276636
0.000253374
0.00117258
0.00224043
0.00166977
0.0023403
0.00258447
0.00277036
0.00294055
0.00308369
0.00318137
0.00323645
0.00323324
0.00314016
0.00290557
0.00244189
0.00167414
0.00092497
0.000877394
0.000583259
0.000445453
0.00073711
0.000782707
0.000734553
0.00069284
0.000710301
0.000823451
0.000952081
0.00106239
0.00113785
0.00116306
0.00115006
0.00110273
0.0010434
0.00104452
0.000835179
0.000604533
0.000291938
0.00162341
0.0038861
0.00184551
0.00316267
0.00396859
0.00428926
0.00452073
0.00470898
0.00484992
0.00493842
0.00498237
0.00495701
0.00481879
0.00449414
0.003901
0.00305134
0.00199466
0.000940355
0.000608915
0.00143597
0.00113994
0.000829612
0.000564928
0.000337299
0.000353751
0.000374707
0.000395646
0.000417049
0.000439461
0.00046317
0.000491093
0.00052915
0.00116933
0.00105059
0.000815435
0.000427971
0.0020559
0.00597458
0.00247908
0.00305397
0.00446943
0.00498882
0.005272
0.00549341
0.0056756
0.00581903
0.00595308
0.00606692
0.00612173
0.00604175
0.00570262
0.00496113
0.00371211
0.00209567
0.000954754
0.00246097
0.00253144
0.00203879
0.00152488
0.00105899
0.000701659
0.000686788
0.000674815
0.000664569
0.000657051
0.00065393
0.00065756
0.000671111
0.00069917
0.00157726
0.00146912
0.00121719
0.000754839
0.00245905
0.00821927
0.00397477
0.00302668
0.00420126
0.00492143
0.00530575
0.005579
0.00579405
0.00598355
0.00622645
0.00652045
0.00684101
0.00713952
0.00733971
0.00736916
0.00719443
0.00680763
0.00628001
0.00606919
0.00564873
0.00525168
0.0049214
0.0046258
0.00435451
0.00416999
0.00398548
0.00378693
0.00356936
0.00333342
0.00308645
0.00284291
0.00262095
0.00243552
0.00217526
0.00192015
0.00159208
0.000938811
0.000886406
0.000750743
0.0028356
0.0102317
0.00650795
0.00422197
0.0039358
0.00432078
0.0047709
0.00513144
0.00534898
0.00556453
0.00586626
0.00626818
0.00676579
0.00731978
0.00784956
0.00826097
0.0084955
0.00849537
0.00824331
0.00785546
0.00743906
0.00708549
0.00680435
0.00656716
0.00634527
0.00612739
0.00590351
0.00566528
0.0054026
0.00510388
0.00475694
0.00435275
0.00389444
0.00340903
0.00294681
0.00255794
0.00223658
0.00194564
0.00164019
0.000766148
0.00315427
0.0114808
0.00941305
0.00679947
0.00520862
0.00454192
0.00457899
0.00484332
0.0049758
0.00511978
0.00532924
0.00565013
0.00612167
0.00674954
0.00746985
0.00811704
0.00860399
0.00885103
0.00882721
0.00860172
0.00829271
0.00799025
0.00772612
0.00749465
0.00727931
0.00706996
0.00686275
0.00665292
0.00643311
0.00619289
0.00591677
0.00558022
0.00514674
0.00458062
0.00389902
0.00321136
0.00265496
0.00228888
0.00195439
0.00117032
0.00318218
0.0103932
0.00941731
0.00870237
0.00733749
0.00621008
0.00560378
0.00533819
0.00518201
0.0050967
0.00509976
0.00521961
0.00549111
0.00594199
0.00655777
0.00724543
0.00787776
0.00833332
0.00854485
0.0085338
0.00838264
0.00817464
0.00795952
0.00775368
0.00755751
0.00736926
0.00718814
0.00701217
0.006838
0.00666162
0.00647849
0.00628203
0.00605774
0.00576627
0.00531316
0.00457327
0.00367838
0.00314139
0.0029365
0.00142694
0.00304546
0.00352881
0.00766341
0.00841669
0.00780779
0.00697424
0.00626797
0.0057525
0.00538731
0.0051527
0.0050514
0.0050754
0.00521905
0.0054788
0.00585152
0.00631811
0.00682494
0.00728431
0.00761234
0.00777638
0.00780105
0.0077357
0.00762325
0.00749001
0.0073491
0.0072075
0.00706789
0.00693058
0.00679446
0.00665786
0.00651955
0.00637949
0.00623931
0.00610133
0.00596364
0.00580625
0.00556337
0.00512021
0.00484902
0.00151891
0.0171704
0.0160469
0.00999097
0.00797861
0.00692289
0.00624862
0.00580695
0.00554066
0.00541371
0.00540351
0.00547673
0.00560275
0.00576572
0.00596329
0.00619404
0.00644309
0.00667884
0.00686754
0.00699201
0.00705522
0.00707099
0.00705417
0.0070151
0.00695915
0.00689036
0.00681197
0.00672586
0.00663255
0.00653147
0.00642152
0.00630177
0.00617219
0.00603386
0.00588438
0.005696
0.00538117
0.00461559
0.00157331
0.00592318
0.0126837
0.00946409
0.00766656
0.00663877
0.00602979
0.00569909
0.00557222
0.0055945
0.00571339
0.00587979
0.00605304
0.00620899
0.00634062
0.00645224
0.0065512
0.00664192
0.00672486
0.0067986
0.00686184
0.00691413
0.00695538
0.00698235
0.0069814
0.00695781
0.00691717
0.0068633
0.00679762
0.00671916
0.00662469
0.00650893
0.00636487
0.00618379
0.00595373
0.00565248
0.00522203
0.00466635
0.00175563
0.0016317
0.00222347
0.00415605
0.00369407
0.0031178
0.00266628
0.00232272
0.00206536
0.00187445
0.00173566
0.00163906
0.00157787
0.00154428
0.00153038
0.00152865
0.00153309
0.00153977
0.00154647
0.00155204
0.00155592
0.00155788
0.00155805
0.00155673
0.00155427
0.00155118
0.0015488
0.00154597
0.00154216
0.00153719
0.00153099
0.00152342
0.00151422
0.00150293
0.00148882
0.00147086
0.00144737
0.00141531
0.00136925
0.0013391
0.00129964
)
;

boundaryField
{
    floor
    {
        type            nutkWallFunction;
        Cmu             0.09;
        kappa           0.41;
        E               9.8;
        value           nonuniform List<scalar> 
36
(
0.000102063
2.79433e-05
3.50593e-05
3.52212e-05
3.16646e-05
2.81438e-05
2.62786e-05
2.65575e-05
2.80971e-05
3.01287e-05
3.20185e-05
3.3117e-05
3.3707e-05
3.3951e-05
3.38634e-05
3.36526e-05
3.23761e-05
3.01497e-05
2.69226e-05
2.69225e-05
3.22576e-05
5.04006e-05
9.14414e-05
0.000113536
0.000107297
9.09335e-05
0.000102063
0.000111873
0.000106201
7.0231e-05
2.79432e-05
7.0231e-05
5.26527e-05
0.000113694
7.3423e-05
0.000115392
)
;
    }
    ceiling
    {
        type            nutkWallFunction;
        Cmu             0.09;
        kappa           0.41;
        E               9.8;
        value           nonuniform List<scalar> 
43
(
0.000193049
0.000257925
0.000459097
0.00041207
0.000352569
0.000305166
0.00026854
0.000240731
0.000219866
0.000204552
0.000193815
0.000186977
0.000183211
0.00018165
0.000181454
0.000181953
0.000182702
0.000183454
0.000184079
0.000184513
0.000184732
0.000184751
0.000184602
0.000184325
0.000183977
0.000183709
0.00018339
0.000182962
0.000182404
0.000181708
0.000180857
0.000179823
0.000178552
0.000176964
0.000174939
0.000172286
0.000168658
0.000163429
0.000159995
0.000155492
0.000345041
0.000395113
0.000634634
)
;
    }
    sWall
    {
        type            nutkWallFunction;
        Cmu             0.09;
        kappa           0.41;
        E               9.8;
        value           uniform 0.000193091;
    }
    nWall
    {
        type            nutkWallFunction;
        Cmu             0.09;
        kappa           0.41;
        E               9.8;
        value           nonuniform List<scalar> 6(9.09329e-05 9.28098e-05 0.000140671 0.000186456 0.000206741 0.000155502);
    }
    sideWalls
    {
        type            empty;
    }
    glass1
    {
        type            nutkWallFunction;
        Cmu             0.09;
        kappa           0.41;
        E               9.8;
        value           nonuniform List<scalar> 9(8.2068e-05 0.000140988 0.000192243 0.000239932 0.000283415 0.00032335 0.000356716 0.000359631 0.000345389);
    }
    glass2
    {
        type            nutkWallFunction;
        Cmu             0.09;
        kappa           0.41;
        E               9.8;
        value           nonuniform List<scalar> 2(0.000170007 0.000180376);
    }
    sun
    {
        type            nutkWallFunction;
        Cmu             0.09;
        kappa           0.41;
        E               9.8;
        value           nonuniform List<scalar> 
14
(
8.21079e-05
8.45987e-05
7.56113e-05
7.76939e-05
8.02778e-05
8.27902e-05
8.52274e-05
8.76555e-05
9.01839e-05
9.27581e-05
9.50844e-05
9.71222e-05
9.89227e-05
0.00010064
)
;
    }
    Table_master
    {
        type            nutkWallFunction;
        Cmu             0.09;
        kappa           0.41;
        E               9.8;
        value           nonuniform List<scalar> 9(3.83969e-05 4.06021e-05 4.33914e-05 4.61592e-05 4.897e-05 5.18951e-05 5.49709e-05 5.85688e-05 6.34299e-05);
    }
    Table_slave
    {
        type            nutkWallFunction;
        Cmu             0.09;
        kappa           0.41;
        E               9.8;
        value           nonuniform List<scalar> 9(8.49188e-05 8.30946e-05 8.16226e-05 8.03605e-05 7.94337e-05 7.90503e-05 7.95023e-05 8.11793e-05 8.46355e-05);
    }
    inlet
    {
        type            calculated;
        value           uniform 0.0171704;
    }
    outlet
    {
        type            calculated;
        value           nonuniform List<scalar> 2(0.0016317 0.00222347);
    }
}


// ************************************************************************* //
