/*--------------------------------*- C++ -*----------------------------------*\
  =========                 |
  \\      /  F ield         | OpenFOAM: The Open Source CFD Toolbox
   \\    /   O peration     | Website:  https://openfoam.org
    \\  /    A nd           | Version:  6
     \\/     M anipulation  |
\*---------------------------------------------------------------------------*/
FoamFile
{
    version     2.0;
    format      ascii;
    class       surfaceScalarField;
    location    "500";
    object      phi;
}
// * * * * * * * * * * * * * * * * * * * * * * * * * * * * * * * * * * * * * //

dimensions      [1 0 -1 0 0 0 0];

internalField   nonuniform List<scalar> 
850
(
-0.00218906
0.00223979
-0.00235354
0.00016457
-0.00248361
0.000130157
-0.00264418
0.000160672
-0.00279426
0.00015018
-0.00291555
0.000121413
-0.00299781
8.23753e-05
-0.00303173
3.40564e-05
-0.00300705
-2.45457e-05
-0.00291016
-9.6748e-05
-0.00272487
-0.00018515
-0.00243313
-0.000291585
-0.00199723
-0.000435739
-0.00129065
-0.00070642
-0.00129076
7.05772e-05
-6.8554e-05
0.000184534
-0.000113833
0.000366987
-0.000182318
0.00052071
-0.000153601
0.000625838
-0.000105029
0.00071391
-8.79854e-05
0.00078092
-6.69318e-05
0.000830043
-4.90524e-05
0.000866093
-3.59855e-05
0.000890456
-2.43003e-05
0.000895211
-4.69416e-06
0.000878317
1.69629e-05
0.000842066
3.63245e-05
0.000781991
6.01399e-05
0.000668493
0.00011353
0.000506317
0.000162154
0.000292196
0.000214073
0.000293314
-0.00155928
0.00392991
-0.00200489
0.000610264
-0.00225182
0.000377185
-0.00244001
0.000348963
-0.00260003
0.000310299
-0.00273093
0.000252429
-0.00282852
0.000180082
-0.00288717
9.28363e-05
-0.00290029
-1.1296e-05
-0.00286296
-0.000133931
-0.00276985
-0.000278122
-0.00261041
-0.000450869
-0.00237196
-0.000674027
-0.00211118
-0.000967031
-0.00219541
-0.00120636
-0.00108403
-0.00111177
0.00012526
-0.00120963
0.000124724
0.000298623
-0.00036431
0.000285471
-0.000100392
0.000179289
-7.58427e-05
0.000121167
-9.52126e-05
7.77879e-05
-6.14807e-05
4.99112e-05
-6.0001e-05
2.61314e-05
-4.30664e-05
3.1018e-06
-2.59495e-05
-2.24457e-05
-1.03758e-05
-5.44888e-05
7.79639e-06
-8.76917e-05
2.85489e-05
-0.00011646
4.57418e-05
-0.000140307
6.01559e-05
-0.000155057
7.48523e-05
-0.000151808
0.000110222
-0.000155055
0.000165318
-0.000163975
0.000222879
0.000131158
-0.00113667
0.00525977
-0.00167936
0.00115304
-0.00195492
0.000652837
-0.00214431
0.00053845
-0.00229165
0.00045774
-0.00240769
0.000368576
-0.00249516
0.000267664
-0.0025533
0.000151084
-0.0025799
1.54321e-05
-0.00257335
-0.000140357
-0.00253478
-0.000316564
-0.00246614
-0.000519368
-0.00238066
-0.000759358
-0.00232299
-0.00102454
-0.00228934
-0.00123984
-0.00203069
-0.00137024
-0.00174092
-0.00149921
-0.00161706
-0.000882286
0.000520139
-0.001089
0.000106641
-0.00112852
-3.60036e-05
-0.00109612
-0.000127341
-0.000947851
-0.000209548
-0.0010076
-0.00105042
-0.00107614
-0.00108629
-0.00107831
-0.0010496
-0.00100374
-0.0009435
-0.000868595
-0.000692456
-6.60308e-05
-0.000498431
-2.88569e-05
-0.000199933
-7.57672e-05
-6.95885e-05
-0.000836011
0.00633937
-0.00139844
0.00171556
-0.00164341
0.000897901
-0.00181746
0.000712587
-0.00193938
0.000579757
-0.0020232
0.000452498
-0.00207936
0.000323926
-0.00211362
0.000185454
-0.0021289
3.08138e-05
-0.00212873
-0.00014041
-0.00212234
-0.000322846
-0.0021238
-0.000517785
-0.00215502
-0.00072801
-0.00224209
-0.000937338
-0.00237619
-0.0011056
-0.00253046
-0.0012158
-0.00276995
-0.00125954
-0.00333826
-0.00104855
-0.00289042
-0.000448786
-0.00230919
-6.08762e-05
-0.00219105
-1.13094e-05
-0.00215498
-7.18831e-05
-0.0021436
-0.000138532
-0.00218526
-0.000167699
-0.00205897
-0.000126255
-0.00194641
-0.000112524
-0.00183578
-0.000110601
-0.00172746
-0.000108282
-0.00162182
-0.000105618
-0.00151839
-0.000103409
-0.00141465
-0.000103731
-0.00130386
-0.0001108
-0.00117342
-0.000130472
-0.00105584
-0.000183512
-0.000843028
-0.000241586
-0.000569602
-0.000349105
-0.000643514
-0.000616362
0.00724189
-0.00117928
0.00227856
-0.00132878
0.00104749
-0.00145128
0.000835181
-0.00154341
0.000671971
-0.00158629
0.000495472
-0.00159303
0.000330767
-0.0015786
0.000171119
-0.00155082
3.1306e-06
-0.00152113
-0.000170011
-0.00150737
-0.000336503
-0.00152643
-0.000498628
-0.00159419
-0.000660146
-0.00171778
-0.000813638
-0.00188372
-0.000939533
-0.00207906
-0.00102032
-0.0023181
-0.00102035
-0.00252377
-0.000842722
-0.0024514
-0.000520984
-0.00224462
-0.000267482
-0.00208118
-0.000174563
-0.0019818
-0.000171088
-0.00192776
-0.000192387
-0.00189345
-0.000201823
-0.00182844
-0.000191081
-0.00175807
-0.000182714
-0.00169047
-0.000178021
-0.00162521
-0.000173363
-0.0015626
-0.000168057
-0.0015025
-0.000163344
-0.00144359
-0.000162475
-0.00138264
-0.000171591
-0.00131276
-0.00020021
-0.00123722
-0.000258926
-0.00111673
-0.000361944
-0.000917119
-0.000548597
-0.000705426
-0.00085509
0.000303014
-0.00101359
0.000942875
-0.000645029
0.000954622
-0.000580232
0.00814541
-0.00108066
0.00277906
-0.000940404
0.000907322
-0.000910649
0.000805515
-0.000996429
0.00075784
-0.00102322
0.000522355
-0.000981735
0.000289369
-0.000906882
9.63547e-05
-0.000824478
-7.91848e-05
-0.000756939
-0.000237465
-0.000723256
-0.000370101
-0.00073911
-0.000482691
-0.000814648
-0.000584522
-0.00094914
-0.000679055
-0.0011288
-0.000759773
-0.00133918
-0.000809835
-0.00155934
-0.000800072
-0.00171324
-0.000688682
-0.00173249
-0.000501586
-0.00165885
-0.000340968
-0.00157494
-0.000258308
-0.00151389
-0.00023197
-0.00147617
-0.000229939
-0.00144806
-0.000229759
-0.00141477
-0.000224198
-0.00137836
-0.000218954
-0.00134202
-0.000214182
-0.00130683
-0.000208389
-0.00127386
-0.000200852
-0.00124489
-0.000192157
-0.0012224
-0.000184804
-0.00120951
-0.000184333
-0.00120889
-0.000200685
-0.00121844
-0.000249239
-0.00122488
-0.000355377
-0.00121479
-0.000558569
-0.00117614
-0.000893642
-0.000929115
-0.00126051
-0.000426424
-0.00114761
0.00054928
-0.000755834
0.00925924
-0.000717429
0.00274074
-6.60076e-05
0.000255983
0.000152758
0.000586836
1.27655e-05
0.000897921
-7.10044e-05
0.000606213
-4.15314e-05
0.000259983
4.34089e-05
1.14996e-05
0.000134404
-0.000170097
0.000197948
-0.00030093
0.000222398
-0.000394475
0.000197687
-0.000457905
0.000116509
-0.000503269
-2.18865e-05
-0.000540584
-0.00020664
-0.000574938
-0.000418982
-0.000597403
-0.000629857
-0.000589098
-0.000789949
-0.00052848
-0.000866081
-0.000425333
-0.000878161
-0.000328756
-0.000867526
-0.0002688
-0.000857593
-0.000241753
-0.0008543
-0.000233077
-0.000853617
-0.000230284
-0.000850141
-0.000227515
-0.000843828
-0.000225107
-0.000835564
-0.000222286
-0.000825968
-0.000217827
-0.00081598
-0.000210683
-0.000807778
-0.000200205
-0.00080605
-0.000186383
-0.000819993
-0.000170246
-0.000865492
-0.000155048
-0.00096379
-0.00015081
-0.00113528
-0.00018377
-0.00140003
-0.000293704
-0.00178258
-0.000511002
-0.0021813
-0.000861732
-0.002044
-0.00128486
-0.00147841
0.00169533
0.0079663
0.00243138
0.00200476
0.00261052
7.69088e-05
0.00224508
0.000952362
0.00186906
0.00127402
0.00166523
0.000810122
0.00155216
0.000373138
0.00147775
8.59929e-05
0.00142458
-0.000116849
0.00137996
-0.000256239
0.00132122
-0.000335654
0.00123883
-0.000375445
0.00112683
-0.000391202
0.000981446
-0.000395136
0.000802408
-0.00039583
0.000599076
-0.000393998
0.000392864
-0.000382806
0.00021656
-0.000352087
9.43769e-05
-0.000303051
2.02223e-05
-0.000254492
-2.7205e-05
-0.000221254
-6.41278e-05
-0.000204702
-9.76277e-05
-0.000199443
-0.000128232
-0.000199539
-0.000154479
-0.000201126
-0.000176772
-0.00020267
-0.000195501
-0.000203412
-0.000210573
-0.000202612
-0.000221713
-0.000199401
-0.000228992
-0.000192787
-0.000233642
-0.000181598
-0.000239508
-0.000164251
-0.000255822
-0.000138611
-0.000303258
-0.000103258
-0.000426191
-6.07251e-05
-0.000703629
-1.61562e-05
-0.00123317
1.86436e-05
-0.00198881
-0.000106014
-0.00219899
-0.00107461
-0.00359942
0.00839688
0.0103824
0.00857755
0.0018818
0.00602581
0.00350416
0.00484347
0.00245644
0.0041396
0.00151406
0.00364127
0.000871549
0.00326998
0.000457353
0.00296881
0.000184391
0.00271094
1.70129e-06
0.00248907
-0.000113714
0.00229623
-0.000182537
0.00212031
-0.000215222
0.00194917
-0.000223931
0.00177277
-0.000219358
0.0015879
-0.000209065
0.00140142
-0.000196255
0.00122945
-0.00018005
0.00108707
-0.000160589
0.000975852
-0.000143182
0.000887614
-0.000132919
0.000813571
-0.000130553
0.000748266
-0.000134025
0.00068956
-0.000140716
0.000636907
-0.000148351
0.000588804
-0.000154443
0.000544796
-0.00015928
0.000505291
-0.000162983
0.000471294
-0.000165281
0.000444314
-0.000165688
0.000426372
-0.00016354
0.000420189
-0.000157959
0.000429602
-0.00014792
0.000459407
-0.000132967
0.000513267
-0.000114496
0.000592046
-9.48513e-05
0.000693346
-8.25778e-05
0.000754283
-0.000166879
0.000524806
-0.000845064
-0.0029867
-0.000520512
0.00235988
0.00115204
0.00183169
0.00247035
0.0011382
0.00303412
0.000950358
0.00322473
0.000681014
0.00327057
0.000411578
0.0032417
0.000213333
0.00316057
8.28968e-05
0.00305081
-3.88848e-06
0.00292671
-5.83724e-05
0.0027957
-8.41515e-05
0.00266139
-8.95609e-05
0.00252442
-8.23224e-05
0.00238476
-6.93352e-05
0.00224413
-5.55612e-05
0.00210761
-4.34704e-05
0.00198151
-3.44172e-05
0.0018687
-3.02964e-05
0.00176812
-3.22595e-05
0.00167721
-3.9554e-05
0.00159366
-5.0382e-05
0.00151608
-6.30433e-05
0.00144377
-7.59436e-05
0.00137482
-8.53877e-05
0.00130923
-9.35918e-05
0.00124757
-0.000101222
0.00119088
-0.000108493
0.00114088
-0.000115588
0.00110021
-0.000122775
0.00107288
-0.000130541
0.00106486
-0.00013982
0.00108439
-0.000152419
0.00114141
-0.000171452
0.00124674
-0.00020012
0.00140164
-0.000237419
0.00151474
-0.00027992
0.00121371
-0.00054398
-0.00175424
-0.000272204
0.00261731
0.00143203
0.000127525
0.00219277
0.000377539
0.0027032
0.000439997
0.00307763
0.000306655
0.00330386
0.000185413
0.00340737
0.000109896
0.00342396
6.63692e-05
0.00337772
4.24186e-05
0.00328237
3.70389e-05
0.00316094
3.73448e-05
0.0030313
4.01357e-05
0.00290581
4.32376e-05
0.00279071
4.58212e-05
0.00268762
4.75986e-05
0.00259595
4.82576e-05
0.00251438
4.72176e-05
0.00244041
4.37413e-05
0.00237069
3.7537e-05
0.00230214
2.90616e-05
0.00223268
1.91559e-05
0.00216108
8.63713e-06
0.00208665
-1.43227e-06
0.00201179
-1.04525e-05
0.00193762
-1.93323e-05
0.00186455
-2.80704e-05
0.00179312
-3.69862e-05
0.0017242
-4.65921e-05
0.00165916
-5.76648e-05
0.00160006
-7.13666e-05
0.00154975
-8.94464e-05
0.00151196
-0.000114576
0.00149137
-0.00015081
0.00149537
-0.000204076
0.00154297
-0.000284975
0.00168254
-0.00041945
0.00179865
-0.000660047
6.34532e-05
0.00456937
-0.00103578
0.00155862
0.00166122
0.0020104
0.00241842
0.0026895
0.00283599
0.00290399
0.00292599
0.00292216
0.00291174
0.00290103
0.00289298
0.0028882
0.00288635
0.00288667
0.00288805
0.00288878
0.00288638
0.00287812
0.00286168
0.00283563
0.00279935
0.00275327
0.00269849
0.00263515
0.00256337
0.00248296
0.00239319
0.00229257
0.00217841
0.00204629
0.00188908
0.00169555
0.00144852
0.00112014
0.000656481
-4.78694e-05
)
;

boundaryField
{
    floor
    {
        type            calculated;
        value           nonuniform List<scalar> 
36
(
0
0
0
0
0
0
0
0
0
0
0
0
0
0
0
0
0
0
0
-1.13157e-06
-1.96853e-06
7.89546e-07
4.42768e-06
5.26846e-06
5.30203e-06
5.64016e-06
2.89051e-07
5.7956e-07
5.24544e-07
3.02984e-07
-1.86875e-06
3.78686e-07
-2.54556e-06
1.06301e-06
-1.84509e-06
1.14306e-06
)
;
    }
    ceiling
    {
        type            calculated;
        value           nonuniform List<scalar> 
43
(
6.74629e-05
4.88001e-05
2.30058e-05
2.50067e-05
2.84466e-05
3.20567e-05
3.56415e-05
3.89954e-05
4.19672e-05
4.44372e-05
4.63114e-05
4.75231e-05
4.8125e-05
4.82512e-05
4.80724e-05
4.7737e-05
4.73432e-05
4.69424e-05
4.65582e-05
4.62003e-05
4.58702e-05
4.55638e-05
4.52735e-05
4.49922e-05
4.47094e-05
4.43936e-05
4.40762e-05
4.37726e-05
4.34904e-05
4.32352e-05
4.30138e-05
4.28364e-05
4.27184e-05
4.26809e-05
4.2753e-05
4.2979e-05
4.34333e-05
4.42277e-05
4.43413e-05
4.40496e-05
2.29804e-05
1.93283e-05
1.4866e-05
)
;
    }
    sWall
    {
        type            calculated;
        value           uniform -0.000130279;
    }
    nWall
    {
        type            calculated;
        value           nonuniform List<scalar> 6(-1.72192e-05 -2.09144e-05 -1.62804e-05 -1.87016e-05 -1.89939e-05 -2.83624e-05);
    }
    sideWalls
    {
        type            empty;
        value           nonuniform 0();
    }
    glass1
    {
        type            calculated;
        value           nonuniform List<scalar> 9(-5.06616e-05 -0.000130759 -0.000193119 -0.000243518 -0.000286092 -0.000323222 -0.000357925 -0.000402328 -0.000453504);
    }
    glass2
    {
        type            calculated;
        value           nonuniform List<scalar> 2(-7.79319e-05 -8.78555e-05);
    }
    sun
    {
        type            calculated;
        value           uniform 0;
    }
    Table_master
    {
        type            calculated;
        value           nonuniform List<scalar> 9(-1.51671e-07 -1.51611e-07 -1.51547e-07 -1.51489e-07 -1.51437e-07 -1.5139e-07 -1.5135e-07 -1.51318e-07 -1.5128e-07);
    }
    Table_slave
    {
        type            calculated;
        value           nonuniform List<scalar> 9(1.50513e-07 1.50553e-07 1.50581e-07 1.50605e-07 1.50627e-07 1.50648e-07 1.50666e-07 1.50685e-07 1.50693e-07);
    }
    inlet
    {
        type            calculated;
        value           uniform 4.25282e-05;
    }
    outlet
    {
        type            calculated;
        value           nonuniform List<scalar> 2(-0.0045063 0.00555658);
    }
}


// ************************************************************************* //
