// -*- C++ -*-
// File generated by PyFoam - sorry for the ugliness

FoamFile
{
 version 2.0;
 format ascii;
 class volScalarField;
 location "500";
 object T;
}

dimensions [ 0 0 0 1 0 0 0 ];

internalField nonuniform List<scalar> 458
(
  302.748
  302.47
  302.457
  302.453
  302.45
  302.446
  302.443
  302.438
  302.431
  302.422
  302.414
  302.41
  302.414
  302.429
  302.47
  302.619
  302.597
  302.589
  302.595
  302.602
  302.608
  302.613
  302.619
  302.625
  302.63
  302.636
  302.641
  302.647
  302.652
  302.658
  302.665
  302.673
  302.697
  302.933
  302.503
  302.478
  302.479
  302.48
  302.481
  302.478
  302.473
  302.458
  302.435
  302.412
  302.397
  302.399
  302.414
  302.435
  302.444
  302.454
  302.476
  302.625
  302.574
  302.57
  302.578
  302.589
  302.593
  302.595
  302.598
  302.6
  302.602
  302.604
  302.607
  302.609
  302.613
  302.619
  302.627
  302.639
  302.68
  303.129
  302.548
  302.508
  302.517
  302.53
  302.54
  302.544
  302.539
  302.514
  302.469
  302.42
  302.39
  302.388
  302.408
  302.429
  302.441
  302.45
  302.469
  302.582
  302.561
  302.563
  302.578
  302.597
  302.598
  302.599
  302.6
  302.601
  302.602
  302.603
  302.604
  302.605
  302.607
  302.613
  302.619
  302.631
  302.674
  303.329
  302.606
  302.54
  302.558
  302.588
  302.615
  302.634
  302.634
  302.592
  302.514
  302.433
  302.382
  302.378
  302.405
  302.434
  302.451
  302.458
  302.467
  302.476
  302.494
  302.524
  302.559
  302.594
  302.626
  302.651
  302.669
  302.683
  302.696
  302.706
  302.713
  302.719
  302.724
  302.726
  302.698
  302.668
  302.651
  302.677
  303.526
  302.681
  302.574
  302.591
  302.634
  302.684
  302.727
  302.737
  302.674
  302.557
  302.441
  302.372
  302.368
  302.404
  302.446
  302.473
  302.483
  302.489
  302.504
  302.53
  302.566
  302.606
  302.647
  302.683
  302.713
  302.735
  302.753
  302.766
  302.775
  302.78
  302.78
  302.776
  302.767
  302.744
  302.71
  302.678
  302.679
  302.771
  302.851
  302.853
  303.704
  302.78
  302.629
  302.62
  302.661
  302.72
  302.795
  302.817
  302.724
  302.573
  302.436
  302.36
  302.358
  302.407
  302.467
  302.512
  302.534
  302.545
  302.566
  302.598
  302.637
  302.679
  302.718
  302.752
  302.78
  302.8
  302.815
  302.825
  302.831
  302.832
  302.826
  302.816
  302.801
  302.778
  302.745
  302.709
  302.694
  302.733
  302.763
  302.805
  303.86
  302.943
  302.774
  302.723
  302.732
  302.777
  302.857
  302.852
  302.728
  302.55
  302.4
  302.329
  302.346
  302.42
  302.507
  302.571
  302.607
  302.628
  302.654
  302.686
  302.723
  302.761
  302.795
  302.823
  302.844
  302.859
  302.869
  302.874
  302.875
  302.872
  302.863
  302.848
  302.83
  302.807
  302.778
  302.745
  302.724
  302.731
  302.745
  302.776
  304.091
  303.407
  303.209
  303.069
  302.996
  302.985
  302.99
  302.874
  302.661
  302.445
  302.306
  302.274
  302.341
  302.458
  302.577
  302.657
  302.7
  302.724
  302.749
  302.779
  302.81
  302.84
  302.865
  302.884
  302.896
  302.904
  302.908
  302.908
  302.905
  302.899
  302.89
  302.876
  302.857
  302.837
  302.815
  302.792
  302.779
  302.786
  302.806
  302.956
  304.421
  304.104
  303.857
  303.617
  303.427
  303.291
  303.069
  302.717
  302.388
  302.188
  302.141
  302.217
  302.379
  302.55
  302.699
  302.762
  302.794
  302.815
  302.836
  302.86
  302.882
  302.902
  302.917
  302.927
  302.932
  302.934
  302.933
  302.931
  302.927
  302.922
  302.917
  302.915
  302.916
  302.92
  302.933
  302.957
  302.992
  303.028
  303.057
  303.123
  297.618
  299.311
  300.351
  300.785
  300.958
  301.156
  301.401
  301.693
  301.994
  302.277
  302.565
  302.736
  302.817
  302.853
  302.873
  302.89
  302.907
  302.923
  302.936
  302.946
  302.952
  302.956
  302.957
  302.957
  302.956
  302.956
  302.955
  302.955
  302.955
  302.956
  302.96
  302.968
  302.982
  303.002
  303.029
  303.057
  303.082
  303.106
  297.978
  299.384
  300.231
  300.681
  301.022
  301.384
  301.764
  302.167
  302.486
  302.687
  302.811
  302.874
  302.904
  302.922
  302.935
  302.946
  302.956
  302.964
  302.97
  302.973
  302.976
  302.976
  302.977
  302.977
  302.977
  302.977
  302.977
  302.978
  302.978
  302.98
  302.983
  302.988
  302.998
  303.012
  303.03
  303.052
  303.053
  303.087
  299.481
  299.441
  299.438
  300.48
  301.132
  301.672
  302.149
  302.474
  302.662
  302.792
  302.872
  302.917
  302.946
  302.964
  302.975
  302.983
  302.989
  302.994
  302.997
  302.999
  303.001
  303.001
  303
  303
  302.999
  302.998
  302.997
  302.997
  302.996
  302.996
  302.995
  302.996
  302.997
  302.999
  303.003
  303.013
  303.024
  303.032
  303.036
  303.077
)
;

boundaryField
{
  floor
  {
    type wallHeatTransfer;
    Tinf uniform 305.2;
    alphaWall uniform 0.24;
    value nonuniform List<scalar> 36
(
  302.78
  303.101
  303.033
  302.99
  302.983
  302.993
  303.017
  303.045
  303.072
  303.099
  303.125
  303.15
  303.173
  303.196
  303.218
  303.241
  303.266
  303.284
  303.334
  303.334
  303.226
  303.167
  303.125
  303.124
  303.179
  303.161
  302.78
  302.697
  302.745
  302.812
  303.101
  302.812
  303.109
  302.766
  302.949
  302.742
)
;
  }
  ceiling
  {
    type wallHeatTransfer;
    Tinf uniform 303.2;
    alphaWall uniform 0.24;
    value nonuniform List<scalar> 43
(
  299.71
  299.667
  299.661
  300.628
  301.25
  301.769
  302.225
  302.533
  302.71
  302.832
  302.907
  302.95
  302.978
  302.996
  303.007
  303.015
  303.021
  303.026
  303.029
  303.032
  303.033
  303.033
  303.032
  303.031
  303.03
  303.028
  303.027
  303.025
  303.024
  303.022
  303.021
  303.02
  303.02
  303.021
  303.024
  303.031
  303.041
  303.048
  303.053
  303.09
  304.364
  304.068
  298.311
)
;
  }
  sWall
  {
    type wallHeatTransfer;
    Tinf uniform 315.2;
    alphaWall uniform 0.36;
    value uniform 300.892;
  }
  nWall
  {
    type wallHeatTransfer;
    Tinf uniform 307.2;
    alphaWall uniform 0.36;
    value nonuniform List<scalar> 6
(
  303.657
  303.599
  303.483
  303.694
  303.672
  303.717
)
;
  }
  sideWalls
  {
    type empty;
  }
  glass1
  {
    type wallHeatTransfer;
    Tinf uniform 315.2;
    alphaWall uniform 4.3;
    value nonuniform List<scalar> 9
(
  311.267
  310.623
  310.213
  309.9
  309.637
  309.396
  309.195
  309.256
  309.481
)
;
  }
  glass2
  {
    type wallHeatTransfer;
    Tinf uniform 307.2;
    alphaWall uniform 4.3;
    value nonuniform List<scalar> 2
(
  305.554
  305.675
)
;
  }
  sun
  {
    type wallHeatTransfer;
    Tinf uniform 305.2;
    alphaWall uniform 0.24;
    value nonuniform List<scalar> 14
(
  303.007
  302.74
  302.723
  302.711
  302.7
  302.689
  302.679
  302.668
  302.657
  302.646
  302.638
  302.638
  302.65
  302.685
)
;
  }
  Table_master
  {
    type zeroGradient;
  }
  Table_slave
  {
    type zeroGradient;
  }
  inlet
  {
    type fixedValue;
    value uniform 295.15;
  }
  outlet
  {
    type zeroGradient;
  }
} 	// ************************************************************************* //

