/*--------------------------------*- C++ -*----------------------------------*\
  =========                 |
  \\      /  F ield         | OpenFOAM: The Open Source CFD Toolbox
   \\    /   O peration     | Website:  https://openfoam.org
    \\  /    A nd           | Version:  6
     \\/     M anipulation  |
\*---------------------------------------------------------------------------*/
FoamFile
{
    version     2.0;
    format      ascii;
    class       volScalarField;
    location    "500";
    object      T;
}
// * * * * * * * * * * * * * * * * * * * * * * * * * * * * * * * * * * * * * //

dimensions      [0 0 0 1 0 0 0];

internalField   nonuniform List<scalar> 
458
(
305.725
305.482
305.478
305.485
305.491
305.497
305.502
305.507
305.513
305.517
305.52
305.52
305.518
305.514
305.506
304.283
304.337
304.35
304.351
304.352
304.357
304.368
304.381
304.396
304.414
304.429
304.443
304.456
304.472
304.502
304.548
304.607
304.652
305.924
305.577
305.558
305.571
305.585
305.598
305.609
305.618
305.625
305.629
305.628
305.621
305.606
305.581
305.542
305.501
305.458
305.302
304.622
304.559
304.513
304.509
304.52
304.541
304.579
304.615
304.654
304.697
304.749
304.794
304.828
304.853
304.874
304.869
304.867
304.856
306.104
305.667
305.627
305.644
305.668
305.69
305.71
305.727
305.74
305.748
305.75
305.742
305.722
305.688
305.637
305.575
305.506
305.444
304.889
304.922
304.951
304.979
304.971
304.894
304.941
304.991
305.042
305.091
305.138
305.185
305.231
305.275
305.32
305.309
305.308
305.305
306.268
305.765
305.698
305.712
305.744
305.776
305.806
305.834
305.856
305.873
305.879
305.874
305.854
305.817
305.761
305.687
305.595
305.488
305.393
305.332
305.409
305.467
305.505
305.537
305.565
305.577
305.592
305.608
305.626
305.645
305.664
305.683
305.697
305.703
305.736
305.777
305.82
306.419
305.873
305.784
305.784
305.818
305.857
305.897
305.936
305.971
305.997
306.012
306.013
305.998
305.967
305.92
305.859
305.79
305.72
305.662
305.624
305.62
305.626
305.633
305.639
305.644
305.651
305.661
305.674
305.691
305.711
305.735
305.762
305.791
305.821
305.855
305.888
305.915
305.929
305.903
305.864
306.552
305.998
305.91
305.888
305.905
305.943
305.988
306.036
306.082
306.116
306.138
306.146
306.138
306.115
306.075
306.022
305.96
305.896
305.838
305.794
305.767
305.75
305.739
305.732
305.727
305.725
305.727
305.733
305.743
305.758
305.777
305.801
305.83
305.863
305.897
305.929
305.953
305.963
305.945
305.854
306.673
306.167
306.113
306.08
306.058
306.069
306.103
306.146
306.194
306.229
306.253
306.265
306.265
306.251
306.22
306.177
306.124
306.065
306.008
305.958
305.918
305.888
305.864
305.844
305.829
305.818
305.81
305.807
305.807
305.812
305.822
305.837
305.857
305.884
305.916
305.95
305.98
306
306.008
306.003
306.848
306.476
306.45
306.402
306.337
306.303
306.298
306.309
306.327
306.346
306.361
306.371
306.372
306.365
306.347
306.317
306.276
306.227
306.175
306.124
306.078
306.04
306.006
305.978
305.954
305.934
305.917
305.903
305.893
305.887
305.885
305.888
305.895
305.908
305.926
305.951
305.982
306.011
306.033
306.061
307.087
306.933
306.884
306.793
306.681
306.6
306.55
306.522
306.503
306.489
306.482
306.477
306.472
306.464
306.451
306.43
306.402
306.366
306.324
306.28
306.237
306.196
306.159
306.125
306.095
306.067
306.043
306.021
306.002
305.986
305.974
305.965
305.961
305.96
305.963
305.971
305.981
305.992
306.008
306.044
306.91
306.808
306.731
306.678
306.642
306.618
306.601
306.589
306.578
306.567
306.557
306.546
306.533
306.517
306.497
306.471
306.441
306.407
306.372
306.335
306.3
306.265
306.232
306.201
306.172
306.144
306.119
306.096
306.076
306.058
306.044
306.033
306.026
306.022
306.02
306.019
306.019
306.025
306.888
306.824
306.778
306.738
306.708
306.686
306.669
306.655
306.642
306.63
306.617
306.603
306.589
306.573
306.556
306.536
306.514
306.488
306.461
306.431
306.4
306.369
306.337
306.306
306.275
306.246
306.217
306.191
306.165
306.142
306.121
306.103
306.088
306.075
306.064
306.052
306.036
306.029
308.22
307.926
306.971
306.898
306.838
306.793
306.761
306.736
306.715
306.696
306.679
306.663
306.647
306.631
306.615
306.599
306.583
306.566
306.548
306.529
306.508
306.487
306.463
306.439
306.413
306.386
306.358
306.33
306.301
306.273
306.244
306.217
306.19
306.164
306.139
306.116
306.093
306.068
306.023
305.934
)
;

boundaryField
{
    floor
    {
        type            wallHeatTransfer;
        Tinf            uniform 305.2;
        alphaWall       uniform 0.24;
        value           nonuniform List<scalar> 
36
(
305.467
304.534
304.55
304.559
304.57
304.583
304.594
304.6
304.604
304.609
304.616
304.624
304.633
304.642
304.655
304.678
304.715
304.764
304.805
304.805
304.944
305.284
305.734
305.843
305.816
305.772
305.467
305.465
305.426
305.285
304.534
305.285
304.736
305.415
304.939
305.37
)
;
    }
    ceiling
    {
        type            wallHeatTransfer;
        Tinf            uniform 303.2;
        alphaWall       uniform 0.24;
        value           nonuniform List<scalar> 
43
(
307.83
307.64
306.836
306.751
306.672
306.606
306.553
306.509
306.471
306.439
306.411
306.388
306.368
306.352
306.337
306.323
306.309
306.295
306.279
306.262
306.243
306.223
306.202
306.179
306.155
306.13
306.104
306.077
306.05
306.023
305.996
305.97
305.944
305.918
305.893
305.869
305.844
305.814
305.768
305.682
306.906
306.779
306.79
)
;
    }
    sWall
    {
        type            wallHeatTransfer;
        Tinf            uniform 315.2;
        alphaWall       uniform 0.36;
        value           uniform 309.003;
    }
    nWall
    {
        type            wallHeatTransfer;
        Tinf            uniform 307.2;
        alphaWall       uniform 0.36;
        value           nonuniform List<scalar> 6(306.124 306.112 306.174 306.16 306.152 306.101);
    }
    sideWalls
    {
        type            empty;
    }
    glass1
    {
        type            wallHeatTransfer;
        Tinf            uniform 315.2;
        alphaWall       uniform 4.3;
        value           nonuniform List<scalar> 9(312.944 312.128 311.603 311.223 310.95 310.745 310.609 310.688 310.896);
    }
    glass2
    {
        type            wallHeatTransfer;
        Tinf            uniform 307.2;
        alphaWall       uniform 4.3;
        value           nonuniform List<scalar> 2(306.776 306.755);
    }
    sun
    {
        type            wallHeatTransfer;
        Tinf            uniform 305.2;
        alphaWall       uniform 0.24;
        value           nonuniform List<scalar> 
14
(
305.647
305.441
305.434
305.441
305.447
305.453
305.458
305.464
305.469
305.474
305.477
305.478
305.476
305.473
)
;
    }
    Table_master
    {
        type            zeroGradient;
    }
    Table_slave
    {
        type            zeroGradient;
    }
    inlet
    {
        type            fixedValue;
        value           uniform 295.15;
    }
    outlet
    {
        type            zeroGradient;
    }
}


// ************************************************************************* //
