/*--------------------------------*- C++ -*----------------------------------*\
  =========                 |
  \\      /  F ield         | OpenFOAM: The Open Source CFD Toolbox
   \\    /   O peration     | Website:  https://openfoam.org
    \\  /    A nd           | Version:  6
     \\/     M anipulation  |
\*---------------------------------------------------------------------------*/
FoamFile
{
    version     2.0;
    format      ascii;
    class       volScalarField;
    location    "4730";
    object      k;
}
// * * * * * * * * * * * * * * * * * * * * * * * * * * * * * * * * * * * * * //

dimensions      [0 2 -2 0 0 0 0];

internalField   nonuniform List<scalar> 
458
(
0.00226773
0.002686
0.00280874
0.00308392
0.00334874
0.00360959
0.00388044
0.00416523
0.00440553
0.00455994
0.00457753
0.00441293
0.00402239
0.00325527
0.00187334
0.000457624
0.000628916
0.000808406
0.000878888
0.000851593
0.000745756
0.000636839
0.000546667
0.000474104
0.000415283
0.000367107
0.000327362
0.000294041
0.000265249
0.000239309
0.000214605
0.000200564
0.00016941
0.00412328
0.0075529
0.00415031
0.00437424
0.00471604
0.00513518
0.005632
0.0061962
0.00680009
0.00731244
0.00758779
0.00753058
0.0071235
0.00635467
0.00513902
0.00326398
0.00224656
0.0014955
0.00045027
0.000973149
0.00130321
0.0014583
0.00147264
0.00125931
0.0010243
0.000833969
0.000688702
0.00057729
0.000490648
0.000421509
0.000364693
0.000317431
0.000283503
0.000264379
0.000493923
0.000292789
0.0060951
0.0136498
0.00491134
0.0047248
0.00494134
0.00528556
0.00575019
0.00634011
0.00699282
0.00754939
0.00789131
0.00794859
0.00769225
0.00705988
0.00603643
0.00488791
0.00391816
0.00208587
0.00106833
0.00139967
0.00160351
0.00173029
0.0017227
0.00134706
0.0010325
0.000802563
0.000637545
0.000518211
0.000430566
0.000365299
0.000316442
0.000280863
0.000262109
0.000265438
0.000780415
0.000408878
0.00835999
0.0222367
0.00592678
0.00470725
0.0047467
0.0050166
0.00547373
0.00616801
0.00689156
0.00746195
0.0078325
0.00795218
0.00774697
0.00714463
0.00628599
0.00543486
0.00463156
0.00349985
0.00276849
0.00250661
0.00237379
0.00233782
0.00228919
0.00215148
0.00170911
0.00143606
0.00126367
0.0011435
0.00104656
0.000954622
0.000871113
0.000787026
0.00069414
0.000530229
0.000422746
0.00113249
0.000542357
0.0110412
0.0339576
0.00842364
0.00474991
0.00448305
0.00470824
0.00529961
0.00635505
0.00718493
0.00773939
0.00809472
0.00819672
0.00789988
0.00718208
0.0062157
0.00530901
0.0045795
0.00397828
0.00379452
0.00347936
0.00325239
0.00307051
0.00285905
0.00259012
0.00230259
0.00210654
0.00198652
0.00189183
0.00178979
0.00166103
0.00149184
0.0012991
0.00109385
0.000865697
0.000664778
0.000922218
0.00106384
0.000969469
0.00108637
0.00128348
0.0143256
0.0466888
0.0149489
0.00592268
0.00474218
0.00478305
0.00570709
0.00726619
0.0080314
0.00847377
0.0087379
0.00874688
0.00831943
0.00737798
0.00612376
0.00496558
0.00418309
0.00384112
0.0038135
0.00382256
0.00373137
0.00350824
0.00318869
0.00283435
0.00254737
0.00239495
0.00232135
0.00226277
0.00218476
0.00206504
0.00187828
0.0016488
0.00140027
0.00114674
0.00093555
0.000900654
0.00103002
0.00105444
0.00165137
0.00138073
0.0179784
0.0550443
0.0270743
0.0123568
0.00830651
0.00741072
0.00850321
0.00920834
0.00948479
0.00964453
0.0097286
0.00958243
0.00894603
0.0077082
0.00610914
0.00469795
0.00388601
0.00373507
0.00389753
0.00398203
0.00385298
0.0035498
0.00317039
0.00281136
0.00256698
0.00246815
0.00245131
0.00245663
0.00245456
0.00242415
0.00233562
0.00214688
0.00191029
0.00165878
0.00145713
0.00136452
0.0014509
0.00168145
0.00223389
0.0019488
0.0189421
0.0568514
0.0383027
0.0271706
0.019741
0.0158798
0.0137247
0.0122881
0.0115359
0.0112118
0.0110092
0.0106094
0.00964613
0.00799424
0.00597365
0.00439182
0.00367694
0.00365496
0.00377945
0.0037498
0.0035165
0.00316979
0.00281983
0.00255033
0.00240793
0.00238367
0.0024313
0.00251747
0.00263051
0.00276744
0.00292575
0.0030669
0.00310916
0.003139
0.00329218
0.00386931
0.00511988
0.0068162
0.0128318
0.00467701
0.018204
0.0264671
0.0243623
0.0217106
0.0188863
0.0164643
0.0146538
0.0135901
0.0130861
0.012767
0.0123561
0.0115953
0.0100706
0.00776822
0.00515857
0.00385701
0.00340204
0.00330908
0.00325255
0.00309079
0.00282303
0.00252744
0.00228241
0.00213418
0.00208889
0.00212324
0.00220959
0.00233308
0.00249007
0.0026817
0.00290935
0.00317117
0.00348968
0.0039011
0.00444815
0.00509779
0.0056969
0.00606898
0.00624796
0.00408112
0.0071841
0.0110953
0.0135431
0.0147731
0.0154366
0.015707
0.0153762
0.0144498
0.0132102
0.0115849
0.00880985
0.00585902
0.00403631
0.00322546
0.00288131
0.00270022
0.00252793
0.00231818
0.00209088
0.00188811
0.00175207
0.00169317
0.00169793
0.00174775
0.00182983
0.0019393
0.00207753
0.00225115
0.00247287
0.00276577
0.00313121
0.00356696
0.00405085
0.00449026
0.00471235
0.00457253
0.00410646
0.00264217
0.00805113
0.0194682
0.0216062
0.0214961
0.0207236
0.018473
0.0153357
0.0120142
0.0088316
0.00623499
0.00435089
0.00326378
0.00271619
0.00241274
0.00221107
0.00203305
0.00184828
0.00166528
0.00150956
0.00139915
0.00133841
0.00132646
0.00135521
0.00141897
0.00151613
0.00164811
0.00181816
0.00203057
0.00229582
0.00262416
0.00302417
0.00349657
0.00401509
0.00451195
0.00481661
0.00510122
0.00428704
0.00271111
0.00890483
0.00935031
0.0097646
0.0120868
0.0107996
0.00848265
0.00603742
0.00437006
0.00348191
0.00273144
0.00214583
0.0017367
0.00142393
0.00120745
0.00106739
0.000970609
0.000896086
0.00083434
0.00078502
0.000752592
0.000740676
0.000749627
0.000776479
0.000816809
0.000869229
0.000933459
0.00101012
0.00110106
0.00120922
0.00134004
0.00149695
0.00168193
0.00189932
0.00215408
0.00245078
0.00283161
0.00300696
0.00288509
0.00249602
0.00213495
)
;

boundaryField
{
    floor
    {
        type            kqRWallFunction;
        value           nonuniform List<scalar> 
36
(
0.00187334
0.000457624
0.000628916
0.000808406
0.000878888
0.000851593
0.000745756
0.000636839
0.000546667
0.000474104
0.000415283
0.000367107
0.000327362
0.000294041
0.000265249
0.000239309
0.000214605
0.000200564
0.00016941
0.00016941
0.000292789
0.000408878
0.000542357
0.000969469
0.00108637
0.00128348
0.00187334
0.00326398
0.00224656
0.0014955
0.000457624
0.0014955
0.00045027
0.00208587
0.00106833
0.00276849
)
;
    }
    ceiling
    {
        type            kqRWallFunction;
        value           nonuniform List<scalar> 
43
(
0.00890483
0.00935031
0.0097646
0.0120868
0.0107996
0.00848265
0.00603742
0.00437006
0.00348191
0.00273144
0.00214583
0.0017367
0.00142393
0.00120745
0.00106739
0.000970609
0.000896086
0.00083434
0.00078502
0.000752592
0.000740676
0.000749627
0.000776479
0.000816809
0.000869229
0.000933459
0.00101012
0.00110106
0.00120922
0.00134004
0.00149695
0.00168193
0.00189932
0.00215408
0.00245078
0.00283161
0.00300696
0.00288509
0.00249602
0.00213495
0.018204
0.0264671
0.00805113
)
;
    }
    sWall
    {
        type            kqRWallFunction;
        value           uniform 0.00890483;
    }
    nWall
    {
        type            kqRWallFunction;
        value           nonuniform List<scalar> 6(0.00128348 0.00138073 0.0019488 0.00264217 0.00271111 0.00213495);
    }
    sideWalls
    {
        type            empty;
    }
    glass1
    {
        type            kqRWallFunction;
        value           nonuniform List<scalar> 9(0.00226773 0.00412328 0.0060951 0.00835999 0.0110412 0.0143256 0.0179784 0.0189421 0.018204);
    }
    glass2
    {
        type            kqRWallFunction;
        value           nonuniform List<scalar> 2(0.00467701 0.00408112);
    }
    sun
    {
        type            kqRWallFunction;
        value           nonuniform List<scalar> 
14
(
0.00226773
0.002686
0.00280874
0.00308392
0.00334874
0.00360959
0.00388044
0.00416523
0.00440553
0.00455994
0.00457753
0.00441293
0.00402239
0.00325527
)
;
    }
    Table_master
    {
        type            kqRWallFunction;
        value           nonuniform List<scalar> 9(0.00134706 0.0010325 0.000802563 0.000637545 0.000518211 0.000430566 0.000365299 0.000316442 0.000280863);
    }
    Table_slave
    {
        type            kqRWallFunction;
        value           nonuniform List<scalar> 9(0.00170911 0.00143606 0.00126367 0.0011435 0.00104656 0.000954622 0.000871113 0.000787026 0.00069414);
    }
    inlet
    {
        type            turbulentIntensityKineticEnergyInlet;
        intensity       0.05;
        value           uniform 0.000937501;
    }
    outlet
    {
        type            zeroGradient;
    }
}


// ************************************************************************* //
