/*--------------------------------*- C++ -*----------------------------------*\
  =========                 |
  \\      /  F ield         | OpenFOAM: The Open Source CFD Toolbox
   \\    /   O peration     | Website:  https://openfoam.org
    \\  /    A nd           | Version:  6
     \\/     M anipulation  |
\*---------------------------------------------------------------------------*/
FoamFile
{
    version     2.0;
    format      ascii;
    class       volScalarField;
    location    "130";
    object      nut;
}
// * * * * * * * * * * * * * * * * * * * * * * * * * * * * * * * * * * * * * //

dimensions      [0 2 -1 0 0 0 0];

internalField   nonuniform List<scalar> 
458
(
0.00122799
0.00135553
0.00140651
0.00148208
0.00155357
0.00162451
0.00170063
0.00176628
0.00181417
0.00183469
0.00181957
0.00176029
0.00157066
0.00135215
0.00114483
0.000576779
0.000677992
0.000796905
0.000863909
0.000864051
0.00080218
0.000734606
0.000675928
0.000626626
0.000585022
0.0005497
0.0005194
0.000493076
0.000469721
0.000447933
0.000425965
0.000404343
0.000368046
0.00158292
0.0039027
0.00378757
0.00439776
0.00503847
0.00565017
0.00609333
0.00654803
0.00698763
0.00736518
0.00763237
0.00773571
0.00756363
0.00690491
0.00470123
0.00148224
0.00126766
0.00103232
0.000566307
0.00148139
0.00233431
0.00298829
0.00313506
0.00211435
0.00173507
0.00149062
0.00131776
0.00119064
0.00109414
0.00101954
0.000955743
0.00088537
0.000814596
0.00075054
0.000792233
0.000417905
0.00187553
0.00529478
0.00472402
0.0055456
0.00600036
0.00633319
0.00658796
0.00691154
0.00732464
0.00781802
0.00833926
0.00878345
0.00896206
0.00871518
0.00778731
0.00585355
0.00426653
0.0012548
0.000746518
0.00156787
0.00257882
0.00355765
0.00376053
0.00109127
0.000936406
0.000809643
0.000708786
0.000628906
0.000565493
0.000514934
0.000475257
0.000447311
0.000519033
0.000625235
0.000921535
0.000454835
0.00215416
0.00655921
0.00476787
0.00572751
0.0059205
0.00594819
0.00603938
0.00625901
0.00665132
0.00723074
0.00792099
0.00853663
0.00890271
0.00895986
0.00863697
0.00777977
0.0063373
0.00336281
0.00140849
0.00167898
0.0024883
0.00369108
0.00482259
0.00493072
0.00126893
0.00115281
0.00106472
0.000992369
0.00093099
0.000874503
0.000818815
0.000760777
0.000696223
0.000638425
0.000636515
0.00103633
0.000498037
0.0024411
0.00819712
0.00505707
0.00559838
0.00579337
0.00566034
0.00565364
0.00581254
0.00620245
0.00684478
0.00758631
0.00823005
0.00863114
0.00876331
0.0086679
0.00832136
0.00755684
0.00609118
0.0052752
0.00565089
0.00633172
0.00706424
0.00757789
0.0075697
0.00636142
0.00564712
0.00516091
0.00477306
0.0043308
0.00383254
0.00327983
0.00267827
0.00205472
0.00149979
0.00111905
0.00110674
0.000800865
0.000616561
0.000670914
0.000740724
0.00275385
0.0100515
0.00666131
0.00561712
0.00587234
0.00573792
0.00566727
0.00574092
0.00609306
0.00675352
0.00754275
0.00820314
0.0085741
0.0086751
0.00864926
0.00860842
0.00852256
0.00828111
0.00841342
0.00898893
0.00945549
0.00971364
0.00970507
0.00939484
0.00874456
0.00808118
0.00746894
0.00685631
0.0062125
0.00552843
0.00479602
0.00401424
0.00320326
0.00243414
0.00183283
0.00144254
0.001114
0.00090983
0.00112738
0.000771003
0.00304413
0.0113357
0.00910598
0.00700767
0.0066521
0.00630587
0.00592704
0.00584574
0.00620891
0.00694901
0.0078088
0.00847849
0.00880511
0.00888549
0.00899665
0.00936564
0.0098273
0.0102218
0.0106957
0.0111463
0.0112873
0.0111469
0.0107725
0.0102167
0.00953666
0.00883479
0.00813452
0.00743382
0.00673214
0.00602652
0.00531809
0.00460676
0.00389109
0.0031861
0.00258157
0.0020915
0.00172273
0.001512
0.00138272
0.000922803
0.003108
0.00993022
0.00885811
0.00805671
0.00731747
0.00641474
0.00585065
0.00587714
0.00648227
0.00743752
0.00839029
0.00901448
0.00925264
0.009384
0.00985803
0.0106312
0.0111418
0.0115166
0.0118218
0.011953
0.011785
0.0113414
0.0107033
0.00994382
0.00912346
0.00829923
0.0075001
0.0067293
0.00599181
0.00531796
0.0047507
0.00429428
0.00387555
0.00345047
0.00312364
0.00293242
0.00289634
0.00289292
0.00329952
0.00139953
0.00303683
0.00362101
0.00395101
0.00404218
0.00406267
0.00423017
0.00479526
0.00582789
0.00714609
0.00841284
0.00930838
0.009632
0.00968997
0.0101535
0.0107493
0.0111953
0.0114579
0.011601
0.0116074
0.0113995
0.0109373
0.0102572
0.00942705
0.0085104
0.00756707
0.00663685
0.00573108
0.0048672
0.00409338
0.00346161
0.00299802
0.00269155
0.00250366
0.0023838
0.00230839
0.00225588
0.00218339
0.00206975
0.00193799
0.00132944
0.0010209
0.00192137
0.00332241
0.0050692
0.00690562
0.00849267
0.0095704
0.0100436
0.010074
0.0098215
0.00972722
0.00996674
0.0102001
0.0103062
0.0103144
0.0102139
0.00994255
0.00945461
0.00876074
0.00792343
0.00702334
0.00612879
0.00528211
0.00450078
0.00380038
0.00321107
0.00276323
0.00246137
0.00228198
0.00219165
0.00215998
0.00216102
0.00217055
0.00215797
0.00208605
0.00194304
0.00174737
0.0011178
0.00223429
0.0061049
0.00881429
0.0100812
0.0102977
0.0101321
0.00962884
0.00892307
0.00827986
0.00786305
0.00762956
0.0074824
0.00736729
0.00727486
0.00716967
0.00699265
0.00669218
0.00625564
0.0057173
0.00513852
0.00457692
0.00406716
0.00362161
0.00324145
0.00292592
0.00267348
0.00247932
0.00233622
0.00223836
0.0021831
0.00216818
0.0021858
0.00221667
0.00223157
0.00219112
0.00216952
0.00222777
0.00114966
0.00234563
0.00243742
0.00251913
0.00283197
0.00265232
0.0023674
0.00212441
0.00195215
0.00178848
0.00162518
0.00147714
0.00136168
0.00128359
0.00123467
0.00120277
0.00117777
0.00115246
0.00112223
0.00108533
0.00104318
0.000999065
0.000956406
0.000917524
0.000883521
0.000854824
0.000831818
0.000815171
0.000805734
0.00080433
0.000811634
0.000828153
0.000854249
0.000890159
0.000935768
0.00098966
0.00105135
0.00108042
0.00105139
0.00098663
0.000936339
)
;

boundaryField
{
    floor
    {
        type            nutkWallFunction;
        Cmu             0.09;
        kappa           0.41;
        E               9.8;
        value           nonuniform List<scalar> 
36
(
0.000137631
6.94433e-05
8.20283e-05
9.65307e-05
0.000104588
0.000104606
9.71688e-05
8.89686e-05
8.1775e-05
7.5673e-05
7.04786e-05
6.60331e-05
6.21919e-05
5.88319e-05
5.58324e-05
5.30172e-05
5.0161e-05
4.73312e-05
4.25369e-05
4.25368e-05
4.9105e-05
5.39047e-05
5.94585e-05
7.44042e-05
8.11395e-05
8.96981e-05
0.000137631
0.000176137
0.00015178
0.000124522
6.94432e-05
0.000124522
6.81259e-05
0.000150308
9.04128e-05
0.000167817
)
;
    }
    ceiling
    {
        type            nutkWallFunction;
        Cmu             0.09;
        kappa           0.41;
        E               9.8;
        value           nonuniform List<scalar> 
43
(
0.000270588
0.000280392
0.000289088
0.000322223
0.00030336
0.000273094
0.000246961
0.000228238
0.000210278
0.000192177
0.000175594
0.000162534
0.00015363
0.000148024
0.000144353
0.000141469
0.000138543
0.000135036
0.000130742
0.000125815
0.000120635
0.000115601
0.000110989
0.000106937
0.000103502
0.000100739
9.87334e-05
9.75934e-05
9.74221e-05
9.83012e-05
0.000100289
0.00010342
0.000107711
0.000113134
0.000119502
0.000126744
0.000130142
0.000126752
0.000119147
0.000113204
0.000343931
0.00040431
0.000258508
)
;
    }
    sWall
    {
        type            nutkWallFunction;
        Cmu             0.09;
        kappa           0.41;
        E               9.8;
        value           uniform 0.000270658;
    }
    nWall
    {
        type            nutkWallFunction;
        Cmu             0.09;
        kappa           0.41;
        E               9.8;
        value           nonuniform List<scalar> 6(8.96972e-05 9.33793e-05 0.000111592 0.000134508 0.000138206 0.000113209);
    }
    sideWalls
    {
        type            empty;
    }
    glass1
    {
        type            nutkWallFunction;
        Cmu             0.09;
        kappa           0.41;
        E               9.8;
        value           nonuniform List<scalar> 9(0.00014738 0.00018768 0.000220143 0.000250544 0.000281415 0.00031463 0.000345108 0.000351783 0.000344373);
    }
    glass2
    {
        type            nutkWallFunction;
        Cmu             0.09;
        kappa           0.41;
        E               9.8;
        value           nonuniform List<scalar> 2(0.000166859 0.000158893);
    }
    sun
    {
        type            nutkWallFunction;
        Cmu             0.09;
        kappa           0.41;
        E               9.8;
        value           nonuniform List<scalar> 
14
(
0.000147228
0.000161801
0.000167585
0.000176116
0.000184141
0.000192065
0.000200527
0.000207791
0.000213071
0.000215328
0.000213664
0.000207126
0.000186053
0.000161417
)
;
    }
    Table_master
    {
        type            nutkWallFunction;
        Cmu             0.09;
        kappa           0.41;
        E               9.8;
        value           nonuniform List<scalar> 9(0.000131419 0.000113222 9.80687e-05 8.58128e-05 7.59585e-05 6.80283e-05 6.16277e-05 5.65504e-05 5.29426e-05);
    }
    Table_slave
    {
        type            nutkWallFunction;
        Cmu             0.09;
        kappa           0.41;
        E               9.8;
        value           nonuniform List<scalar> 9(0.000151938 0.000138569 0.000128324 0.000119837 0.000112581 0.000105855 9.91732e-05 9.21528e-05 8.4269e-05);
    }
    inlet
    {
        type            calculated;
        value           uniform 0.000167705;
    }
    outlet
    {
        type            calculated;
        value           nonuniform List<scalar> 2(0.00234563 0.00243742);
    }
}


// ************************************************************************* //
