/*--------------------------------*- C++ -*----------------------------------*\
  =========                 |
  \\      /  F ield         | OpenFOAM: The Open Source CFD Toolbox
   \\    /   O peration     | Website:  https://openfoam.org
    \\  /    A nd           | Version:  6
     \\/     M anipulation  |
\*---------------------------------------------------------------------------*/
FoamFile
{
    version     2.0;
    format      ascii;
    class       surfaceScalarField;
    location    "130";
    object      phi;
}
// * * * * * * * * * * * * * * * * * * * * * * * * * * * * * * * * * * * * * //

dimensions      [1 0 -1 0 0 0 0];

internalField   nonuniform List<scalar> 
850
(
-0.00319239
0.00324945
-0.0045165
0.00132405
-0.00547445
0.000957897
-0.0061506
0.000676092
-0.00651131
0.000360652
-0.00651618
4.8182e-06
-0.0061164
-0.000399836
-0.00529443
-0.00082202
-0.00410822
-0.00118626
-0.00269723
-0.00141104
-0.00124361
-0.00145368
4.34188e-05
-0.00128709
0.000785562
-0.000742198
0.000905905
-0.000120399
0.000907714
-0.000951385
0.000953861
-0.00089012
-6.13382e-05
-0.000285003
-0.000605188
0.00040989
-0.000694964
0.000991522
-0.000581704
0.00133966
-0.000348209
0.00150033
-0.000160743
0.00158978
-8.95233e-05
0.00165052
-6.08149e-05
0.00169141
-4.09662e-05
0.00171712
-2.57817e-05
0.00172842
-1.13664e-05
0.00171714
1.12094e-05
0.00165961
5.74536e-05
0.00151464
0.000144894
0.00125433
0.000260245
0.000851845
0.000402409
0.00085486
-0.00229
0.00569507
-0.00349228
0.00252627
-0.0044393
0.00190486
-0.00510658
0.00134332
-0.00547554
0.000729553
-0.0055065
3.57243e-05
-0.00515478
-0.000751617
-0.00441808
-0.00155877
-0.00337841
-0.00222599
-0.00219266
-0.00259684
-0.0010331
-0.00261329
-5.77484e-05
-0.00226249
0.000709608
-0.00150961
0.00126051
-0.000671361
0.0020693
9.88749e-05
0.00177467
0.000297573
0.00114057
0.000637415
0.00115039
-8.82249e-05
0.00104973
0.000333839
-0.000483475
0.000777423
-0.00104884
0.00114418
-0.00106179
0.00143725
-0.000874841
0.00151148
-0.000422511
0.00152511
-0.000174452
0.00154081
-0.000105294
0.00155389
-7.39683e-05
0.00156231
-4.94604e-05
0.0015676
-3.11492e-05
0.00157006
-1.38929e-05
0.00156599
1.52039e-05
0.00152661
9.6754e-05
0.00136189
0.00030954
0.00107066
0.000551405
0.000675603
0.000797388
0.00153896
-0.00159101
0.00752622
-0.00256947
0.00350467
-0.00339164
0.00272698
-0.00396829
0.0019199
-0.00430121
0.00106242
-0.0043372
7.16571e-05
-0.00400246
-0.00108642
-0.00331753
-0.00224376
-0.00239739
-0.00314617
-0.00140976
-0.00358452
-0.000491738
-0.00353137
0.000259323
-0.00301361
0.000896435
-0.00214679
0.00141666
-0.00119165
0.00182827
-0.00031279
0.0017751
0.000350689
0.00131941
0.00109304
0.0024783
0.00130252
-0.000241926
0.0016832
-0.000864232
0.00175571
-0.00112141
0.00184247
-0.00114863
0.00206428
-0.00109673
0.00164185
0.00146748
0.00136227
0.00128838
0.001239
0.00120793
0.00119411
0.00120939
0.00130622
0.00110094
0.000514747
0.00084309
0.00080918
0.000498852
0.00114155
0.00205124
-0.00108077
0.0089202
-0.00179637
0.00422021
-0.00233418
0.00326473
-0.0027157
0.00230137
-0.0029415
0.00128815
-0.00291758
4.76794e-05
-0.00254023
-0.00146383
-0.00189656
-0.00288748
-0.00112861
-0.00391417
-0.000381287
-0.00433189
0.00026411
-0.00417682
0.000786211
-0.00353578
0.00123305
-0.00259369
0.00160372
-0.00156238
0.00189039
-0.000599514
0.00202918
0.000211836
0.002207
0.000915152
0.00334
0.00134524
0.00288392
0.000465129
0.00282198
-0.000180045
0.00261994
-0.000662246
0.00238365
-0.000885191
0.00215026
-0.000915308
0.00181246
-0.000758996
0.00213317
-0.000320931
0.00225532
-0.000122386
0.00230362
-4.85236e-05
0.00230554
-2.15857e-06
0.00226162
4.36927e-05
0.00216674
9.46423e-05
0.00200534
0.00016117
0.0017442
0.0002609
0.0013207
0.000423266
0.00109886
0.0007365
0.000797744
0.00111021
0.00043062
0.00150859
0.00249947
-0.000722063
0.0100182
-0.00120307
0.00470115
-0.00130758
0.00336917
-0.00138281
0.00237654
-0.00140122
0.00130649
-0.00119695
-0.000156652
-0.000724193
-0.00193665
-0.000149791
-0.00346193
0.000383069
-0.00444706
0.000814119
-0.00476299
0.00113464
-0.0044974
0.0013781
-0.0037793
0.00157262
-0.00278828
0.0017347
-0.00172454
0.00188665
-0.00075153
0.00205668
4.17335e-05
0.00234526
0.000626508
0.00281061
0.000879837
0.0028186
0.000457065
0.00271348
-7.49889e-05
0.00248135
-0.000430185
0.00220192
-0.000605838
0.00191924
-0.000632698
0.00168148
-0.000521319
0.00164804
-0.000287573
0.00163646
-0.000110886
0.00160522
-1.73616e-05
0.00156457
3.84003e-05
0.00152208
8.60966e-05
0.0014721
0.000144534
0.00140233
0.000230853
0.00129964
0.000363507
0.00116387
0.00055894
0.00105064
0.000849648
0.000946789
0.00121398
0.000765747
0.00168955
0.00115177
0.00211337
-0.00081848
0.00198598
-0.00150834
0.000703231
-0.00144923
-0.000595752
0.0110428
-0.000860606
0.00496595
-0.000379605
0.00288811
1.25372e-05
0.00198433
0.000351073
0.000967882
0.000852488
-0.000658138
0.00138928
-0.0024735
0.00179496
-0.00386765
0.00200921
-0.00466135
0.00207416
-0.00482797
0.00202339
-0.00444668
0.00190721
-0.0036632
0.00177236
-0.0026535
0.0016572
-0.00160947
0.00159927
-0.000693682
0.00162765
1.32748e-05
0.00177631
0.000477772
0.00202425
0.000631827
0.00209855
0.000382683
0.00198524
3.82408e-05
0.00177359
-0.000218616
0.00152291
-0.000355233
0.00127133
-0.000381212
0.00106029
-0.000310369
0.000942946
-0.000170315
0.0008826
-5.06312e-05
0.000846543
1.86028e-05
0.000829986
5.48653e-05
0.000832435
8.35549e-05
0.000850498
0.000126379
0.00087928
0.000201979
0.000916118
0.000326576
0.00096267
0.000512295
0.00104578
0.000766451
0.00120284
0.00105683
0.00146403
0.00142828
0.00189198
0.00168533
0.00218743
0.00169043
0.00173164
0.0011589
0.00033868
-0.000616443
0.0121355
-0.000381408
0.00473085
0.000883058
0.00162358
0.00168771
0.0011796
0.00242861
0.000226909
0.0031949
-0.00142449
0.00367685
-0.00295549
0.00381547
-0.00400629
0.0036468
-0.00449271
0.00325676
-0.00443796
0.00273687
-0.00392685
0.00217924
-0.00310566
0.00165653
-0.00213088
0.00122774
-0.00118079
0.000938896
-0.000404933
0.000819597
0.000132481
0.000871236
0.000426044
0.00100919
0.000493781
0.00105578
0.00033601
0.000979288
0.000114637
0.000822325
-6.17486e-05
0.000624657
-0.000157663
0.000421264
-0.000177918
0.000247642
-0.000136847
0.000137675
-6.04491e-05
8.4643e-05
2.30014e-06
7.19995e-05
3.11464e-05
9.16421e-05
3.51236e-05
0.000141481
3.36174e-05
0.000222218
4.55439e-05
0.000334754
8.93443e-05
0.000482255
0.000178976
0.00066807
0.000326382
0.000905264
0.000529162
0.00121142
0.000750579
0.00162479
0.00101481
0.00217559
0.00113444
0.00286718
0.000998754
0.00298239
0.00104359
0.00338032
0.00293475
0.0097332
0.00372743
0.00393812
0.00411305
0.00123788
0.0048125
0.000480081
0.00570598
-0.000666651
0.00624648
-0.00196504
0.00627517
-0.00298421
0.00583408
-0.00356521
0.00503714
-0.00369577
0.00402938
-0.00343024
0.00294156
-0.00283909
0.00190408
-0.00206828
0.00100726
-0.00123418
0.000330329
-0.000503973
-7.16783e-05
-3.03815e-06
-0.000214554
0.000275251
-0.000181177
0.000392563
-8.78027e-05
0.000400302
-5.15876e-05
0.00029969
-9.97621e-05
0.000162704
-0.000210865
4.9245e-05
-0.00035376
-1.48785e-05
-0.000499885
-3.19039e-05
-0.00062121
-1.56334e-05
-0.000695964
1.41931e-05
-0.000724976
3.12026e-05
-0.000720586
2.66488e-05
-0.000692425
6.85535e-06
-0.000639947
-1.89651e-05
-0.00055506
-3.94469e-05
-0.000428764
-3.70559e-05
-0.00025823
8.33703e-06
-3.37637e-05
0.000101812
0.000250543
0.000244754
0.000574888
0.000426136
0.000957845
0.000631762
0.00138862
0.000703581
0.00176591
0.000621368
0.0011298
0.00167961
0.00475223
0.0103198
0.0142525
0.0129152
0.00257519
0.0121975
0.00119772
0.0114508
7.99266e-05
0.0103252
-0.000839386
0.00885953
-0.00151849
0.00717687
-0.00188253
0.00540566
-0.00192457
0.0036767
-0.00170134
0.00206245
-0.00122496
0.000669932
-0.000675892
-0.00037067
-0.000193719
-0.000982476
0.000107703
-0.00123173
0.000246088
-0.00127213
0.000315537
-0.00122467
0.000344983
-0.00115576
0.000331273
-0.00112678
0.000270587
-0.00115514
0.000190946
-0.00122724
0.000121222
-0.00131878
7.65401e-05
-0.0014087
5.78926e-05
-0.00148145
5.69902e-05
-0.00152955
6.21764e-05
-0.0015618
6.33326e-05
-0.00159325
5.798e-05
-0.00163682
5.03021e-05
-0.00170501
4.91015e-05
-0.00181141
6.68361e-05
-0.00196689
0.00011831
-0.00217917
0.000220506
-0.0024725
0.00039503
-0.0028922
0.00066435
-0.0035072
0.00104103
-0.00439283
0.00151729
-0.00568599
0.00199663
-0.00726915
0.00220443
-0.00697038
0.00138073
-0.0019561
0.0090919
0.00422731
0.0074821
0.00280767
0.00675196
0.000810304
0.00593493
-2.2218e-05
0.00477123
-0.000354746
0.0033873
-0.000498638
0.00191756
-0.000454935
0.000466235
-0.00025016
-0.00078982
3.0907e-05
-0.00165273
0.00018686
-0.00209592
0.000249334
-0.00225952
0.000271165
-0.00228787
0.000274309
-0.00225017
0.000277699
-0.00218456
0.00027924
-0.00212209
0.000268671
-0.00209101
0.000239372
-0.00209949
0.00019929
-0.0021387
0.000160294
-0.00219276
0.00013047
-0.00224718
0.000112177
-0.00229372
0.000103394
-0.00233185
0.000100178
-0.00236784
9.9184e-05
-0.00240965
9.96633e-05
-0.00246303
0.000103554
-0.00252994
0.000115882
-0.0026088
0.000145561
-0.0026962
0.000205593
-0.00278925
0.000313433
-0.0028858
0.000491458
-0.00298297
0.000761408
-0.00306964
0.00112757
-0.00310953
0.00155707
-0.00306513
0.00195212
-0.00275188
0.00189105
-0.00141165
4.03665e-05
-0.00330215
-0.00100528
0.00528563
-0.000323882
0.00212629
-0.000562135
0.00104851
-0.000986108
0.000401675
-0.00144651
0.000105543
-0.00202544
8.01567e-05
-0.00261641
0.000135892
-0.00307077
0.000204048
-0.0032921
0.00025208
-0.00335908
0.000253688
-0.00334072
0.000230832
-0.00327342
0.000203721
-0.00318383
0.000184574
-0.00308344
0.000177159
-0.00298122
0.000176875
-0.00288896
0.000176269
-0.00281971
0.000169976
-0.00277918
0.000158614
-0.00276456
0.000145522
-0.00276803
0.0001338
-0.002781
0.000125001
-0.00279683
0.000119075
-0.00281167
0.000114874
-0.00282369
0.000111058
-0.00283144
0.000107264
-0.00283281
0.000104787
-0.00282409
0.000107024
-0.0027984
0.00011973
-0.00274404
0.000151089
-0.00264285
0.000212115
-0.00246957
0.000318048
-0.00219663
0.000488338
-0.0017957
0.000726515
-0.00121868
0.000979925
-0.000286489
0.0010198
0.00108661
0.000517821
0.00174336
-0.000616526
-0.00148724
-0.0111249
-0.0145861
-0.00926859
-0.00712486
-0.00606661
-0.00566071
-0.00555464
-0.00547656
-0.00534493
-0.00514712
-0.004903
-0.00465868
-0.0044383
-0.00424582
-0.00407311
-0.00390835
-0.0037444
-0.00358161
-0.0034257
-0.00328177
-0.00315152
-0.00303352
-0.00292477
-0.00282231
-0.00272431
-0.0026303
-0.00254013
-0.00245237
-0.00236215
-0.00225886
-0.00212373
-0.00192697
-0.00162359
-0.0011492
-0.000435926
0.000531399
0.0015387
0.00204339
0.00141261
)
;

boundaryField
{
    floor
    {
        type            calculated;
        value           nonuniform List<scalar> 
36
(
0
0
0
0
0
0
0
0
0
0
0
0
0
0
0
0
0
0
0
-3.09147e-06
-8.57949e-06
-1.35018e-05
-1.76951e-05
-1.58335e-05
-1.35148e-05
-1.2716e-05
-1.86346e-06
-3.00077e-06
-3.37781e-06
-3.91905e-06
-2.55008e-06
-5.95522e-06
-7.71622e-06
-8.54543e-06
-1.09427e-05
-9.11527e-06
)
;
    }
    ceiling
    {
        type            calculated;
        value           nonuniform List<scalar> 
43
(
-3.36774e-05
-3.28093e-05
-3.19749e-05
-1.75912e-05
-9.89995e-06
-4.37943e-06
-6.86139e-07
1.92636e-06
4.11576e-06
6.07888e-06
7.80687e-06
9.21875e-06
1.02941e-05
1.10904e-05
1.17098e-05
1.22463e-05
1.27699e-05
1.33229e-05
1.39154e-05
1.45253e-05
1.51142e-05
1.56459e-05
1.60971e-05
1.64577e-05
1.67237e-05
1.68888e-05
1.69407e-05
1.68646e-05
1.66495e-05
1.62934e-05
1.58053e-05
1.52057e-05
1.45249e-05
1.38038e-05
1.31022e-05
1.24636e-05
1.2365e-05
1.29817e-05
1.41082e-05
1.62598e-05
8.0665e-06
5.30601e-06
-5.302e-05
)
;
    }
    sWall
    {
        type            calculated;
        value           uniform -0.000216043;
    }
    nWall
    {
        type            calculated;
        value           nonuniform List<scalar> 6(-4.65304e-05 -5.63932e-05 -5.93575e-05 -6.57617e-05 -7.17091e-05 -9.10568e-05);
    }
    sideWalls
    {
        type            empty;
        value           nonuniform 0();
    }
    glass1
    {
        type            calculated;
        value           nonuniform List<scalar> 9(-5.71213e-05 -0.000155676 -0.000240186 -0.000313275 -0.000375968 -0.00042887 -0.000476372 -0.000532489 -0.000594701);
    }
    glass2
    {
        type            calculated;
        value           nonuniform List<scalar> 2(-0.000242212 -0.000262163);
    }
    sun
    {
        type            calculated;
        value           uniform 0;
    }
    Table_master
    {
        type            calculated;
        value           nonuniform List<scalar> 9(-1.52996e-07 -1.5319e-07 -1.53249e-07 -1.5328e-07 -1.53296e-07 -1.53302e-07 -1.533e-07 -1.53286e-07 -1.53238e-07);
    }
    Table_slave
    {
        type            calculated;
        value           nonuniform List<scalar> 9(1.52771e-07 1.52781e-07 1.52748e-07 1.52732e-07 1.52718e-07 1.52721e-07 1.52743e-07 1.5279e-07 1.52874e-07);
    }
    inlet
    {
        type            calculated;
        value           uniform -0.0107439;
    }
    outlet
    {
        type            calculated;
        value           nonuniform List<scalar> 2(0.0113745 0.00349388);
    }
}


// ************************************************************************* //
