/*--------------------------------*- C++ -*----------------------------------*\
  =========                 |
  \\      /  F ield         | OpenFOAM: The Open Source CFD Toolbox
   \\    /   O peration     | Website:  https://openfoam.org
    \\  /    A nd           | Version:  6
     \\/     M anipulation  |
\*---------------------------------------------------------------------------*/
FoamFile
{
    version     2.0;
    format      ascii;
    class       volScalarField;
    location    "34599.9999980618231";
    object      nut;
}
// * * * * * * * * * * * * * * * * * * * * * * * * * * * * * * * * * * * * * //

dimensions      [0 2 -1 0 0 0 0];

internalField   nonuniform List<scalar> 
778
(
0.000894335
0.000953079
0.000949577
0.00099076
0.0010285
0.00106277
0.00109468
0.00112545
0.00115642
0.00118936
0.00122077
0.00125063
0.00128005
0.00131169
0.0013447
0.000632229
0.00090562
0.000912965
0.000890893
0.000853923
0.000804482
0.000755215
0.000709864
0.000669008
0.000632388
0.000599754
0.000570437
0.000543725
0.000518788
0.000494518
0.00046914
0.000448052
0.000405566
0.00131082
0.00258122
0.00226513
0.0026145
0.00286796
0.00313662
0.00340457
0.00365147
0.00385022
0.00396597
0.00403404
0.0040061
0.00380643
0.00331158
0.0024186
0.00147239
0.00140379
0.00134373
0.00113114
0.00192691
0.00267125
0.00311109
0.00313181
0.00247107
0.00211341
0.00186544
0.00167714
0.00152734
0.00139967
0.00128686
0.00118189
0.00107919
0.000987037
0.000907584
0.00102199
0.000514215
0.0016641
0.00360457
0.00267223
0.00382247
0.00427122
0.00465086
0.00499556
0.00529887
0.00555582
0.00575736
0.00595262
0.00615819
0.00634726
0.00645999
0.00638585
0.00584738
0.00427668
0.00164825
0.0014267
0.00305151
0.00425934
0.00483173
0.00439534
0.00115987
0.00100863
0.000891886
0.000800495
0.000727752
0.000669038
0.000621162
0.000582234
0.000551892
0.000606649
0.000713548
0.00112927
0.000585029
0.00200536
0.00485874
0.00255723
0.00429815
0.00496275
0.00531829
0.00557963
0.00577289
0.00591705
0.00603391
0.00620002
0.00648085
0.00689079
0.00740639
0.00792476
0.00818031
0.00768196
0.00573223
0.00164124
0.00379839
0.00565106
0.00659393
0.00682814
0.00583093
0.00132028
0.00120101
0.00110869
0.00103186
0.000966356
0.000907516
0.000852043
0.000796962
0.000737497
0.000688905
0.000713857
0.00122179
0.0006443
0.00234213
0.00643363
0.00258038
0.00408604
0.00510799
0.00541141
0.00552165
0.00552602
0.00547115
0.00542249
0.00549189
0.00576465
0.00626541
0.00697461
0.00779691
0.00855421
0.00903407
0.00902759
0.0081011
0.00824145
0.00842994
0.00845703
0.00828631
0.00775757
0.00617492
0.00533474
0.00475909
0.00429167
0.00383276
0.003388
0.00295279
0.00251811
0.00207157
0.00159139
0.00121468
0.00121211
0.000959609
0.000767957
0.00100628
0.00096976
0.00267379
0.00819699
0.00303838
0.00344574
0.00489436
0.00523122
0.00520472
0.0050177
0.00475009
0.00452924
0.00452422
0.00481013
0.00538097
0.00620356
0.00716566
0.00812631
0.008943
0.00946431
0.00955843
0.0094616
0.00929334
0.00905549
0.00875026
0.00836198
0.00779486
0.00724817
0.0067516
0.0062718
0.00575335
0.00519944
0.00460766
0.00397305
0.0032916
0.00256874
0.00191509
0.00143816
0.00111693
0.00124497
0.00215305
0.0011619
0.00301237
0.00982848
0.00404961
0.00282322
0.00439774
0.00494846
0.00488797
0.00458526
0.00414581
0.00375906
0.00374783
0.00410898
0.00476273
0.00568274
0.00672845
0.00776277
0.00865202
0.00928827
0.00958032
0.00955665
0.00934624
0.00902829
0.00866461
0.00830204
0.0079514
0.00762951
0.00732701
0.00700435
0.0066144
0.00614488
0.00558891
0.00494379
0.00421196
0.00341234
0.00263191
0.00190597
0.00140475
0.00124891
0.00218616
0.00136583
0.00330372
0.0110652
0.00552239
0.00268905
0.00348341
0.00438651
0.00451323
0.00426475
0.00374483
0.00321932
0.00333856
0.00381642
0.00454787
0.00549621
0.00658283
0.00766569
0.0085882
0.00922835
0.00951845
0.00947943
0.00920777
0.00880759
0.00837736
0.00799594
0.007702
0.00749196
0.00732811
0.0071502
0.0069025
0.00655581
0.00609653
0.00552175
0.00483683
0.00406253
0.00325934
0.00245335
0.00172617
0.00115006
0.00308064
0.00177315
0.00339344
0.0104832
0.00683816
0.00347888
0.00236252
0.00289351
0.00338686
0.00342951
0.00302851
0.0029442
0.00325026
0.00381244
0.00460359
0.00560947
0.00674838
0.00786449
0.00878354
0.00937408
0.00958082
0.0094371
0.00904361
0.00852749
0.00801529
0.00760667
0.00734738
0.00722006
0.00716216
0.00709355
0.00695079
0.00670013
0.00632815
0.00583319
0.00522135
0.00450995
0.00373213
0.00286372
0.00170234
0.00142654
0.00458345
0.00203847
0.00332466
0.0084568
0.00706661
0.00477766
0.00315481
0.00244201
0.00231195
0.00242035
0.00262439
0.00294878
0.00340861
0.00404135
0.00490169
0.00598594
0.00718636
0.00831767
0.00918825
0.009667
0.00971641
0.00939374
0.00882554
0.00817093
0.00758608
0.0071854
0.007002
0.0069805
0.00701973
0.00701849
0.00692526
0.00672149
0.00640081
0.00596236
0.00540963
0.00474899
0.00395274
0.00272843
0.0012772
0.00272257
0.00448917
0.00206063
0.00311423
0.00722961
0.00683481
0.00546934
0.00420854
0.00338781
0.00298181
0.00288991
0.00305798
0.00336712
0.00381627
0.00448371
0.00543315
0.00662086
0.0078811
0.00898721
0.0097366
0.0100149
0.00981855
0.0092451
0.00846481
0.00768206
0.0070865
0.00678811
0.00675422
0.00685172
0.00694909
0.0069504
0.00685137
0.00665339
0.00635232
0.00594244
0.00541987
0.0047716
0.00386688
0.00219024
0.00151164
0.00314849
0.00415468
0.00202425
0.00283572
0.00651964
0.00659471
0.00579123
0.00492578
0.00427466
0.00389151
0.00375496
0.00378922
0.00397541
0.00438726
0.00513214
0.00622853
0.00754202
0.00882667
0.00981968
0.01033
0.0102869
0.00974488
0.00886161
0.00787346
0.00704653
0.00657954
0.00648668
0.00656902
0.00669612
0.00677905
0.00675484
0.00663997
0.00644055
0.00614846
0.00574684
0.00522049
0.00454582
0.003554
0.00181596
0.00171778
0.00330362
0.00419884
0.00197296
0.00258613
0.00583294
0.0062984
0.00591824
0.00536247
0.00489595
0.00458597
0.00443446
0.00438893
0.00454742
0.00507
0.00604249
0.00736697
0.00878533
0.00998258
0.0106983
0.0107984
0.0102915
0.00931938
0.00812376
0.00703735
0.00634416
0.00604543
0.00601294
0.00609684
0.00620323
0.0062704
0.00625062
0.00613707
0.00593831
0.00564003
0.00521516
0.00463729
0.00389453
0.00296105
0.00182049
0.00177755
0.00338445
0.00463103
0.00202327
0.00259485
0.00578908
0.00643616
0.00599078
0.00554065
0.00517226
0.00490665
0.00473338
0.00472467
0.00511036
0.00603245
0.0074087
0.00895791
0.0103215
0.0111868
0.0113728
0.0108626
0.00977409
0.00837706
0.00702317
0.00604681
0.00548476
0.00522657
0.00515945
0.00519279
0.00525892
0.00531034
0.00530329
0.00518808
0.00497128
0.00462231
0.00410106
0.00341257
0.00267214
0.00208158
0.00176214
0.00201844
0.00363258
0.0045795
0.00211607
0.00234207
0.00243539
0.00359223
0.00421927
0.00441222
0.00441392
0.00436948
0.00444863
0.00498674
0.00613531
0.00774896
0.0094854
0.0109631
0.0118686
0.0120236
0.0114001
0.0101499
0.00850331
0.00693221
0.00571391
0.00491034
0.0044534
0.00423536
0.00414405
0.00410485
0.00408016
0.00405268
0.00400265
0.00385892
0.00360716
0.00321687
0.00269054
0.00215683
0.00181605
0.00175685
0.00195941
0.00254061
0.00418911
0.00478103
0.00213796
0.000807528
0.00146487
0.00225952
0.00289762
0.00363605
0.00489431
0.00674478
0.00879676
0.0106586
0.0120393
0.0127444
0.0126548
0.0117863
0.0102369
0.00840164
0.00667135
0.00531434
0.0044162
0.00392539
0.00367934
0.00353732
0.00342562
0.00331594
0.003202
0.00308586
0.00296728
0.00282732
0.00262659
0.00236289
0.00207142
0.00187
0.00187373
0.00210028
0.00252
0.00318232
0.00434755
0.00510863
0.00208762
0.00149714
0.00207341
0.00302381
0.00472593
0.00704522
0.00937314
0.0111863
0.0124928
0.0132719
0.0134683
0.0129884
0.011746
0.00994137
0.00793243
0.00612332
0.00479777
0.00403714
0.00367865
0.00350735
0.00339737
0.00329925
0.00319962
0.00309957
0.00300429
0.00291717
0.00283583
0.00274824
0.00263771
0.00250765
0.00238275
0.0023266
0.00241847
0.00268773
0.00309618
0.00357303
0.00398392
0.00406808
0.00201466
0.00275789
0.00666902
0.006121
0.0054641
0.00695152
0.00929179
0.0112772
0.012624
0.013336
0.0135094
0.0132154
0.0124275
0.011119
0.00935338
0.00740185
0.00569064
0.00457294
0.00402653
0.00379049
0.00366388
0.00355894
0.00344922
0.00333409
0.00322332
0.00312994
0.00306562
0.00303669
0.00304093
0.00306433
0.00307937
0.00308285
0.00309801
0.00315717
0.00330154
0.00356556
0.00395112
0.00441664
0.00482781
0.00496146
0.00205853
0.00263913
0.00509528
0.00656749
0.00838795
0.00931616
0.0102869
0.010861
0.0110099
0.0108067
0.0102997
0.00950206
0.00841325
0.00710216
0.00577437
0.0047133
0.00406585
0.00374364
0.00359332
0.00350162
0.0034166
0.00332131
0.00321606
0.00311026
0.00301886
0.0029597
0.00295012
0.00300231
0.00311808
0.00328256
0.00345431
0.0035819
0.00369542
0.00383798
0.00404688
0.00435239
0.00477274
0.00531213
0.00600508
0.00551703
0.00232802
0.00247349
0.00211972
0.00210909
0.00217044
0.00222123
0.00215498
0.00202507
0.00187165
0.0017155
0.00156494
0.00142363
0.00129681
0.00119294
0.00112024
0.00107992
0.00106429
0.00106358
0.00106845
0.00107566
0.00108457
0.00109602
0.00111173
0.00113361
0.00116314
0.00120063
0.00124485
0.00129346
0.00134383
0.00139406
0.00144372
0.00149379
0.00154448
0.00159888
0.00166078
0.00173293
0.00181566
0.00190617
0.0020045
0.00212162
0.00212933
)
;

boundaryField
{
    floor
    {
        type            nutkWallFunction;
        Cmu             0.09;
        kappa           0.41;
        E               9.8;
        value           nonuniform List<scalar> 
36
(
0.000160557
7.63646e-05
0.000109551
0.000110425
0.000107797
0.000103379
9.74351e-05
9.14692e-05
8.59367e-05
8.09163e-05
7.6385e-05
7.23202e-05
6.86454e-05
6.5277e-05
6.2114e-05
5.90174e-05
5.57592e-05
5.30349e-05
4.74959e-05
4.74958e-05
6.15316e-05
7.04771e-05
7.78626e-05
9.30176e-05
0.000121463
0.000117162
0.000160557
0.000175008
0.000167261
0.000160446
7.63645e-05
0.000160446
0.000136032
0.000194688
0.000169853
0.000193907
)
;
    }
    ceiling
    {
        type            nutkWallFunction;
        Cmu             0.09;
        kappa           0.41;
        E               9.8;
        value           nonuniform List<scalar> 
43
(
0.000284297
0.00024633
0.000245183
0.000251821
0.000257307
0.000250182
0.000236117
0.000219372
0.000202167
0.00018541
0.000169513
0.000155091
0.000143158
0.000134739
0.000130051
0.000128237
0.000128161
0.000128737
0.000129584
0.000130623
0.000131952
0.000133766
0.000136288
0.000139688
0.000144
0.000149083
0.000154662
0.00016043
0.000166166
0.000171815
0.000177488
0.000183206
0.000189308
0.000196212
0.000204221
0.000213361
0.000223311
0.000234078
0.000246843
0.000247591
0.000270465
0.000280438
0.000177586
)
;
    }
    sWall
    {
        type            nutkWallFunction;
        Cmu             0.09;
        kappa           0.41;
        E               9.8;
        value           nonuniform List<scalar> 9(0.00037389 0.00035206 0.000322933 0.000296581 0.000297504 0.000270555 0.000314434 0.000301929 0.000284398);
    }
    nWall
    {
        type            nutkWallFunction;
        Cmu             0.09;
        kappa           0.41;
        E               9.8;
        value           nonuniform List<scalar> 
14
(
0.00011717
0.000139619
0.00016299
0.00024006
0.000236105
0.000230571
0.000236323
0.000246202
0.000248562
0.000242818
0.000235027
0.000240056
0.000269109
0.000247628
)
;
    }
    sideWalls
    {
        type            empty;
    }
    glass1
    {
        type            nutkWallFunction;
        Cmu             0.09;
        kappa           0.41;
        E               9.8;
        value           nonuniform List<scalar> 9(0.000108251 0.000156887 0.000196744 0.00023436 0.000270807 0.00030616 0.000341778 0.000372098 0.000381388);
    }
    glass2
    {
        type            nutkWallFunction;
        Cmu             0.09;
        kappa           0.41;
        E               9.8;
        value           nonuniform List<scalar> 2(0.000208689 0.000237787);
    }
    sun
    {
        type            nutkWallFunction;
        Cmu             0.09;
        kappa           0.41;
        E               9.8;
        value           nonuniform List<scalar> 
14
(
0.00010821
0.000115183
0.000114768
0.00011963
0.000124064
0.000128076
0.000131797
0.000135373
0.000138962
0.000142767
0.000146385
0.000149813
0.000153183
0.000156797
)
;
    }
    Table_master
    {
        type            nutkWallFunction;
        Cmu             0.09;
        kappa           0.41;
        E               9.8;
        value           nonuniform List<scalar> 9(0.000139352 0.000121726 0.000107913 9.69534e-05 8.81252e-05 8.09234e-05 7.49949e-05 7.01339e-05 6.63175e-05);
    }
    Table_slave
    {
        type            nutkWallFunction;
        Cmu             0.09;
        kappa           0.41;
        E               9.8;
        value           nonuniform List<scalar> 9(0.000157765 0.0001441 0.000133418 0.000124451 0.000116746 0.000109773 0.000103152 9.65268e-05 8.93138e-05);
    }
    inlet
    {
        type            calculated;
        value           uniform 0.000167705;
    }
    outlet
    {
        type            calculated;
        value           nonuniform List<scalar> 2(0.00275789 0.00666902);
    }
}


// ************************************************************************* //
