/*--------------------------------*- C++ -*----------------------------------*\
  =========                 |
  \\      /  F ield         | OpenFOAM: The Open Source CFD Toolbox
   \\    /   O peration     | Website:  https://openfoam.org
    \\  /    A nd           | Version:  6
     \\/     M anipulation  |
\*---------------------------------------------------------------------------*/
FoamFile
{
    version     2.0;
    format      ascii;
    class       volScalarField;
    location    "4800";
    object      nut;
}
// * * * * * * * * * * * * * * * * * * * * * * * * * * * * * * * * * * * * * //

dimensions      [0 2 -1 0 0 0 0];

internalField   nonuniform List<scalar> 
458
(
0.0010694
0.00116385
0.00119015
0.00124709
0.00129953
0.00134919
0.00139889
0.00144932
0.00149054
0.00151644
0.00151936
0.00149179
0.00142425
0.00128126
0.00097197
0.000480395
0.000563172
0.000638497
0.00066575
0.000655331
0.000613258
0.000566708
0.000525056
0.000488969
0.000457632
0.00043027
0.000406311
0.000385078
0.000365739
0.000347395
0.000328976
0.000318032
0.00029229
0.001442
0.00324251
0.0029905
0.00342653
0.00386128
0.00430844
0.00470933
0.00501955
0.00533818
0.00563635
0.00587548
0.00602091
0.00603459
0.00582475
0.00473479
0.00128297
0.0010644
0.000868435
0.00047652
0.00113088
0.00164829
0.00204898
0.0021756
0.00158548
0.0013385
0.00117037
0.00104633
0.000951283
0.00087594
0.00081098
0.000749872
0.000688877
0.000634394
0.000588586
0.000720003
0.000384257
0.00175321
0.00435745
0.00359599
0.00438461
0.00471628
0.00494901
0.00512785
0.00529304
0.00552251
0.00580158
0.00610655
0.00640542
0.00664154
0.00672487
0.0063368
0.0051649
0.00391439
0.00102562
0.000734004
0.00126657
0.00184326
0.00241713
0.00258106
0.00082421
0.000721588
0.000636186
0.000567022
0.000511208
0.000465977
0.000429209
0.000399477
0.00037635
0.000417086
0.00048304
0.000844715
0.00045409
0.00205328
0.00556672
0.00349818
0.00454302
0.00472472
0.00470695
0.00469043
0.00476982
0.00495623
0.00523215
0.00558274
0.00597396
0.00631696
0.00653319
0.00648472
0.00614985
0.00527795
0.00289775
0.00118159
0.00150484
0.00206904
0.00276005
0.00335862
0.00338826
0.000928388
0.000851003
0.000798292
0.000759387
0.000726486
0.000693841
0.000662799
0.000629998
0.000591654
0.000557355
0.00054916
0.00100685
0.000522983
0.00235968
0.00719301
0.00366947
0.00431278
0.00457257
0.00441853
0.00429297
0.00436508
0.00456185
0.00484916
0.00522721
0.00565618
0.00599229
0.00615993
0.00615627
0.00603952
0.00569144
0.00470636
0.00426545
0.00429697
0.00454782
0.00484665
0.00503007
0.0049479
0.00422185
0.00384845
0.00364219
0.00349466
0.00334531
0.00315284
0.00282603
0.0024052
0.0019265
0.00146547
0.00109909
0.00102379
0.000888767
0.000699216
0.000740174
0.000804525
0.00268783
0.00902586
0.0050261
0.00399313
0.00435251
0.00434415
0.00418438
0.00424424
0.00444532
0.00473235
0.00511563
0.00552713
0.00583843
0.00593776
0.005844
0.00571006
0.0056496
0.00556879
0.00573675
0.0060279
0.00623228
0.00626876
0.00613149
0.00584452
0.00544362
0.00511773
0.00486341
0.00463961
0.00442031
0.00418763
0.00388638
0.00347346
0.00295122
0.00236044
0.00181366
0.0013149
0.00108078
0.000942861
0.00118734
0.000834447
0.00301107
0.0104103
0.00750087
0.00490775
0.00427108
0.00433301
0.00438932
0.00442077
0.00453406
0.00478691
0.00516419
0.00557213
0.00585782
0.00589002
0.0057117
0.00558304
0.00579809
0.00627369
0.00675834
0.00703207
0.00703345
0.00679981
0.0064027
0.00591992
0.00543932
0.00505237
0.00475932
0.00452171
0.00431388
0.00412721
0.00395729
0.00373498
0.00336966
0.0028824
0.00237596
0.00188911
0.00157134
0.00143955
0.00137216
0.000991352
0.00309071
0.00966355
0.00820335
0.00688321
0.00587504
0.00542903
0.00501069
0.00472545
0.00471894
0.00495975
0.00535015
0.00575361
0.0059946
0.0059404
0.00572223
0.00577859
0.00639257
0.00689601
0.00715811
0.00714634
0.00686262
0.00637161
0.00576615
0.00515637
0.00464999
0.00429513
0.00405579
0.00388379
0.00375674
0.00367098
0.00363287
0.0036342
0.00353671
0.00324679
0.00296414
0.00280667
0.00287513
0.00303524
0.00360528
0.00153578
0.0030299
0.0036534
0.0040343
0.00424626
0.0042757
0.00421072
0.00421091
0.00438523
0.00474108
0.00519592
0.00566298
0.00603239
0.00615295
0.005943
0.00588498
0.00619704
0.00655741
0.0066812
0.00659225
0.00627991
0.00575729
0.00511091
0.00446655
0.0039376
0.00357182
0.00333884
0.00318253
0.00306375
0.00296245
0.00286725
0.00276958
0.00266234
0.00256514
0.00248129
0.00242567
0.00239426
0.00233475
0.00221196
0.00206264
0.00143461
0.00133521
0.00234714
0.00322226
0.00390683
0.00453206
0.00514134
0.00562588
0.00595261
0.00616719
0.00620155
0.00600167
0.00575695
0.0057588
0.00586274
0.00578415
0.00555142
0.00518431
0.00468994
0.00412073
0.00356505
0.00312282
0.00282507
0.00264254
0.00253071
0.00245629
0.00240208
0.00236047
0.00232975
0.00231248
0.00231791
0.00233146
0.00234359
0.00234431
0.00230724
0.002193
0.00199164
0.0017421
0.00115432
0.00201499
0.00395739
0.00507477
0.00580007
0.006365
0.00641505
0.00608755
0.00575746
0.0054737
0.00492869
0.00454033
0.00444988
0.0043884
0.00421677
0.00395792
0.00363706
0.00326057
0.00286481
0.00250814
0.00223073
0.00203959
0.00192942
0.00187785
0.00186682
0.00188529
0.00192593
0.00198272
0.00204837
0.00212509
0.00221349
0.002308
0.00240086
0.00247648
0.00251434
0.00247935
0.00244879
0.00225453
0.00116928
0.00211913
0.00217149
0.00221907
0.00246888
0.00233372
0.00206828
0.0017449
0.00148453
0.00132511
0.00117365
0.00104026
0.000935851
0.0008474
0.000780333
0.000733681
0.000699627
0.000672232
0.000648658
0.000629194
0.000616062
0.000611165
0.000614847
0.000625762
0.000641808
0.000662082
0.000686107
0.000713723
0.000745162
0.000780905
0.000822059
0.000868856
0.000920976
0.000978686
0.00104226
0.00111172
0.00119498
0.00123143
0.00120621
0.00112194
0.00103762
)
;

boundaryField
{
    floor
    {
        type            nutkWallFunction;
        Cmu             0.09;
        kappa           0.41;
        E               9.8;
        value           nonuniform List<scalar> 
36
(
0.000117415
5.72046e-05
6.77293e-05
7.71418e-05
8.05133e-05
7.92263e-05
7.40037e-05
6.81744e-05
6.29085e-05
5.83045e-05
5.42721e-05
5.07227e-05
4.75915e-05
4.47967e-05
4.22341e-05
3.97871e-05
3.73132e-05
3.58347e-05
3.233e-05
3.23299e-05
4.46875e-05
5.38133e-05
6.26443e-05
8.46303e-05
8.96381e-05
9.74411e-05
0.000117415
0.00015352
0.000128266
0.000105117
5.72045e-05
0.000105117
5.67064e-05
0.000123728
8.88863e-05
0.000141873
)
;
    }
    ceiling
    {
        type            nutkWallFunction;
        Cmu             0.09;
        kappa           0.41;
        E               9.8;
        value           nonuniform List<scalar> 
43
(
0.000246187
0.000251841
0.000256969
0.000283773
0.000269378
0.000240789
0.000205398
0.000176377
0.000158332
0.000140959
0.000125446
0.000113145
0.000102599
9.45167e-05
8.88467e-05
8.4681e-05
8.13122e-05
7.84002e-05
7.59863e-05
7.43525e-05
7.37422e-05
7.42011e-05
7.55597e-05
7.75515e-05
8.00599e-05
8.30204e-05
8.64082e-05
9.0246e-05
9.45859e-05
9.95541e-05
0.000105168
0.00011138
0.00011821
0.000125681
0.000133786
0.000143424
0.000147619
0.000144719
0.000134973
0.000125139
0.000343193
0.000407609
0.000234819
)
;
    }
    sWall
    {
        type            nutkWallFunction;
        Cmu             0.09;
        kappa           0.41;
        E               9.8;
        value           uniform 0.000246253;
    }
    nWall
    {
        type            nutkWallFunction;
        Cmu             0.09;
        kappa           0.41;
        E               9.8;
        value           nonuniform List<scalar> 6(9.74417e-05 0.000101045 0.000119707 0.000138737 0.000140468 0.000125146);
    }
    sideWalls
    {
        type            empty;
    }
    glass1
    {
        type            nutkWallFunction;
        Cmu             0.09;
        kappa           0.41;
        E               9.8;
        value           nonuniform List<scalar> 9(0.000128958 0.000171812 0.000206643 0.000239586 0.000272694 0.000307648 0.000341646 0.000349973 0.000343641);
    }
    glass2
    {
        type            nutkWallFunction;
        Cmu             0.09;
        kappa           0.41;
        E               9.8;
        value           nonuniform List<scalar> 2(0.000182232 0.000170839);
    }
    sun
    {
        type            nutkWallFunction;
        Cmu             0.09;
        kappa           0.41;
        E               9.8;
        value           nonuniform List<scalar> 
14
(
0.000128854
0.000139823
0.00014286
0.000149409
0.000155412
0.000161072
0.000166712
0.000172413
0.000177056
0.000179966
0.000180293
0.000177196
0.000169581
0.000153324
)
;
    }
    Table_master
    {
        type            nutkWallFunction;
        Cmu             0.09;
        kappa           0.41;
        E               9.8;
        value           nonuniform List<scalar> 9(9.98119e-05 8.73713e-05 7.68576e-05 6.82183e-05 6.11527e-05 5.53569e-05 5.05939e-05 4.67047e-05 4.36542e-05);
    }
    Table_slave
    {
        type            nutkWallFunction;
        Cmu             0.09;
        kappa           0.41;
        E               9.8;
        value           nonuniform List<scalar> 9(0.000112257 0.000103029 9.66882e-05 9.19764e-05 8.79694e-05 8.39723e-05 8.01505e-05 7.60887e-05 7.1308e-05);
    }
    inlet
    {
        type            calculated;
        value           uniform 0.000167705;
    }
    outlet
    {
        type            calculated;
        value           nonuniform List<scalar> 2(0.00211913 0.00217149);
    }
}


// ************************************************************************* //
