/*--------------------------------*- C++ -*----------------------------------*\
  =========                 |
  \\      /  F ield         | OpenFOAM: The Open Source CFD Toolbox
   \\    /   O peration     | Website:  https://openfoam.org
    \\  /    A nd           | Version:  6
     \\/     M anipulation  |
\*---------------------------------------------------------------------------*/
FoamFile
{
    version     2.0;
    format      ascii;
    class       volScalarField;
    location    "9900";
    object      epsilon;
}
// * * * * * * * * * * * * * * * * * * * * * * * * * * * * * * * * * * * * * //

dimensions      [0 2 -3 0 0 0 0];

internalField   nonuniform List<scalar> 
778
(
0.000253137
0.000306362
0.000302994
0.00034415
0.000384997
0.000424789
0.000464219
0.000504482
0.000547313
0.000595432
0.000643898
0.000692324
0.000742356
0.000798783
0.000860625
8.94482e-05
0.000262822
0.000269293
0.000250248
0.000220384
0.000184285
0.000152458
0.000126603
0.000105971
8.9502e-05
7.63482e-05
6.56908e-05
5.68884e-05
4.94152e-05
4.27994e-05
3.65426e-05
3.18325e-05
2.36081e-05
0.000797054
0.00144329
0.000286979
0.000259559
0.000261651
0.000267618
0.000276512
0.000289941
0.000310198
0.00034041
0.000379651
0.000430818
0.000499284
0.000600602
0.0007859
0.00112977
0.00097909
0.000858702
0.000512019
0.000369647
0.000294432
0.000243115
0.000204274
0.000187116
0.000154834
0.00012508
0.00010074
8.15153e-05
6.65452e-05
5.48382e-05
4.56465e-05
3.87229e-05
3.45344e-05
3.27821e-05
6.57997e-05
4.81116e-05
0.00163078
0.00407945
0.000407411
0.000242898
0.000229069
0.000230982
0.0002382
0.000250472
0.000268382
0.000292665
0.000324814
0.000366923
0.000421376
0.000495174
0.000601664
0.000725002
0.000830097
0.00158466
0.0010277
0.000512405
0.000367854
0.000294457
0.000262301
0.000552123
0.000363104
0.00025107
0.000181542
0.000136418
0.000105994
8.48269e-05
6.98556e-05
5.9492e-05
4.51597e-05
3.8006e-05
0.000108104
7.08392e-05
0.00285385
0.0087713
0.000709978
0.000240705
0.000202449
0.000199985
0.000203163
0.000209795
0.000220618
0.000237544
0.000263252
0.000300037
0.000349314
0.000412528
0.00048828
0.000560488
0.000612568
0.000824433
0.00156475
0.000728892
0.000459768
0.000358281
0.000301909
0.000291829
0.000814403
0.000613024
0.000482249
0.000388797
0.000319368
0.000264518
0.000218918
0.000179147
0.000141962
8.39069e-05
5.49727e-05
0.000148381
9.46063e-05
0.00454658
0.0158288
0.00134661
0.000258342
0.000175708
0.000166767
0.000165781
0.000167765
0.000173934
0.000187444
0.000211702
0.000248417
0.0002979
0.000359533
0.000428069
0.000489466
0.000528776
0.000582572
0.000627511
0.000483171
0.000393446
0.000330987
0.000282271
0.000248624
0.000247854
0.000226808
0.00020297
0.000181083
0.000162699
0.000146538
0.00013187
0.000118279
0.000105119
8.45497e-05
6.43098e-05
0.00010516
0.000138872
0.000160149
0.000359195
0.000321143
0.00676449
0.02488
0.00255397
0.000318107
0.000155522
0.000137046
0.000132114
0.000130689
0.000134462
0.000148551
0.000176705
0.000218104
0.000270902
0.00033433
0.000402033
0.000462958
0.000503279
0.000521884
0.000504906
0.000438306
0.000373833
0.000315644
0.000264743
0.000223402
0.000193314
0.000169651
0.000150825
0.000135627
0.00012329
0.000112743
0.000103292
9.45293e-05
8.60749e-05
7.59062e-05
6.54336e-05
7.76455e-05
9.98097e-05
0.000207444
0.00105235
0.000552531
0.00967328
0.0336381
0.0045845
0.000465106
0.000150848
0.000116335
0.000107084
0.000103284
0.000107082
0.0001279
0.000166094
0.000215872
0.000273375
0.000340273
0.000409672
0.000470851
0.000510542
0.000520737
0.000494516
0.000437756
0.000371917
0.000307524
0.000250579
0.000204464
0.000169766
0.000144563
0.000126319
0.000112723
0.000102267
9.37058e-05
8.62241e-05
7.93503e-05
7.27908e-05
6.61132e-05
6.03702e-05
6.38911e-05
7.68114e-05
0.000171217
0.00156782
0.000897216
0.0127603
0.0404063
0.00749081
0.000871659
0.00019437
0.000115413
9.74081e-05
9.14813e-05
9.86935e-05
0.000137712
0.000189248
0.000246224
0.000307111
0.00037407
0.0004452
0.000508563
0.000547869
0.00055133
0.000515998
0.00045177
0.000375656
0.000301047
0.000236526
0.000185984
0.000149316
0.000123966
0.000106682
9.4539e-05
8.57119e-05
7.87938e-05
7.2904e-05
6.75523e-05
6.2488e-05
5.76611e-05
5.40062e-05
5.6112e-05
7.04092e-05
0.000335252
0.00526876
0.00196192
0.0138286
0.0414579
0.0139327
0.00316462
0.000630608
0.000208275
0.000132832
0.000116112
0.000142624
0.000193035
0.00024932
0.000306435
0.000367471
0.000436959
0.000511581
0.000576305
0.000611437
0.000603604
0.000552523
0.00047126
0.0003787
0.000291032
0.0002183
0.000164019
0.000126752
0.00010257
8.72387e-05
7.72956e-05
7.0621e-05
6.56364e-05
6.14531e-05
5.76313e-05
5.39935e-05
5.06326e-05
4.85333e-05
5.33497e-05
9.96718e-05
0.0009476
0.0126785
0.00296964
0.013005
0.0283681
0.0144154
0.00572769
0.00210571
0.000835776
0.000414521
0.000277458
0.000279564
0.000314989
0.000356321
0.00040189
0.00045885
0.000531323
0.000610519
0.000674497
0.00069912
0.000671021
0.000594235
0.000487106
0.000372958
0.000270856
0.000191183
0.000135735
0.000100637
7.98336e-05
6.79162e-05
6.11321e-05
5.70446e-05
5.40957e-05
5.15419e-05
4.90796e-05
4.66531e-05
4.45341e-05
4.4391e-05
5.89767e-05
0.000240118
0.00292601
0.0104634
0.00308337
0.010689
0.0193538
0.0120379
0.00630106
0.00317586
0.00167613
0.000988001
0.00068013
0.000560982
0.000518053
0.000510911
0.000531855
0.000584135
0.000663239
0.000747856
0.000805281
0.000807435
0.000744396
0.000628579
0.000486673
0.00034799
0.000233739
0.000152491
0.000101751
7.3543e-05
5.87956e-05
5.13498e-05
4.78898e-05
4.6072e-05
4.47374e-05
4.34087e-05
4.19326e-05
4.03831e-05
3.93245e-05
4.22298e-05
8.51104e-05
0.000705231
0.00314536
0.00751975
0.00292994
0.00807035
0.0137662
0.00969031
0.00593325
0.00357027
0.00222827
0.00149165
0.00109401
0.000870198
0.000744324
0.000686554
0.000690739
0.000751086
0.00084502
0.000932032
0.000967871
0.000925633
0.000805884
0.000635795
0.00045313
0.000293477
0.000177467
0.000106887
6.94666e-05
5.25299e-05
4.44028e-05
4.05467e-05
3.90973e-05
3.84892e-05
3.80311e-05
3.74387e-05
3.6651e-05
3.58498e-05
3.59435e-05
4.31163e-05
0.000137386
0.000853115
0.0029018
0.00596826
0.00266991
0.00612117
0.0101628
0.00778755
0.00531134
0.00356995
0.0024693
0.00178836
0.0013687
0.00109348
0.000926703
0.000859997
0.000887341
0.000982928
0.00109659
0.0011676
0.00114803
0.00102582
0.000822562
0.000587903
0.00036994
0.000208325
0.000114557
7.2045e-05
5.23138e-05
4.29814e-05
3.82451e-05
3.5833e-05
3.48785e-05
3.45304e-05
3.43555e-05
3.42216e-05
3.42109e-05
3.46691e-05
3.68242e-05
4.78804e-05
0.000132418
0.000678512
0.0023342
0.00572842
0.00267592
0.00618165
0.00780376
0.00679916
0.00473691
0.00336417
0.0024616
0.00186545
0.00146218
0.00119479
0.00106529
0.00107121
0.00118042
0.00132772
0.00143361
0.00143278
0.0012961
0.00104999
0.000744104
0.000458556
0.000239138
0.000130902
8.1459e-05
5.98425e-05
4.94232e-05
4.36026e-05
3.98601e-05
3.73269e-05
3.58259e-05
3.51555e-05
3.50334e-05
3.55841e-05
3.73067e-05
4.11171e-05
4.89342e-05
6.75962e-05
0.000136735
0.000515606
0.00194909
0.0043884
0.00322399
0.00454556
0.00511083
0.00418329
0.00336065
0.0026388
0.0020693
0.00164831
0.00136153
0.0012455
0.00130184
0.00147873
0.00168439
0.00181755
0.00180569
0.00162621
0.00129674
0.000910019
0.000521934
0.000279314
0.000154258
0.000100781
7.83517e-05
6.77232e-05
6.13209e-05
5.64743e-05
5.22299e-05
4.83934e-05
4.53577e-05
4.3963e-05
4.42203e-05
4.69493e-05
5.40572e-05
6.85237e-05
9.44809e-05
0.000139733
0.000233324
0.000527491
0.00192702
0.00350668
0.00333054
0.00140099
0.00143097
0.00143258
0.00135268
0.00130991
0.0014236
0.00170976
0.00204447
0.00230321
0.00239478
0.00227358
0.00195893
0.00151656
0.000977625
0.000567656
0.000311129
0.000185284
0.000133017
0.000112614
0.000103458
9.80407e-05
9.37508e-05
8.95077e-05
8.47307e-05
7.93015e-05
7.39505e-05
7.12268e-05
7.27408e-05
8.07462e-05
0.000100173
0.000138457
0.000204933
0.000313072
0.000497
0.000872721
0.00207076
0.00382323
0.00336644
0.00118742
0.00171417
0.00194999
0.00230582
0.00275519
0.00315986
0.00333931
0.00330157
0.00307092
0.00267194
0.00210235
0.00148427
0.000955665
0.000561016
0.000333667
0.000228077
0.000187448
0.000172738
0.000166735
0.000163591
0.00016158
0.000159978
0.000158094
0.000155078
0.000150252
0.000144028
0.000139393
0.000141957
0.000155497
0.000187766
0.000251537
0.000365243
0.00055578
0.000870881
0.00141007
0.00236479
0.00393677
0.00295536
0.00742245
0.00809317
0.00480845
0.00339758
0.00373082
0.00414373
0.00415784
0.00394756
0.0035899
0.00313204
0.0026179
0.00207144
0.00152374
0.00104059
0.000683906
0.000468987
0.000367533
0.000327036
0.000310429
0.000301321
0.000294759
0.000289976
0.000287384
0.0002873
0.000289335
0.000292158
0.000293807
0.000292981
0.000291819
0.000298967
0.000318826
0.000358801
0.000432512
0.000561643
0.000780031
0.001147
0.00178446
0.00289139
0.00468187
0.00290334
0.00650495
0.00513747
0.00436857
0.00462087
0.00453734
0.00426802
0.00368678
0.00304066
0.00245571
0.00196299
0.00155806
0.00122758
0.000966825
0.000779059
0.000660432
0.000595812
0.000561344
0.000541455
0.000527728
0.000517139
0.000509664
0.000506796
0.00051062
0.000523054
0.000545131
0.000576389
0.000614578
0.00065586
0.000695352
0.000731002
0.000771583
0.000829427
0.000920364
0.00106551
0.00129662
0.00166639
0.00226735
0.00328936
0.00401377
0.0040738
0.0053562
0.00336981
0.00331887
0.00361592
0.00387426
0.00353498
0.00293033
0.00231133
0.00177962
0.00135352
0.00102384
0.000779566
0.00061127
0.000507779
0.000453656
0.000431397
0.000428037
0.000432126
0.000439855
0.000451181
0.00046784
0.000492421
0.0005275
0.00057474
0.000634165
0.000704005
0.000781354
0.000863437
0.000949081
0.00104016
0.00113732
0.00124631
0.00137726
0.0015416
0.0017502
0.00200943
0.00231514
0.00266161
0.003112
0.00324211
)
;

boundaryField
{
    floor
    {
        Cmu             0.09;
        kappa           0.41;
        E               9.8;
        type            epsilonWallFunction;
        value           nonuniform List<scalar> 
36
(
0.000860625
8.94482e-05
0.000262822
0.000269293
0.000250248
0.000220384
0.000184285
0.000152458
0.000126603
0.000105971
8.9502e-05
7.63482e-05
6.56908e-05
5.68884e-05
4.94152e-05
4.27994e-05
3.65426e-05
3.18325e-05
2.36081e-05
2.36081e-05
4.81116e-05
7.08392e-05
9.46063e-05
0.000160149
0.000359195
0.000321143
0.000860625
0.00112977
0.00097909
0.000858702
8.94482e-05
0.000858702
0.000512019
0.00158466
0.0010277
0.00156475
)
;
    }
    ceiling
    {
        Cmu             0.09;
        kappa           0.41;
        E               9.8;
        type            epsilonWallFunction;
        value           nonuniform List<scalar> 
43
(
0.0053562
0.00336981
0.00331887
0.00361592
0.00387426
0.00353498
0.00293033
0.00231133
0.00177962
0.00135352
0.00102384
0.000779566
0.00061127
0.000507779
0.000453656
0.000431397
0.000428037
0.000432126
0.000439855
0.000451181
0.00046784
0.000492421
0.0005275
0.00057474
0.000634165
0.000704005
0.000781354
0.000863437
0.000949081
0.00104016
0.00113732
0.00124631
0.00137726
0.0015416
0.0017502
0.00200943
0.00231514
0.00266161
0.003112
0.00324211
0.00454556
0.00511083
0.00118742
)
;
    }
    sWall
    {
        Cmu             0.09;
        kappa           0.41;
        E               9.8;
        type            epsilonWallFunction;
        value           nonuniform List<scalar> 9(0.013005 0.010689 0.00807035 0.00612117 0.00618165 0.00454556 0.00742245 0.00650495 0.0053562);
    }
    nWall
    {
        Cmu             0.09;
        kappa           0.41;
        E               9.8;
        type            epsilonWallFunction;
        value           nonuniform List<scalar> 
14
(
0.000321143
0.000552531
0.000897216
0.00308337
0.00292994
0.00266991
0.00267592
0.00322399
0.00333054
0.00336644
0.00295536
0.00290334
0.0040738
0.00324211
)
;
    }
    sideWalls
    {
        type            empty;
    }
    glass1
    {
        Cmu             0.09;
        kappa           0.41;
        E               9.8;
        type            epsilonWallFunction;
        value           nonuniform List<scalar> 9(0.000253137 0.000797054 0.00163078 0.00285385 0.00454658 0.00676449 0.00967328 0.0127603 0.0138286);
    }
    glass2
    {
        Cmu             0.09;
        kappa           0.41;
        E               9.8;
        type            epsilonWallFunction;
        value           nonuniform List<scalar> 2(0.00196192 0.00296964);
    }
    sun
    {
        Cmu             0.09;
        kappa           0.41;
        E               9.8;
        type            epsilonWallFunction;
        value           nonuniform List<scalar> 
14
(
0.000253137
0.000306362
0.000302994
0.00034415
0.000384997
0.000424789
0.000464219
0.000504482
0.000547313
0.000595432
0.000643898
0.000692324
0.000742356
0.000798783
)
;
    }
    Table_master
    {
        Cmu             0.09;
        kappa           0.41;
        E               9.8;
        type            epsilonWallFunction;
        value           nonuniform List<scalar> 9(0.000552123 0.000363104 0.00025107 0.000181542 0.000136418 0.000105994 8.48269e-05 6.98556e-05 5.9492e-05);
    }
    Table_slave
    {
        Cmu             0.09;
        kappa           0.41;
        E               9.8;
        type            epsilonWallFunction;
        value           nonuniform List<scalar> 9(0.000814403 0.000613024 0.000482249 0.000388797 0.000319368 0.000264518 0.000218918 0.000179147 0.000141962);
    }
    inlet
    {
        type            turbulentMixingLengthDissipationRateInlet;
        mixingLength    0.01;
        phi             phi;
        k               k;
        value           uniform 0.000471671;
    }
    outlet
    {
        type            zeroGradient;
    }
}


// ************************************************************************* //
