/*--------------------------------*- C++ -*----------------------------------*\
  =========                 |
  \\      /  F ield         | OpenFOAM: The Open Source CFD Toolbox
   \\    /   O peration     | Website:  https://openfoam.org
    \\  /    A nd           | Version:  6
     \\/     M anipulation  |
\*---------------------------------------------------------------------------*/
FoamFile
{
    version     2.0;
    format      ascii;
    class       volScalarField;
    location    "9900";
    object      k;
}
// * * * * * * * * * * * * * * * * * * * * * * * * * * * * * * * * * * * * * //

dimensions      [0 2 -2 0 0 0 0];

internalField   nonuniform List<scalar> 
778
(
0.00158601
0.00180118
0.00178796
0.00194641
0.00209752
0.00223967
0.0023762
0.00251168
0.00265191
0.00280515
0.00295538
0.00310176
0.00324945
0.0034121
0.00358601
0.000792714
0.00162621
0.00165279
0.00157392
0.00144607
0.0012835
0.0011311
0.000999303
0.000887552
0.00079303
0.000713292
0.000645265
0.000586251
0.000533714
0.000484946
0.00043645
0.000398091
0.000326169
0.00340716
0.00643375
0.00268749
0.00274591
0.00288748
0.00305393
0.00323413
0.00342973
0.00364281
0.00387305
0.00412517
0.00437915
0.00459532
0.00470104
0.00459565
0.00429926
0.00390796
0.00358066
0.00253663
0.00281313
0.0029561
0.00289893
0.00266615
0.00226664
0.00190682
0.00161018
0.00137018
0.0011762
0.00101733
0.000885506
0.000774238
0.00068142
0.000615423
0.000574966
0.000864383
0.000524285
0.00549116
0.0127821
0.003478
0.00321189
0.00329711
0.00345484
0.0036361
0.00384012
0.00407032
0.00432691
0.00463507
0.00501073
0.00545149
0.00596183
0.00653377
0.00686305
0.00628023
0.00538716
0.00403625
0.00416819
0.00417237
0.00397585
0.00357896
0.00266742
0.00201723
0.00157736
0.00127073
0.0010503
0.000887676
0.000765169
0.000672257
0.000604005
0.000551739
0.000548937
0.00116463
0.000678551
0.00797422
0.0217604
0.00449142
0.00339049
0.00334114
0.00343763
0.00354894
0.00366834
0.00380848
0.00399075
0.00425863
0.00464831
0.00517174
0.00582671
0.00655715
0.00713748
0.00723056
0.00724524
0.00534192
0.00554742
0.00537352
0.00512365
0.00478596
0.00434812
0.00345643
0.00286013
0.00243733
0.0021113
0.0018518
0.0016332
0.00143965
0.00125953
0.00107857
0.000801437
0.000660341
0.00141918
0.000822898
0.0108774
0.0336375
0.00621348
0.00342477
0.00315791
0.00316655
0.00318918
0.00320948
0.00325171
0.00336063
0.00359429
0.0039891
0.0045542
0.00527877
0.00609002
0.00682097
0.0072857
0.00764461
0.00751595
0.00665213
0.00607094
0.00557705
0.00509794
0.00462923
0.00412365
0.0036665
0.003276
0.0029384
0.00263213
0.00234861
0.00207999
0.00181916
0.00155552
0.00122273
0.000931673
0.00119005
0.00121677
0.00116882
0.00200269
0.00185859
0.0141761
0.0476019
0.00928529
0.0034899
0.00290821
0.00282237
0.00276409
0.00269931
0.002664
0.00273424
0.0029805
0.00341435
0.00402475
0.00480077
0.00565798
0.0064657
0.00707211
0.00740861
0.00732327
0.00678854
0.00621331
0.00563566
0.00507348
0.00455592
0.00409176
0.00369628
0.00336367
0.00307424
0.00280733
0.0025521
0.00229961
0.00204283
0.00177432
0.00147196
0.00118007
0.00111397
0.00111293
0.00169412
0.00501721
0.00266864
0.0179936
0.0606082
0.014362
0.00381972
0.00271499
0.00252912
0.00241161
0.00229394
0.00222101
0.00231132
0.00262998
0.00313943
0.00380361
0.00463527
0.00553429
0.00637293
0.00700598
0.00733124
0.00725578
0.00681822
0.00621496
0.00555433
0.00491168
0.00434289
0.00387278
0.00350066
0.0032068
0.00296184
0.0027415
0.00252942
0.002314
0.00208783
0.00184576
0.00158335
0.00132889
0.00116343
0.00109507
0.00154189
0.00616727
0.00368681
0.0216425
0.0704822
0.0214383
0.00510323
0.00274288
0.00237175
0.00221014
0.00208205
0.0020265
0.00221945
0.00264954
0.00323121
0.00393927
0.0047793
0.00570609
0.00658127
0.00723041
0.00751889
0.00738755
0.00689833
0.00619958
0.00542786
0.00469214
0.00406486
0.00357458
0.00321232
0.00294722
0.00274052
0.00256388
0.00239574
0.0022223
0.00203587
0.00183263
0.00161347
0.00139888
0.00123728
0.00116303
0.00206764
0.0134316
0.00621121
0.0228342
0.0694918
0.0325354
0.0110595
0.00406872
0.00258786
0.00223582
0.00210344
0.00219071
0.00251293
0.00300065
0.00360275
0.00433511
0.00521797
0.0061926
0.0070956
0.0077243
0.00792881
0.00766931
0.00702962
0.00616872
0.0052511
0.0044091
0.00372311
0.00321665
0.00286839
0.00263471
0.00246812
0.00233532
0.00221047
0.00207869
0.00193272
0.00176995
0.0015931
0.0014192
0.00130399
0.00137856
0.00385149
0.0253969
0.0081879
0.0219184
0.0516307
0.0336431
0.0174365
0.00859104
0.00476211
0.00326334
0.00273172
0.0028553
0.00321269
0.00367366
0.0042479
0.00499831
0.00594331
0.00698041
0.00789381
0.0084473
0.0084892
0.0080094
0.00713015
0.00604725
0.0049585
0.00401397
0.00329163
0.00279787
0.00248811
0.00230133
0.00218317
0.0020949
0.00200985
0.0019145
0.00180311
0.00167458
0.00153313
0.0013964
0.00133949
0.00186414
0.00920898
0.0230489
0.00839606
0.0192321
0.0394305
0.0302358
0.019568
0.0121861
0.00794305
0.00572146
0.00467348
0.00436619
0.00440278
0.00465461
0.00514706
0.00593698
0.0069829
0.00808995
0.00896519
0.00934485
0.00910068
0.00828068
0.00707014
0.00572037
0.004466
0.0034646
0.00276987
0.00234889
0.00211527
0.00199079
0.00192272
0.00187245
0.00181831
0.00175011
0.00166366
0.00155923
0.0014436
0.00134276
0.00142545
0.00346726
0.0103882
0.0187791
0.00811547
0.0159464
0.0315795
0.026647
0.0195392
0.0139785
0.0102875
0.00803106
0.00675617
0.00605319
0.00573423
0.00578511
0.0062751
0.00720744
0.00841173
0.00955731
0.0102737
0.0103061
0.00959716
0.00829691
0.00667901
0.00506619
0.0037269
0.00279494
0.00223711
0.00195747
0.00181694
0.00174706
0.00171249
0.0016847
0.00164932
0.00159882
0.00152948
0.00144189
0.00134722
0.00128681
0.0015955
0.0041506
0.0102678
0.0164654
0.00762714
0.0132625
0.0256634
0.0233442
0.018688
0.0145841
0.0115898
0.00954589
0.00821214
0.0073026
0.00684296
0.0069599
0.00771655
0.00896616
0.0103416
0.0113761
0.0116797
0.0110939
0.0096991
0.00780269
0.00577837
0.00403583
0.00284159
0.00219948
0.00186854
0.00170499
0.00162232
0.00157922
0.00155578
0.00153414
0.00150534
0.00146413
0.00140805
0.00133847
0.00126722
0.00124603
0.00157404
0.00376505
0.00934631
0.0170981
0.00763519
0.0133497
0.0224031
0.0220492
0.017756
0.0143906
0.0118936
0.0100845
0.00876938
0.00792002
0.00777749
0.00847216
0.00985395
0.0114902
0.0128167
0.0133416
0.0127974
0.0112596
0.00899198
0.00653471
0.00432116
0.0029668
0.0022284
0.00186304
0.00168066
0.00158297
0.00152364
0.00148291
0.0014525
0.00142369
0.0013912
0.00135194
0.00130605
0.00125859
0.0012285
0.00127779
0.00162705
0.0033995
0.0087912
0.0149573
0.00864731
0.0108757
0.0117597
0.0129215
0.0125518
0.011374
0.0100742
0.00894609
0.00820428
0.00830799
0.00942014
0.0112806
0.013318
0.0148727
0.0154265
0.0147391
0.0128202
0.0101367
0.00702781
0.00464314
0.0031335
0.00234727
0.00196884
0.00178229
0.00167534
0.00159949
0.00153499
0.00147539
0.00142126
0.00137385
0.00133068
0.00129294
0.00127176
0.00129387
0.00140521
0.0016706
0.00223983
0.0037983
0.00935494
0.0135407
0.00883695
0.00354564
0.00482669
0.0059984
0.00660099
0.00727675
0.00880087
0.0113207
0.0141344
0.0165103
0.017891
0.0179375
0.0165964
0.014099
0.010555
0.00729097
0.00481315
0.00331669
0.00256095
0.00221876
0.00205519
0.0019582
0.0018823
0.00180949
0.00173212
0.00164844
0.00156378
0.00149575
0.00145189
0.00144509
0.00150984
0.00170283
0.0020859
0.00271459
0.00371207
0.00552048
0.0102127
0.0147436
0.00890428
0.0044443
0.00628568
0.00809718
0.0110082
0.0146908
0.0181439
0.0203731
0.0214042
0.0212745
0.0199917
0.0174199
0.0139279
0.0102908
0.00705175
0.00478486
0.00350454
0.0029126
0.00266375
0.00254877
0.00247841
0.00242262
0.00237178
0.00232121
0.00226594
0.00220093
0.00212602
0.00205607
0.00202718
0.002064
0.00221492
0.0025526
0.00315764
0.00410194
0.0054765
0.00746785
0.0103431
0.0137331
0.00816378
0.0150811
0.024484
0.0180818
0.0143654
0.0169823
0.0206917
0.0228329
0.0235363
0.0230653
0.0216813
0.0196064
0.0169192
0.0137381
0.0104271
0.00753732
0.00548463
0.00435246
0.00384302
0.00361842
0.00348959
0.00338791
0.00329812
0.00322362
0.0031714
0.00314498
0.00314087
0.00314833
0.00315443
0.00315779
0.00319475
0.00329582
0.00350583
0.00389357
0.00454634
0.00555976
0.0070451
0.00916648
0.0119447
0.0150505
0.00806311
0.0138112
0.0170558
0.0178612
0.020759
0.0216802
0.0220961
0.0211017
0.0192935
0.0171762
0.0149908
0.0128289
0.010722
0.00875848
0.00711392
0.00593808
0.00524596
0.0048732
0.0046643
0.004518
0.00439158
0.00427706
0.00418359
0.00412798
0.00412862
0.00420021
0.00434871
0.00456685
0.00483068
0.00509668
0.00531666
0.00553227
0.0058162
0.00624437
0.00689875
0.007877
0.00930586
0.0113551
0.0142967
0.0149204
0.0100993
0.0121331
0.00890849
0.00881848
0.00933709
0.00977667
0.00919715
0.00811591
0.00692837
0.00582028
0.00484969
0.00402637
0.00335754
0.00285518
0.0025231
0.00234039
0.00226305
0.00225116
0.00226539
0.00229229
0.00233151
0.00238868
0.00247182
0.00258807
0.00274051
0.00292628
0.00313717
0.00336257
0.00359367
0.00382706
0.00406774
0.00431684
0.00458818
0.0049041
0.00528681
0.00575353
0.00630831
0.00693248
0.00760695
0.00844171
0.00867731
)
;

boundaryField
{
    floor
    {
        type            kqRWallFunction;
        value           nonuniform List<scalar> 
36
(
0.00358601
0.000792714
0.00162621
0.00165279
0.00157392
0.00144607
0.0012835
0.0011311
0.000999303
0.000887552
0.00079303
0.000713292
0.000645265
0.000586251
0.000533714
0.000484946
0.00043645
0.000398091
0.000326169
0.000326169
0.000524285
0.000678551
0.000822898
0.00116882
0.00200269
0.00185859
0.00358601
0.00429926
0.00390796
0.00358066
0.000792714
0.00358066
0.00253663
0.00538716
0.00403625
0.00534192
)
;
    }
    ceiling
    {
        type            kqRWallFunction;
        value           nonuniform List<scalar> 
43
(
0.0121331
0.00890849
0.00881848
0.00933709
0.00977667
0.00919715
0.00811591
0.00692837
0.00582028
0.00484969
0.00402637
0.00335754
0.00285518
0.0025231
0.00234039
0.00226305
0.00225116
0.00226539
0.00229229
0.00233151
0.00238868
0.00247182
0.00258807
0.00274051
0.00292628
0.00313717
0.00336257
0.00359367
0.00382706
0.00406774
0.00431684
0.00458818
0.0049041
0.00528681
0.00575353
0.00630831
0.00693248
0.00760695
0.00844171
0.00867731
0.0108757
0.0117597
0.0044443
)
;
    }
    sWall
    {
        type            kqRWallFunction;
        value           nonuniform List<scalar> 9(0.0219184 0.0192321 0.0159464 0.0132625 0.0133497 0.0108757 0.0150811 0.0138112 0.0121331);
    }
    nWall
    {
        type            kqRWallFunction;
        value           nonuniform List<scalar> 
14
(
0.00185859
0.00266864
0.00368681
0.00839606
0.00811547
0.00762714
0.00763519
0.00864731
0.00883695
0.00890428
0.00816378
0.00806311
0.0100993
0.00867731
)
;
    }
    sideWalls
    {
        type            empty;
    }
    glass1
    {
        type            kqRWallFunction;
        value           nonuniform List<scalar> 9(0.00158601 0.00340716 0.00549116 0.00797422 0.0108774 0.0141761 0.0179936 0.0216425 0.0228342);
    }
    glass2
    {
        type            kqRWallFunction;
        value           nonuniform List<scalar> 2(0.00621121 0.0081879);
    }
    sun
    {
        type            kqRWallFunction;
        value           nonuniform List<scalar> 
14
(
0.00158601
0.00180118
0.00178796
0.00194641
0.00209752
0.00223967
0.0023762
0.00251168
0.00265191
0.00280515
0.00295538
0.00310176
0.00324945
0.0034121
)
;
    }
    Table_master
    {
        type            kqRWallFunction;
        value           nonuniform List<scalar> 9(0.00266742 0.00201723 0.00157736 0.00127073 0.0010503 0.000887676 0.000765169 0.000672257 0.000604005);
    }
    Table_slave
    {
        type            kqRWallFunction;
        value           nonuniform List<scalar> 9(0.00345643 0.00286013 0.00243733 0.0021113 0.0018518 0.0016332 0.00143965 0.00125953 0.00107857);
    }
    inlet
    {
        type            turbulentIntensityKineticEnergyInlet;
        intensity       0.05;
        value           uniform 0.0009375;
    }
    outlet
    {
        type            zeroGradient;
    }
}


// ************************************************************************* //
