/*--------------------------------*- C++ -*----------------------------------*\
  =========                 |
  \\      /  F ield         | OpenFOAM: The Open Source CFD Toolbox
   \\    /   O peration     | Website:  https://openfoam.org
    \\  /    A nd           | Version:  6
     \\/     M anipulation  |
\*---------------------------------------------------------------------------*/
FoamFile
{
    version     2.0;
    format      ascii;
    class       volScalarField;
    location    "9900";
    object      k;
}
// * * * * * * * * * * * * * * * * * * * * * * * * * * * * * * * * * * * * * //

dimensions      [0 2 -2 0 0 0 0];

internalField   nonuniform List<scalar> 
778
(
0.00139631
0.00156515
0.00301303
0.0015598
0.00558078
0.00489422
0.00169257
0.00216924
0.0112087
0.00719757
0.00181555
0.00220458
0.0027501
0.0195554
0.00996404
0.00192842
0.00228461
0.00255052
0.00355392
0.0310743
0.0131741
0.00203416
0.00238499
0.0025919
0.00268688
0.00502256
0.0450477
0.0169463
0.00213644
0.0024978
0.00269393
0.00263345
0.00270355
0.00781796
0.0583596
0.020727
0.00223954
0.00262539
0.00281455
0.00269676
0.0024875
0.00274571
0.0127161
0.0685555
0.0220538
0.00234904
0.00277052
0.00295083
0.00276483
0.00248939
0.00228679
0.00301558
0.0198783
0.0688398
0.0213651
0.00246199
0.00293493
0.00310255
0.00283006
0.00249054
0.00222202
0.00212983
0.00415164
0.0313173
0.0513817
0.01895
0.0025773
0.00312088
0.00326848
0.00289911
0.00247878
0.00216437
0.00199315
0.00214361
0.0098417
0.0329763
0.0392789
0.0158444
0.00270192
0.00331938
0.00345854
0.002988
0.0024705
0.00209023
0.00189454
0.00186705
0.00329485
0.0165158
0.0298359
0.0313824
0.0132042
0.00284887
0.00351146
0.00370134
0.00312428
0.00249865
0.00202506
0.00178453
0.00173902
0.00204471
0.00776201
0.0189726
0.0263541
0.0253596
0.013204
0.00301749
0.00364888
0.0040116
0.00335098
0.00260585
0.00202467
0.00169528
0.00162232
0.00176331
0.00410253
0.0115525
0.019152
0.0230707
0.022134
0.0107875
0.00366689
0.00440834
0.00369245
0.00282813
0.00215186
0.0017136
0.00155303
0.00164109
0.00271043
0.00734439
0.0135485
0.0184107
0.021835
0.0116362
0.00360792
0.00488996
0.0041659
0.00318173
0.00241161
0.0019133
0.00166172
0.00166697
0.00221049
0.00515877
0.00984712
0.014295
0.017547
0.0122124
0.00343225
0.00523919
0.00474868
0.00367895
0.00279105
0.00225009
0.00197227
0.00192459
0.00227329
0.00412161
0.00758811
0.0112891
0.0141684
0.0117232
0.0196548
0.00330948
0.00499812
0.00530114
0.00431012
0.0032964
0.00267082
0.00238023
0.00231343
0.00259263
0.00381412
0.00630307
0.00923301
0.0116513
0.0105965
0.00550418
0.0145756
0.00468613
0.00561954
0.0050012
0.00393804
0.00318883
0.00282865
0.00273643
0.00296149
0.00381585
0.00559871
0.00787647
0.00981217
0.00932479
0.00301817
0.00571211
0.0106048
0.00592993
0.00568614
0.00467206
0.00384334
0.00334557
0.00317522
0.00331571
0.00391618
0.00517539
0.00688922
0.00842206
0.00812029
0.00257645
0.00295004
0.00568445
0.0173238
0.0126188
0.00502491
0.0064963
0.00544114
0.00459885
0.00399291
0.0036952
0.00370027
0.00407145
0.00491536
0.00612081
0.00719596
0.00686945
0.00220994
0.00257156
0.00786483
0.0142129
0.0116524
0.0133739
0.00675382
0.0055338
0.00696319
0.00616673
0.00537147
0.00476804
0.00437299
0.00422703
0.00437346
0.00486532
0.00562667
0.00628058
0.00587083
0.00233584
0.00456677
0.0134674
0.0154309
0.00711808
0.0111086
0.00730747
0.00404982
0.00537887
0.00623599
0.00649278
0.00601671
0.00555749
0.00519276
0.00497043
0.00494912
0.0051725
0.00559801
0.00597269
0.00569074
0.00391197
0.00929866
0.0176534
0.0170504
0.00753119
0.0106736
0.00275514
0.00429149
0.00517072
0.00583276
0.00622703
0.00632229
0.00617815
0.00600814
0.00586691
0.0058194
0.00592369
0.00618795
0.00650488
0.00664445
0.00684599
0.0143248
0.0199669
0.0174115
0.00743622
0.0015297
0.00298662
0.00433758
0.00484509
0.00545315
0.00586308
0.00620845
0.00645121
0.00660335
0.00670947
0.00682158
0.00700834
0.00732823
0.00781759
0.0085734
0.0104154
0.0177491
0.020547
0.0166984
0.00686395
0.00162425
0.00313352
0.00412389
0.00440333
0.00503289
0.00541799
0.00584116
0.00632181
0.00680188
0.00724305
0.00765975
0.00810874
0.00867997
0.00950001
0.0108526
0.0135865
0.0191807
0.0199134
0.015401
0.00607803
0.00164718
0.00304989
0.00369949
0.00348084
0.00459107
0.00492762
0.00532419
0.00588054
0.00655995
0.00729302
0.00804265
0.00883326
0.00974538
0.0109351
0.0126731
0.0154523
0.0188628
0.0183881
0.0138777
0.00529166
0.00159637
0.00279423
0.00274737
0.00288346
0.00408721
0.00444424
0.00475434
0.0052573
0.00597049
0.00684293
0.00782173
0.00889029
0.0100956
0.0115391
0.0133945
0.0156107
0.016873
0.0160879
0.0122767
0.00459299
0.00149106
0.00237899
0.00207102
0.00246514
0.00362896
0.00399218
0.0042141
0.0045856
0.00519259
0.0060251
0.00704179
0.00821407
0.00953333
0.0110341
0.0126825
0.0141856
0.0138087
0.0132188
0.0106561
0.00399138
0.00134021
0.00200885
0.00161723
0.00214136
0.00323951
0.00360066
0.00375024
0.00397099
0.00439157
0.00504212
0.00591003
0.00695997
0.00817203
0.00946954
0.0107335
0.0112846
0.0104797
0.0102559
0.00910192
0.00348779
0.00119257
0.00170461
0.00130295
0.00188399
0.00290838
0.00327262
0.00337756
0.00347058
0.00369088
0.00409436
0.00468668
0.0054539
0.00632826
0.00726781
0.00792386
0.0080059
0.00742982
0.00770355
0.00776538
0.00309537
0.00106207
0.00145775
0.00107828
0.00166744
0.00261044
0.00299389
0.00308563
0.00309461
0.00315039
0.00331665
0.00361242
0.00401524
0.00451413
0.00490271
0.00524395
0.00537735
0.00518906
0.00589148
0.00678693
0.00282433
0.000949716
0.00125588
0.000913132
0.00147555
0.00233649
0.00274061
0.00285025
0.00282237
0.00277124
0.00276056
0.00281379
0.00293264
0.00303956
0.00325034
0.00346617
0.00366827
0.00386442
0.00485219
0.00617356
0.00266426
0.000854236
0.00108951
0.000789107
0.00129647
0.00207866
0.00250171
0.0026453
0.002619
0.00251954
0.0024048
0.00231042
0.00224518
0.00224663
0.00232342
0.00249769
0.00277071
0.0032089
0.00434547
0.00579262
0.00258567
0.000772471
0.000950527
0.000695513
0.00111576
0.00182938
0.00226735
0.00245284
0.00245472
0.00234885
0.0021936
0.00202976
0.00189637
0.00183879
0.00186941
0.00202482
0.00234808
0.002913
0.00409353
0.00552771
0.00256141
0.000701768
0.000832007
0.000627806
0.000836566
0.00157728
0.00202913
0.0022592
0.00230528
0.00222437
0.00206852
0.00188541
0.00172823
0.0016395
0.00164444
0.00179057
0.00213928
0.0027641
0.00393249
0.00531161
0.00256323
0.000639715
0.000731577
0.00057812
0.000693563
0.00125261
0.00177779
0.0020547
0.00215361
0.00211592
0.00198767
0.00181439
0.00164921
0.00154193
0.00152526
0.00165485
0.00201117
0.00266556
0.00379854
0.00511555
0.00257844
0.000583871
0.00065998
0.000580169
0.00146318
0.000962495
0.00148791
0.00183183
0.00198895
0.00200425
0.00191785
0.00177323
0.00161589
0.00149457
0.0014554
0.0015596
0.0019094
0.00258345
0.00367854
0.0049396
0.00260851
0.000531547
0.000616705
0.00120465
0.000854883
0.00123179
0.00119939
0.00158328
0.00180478
0.0018786
0.00184093
0.00173373
0.00159732
0.00147359
0.00141143
0.00148246
0.00181387
0.00250691
0.00357713
0.00479835
0.00266017
0.00047905
0.000901114
0.000707
0.00124495
0.00114361
0.00133348
0.00159922
0.00173354
0.00174796
0.00168213
0.00157492
0.00146007
0.00138349
0.0014169
0.00171714
0.00243057
0.00350084
0.00471156
0.00274154
0.000435115
0.00055238
0.00119744
0.00113974
0.00117569
0.00138971
0.00156915
0.00163536
0.00161186
0.0015387
0.00144221
0.00136193
0.00136377
0.00161918
0.00234907
0.00345084
0.00469748
0.00285848
0.00035575
0.00202702
0.00171489
0.00111195
0.0012309
0.00139944
0.00150506
0.00152104
0.00148303
0.00141276
0.001339
0.001323
0.00152851
0.00225864
0.00342015
0.00476734
0.00301168
0.00188454
0.0050573
0.00156211
0.00116108
0.00128059
0.00137156
0.00141452
0.00140639
0.00136734
0.00130986
0.00128879
0.00146444
0.0021633
0.00339553
0.00492031
0.00319576
0.00269938
0.00620181
0.00205584
0.00134472
0.00130557
0.00131454
0.00131736
0.00130568
0.00127286
0.00126048
0.00142848
0.00208688
0.00336632
0.00513955
0.00340094
0.00371855
0.0135468
0.00377479
0.00176089
0.00137033
0.00125583
0.00123877
0.00123143
0.00124661
0.00143127
0.00206172
0.00334205
0.00538973
0.00361664
0.00625081
0.0257503
0.00876165
0.00314766
0.0015409
0.00121913
0.00120249
0.00126861
0.00150319
0.00210998
0.00336483
0.00561519
0.0038356
0.00822065
0.0238107
0.0102124
0.00401207
0.00156001
0.00124697
0.00136486
0.00169204
0.00227781
0.00346494
0.00578702
0.00405754
0.00847274
0.0197099
0.0103159
0.00381569
0.00160228
0.0016007
0.00205034
0.00263005
0.00368861
0.00597378
0.00428721
0.00824481
0.0170737
0.00963568
0.00341228
0.00214639
0.00263635
0.00323498
0.00410083
0.00625038
0.004526
0.00777591
0.0175753
0.00904856
0.00373205
0.00359365
0.00415745
0.00477923
0.0066866
0.00479208
0.00768719
0.0158439
0.00955676
0.00541683
0.00549976
0.0058066
0.00735503
0.00510744
0.00875203
0.0141324
0.0105992
0.00750022
0.0072804
0.00834312
0.00549153
0.0090166
0.0147004
0.0106469
0.00933223
0.00976361
0.0059568
0.00918549
0.0145683
0.0118995
0.0117429
0.00649928
0.00844529
0.0145004
0.0143866
0.00708712
0.00816057
0.0146993
0.00768791
0.00979699
0.0084279
0.00864032
)
;

boundaryField
{
    floor
    {
        type            kqRWallFunction;
        value           nonuniform List<scalar> 
36
(
0.00301749
0.0015297
0.00162425
0.00164718
0.00159637
0.00149106
0.00134021
0.00119257
0.00106207
0.000949716
0.000854236
0.000772471
0.000701768
0.000639715
0.000583871
0.000531547
0.00047905
0.000435115
0.00035575
0.00035575
0.00055238
0.000707
0.000854883
0.00119744
0.00202702
0.00188454
0.00301749
0.00360792
0.00343225
0.00330948
0.0015297
0.00330948
0.00275514
0.00468613
0.00404982
0.00502491
)
;
    }
    ceiling
    {
        type            kqRWallFunction;
        value           nonuniform List<scalar> 
43
(
0.0106736
0.00730747
0.00675382
0.00711808
0.00753119
0.00743622
0.00686395
0.00607803
0.00529166
0.00459299
0.00399138
0.00348779
0.00309537
0.00282433
0.00266426
0.00258567
0.00256141
0.00256323
0.00257844
0.00260851
0.00266017
0.00274154
0.00285848
0.00301168
0.00319576
0.00340094
0.00361664
0.0038356
0.00405754
0.00428721
0.004526
0.00479208
0.00510744
0.00549153
0.0059568
0.00649928
0.00708712
0.00768791
0.0084279
0.00864032
0.0107875
0.0116362
0.0145756
)
;
    }
    sWall
    {
        type            kqRWallFunction;
        value           nonuniform List<scalar> 9(0.0213651 0.01895 0.0158444 0.0132042 0.013204 0.0107875 0.0116524 0.0111086 0.0106736);
    }
    nWall
    {
        type            kqRWallFunction;
        value           nonuniform List<scalar> 
14
(
0.00188454
0.00269938
0.00371855
0.00847274
0.00824481
0.00777591
0.00768719
0.00875203
0.0090166
0.00918549
0.00844529
0.00816057
0.00979699
0.00864032
)
;
    }
    sideWalls
    {
        type            empty;
    }
    glass1
    {
        type            kqRWallFunction;
        value           nonuniform List<scalar> 9(0.00139631 0.00301303 0.00489422 0.00719757 0.00996404 0.0131741 0.0169463 0.020727 0.0220538);
    }
    glass2
    {
        type            kqRWallFunction;
        value           nonuniform List<scalar> 2(0.00625081 0.00822065);
    }
    sun
    {
        type            kqRWallFunction;
        value           nonuniform List<scalar> 
14
(
0.00139631
0.00156515
0.0015598
0.00169257
0.00181555
0.00192842
0.00203416
0.00213644
0.00223954
0.00234904
0.00246199
0.0025773
0.00270192
0.00284887
)
;
    }
    Table_master
    {
        type            kqRWallFunction;
        value           nonuniform List<scalar> 9(0.00274737 0.00207102 0.00161723 0.00130295 0.00107828 0.000913132 0.000789107 0.000695513 0.000627806);
    }
    Table_slave
    {
        type            kqRWallFunction;
        value           nonuniform List<scalar> 9(0.00348084 0.00288346 0.00246514 0.00214136 0.00188399 0.00166744 0.00147555 0.00129647 0.00111576);
    }
    inlet
    {
        type            turbulentIntensityKineticEnergyInlet;
        intensity       0.5;
        value           uniform 0.09375;
    }
    outlet
    {
        type            zeroGradient;
    }
}


// ************************************************************************* //
