/*--------------------------------*- C++ -*----------------------------------*\
  =========                 |
  \\      /  F ield         | OpenFOAM: The Open Source CFD Toolbox
   \\    /   O peration     | Website:  https://openfoam.org
    \\  /    A nd           | Version:  6
     \\/     M anipulation  |
\*---------------------------------------------------------------------------*/
FoamFile
{
    version     2.0;
    format      ascii;
    class       surfaceScalarField;
    location    "780";
    object      phi;
}
// * * * * * * * * * * * * * * * * * * * * * * * * * * * * * * * * * * * * * //

dimensions      [1 0 -1 0 0 0 0];

internalField   nonuniform List<scalar> 
850
(
-0.00305339
0.00311385
-0.00414655
0.00109316
-0.00501589
0.000869332
-0.00570484
0.000688954
-0.00617692
0.000472076
-0.00639806
0.000221143
-0.00632864
-6.94223e-05
-0.0059245
-0.000404135
-0.00517389
-0.000750611
-0.0041284
-0.00104549
-0.00289991
-0.00122848
-0.00164117
-0.00125875
-0.000539016
-0.00110215
0.000135531
-0.000674547
0.000137882
-0.000922396
0.000926052
-0.000689984
-0.000232411
-6.06739e-05
-0.00062931
0.000542741
-0.000603415
0.001002
-0.000459255
0.00125858
-0.000256588
0.00136675
-0.000108169
0.00141961
-5.28614e-05
0.00145009
-3.04758e-05
0.00146519
-1.51017e-05
0.00146869
-3.49844e-06
0.00146169
7.00197e-06
0.00143847
2.32224e-05
0.00138
5.8471e-05
0.00125418
0.000125818
0.00105051
0.000203664
0.00079367
0.000256843
0.000798509
-0.0022077
0.00548493
-0.00329567
0.00218113
-0.00420903
0.0017827
-0.00490685
0.00138677
-0.00538834
0.000953563
-0.00563118
0.000463989
-0.00559497
-0.000105635
-0.00524049
-0.000758617
-0.00456666
-0.00142444
-0.00364234
-0.00196981
-0.0025875
-0.00228332
-0.00154096
-0.00230529
-0.000628269
-0.00201484
9.31327e-05
-0.00139595
0.000872566
-0.000641551
0.0011484
-0.000272053
0.000956651
0.00019611
0.000969338
4.15731e-05
0.000895479
0.00042183
-0.000612668
0.000786679
-0.000994159
0.00109969
-0.000916428
0.0013506
-0.000710164
0.00140709
-0.000313077
0.0014152
-0.000116281
0.00142588
-6.35356e-05
0.00143489
-3.94893e-05
0.0014401
-2.03085e-05
0.00144239
-5.78618e-06
0.00144198
7.4037e-06
0.00143651
2.86923e-05
0.00140005
9.49316e-05
0.00124724
0.000278632
0.000978826
0.000472077
0.00064488
0.00059079
0.00145577
-0.00156248
0.00729782
-0.00251067
0.00312933
-0.00334337
0.00261539
-0.00396593
0.00200933
-0.00441345
0.00140109
-0.00466188
0.000712419
-0.00465605
-0.000111466
-0.00433447
-0.0010802
-0.00371264
-0.00204627
-0.00288799
-0.00279446
-0.00198577
-0.00318555
-0.00112184
-0.00316923
-0.000372733
-0.00276394
0.000241143
-0.00200982
0.00075232
-0.00115273
0.000899486
-0.000419218
0.000707577
0.000388019
0.00168818
0.00143733
-0.00052801
0.00163281
-0.000808155
0.00157502
-0.000936364
0.00160821
-0.000949625
0.00181176
-0.000913714
0.00149884
0.00138271
0.00131933
0.00128
0.00125984
0.00125421
0.00126177
0.00129061
0.0013857
0.00115865
0.000505678
0.000869885
0.000760844
0.000498995
0.00096168
0.00197333
-0.00109552
0.00871797
-0.00185233
0.00388614
-0.00243663
0.0031997
-0.00288264
0.00245534
-0.00322765
0.0017461
-0.00344039
0.000925165
-0.00344165
-0.000110212
-0.00312289
-0.00139896
-0.0025468
-0.00262236
-0.00184495
-0.0034963
-0.00112926
-0.00390124
-0.000479575
-0.00381891
6.68207e-05
-0.00331034
0.000527301
-0.0024703
0.000903141
-0.00152857
0.00112005
-0.000636124
0.00130413
0.000203935
0.00225782
0.000734481
0.00216805
0.000101711
0.00199509
-0.000355047
0.00190895
-0.000722019
0.00179787
-0.000825283
0.00166527
-0.000817019
0.00143367
-0.000682113
0.00175726
-0.00032375
0.00193506
-0.000177951
0.00206628
-0.000131374
0.00216737
-0.000101242
0.0022279
-6.0688e-05
0.00222564
2.10811e-06
0.00213287
9.26161e-05
0.00191332
0.000219403
0.00150713
0.000406028
0.00126971
0.000743098
0.0009024
0.00112816
0.000384318
0.00147976
0.00238128
-0.000756013
0.00986168
-0.00132689
0.00445701
-0.00150938
0.00338218
-0.00168779
0.00263375
-0.00185254
0.00191085
-0.00196136
0.00103398
-0.00191273
-0.000158834
-0.00155529
-0.0017564
-0.00105419
-0.00312346
-0.000536297
-0.0040142
-7.18566e-05
-0.00436569
0.000306708
-0.00419747
0.000597818
-0.00360145
0.000850575
-0.00272306
0.0010697
-0.0017477
0.00127691
-0.000843328
0.00158741
-0.000106564
0.00203083
0.000291055
0.00206457
6.79715e-05
0.0019971
-0.000287573
0.00181239
-0.000537314
0.00162423
-0.000637124
0.00144674
-0.00063953
0.00131771
-0.000553076
0.00137635
-0.00038239
0.0014645
-0.000266105
0.00154909
-0.000215962
0.00163076
-0.000182916
0.00170115
-0.000131079
0.00174038
-3.71159e-05
0.00172443
0.000108568
0.00163824
0.000305593
0.00148607
0.000558193
0.00133006
0.000899113
0.00115108
0.00130713
0.000803996
0.00182685
0.00101984
0.00216544
-0.00109555
0.0021365
-0.00179377
0.000717841
-0.00172099
-0.000638683
0.0109411
-0.00101409
0.00483242
-0.000632992
0.00300109
-0.000447959
0.00244872
-0.00038299
0.00184588
-0.000302246
0.000953237
-5.0012e-05
-0.000411069
0.000336548
-0.00214296
0.000694192
-0.0034811
0.00095389
-0.0042739
0.00109674
-0.00450853
0.00114694
-0.00424768
0.00114074
-0.00359525
0.0011174
-0.00269972
0.00110172
-0.00173202
0.00113364
-0.000875244
0.00127046
-0.000243385
0.00148501
7.65054e-05
0.00153611
1.68752e-05
0.00143795
-0.000189414
0.00126333
-0.000362698
0.00108341
-0.000457199
0.000925805
-0.000481929
0.000820581
-0.000447851
0.000809733
-0.000371542
0.000859139
-0.000315511
0.000935333
-0.000292156
0.00102623
-0.000273815
0.00112526
-0.000230105
0.00122235
-0.000134212
0.0012953
3.56171e-05
0.00133237
0.000268524
0.00134772
0.000542847
0.0013818
0.000865029
0.00148236
0.00120658
0.0016858
0.0016234
0.00203679
0.00181446
0.00233696
0.00183632
0.00182986
0.00122494
0.000174301
-0.000763602
0.012192
-0.000620971
0.00468979
0.000493027
0.00188709
0.000961696
0.00198005
0.00121947
0.00158811
0.00160155
0.000571157
0.00210533
-0.000914855
0.00244237
-0.00248
0.0025761
-0.00361483
0.00250832
-0.00420611
0.00227482
-0.00427504
0.00193764
-0.00391049
0.00156053
-0.00321814
0.00120159
-0.00234079
0.000897624
-0.00142805
0.000705812
-0.000683432
0.000653931
-0.000191504
0.000704814
2.56223e-05
0.00071269
8.99943e-06
0.000636235
-0.000112959
0.000508705
-0.000235168
0.000368233
-0.000316727
0.00024221
-0.000355906
0.00015606
-0.000361701
0.000133101
-0.000348583
0.00016212
-0.00034453
0.000221764
-0.0003518
0.000302289
-0.00035434
0.00040458
-0.000332396
0.000533597
-0.000263229
0.000686499
-0.000117285
0.000844487
0.000110536
0.00100665
0.000380688
0.00120854
0.000663133
0.00148325
0.000931868
0.00188367
0.00122298
0.00241732
0.00128081
0.0031851
0.00106855
0.00336178
0.00104826
0.00360489
0.00273646
0.00999883
0.0033925
0.00403374
0.00345046
0.00182913
0.00353661
0.0018939
0.00374845
0.00137627
0.00422496
9.46399e-05
0.00469629
-0.00138618
0.00479115
-0.00257486
0.00451652
-0.0033402
0.00396294
-0.00365254
0.00323136
-0.00354345
0.00242603
-0.00310517
0.00162892
-0.00242102
0.000922799
-0.00163467
0.000347857
-0.000853106
-2.27429e-06
-0.000333301
-0.000140817
-5.29614e-05
-0.000155477
4.02827e-05
-0.000163528
1.70502e-05
-0.000215825
-6.0662e-05
-0.000306739
-0.000144254
-0.000412983
-0.000210483
-0.000512197
-0.000256693
-0.00058639
-0.000287508
-0.000624385
-0.000310589
-0.000633658
-0.000335256
-0.000625825
-0.000359634
-0.000605312
-0.000374853
-0.000567185
-0.000370523
-0.000495053
-0.000335361
-0.00035758
-0.000254757
-0.000147281
-9.97636e-05
0.00010369
0.000129718
0.000388439
0.000378384
0.000706912
0.000613395
0.00108916
0.00084073
0.00150667
0.000863304
0.00189856
0.000676655
0.00120604
0.00174077
0.00509732
0.0105977
0.0146273
0.0125621
0.00389436
0.0112309
0.00322505
0.0103434
0.00226377
0.00953686
0.000901203
0.0085342
-0.000383531
0.00735493
-0.00139558
0.00608117
-0.00206644
0.00476166
-0.00233303
0.00342986
-0.00221165
0.00216444
-0.00183975
0.00100926
-0.00126584
5.60393e-05
-0.000681446
-0.000566518
-0.000230549
-0.000860172
-3.96465e-05
-0.000957324
4.41907e-05
-0.000977001
5.99599e-05
-0.000992459
3.25076e-05
-0.00103596
-1.71636e-05
-0.00110851
-7.1697e-05
-0.00119738
-0.000121615
-0.00128894
-0.000165135
-0.00137442
-0.000202029
-0.00145158
-0.000233424
-0.00152718
-0.000259664
-0.00161036
-0.000276445
-0.00170976
-0.000275462
-0.00183496
-0.000245316
-0.0019988
-0.000171528
-0.00221668
-3.68748e-05
-0.00248305
0.000166612
-0.00280695
0.000453617
-0.00327073
0.000842162
-0.00398771
0.00133038
-0.00502905
0.00188207
-0.00651603
0.00235027
-0.00825435
0.00241498
-0.00777104
0.00125746
-0.00235675
0.00895084
0.00560199
0.00747242
0.00470348
0.00708055
0.00265563
0.00672984
0.00125192
0.00611969
0.000226617
0.00524676
-0.000522656
0.00417758
-0.000997258
0.00298129
-0.00113674
0.00168921
-0.000919571
0.000428162
-0.0005787
-0.000611573
-0.000226109
-0.00127242
-2.06039e-05
-0.00156449
6.15234e-05
-0.0016788
7.4664e-05
-0.00170856
7.39576e-05
-0.00171426
6.56576e-05
-0.00172927
4.75141e-05
-0.00176801
2.15734e-05
-0.00183178
-7.92586e-06
-0.00191305
-4.03423e-05
-0.00200419
-7.39908e-05
-0.00210322
-0.000103006
-0.00221153
-0.000125114
-0.00233252
-0.000138671
-0.00246828
-0.000140686
-0.00261766
-0.000126077
-0.00277521
-8.77685e-05
-0.00292857
-1.81652e-05
-0.0030622
9.67488e-05
-0.0031745
0.000278918
-0.00327546
0.000554569
-0.00337694
0.000943651
-0.00348574
0.00143917
-0.00356925
0.00196558
-0.00356764
0.00234867
-0.00330974
0.00215708
-0.0019498
-0.000102484
-0.00422323
-0.000826029
0.00648134
0.000741447
0.003136
0.00140631
0.00199077
0.00164432
0.00101391
0.00157964
0.000291293
0.00120795
-0.000150962
0.000525
-0.000314311
-0.000368533
-0.000243203
-0.0012451
-4.30026e-05
-0.00188947
6.56709e-05
-0.00222917
0.000113587
-0.00235939
0.000109613
-0.00238187
8.40106e-05
-0.00237133
6.41239e-05
-0.00235011
5.27349e-05
-0.00232945
4.49994e-05
-0.00231839
3.6455e-05
-0.0023222
2.53766e-05
-0.00234141
1.12846e-05
-0.00237491
-6.83903e-06
-0.00242311
-2.57885e-05
-0.00248419
-4.19262e-05
-0.00255614
-5.31621e-05
-0.00263637
-5.84488e-05
-0.00272074
-5.63157e-05
-0.00280262
-4.41908e-05
-0.00287249
-1.79013e-05
-0.00291781
2.71582e-05
-0.00291789
9.68221e-05
-0.00284743
0.000208466
-0.00267195
0.000379083
-0.00236004
0.000631741
-0.00190383
0.000982962
-0.00128934
0.00135109
-0.00029975
0.00135908
0.00114752
0.000709811
0.00164257
-0.000597534
-0.002489
-0.0120472
-0.015576
-0.00905414
-0.00589073
-0.00387771
-0.00284521
-0.00253892
-0.00267791
-0.00298232
-0.00321704
-0.00325239
-0.00317945
-0.00305874
-0.00294204
-0.00285092
-0.00277968
-0.0027198
-0.00266762
-0.00262393
-0.00259129
-0.00257274
-0.00257235
-0.00259099
-0.00262587
-0.00267212
-0.00272379
-0.00277349
-0.00281124
-0.00282288
-0.00278967
-0.00268701
-0.00247294
-0.00208849
-0.00145166
-0.000463901
0.0008916
0.0022548
0.00296865
0.00237528
)
;

boundaryField
{
    floor
    {
        type            calculated;
        value           nonuniform List<scalar> 
36
(
0
0
0
0
0
0
0
0
0
0
0
0
0
0
0
0
0
0
0
-4.8393e-06
-1.23772e-05
-1.85667e-05
-2.36346e-05
-2.11134e-05
-1.96205e-05
-1.8455e-05
-2.35093e-06
-3.78378e-06
-4.35885e-06
-5.04422e-06
-3.65651e-06
-7.6431e-06
-1.10003e-05
-1.12605e-05
-1.38378e-05
-1.19375e-05
)
;
    }
    ceiling
    {
        type            calculated;
        value           nonuniform List<scalar> 
43
(
-4.18372e-05
-4.11724e-05
-4.04729e-05
-2.74051e-05
-2.22552e-05
-1.85815e-05
-1.49994e-05
-1.19762e-05
-9.90403e-06
-8.47952e-06
-7.64924e-06
-7.27102e-06
-7.12197e-06
-7.09227e-06
-7.10164e-06
-7.11922e-06
-7.14541e-06
-7.18402e-06
-7.22918e-06
-7.26329e-06
-7.26639e-06
-7.22721e-06
-7.14992e-06
-7.0453e-06
-6.91839e-06
-6.77353e-06
-6.61455e-06
-6.44304e-06
-6.25851e-06
-6.05701e-06
-5.83869e-06
-5.60623e-06
-5.35811e-06
-5.09117e-06
-4.79899e-06
-4.40993e-06
-4.12361e-06
-4.03282e-06
-4.166e-06
-3.59078e-06
6.94219e-06
4.18032e-06
-5.3322e-05
)
;
    }
    sWall
    {
        type            calculated;
        value           uniform -0.000241387;
    }
    nWall
    {
        type            calculated;
        value           nonuniform List<scalar> 6(-5.43198e-05 -6.54343e-05 -6.88071e-05 -8.33123e-05 -9.16677e-05 -0.000110127);
    }
    sideWalls
    {
        type            empty;
        value           nonuniform 0();
    }
    glass1
    {
        type            calculated;
        value           nonuniform List<scalar> 9(-6.04541e-05 -0.000163391 -0.000250406 -0.000324628 -0.000387697 -0.000440757 -0.000487262 -0.000543316 -0.000605839);
    }
    glass2
    {
        type            calculated;
        value           nonuniform List<scalar> 2(-0.000286384 -0.000316971);
    }
    sun
    {
        type            calculated;
        value           uniform 0;
    }
    Table_master
    {
        type            calculated;
        value           nonuniform List<scalar> 9(-1.5364e-07 -1.53789e-07 -1.53839e-07 -1.53869e-07 -1.5389e-07 -1.53902e-07 -1.53906e-07 -1.539e-07 -1.5387e-07);
    }
    Table_slave
    {
        type            calculated;
        value           nonuniform List<scalar> 9(1.53531e-07 1.53516e-07 1.53468e-07 1.5343e-07 1.53408e-07 1.53408e-07 1.53413e-07 1.5345e-07 1.53534e-07);
    }
    inlet
    {
        type            calculated;
        value           uniform -0.0106585;
    }
    outlet
    {
        type            calculated;
        value           nonuniform List<scalar> 2(0.0123305 0.00356988);
    }
}


// ************************************************************************* //
