/*--------------------------------*- C++ -*----------------------------------*\
  =========                 |
  \\      /  F ield         | OpenFOAM: The Open Source CFD Toolbox
   \\    /   O peration     | Website:  https://openfoam.org
    \\  /    A nd           | Version:  6
     \\/     M anipulation  |
\*---------------------------------------------------------------------------*/
FoamFile
{
    version     2.0;
    format      ascii;
    class       volVectorField;
    location    "780";
    object      U;
}
// * * * * * * * * * * * * * * * * * * * * * * * * * * * * * * * * * * * * * //

dimensions      [0 1 -1 0 0 0 0];

internalField   nonuniform List<vector> 
458
(
(0.0347938 0.0885316 0)
(-0.1721 0.0265947 0)
(-0.199387 0.0191175 0)
(-0.233269 0.0130815 0)
(-0.258443 0.00641155 0)
(-0.273645 -0.000809238 0)
(-0.276767 -0.00878473 0)
(-0.265507 -0.017787 0)
(-0.239435 -0.0274369 0)
(-0.199709 -0.0361202 0)
(-0.150433 -0.0420548 0)
(-0.0978142 -0.043646 0)
(-0.0487196 -0.0390648 0)
(-0.00627788 -0.0236677 0)
(-0.0102921 0.00976377 0)
(-0.0102365 0.0105113 0)
(-0.0372576 -0.0174896 0)
(-0.014507 -0.0291084 0)
(0.0136742 -0.0251827 0)
(0.0334471 -0.0178919 0)
(0.0480652 -0.00955509 0)
(0.056826 -0.00517763 0)
(0.0607064 -0.00363416 0)
(0.0621452 -0.00308648 0)
(0.0627983 -0.00276205 0)
(0.0631077 -0.00250856 0)
(0.0630439 -0.00224152 0)
(0.0624456 -0.00179865 0)
(0.0608559 -0.000840859 0)
(0.0572573 0.00107052 0)
(0.0505399 0.00317094 0)
(0.0451276 0.00509109 0)
(-0.0141283 0.021956 0)
(0.214224 0.181907 0)
(-0.162156 0.0710188 0)
(-0.16297 0.0577759 0)
(-0.198689 0.045749 0)
(-0.224166 0.0319879 0)
(-0.24014 0.0161693 0)
(-0.244636 -0.00242305 0)
(-0.235129 -0.0239864 0)
(-0.211868 -0.0461927 0)
(-0.176473 -0.0649473 0)
(-0.133335 -0.0764387 0)
(-0.0881031 -0.0781975 0)
(-0.0462396 -0.0687124 0)
(-0.0100133 -0.0459972 0)
(0.0194085 -0.0133904 0)
(0.0442335 0.00784618 0)
(0.054836 0.0347553 0)
(-0.01182 0.0706772 0)
(0.0670407 0.0439802 0)
(0.0102931 -0.0218329 0)
(0.0265199 -0.037901 0)
(0.0407475 -0.0356471 0)
(0.0531386 -0.0273489 0)
(0.0595647 -0.0120946 0)
(0.0611847 -0.00275435 0)
(0.0612325 0.000745309 0)
(0.0613958 0.0020176 0)
(0.0617207 0.00272091 0)
(0.0619468 0.00322413 0)
(0.0620067 0.00367626 0)
(0.0619033 0.00440648 0)
(0.061192 0.00620329 0)
(0.0577964 0.0112176 0)
(0.0491085 0.0155338 0)
(0.0476981 0.0187118 0)
(-0.0583913 0.0475653 0)
(0.379469 0.272979 0)
(-0.180107 0.11377 0)
(-0.123529 0.0941274 0)
(-0.159213 0.0724409 0)
(-0.182615 0.0495007 0)
(-0.198423 0.0236321 0)
(-0.204069 -0.00655538 0)
(-0.195369 -0.0410108 0)
(-0.173574 -0.0758161 0)
(-0.141397 -0.103679 0)
(-0.103807 -0.118969 0)
(-0.0658596 -0.119154 0)
(-0.0317901 -0.104096 0)
(-0.00224743 -0.0743697 0)
(0.0220481 -0.0400652 0)
(0.0376043 -0.0152143 0)
(0.0431802 0.0131628 0)
(-0.0236571 0.0623121 0)
(0.1225 -0.00754137 0)
(0.0725148 -0.0320939 0)
(0.0643106 -0.0419275 0)
(0.0672533 -0.0417571 0)
(0.0718614 -0.0380576 0)
(0.0734931 -0.0282349 0)
(0.0643702 -0.0183334 0)
(0.0574126 -0.0130291 0)
(0.0548104 -0.0100832 0)
(0.054116 -0.00818692 0)
(0.0538818 -0.00689792 0)
(0.0539528 -0.00590298 0)
(0.0547517 -0.00475518 0)
(0.0572005 -0.00140081 0)
(0.0560936 0.0149875 0)
(0.0445801 0.0258688 0)
(0.0541212 0.0332503 0)
(-0.099333 0.0728178 0)
(0.529953 0.34668 0)
(-0.216642 0.151796 0)
(-0.0802062 0.125855 0)
(-0.115538 0.0963017 0)
(-0.133413 0.0672184 0)
(-0.146922 0.0337477 0)
(-0.152501 -0.00713946 0)
(-0.142591 -0.0550978 0)
(-0.121248 -0.102355 0)
(-0.0929318 -0.137878 0)
(-0.062483 -0.155445 0)
(-0.0335241 -0.153424 0)
(-0.00875139 -0.133408 0)
(0.0129064 -0.0978911 0)
(0.0304665 -0.0589524 0)
(0.0443808 -0.0228851 0)
(0.0599715 0.01315 0)
(0.0588375 0.0534339 0)
(0.100347 0.0614932 0)
(0.0988277 -0.00244496 0)
(0.0851555 -0.0293854 0)
(0.0784614 -0.0376778 0)
(0.0735951 -0.0383819 0)
(0.0669789 -0.0341113 0)
(0.0665394 -0.0208394 0)
(0.0772179 -0.013833 0)
(0.0861916 -0.0101136 0)
(0.0916044 -0.00783163 0)
(0.0948572 -0.00592425 0)
(0.0962778 -0.00386357 0)
(0.0945194 -0.00119506 0)
(0.0882605 0.00247855 0)
(0.0757178 0.00774251 0)
(0.0598009 0.0250916 0)
(0.0440624 0.0405811 0)
(0.0629633 0.053338 0)
(-0.131319 0.0943096 0)
(0.662601 0.403837 0)
(-0.262314 0.182717 0)
(-0.0350333 0.145274 0)
(-0.0687342 0.111319 0)
(-0.0779232 0.0792214 0)
(-0.0862645 0.0412286 0)
(-0.08901 -0.0080218 0)
(-0.0739658 -0.0688725 0)
(-0.0534185 -0.125954 0)
(-0.0315127 -0.165114 0)
(-0.0112123 -0.181862 0)
(0.00622206 -0.175983 0)
(0.019381 -0.151452 0)
(0.0303968 -0.1145 0)
(0.0402402 -0.0729276 0)
(0.0494751 -0.0337029 0)
(0.0619643 0.00068231 0)
(0.0760596 0.0197158 0)
(0.0903433 -0.000566332 0)
(0.0896952 -0.0213691 0)
(0.0826207 -0.0300231 0)
(0.0738035 -0.0325253 0)
(0.0655441 -0.0315996 0)
(0.0585821 -0.0266137 0)
(0.056789 -0.0155068 0)
(0.0603421 -0.00903387 0)
(0.0646888 -0.00638785 0)
(0.0684191 -0.0048483 0)
(0.0716715 -0.00277008 0)
(0.074187 0.000762848 0)
(0.0750456 0.00595943 0)
(0.0731555 0.0129847 0)
(0.0682485 0.0224375 0)
(0.0612043 0.0371715 0)
(0.050056 0.0536282 0)
(0.0748496 0.0727382 0)
(-0.00683117 0.101415 0)
(0.055772 0.150669 0)
(-0.0835432 0.0748243 0)
(-0.277796 0.000471274 0)
(0.761811 0.451347 0)
(-0.308506 0.203369 0)
(0.0024352 0.143898 0)
(-0.0205578 0.116251 0)
(-0.0197519 0.0857022 0)
(-0.0214536 0.0472698 0)
(-0.0142432 -0.00697288 0)
(0.0104145 -0.0860086 0)
(0.0270098 -0.146243 0)
(0.0389095 -0.182457 0)
(0.0461223 -0.194566 0)
(0.0489635 -0.185041 0)
(0.048694 -0.158086 0)
(0.0472853 -0.119874 0)
(0.0461047 -0.0778998 0)
(0.0465115 -0.0396775 0)
(0.0508521 -0.00997453 0)
(0.0599886 0.00483195 0)
(0.0662573 -0.00104443 0)
(0.0649978 -0.0110028 0)
(0.0586031 -0.0187855 0)
(0.0504217 -0.0228743 0)
(0.0427719 -0.0236156 0)
(0.0367838 -0.0211037 0)
(0.0342261 -0.0157624 0)
(0.0353757 -0.0123043 0)
(0.0383328 -0.010881 0)
(0.0419926 -0.00979924 0)
(0.0460594 -0.00766777 0)
(0.0502486 -0.00340903 0)
(0.0544635 0.00367144 0)
(0.0569813 0.0131827 0)
(0.0581479 0.0249412 0)
(0.059275 0.0395696 0)
(0.0583565 0.0559972 0)
(0.0796985 0.0766871 0)
(0.0654436 0.0890106 0)
(0.099719 0.0967504 0)
(0.117479 0.0572061 0)
(-0.136906 -0.0299481 0)
(0.815562 0.494207 0)
(-0.334076 0.18739 0)
(0.0322563 0.0938005 0)
(0.0391004 0.101027 0)
(0.0459852 0.0829597 0)
(0.0516945 0.0393187 0)
(0.079206 -0.0312418 0)
(0.10322 -0.103769 0)
(0.113388 -0.157064 0)
(0.112956 -0.186358 0)
(0.104665 -0.192436 0)
(0.0908626 -0.178758 0)
(0.0741584 -0.14973 0)
(0.0575585 -0.111513 0)
(0.0430211 -0.070862 0)
(0.0326553 -0.0356553 0)
(0.028126 -0.010729 0)
(0.0295117 0.00100987 0)
(0.0311372 -0.000264547 0)
(0.0296284 -0.00654926 0)
(0.0249678 -0.0125997 0)
(0.0188406 -0.0163226 0)
(0.0128097 -0.0176875 0)
(0.00799903 -0.0170685 0)
(0.00563634 -0.0151877 0)
(0.00597851 -0.0141142 0)
(0.00801971 -0.0139874 0)
(0.0110189 -0.0137723 0)
(0.014815 -0.0123962 0)
(0.0194928 -0.00876514 0)
(0.0256585 -0.00164801 0)
(0.0332715 0.00886551 0)
(0.0400417 0.0208848 0)
(0.0478543 0.0341488 0)
(0.0558583 0.0479521 0)
(0.0754362 0.0644482 0)
(0.0882228 0.0697846 0)
(0.119669 0.0632234 0)
(0.163388 0.0513108 0)
(-0.0203202 0.0954796 0)
(0.921823 0.497288 0)
(-0.0766184 0.167434 0)
(0.11064 0.026157 0)
(0.163789 0.0227458 0)
(0.161479 0.015469 0)
(0.16297 -0.0294638 0)
(0.196619 -0.0804933 0)
(0.211394 -0.125609 0)
(0.20547 -0.15832 0)
(0.185186 -0.173996 0)
(0.155661 -0.171664 0)
(0.121144 -0.153944 0)
(0.0853364 -0.124226 0)
(0.0524014 -0.0880164 0)
(0.0244875 -0.0510013 0)
(0.00513214 -0.0218768 0)
(-0.00462764 -0.00438723 0)
(-0.00656424 0.00178868 0)
(-0.00645458 0.000687048 0)
(-0.00766276 -0.0036364 0)
(-0.0109691 -0.00797604 0)
(-0.0154692 -0.0110265 0)
(-0.0201001 -0.0127934 0)
(-0.0239606 -0.0136511 0)
(-0.0263421 -0.0141289 0)
(-0.0272353 -0.0148986 0)
(-0.0272 -0.015891 0)
(-0.0266203 -0.0166148 0)
(-0.0254976 -0.0165282 0)
(-0.0235226 -0.0150548 0)
(-0.0198975 -0.0114748 0)
(-0.0117447 -0.00491669 0)
(-0.000119207 0.00444245 0)
(0.0110669 0.013745 0)
(0.0226718 0.0208538 0)
(0.0398807 0.027728 0)
(0.0554177 0.0224458 0)
(0.0795653 0.0056549 0)
(0.146394 0.0479747 0)
(-0.428298 0.212645 0)
(1.06587 0.444154 0)
(0.518227 0.298294 0)
(0.529536 0.249827 0)
(0.518436 0.182852 0)
(0.469931 0.12237 0)
(0.433295 0.0600468 0)
(0.392164 -0.00749021 0)
(0.342947 -0.0670316 0)
(0.289173 -0.107887 0)
(0.232811 -0.126604 0)
(0.1754 -0.125068 0)
(0.118918 -0.108866 0)
(0.0654555 -0.0822222 0)
(0.0202287 -0.0511911 0)
(-0.0161192 -0.0207692 0)
(-0.0329661 -0.00600757 0)
(-0.0401515 0.000490038 0)
(-0.0417035 0.0022439 0)
(-0.0420858 0.00103967 0)
(-0.0432318 -0.00160487 0)
(-0.0458609 -0.00447508 0)
(-0.0495051 -0.00699495 0)
(-0.0535197 -0.00908654 0)
(-0.0573758 -0.010834 0)
(-0.0608206 -0.0123587 0)
(-0.0640146 -0.0137564 0)
(-0.067359 -0.0148654 0)
(-0.0712296 -0.015329 0)
(-0.0759794 -0.014656 0)
(-0.0820788 -0.0122003 0)
(-0.0902173 -0.00713025 0)
(-0.10112 0.00141075 0)
(-0.112756 0.0133014 0)
(-0.127979 0.0283951 0)
(-0.152895 0.0467678 0)
(-0.19021 0.0673802 0)
(-0.241599 0.0862163 0)
(-0.297521 0.0999118 0)
(-0.371607 0.106909 0)
(-0.650626 0.106307 0)
(0.233969 0.0527646 0)
(0.305907 0.115849 0)
(0.321235 0.0912295 0)
(0.299662 0.039443 0)
(0.275078 -0.0107037 0)
(0.244395 -0.0469961 0)
(0.203083 -0.0684303 0)
(0.153958 -0.0753894 0)
(0.100363 -0.0686504 0)
(0.0460746 -0.0528544 0)
(-0.00873417 -0.0294251 0)
(-0.045206 -0.0114113 0)
(-0.0636565 -0.00305103 0)
(-0.070969 -0.000678845 0)
(-0.0731901 -0.000215214 0)
(-0.0735042 -0.000917526 0)
(-0.0738049 -0.00251934 0)
(-0.0749448 -0.00461423 0)
(-0.0771527 -0.00670462 0)
(-0.0803987 -0.00848487 0)
(-0.0841798 -0.00996105 0)
(-0.0882725 -0.0110966 0)
(-0.0926932 -0.0118887 0)
(-0.097595 -0.0122966 0)
(-0.103127 -0.0121318 0)
(-0.10932 -0.0110477 0)
(-0.116042 -0.00857232 0)
(-0.122947 -0.00416684 0)
(-0.129412 0.00272722 0)
(-0.134389 0.0123211 0)
(-0.138357 0.0255957 0)
(-0.141794 0.0431558 0)
(-0.146004 0.0642009 0)
(-0.151757 0.0850357 0)
(-0.155342 0.0955404 0)
(-0.141289 0.0734036 0)
(-0.110244 -0.0249933 0)
(-0.286588 -0.213718 0)
(0.120078 0.324274 0)
(0.00836958 0.2035 0)
(0.0392078 0.118334 0)
(0.0583849 0.0603185 0)
(0.0629946 0.0215368 0)
(0.059965 -0.00483607 0)
(0.0400268 -0.0199104 0)
(0.00519535 -0.0188806 0)
(-0.036784 -0.00167798 0)
(-0.0702721 0.0128732 0)
(-0.0913379 0.0208451 0)
(-0.100313 0.0232059 0)
(-0.102506 0.023317 0)
(-0.102435 0.0233539 0)
(-0.101553 0.0240502 0)
(-0.100516 0.0251624 0)
(-0.0997905 0.0262926 0)
(-0.0996606 0.0270408 0)
(-0.100182 0.0269856 0)
(-0.10131 0.0257929 0)
(-0.103088 0.0237608 0)
(-0.105449 0.0215147 0)
(-0.108334 0.019335 0)
(-0.111653 0.017371 0)
(-0.115266 0.0157292 0)
(-0.118955 0.0145215 0)
(-0.122409 0.0138847 0)
(-0.125143 0.013973 0)
(-0.126343 0.0154754 0)
(-0.124841 0.0198495 0)
(-0.119058 0.0282592 0)
(-0.107607 0.0417069 0)
(-0.0903448 0.0602122 0)
(-0.0683138 0.0804038 0)
(-0.0434451 0.0948222 0)
(-0.00758745 0.0857644 0)
(0.146935 0.00929516 0)
(-0.20992 -0.129657 0)
(-0.422043 -0.515976 0)
(-0.637266 -0.143287 0)
(-0.449387 0.17767 0)
(-0.35798 0.0559971 0)
(-0.214021 -0.00559057 0)
(-0.145814 -0.0477566 0)
(-0.117428 -0.0703848 0)
(-0.113266 -0.0711519 0)
(-0.122604 -0.0624836 0)
(-0.135063 -0.0547831 0)
(-0.1405 -0.0503234 0)
(-0.138714 -0.048866 0)
(-0.134235 -0.0497196 0)
(-0.129031 -0.0524996 0)
(-0.124542 -0.0559812 0)
(-0.121069 -0.0595859 0)
(-0.11824 -0.0631932 0)
(-0.1158 -0.0668614 0)
(-0.113704 -0.0704438 0)
(-0.112027 -0.0734464 0)
(-0.110903 -0.0752445 0)
(-0.110498 -0.0754001 0)
(-0.110917 -0.0740147 0)
(-0.11212 -0.0716819 0)
(-0.113933 -0.0686314 0)
(-0.11613 -0.0650104 0)
(-0.118429 -0.0608552 0)
(-0.120462 -0.0560818 0)
(-0.121744 -0.0504761 0)
(-0.121637 -0.0436738 0)
(-0.119125 -0.0357039 0)
(-0.112304 -0.026598 0)
(-0.098372 -0.0158091 0)
(-0.0748269 -0.0024335 0)
(-0.0415476 0.0144061 0)
(0.00929692 0.0363359 0)
(0.0618418 0.0424086 0)
(0.109568 0.0241184 0)
(0.17204 -0.015855 0)
(-0.196327 -0.0825956 0)
)
;

boundaryField
{
    floor
    {
        type            noSlip;
    }
    ceiling
    {
        type            noSlip;
    }
    sWall
    {
        type            noSlip;
    }
    nWall
    {
        type            noSlip;
    }
    sideWalls
    {
        type            empty;
    }
    glass1
    {
        type            noSlip;
    }
    glass2
    {
        type            noSlip;
    }
    sun
    {
        type            noSlip;
    }
    Table_master
    {
        type            noSlip;
    }
    Table_slave
    {
        type            noSlip;
    }
    inlet
    {
        type            fixedValue;
        value           uniform (0.46194 -0.191342 0);
    }
    outlet
    {
        type            zeroGradient;
    }
}


// ************************************************************************* //
