/*--------------------------------*- C++ -*----------------------------------*\
  =========                 |
  \\      /  F ield         | OpenFOAM: The Open Source CFD Toolbox
   \\    /   O peration     | Website:  https://openfoam.org
    \\  /    A nd           | Version:  6
     \\/     M anipulation  |
\*---------------------------------------------------------------------------*/
FoamFile
{
    version     2.0;
    format      ascii;
    class       volScalarField;
    location    "6800";
    object      nut;
}
// * * * * * * * * * * * * * * * * * * * * * * * * * * * * * * * * * * * * * //

dimensions      [0 2 -1 0 0 0 0];

internalField   nonuniform List<scalar> 
662
(
0.000988436
0.00106678
0.00108433
0.00113509
0.00118239
0.00122714
0.00127139
0.00131769
0.00136463
0.00140837
0.00144324
0.00145716
0.00143056
0.0013393
0.00108929
0.000487698
0.000572245
0.000645834
0.000667325
0.00065336
0.000610376
0.000563629
0.000521891
0.000485753
0.000454369
0.000426974
0.000403038
0.000381827
0.00036254
0.000344296
0.000326097
0.000316767
0.00029255
0.00135411
0.00281953
0.00250963
0.00287119
0.00321136
0.00356648
0.00391245
0.00420658
0.00449156
0.00483588
0.00522542
0.00560622
0.00587426
0.00588188
0.00512087
0.0013088
0.00107724
0.000878549
0.000487347
0.0011359
0.0016373
0.0020231
0.00214188
0.00157458
0.00133062
0.0011636
0.00103981
0.00094474
0.000869112
0.000803691
0.00074277
0.000682702
0.000629357
0.000583481
0.000721803
0.000391307
0.00168437
0.00392589
0.0028703
0.00366397
0.00398392
0.00418499
0.00429955
0.00437128
0.00448621
0.00472691
0.00512108
0.00566738
0.00624671
0.00664095
0.00649181
0.00535304
0.0041753
0.00104465
0.000769125
0.00129736
0.00185173
0.00239922
0.00255126
0.000824815
0.000721725
0.000636378
0.000567404
0.000511791
0.000466737
0.000430093
0.000400373
0.00037706
0.000414561
0.00047598
0.000848932
0.000465863
0.00202264
0.00541101
0.00286215
0.00377964
0.00412847
0.00413196
0.00397681
0.00381313
0.00377601
0.00392001
0.00429723
0.00496954
0.00575426
0.00635307
0.00654886
0.00634118
0.00553957
0.00305862
0.00121631
0.00156011
0.00212579
0.00279738
0.00336633
0.00337204
0.000926463
0.000846123
0.000791441
0.000751327
0.00071777
0.000684603
0.000653196
0.000620125
0.000581608
0.000547697
0.000541965
0.00102503
0.000536335
0.0023602
0.00708634
0.00369587
0.00344959
0.00400219
0.0040598
0.00381269
0.00347448
0.00332755
0.00340566
0.00375783
0.00452183
0.00538403
0.00593714
0.00618144
0.00619531
0.00591458
0.00491556
0.00450409
0.00448524
0.00468945
0.00493419
0.00506514
0.00493767
0.00417556
0.00378796
0.00357508
0.00342343
0.00327192
0.00308134
0.00275691
0.00234224
0.00187401
0.00142535
0.00106943
0.00100544
0.000910461
0.000722605
0.000758003
0.000821865
0.0027426
0.00860273
0.00556304
0.00362953
0.00347331
0.00363489
0.00367552
0.00341766
0.00323752
0.00326774
0.00361474
0.00436643
0.00526269
0.00574876
0.0059011
0.00588544
0.00587032
0.00581552
0.00600313
0.00623957
0.00637007
0.00633485
0.00614134
0.00581321
0.00537872
0.00502929
0.00475802
0.00452037
0.00428943
0.00404923
0.00375379
0.00335318
0.00285116
0.00228544
0.00176325
0.001264
0.00107037
0.000958906
0.00120723
0.000852759
0.00128925
0.00404467
0.00523808
0.00452215
0.00377839
0.00346873
0.00343465
0.00342728
0.00330579
0.00323876
0.00348136
0.00421532
0.00544454
0.00580297
0.00585977
0.00584088
0.00607913
0.00654731
0.00696742
0.0071561
0.00708118
0.00678897
0.00635331
0.00584508
0.00534416
0.00493975
0.00462946
0.00437456
0.00415144
0.00395365
0.00377993
0.00358151
0.00324546
0.00278648
0.00231373
0.00185109
0.00155935
0.00143614
0.00135209
0.00100438
0.00101698
0.00205291
0.00294733
0.00356426
0.00382628
0.00376694
0.0036035
0.00344178
0.00325346
0.00324113
0.00372742
0.0046618
0.00578656
0.00599767
0.00599768
0.00613824
0.00664364
0.0070435
0.0072224
0.00714218
0.00680988
0.00628983
0.00567391
0.00506271
0.00455357
0.00418784
0.0039312
0.00374138
0.00360021
0.00350649
0.00346602
0.00347444
0.00343915
0.00317524
0.00292352
0.00278939
0.00285084
0.00294901
0.00360151
0.00152879
0.000266934
0.00130243
0.00210354
0.0026094
0.0028357
0.00288868
0.00299078
0.00349077
0.00447096
0.0054396
0.0060986
0.00615475
0.00629427
0.00647263
0.00665173
0.00668637
0.0065495
0.00620591
0.00567595
0.00504497
0.00442655
0.00391602
0.00354901
0.0032989
0.00311943
0.00297947
0.00286392
0.00276447
0.00267426
0.00258664
0.0025093
0.00244522
0.00240409
0.00238293
0.0023344
0.00222592
0.00207808
0.00143284
0.000613903
0.00065624
0.00122381
0.00185006
0.00237371
0.00290236
0.00369974
0.00476865
0.00563912
0.00595555
0.00598831
0.00610899
0.00609508
0.00596645
0.00575103
0.00549186
0.00516117
0.0047286
0.00422401
0.00373722
0.00333635
0.00304165
0.00283497
0.0026868
0.00257457
0.00248649
0.0024182
0.00236976
0.00234447
0.00234711
0.00236788
0.00239646
0.00242654
0.00244141
0.00241842
0.00235094
0.00210072
0.0011875
0.00106517
0.00278145
0.00142217
0.00126266
0.00192254
0.0027614
0.00364115
0.00458993
0.00540015
0.00576421
0.00562899
0.00505717
0.00457568
0.00467076
0.00453382
0.00432818
0.00412309
0.0039019
0.00363836
0.0033417
0.00304321
0.00278227
0.00257444
0.002418
0.00230496
0.00222826
0.00218359
0.00216775
0.00217646
0.00220267
0.00224799
0.00231568
0.00239933
0.00249087
0.00257738
0.00264342
0.00269658
0.00279529
0.00189257
0.00123086
0.0008221
0.0019472
0.00264832
0.00319223
0.00363678
0.00400594
0.00424656
0.00429794
0.00410609
0.00366046
0.0028593
0.00168021
0.000851828
0.000831136
0.000810918
0.000791032
0.00077214
0.000752858
0.000733691
0.000716813
0.000705044
0.000698809
0.000698396
0.000703519
0.000713797
0.00072897
0.000748962
0.000773918
0.000804319
0.000841241
0.000884936
0.000934916
0.00099134
0.00105411
0.00112261
0.00119671
0.00123832
0.00112595
0.0010534
0.00119276
0.00215261
0.00549908
0.00513656
0.00413129
0.00358143
0.00343505
0.00345263
0.00337108
0.00325653
0.00330413
0.00379563
0.00469004
0.00160024
0.0025804
0.00328463
0.00374791
0.0038225
0.00368684
0.00352536
0.00334402
0.0032036
0.00340996
0.00416614
0.00513298
0.000843948
0.00173564
0.00239524
0.00275216
0.0028752
0.00291427
0.00317099
0.00394279
0.00499343
0.00576766
0.000498952
0.000912494
0.00154624
0.00212384
0.00262145
0.00325389
0.00422523
0.0052612
0.00586395
0.0059947
0.00298642
0.00232458
0.00109935
0.00156837
0.00232954
0.00319082
0.00411273
0.00503621
0.00563688
0.00576776
0.00535777
0.00488704
0.00206028
0.00228737
0.00298119
0.00342051
0.0038341
0.00414531
0.00430047
0.00423331
0.00391717
0.00331756
0.00228813
0.00120799
0.00134523
0.00270092
0.00401279
0.0043755
0.00413958
0.00378364
0.00356625
0.0034602
0.00331127
0.00323979
0.00356252
0.00438783
0.0010736
0.0011792
0.00159247
0.00234205
0.00296316
0.00325349
0.00329312
0.00321587
0.00311366
0.00328817
0.00401568
0.00502509
0.000467006
0.00075296
0.00148191
0.00208905
0.00246813
0.00270927
0.00311165
0.00398801
0.00506988
0.00580188
0.000487949
0.000773254
0.00133619
0.00202077
0.0027506
0.00363554
0.00465946
0.00550387
0.0058986
0.00573671
0.00107489
0.00262958
0.00225073
0.00232349
0.00299331
0.00373453
0.00443882
0.00504038
0.00536692
0.00526773
0.00468657
0.00383184
0.000983065
0.000898218
0.000952021
0.000988222
0.000980736
0.000933126
0.00085235
0.000745624
0.000632139
0.000527838
0.000434051
0.000397274
0.00186173
0.00358329
0.00431218
0.00430455
0.00395252
0.00365206
0.00351327
0.00338988
0.00324853
0.0033332
0.00392875
0.00486983
0.00109479
0.00119746
0.00196248
0.00269069
0.00314808
0.00329561
0.00326188
0.00315476
0.00314104
0.00358454
0.00452222
0.00544724
0.0004526
0.00111563
0.00181308
0.00230505
0.00259423
0.00286011
0.00349232
0.00454109
0.00550076
0.00598173
0.000549314
0.00103118
0.00167142
0.00237699
0.00316377
0.00415708
0.00511964
0.00577558
0.00586282
0.00567697
0.00289617
0.00256832
0.00216324
0.00264063
0.00336355
0.00409243
0.00476157
0.00525002
0.00537312
0.00503938
0.00424436
0.00368861
0.00087503
0.000928663
0.000972298
0.000990488
0.00096128
0.000896652
0.000801312
0.000688242
0.000578861
0.000478445
0.000403918
0.000407378
)
;

boundaryField
{
    floor
    {
        type            nutkWallFunction;
        Cmu             0.09;
        kappa           0.41;
        E               9.8;
        value           nonuniform List<scalar> 
36
(
0.000131167
5.81447e-05
6.88732e-05
7.80527e-05
8.07091e-05
7.89842e-05
7.36464e-05
6.77892e-05
6.25092e-05
5.78953e-05
5.38536e-05
5.0297e-05
4.71657e-05
4.43711e-05
4.18127e-05
3.93764e-05
3.69293e-05
3.56679e-05
3.23703e-05
3.23702e-05
4.56219e-05
5.5337e-05
6.43413e-05
8.7495e-05
9.18081e-05
9.95306e-05
0.000131167
0.000156465
0.000129762
0.000106325
5.81447e-05
0.000106325
5.80994e-05
0.000125955
9.31586e-05
0.00014587
)
;
    }
    ceiling
    {
        type            nutkWallFunction;
        Cmu             0.09;
        kappa           0.41;
        E               9.8;
        value           nonuniform List<scalar> 
58
(
0.000105893
0.000112272
0.000117431
0.000119576
0.000116137
0.000108477
9.7052e-05
8.32861e-05
6.9706e-05
5.69592e-05
4.72839e-05
4.77375e-05
0.00010313
0.000100646
9.82124e-05
9.58118e-05
9.35246e-05
9.11833e-05
8.88489e-05
8.67873e-05
8.53462e-05
8.45817e-05
8.45309e-05
8.51592e-05
8.6418e-05
8.82725e-05
9.0709e-05
9.37397e-05
9.74162e-05
0.000101859
0.000107088
0.000113033
0.0001197
0.000127066
0.000135048
0.00014362
0.000148408
0.000135436
0.000126984
0.000143167
0.000131853
0.000143742
5.82885e-05
9.95531e-05
0.000108656
0.000115037
0.000119308
0.00011843
0.000112809
0.000103187
9.03036e-05
7.63564e-05
6.32666e-05
5.12209e-05
4.64109e-05
0.000122758
0.000141637
7.41364e-05
)
;
    }
    sWall
    {
        type            nutkWallFunction;
        Cmu             0.09;
        kappa           0.41;
        E               9.8;
        value           nonuniform List<scalar> 4(0.000129469 0.00011871 0.000128335 9.95561e-05);
    }
    nWall
    {
        type            nutkWallFunction;
        Cmu             0.09;
        kappa           0.41;
        E               9.8;
        value           nonuniform List<scalar> 6(9.95316e-05 0.000103243 0.000121239 0.00014257 0.000147563 0.000143178);
    }
    sideWalls
    {
        type            empty;
    }
    glass1
    {
        type            nutkWallFunction;
        Cmu             0.09;
        kappa           0.41;
        E               9.8;
        value           nonuniform List<scalar> 10(0.000119435 0.00016183 0.000199 0.000236246 0.000272747 0.000313432 0.000160783 0.000129452 0.000154396 0.000122803);
    }
    glass2
    {
        type            nutkWallFunction;
        Cmu             0.09;
        kappa           0.41;
        E               9.8;
        value           nonuniform List<scalar> 2(0.000181445 0.000170637);
    }
    sun
    {
        type            nutkWallFunction;
        Cmu             0.09;
        kappa           0.41;
        E               9.8;
        value           nonuniform List<scalar> 
14
(
0.000119358
0.000128543
0.000130591
0.000136491
0.000141962
0.000147115
0.000152191
0.00015748
0.000162821
0.00016778
0.000171721
0.00017329
0.000170288
0.000159941
)
;
    }
    Table_master
    {
        type            nutkWallFunction;
        Cmu             0.09;
        kappa           0.41;
        E               9.8;
        value           nonuniform List<scalar> 9(9.98847e-05 8.73891e-05 7.68834e-05 6.82691e-05 6.12304e-05 5.54589e-05 5.07135e-05 4.68274e-05 4.37535e-05);
    }
    Table_slave
    {
        type            nutkWallFunction;
        Cmu             0.09;
        kappa           0.41;
        E               9.8;
        value           nonuniform List<scalar> 9(0.000112027 0.000102444 9.58608e-05 9.09974e-05 8.69055e-05 8.28385e-05 7.89657e-05 7.48633e-05 7.00518e-05);
    }
    inlet
    {
        type            calculated;
        value           uniform 0.000167705;
    }
    outlet
    {
        type            calculated;
        value           nonuniform List<scalar> 4(0.00298642 0.00232458 0.00107489 0.00278145);
    }
}


// ************************************************************************* //
