/*--------------------------------*- C++ -*----------------------------------*\
  =========                 |
  \\      /  F ield         | OpenFOAM: The Open Source CFD Toolbox
   \\    /   O peration     | Website:  https://openfoam.org
    \\  /    A nd           | Version:  6
     \\/     M anipulation  |
\*---------------------------------------------------------------------------*/
FoamFile
{
    version     2.0;
    format      ascii;
    class       volScalarField;
    location    "6800";
    object      T;
}
// * * * * * * * * * * * * * * * * * * * * * * * * * * * * * * * * * * * * * //

dimensions      [0 0 0 1 0 0 0];

internalField   nonuniform List<scalar> 
662
(
302.565
302.273
302.259
302.254
302.25
302.245
302.24
302.234
302.226
302.213
302.195
302.177
302.167
302.173
302.207
302.358
302.335
302.328
302.334
302.341
302.346
302.351
302.357
302.361
302.366
302.371
302.376
302.38
302.385
302.39
302.395
302.402
302.426
302.779
302.325
302.304
302.309
302.315
302.319
302.319
302.315
302.303
302.275
302.23
302.181
302.154
302.155
302.172
302.184
302.195
302.218
302.363
302.314
302.311
302.319
302.329
302.332
302.334
302.335
302.335
302.336
302.337
302.338
302.339
302.342
302.346
302.353
302.364
302.407
303.003
302.39
302.353
302.373
302.397
302.419
302.434
302.44
302.428
302.382
302.294
302.195
302.144
302.146
302.167
302.182
302.191
302.211
302.319
302.301
302.306
302.322
302.34
302.34
302.339
302.338
302.337
302.337
302.336
302.335
302.335
302.335
302.339
302.344
302.354
302.401
303.222
302.471
302.399
302.428
302.472
302.519
302.563
302.592
302.589
302.523
302.375
302.208
302.131
302.138
302.169
302.191
302.2
302.209
302.22
302.24
302.272
302.307
302.342
302.371
302.395
302.411
302.424
302.436
302.445
302.451
302.456
302.46
302.461
302.429
302.396
302.376
302.404
303.423
302.582
302.459
302.469
302.518
302.579
302.649
302.714
302.738
302.657
302.443
302.21
302.116
302.13
302.176
302.213
302.23
302.237
302.253
302.282
302.318
302.358
302.396
302.429
302.457
302.477
302.493
302.506
302.514
302.518
302.516
302.511
302.501
302.476
302.439
302.403
302.405
302.505
302.582
302.584
303.581
302.796
302.621
302.566
302.574
302.614
302.678
302.769
302.825
302.721
302.455
302.196
302.09
302.123
302.194
302.252
302.283
302.298
302.321
302.353
302.391
302.43
302.466
302.498
302.523
302.541
302.555
302.564
302.569
302.569
302.562
302.551
302.535
302.51
302.475
302.436
302.42
302.463
302.492
302.535
304.838
303.533
303.129
302.908
302.787
302.74
302.756
302.824
302.889
302.791
302.485
302.161
302.035
302.125
302.234
302.315
302.361
302.386
302.411
302.442
302.476
302.51
302.541
302.566
302.585
302.599
302.608
302.613
302.614
302.61
302.601
302.584
302.564
302.539
302.508
302.474
302.451
302.459
302.473
302.505
307.138
305.003
304.256
303.821
303.486
303.254
303.125
303.068
302.946
302.633
302.216
301.952
302.01
302.173
302.319
302.412
302.457
302.481
302.504
302.53
302.558
302.585
302.607
302.624
302.636
302.643
302.647
302.647
302.645
302.639
302.63
302.616
302.595
302.572
302.549
302.525
302.512
302.518
302.54
302.708
293.656
299.552
301.657
302.405
302.618
302.59
302.345
301.959
301.713
301.755
302.098
302.307
302.457
302.518
302.548
302.567
302.586
302.607
302.627
302.645
302.658
302.667
302.672
302.675
302.675
302.673
302.67
302.666
302.662
302.661
302.663
302.668
302.683
302.708
302.744
302.783
302.816
302.894
295.439
295.321
297.751
299.582
300.533
300.875
300.971
301.143
301.474
301.883
302.357
302.501
302.571
302.604
302.624
302.639
302.653
302.666
302.678
302.687
302.693
302.697
302.699
302.7
302.7
302.7
302.7
302.701
302.702
302.704
302.708
302.716
302.73
302.75
302.776
302.802
302.827
302.876
299.788
297.736
295.631
295.681
297.397
298.949
299.867
300.437
300.933
301.451
301.961
302.337
302.573
302.625
302.654
302.671
302.682
302.691
302.699
302.706
302.711
302.715
302.717
302.719
302.72
302.72
302.721
302.722
302.723
302.724
302.725
302.727
302.731
302.737
302.746
302.76
302.777
302.797
302.823
302.851
300.046
298.929
298.434
298.49
299.261
300.059
300.719
301.309
301.839
302.24
302.504
302.645
302.704
302.718
302.727
302.734
302.739
302.744
302.747
302.749
302.75
302.751
302.751
302.75
302.75
302.749
302.748
302.747
302.747
302.746
302.746
302.746
302.747
302.749
302.753
302.761
302.772
302.781
302.842
302.949
303.788
303.324
303.002
302.835
302.75
302.736
302.781
302.867
302.867
302.655
302.307
302.071
305.816
304.548
304.023
303.641
303.357
303.177
303.093
303.026
302.815
302.422
302.051
301.928
297.577
300.859
302.132
302.552
302.628
302.499
302.152
301.803
301.7
301.86
294.395
296.532
298.787
300.152
300.762
300.923
301.039
301.29
301.679
302.066
299.085
296.503
295.133
296.505
298.25
299.469
300.177
300.682
301.19
301.709
302.177
302.45
299.261
298.639
298.348
298.841
299.677
300.402
301.02
301.586
302.057
302.388
302.589
302.679
304
304.008
303.622
303.333
303.113
302.972
302.919
302.938
302.937
302.751
302.383
302.068
307.23
305.044
304.464
303.936
303.573
303.33
303.173
303.058
302.803
302.38
301.981
301.835
295.346
296.499
299.307
300.889
301.568
301.727
301.625
301.466
301.505
301.761
293.942
295.194
297.211
298.926
299.931
300.415
300.734
301.158
301.651
302.099
299.814
298.155
296.93
296.94
298.2
299.369
300.171
300.79
301.369
301.865
302.266
302.51
299.85
299.847
299.918
300.067
300.499
301.009
301.507
301.963
302.316
302.539
302.66
302.701
304.298
303.799
303.468
303.213
303.03
302.934
302.921
302.951
302.873
302.578
302.202
302
305.843
304.815
304.174
303.737
303.439
303.242
303.115
302.955
302.605
302.16
301.87
301.869
294.909
298.041
300.242
301.312
301.697
301.703
301.533
301.454
301.614
301.922
294.488
296.17
298.155
299.511
300.219
300.568
300.933
301.4
301.891
302.267
298.905
297.463
296.643
297.536
298.831
299.805
300.491
301.084
301.63
302.079
302.411
302.566
299.83
299.877
299.972
300.259
300.753
301.26
301.743
302.156
302.442
302.61
302.689
302.705
)
;

boundaryField
{
    floor
    {
        type            wallHeatTransfer;
        Tinf            uniform 305.2;
        alphaWall       uniform 0.24;
        value           nonuniform List<scalar> 
36
(
302.52
302.885
302.812
302.768
302.764
302.776
302.801
302.831
302.861
302.89
302.917
302.944
302.969
302.993
303.017
303.041
303.067
303.084
303.135
303.135
303.005
302.937
302.891
302.887
302.94
302.922
302.52
302.459
302.512
302.585
302.885
302.585
302.89
302.534
302.709
302.507
)
;
    }
    ceiling
    {
        type            wallHeatTransfer;
        Tinf            uniform 303.2;
        alphaWall       uniform 0.24;
        value           nonuniform List<scalar> 
58
(
300.05
300.084
300.166
300.433
300.902
301.385
301.845
302.238
302.51
302.671
302.749
302.763
302.767
302.779
302.789
302.796
302.802
302.806
302.81
302.813
302.815
302.816
302.816
302.815
302.814
302.812
302.811
302.808
302.806
302.804
302.801
302.799
302.798
302.797
302.799
302.804
302.813
302.824
302.88
302.973
305.696
304.732
294.87
300.262
300.061
300.119
300.253
300.66
301.145
301.62
302.054
302.39
302.602
302.72
302.76
306.906
304.948
296.098
)
;
    }
    sWall
    {
        type            wallHeatTransfer;
        Tinf            uniform 315.2;
        alphaWall       uniform 0.36;
        value           nonuniform List<scalar> 4(301.062 301.185 301.048 301.558);
    }
    nWall
    {
        type            wallHeatTransfer;
        Tinf            uniform 307.2;
        alphaWall       uniform 0.36;
        value           nonuniform List<scalar> 6(303.425 303.364 303.248 303.483 303.446 303.544);
    }
    sideWalls
    {
        type            empty;
    }
    glass1
    {
        type            wallHeatTransfer;
        Tinf            uniform 315.2;
        alphaWall       uniform 4.3;
        value           nonuniform List<scalar> 10(311.405 310.733 310.273 309.898 309.593 309.287 309.28 311.38 309.82 311.428);
    }
    glass2
    {
        type            wallHeatTransfer;
        Tinf            uniform 307.2;
        alphaWall       uniform 4.3;
        value           nonuniform List<scalar> 2(305.46 305.589);
    }
    sun
    {
        type            wallHeatTransfer;
        Tinf            uniform 305.2;
        alphaWall       uniform 0.24;
        value           nonuniform List<scalar> 
14
(
302.862
302.584
302.568
302.553
302.54
302.527
302.515
302.502
302.487
302.469
302.448
302.43
302.425
302.443
)
;
    }
    Table_master
    {
        type            zeroGradient;
    }
    Table_slave
    {
        type            zeroGradient;
    }
    inlet
    {
        type            fixedValue;
        value           uniform 293.15;
    }
    outlet
    {
        type            zeroGradient;
    }
}


// ************************************************************************* //
