/*--------------------------------*- C++ -*----------------------------------*\
  =========                 |
  \\      /  F ield         | OpenFOAM: The Open Source CFD Toolbox
   \\    /   O peration     | Website:  https://openfoam.org
    \\  /    A nd           | Version:  6
     \\/     M anipulation  |
\*---------------------------------------------------------------------------*/
FoamFile
{
    version     2.0;
    format      ascii;
    class       volVectorField;
    location    "6800";
    object      U;
}
// * * * * * * * * * * * * * * * * * * * * * * * * * * * * * * * * * * * * * //

dimensions      [0 1 -1 0 0 0 0];

internalField   nonuniform List<vector> 
662
(
(0.0432788 0.0859048 0)
(-0.167703 0.0222502 0)
(-0.18765 0.0165653 0)
(-0.217699 0.0119276 0)
(-0.241412 0.00689276 0)
(-0.258379 0.00153357 0)
(-0.26746 -0.00442335 0)
(-0.266416 -0.0113538 0)
(-0.252826 -0.0198244 0)
(-0.224789 -0.0295983 0)
(-0.182468 -0.0390577 0)
(-0.13018 -0.0450442 0)
(-0.0761407 -0.0435225 0)
(-0.0300012 -0.0321133 0)
(-0.0168348 -0.00320011 0)
(-0.00864786 0.0103998 0)
(-0.0373112 -0.0184198 0)
(-0.0140524 -0.0299161 0)
(0.0145547 -0.0248938 0)
(0.033602 -0.0173434 0)
(0.0477902 -0.00923695 0)
(0.0561942 -0.00501409 0)
(0.059858 -0.00352013 0)
(0.0611923 -0.00298578 0)
(0.0617855 -0.00266872 0)
(0.0620503 -0.00242519 0)
(0.0619611 -0.00217212 0)
(0.0613698 -0.00175357 0)
(0.0598367 -0.000836954 0)
(0.0563736 0.00100396 0)
(0.0499169 0.00294814 0)
(0.0456781 0.00452188 0)
(-0.0170851 0.0221513 0)
(0.235978 0.177398 0)
(-0.159256 0.0603877 0)
(-0.147197 0.0502125 0)
(-0.178131 0.0413031 0)
(-0.200998 0.0316941 0)
(-0.217691 0.0210072 0)
(-0.227362 0.00832428 0)
(-0.227901 -0.00741255 0)
(-0.216938 -0.026812 0)
(-0.19303 -0.048758 0)
(-0.156356 -0.0693177 0)
(-0.111253 -0.081481 0)
(-0.0655426 -0.078194 0)
(-0.0254013 -0.0597049 0)
(0.00767713 -0.0295654 0)
(0.0355361 -0.000603724 0)
(0.0521703 0.0327857 0)
(-0.0160607 0.0725851 0)
(0.0725381 0.0441715 0)
(0.0118612 -0.0215433 0)
(0.0272033 -0.0378299 0)
(0.0412499 -0.0350165 0)
(0.0531413 -0.026271 0)
(0.0592569 -0.0115147 0)
(0.0607746 -0.00256853 0)
(0.0607988 0.000793719 0)
(0.0609459 0.00202755 0)
(0.0612539 0.00271504 0)
(0.0614703 0.00320204 0)
(0.0615272 0.00362758 0)
(0.0614302 0.00431846 0)
(0.0607417 0.00605068 0)
(0.0573989 0.0109657 0)
(0.0487848 0.0150371 0)
(0.0490092 0.0176403 0)
(-0.0639021 0.0481766 0)
(0.413456 0.26501 0)
(-0.184495 0.0963347 0)
(-0.103961 0.0801222 0)
(-0.134142 0.0635114 0)
(-0.152954 0.0475864 0)
(-0.167516 0.0304062 0)
(-0.17712 0.0102228 0)
(-0.179275 -0.0143527 0)
(-0.170666 -0.0442364 0)
(-0.15023 -0.0779228 0)
(-0.118424 -0.10872 0)
(-0.0801302 -0.125268 0)
(-0.0434415 -0.117988 0)
(-0.0117763 -0.091424 0)
(0.0142593 -0.0545674 0)
(0.0313241 -0.0243423 0)
(0.0388049 0.00796689 0)
(-0.0311696 0.0609966 0)
(0.127128 -0.0100727 0)
(0.0741148 -0.033058 0)
(0.0650081 -0.0416669 0)
(0.0674608 -0.0406128 0)
(0.0715019 -0.0362958 0)
(0.0728738 -0.0269443 0)
(0.0641636 -0.0175507 0)
(0.0575843 -0.0125286 0)
(0.0551393 -0.00974011 0)
(0.0545027 -0.00794568 0)
(0.0543088 -0.00672984 0)
(0.054408 -0.00579298 0)
(0.0551973 -0.00471492 0)
(0.0575745 -0.00148718 0)
(0.0562616 0.0146712 0)
(0.0443481 0.0252405 0)
(0.0564064 0.031806 0)
(-0.107109 0.073521 0)
(0.568093 0.335444 0)
(-0.229981 0.128348 0)
(-0.0586316 0.103754 0)
(-0.0880052 0.081037 0)
(-0.0993838 0.0617556 0)
(-0.108894 0.0412246 0)
(-0.116567 0.0160683 0)
(-0.119335 -0.0160994 0)
(-0.112039 -0.0561421 0)
(-0.0942427 -0.101521 0)
(-0.0678325 -0.142102 0)
(-0.0381327 -0.162009 0)
(-0.0128643 -0.150111 0)
(0.00935339 -0.11578 0)
(0.0265836 -0.0743487 0)
(0.0404692 -0.0337089 0)
(0.056795 0.00661285 0)
(0.0557211 0.0497938 0)
(0.0992665 0.0607588 0)
(0.0986841 -0.00415623 0)
(0.0842459 -0.029898 0)
(0.0772179 -0.0369027 0)
(0.0723773 -0.0368469 0)
(0.0660116 -0.032158 0)
(0.0654808 -0.0195564 0)
(0.0753475 -0.0130386 0)
(0.0836719 -0.00960237 0)
(0.0887417 -0.00751404 0)
(0.0918739 -0.00575747 0)
(0.0933304 -0.00380984 0)
(0.0916994 -0.00122213 0)
(0.0856257 0.00238731 0)
(0.0732248 0.00757833 0)
(0.0578458 0.0249297 0)
(0.0420151 0.0401344 0)
(0.06511 0.0521228 0)
(-0.144932 0.0944409 0)
(0.688186 0.393093 0)
(-0.281501 0.145819 0)
(-0.0165163 0.114654 0)
(-0.0412575 0.0891526 0)
(-0.0439206 0.0690396 0)
(-0.0465847 0.0479666 0)
(-0.0504235 0.0210781 0)
(-0.0512975 -0.0158088 0)
(-0.0430205 -0.0648054 0)
(-0.0266824 -0.120177 0)
(-0.00700536 -0.167218 0)
(0.0114546 -0.186823 0)
(0.0229531 -0.168662 0)
(0.0322765 -0.131794 0)
(0.0402795 -0.0874922 0)
(0.0480772 -0.0443528 0)
(0.0598772 -0.00672593 0)
(0.07434 0.0147746 0)
(0.0885989 -0.00384924 0)
(0.0876626 -0.0229805 0)
(0.0802255 -0.0302214 0)
(0.0711985 -0.031669 0)
(0.0629846 -0.0301563 0)
(0.0561842 -0.0250091 0)
(0.0543265 -0.0143215 0)
(0.0575948 -0.00825285 0)
(0.0616766 -0.00591114 0)
(0.0652868 -0.00462998 0)
(0.0685692 -0.00278372 0)
(0.0712276 0.000574936 0)
(0.0723751 0.00567911 0)
(0.0707692 0.0126499 0)
(0.0660992 0.0220004 0)
(0.0593221 0.0366014 0)
(0.0478281 0.0529409 0)
(0.0761945 0.0720963 0)
(-0.0128074 0.100978 0)
(0.0538171 0.15547 0)
(-0.0875962 0.07887 0)
(-0.282174 0.00165694 0)
(0.745309 0.451064 0)
(-0.298515 0.0451566 0)
(0.0376064 0.0753326 0)
(0.0156044 0.0721887 0)
(0.0180152 0.06409 0)
(0.0189259 0.0474844 0)
(0.0176141 0.0211496 0)
(0.020998 -0.019472 0)
(0.0319162 -0.075374 0)
(0.0462964 -0.134962 0)
(0.0576566 -0.18076 0)
(0.0623254 -0.196345 0)
(0.0594628 -0.173541 0)
(0.0542025 -0.134406 0)
(0.0492197 -0.0898457 0)
(0.0467595 -0.0483722 0)
(0.0493056 -0.015728 0)
(0.0576579 0.00106205 0)
(0.0631617 -0.00302089 0)
(0.0616441 -0.0118155 0)
(0.0551516 -0.0186925 0)
(0.047021 -0.0220372 0)
(0.0395384 -0.0223082 0)
(0.0337477 -0.019634 0)
(0.0312867 -0.0144751 0)
(0.032402 -0.0113515 0)
(0.0352856 -0.010282 0)
(0.0389263 -0.00955668 0)
(0.043072 -0.00778486 0)
(0.0474605 -0.00384806 0)
(0.0520955 0.00309105 0)
(0.0550267 0.0125837 0)
(0.0565337 0.0242631 0)
(0.0580381 0.0387079 0)
(0.0571395 0.0549498 0)
(0.0807191 0.0760541 0)
(0.0649765 0.0881646 0)
(0.100585 0.0975259 0)
(0.119824 0.0568635 0)
(-0.140096 -0.0325076 0)
(0.812224 0.231063 0)
(0.249604 0.234536 0)
(0.203451 0.101688 0)
(0.142759 0.0792249 0)
(0.109484 0.0688147 0)
(0.0909984 0.0529604 0)
(0.0843497 0.0264681 0)
(0.0897284 -0.0135435 0)
(0.102948 -0.0677149 0)
(0.115232 -0.126797 0)
(0.119779 -0.173994 0)
(0.112551 -0.192474 0)
(0.0899011 -0.158845 0)
(0.0668087 -0.120534 0)
(0.0464723 -0.0785216 0)
(0.032351 -0.0413501 0)
(0.0258296 -0.014691 0)
(0.0260539 -0.00167158 0)
(0.0275134 -0.00187904 0)
(0.0260023 -0.00730535 0)
(0.0214291 -0.0125842 0)
(0.0154654 -0.0156529 0)
(0.00964616 -0.0165707 0)
(0.00504927 -0.0157534 0)
(0.0028408 -0.013944 0)
(0.00323934 -0.0131398 0)
(0.00526383 -0.0133697 0)
(0.00823274 -0.0135637 0)
(0.0120332 -0.012652 0)
(0.0168053 -0.00951812 0)
(0.0230468 -0.00281767 0)
(0.0314973 0.00779696 0)
(0.0388858 0.0198216 0)
(0.0472817 0.0328478 0)
(0.0558128 0.0462571 0)
(0.0769478 0.0629008 0)
(0.090498 0.0682155 0)
(0.122778 0.0623025 0)
(0.167601 0.0497686 0)
(-0.0184297 0.094599 0)
(0.588163 0.00216147 0)
(0.289477 0.197616 0)
(0.406135 0.149461 0)
(0.374756 0.141205 0)
(0.312879 0.119873 0)
(0.26243 0.0844669 0)
(0.230029 0.0401657 0)
(0.213504 -0.0140209 0)
(0.20622 -0.0730442 0)
(0.197897 -0.126605 0)
(0.179136 -0.161313 0)
(0.147293 -0.166913 0)
(0.0912613 -0.124107 0)
(0.0548966 -0.0905657 0)
(0.0234182 -0.0545202 0)
(0.00232018 -0.0251611 0)
(-0.00752643 -0.00755612 0)
(-0.00952525 -0.00068364 0)
(-0.00946798 -0.000961232 0)
(-0.0107092 -0.00445365 0)
(-0.0139041 -0.00803704 0)
(-0.0182168 -0.0104746 0)
(-0.0226155 -0.0118155 0)
(-0.0262476 -0.0124601 0)
(-0.028462 -0.0129398 0)
(-0.0292885 -0.0138748 0)
(-0.0292806 -0.0151466 0)
(-0.0287926 -0.0162459 0)
(-0.0277946 -0.0166196 0)
(-0.0259398 -0.0156694 0)
(-0.0224487 -0.0126544 0)
(-0.0148758 -0.00669491 0)
(-0.00140877 0.00242637 0)
(0.010641 0.0118882 0)
(0.0230574 0.0186285 0)
(0.0417734 0.0255572 0)
(0.0587008 0.0216703 0)
(0.082674 0.009523 0)
(0.149918 0.0564054 0)
(-0.462697 0.214229 0)
(0.40239 0.138942 0)
(0.407062 0.168261 0)
(0.373657 0.165812 0)
(0.343327 0.126108 0)
(0.31546 0.0693036 0)
(0.293056 0.00706261 0)
(0.267561 -0.0527338 0)
(0.233377 -0.0988382 0)
(0.18792 -0.122115 0)
(0.134947 -0.119737 0)
(0.0557996 -0.0788388 0)
(0.0134627 -0.0523103 0)
(-0.0199524 -0.0252261 0)
(-0.0352978 -0.0106673 0)
(-0.0417661 -0.00323669 0)
(-0.0434169 -0.000365766 0)
(-0.0438662 -0.000641091 0)
(-0.0451305 -0.00255593 0)
(-0.0476766 -0.00480909 0)
(-0.0510978 -0.00680296 0)
(-0.0548112 -0.0084844 0)
(-0.0583666 -0.00996903 0)
(-0.0615804 -0.0113887 0)
(-0.0646572 -0.0128225 0)
(-0.068009 -0.0140833 0)
(-0.0720001 -0.0148002 0)
(-0.0769514 -0.0144875 0)
(-0.0832663 -0.0125283 0)
(-0.0915424 -0.00812859 0)
(-0.102394 -0.000444439 0)
(-0.114443 0.0106613 0)
(-0.128641 0.0246676 0)
(-0.152143 0.0414602 0)
(-0.187341 0.0601581 0)
(-0.236643 0.0771836 0)
(-0.293567 0.0897998 0)
(-0.374796 0.0964371 0)
(-0.660399 0.0918997 0)
(0.180818 -0.115217 0)
(0.249306 0.225815 0)
(0.239283 0.185491 0)
(0.24145 0.142001 0)
(0.238638 0.0860976 0)
(0.226541 0.0276317 0)
(0.203238 -0.0208998 0)
(0.164924 -0.0535725 0)
(0.116034 -0.0683822 0)
(0.0635516 -0.065105 0)
(-0.013921 -0.0336818 0)
(-0.0442841 -0.0196351 0)
(-0.0609991 -0.0111484 0)
(-0.0689001 -0.00733093 0)
(-0.0722189 -0.00562779 0)
(-0.0732346 -0.00541273 0)
(-0.0737417 -0.00638539 0)
(-0.0748436 -0.00801235 0)
(-0.0768938 -0.0097145 0)
(-0.0796412 -0.0112997 0)
(-0.0828538 -0.0126329 0)
(-0.0864137 -0.0136662 0)
(-0.0903723 -0.0143986 0)
(-0.0949032 -0.0148007 0)
(-0.100166 -0.0146995 0)
(-0.106191 -0.013754 0)
(-0.112819 -0.0114731 0)
(-0.119642 -0.00726907 0)
(-0.125996 -0.000506059 0)
(-0.130996 0.00899267 0)
(-0.134745 0.0218495 0)
(-0.13764 0.0387598 0)
(-0.140832 0.0592759 0)
(-0.144643 0.0807744 0)
(-0.144717 0.0958162 0)
(-0.124933 0.0900008 0)
(-0.0678497 0.0344637 0)
(-0.207052 -0.181882 0)
(0.401261 -0.331395 0)
(-0.0893857 -0.487331 0)
(-0.286785 -0.0173005 0)
(-0.118641 0.172765 0)
(-0.0295757 0.154629 0)
(0.0216191 0.120754 0)
(0.0509463 0.0787445 0)
(0.0615231 0.0352982 0)
(0.0544565 0.00155057 0)
(0.0335412 -0.017002 0)
(-0.000925621 -0.0240726 0)
(-0.0364434 -0.0227384 0)
(-0.0720315 0.0163474 0)
(-0.0875017 0.0257573 0)
(-0.0943777 0.0296414 0)
(-0.0971637 0.0320849 0)
(-0.0979684 0.0342988 0)
(-0.0978132 0.0364441 0)
(-0.0974696 0.0384927 0)
(-0.0973682 0.0400637 0)
(-0.0976454 0.0405534 0)
(-0.0983769 0.0403183 0)
(-0.0995941 0.0394252 0)
(-0.101299 0.0380259 0)
(-0.103479 0.0362894 0)
(-0.106103 0.0343405 0)
(-0.109099 0.0322836 0)
(-0.112326 0.0302141 0)
(-0.115558 0.0282047 0)
(-0.118402 0.0262444 0)
(-0.120078 0.0250318 0)
(-0.119372 0.0263563 0)
(-0.114706 0.0315465 0)
(-0.104705 0.041568 0)
(-0.0893052 0.0565212 0)
(-0.0699034 0.0735207 0)
(-0.0463599 0.0834151 0)
(0.0207888 0.0502791 0)
(0.151021 -0.0563606 0)
(-0.0521846 -0.0616558 0)
(0.288226 -0.23771 0)
(-0.276524 -0.136172 0)
(-0.410928 -0.0173185 0)
(-0.369541 0.0726257 0)
(-0.275938 0.0882234 0)
(-0.190455 0.0773869 0)
(-0.125924 0.0574786 0)
(-0.0881027 0.0369209 0)
(-0.0762277 0.0232859 0)
(-0.0810628 0.0196091 0)
(-0.0908391 0.0183537 0)
(-0.0988018 -0.00218145 0)
(-0.114191 -0.0884272 0)
(-0.114157 -0.0913878 0)
(-0.113215 -0.0939944 0)
(-0.11184 -0.0978143 0)
(-0.11056 -0.101924 0)
(-0.109418 -0.106333 0)
(-0.108448 -0.110847 0)
(-0.107751 -0.114874 0)
(-0.107524 -0.117605 0)
(-0.10792 -0.118982 0)
(-0.108919 -0.118877 0)
(-0.110444 -0.117349 0)
(-0.112359 -0.114532 0)
(-0.114488 -0.110539 0)
(-0.116602 -0.105411 0)
(-0.118386 -0.0990766 0)
(-0.119421 -0.0913174 0)
(-0.11918 -0.081724 0)
(-0.11687 -0.0705506 0)
(-0.110865 -0.0583357 0)
(-0.0985527 -0.0448973 0)
(-0.0773563 -0.0296976 0)
(-0.0469357 -0.012115 0)
(-0.00656332 0.00791738 0)
(0.037867 0.00674551 0)
(0.106649 -0.052466 0)
(0.124086 -0.0970948 0)
(-0.522558 0.00391372 0)
(0.474601 0.385971 0)
(0.195356 0.133721 0)
(0.172351 0.0878289 0)
(0.122839 0.0738905 0)
(0.0977729 0.0630377 0)
(0.0854638 0.0423897 0)
(0.0843623 0.0087572 0)
(0.0961468 -0.039074 0)
(0.109649 -0.0972013 0)
(0.118674 -0.152659 0)
(0.117305 -0.18733 0)
(0.104787 -0.188678 0)
(0.285836 0.0905412 0)
(0.370031 0.173389 0)
(0.399987 0.142858 0)
(0.343566 0.133447 0)
(0.285464 0.103318 0)
(0.243875 0.063586 0)
(0.220443 0.0143096 0)
(0.209285 -0.043404 0)
(0.202878 -0.101192 0)
(0.190181 -0.147043 0)
(0.16466 -0.167971 0)
(0.1284 -0.158322 0)
(0.382969 0.143628 0)
(0.39144 0.173598 0)
(0.358332 0.14906 0)
(0.328753 0.0990146 0)
(0.303666 0.0382956 0)
(0.281109 -0.0238016 0)
(0.251857 -0.0781997 0)
(0.211948 -0.113656 0)
(0.161983 -0.124067 0)
(0.108445 -0.109973 0)
(0.298798 0.245085 0)
(0.239829 0.203951 0)
(0.240499 0.165579 0)
(0.241022 0.115126 0)
(0.23394 0.0563652 0)
(0.216527 0.00161247 0)
(0.185766 -0.0393789 0)
(0.141395 -0.0632801 0)
(0.0898172 -0.0689153 0)
(0.0387547 -0.0574028 0)
(0.0220047 -0.430719 0)
(-0.256168 -0.362195 0)
(-0.165037 0.136766 0)
(-0.0664304 0.168367 0)
(-0.000863223 0.138921 0)
(0.0386045 0.100573 0)
(0.0585529 0.056523 0)
(0.0599064 0.0164978 0)
(0.0462322 -0.00945158 0)
(0.0176704 -0.0217015 0)
(-0.0200135 -0.0246398 0)
(-0.0485856 -0.0132955 0)
(-0.240319 -0.168371 0)
(-0.368663 -0.0822121 0)
(-0.406013 0.0388999 0)
(-0.323108 0.0861262 0)
(-0.23113 0.084516 0)
(-0.155092 0.0680421 0)
(-0.103542 0.0467572 0)
(-0.0792975 0.0288813 0)
(-0.0773545 0.0203618 0)
(-0.0858069 0.0195804 0)
(-0.0955076 0.012992 0)
(-0.102492 -0.0333675 0)
(0.763474 0.46598 0)
(0.317434 0.264342 0)
(0.349947 0.155192 0)
(0.27709 0.114603 0)
(0.217249 0.091328 0)
(0.176268 0.0647909 0)
(0.15469 0.0299841 0)
(0.149485 -0.0172814 0)
(0.154638 -0.073511 0)
(0.158847 -0.129821 0)
(0.15335 -0.170802 0)
(0.134166 -0.182599 0)
(0.788283 -0.173551 0)
(0.153932 0.238808 0)
(0.399594 0.1676 0)
(0.428105 0.168847 0)
(0.373508 0.150251 0)
(0.325945 0.107957 0)
(0.290571 0.0550434 0)
(0.267403 -0.00482387 0)
(0.248383 -0.0657414 0)
(0.225912 -0.11625 0)
(0.192612 -0.144916 0)
(0.148677 -0.145581 0)
(0.307155 0.0941205 0)
(0.356871 0.193879 0)
(0.327497 0.176565 0)
(0.312958 0.137343 0)
(0.29695 0.079936 0)
(0.278667 0.0181213 0)
(0.252738 -0.0369593 0)
(0.21271 -0.0767209 0)
(0.161607 -0.0953909 0)
(0.106394 -0.0918603 0)
(0.442086 0.225897 0)
(0.0671152 0.218893 0)
(0.11242 0.179082 0)
(0.138579 0.136921 0)
(0.150805 0.0861986 0)
(0.147869 0.0339443 0)
(0.131558 -0.00747525 0)
(0.101002 -0.0330443 0)
(0.0591629 -0.0442079 0)
(0.0149658 -0.0419879 0)
(0.498601 -0.260454 0)
(-0.193207 -0.256952 0)
(-0.351244 -0.0666364 0)
(-0.264045 0.10122 0)
(-0.166248 0.113294 0)
(-0.0947989 0.0943029 0)
(-0.0454672 0.0641176 0)
(-0.0191877 0.0315826 0)
(-0.0161047 0.00673481 0)
(-0.0294515 -0.00477188 0)
(-0.0541581 -0.0077355 0)
(-0.0755574 -0.00746037 0)
(0.328905 -0.250845 0)
(-0.349652 -0.159042 0)
(-0.476403 -0.102659 0)
(-0.452603 -0.0537456 0)
(-0.362203 -0.0386366 0)
(-0.268299 -0.0409889 0)
(-0.194261 -0.0496291 0)
(-0.147219 -0.0576311 0)
(-0.122698 -0.0615724 0)
(-0.109324 -0.0644514 0)
(-0.0988564 -0.0719888 0)
(-0.103123 -0.0782311 0)
(0.344406 0.291008 0)
(0.354395 0.202019 0)
(0.314022 0.12911 0)
(0.244856 0.103029 0)
(0.193974 0.0790389 0)
(0.162956 0.0490665 0)
(0.150085 0.00821461 0)
(0.15158 -0.0441485 0)
(0.157483 -0.101894 0)
(0.157673 -0.152724 0)
(0.145366 -0.180579 0)
(0.120978 -0.176249 0)
(-0.224655 0.189819 0)
(0.297588 0.19244 0)
(0.436039 0.161866 0)
(0.401437 0.164574 0)
(0.348379 0.13075 0)
(0.306512 0.0825905 0)
(0.278061 0.0258579 0)
(0.257734 -0.0357936 0)
(0.238168 -0.0930531 0)
(0.210805 -0.133868 0)
(0.17165 -0.148803 0)
(0.124828 -0.135635 0)
(0.374829 0.194692 0)
(0.338864 0.186481 0)
(0.320086 0.160145 0)
(0.30519 0.110012 0)
(0.288227 0.0487555 0)
(0.267615 -0.0108604 0)
(0.234386 -0.0592247 0)
(0.18818 -0.0888587 0)
(0.133979 -0.0963217 0)
(0.0786668 -0.0825066 0)
(0.0753237 0.216054 0)
(0.0916828 0.199447 0)
(0.127348 0.15897 0)
(0.146503 0.112417 0)
(0.151272 0.0595187 0)
(0.140615 0.011277 0)
(0.118067 -0.0221095 0)
(0.0810929 -0.0404002 0)
(0.0365543 -0.0446894 0)
(-0.00665383 -0.0352283 0)
(-0.174114 -0.283719 0)
(-0.309293 -0.18762 0)
(-0.31871 0.0431159 0)
(-0.210945 0.11501 0)
(-0.127696 0.105673 0)
(-0.0673812 0.0801337 0)
(-0.029362 0.0475094 0)
(-0.0149321 0.0175977 0)
(-0.0210241 -0.000554981 0)
(-0.0409716 -0.00681336 0)
(-0.0670489 -0.00812551 0)
(-0.0772765 -0.00298814 0)
(-0.288513 -0.183085 0)
(-0.433675 -0.131261 0)
(-0.479583 -0.0752189 0)
(-0.410411 -0.0427652 0)
(-0.313712 -0.0385461 0)
(-0.228061 -0.0449821 0)
(-0.167399 -0.054066 0)
(-0.132791 -0.0600644 0)
(-0.115335 -0.0627406 0)
(-0.1038 -0.0675772 0)
(-0.0969265 -0.0759398 0)
(-0.115023 -0.0836644 0)
)
;

boundaryField
{
    floor
    {
        type            noSlip;
    }
    ceiling
    {
        type            noSlip;
    }
    sWall
    {
        type            noSlip;
    }
    nWall
    {
        type            noSlip;
    }
    sideWalls
    {
        type            empty;
    }
    glass1
    {
        type            noSlip;
    }
    glass2
    {
        type            noSlip;
    }
    sun
    {
        type            noSlip;
    }
    Table_master
    {
        type            noSlip;
    }
    Table_slave
    {
        type            noSlip;
    }
    inlet
    {
        type            fixedValue;
        value           uniform (0.5 0 0);
    }
    outlet
    {
        type            zeroGradient;
    }
}


// ************************************************************************* //
