/*--------------------------------*- C++ -*----------------------------------*\
  =========                 |
  \\      /  F ield         | OpenFOAM: The Open Source CFD Toolbox
   \\    /   O peration     | Website:  https://openfoam.org
    \\  /    A nd           | Version:  6
     \\/     M anipulation  |
\*---------------------------------------------------------------------------*/
FoamFile
{
    version     2.0;
    format      ascii;
    class       volScalarField;
    location    "750";
    object      epsilon;
}
// * * * * * * * * * * * * * * * * * * * * * * * * * * * * * * * * * * * * * //

dimensions      [0 2 -3 0 0 0 0];

internalField   nonuniform List<scalar> 
458
(
0.00043295
0.000558099
0.000596792
0.000686611
0.000776931
0.000869446
0.000969078
0.00107773
0.00117234
0.0012345
0.00124159
0.00117508
0.00102239
0.0007441
0.000325046
3.9242e-05
6.32157e-05
9.21256e-05
0.000104447
9.96239e-05
8.16371e-05
6.44191e-05
5.12318e-05
4.1379e-05
3.39221e-05
2.81924e-05
2.37425e-05
2.02114e-05
1.73169e-05
1.48402e-05
1.26029e-05
1.1386e-05
8.83862e-06
0.00106133
0.00158375
0.000518741
0.000502912
0.000518786
0.000551302
0.000606708
0.000688986
0.000780297
0.000854543
0.000882608
0.000848295
0.000757267
0.000624236
0.000502228
0.000747622
0.000426935
0.000231875
3.83006e-05
7.53784e-05
9.27868e-05
9.34841e-05
8.97887e-05
9.00913e-05
7.06013e-05
5.35215e-05
4.08259e-05
3.155e-05
2.47502e-05
1.973e-05
1.59732e-05
1.31729e-05
1.14096e-05
1.06913e-05
3.04808e-05
2.00732e-05
0.00190769
0.00384848
0.000604097
0.000458563
0.000466333
0.00050853
0.000580919
0.000684232
0.000797804
0.000885101
0.00091877
0.000888608
0.000802547
0.000667555
0.000517955
0.000416704
0.000353332
0.000382105
0.000139901
0.000139246
0.000125626
0.000111585
0.000103598
0.00019825
0.000133027
9.11678e-05
6.45487e-05
4.73008e-05
3.58224e-05
2.79937e-05
2.25689e-05
1.8871e-05
1.48314e-05
1.31296e-05
6.48526e-05
3.3128e-05
0.00306368
0.00799553
0.000904302
0.000439217
0.000429474
0.000481563
0.0005754
0.000718541
0.000863446
0.000958886
0.000990152
0.000953773
0.000855928
0.000703858
0.000548924
0.000432713
0.000366181
0.000380794
0.00058426
0.000376109
0.000245374
0.00017844
0.0001406
0.000123115
0.000283433
0.000218312
0.000180213
0.000155129
0.000135826
0.000118295
0.00010311
8.854e-05
7.33305e-05
4.5412e-05
2.92975e-05
0.000114621
5.06172e-05
0.00465084
0.0144284
0.00174117
0.000471149
0.00039588
0.000451941
0.000589433
0.000833621
0.00101934
0.0011127
0.00112927
0.00107007
0.000938154
0.000754236
0.000565245
0.000420375
0.000331928
0.00030292
0.000304019
0.000253795
0.000209557
0.000175283
0.000146447
0.000122198
0.000113178
0.00010391
9.7617e-05
9.22598e-05
8.62532e-05
7.88112e-05
7.09184e-05
6.31831e-05
5.59221e-05
4.60413e-05
3.61968e-05
7.47477e-05
0.000114572
0.000120962
0.000143498
0.000184273
0.0068732
0.0217359
0.00400321
0.000791328
0.000465501
0.000474531
0.000701712
0.00112105
0.00130724
0.00136693
0.00134463
0.00124714
0.00106803
0.000825796
0.000578035
0.000389027
0.000279073
0.000238744
0.000228438
0.000218443
0.00020133
0.000176945
0.000149461
0.00012389
0.000107432
0.000100987
9.98084e-05
9.93939e-05
9.72469e-05
9.16991e-05
8.1738e-05
7.04706e-05
5.98217e-05
5.0159e-05
4.34487e-05
5.55247e-05
8.83477e-05
0.000106121
0.000206691
0.000205613
0.00966012
0.0261952
0.00879773
0.00280269
0.0014557
0.00114242
0.00148498
0.00172815
0.00178729
0.00175039
0.00165105
0.00148463
0.00123084
0.000908713
0.000588622
0.000356178
0.000234733
0.000200431
0.00020259
0.000203233
0.000190245
0.000167043
0.000141499
0.000120326
0.000109157
0.000108613
0.000113708
0.00012019
0.000125756
0.000128198
0.000124117
0.000111109
9.75107e-05
8.59574e-05
8.047e-05
8.87418e-05
0.0001206
0.000176791
0.000327327
0.000344828
0.010448
0.0300925
0.0160954
0.00965452
0.00597281
0.00418368
0.00338588
0.00287769
0.0025396
0.00228265
0.00204058
0.00176228
0.00139811
0.000968909
0.00056165
0.000300694
0.000190583
0.000174585
0.000179838
0.000177316
0.000162383
0.000142105
0.000124237
0.000113615
0.000112281
0.000119094
0.000131195
0.000146871
0.000165746
0.000187728
0.000212029
0.000232953
0.00024604
0.000273166
0.00032914
0.00048012
0.000820475
0.00137756
0.00410984
0.00128192
0.00984441
0.017256
0.0132407
0.00999067
0.00750882
0.00579507
0.00459092
0.00379217
0.0032527
0.00282555
0.00242873
0.0020079
0.00148468
0.00091444
0.00040715
0.00021623
0.000159027
0.00014768
0.000144599
0.000137062
0.000124709
0.00011257
0.000105026
0.000104143
0.00010997
0.00012153
0.00013807
0.000159894
0.000188356
0.000225709
0.000275022
0.000339916
0.000427244
0.000551959
0.000734031
0.000976691
0.00125089
0.00149853
0.00170331
0.00104492
0.00347848
0.00471989
0.00512321
0.00502919
0.00473461
0.00432179
0.00378573
0.00316065
0.00254991
0.00194947
0.00116363
0.000536451
0.000254491
0.000159679
0.000129174
0.000118204
0.000110931
0.000103106
9.54466e-05
8.99499e-05
8.84143e-05
9.12712e-05
9.81292e-05
0.000108585
0.000122639
0.000140872
0.000164529
0.000195737
0.000237965
0.000296987
0.000378452
0.000488586
0.000629952
0.000786462
0.000911332
0.000944868
0.000871324
0.000544325
0.00289498
0.00862371
0.00828571
0.00717636
0.00607835
0.00479225
0.00348062
0.00225774
0.00128377
0.000710274
0.000375173
0.000215285
0.000151117
0.000124007
0.000110914
0.000102022
9.40336e-05
8.68772e-05
8.15543e-05
7.87999e-05
7.88911e-05
8.19389e-05
8.79038e-05
9.6966e-05
0.000109648
0.000126857
0.000149985
0.000181103
0.000223171
0.000279958
0.000356594
0.000458279
0.000585844
0.000728668
0.000842119
0.000956358
0.00073375
0.000565834
0.003368
0.00362383
0.00386701
0.00532516
0.0044964
0.00312871
0.00187904
0.00115833
0.000823984
0.000572518
0.000398566
0.000290088
0.000215255
0.00016804
0.000139669
0.000121096
0.00010741
9.64963e-05
8.8067e-05
8.26655e-05
8.07081e-05
8.21709e-05
8.66282e-05
9.34693e-05
0.000102616
0.000114204
0.000128578
0.000146324
0.000168402
0.000196445
0.000231963
0.000276282
0.000331567
0.000400491
0.000486065
0.000603698
0.000660629
0.000620864
0.000499623
0.000395277
)
;

boundaryField
{
    floor
    {
        Cmu             0.09;
        kappa           0.41;
        E               9.8;
        type            epsilonWallFunction;
        value           nonuniform List<scalar> 
36
(
0.000325046
3.9242e-05
6.32157e-05
9.21256e-05
0.000104447
9.96239e-05
8.16371e-05
6.44191e-05
5.12318e-05
4.1379e-05
3.39221e-05
2.81924e-05
2.37425e-05
2.02114e-05
1.73169e-05
1.48402e-05
1.26029e-05
1.1386e-05
8.83862e-06
8.83862e-06
2.00732e-05
3.3128e-05
5.06172e-05
0.000120962
0.000143498
0.000184273
0.000325046
0.000747622
0.000426935
0.000231875
3.9242e-05
0.000231875
3.83006e-05
0.000382105
0.000139901
0.00058426
)
;
    }
    ceiling
    {
        Cmu             0.09;
        kappa           0.41;
        E               9.8;
        type            epsilonWallFunction;
        value           nonuniform List<scalar> 
43
(
0.003368
0.00362383
0.00386701
0.00532516
0.0044964
0.00312871
0.00187904
0.00115833
0.000823984
0.000572518
0.000398566
0.000290088
0.000215255
0.00016804
0.000139669
0.000121096
0.00010741
9.64963e-05
8.8067e-05
8.26655e-05
8.07081e-05
8.21709e-05
8.66282e-05
9.34693e-05
0.000102616
0.000114204
0.000128578
0.000146324
0.000168402
0.000196445
0.000231963
0.000276282
0.000331567
0.000400491
0.000486065
0.000603698
0.000660629
0.000620864
0.000499623
0.000395277
0.00984441
0.017256
0.00289498
)
;
    }
    sWall
    {
        Cmu             0.09;
        kappa           0.41;
        E               9.8;
        type            epsilonWallFunction;
        value           uniform 0.003368;
    }
    nWall
    {
        Cmu             0.09;
        kappa           0.41;
        E               9.8;
        type            epsilonWallFunction;
        value           nonuniform List<scalar> 6(0.000184273 0.000205613 0.000344828 0.000544325 0.000565834 0.000395277);
    }
    sideWalls
    {
        type            empty;
    }
    glass1
    {
        Cmu             0.09;
        kappa           0.41;
        E               9.8;
        type            epsilonWallFunction;
        value           nonuniform List<scalar> 9(0.00043295 0.00106133 0.00190769 0.00306368 0.00465084 0.0068732 0.00966012 0.010448 0.00984441);
    }
    glass2
    {
        Cmu             0.09;
        kappa           0.41;
        E               9.8;
        type            epsilonWallFunction;
        value           nonuniform List<scalar> 2(0.00128192 0.00104492);
    }
    sun
    {
        Cmu             0.09;
        kappa           0.41;
        E               9.8;
        type            epsilonWallFunction;
        value           nonuniform List<scalar> 
14
(
0.00043295
0.000558099
0.000596792
0.000686611
0.000776931
0.000869446
0.000969078
0.00107773
0.00117234
0.0012345
0.00124159
0.00117508
0.00102239
0.0007441
)
;
    }
    Table_master
    {
        Cmu             0.09;
        kappa           0.41;
        E               9.8;
        type            epsilonWallFunction;
        value           nonuniform List<scalar> 9(0.00019825 0.000133027 9.11678e-05 6.45487e-05 4.73008e-05 3.58224e-05 2.79937e-05 2.25689e-05 1.8871e-05);
    }
    Table_slave
    {
        Cmu             0.09;
        kappa           0.41;
        E               9.8;
        type            epsilonWallFunction;
        value           nonuniform List<scalar> 9(0.000283433 0.000218312 0.000180213 0.000155129 0.000135826 0.000118295 0.00010311 8.854e-05 7.33305e-05);
    }
    inlet
    {
        type            turbulentMixingLengthDissipationRateInlet;
        mixingLength    0.01;
        phi             phi;
        k               k;
        value           uniform 0.000471672;
    }
    outlet
    {
        type            zeroGradient;
    }
}


// ************************************************************************* //
