/*--------------------------------*- C++ -*----------------------------------*\
  =========                 |
  \\      /  F ield         | OpenFOAM: The Open Source CFD Toolbox
   \\    /   O peration     | Website:  https://openfoam.org
    \\  /    A nd           | Version:  6
     \\/     M anipulation  |
\*---------------------------------------------------------------------------*/
FoamFile
{
    version     2.0;
    format      ascii;
    class       volScalarField;
    location    "750";
    object      nut;
}
// * * * * * * * * * * * * * * * * * * * * * * * * * * * * * * * * * * * * * //

dimensions      [0 2 -1 0 0 0 0];

internalField   nonuniform List<scalar> 
458
(
0.00106953
0.00116399
0.00119029
0.00124724
0.00129969
0.00134935
0.00139904
0.00144949
0.00149072
0.00151662
0.00151951
0.00149188
0.00142425
0.00128112
0.000972061
0.000480428
0.000563188
0.000638516
0.000665799
0.00065539
0.000613302
0.000566739
0.00052508
0.000488996
0.000457656
0.000430284
0.000406338
0.000385103
0.000365764
0.000347423
0.000329005
0.000318055
0.000292307
0.0014421
0.00324189
0.00299003
0.00342599
0.00386078
0.00430806
0.00470942
0.00501988
0.00533868
0.00563695
0.00587605
0.00602109
0.00603426
0.00582383
0.00473306
0.00128314
0.00106455
0.000868553
0.000476556
0.00113093
0.00164813
0.00204859
0.00217527
0.00158534
0.00133833
0.00117027
0.00104621
0.000951163
0.000875751
0.000810716
0.000749636
0.000688659
0.000634186
0.000588509
0.000719923
0.000384224
0.0017534
0.00435798
0.00359612
0.0043845
0.00471619
0.00494922
0.00512833
0.00529365
0.0055235
0.0058027
0.00610775
0.00640675
0.0066427
0.00672479
0.00633612
0.00516397
0.00391357
0.0010259
0.000733926
0.00126647
0.00184288
0.00241626
0.00258009
0.000824358
0.000721703
0.000636296
0.000567119
0.000511291
0.000466047
0.000429271
0.000399529
0.000376395
0.000417081
0.000483044
0.000844762
0.000454057
0.00205333
0.00556716
0.00349877
0.00454287
0.00472472
0.00470709
0.00469064
0.00476993
0.00495681
0.00523297
0.00558396
0.00597569
0.00631871
0.00653399
0.0064848
0.00614915
0.00527748
0.00289764
0.0011819
0.00150462
0.0020685
0.00275918
0.00335813
0.00338788
0.000928671
0.000851277
0.00079856
0.000759642
0.00072673
0.000694012
0.000662948
0.000630122
0.000591753
0.000557318
0.000549184
0.00100705
0.000522971
0.00235988
0.00719403
0.00367047
0.00431285
0.00457259
0.0044183
0.00429266
0.00436461
0.00456186
0.0048491
0.00522748
0.00565712
0.00599341
0.00616078
0.00615644
0.0060387
0.00569059
0.00470588
0.00426515
0.00429599
0.00454647
0.00484501
0.00502851
0.00494641
0.00422044
0.00384725
0.00364162
0.00349431
0.00334522
0.00315317
0.00282621
0.00240528
0.00192659
0.00146547
0.00109915
0.0010241
0.000888954
0.000699189
0.000740163
0.000804512
0.00268801
0.00902691
0.00502732
0.00399364
0.00435247
0.00434382
0.00418341
0.00424364
0.00444466
0.00473181
0.00511549
0.0055272
0.00583876
0.00593869
0.00584471
0.0057099
0.00564915
0.00556799
0.00573544
0.00602611
0.00623038
0.00626734
0.00613088
0.00584439
0.00544369
0.00511807
0.0048645
0.00464106
0.00442148
0.00418822
0.00388689
0.00347384
0.00295143
0.00236067
0.00181394
0.00131533
0.00108108
0.00094301
0.00118746
0.00083444
0.00301097
0.010412
0.00750229
0.00491016
0.00427267
0.00433398
0.00438937
0.00442091
0.00453421
0.004787
0.00516431
0.00557234
0.00585822
0.00589086
0.00571258
0.00558354
0.00579802
0.00627305
0.00675674
0.00702996
0.00703121
0.00679805
0.00640269
0.00592096
0.00544059
0.00505388
0.00476099
0.0045234
0.00431538
0.00412847
0.00395852
0.00373633
0.00337105
0.00288303
0.00237623
0.0018894
0.00157167
0.00143976
0.00137236
0.000991393
0.00309069
0.00966278
0.00820343
0.0068845
0.0058768
0.00543093
0.00501148
0.00472584
0.00471922
0.00495983
0.00535003
0.00575333
0.0059945
0.00594101
0.00572297
0.00577908
0.00639152
0.00689388
0.00715578
0.00714421
0.00686114
0.00637096
0.00576759
0.00515856
0.00465208
0.0042969
0.0040573
0.00388511
0.00375751
0.0036715
0.00363327
0.00363489
0.00353747
0.00324734
0.00296475
0.00280705
0.0028753
0.00303534
0.00360585
0.00153579
0.00302999
0.00365336
0.0040342
0.00424603
0.00427547
0.00421062
0.00421111
0.00438561
0.00474148
0.00519643
0.00566332
0.00603235
0.00615273
0.00594381
0.00588692
0.00619841
0.00655759
0.00668062
0.00659169
0.00628041
0.00575837
0.00511332
0.00446904
0.0039399
0.00357351
0.00334009
0.00318349
0.00306444
0.00296286
0.00286754
0.00276986
0.00266269
0.00256557
0.00248153
0.00242587
0.00239452
0.00233494
0.00221222
0.00206302
0.00143463
0.00133489
0.00234622
0.00322164
0.00390686
0.00453249
0.00514188
0.00562647
0.00595406
0.00616894
0.00620188
0.00600261
0.00575821
0.0057613
0.00586507
0.00578636
0.00555362
0.00518655
0.00469226
0.00412362
0.00356773
0.00312498
0.00282669
0.0026437
0.00253139
0.00245683
0.00240243
0.00236068
0.00232992
0.00231267
0.00231807
0.00233165
0.0023438
0.00234453
0.00230756
0.00219332
0.00199192
0.00174229
0.00115433
0.00201493
0.00395821
0.00507661
0.00580187
0.00636634
0.0064161
0.00608872
0.0057594
0.00547505
0.00492948
0.00454214
0.00445311
0.00439246
0.00422069
0.00396162
0.00364041
0.00326394
0.0028678
0.00251055
0.00223271
0.00204093
0.0019303
0.00187842
0.00186719
0.00188543
0.00192602
0.00198286
0.00204862
0.00212552
0.00221381
0.00230832
0.00240116
0.00247676
0.00251463
0.00247957
0.00244903
0.00225475
0.00116934
0.00211919
0.00217154
0.00221907
0.00246882
0.00233346
0.00206776
0.00174458
0.00148476
0.00132541
0.00117393
0.00104043
0.000935883
0.000847285
0.000780158
0.000733521
0.000699447
0.000672037
0.000648458
0.000628999
0.000615866
0.000610967
0.000614636
0.000625554
0.000641606
0.000661887
0.000685919
0.000713566
0.00074499
0.000780717
0.000821849
0.000868663
0.000920794
0.000978518
0.0010421
0.00111159
0.00119486
0.0012313
0.00120608
0.00112183
0.00103756
)
;

boundaryField
{
    floor
    {
        type            nutkWallFunction;
        Cmu             0.09;
        kappa           0.41;
        E               9.8;
        value           nonuniform List<scalar> 
36
(
0.000117426
5.72088e-05
6.77314e-05
7.71442e-05
8.05194e-05
7.92336e-05
7.40092e-05
6.81783e-05
6.29115e-05
5.83079e-05
5.42752e-05
5.07246e-05
4.7595e-05
4.48e-05
4.22374e-05
3.97907e-05
3.7317e-05
3.58377e-05
3.23324e-05
3.23323e-05
4.46832e-05
5.38091e-05
6.26428e-05
8.46269e-05
8.96368e-05
9.74396e-05
0.000117426
0.000153539
0.000128284
0.000105131
5.72088e-05
0.000105131
5.6711e-05
0.000123761
8.88769e-05
0.000141909
)
;
    }
    ceiling
    {
        type            nutkWallFunction;
        Cmu             0.09;
        kappa           0.41;
        E               9.8;
        value           nonuniform List<scalar> 
43
(
0.000246193
0.000251846
0.000256968
0.000283767
0.00026935
0.000240732
0.000205363
0.000176403
0.000158366
0.000140991
0.000125466
0.000113148
0.000102585
9.44955e-05
8.88272e-05
8.46588e-05
8.12882e-05
7.83754e-05
7.59619e-05
7.43281e-05
7.37174e-05
7.41748e-05
7.55338e-05
7.75265e-05
8.00358e-05
8.29973e-05
8.63889e-05
9.0225e-05
9.45632e-05
9.95288e-05
0.000105145
0.000111358
0.000118191
0.000125663
0.00013377
0.000143411
0.000147605
0.000144704
0.00013496
0.000125132
0.000343203
0.000407604
0.000234812
)
;
    }
    sWall
    {
        type            nutkWallFunction;
        Cmu             0.09;
        kappa           0.41;
        E               9.8;
        value           uniform 0.00024626;
    }
    nWall
    {
        type            nutkWallFunction;
        Cmu             0.09;
        kappa           0.41;
        E               9.8;
        value           nonuniform List<scalar> 6(9.74402e-05 0.000101044 0.000119712 0.000138739 0.000140475 0.000125139);
    }
    sideWalls
    {
        type            empty;
    }
    glass1
    {
        type            nutkWallFunction;
        Cmu             0.09;
        kappa           0.41;
        E               9.8;
        value           nonuniform List<scalar> 9(0.000128973 0.000171824 0.000206664 0.000239592 0.000272714 0.000307668 0.000341636 0.000349971 0.000343651);
    }
    glass2
    {
        type            nutkWallFunction;
        Cmu             0.09;
        kappa           0.41;
        E               9.8;
        value           nonuniform List<scalar> 2(0.000182233 0.000170841);
    }
    sun
    {
        type            nutkWallFunction;
        Cmu             0.09;
        kappa           0.41;
        E               9.8;
        value           nonuniform List<scalar> 
14
(
0.000128869
0.000139839
0.000142876
0.000149427
0.00015543
0.00016109
0.000166729
0.000172432
0.000177077
0.000179986
0.000180311
0.000177206
0.00016958
0.000153307
)
;
    }
    Table_master
    {
        type            nutkWallFunction;
        Cmu             0.09;
        kappa           0.41;
        E               9.8;
        value           nonuniform List<scalar> 9(9.98298e-05 8.73854e-05 7.68713e-05 6.82305e-05 6.11633e-05 5.53661e-05 5.0602e-05 4.67117e-05 4.36601e-05);
    }
    Table_slave
    {
        type            nutkWallFunction;
        Cmu             0.09;
        kappa           0.41;
        E               9.8;
        value           nonuniform List<scalar> 9(0.00011229 0.000103062 9.67206e-05 9.20074e-05 8.79993e-05 8.39933e-05 8.01688e-05 7.61041e-05 7.13203e-05);
    }
    inlet
    {
        type            calculated;
        value           uniform 0.000167705;
    }
    outlet
    {
        type            calculated;
        value           nonuniform List<scalar> 2(0.00211919 0.00217154);
    }
}


// ************************************************************************* //
