/*--------------------------------*- C++ -*----------------------------------*\
  =========                 |
  \\      /  F ield         | OpenFOAM: The Open Source CFD Toolbox
   \\    /   O peration     | Website:  https://openfoam.org
    \\  /    A nd           | Version:  6
     \\/     M anipulation  |
\*---------------------------------------------------------------------------*/
FoamFile
{
    version     2.0;
    format      ascii;
    class       volScalarField;
    location    "1240";
    object      alphat;
}
// * * * * * * * * * * * * * * * * * * * * * * * * * * * * * * * * * * * * * //

dimensions      [1 -1 -1 0 0 0 0];

internalField   nonuniform List<scalar> 
458
(
0.00124413
0.00135526
0.00138595
0.00145228
0.00151337
0.00157121
0.00162908
0.00168783
0.00173588
0.00176609
0.00176952
0.0017374
0.00165867
0.00149197
0.00113181
0.000559119
0.000655491
0.000743177
0.000774898
0.000762759
0.000713772
0.000659577
0.000611086
0.000569084
0.000532602
0.000500746
0.000472871
0.000448152
0.000425639
0.000404286
0.000382844
0.000370096
0.000340112
0.00167646
0.00377417
0.00348146
0.00398907
0.00449521
0.00501586
0.00548309
0.00584448
0.00621582
0.00656356
0.00684261
0.0070121
0.00702781
0.00678287
0.0055121
0.00149409
0.00123951
0.00101124
0.000554599
0.00131634
0.00191848
0.00238458
0.00253194
0.00184524
0.00155774
0.00136211
0.00121774
0.00110713
0.00101936
0.000943664
0.000872537
0.000801547
0.000738117
0.000684954
0.000837915
0.000447106
0.00203696
0.00507214
0.00418632
0.00510419
0.00548992
0.00576081
0.00596905
0.00616133
0.00642926
0.00675516
0.00711138
0.00746032
0.00773553
0.00783142
0.00737876
0.00601349
0.00455728
0.00119439
0.000854259
0.00147422
0.00214519
0.00281251
0.00300304
0.000959359
0.000839898
0.000740505
0.00066
0.000595034
0.000542385
0.000499589
0.000464979
0.000438059
0.000485432
0.000562188
0.000983167
0.000528377
0.00238378
0.00647793
0.00407211
0.00528754
0.00549852
0.00547736
0.00545779
0.00554997
0.00576806
0.00609082
0.0065009
0.00695797
0.00735775
0.00760855
0.00755117
0.00716017
0.00614509
0.00337363
0.00137594
0.00175186
0.0024082
0.0032119
0.00390862
0.00394273
0.0010805
0.000990405
0.000929033
0.000883734
0.000845436
0.000807363
0.00077122
0.000733034
0.000688404
0.000648442
0.000639026
0.00117176
0.000608552
0.00273783
0.00836871
0.00427104
0.00501899
0.00532044
0.00514004
0.00499322
0.00507687
0.00530731
0.00564348
0.00608588
0.00658722
0.00697899
0.0071735
0.007168
0.00703071
0.00662535
0.00547849
0.00496515
0.00500093
0.00529201
0.00563881
0.00585152
0.00575512
0.00490998
0.00447545
0.00423595
0.00406442
0.00389083
0.00366748
0.00328731
0.0027978
0.00224101
0.0017047
0.00127867
0.0011914
0.0010343
0.000813321
0.000860759
0.000935588
0.00311665
0.0104976
0.00584884
0.00464674
0.0050639
0.00505295
0.0048654
0.00493499
0.00517025
0.00550687
0.0059558
0.00643651
0.00679925
0.00691465
0.00680415
0.00664656
0.00657557
0.00648094
0.00667566
0.00701348
0.00725038
0.00729229
0.00713231
0.0067979
0.00633111
0.00595195
0.00565667
0.00539655
0.0051411
0.00486997
0.00451981
0.00403968
0.00343244
0.00274555
0.00210985
0.00153
0.00125756
0.0010969
0.00138121
0.000970514
0.00348932
0.0121021
0.00872468
0.00571059
0.00496916
0.00504012
0.00510353
0.00514038
0.00527423
0.00557149
0.00601347
0.00648998
0.00682235
0.00685868
0.00664929
0.00649788
0.00674693
0.00729962
0.00786221
0.00817952
0.00817987
0.00790731
0.00744596
0.00688453
0.00632541
0.00587544
0.00553473
0.0052584
0.00501667
0.00479966
0.00460227
0.00434414
0.0039197
0.00335253
0.00276347
0.00219747
0.00182811
0.00167468
0.00159627
0.00115312
0.00357893
0.0112148
0.00952693
0.00799835
0.00682865
0.00631042
0.00582361
0.00549391
0.00549009
0.0057742
0.00623149
0.00670197
0.00698131
0.00691627
0.00665972
0.00672337
0.00743548
0.00801975
0.00832387
0.00830959
0.00797909
0.00740774
0.00670494
0.00599619
0.00540717
0.00499437
0.00471588
0.00451589
0.00436791
0.00426814
0.00422384
0.00422592
0.00411288
0.0037758
0.00344725
0.00326423
0.00334399
0.00352998
0.00419315
0.00178525
0.00350479
0.00423034
0.00467525
0.00492478
0.00496205
0.00488877
0.0048923
0.0051006
0.00552052
0.00605428
0.00659944
0.00702802
0.00716469
0.00691737
0.00684727
0.00720841
0.00762584
0.00776875
0.00766473
0.0073019
0.0066939
0.00594316
0.0051937
0.00457861
0.00415299
0.00388193
0.0037001
0.00356189
0.00344407
0.00333346
0.00322001
0.00309544
0.00298244
0.00288462
0.00281981
0.00278326
0.00271381
0.00257084
0.00239715
0.00166671
0.00157968
0.00276041
0.00377649
0.00457226
0.0053012
0.00601029
0.00657173
0.00694762
0.00719156
0.00722425
0.00698617
0.00669743
0.00669852
0.006818
0.00672604
0.00645513
0.00602805
0.00545302
0.0047918
0.00414571
0.00363138
0.0032849
0.00307248
0.00294208
0.00285546
0.00279234
0.00274396
0.00270824
0.00268816
0.0026944
0.00271012
0.00272413
0.00272483
0.00268171
0.00254872
0.00231444
0.0020242
0.00134113
0.00238084
0.00465378
0.00595176
0.00679243
0.00744597
0.00749576
0.00710382
0.00671028
0.00637238
0.00573434
0.00528112
0.00517593
0.00510456
0.00490479
0.00460371
0.00423051
0.00379294
0.00333258
0.00291743
0.00259455
0.00237183
0.00224339
0.00218318
0.00217014
0.00219132
0.00223851
0.00230454
0.00238092
0.00247037
0.00257301
0.00268285
0.00279071
0.00287843
0.00292223
0.0028813
0.00284562
0.00261998
0.00135861
0.00249159
0.00255349
0.00260943
0.00289321
0.00272897
0.00241412
0.00203344
0.00172841
0.00154187
0.00136505
0.00120955
0.00108788
0.000984898
0.000906864
0.00085264
0.000813027
0.00078117
0.00075376
0.000731129
0.000715858
0.00071016
0.000714433
0.000727119
0.000745769
0.000769333
0.000797258
0.000829384
0.000865904
0.000907416
0.000955221
0.00100962
0.0010702
0.00113727
0.00121116
0.00129189
0.00138862
0.00143093
0.00140159
0.00130365
0.00120555
)
;

boundaryField
{
    floor
    {
        type            compressible::alphatWallFunction;
        Prt             0.85;
        value           nonuniform List<scalar> 
36
(
0.000160687
7.82031e-05
9.26093e-05
0.000105494
0.000110109
0.000108346
0.000101195
9.32151e-05
8.60069e-05
7.97064e-05
7.41874e-05
6.93295e-05
6.50469e-05
6.12226e-05
5.77162e-05
5.43685e-05
5.0984e-05
4.89605e-05
4.41648e-05
4.41642e-05
6.10608e-05
7.35463e-05
8.563e-05
0.000115678
0.000122505
0.000133176
0.000160686
0.000210157
0.000175559
0.000143843
7.82021e-05
0.000143841
7.75195e-05
0.000169345
0.000121556
0.000194191
)
;
    }
    ceiling
    {
        type            compressible::alphatWallFunction;
        Prt             0.85;
        value           nonuniform List<scalar> 
43
(
0.000340273
0.000348136
0.000355227
0.000391032
0.000370438
0.000330539
0.00028153
0.000241538
0.000216702
0.000192847
0.000171577
0.000154715
0.000140271
0.00012921
0.000121457
0.000115757
0.000111149
0.000107166
0.000103864
0.000101629
0.000100794
0.00010142
0.000103278
0.000106002
0.000109431
0.000113479
0.000118116
0.00012336
0.00012929
0.00013608
0.000143757
0.000152251
0.00016159
0.000171805
0.000182887
0.000196061
0.000201791
0.000197821
0.000184496
0.000171038
0.000467121
0.000555328
0.000326053
)
;
    }
    sWall
    {
        type            compressible::alphatWallFunction;
        Prt             0.85;
        value           uniform 0.00033903;
    }
    nWall
    {
        type            compressible::alphatWallFunction;
        Prt             0.85;
        value           nonuniform List<scalar> 6(0.000132957 0.000137898 0.000163428 0.000189266 0.000191643 0.000170697);
    }
    sideWalls
    {
        type            empty;
    }
    glass1
    {
        type            compressible::alphatWallFunction;
        Prt             0.85;
        value           nonuniform List<scalar> 9(0.000171661 0.000229167 0.000275992 0.000320289 0.000364871 0.000411954 0.000457735 0.000468805 0.000459998);
    }
    glass2
    {
        type            compressible::alphatWallFunction;
        Prt             0.85;
        value           nonuniform List<scalar> 2(0.000247085 0.000231543);
    }
    sun
    {
        type            compressible::alphatWallFunction;
        Prt             0.85;
        value           nonuniform List<scalar> 
14
(
0.000176211
0.000191381
0.000195549
0.000204523
0.000212748
0.000220502
0.000228227
0.00023604
0.000242407
0.000246399
0.000246852
0.000242607
0.000232164
0.00020987
)
;
    }
    Table_master
    {
        type            compressible::alphatWallFunction;
        Prt             0.85;
        value           nonuniform List<scalar> 9(0.000136679 0.000119642 0.000105247 9.34163e-05 8.37409e-05 7.58045e-05 6.92823e-05 6.39563e-05 5.97789e-05);
    }
    Table_slave
    {
        type            compressible::alphatWallFunction;
        Prt             0.85;
        value           nonuniform List<scalar> 9(0.000153707 0.000141068 0.000132382 0.000125928 0.00012044 0.000114956 0.000109721 0.000104158 9.76115e-05);
    }
    inlet
    {
        type            fixedValue;
        value           uniform 1.94e-05;
    }
    outlet
    {
        type            zeroGradient;
    }
}


// ************************************************************************* //
