/*--------------------------------*- C++ -*----------------------------------*\
  =========                 |
  \\      /  F ield         | OpenFOAM: The Open Source CFD Toolbox
   \\    /   O peration     | Website:  https://openfoam.org
    \\  /    A nd           | Version:  6
     \\/     M anipulation  |
\*---------------------------------------------------------------------------*/
FoamFile
{
    version     2.0;
    format      ascii;
    class       volScalarField;
    location    "34999.9999981433139";
    object      nut;
}
// * * * * * * * * * * * * * * * * * * * * * * * * * * * * * * * * * * * * * //

dimensions      [0 2 -1 0 0 0 0];

internalField   nonuniform List<scalar> 
778
(
0.00089431
0.000953077
0.00094962
0.000990847
0.00102863
0.00106294
0.00109488
0.00112566
0.00115665
0.00118957
0.00122095
0.00125074
0.00128009
0.00131164
0.00134458
0.000632257
0.000905203
0.000912445
0.000890301
0.000853328
0.000803997
0.00075487
0.00070961
0.000668788
0.000632169
0.000599531
0.000570214
0.00054351
0.000518587
0.000494335
0.000468978
0.000447938
0.000405492
0.00131078
0.00258118
0.00226506
0.00261439
0.00286795
0.00313679
0.00340496
0.00365208
0.00385093
0.0039666
0.00403452
0.00400627
0.00380619
0.00331103
0.00241805
0.00147204
0.00140346
0.00134344
0.00113124
0.00192662
0.00266991
0.00310859
0.00312882
0.00246965
0.0021121
0.00186424
0.00167623
0.00152676
0.00139928
0.00128654
0.00118159
0.00107892
0.000986776
0.00090732
0.00102232
0.00051408
0.00166403
0.00360447
0.00267234
0.00382227
0.00427107
0.00465096
0.004996
0.00529964
0.00555678
0.0057582
0.00595327
0.00615831
0.00634644
0.00645798
0.00638274
0.00584382
0.0042742
0.00164793
0.00142701
0.00305298
0.00426027
0.0048308
0.0043929
0.00115909
0.00100778
0.00089109
0.00079982
0.000727216
0.000668629
0.000620847
0.000581976
0.000551666
0.000606565
0.000713607
0.00113069
0.000584856
0.00200525
0.00485853
0.00255741
0.00429816
0.00496259
0.00531834
0.00558001
0.00577364
0.0059181
0.00603504
0.00620119
0.00648169
0.00689078
0.00740513
0.00792229
0.0081771
0.00767908
0.00573204
0.00164132
0.00379904
0.00565455
0.00659753
0.00682983
0.00583029
0.00132006
0.00120061
0.00110813
0.00103123
0.000965721
0.000906908
0.000851471
0.000796414
0.000736936
0.000688537
0.000713952
0.00122489
0.0006439
0.00234199
0.00643332
0.0025804
0.00408642
0.00510796
0.00541142
0.00552186
0.0055265
0.00547193
0.00542347
0.00549302
0.00576551
0.00626533
0.00697311
0.00779426
0.00855118
0.0090315
0.00902587
0.00810047
0.00824256
0.00843279
0.0084601
0.00828816
0.00775734
0.00617311
0.00533198
0.00475585
0.00428776
0.00382872
0.0033841
0.00294915
0.00251486
0.00206886
0.00158901
0.00121232
0.00121227
0.000958949
0.000768231
0.00102336
0.000976082
0.00267363
0.00819667
0.00303814
0.00344635
0.0048946
0.00523123
0.00520473
0.00501778
0.00475028
0.00452963
0.00452474
0.00481029
0.00537976
0.00620024
0.00716077
0.00812117
0.00893857
0.00946149
0.00955726
0.00946225
0.0092954
0.00905797
0.0087521
0.00836244
0.00779377
0.00724592
0.00674856
0.00626768
0.00574847
0.00519415
0.00460226
0.00396783
0.00328692
0.00256446
0.00190989
0.00143394
0.00111356
0.00125746
0.0021982
0.00116508
0.0030122
0.00982824
0.00404916
0.00282361
0.00439842
0.00494864
0.0048878
0.00458485
0.00414528
0.00375876
0.00374793
0.00410873
0.00476062
0.00567778
0.00672117
0.00775469
0.00864476
0.00928291
0.00957714
0.00955553
0.00934673
0.00902962
0.00866598
0.00830286
0.00795147
0.00762897
0.00732594
0.00700231
0.00661132
0.00614084
0.00558407
0.0049385
0.00420672
0.00340706
0.00262438
0.00189472
0.00139497
0.00125289
0.00224085
0.00137781
0.00330357
0.0110651
0.00552191
0.0026887
0.00348474
0.00438775
0.00451351
0.00426428
0.00374523
0.003219
0.0033388
0.00381622
0.00454551
0.00549062
0.00657447
0.00765612
0.00857908
0.00922082
0.00951293
0.0094759
0.00920601
0.00880718
0.00837775
0.00799661
0.00770268
0.00749265
0.00732876
0.00715033
0.00690177
0.00655397
0.00609345
0.00551771
0.0048324
0.00405743
0.00324986
0.00243056
0.00169158
0.00114452
0.00328784
0.0018243
0.00339331
0.0104828
0.00683774
0.00347736
0.00236198
0.00289574
0.00338939
0.0034308
0.00302969
0.00294481
0.00325097
0.00381243
0.00460138
0.00560426
0.00674065
0.00785553
0.00877458
0.00936587
0.00957369
0.00943129
0.00903943
0.00852513
0.00801454
0.00760695
0.00734816
0.00722122
0.00716375
0.00709526
0.00695226
0.00670089
0.00632786
0.00583204
0.0052199
0.0045072
0.00372261
0.00283694
0.00161843
0.00147508
0.00519511
0.00206982
0.00332457
0.00845702
0.00706645
0.00477608
0.00315242
0.00244025
0.00231177
0.00242131
0.00262484
0.00294907
0.00340896
0.00404107
0.00489985
0.00598227
0.00718136
0.00831196
0.00918196
0.00965992
0.00970859
0.00938586
0.00881898
0.00816676
0.00758433
0.00718498
0.00700195
0.00698094
0.00702114
0.0070207
0.00692823
0.00672478
0.00640419
0.00596643
0.00541502
0.00475374
0.00396399
0.00283781
0.00122428
0.00275867
0.00485576
0.00210226
0.00311424
0.00723069
0.00683522
0.00546827
0.00420621
0.00338494
0.00297901
0.00288736
0.00305569
0.0033655
0.0038152
0.00448278
0.00543234
0.00662067
0.00788184
0.00898808
0.00973572
0.0100105
0.00981049
0.00923509
0.0084561
0.00767644
0.00708329
0.00678508
0.00675103
0.00685019
0.00695021
0.00695202
0.00685447
0.00665764
0.00635804
0.00595177
0.00543191
0.00477491
0.00389201
0.0025751
0.00133583
0.00291344
0.00535997
0.00212472
0.00283593
0.0065215
0.00659599
0.005791
0.00492427
0.00427228
0.00388849
0.00375091
0.00378549
0.00397232
0.00438491
0.00513129
0.00623084
0.00754898
0.00883769
0.00983126
0.0103371
0.0102859
0.00973628
0.00884929
0.00786342
0.0070388
0.0065697
0.00647611
0.00656141
0.00669495
0.00678145
0.00675649
0.00664253
0.00644283
0.00615186
0.00575571
0.00521861
0.00446029
0.00332907
0.00201873
0.00157113
0.00319777
0.00548147
0.00224863
0.00258652
0.00583657
0.00630134
0.00591917
0.00536198
0.00489438
0.00458346
0.00443145
0.00438573
0.00454404
0.00506748
0.0060441
0.00737696
0.00880573
0.0100102
0.010725
0.0108147
0.0102928
0.00930974
0.00810978
0.00702516
0.00632555
0.00601724
0.00598642
0.00608768
0.00621502
0.00629008
0.00626279
0.00614425
0.0059391
0.00563832
0.00520886
0.00455401
0.00350434
0.00220088
0.00157474
0.00197465
0.00370252
0.00560503
0.00226862
0.00259499
0.00579406
0.00643941
0.00599222
0.00554087
0.00517143
0.00490496
0.00473176
0.00472212
0.00510664
0.00603134
0.0074176
0.0089836
0.0103646
0.0112383
0.011417
0.0108859
0.00977518
0.00836862
0.00700438
0.00601086
0.00542514
0.00516077
0.00511839
0.00519934
0.00530962
0.00537229
0.00533989
0.00520387
0.00497524
0.00464183
0.00414669
0.00335824
0.00229072
0.00158987
0.00172371
0.00250718
0.00385647
0.00513579
0.00212007
0.00234212
0.00243613
0.00359171
0.00421822
0.00441115
0.00441317
0.00436944
0.00444773
0.00498239
0.00613032
0.00775309
0.00951069
0.0110166
0.0119449
0.0121036
0.0114591
0.0101743
0.00850235
0.00690637
0.005653
0.00481406
0.00434399
0.00414601
0.00410795
0.00414082
0.00417464
0.00415595
0.00405824
0.00386431
0.00360374
0.00328475
0.00288819
0.00237286
0.00182927
0.00162495
0.00200392
0.002852
0.00386799
0.00442431
0.00200148
0.000806344
0.00146226
0.00225695
0.00289828
0.00364036
0.00489256
0.00673839
0.00879587
0.0106795
0.0120959
0.0128394
0.0127718
0.0118943
0.0103065
0.00841891
0.00663396
0.0052197
0.00428105
0.00377691
0.00354489
0.00344434
0.00339392
0.00334558
0.00326607
0.00313799
0.00296621
0.00277284
0.00258136
0.00241106
0.00225895
0.00210968
0.00197331
0.00196792
0.00231061
0.00308594
0.00411055
0.00511628
0.00201867
0.00149734
0.00207544
0.00303011
0.00473582
0.00705177
0.00937986
0.0111907
0.0125102
0.0133232
0.013567
0.013131
0.0119023
0.0100709
0.00799436
0.00608875
0.00466873
0.00384502
0.00346079
0.00330016
0.00323298
0.00319764
0.00316147
0.00310477
0.00301972
0.00291314
0.00280339
0.00270939
0.00264103
0.00259906
0.0025765
0.00256989
0.00259237
0.00269102
0.0029718
0.00361133
0.00488148
0.00555647
0.00218589
0.00275697
0.00668054
0.00613993
0.00548056
0.00696723
0.00930018
0.0112761
0.0126203
0.0133434
0.0135405
0.0132949
0.0125564
0.0112669
0.00946079
0.00739501
0.00553286
0.0042865
0.00366597
0.00341887
0.00334161
0.00333489
0.00335128
0.00336374
0.00335681
0.00332639
0.00327907
0.00322778
0.00318493
0.0031579
0.0031494
0.00316031
0.00319635
0.00326848
0.00339451
0.0036115
0.00399291
0.00468301
0.00622821
0.00632936
0.00226456
0.00263859
0.00509752
0.00656924
0.00839526
0.00932767
0.0102956
0.010865
0.011011
0.0108123
0.0103244
0.00956386
0.0085267
0.00724335
0.00585929
0.00462281
0.00377179
0.00331225
0.00311082
0.00305536
0.00308154
0.00314976
0.00323052
0.00330155
0.0033499
0.00337351
0.00337903
0.00337617
0.00337237
0.00337175
0.00337912
0.00340564
0.0034715
0.00360437
0.00383101
0.00417819
0.00466483
0.005323
0.00648086
0.00668167
0.00233324
0.00247398
0.00212039
0.00211032
0.00217265
0.00222474
0.00216115
0.00203546
0.00188838
0.00174037
0.00159807
0.00146197
0.00133332
0.00121898
0.00113127
0.00108069
0.00105927
0.00105669
0.00106491
0.00107869
0.00109484
0.00111147
0.00112757
0.00114284
0.00115763
0.00117277
0.00118949
0.00120927
0.00123395
0.00126595
0.00130845
0.00136511
0.0014389
0.00153034
0.001637
0.00175518
0.00188359
0.00202048
0.00216468
0.00230639
0.00216787
)
;

boundaryField
{
    floor
    {
        type            nutkWallFunction;
        Cmu             0.09;
        kappa           0.41;
        E               9.8;
        value           nonuniform List<scalar> 
36
(
0.000160544
7.63685e-05
0.000109501
0.000110363
0.000107727
0.000103308
9.73768e-05
9.14275e-05
8.59058e-05
8.08892e-05
7.63578e-05
7.22922e-05
6.86173e-05
6.52497e-05
6.20884e-05
5.89941e-05
5.57384e-05
5.30202e-05
4.74862e-05
4.74862e-05
6.15142e-05
7.04548e-05
7.78117e-05
9.3049e-05
0.000123463
0.000117895
0.000160544
0.000174969
0.000167225
0.000160412
7.63685e-05
0.000160412
0.000136043
0.000194652
0.000169888
0.000193916
)
;
    }
    ceiling
    {
        type            nutkWallFunction;
        Cmu             0.09;
        kappa           0.41;
        E               9.8;
        value           nonuniform List<scalar> 
43
(
0.000284351
0.000246403
0.000245315
0.000252058
0.000257681
0.00025084
0.000237234
0.000221191
0.000204908
0.000189111
0.000173859
0.000159299
0.000146221
0.000136086
0.00013019
0.00012768
0.00012737
0.000128327
0.000129936
0.000131823
0.000133765
0.000135643
0.000137423
0.00013914
0.000140893
0.00014282
0.00014509
0.000147911
0.000151549
0.000156361
0.000162752
0.000171045
0.000181292
0.000193199
0.000206327
0.000220484
0.000235487
0.000251183
0.00026652
0.000251557
0.000270469
0.000280515
0.000177607
)
;
    }
    sWall
    {
        type            nutkWallFunction;
        Cmu             0.09;
        kappa           0.41;
        E               9.8;
        value           nonuniform List<scalar> 9(0.000373881 0.000352061 0.000322956 0.000296623 0.000297517 0.000270559 0.000314337 0.000301873 0.000284452);
    }
    nWall
    {
        type            nutkWallFunction;
        Cmu             0.09;
        kappa           0.41;
        E               9.8;
        value           nonuniform List<scalar> 
14
(
0.000117903
0.000139971
0.000164334
0.000244549
0.00024703
0.000260399
0.000262204
0.000246149
0.000233383
0.000235652
0.000253578
0.000262027
0.000269366
0.000251594
)
;
    }
    sideWalls
    {
        type            empty;
    }
    glass1
    {
        type            nutkWallFunction;
        Cmu             0.09;
        kappa           0.41;
        E               9.8;
        value           nonuniform List<scalar> 9(0.000108248 0.000156882 0.000196736 0.000234348 0.000270792 0.000306142 0.00034176 0.000372082 0.000381374);
    }
    glass2
    {
        type            nutkWallFunction;
        Cmu             0.09;
        kappa           0.41;
        E               9.8;
        value           nonuniform List<scalar> 2(0.000214321 0.000241115);
    }
    sun
    {
        type            nutkWallFunction;
        Cmu             0.09;
        kappa           0.41;
        E               9.8;
        value           nonuniform List<scalar> 
14
(
0.000108207
0.000115182
0.000114773
0.00011964
0.00012408
0.000128095
0.00013182
0.000135398
0.000138988
0.000142792
0.000146405
0.000149827
0.000153187
0.000156792
)
;
    }
    Table_master
    {
        type            nutkWallFunction;
        Cmu             0.09;
        kappa           0.41;
        E               9.8;
        value           nonuniform List<scalar> 9(0.00013926 0.000121625 0.000107817 9.68718e-05 8.806e-05 8.08732e-05 7.49558e-05 7.01016e-05 6.6289e-05);
    }
    Table_slave
    {
        type            nutkWallFunction;
        Cmu             0.09;
        kappa           0.41;
        E               9.8;
        value           nonuniform List<scalar> 9(0.000157739 0.000144052 0.000133352 0.000124377 0.000116671 0.000109701 0.000103083 9.64606e-05 8.92454e-05);
    }
    inlet
    {
        type            calculated;
        value           uniform 0.000167705;
    }
    outlet
    {
        type            calculated;
        value           nonuniform List<scalar> 2(0.00275697 0.00668054);
    }
}


// ************************************************************************* //
