/*--------------------------------*- C++ -*----------------------------------*\
  =========                 |
  \\      /  F ield         | OpenFOAM: The Open Source CFD Toolbox
   \\    /   O peration     | Website:  https://openfoam.org
    \\  /    A nd           | Version:  6
     \\/     M anipulation  |
\*---------------------------------------------------------------------------*/
FoamFile
{
    version     2.0;
    format      ascii;
    class       volVectorField;
    location    "21200";
    object      U;
}
// * * * * * * * * * * * * * * * * * * * * * * * * * * * * * * * * * * * * * //

dimensions      [0 1 -1 0 0 0 0];

internalField   nonuniform List<vector> 
778
(
(0.0655969 0.0794076 0)
(-0.155178 0.0157653 0)
(-0.164305 0.0146245 0)
(-0.192421 0.0122757 0)
(-0.216859 0.00872685 0)
(-0.236922 0.00474725 0)
(-0.252055 0.00042137 0)
(-0.261833 -0.00436353 0)
(-0.265742 -0.00980622 0)
(-0.262779 -0.0161873 0)
(-0.250985 -0.0242625 0)
(-0.226291 -0.0348847 0)
(-0.186165 -0.0504113 0)
(-0.144221 -0.0751891 0)
(-0.150106 -0.108592 0)
(0.0546388 0.0355116 0)
(0.0157415 -0.0268917 0)
(0.0449436 -0.0232821 0)
(0.0693672 -0.0161772 0)
(0.0844518 -0.0103661 0)
(0.0916779 -0.00641783 0)
(0.0945162 -0.00433428 0)
(0.0955425 -0.00331172 0)
(0.0959879 -0.00272676 0)
(0.0961553 -0.00231531 0)
(0.0960309 -0.00195187 0)
(0.0955057 -0.00151165 0)
(0.0942487 -0.000757238 0)
(0.0914007 0.000848009 0)
(0.0851931 0.00407305 0)
(0.0736458 0.00778524 0)
(0.0599632 0.0116379 0)
(-0.00788303 0.0299994 0)
(0.258395 0.167395 0)
(-0.161236 0.0483941 0)
(-0.141606 0.04598 0)
(-0.174008 0.041615 0)
(-0.199371 0.0356701 0)
(-0.220094 0.0291346 0)
(-0.236129 0.0220673 0)
(-0.24739 0.0142409 0)
(-0.253577 0.00531108 0)
(-0.25391 -0.00513819 0)
(-0.247769 -0.0170723 0)
(-0.234075 -0.0308481 0)
(-0.214175 -0.0480848 0)
(-0.197606 -0.0699798 0)
(-0.1941 -0.0826678 0)
(-0.166487 -0.0425718 0)
(-0.105407 -0.0363985 0)
(-0.0983264 -0.0445056 0)
(0.109341 -0.0420635 0)
(0.064446 -0.0411791 0)
(0.0718938 -0.0323033 0)
(0.0858944 -0.0207618 0)
(0.0938237 -0.0105096 0)
(0.0960813 -0.0036515 0)
(0.09585 -0.000184964 0)
(0.095459 0.00126371 0)
(0.0954179 0.00190497 0)
(0.0954951 0.00227167 0)
(0.0955001 0.00258964 0)
(0.0953993 0.00313104 0)
(0.0951084 0.00441385 0)
(0.0938512 0.00773264 0)
(0.0882534 0.0167713 0)
(0.0744919 0.0253661 0)
(0.0631199 0.033006 0)
(-0.0518837 0.0636006 0)
(0.429972 0.253958 0)
(-0.194235 0.0847638 0)
(-0.112783 0.0784314 0)
(-0.148248 0.0669547 0)
(-0.170679 0.0555023 0)
(-0.188773 0.0437356 0)
(-0.202613 0.0313604 0)
(-0.212311 0.0180315 0)
(-0.217671 0.00342825 0)
(-0.218041 -0.0126026 0)
(-0.212796 -0.0303007 0)
(-0.201699 -0.0498977 0)
(-0.186063 -0.0715754 0)
(-0.169529 -0.0932362 0)
(-0.151157 -0.104597 0)
(-0.12031 -0.0931765 0)
(-0.0796004 -0.0949832 0)
(-0.0714817 -0.107651 0)
(0.0921388 -0.0881177 0)
(0.0625708 -0.0657524 0)
(0.074369 -0.0461631 0)
(0.0880116 -0.0293098 0)
(0.0948692 -0.0149817 0)
(0.0919835 -0.0120847 0)
(0.0877452 -0.00798659 0)
(0.0853697 -0.00579297 0)
(0.0846804 -0.00455864 0)
(0.0846632 -0.00379396 0)
(0.0849214 -0.00322365 0)
(0.0855736 -0.00259859 0)
(0.0873351 -0.00143917 0)
(0.0920222 0.00292357 0)
(0.0901883 0.0251162 0)
(0.0733979 0.0423878 0)
(0.0700955 0.0575455 0)
(-0.0898319 0.100981 0)
(0.578533 0.325846 0)
(-0.240104 0.121818 0)
(-0.0808419 0.109222 0)
(-0.121582 0.0898524 0)
(-0.139016 0.0740716 0)
(-0.153076 0.0586452 0)
(-0.163836 0.0427718 0)
(-0.171434 0.0258378 0)
(-0.175649 0.00723354 0)
(-0.175723 -0.013494 0)
(-0.171043 -0.0364381 0)
(-0.161484 -0.0614362 0)
(-0.147623 -0.0873702 0)
(-0.13065 -0.110315 0)
(-0.109696 -0.123225 0)
(-0.0822197 -0.124571 0)
(-0.0526122 -0.126408 0)
(-0.0334901 -0.123225 0)
(0.0162329 -0.0568254 0)
(0.0607557 -0.0930098 0)
(0.0684473 -0.0791885 0)
(0.0790842 -0.0588572 0)
(0.0915827 -0.0396413 0)
(0.102924 -0.0209898 0)
(0.115679 -0.0132739 0)
(0.126875 -0.00886632 0)
(0.132511 -0.00563646 0)
(0.133516 -0.00311537 0)
(0.130998 -0.000882069 0)
(0.125536 0.00129144 0)
(0.117007 0.0036715 0)
(0.104651 0.006722 0)
(0.0854164 0.0111455 0)
(0.0715545 0.0368172 0)
(0.0603045 0.0605625 0)
(0.0763237 0.0834446 0)
(-0.117271 0.137346 0)
(0.705706 0.383687 0)
(-0.287677 0.157017 0)
(-0.0477077 0.133784 0)
(-0.0963046 0.10692 0)
(-0.107756 0.0876005 0)
(-0.116789 0.0691863 0)
(-0.123577 0.0504709 0)
(-0.128236 0.0306222 0)
(-0.130596 0.00876636 0)
(-0.129791 -0.0157754 0)
(-0.125296 -0.0430373 0)
(-0.116678 -0.0726543 0)
(-0.103963 -0.10281 0)
(-0.0874985 -0.129085 0)
(-0.0675582 -0.145791 0)
(-0.0442227 -0.152278 0)
(-0.0203652 -0.152393 0)
(0.000173283 -0.143755 0)
(0.0307163 -0.115024 0)
(0.0569119 -0.109375 0)
(0.0705234 -0.0924621 0)
(0.0806822 -0.0713053 0)
(0.0907552 -0.0508657 0)
(0.100321 -0.03283 0)
(0.109448 -0.019439 0)
(0.116499 -0.0100443 0)
(0.119946 -0.00333489 0)
(0.120159 0.00192951 0)
(0.117752 0.00648136 0)
(0.113099 0.0108334 0)
(0.106234 0.015496 0)
(0.0970935 0.0211726 0)
(0.0851883 0.0291674 0)
(0.0736703 0.0471667 0)
(0.0632543 0.071225 0)
(0.094847 0.0994191 0)
(0.0172364 0.138545 0)
(0.0966207 0.182753 0)
(0.140552 0.147788 0)
(-0.224347 0.202803 0)
(0.810407 0.431984 0)
(-0.331312 0.190691 0)
(-0.0173299 0.150257 0)
(-0.0733842 0.117527 0)
(-0.0786115 0.0955207 0)
(-0.0822327 0.0749599 0)
(-0.0844848 0.0543663 0)
(-0.0855186 0.0327537 0)
(-0.085258 0.00890354 0)
(-0.0825774 -0.0183607 0)
(-0.0774089 -0.0489734 0)
(-0.0687832 -0.0824525 0)
(-0.0567941 -0.116464 0)
(-0.0417482 -0.146281 0)
(-0.0247733 -0.165984 0)
(-0.00639517 -0.174501 0)
(0.0119921 -0.172769 0)
(0.0279134 -0.161041 0)
(0.0460921 -0.139363 0)
(0.0625635 -0.122388 0)
(0.0732585 -0.102546 0)
(0.0809567 -0.0805062 0)
(0.0877299 -0.0591744 0)
(0.0939251 -0.0403036 0)
(0.0992755 -0.0251218 0)
(0.102987 -0.0137517 0)
(0.10461 -0.00504336 0)
(0.104193 0.00216242 0)
(0.102039 0.00863768 0)
(0.0984001 0.0148969 0)
(0.0934395 0.0214649 0)
(0.0873955 0.0289764 0)
(0.080541 0.038352 0)
(0.0748289 0.0527475 0)
(0.0696836 0.0727395 0)
(0.0918184 0.098513 0)
(0.0739167 0.107473 0)
(0.0906302 0.0484308 0)
(0.146285 -0.0356118 0)
(-0.325564 0.105656 0)
(0.879875 0.474698 0)
(-0.368628 0.220978 0)
(0.00370365 0.155574 0)
(-0.0526814 0.121584 0)
(-0.052231 0.0978642 0)
(-0.0510501 0.0758367 0)
(-0.0490423 0.0540657 0)
(-0.0465202 0.0315666 0)
(-0.0433219 0.00681351 0)
(-0.0373472 -0.0222478 0)
(-0.030264 -0.0553067 0)
(-0.0204791 -0.0918712 0)
(-0.00868342 -0.128823 0)
(0.00450401 -0.16118 0)
(0.017541 -0.18184 0)
(0.0303152 -0.190202 0)
(0.042119 -0.187243 0)
(0.0524293 -0.174455 0)
(0.0624112 -0.154113 0)
(0.0710052 -0.132463 0)
(0.0765511 -0.109451 0)
(0.080032 -0.0859571 0)
(0.0826495 -0.0637873 0)
(0.0849059 -0.0442899 0)
(0.0867593 -0.0281828 0)
(0.0878727 -0.0153714 0)
(0.0880175 -0.00508264 0)
(0.0870417 0.00359424 0)
(0.0851295 0.0113345 0)
(0.0824311 0.0186548 0)
(0.0791288 0.0260507 0)
(0.0755124 0.0340232 0)
(0.0720013 0.0431344 0)
(0.0699914 0.0546918 0)
(0.0689058 0.0691236 0)
(0.0820607 0.0882183 0)
(0.0853716 0.0918089 0)
(0.0908223 0.0549697 0)
(0.181034 0.0268067 0)
(-0.278663 0.15506 0)
(0.927922 0.517156 0)
(-0.383147 0.234186 0)
(0.0168843 0.132998 0)
(-0.0273441 0.116671 0)
(-0.0265742 0.0949341 0)
(-0.0227655 0.0724399 0)
(-0.017647 0.0501178 0)
(-0.0123624 0.027269 0)
(-0.00537429 0.00187118 0)
(0.00461674 -0.0307065 0)
(0.0143534 -0.0652726 0)
(0.0256522 -0.103247 0)
(0.0372727 -0.140746 0)
(0.0479113 -0.172023 0)
(0.0569619 -0.19224 0)
(0.0644203 -0.199769 0)
(0.0701217 -0.195394 0)
(0.0740704 -0.181235 0)
(0.0767765 -0.16017 0)
(0.0781527 -0.136184 0)
(0.0778138 -0.111175 0)
(0.0763338 -0.0866556 0)
(0.0745422 -0.0640979 0)
(0.0729626 -0.0444971 0)
(0.0717297 -0.0282244 0)
(0.0707019 -0.0149965 0)
(0.0696752 -0.00412291 0)
(0.0683555 0.00516118 0)
(0.0668484 0.0134262 0)
(0.0651298 0.0211484 0)
(0.0632873 0.0287452 0)
(0.0615201 0.0365617 0)
(0.0601555 0.0448832 0)
(0.0601071 0.0541852 0)
(0.0613171 0.0644792 0)
(0.070478 0.0774819 0)
(0.0807972 0.0811169 0)
(0.0813031 0.0621872 0)
(0.23863 0.0559368 0)
(-0.550984 0.233755 0)
(1.01128 0.506823 0)
(-0.137238 0.296352 0)
(0.0410834 0.161528 0)
(0.0406016 0.122089 0)
(0.0130821 0.0919681 0)
(0.00865832 0.0653493 0)
(0.0140933 0.0413703 0)
(0.0207353 0.0169594 0)
(0.0325754 -0.0110399 0)
(0.0440646 -0.042148 0)
(0.0559565 -0.0768685 0)
(0.0682322 -0.11454 0)
(0.0793412 -0.150952 0)
(0.0877913 -0.180397 0)
(0.0929514 -0.198445 0)
(0.0949479 -0.203668 0)
(0.0941985 -0.19709 0)
(0.0912549 -0.181107 0)
(0.086793 -0.158754 0)
(0.081261 -0.133348 0)
(0.0749492 -0.107328 0)
(0.0684565 -0.0825303 0)
(0.062505 -0.0603094 0)
(0.0576117 -0.0413853 0)
(0.0539606 -0.0258339 0)
(0.0514345 -0.0131569 0)
(0.0497499 -0.00259063 0)
(0.0485005 0.00654198 0)
(0.0476474 0.0147282 0)
(0.0469654 0.0223959 0)
(0.046406 0.0298686 0)
(0.0460227 0.0373503 0)
(0.0459683 0.0449215 0)
(0.0467467 0.0526178 0)
(0.0485063 0.0600851 0)
(0.0550301 0.0677933 0)
(0.0659699 0.0669307 0)
(0.0626117 0.0417376 0)
(0.291764 0.0718337 0)
(-0.751326 0.305391 0)
(0.779317 0.395713 0)
(0.000858573 0.31949 0)
(0.0934133 0.218908 0)
(0.11064 0.155156 0)
(0.0772153 0.106796 0)
(0.059838 0.0674992 0)
(0.0582635 0.035696 0)
(0.0624476 0.00633733 0)
(0.0739133 -0.023506 0)
(0.0855156 -0.0550861 0)
(0.0977309 -0.089735 0)
(0.10959 -0.126156 0)
(0.118926 -0.15986 0)
(0.123968 -0.185537 0)
(0.124129 -0.19963 0)
(0.119848 -0.201292 0)
(0.112085 -0.191859 0)
(0.101917 -0.173852 0)
(0.0903866 -0.150284 0)
(0.078334 -0.124189 0)
(0.0664502 -0.0981134 0)
(0.0554738 -0.0739891 0)
(0.0461363 -0.0530629 0)
(0.0389075 -0.0357702 0)
(0.0338769 -0.0218795 0)
(0.0307775 -0.0106065 0)
(0.0291242 -0.00105861 0)
(0.0284336 0.00736823 0)
(0.0284192 0.015102 0)
(0.0287471 0.0224976 0)
(0.0292686 0.0297781 0)
(0.0298857 0.0370519 0)
(0.0305018 0.0443003 0)
(0.0310873 0.0513708 0)
(0.031175 0.0577592 0)
(0.0318641 0.0632332 0)
(0.0196582 0.0635167 0)
(0.01886 0.0864499 0)
(0.0853254 0.168969 0)
(-0.6359 0.310082 0)
(0.617252 0.220781 0)
(0.00471564 0.298086 0)
(0.113072 0.241521 0)
(0.148353 0.17752 0)
(0.130931 0.123457 0)
(0.117916 0.0777592 0)
(0.115065 0.0387931 0)
(0.117256 0.0032807 0)
(0.123657 -0.0308359 0)
(0.13192 -0.0650851 0)
(0.141626 -0.100488 0)
(0.150494 -0.135242 0)
(0.155582 -0.16501 0)
(0.154967 -0.185497 0)
(0.148347 -0.194409 0)
(0.13663 -0.191756 0)
(0.121292 -0.179248 0)
(0.10384 -0.159425 0)
(0.0856469 -0.135177 0)
(0.0678261 -0.109297 0)
(0.0513336 -0.0842729 0)
(0.0370668 -0.0619939 0)
(0.0257894 -0.0435404 0)
(0.0177878 -0.0289537 0)
(0.0128201 -0.0175932 0)
(0.0101956 -0.00829984 0)
(0.00916997 -0.000132226 0)
(0.00927891 0.00737703 0)
(0.0100465 0.0145471 0)
(0.0112156 0.0216252 0)
(0.0126145 0.028763 0)
(0.0140453 0.03607 0)
(0.0151805 0.0435979 0)
(0.0155211 0.0513498 0)
(0.0142091 0.0591876 0)
(0.0105287 0.0681546 0)
(-0.0217957 0.0932229 0)
(-0.0154216 0.136822 0)
(0.0312491 0.186106 0)
(-0.547461 0.220011 0)
(0.570778 0.118383 0)
(-0.0202373 0.258588 0)
(0.113749 0.229858 0)
(0.165102 0.176019 0)
(0.166771 0.126122 0)
(0.164438 0.0810055 0)
(0.16544 0.0398443 0)
(0.168418 0.00147134 0)
(0.172416 -0.0355502 0)
(0.178037 -0.072016 0)
(0.184232 -0.107562 0)
(0.187914 -0.139456 0)
(0.186067 -0.163881 0)
(0.177324 -0.178068 0)
(0.162138 -0.181231 0)
(0.142053 -0.174246 0)
(0.119005 -0.159108 0)
(0.0947546 -0.138223 0)
(0.0708951 -0.114291 0)
(0.0486803 -0.089823 0)
(0.0293071 -0.0672192 0)
(0.0138406 -0.048258 0)
(0.00291618 -0.0336588 0)
(-0.00384685 -0.0226328 0)
(-0.00729426 -0.0142557 0)
(-0.00881121 -0.00694588 0)
(-0.00908248 -6.87411e-05 0)
(-0.00838138 0.00659585 0)
(-0.00712486 0.0132057 0)
(-0.00538702 0.0199129 0)
(-0.00329466 0.0268676 0)
(-0.0010323 0.0343079 0)
(0.000999193 0.0425272 0)
(0.00201645 0.0518569 0)
(0.00107673 0.0630957 0)
(-0.00356282 0.0811224 0)
(-0.034765 0.123585 0)
(-0.0288665 0.175996 0)
(-0.00283355 0.180302 0)
(-0.521698 0.101537 0)
(0.628505 0.05347 0)
(0.00944404 0.197244 0)
(0.11383 0.196946 0)
(0.175125 0.157912 0)
(0.191368 0.117631 0)
(0.198022 0.0771644 0)
(0.20337 0.0371055 0)
(0.208623 -0.00173467 0)
(0.213206 -0.0398965 0)
(0.217594 -0.07669 0)
(0.219458 -0.109949 0)
(0.21563 -0.136562 0)
(0.204234 -0.153998 0)
(0.185367 -0.161307 0)
(0.160641 -0.159055 0)
(0.132213 -0.148625 0)
(0.102318 -0.132054 0)
(0.0726704 -0.111404 0)
(0.0450481 -0.0891984 0)
(0.0207068 -0.0676599 0)
(0.00127864 -0.049156 0)
(-0.0121396 -0.0353723 0)
(-0.0197968 -0.0260417 0)
(-0.0238843 -0.0188654 0)
(-0.0257408 -0.0126121 0)
(-0.0263166 -0.00658387 0)
(-0.0260469 -0.000572836 0)
(-0.0250365 0.00544446 0)
(-0.023546 0.0115089 0)
(-0.0214756 0.0177352 0)
(-0.018856 0.0243156 0)
(-0.0157617 0.0316032 0)
(-0.0124394 0.0401519 0)
(-0.00954262 0.050891 0)
(-0.00798418 0.0655858 0)
(-0.00569706 0.0893466 0)
(-0.0198798 0.136282 0)
(-0.0175804 0.203692 0)
(0.0973017 0.199126 0)
(-0.498323 0.0322794 0)
(0.472061 0.0747114 0)
(-0.132036 0.137588 0)
(0.0941746 0.133337 0)
(0.172637 0.116808 0)
(0.203733 0.0952948 0)
(0.21801 0.0642639 0)
(0.228019 0.0281608 0)
(0.237168 -0.00928304 0)
(0.243651 -0.0456477 0)
(0.245244 -0.078494 0)
(0.23932 -0.10517 0)
(0.224532 -0.123678 0)
(0.201409 -0.133236 0)
(0.171859 -0.134327 0)
(0.138439 -0.128199 0)
(0.103416 -0.116106 0)
(0.0690786 -0.0998798 0)
(0.0366225 -0.0811188 0)
(0.00845611 -0.0623572 0)
(-0.0145102 -0.0456937 0)
(-0.0287316 -0.0347258 0)
(-0.0371465 -0.0273611 0)
(-0.0415752 -0.0218726 0)
(-0.0436813 -0.0169434 0)
(-0.0443754 -0.0120085 0)
(-0.0442118 -0.00682423 0)
(-0.0434784 -0.0014104 0)
(-0.0422186 0.00409783 0)
(-0.0406359 0.00961281 0)
(-0.0384409 0.01522 0)
(-0.0355341 0.0211542 0)
(-0.0318318 0.0278447 0)
(-0.0273556 0.0360165 0)
(-0.022452 0.0469823 0)
(-0.0176836 0.0631201 0)
(-0.0095156 0.0881131 0)
(-0.00295509 0.130211 0)
(-0.000646814 0.195496 0)
(0.157476 0.198603 0)
(-0.363778 0.089646 0)
(0.723938 0.134396 0)
(0.0818229 0.115209 0)
(0.149639 0.0992159 0)
(0.222249 0.0804965 0)
(0.243884 0.0698883 0)
(0.248673 0.0475208 0)
(0.255025 0.0172661 0)
(0.261201 -0.015107 0)
(0.260307 -0.04514 0)
(0.249892 -0.0698671 0)
(0.229729 -0.0876056 0)
(0.2014 -0.0979511 0)
(0.167273 -0.101279 0)
(0.129859 -0.0986008 0)
(0.0916133 -0.0911675 0)
(0.0539334 -0.0796346 0)
(0.0194883 -0.0656334 0)
(-0.0121726 -0.0503333 0)
(-0.0346627 -0.0386683 0)
(-0.0495463 -0.0308862 0)
(-0.0582268 -0.0261954 0)
(-0.0630484 -0.0228093 0)
(-0.0654595 -0.0196893 0)
(-0.0663558 -0.0162273 0)
(-0.0662243 -0.0122182 0)
(-0.0654072 -0.00763721 0)
(-0.064157 -0.00260799 0)
(-0.0625474 0.00260627 0)
(-0.060954 0.00770227 0)
(-0.0589638 0.0126728 0)
(-0.0563653 0.0177799 0)
(-0.0530124 0.0234909 0)
(-0.0487864 0.0306851 0)
(-0.0436377 0.0409654 0)
(-0.0373027 0.0564241 0)
(-0.0267266 0.0782969 0)
(-0.00847948 0.108073 0)
(0.00652136 0.157444 0)
(0.178992 0.174374 0)
(-0.327274 0.150067 0)
(0.191862 0.0880245 0)
(0.225658 0.0998206 0)
(0.246388 0.0701361 0)
(0.242454 0.0396744 0)
(0.239686 0.0118453 0)
(0.234684 -0.0132531 0)
(0.220002 -0.0337455 0)
(0.196376 -0.0488095 0)
(0.166156 -0.0584336 0)
(0.131767 -0.063127 0)
(0.0949813 -0.0632619 0)
(0.0576518 -0.0595544 0)
(0.0216908 -0.0528611 0)
(-0.0136579 -0.0433145 0)
(-0.0413876 -0.0343548 0)
(-0.0622713 -0.0274628 0)
(-0.0761797 -0.0235997 0)
(-0.0848904 -0.0216945 0)
(-0.0901184 -0.020709 0)
(-0.0931923 -0.0196377 0)
(-0.0947773 -0.0180351 0)
(-0.0952184 -0.0156929 0)
(-0.0947372 -0.0125344 0)
(-0.093559 -0.00856584 0)
(-0.0919414 -0.00389997 0)
(-0.0900163 0.00117218 0)
(-0.0882511 0.00616006 0)
(-0.086744 0.0108462 0)
(-0.0851348 0.0154577 0)
(-0.0833206 0.0205055 0)
(-0.080975 0.0268295 0)
(-0.0774551 0.0355511 0)
(-0.0719781 0.0474879 0)
(-0.062151 0.0618247 0)
(-0.0417611 0.0758458 0)
(-0.0109445 0.0947977 0)
(0.182387 0.140744 0)
(-0.387275 0.216858 0)
(0.451118 0.209693 0)
(0.206368 0.178799 0)
(0.152789 0.118801 0)
(0.139677 0.0638908 0)
(0.128293 0.0255854 0)
(0.114304 0.00141246 0)
(0.0988827 -0.0133488 0)
(0.0779128 -0.0224793 0)
(0.0533602 -0.0279865 0)
(0.0263284 -0.030246 0)
(-0.00344377 -0.029166 0)
(-0.0327942 -0.0256606 0)
(-0.0591012 -0.0211503 0)
(-0.0813159 -0.0170205 0)
(-0.0978597 -0.0148136 0)
(-0.109336 -0.0143495 0)
(-0.116967 -0.0152339 0)
(-0.122224 -0.0164624 0)
(-0.125974 -0.0174462 0)
(-0.128595 -0.0178379 0)
(-0.130201 -0.0174441 0)
(-0.130838 -0.0161156 0)
(-0.130566 -0.0137383 0)
(-0.129508 -0.0102563 0)
(-0.127857 -0.00572489 0)
(-0.125799 -0.000425989 0)
(-0.123481 0.00494649 0)
(-0.121823 0.00980457 0)
(-0.120549 0.0144284 0)
(-0.119456 0.0194397 0)
(-0.118223 0.0255448 0)
(-0.11649 0.0333481 0)
(-0.114643 0.0430217 0)
(-0.113204 0.0537167 0)
(-0.106575 0.064072 0)
(-0.0756974 0.0829177 0)
(-0.023438 0.14693 0)
(-0.512936 0.240835 0)
(0.361078 -0.415402 0)
(-0.346247 -0.513063 0)
(-0.218675 -0.0276898 0)
(-0.0930228 0.111009 0)
(-0.0537078 0.0925957 0)
(-0.0314235 0.0544583 0)
(-0.0266439 0.0281782 0)
(-0.0316145 0.0113511 0)
(-0.0402451 0.000395828 0)
(-0.0505793 -0.00679223 0)
(-0.0641082 -0.011056 0)
(-0.0792756 -0.0132839 0)
(-0.095113 -0.0146423 0)
(-0.110622 -0.0163567 0)
(-0.124595 -0.0189368 0)
(-0.136071 -0.0219243 0)
(-0.144516 -0.0247313 0)
(-0.15053 -0.0268377 0)
(-0.155155 -0.0282948 0)
(-0.159071 -0.0291887 0)
(-0.162454 -0.0295479 0)
(-0.165227 -0.0293282 0)
(-0.167256 -0.0284615 0)
(-0.168451 -0.0268704 0)
(-0.168806 -0.0244786 0)
(-0.168397 -0.021224 0)
(-0.16738 -0.0170684 0)
(-0.165916 -0.0119976 0)
(-0.163963 -0.00598727 0)
(-0.161826 0.000821694 0)
(-0.159359 0.00751435 0)
(-0.156234 0.0142479 0)
(-0.152087 0.0216523 0)
(-0.146573 0.0303208 0)
(-0.140352 0.0404191 0)
(-0.134928 0.0518661 0)
(-0.123599 0.0663278 0)
(-0.081718 0.0895045 0)
(-0.0818493 0.113816 0)
(-0.601369 0.0982822 0)
(0.123693 -0.185454 0)
(-0.38813 -0.297777 0)
(-0.343443 -0.0964289 0)
(-0.265012 0.0518378 0)
(-0.211348 0.0837478 0)
(-0.179279 0.0747022 0)
(-0.163099 0.0611405 0)
(-0.157189 0.0511351 0)
(-0.157288 0.0460032 0)
(-0.160518 0.0455633 0)
(-0.164863 0.0489776 0)
(-0.169144 0.0553017 0)
(-0.172614 0.063253 0)
(-0.174887 0.0708347 0)
(-0.176419 0.0762567 0)
(-0.1778 0.0780389 0)
(-0.179635 0.0756603 0)
(-0.181996 0.0715254 0)
(-0.184816 0.0668419 0)
(-0.187985 0.0619278 0)
(-0.191385 0.0568709 0)
(-0.194897 0.0518184 0)
(-0.198398 0.0470558 0)
(-0.201744 0.0429987 0)
(-0.20474 0.0401039 0)
(-0.207123 0.0387193 0)
(-0.208598 0.0389186 0)
(-0.208907 0.0403465 0)
(-0.207762 0.0419609 0)
(-0.205099 0.0418525 0)
(-0.20106 0.0406964 0)
(-0.195107 0.0396027 0)
(-0.186711 0.0391462 0)
(-0.175391 0.0396981 0)
(-0.161076 0.0410837 0)
(-0.142425 0.042714 0)
(-0.109802 0.0467076 0)
(-0.0445559 0.0615942 0)
(0.120535 0.0920617 0)
(-0.355268 0.061544 0)
(1.14772 -0.0112625 0)
(-0.29609 -0.323553 0)
(-0.353189 -0.234018 0)
(-0.352643 -0.149624 0)
(-0.328888 -0.108244 0)
(-0.297302 -0.0997725 0)
(-0.270173 -0.102144 0)
(-0.250634 -0.108143 0)
(-0.237761 -0.116197 0)
(-0.229511 -0.126205 0)
(-0.223956 -0.138306 0)
(-0.219608 -0.152267 0)
(-0.215528 -0.167043 0)
(-0.211477 -0.180808 0)
(-0.207813 -0.191614 0)
(-0.20526 -0.198307 0)
(-0.204579 -0.200454 0)
(-0.206247 -0.20002 0)
(-0.210157 -0.197907 0)
(-0.216085 -0.194343 0)
(-0.223812 -0.189275 0)
(-0.233076 -0.182616 0)
(-0.24349 -0.174432 0)
(-0.254491 -0.165032 0)
(-0.265332 -0.154926 0)
(-0.275118 -0.144666 0)
(-0.282878 -0.134635 0)
(-0.287693 -0.124889 0)
(-0.2889 -0.115138 0)
(-0.286276 -0.10498 0)
(-0.280706 -0.0955882 0)
(-0.272878 -0.087323 0)
(-0.262791 -0.0794 0)
(-0.250514 -0.0711903 0)
(-0.236618 -0.0626437 0)
(-0.219577 -0.0539441 0)
(-0.188203 -0.0432141 0)
(-0.128922 -0.0223936 0)
(-0.111638 0.0194279 0)
(-0.578603 0.056319 0)
)
;

boundaryField
{
    floor
    {
        type            noSlip;
    }
    ceiling
    {
        type            noSlip;
    }
    sWall
    {
        type            noSlip;
    }
    nWall
    {
        type            noSlip;
    }
    sideWalls
    {
        type            empty;
    }
    glass1
    {
        type            noSlip;
    }
    glass2
    {
        type            noSlip;
    }
    sun
    {
        type            noSlip;
    }
    Table_master
    {
        type            noSlip;
    }
    Table_slave
    {
        type            noSlip;
    }
    inlet
    {
        type            fixedValue;
        value           uniform (0.5 0 0);
    }
    outlet
    {
        type            zeroGradient;
    }
}


// ************************************************************************* //
