/*--------------------------------*- C++ -*----------------------------------*\
  =========                 |
  \\      /  F ield         | OpenFOAM: The Open Source CFD Toolbox
   \\    /   O peration     | Website:  https://openfoam.org
    \\  /    A nd           | Version:  6
     \\/     M anipulation  |
\*---------------------------------------------------------------------------*/
FoamFile
{
    version     2.0;
    format      ascii;
    class       volScalarField;
    location    "4540";
    object      k;
}
// * * * * * * * * * * * * * * * * * * * * * * * * * * * * * * * * * * * * * //

dimensions      [0 2 -2 0 0 0 0];

internalField   nonuniform List<scalar> 
458
(
0.00226773
0.002686
0.00280874
0.00308392
0.00334874
0.00360958
0.00388042
0.00416521
0.00440551
0.00455992
0.00457751
0.00441291
0.00402237
0.00325523
0.00187334
0.000457622
0.000628912
0.0008084
0.000878882
0.000851587
0.000745752
0.000636835
0.000546664
0.000474102
0.000415281
0.000367105
0.000327362
0.000294041
0.000265249
0.000239309
0.000214605
0.000200564
0.00016941
0.00412326
0.00755286
0.00415031
0.00437424
0.00471604
0.0051352
0.00563202
0.00619622
0.00680011
0.00731246
0.00758781
0.0075306
0.00712352
0.00635467
0.005139
0.00326398
0.00224656
0.0014955
0.00045027
0.000973145
0.00130321
0.0014583
0.00147264
0.00125931
0.0010243
0.000833969
0.000688704
0.000577292
0.00049065
0.000421509
0.000364693
0.000317431
0.000283503
0.000264379
0.000493921
0.000292787
0.0060951
0.0136498
0.00491135
0.00472482
0.00494136
0.00528559
0.00575023
0.00634015
0.00699288
0.00754945
0.00789137
0.00794865
0.00769231
0.00705992
0.00603647
0.00488793
0.00391818
0.00208589
0.00106833
0.00139967
0.00160351
0.00173029
0.0017227
0.00134706
0.0010325
0.000802565
0.000637547
0.000518213
0.000430568
0.000365301
0.000316444
0.000280865
0.000262111
0.000265438
0.000780411
0.000408878
0.00835993
0.0222367
0.0059268
0.00470725
0.0047467
0.0050166
0.00547373
0.00616801
0.00689162
0.00746201
0.00783256
0.00795226
0.00774703
0.00714469
0.00628605
0.0054349
0.0046316
0.00349987
0.00276851
0.00250663
0.00237381
0.00233784
0.00228921
0.0021515
0.00170913
0.00143608
0.00126369
0.00114352
0.00104658
0.000954632
0.000871121
0.000787032
0.000694144
0.000530227
0.000422746
0.00113249
0.000542359
0.0110412
0.0339576
0.00842364
0.00474991
0.00448305
0.00470824
0.00529961
0.00635505
0.00718493
0.00773939
0.00809474
0.00819674
0.0078999
0.0071821
0.00621572
0.00530901
0.0045795
0.00397828
0.00379452
0.00347936
0.00325239
0.00307051
0.00285905
0.00259012
0.00230259
0.00210654
0.00198652
0.00189183
0.00178979
0.00166103
0.00149184
0.0012991
0.00109385
0.000865695
0.000664776
0.000922216
0.00106384
0.000969467
0.00108637
0.00128348
0.0143256
0.0466888
0.0149489
0.0059227
0.0047422
0.00478307
0.00570711
0.00726623
0.00803143
0.0084738
0.00873794
0.00874692
0.00831947
0.00737802
0.0061238
0.0049656
0.00418311
0.00384114
0.00381352
0.00382258
0.00373139
0.00350826
0.00318871
0.00283437
0.00254739
0.00239497
0.00232137
0.00226278
0.00218477
0.00206505
0.00187828
0.0016488
0.00140027
0.00114674
0.00093555
0.000900656
0.00103002
0.00105444
0.00165137
0.00138073
0.0179784
0.0550445
0.0270743
0.0123568
0.00830659
0.0074108
0.00850329
0.00920842
0.00948485
0.00964459
0.00972866
0.00958249
0.00894609
0.00770826
0.00610918
0.00469799
0.00388605
0.00373509
0.00389755
0.00398205
0.003853
0.00354982
0.00317041
0.00281138
0.002567
0.00246817
0.00245133
0.00245665
0.00245458
0.00242417
0.00233564
0.0021469
0.00191031
0.00165879
0.00145713
0.00136452
0.0014509
0.00168145
0.00223389
0.0019488
0.018942
0.0568512
0.0383026
0.0271706
0.019741
0.0158798
0.0137247
0.0122881
0.0115359
0.0112118
0.0110092
0.0106094
0.00964613
0.00799426
0.00597367
0.00439184
0.00367695
0.00365496
0.00377945
0.0037498
0.0035165
0.00316979
0.00281983
0.00255033
0.00240793
0.00238367
0.0024313
0.00251747
0.0026305
0.00276742
0.00292573
0.0030669
0.00310916
0.003139
0.00329218
0.00386929
0.00511986
0.00681618
0.0128318
0.00467701
0.018204
0.026467
0.0243623
0.0217106
0.0188863
0.0164643
0.0146538
0.0135901
0.0130861
0.012767
0.0123561
0.0115953
0.0100706
0.00776826
0.00515861
0.00385703
0.00340204
0.00330908
0.00325256
0.0030908
0.00282303
0.00252744
0.00228241
0.00213418
0.00208889
0.00212324
0.00220959
0.00233308
0.00249007
0.0026817
0.00290935
0.00317117
0.00348968
0.0039011
0.00444815
0.00509779
0.0056969
0.006069
0.00624798
0.00408112
0.00718416
0.0110953
0.0135431
0.0147731
0.0154366
0.015707
0.0153762
0.0144498
0.0132102
0.0115849
0.00880987
0.00585902
0.00403631
0.00322546
0.00288131
0.00270022
0.00252793
0.00231818
0.00209088
0.00188811
0.00175207
0.00169317
0.00169793
0.00174775
0.00182983
0.0019393
0.00207753
0.00225115
0.00247287
0.00276577
0.00313121
0.00356696
0.00405086
0.00449027
0.00471237
0.00457255
0.00410648
0.00264218
0.00805113
0.0194682
0.0216064
0.0214963
0.0207238
0.0184732
0.0153357
0.0120142
0.00883166
0.00623503
0.00435091
0.0032638
0.00271621
0.00241274
0.00221107
0.00203305
0.00184828
0.00166528
0.00150956
0.00139915
0.00133841
0.00132646
0.00135521
0.00141897
0.00151613
0.00164811
0.00181816
0.00203059
0.00229583
0.00262418
0.00302419
0.00349659
0.00401511
0.00451197
0.00481663
0.00510124
0.00428706
0.00271112
0.00890485
0.00935033
0.0097646
0.0120868
0.0107996
0.00848259
0.00603736
0.00437006
0.00348191
0.00273144
0.00214583
0.00173668
0.00142391
0.00120745
0.00106739
0.000970599
0.000896076
0.00083433
0.00078501
0.000752582
0.000740666
0.000749619
0.000776471
0.000816801
0.000869221
0.000933451
0.0010101
0.00110105
0.00120921
0.00134002
0.00149693
0.00168191
0.0018993
0.00215406
0.00245076
0.00283159
0.00300694
0.00288507
0.002496
0.00213495
)
;

boundaryField
{
    floor
    {
        type            kqRWallFunction;
        value           nonuniform List<scalar> 
36
(
0.00187334
0.000457622
0.000628912
0.0008084
0.000878882
0.000851587
0.000745752
0.000636835
0.000546664
0.000474102
0.000415281
0.000367105
0.000327362
0.000294041
0.000265249
0.000239309
0.000214605
0.000200564
0.00016941
0.00016941
0.000292787
0.000408878
0.000542359
0.000969467
0.00108637
0.00128348
0.00187334
0.00326398
0.00224656
0.0014955
0.000457622
0.0014955
0.00045027
0.00208589
0.00106833
0.00276851
)
;
    }
    ceiling
    {
        type            kqRWallFunction;
        value           nonuniform List<scalar> 
43
(
0.00890485
0.00935033
0.0097646
0.0120868
0.0107996
0.00848259
0.00603736
0.00437006
0.00348191
0.00273144
0.00214583
0.00173668
0.00142391
0.00120745
0.00106739
0.000970599
0.000896076
0.00083433
0.00078501
0.000752582
0.000740666
0.000749619
0.000776471
0.000816801
0.000869221
0.000933451
0.0010101
0.00110105
0.00120921
0.00134002
0.00149693
0.00168191
0.0018993
0.00215406
0.00245076
0.00283159
0.00300694
0.00288507
0.002496
0.00213495
0.018204
0.026467
0.00805113
)
;
    }
    sWall
    {
        type            kqRWallFunction;
        value           uniform 0.00890485;
    }
    nWall
    {
        type            kqRWallFunction;
        value           nonuniform List<scalar> 6(0.00128348 0.00138073 0.0019488 0.00264218 0.00271112 0.00213495);
    }
    sideWalls
    {
        type            empty;
    }
    glass1
    {
        type            kqRWallFunction;
        value           nonuniform List<scalar> 9(0.00226773 0.00412326 0.0060951 0.00835993 0.0110412 0.0143256 0.0179784 0.018942 0.018204);
    }
    glass2
    {
        type            kqRWallFunction;
        value           nonuniform List<scalar> 2(0.00467701 0.00408112);
    }
    sun
    {
        type            kqRWallFunction;
        value           nonuniform List<scalar> 
14
(
0.00226773
0.002686
0.00280874
0.00308392
0.00334874
0.00360958
0.00388042
0.00416521
0.00440551
0.00455992
0.00457751
0.00441291
0.00402237
0.00325523
)
;
    }
    Table_master
    {
        type            kqRWallFunction;
        value           nonuniform List<scalar> 9(0.00134706 0.0010325 0.000802565 0.000637547 0.000518213 0.000430568 0.000365301 0.000316444 0.000280865);
    }
    Table_slave
    {
        type            kqRWallFunction;
        value           nonuniform List<scalar> 9(0.00170913 0.00143608 0.00126369 0.00114352 0.00104658 0.000954632 0.000871121 0.000787032 0.000694144);
    }
    inlet
    {
        type            turbulentIntensityKineticEnergyInlet;
        intensity       0.05;
        value           uniform 0.000937501;
    }
    outlet
    {
        type            zeroGradient;
    }
}


// ************************************************************************* //
