/*--------------------------------*- C++ -*----------------------------------*\
  =========                 |
  \\      /  F ield         | OpenFOAM: The Open Source CFD Toolbox
   \\    /   O peration     | Website:  https://openfoam.org
    \\  /    A nd           | Version:  6
     \\/     M anipulation  |
\*---------------------------------------------------------------------------*/
FoamFile
{
    version     2.0;
    format      ascii;
    class       volScalarField;
    location    "100";
    object      alphat;
}
// * * * * * * * * * * * * * * * * * * * * * * * * * * * * * * * * * * * * * //

dimensions      [1 -1 -1 0 0 0 0];

internalField   nonuniform List<scalar> 
459
(
0.000793207
0.000827494
0.000777966
0.000807732
0.000839031
0.000868721
0.000897113
0.000925056
0.000953814
0.000981295
0.00100383
0.00101965
0.00102704
0.00102428
0.00100682
0.000354971
0.000393258
0.000389135
0.00036252
0.00031777
0.000263877
0.000223683
0.000201364
0.000193837
0.000202
0.000229511
0.000277177
0.000339344
0.000407645
0.000476565
0.00054886
0.000565663
0.000536806
0.000412079
0.00129826
0.00247062
0.0020383
0.0026258
0.00289636
0.00315865
0.00341812
0.00365475
0.0038391
0.00397306
0.00404208
0.00400178
0.00377841
0.00324971
0.00227393
0.00107652
0.000706408
0.000546376
0.00131993
0.00123898
0.000976049
0.000689143
0.000479505
0.000394688
0.000377607
0.00036701
0.000352009
0.00034871
0.00039312
0.000520105
0.000750928
0.00110526
0.00156266
0.00184581
0.0018736
0.000543022
0.00174636
0.00391808
0.00220869
0.00374838
0.00434429
0.00465877
0.00491473
0.00512605
0.00528782
0.0054074
0.0054754
0.00544736
0.00524271
0.00473337
0.00377478
0.00240726
0.00109821
0.000693129
0.00174438
0.00142508
0.00100472
0.000669358
0.000413983
0.000235034
0.000207256
0.00019751
0.000196538
0.00020551
0.000229145
0.000276698
0.000367199
0.000559312
0.00172562
0.0021761
0.00220109
0.000679443
0.00218188
0.00580778
0.00245858
0.00390441
0.00501722
0.00537241
0.00559103
0.00576649
0.00591476
0.00604545
0.00618843
0.00631866
0.00636509
0.00619484
0.00560276
0.00436619
0.00250885
0.00101242
0.00191192
0.0023618
0.00192084
0.00152462
0.00122515
0.000986945
0.000780615
0.000794909
0.000814535
0.000838475
0.000866345
0.000897399
0.00093024
0.000965137
0.000991694
0.00186491
0.00245846
0.00255603
0.000849118
0.00260048
0.00798641
0.00342828
0.0035505
0.00502979
0.00552451
0.00574091
0.00588827
0.00601072
0.00613311
0.00635354
0.0066755
0.00706351
0.0074377
0.00766722
0.00761387
0.00718231
0.00635582
0.00544388
0.00486237
0.00445914
0.00422078
0.00405946
0.00386863
0.0037134
0.00364727
0.00362955
0.0036552
0.00371677
0.00380022
0.00388161
0.00392474
0.00383764
0.00364377
0.00342545
0.00330293
0.00209403
0.000907375
0.000828738
0.00072841
0.00300571
0.010104
0.00563956
0.00374157
0.00435972
0.00502329
0.00541109
0.00564088
0.0057493
0.00581355
0.00603667
0.00641733
0.00695646
0.00761751
0.00826881
0.00874124
0.00886759
0.00855428
0.007928
0.0072459
0.00671149
0.00630459
0.00595071
0.005624
0.00532693
0.00506968
0.00486443
0.00471917
0.00463015
0.00458036
0.00453543
0.00444574
0.00423778
0.00383779
0.00343818
0.00327909
0.00315288
0.00258267
0.00228426
0.000860165
0.00337154
0.0116654
0.00891137
0.00586432
0.00441578
0.004288
0.00472707
0.00519209
0.00539987
0.00546511
0.00563113
0.0059125
0.00636103
0.00703131
0.00781919
0.00854734
0.00901761
0.00909917
0.0088314
0.00839436
0.00795514
0.00755116
0.00716674
0.00678652
0.00640346
0.00602624
0.0056799
0.00539054
0.00517012
0.00501178
0.00487278
0.00468658
0.00436711
0.00386038
0.00330063
0.00295509
0.00291023
0.00281184
0.00274349
0.000953691
0.00343297
0.011109
0.0096982
0.00857116
0.00681033
0.00565275
0.00525602
0.00527659
0.00536238
0.00538481
0.00543502
0.00556633
0.00582565
0.00625884
0.00686762
0.00756764
0.00818835
0.00856029
0.00863255
0.00848987
0.0082506
0.00797871
0.00769208
0.00738783
0.0070598
0.00670984
0.00635783
0.00603455
0.00576043
0.00555403
0.00537428
0.00514574
0.00476049
0.00411579
0.00330516
0.00262053
0.00222477
0.00200303
0.00180705
0.000988845
0.00331405
0.00389061
0.00618423
0.00683667
0.0066698
0.00620685
0.00578935
0.00550808
0.0053337
0.0052408
0.0052344
0.00531629
0.00549431
0.00577461
0.0061568
0.00662108
0.00710509
0.00751082
0.00776356
0.00785734
0.00782794
0.00772117
0.00757091
0.00739523
0.00720011
0.00698358
0.00675144
0.00652394
0.00632165
0.00615091
0.00599989
0.00581721
0.00552002
0.0049343
0.00401777
0.00304988
0.00238524
0.00202402
0.00190117
0.00149291
0.0113541
0.0129043
0.00897538
0.0074713
0.00663006
0.00609724
0.00575096
0.00553471
0.00544067
0.00546795
0.00559348
0.00578786
0.0060291
0.00630409
0.00659439
0.00687098
0.00710092
0.00726102
0.00733588
0.00734668
0.00731916
0.00727205
0.00721501
0.00714426
0.00705365
0.00695027
0.00683651
0.00671508
0.0065972
0.00650026
0.00645725
0.00652376
0.00664768
0.00657692
0.00596157
0.00502907
0.00438966
0.00171611
0.00512452
0.0111867
0.00890934
0.00757279
0.00676465
0.00625114
0.00595313
0.0058446
0.00590386
0.00607461
0.0063226
0.00660797
0.00689037
0.00713815
0.00731643
0.00741671
0.00745803
0.00746529
0.00745833
0.00745088
0.00744884
0.00745493
0.00747158
0.00750149
0.00754439
0.00759435
0.00762611
0.00761829
0.0075776
0.00750364
0.00739557
0.00727252
0.00715266
0.00697268
0.00653397
0.00581264
0.00523879
0.00190431
0.00199647
0.00261546
0.00385082
0.00326106
0.00306331
0.00283886
0.00255761
0.00231323
0.00211328
0.00195403
0.00183428
0.00175774
0.00171718
0.00170399
0.00170909
0.00172347
0.00174185
0.00175809
0.00176777
0.00177049
0.00176831
0.00176321
0.0017572
0.00175181
0.001748
0.00174646
0.0017475
0.00175059
0.00175569
0.00176333
0.00177015
0.00177262
0.00176624
0.00174843
0.0017216
0.00168615
0.00163395
0.00156331
0.00152369
0.00137503
)
;

boundaryField
{
    floor
    {
        type            compressible::alphatWallFunction;
        Prt             0.85;
        value           nonuniform List<scalar> 
29
(
0.000143425
4.67034e-05
5.28098e-05
5.21684e-05
4.79477e-05
4.07441e-05
3.18715e-05
2.50886e-05
2.12455e-05
1.99263e-05
2.1321e-05
2.60091e-05
3.39774e-05
4.41152e-05
5.49831e-05
6.5715e-05
7.67599e-05
7.93138e-05
7.49615e-05
5.57305e-05
5.57297e-05
7.59105e-05
9.62926e-05
0.000120979
0.000143424
4.67027e-05
7.6476e-05
9.83837e-05
0.000144222
)
;
    }
    ceiling
    {
        type            compressible::alphatWallFunction;
        Prt             0.85;
        value           nonuniform List<scalar> 
43
(
0.000277017
0.000356434
0.000509461
0.000437171
0.000412651
0.000384598
0.000349108
0.000317932
0.000292162
0.00027145
0.000255753
0.000245662
0.000240296
0.000238547
0.000239223
0.000241128
0.000243559
0.000245706
0.000246984
0.000247342
0.000247054
0.000246379
0.000245585
0.000244872
0.000244369
0.000244165
0.000244302
0.00024471
0.000245386
0.000246394
0.000247289
0.000247608
0.000246753
0.000244387
0.000240827
0.000236124
0.00022918
0.000219748
0.000214439
0.000194372
0.000443828
0.000514435
0.000662064
)
;
    }
    sWall
    {
        type            compressible::alphatWallFunction;
        Prt             0.85;
        value           uniform 0.00027604;
    }
    nWall
    {
        type            compressible::alphatWallFunction;
        Prt             0.85;
        value           nonuniform List<scalar> 6(0.00010336 0.000122436 0.000135772 0.000239781 0.000264611 0.000194098);
    }
    sideWalls
    {
        type            empty;
    }
    glass1
    {
        type            compressible::alphatWallFunction;
        Prt             0.85;
        value           nonuniform List<scalar> 9(0.000110413 0.0001804 0.000240018 0.000296456 0.000349634 0.000400304 0.000445472 0.000453104 0.000438664);
    }
    glass2
    {
        type            compressible::alphatWallFunction;
        Prt             0.85;
        value           nonuniform List<scalar> 2(0.000140405 0.000209478);
    }
    sun
    {
        type            compressible::alphatWallFunction;
        Prt             0.85;
        value           nonuniform List<scalar> 
14
(
0.000112967
0.000117905
0.000110746
0.000115055
0.000119567
0.000123827
0.000127885
0.000131865
0.000135945
0.000139831
0.000143007
0.000145232
0.000146269
0.000145881
)
;
    }
    heatsource1
    {
        type            compressible::alphatWallFunction;
        Prt             0.85;
        value           nonuniform List<scalar> 3(0.000129275 0.000118018 0.000103467);
    }
    heatsource2
    {
        type            compressible::alphatWallFunction;
        Prt             0.85;
        value           nonuniform List<scalar> 4(0.000153152 0.00010026 0.000100259 0.000156178);
    }
    Table_master
    {
        type            compressible::alphatWallFunction;
        Prt             0.85;
        value           nonuniform List<scalar> 9(2.69926e-05 2.22414e-05 2.05505e-05 2.03742e-05 2.19155e-05 2.59448e-05 3.38961e-05 4.85618e-05 7.8289e-05);
    }
    Table_slave
    {
        type            compressible::alphatWallFunction;
        Prt             0.85;
        value           nonuniform List<scalar> 9(0.0001111 0.000113168 0.000116003 0.000119449 0.000123445 0.000127878 0.000132546 0.000137485 0.000141219);
    }
    inlet
    {
        type            fixedValue;
        value           uniform 1.94e-05;
    }
    outlet
    {
        type            zeroGradient;
    }
}


// ************************************************************************* //
