/*--------------------------------*- C++ -*----------------------------------*\
  =========                 |
  \\      /  F ield         | OpenFOAM: The Open Source CFD Toolbox
   \\    /   O peration     | Website:  https://openfoam.org
    \\  /    A nd           | Version:  6
     \\/     M anipulation  |
\*---------------------------------------------------------------------------*/
FoamFile
{
    version     2.0;
    format      ascii;
    class       volScalarField;
    location    "100";
    object      epsilon;
}
// * * * * * * * * * * * * * * * * * * * * * * * * * * * * * * * * * * * * * //

dimensions      [0 2 -3 0 0 0 0];

internalField   nonuniform List<scalar> 
459
(
0.000116131
0.000131561
0.000109319
0.000122357
0.000137142
0.000152224
0.000167643
0.000183801
0.00020148
0.000219397
0.000234848
0.00024611
0.000251473
0.000249423
0.000236846
1.03628e-05
1.41082e-05
1.36792e-05
1.10686e-05
7.45866e-06
4.2693e-06
2.59791e-06
1.89284e-06
1.68558e-06
1.9033e-06
2.78583e-06
4.90327e-06
9.00255e-06
1.56212e-05
2.49809e-05
3.81833e-05
4.18297e-05
3.57701e-05
1.61875e-05
0.000510069
0.00105837
0.000129937
9.23762e-05
9.51231e-05
0.000101012
0.000108081
0.000116872
0.000128267
0.000142107
0.000157203
0.000172769
0.000187642
0.000200442
0.000215941
0.000289476
8.17596e-05
3.78385e-05
2.58934e-05
1.99995e-05
1.36066e-05
8.20337e-06
4.34364e-06
2.22516e-06
1.586e-06
1.39608e-06
1.54313e-06
2.19533e-06
3.87089e-06
7.63686e-06
1.52696e-05
3.00872e-05
5.78438e-05
5.65967e-05
5.92758e-05
3.70449e-05
0.00124353
0.00345461
0.000292527
0.000105029
9.72642e-05
0.000103701
0.000113088
0.000124769
0.000138931
0.000155476
0.000172417
0.000188211
0.00020162
0.000211654
0.000219244
0.000236267
0.000307241
7.72732e-05
4.70766e-05
3.05424e-05
2.30219e-05
1.81067e-05
1.33691e-05
3.01427e-06
2.06477e-06
1.78552e-06
1.75768e-06
2.00734e-06
2.77923e-06
4.88883e-06
1.14222e-05
4.03795e-05
9.54646e-05
8.48506e-05
7.87782e-05
7.25716e-05
0.00242887
0.00766992
0.000703679
0.000142277
0.000108606
0.000115452
0.000128826
0.000145467
0.00016502
0.000187442
0.000208783
0.000226641
0.000240323
0.000249293
0.000251454
0.000244475
0.000232146
0.000240666
7.71577e-05
5.56813e-05
4.82725e-05
5.2657e-05
6.30368e-05
8.01076e-05
0.000110311
0.000116472
0.000125303
0.000136666
0.000150732
0.000167496
0.000186521
0.000208261
0.000225828
0.000134669
0.000103365
0.000102772
0.000141746
0.0041179
0.0133381
0.00162882
0.000241377
0.000134666
0.000135383
0.000152842
0.000177232
0.000207306
0.000241914
0.000271717
0.000294018
0.000311239
0.000325528
0.00033393
0.000327707
0.00029604
0.000227146
0.000133868
8.74282e-05
7.37689e-05
7.24498e-05
7.52551e-05
7.88952e-05
8.28796e-05
8.68211e-05
9.29361e-05
0.000101748
0.000113567
0.00012825
0.000144571
0.000159766
0.000163547
0.000140088
0.000120039
0.000114681
0.000110432
0.000172976
0.000131799
8.9507e-05
0.00636621
0.0186412
0.0036054
0.000628337
0.000250887
0.000201412
0.000211803
0.000241383
0.000285687
0.000337771
0.000371343
0.000388269
0.000398806
0.000411178
0.000424646
0.000426963
0.000398801
0.000329157
0.000240804
0.000171206
0.000134929
0.000118732
0.000111729
0.000109091
0.000108764
0.000110713
0.000116017
0.000125428
0.000139282
0.000156834
0.0001751
0.000188005
0.000188736
0.000171947
0.000152661
0.000146217
0.00014622
0.000133191
0.000159205
0.000147457
0.00899465
0.0212284
0.00764252
0.0024637
0.00100445
0.000581494
0.000477569
0.000461411
0.000501477
0.000543702
0.000548037
0.000530069
0.000508486
0.00049708
0.000498966
0.00050153
0.000482157
0.000425646
0.000344959
0.000270214
0.000218161
0.000186482
0.000168626
0.000159005
0.00015436
0.000153967
0.000158633
0.000169456
0.000187171
0.000210386
0.000234089
0.000248105
0.000244315
0.000224816
0.000201619
0.000193717
0.000214278
0.000204055
0.000224162
0.000201074
0.00951091
0.0250875
0.0136663
0.00915184
0.00511021
0.00286277
0.00184517
0.00137135
0.00113981
0.00099038
0.000862715
0.000752603
0.000665595
0.000606156
0.000573396
0.000557796
0.00053964
0.000499381
0.000436819
0.000370286
0.000315344
0.000275943
0.000250194
0.000234709
0.000226802
0.000225581
0.000231636
0.000246215
0.000271296
0.000304669
0.000339576
0.000359822
0.000351679
0.000319954
0.000279969
0.000253971
0.000258493
0.000290658
0.00033268
0.000224219
0.00857532
0.0138495
0.0197974
0.0154612
0.0104171
0.00680927
0.00453376
0.00314231
0.00226454
0.00168235
0.0012955
0.00103523
0.00086266
0.000753189
0.000688338
0.000651279
0.000624138
0.000591052
0.000546499
0.00049667
0.000451058
0.000414562
0.00038835
0.000371796
0.000364022
0.000365276
0.000376557
0.000398447
0.000431141
0.00047405
0.000523752
0.000560536
0.000555181
0.000513705
0.000454955
0.000407898
0.000411958
0.000475298
0.000616762
0.000769854
0.0431646
0.0552072
0.0210875
0.0110175
0.00655468
0.00422776
0.00290109
0.00209115
0.00158252
0.00127254
0.00109345
0.000998892
0.000954348
0.000933939
0.000917638
0.000893829
0.000860849
0.000823664
0.000792048
0.000766425
0.000747157
0.000734899
0.000730371
0.000736272
0.000756122
0.000788093
0.00082829
0.000874846
0.000926213
0.000970792
0.000987301
0.000984955
0.00101857
0.00109821
0.00107215
0.000940075
0.00101144
0.00117068
0.0309854
0.0311406
0.0149311
0.00863001
0.00556398
0.00388395
0.00292361
0.00238422
0.00211005
0.00200022
0.00199513
0.00204726
0.00211511
0.00216639
0.00217525
0.00213615
0.00206511
0.00198479
0.00190989
0.00185241
0.0018165
0.00180223
0.00180967
0.00183929
0.00189117
0.00196682
0.00205737
0.0021536
0.00224857
0.0023164
0.00230969
0.00220234
0.00203507
0.00184004
0.00161974
0.00143095
0.00187208
0.00160078
0.00186404
0.00416605
0.01317
0.00804506
0.0066933
0.00533365
0.00390191
0.00288739
0.00220168
0.00174055
0.00143975
0.00126692
0.00118122
0.00115418
0.00116454
0.00119413
0.00123266
0.00126738
0.00128834
0.00129417
0.00128926
0.00127799
0.00126482
0.00125305
0.00124473
0.00124127
0.0012433
0.00124967
0.00126044
0.00127662
0.00129097
0.00129568
0.00128081
0.00124142
0.0011842
0.00111186
0.00101128
0.00088547
0.000819742
0.000602503
)
;

boundaryField
{
    floor
    {
        Cmu             0.09;
        kappa           0.41;
        E               9.8;
        type            epsilonWallFunction;
        value           nonuniform List<scalar> 
29
(
0.000236846
1.03628e-05
1.41082e-05
1.36792e-05
1.10686e-05
7.45866e-06
4.2693e-06
2.59791e-06
1.89284e-06
1.68558e-06
1.9033e-06
2.78583e-06
4.90327e-06
9.00255e-06
1.56212e-05
2.49809e-05
3.81833e-05
4.18297e-05
3.57701e-05
1.61875e-05
1.61875e-05
3.70449e-05
7.25716e-05
0.000141746
0.000236846
1.03628e-05
3.78385e-05
7.72732e-05
0.000240666
)
;
    }
    ceiling
    {
        Cmu             0.09;
        kappa           0.41;
        E               9.8;
        type            epsilonWallFunction;
        value           nonuniform List<scalar> 
43
(
0.00186404
0.00416605
0.01317
0.00804506
0.0066933
0.00533365
0.00390191
0.00288739
0.00220168
0.00174055
0.00143975
0.00126692
0.00118122
0.00115418
0.00116454
0.00119413
0.00123266
0.00126738
0.00128834
0.00129417
0.00128926
0.00127799
0.00126482
0.00125305
0.00124473
0.00124127
0.0012433
0.00124967
0.00126044
0.00127662
0.00129097
0.00129568
0.00128081
0.00124142
0.0011842
0.00111186
0.00101128
0.00088547
0.000819742
0.000602503
0.00857532
0.0138495
0.0309854
)
;
    }
    sWall
    {
        Cmu             0.09;
        kappa           0.41;
        E               9.8;
        type            epsilonWallFunction;
        value           uniform 0.00186404;
    }
    nWall
    {
        Cmu             0.09;
        kappa           0.41;
        E               9.8;
        type            epsilonWallFunction;
        value           nonuniform List<scalar> 6(8.9507e-05 0.000147457 0.000201074 0.00117068 0.00160078 0.000602503);
    }
    sideWalls
    {
        type            empty;
    }
    glass1
    {
        Cmu             0.09;
        kappa           0.41;
        E               9.8;
        type            epsilonWallFunction;
        value           nonuniform List<scalar> 9(0.000116131 0.000510069 0.00124353 0.00242887 0.0041179 0.00636621 0.00899465 0.00951091 0.00857532);
    }
    glass2
    {
        Cmu             0.09;
        kappa           0.41;
        E               9.8;
        type            epsilonWallFunction;
        value           nonuniform List<scalar> 2(0.000224219 0.000769854);
    }
    sun
    {
        Cmu             0.09;
        kappa           0.41;
        E               9.8;
        type            epsilonWallFunction;
        value           nonuniform List<scalar> 
14
(
0.000116131
0.000131561
0.000109319
0.000122357
0.000137142
0.000152224
0.000167643
0.000183801
0.00020148
0.000219397
0.000234848
0.00024611
0.000251473
0.000249423
)
;
    }
    heatsource1
    {
        Cmu             0.09;
        kappa           0.41;
        E               9.8;
        type            epsilonWallFunction;
        value           nonuniform List<scalar> 3(0.000172976 0.000131799 8.9507e-05);
    }
    heatsource2
    {
        Cmu             0.09;
        kappa           0.41;
        E               9.8;
        type            epsilonWallFunction;
        value           nonuniform List<scalar> 4(0.000289476 8.17596e-05 8.17596e-05 0.000307241);
    }
    Table_master
    {
        Cmu             0.09;
        kappa           0.41;
        E               9.8;
        type            epsilonWallFunction;
        value           nonuniform List<scalar> 9(3.01427e-06 2.06477e-06 1.78552e-06 1.75768e-06 2.00734e-06 2.77923e-06 4.88883e-06 1.14222e-05 4.03795e-05);
    }
    Table_slave
    {
        Cmu             0.09;
        kappa           0.41;
        E               9.8;
        type            epsilonWallFunction;
        value           nonuniform List<scalar> 9(0.000110311 0.000116472 0.000125303 0.000136666 0.000150732 0.000167496 0.000186521 0.000208261 0.000225828);
    }
    inlet
    {
        type            turbulentMixingLengthDissipationRateInlet;
        mixingLength    0.01;
        phi             phi;
        k               k;
        value           uniform 3.77337e-06;
    }
    outlet
    {
        type            zeroGradient;
    }
}


// ************************************************************************* //
