/*--------------------------------*- C++ -*----------------------------------*\
  =========                 |
  \\      /  F ield         | OpenFOAM: The Open Source CFD Toolbox
   \\    /   O peration     | Website:  https://openfoam.org
    \\  /    A nd           | Version:  6
     \\/     M anipulation  |
\*---------------------------------------------------------------------------*/
FoamFile
{
    version     2.0;
    format      ascii;
    class       volScalarField;
    location    "100";
    object      nut;
}
// * * * * * * * * * * * * * * * * * * * * * * * * * * * * * * * * * * * * * //

dimensions      [0 2 -1 0 0 0 0];

internalField   nonuniform List<scalar> 
459
(
0.00068976
0.000719047
0.000675997
0.000701866
0.000729067
0.000754869
0.00077954
0.000803821
0.000828807
0.000852681
0.000872247
0.000885974
0.000892365
0.000889935
0.000874717
0.000308134
0.000341392
0.00033782
0.000314716
0.000275863
0.000229072
0.000194176
0.0001748
0.000168266
0.000175352
0.000199234
0.000240614
0.000294584
0.000353883
0.000413724
0.000476497
0.000491084
0.000466022
0.000357731
0.0011296
0.00214731
0.00177145
0.00228209
0.00251729
0.00274531
0.00297086
0.00317655
0.00333678
0.00345318
0.00351308
0.00347789
0.00328352
0.00282381
0.00197568
0.000935217
0.000613597
0.000474345
0.00114594
0.00107566
0.000847387
0.000598289
0.000416281
0.000342644
0.000327816
0.000318616
0.000305593
0.000302729
0.000341284
0.000451529
0.000651936
0.000959601
0.0013568
0.00160264
0.00162672
0.000471444
0.00152031
0.00340608
0.00191983
0.00325827
0.00377644
0.00404998
0.00427264
0.00445647
0.00459716
0.00470112
0.00476011
0.00473543
0.00455706
0.00411374
0.00328004
0.00209136
0.000953944
0.000601803
0.00151457
0.00123734
0.000872348
0.000581161
0.000359427
0.000204053
0.000179937
0.000171476
0.000170632
0.000178422
0.000198941
0.000240225
0.0003188
0.000485618
0.00149843
0.00188957
0.00191121
0.000589926
0.00190042
0.00505004
0.00213736
0.00339441
0.00436218
0.00467132
0.00486173
0.00501458
0.00514372
0.00525746
0.00538172
0.00549462
0.00553435
0.00538537
0.00486954
0.00379378
0.00217932
0.000879248
0.00166028
0.00205101
0.00166811
0.00132404
0.00106396
0.000857099
0.000677913
0.000690323
0.000707364
0.000728152
0.000752353
0.000779317
0.000807832
0.000838129
0.000861186
0.00161948
0.00213489
0.00221956
0.000737313
0.00226606
0.00694627
0.00298087
0.00308715
0.00437377
0.00480442
0.00499311
0.00512174
0.00522865
0.00533538
0.00552718
0.00580701
0.00614391
0.00646834
0.00666653
0.0066185
0.00624178
0.0055223
0.00472918
0.00422381
0.00387349
0.00366642
0.00352625
0.00336043
0.00322552
0.00316803
0.00315258
0.0031748
0.00322821
0.0033006
0.0033712
0.00340854
0.00333281
0.0031644
0.00297476
0.0028683
0.00181841
0.000787935
0.00071964
0.000632529
0.00262023
0.00879085
0.00490482
0.00325383
0.00379162
0.00436916
0.004707
0.00490748
0.00500237
0.00505872
0.00525308
0.00558426
0.00605297
0.00662729
0.0071926
0.00760187
0.00770997
0.00743599
0.00689042
0.00629688
0.00583207
0.00547825
0.00517054
0.00488648
0.0046282
0.00440454
0.00422607
0.00409972
0.00402221
0.00397874
0.00393946
0.00386132
0.00368052
0.00333304
0.00298594
0.00284772
0.00273804
0.00224281
0.00198363
0.000746962
0.00294018
0.0101541
0.00775429
0.00510188
0.00384134
0.0037303
0.00411264
0.00451773
0.00469915
0.00475646
0.00490126
0.00514623
0.00553644
0.00611927
0.00680399
0.00743628
0.00784386
0.00791326
0.00767906
0.00729803
0.00691545
0.00656375
0.00622918
0.00589837
0.00556515
0.00523705
0.00493582
0.0046841
0.00449223
0.00435425
0.00423303
0.00407083
0.00379304
0.00335279
0.00286659
0.00256644
0.00252743
0.00244193
0.00238251
0.000828206
0.00299538
0.00967929
0.00844741
0.00746339
0.00592848
0.0049201
0.00457463
0.00459264
0.00466763
0.00468747
0.00473138
0.00484572
0.00507135
0.00544814
0.00597754
0.00658602
0.00712514
0.00744757
0.00750922
0.00738405
0.00717507
0.00693793
0.00668812
0.00642311
0.00613751
0.00583291
0.00552656
0.00524516
0.00500641
0.00482641
0.00466947
0.00447015
0.00413497
0.00357476
0.00287063
0.00227598
0.00193223
0.00173964
0.00156945
0.000858863
0.00289375
0.00339512
0.0053929
0.00595942
0.00581172
0.00540685
0.00504228
0.00479678
0.0046446
0.00456344
0.00455763
0.0046287
0.00478344
0.00502718
0.00535955
0.00576324
0.00618392
0.0065363
0.00675542
0.00683618
0.00680983
0.00671624
0.00658493
0.00643159
0.00626142
0.00607269
0.00587041
0.00567214
0.00549569
0.00534652
0.00521427
0.00505432
0.0047952
0.00428594
0.00348973
0.00264906
0.00207179
0.00175805
0.00165136
0.00129679
0.00983068
0.0112297
0.00781478
0.00650589
0.0057734
0.00530931
0.00500761
0.00481915
0.00473709
0.00476063
0.0048697
0.00503869
0.00524845
0.00548754
0.00573989
0.00598021
0.00617985
0.00631864
0.00638322
0.00639205
0.00636758
0.00632609
0.00627599
0.00621399
0.00613472
0.0060443
0.00594478
0.00583842
0.00573492
0.00564939
0.00561067
0.00566733
0.00577432
0.00571259
0.00517804
0.00436809
0.00381261
0.00149052
0.00444061
0.00972504
0.00775109
0.00659065
0.00588828
0.00544166
0.00518235
0.00508788
0.00513944
0.00528802
0.0055038
0.0057521
0.00599777
0.00621326
0.00636821
0.00645521
0.00649085
0.0064968
0.00649036
0.00648346
0.00648126
0.00648613
0.0065002
0.00652578
0.00656264
0.00660558
0.00663259
0.00662501
0.00658861
0.00652302
0.0064276
0.00631922
0.00621395
0.00605684
0.00567535
0.00504859
0.00455002
0.00165395
0.00173991
0.00227484
0.00333871
0.00283287
0.00266437
0.00247016
0.00222574
0.00201319
0.00183922
0.00170064
0.00159642
0.0015298
0.00149449
0.001483
0.00148743
0.00149993
0.00151589
0.00152999
0.00153838
0.0015407
0.00153875
0.00153425
0.00152896
0.0015242
0.00152082
0.0015194
0.00152022
0.00152281
0.00152714
0.00153365
0.0015394
0.00154131
0.00153547
0.00151964
0.00149597
0.00146486
0.00141928
0.00135778
0.00132329
0.0011942
)
;

boundaryField
{
    floor
    {
        type            nutkWallFunction;
        Cmu             0.09;
        kappa           0.41;
        E               9.8;
        value           nonuniform List<scalar> 
29
(
0.000105881
3.4445e-05
3.89515e-05
3.8479e-05
3.53653e-05
3.00507e-05
2.35051e-05
1.85017e-05
1.5667e-05
1.4694e-05
1.57227e-05
1.91806e-05
2.50583e-05
3.2537e-05
4.05551e-05
4.84735e-05
5.66236e-05
5.85079e-05
5.52957e-05
4.11062e-05
4.11062e-05
5.59992e-05
7.10431e-05
8.92679e-05
0.000105881
3.44449e-05
5.64155e-05
7.25857e-05
0.000106435
)
;
    }
    ceiling
    {
        type            nutkWallFunction;
        Cmu             0.09;
        kappa           0.41;
        E               9.8;
        value           nonuniform List<scalar> 
43
(
0.000205027
0.00026336
0.000375348
0.000322668
0.00030492
0.000284291
0.000258077
0.000235031
0.000215974
0.000200655
0.000189045
0.00018158
0.00017761
0.000176316
0.000176814
0.000178221
0.000180016
0.000181601
0.000182542
0.000182802
0.000182583
0.000182078
0.000181483
0.000180948
0.000180568
0.000180409
0.000180501
0.000180792
0.00018128
0.00018201
0.000182653
0.000182862
0.000182198
0.000180412
0.000177744
0.000174237
0.000169086
0.000162107
0.00015818
0.00014337
0.00032919
0.000381369
0.000487547
)
;
    }
    sWall
    {
        type            nutkWallFunction;
        Cmu             0.09;
        kappa           0.41;
        E               9.8;
        value           uniform 0.000205073;
    }
    nWall
    {
        type            nutkWallFunction;
        Cmu             0.09;
        kappa           0.41;
        E               9.8;
        value           nonuniform List<scalar> 6(7.63671e-05 9.04549e-05 0.000100304 0.000177116 0.000195446 0.000143378);
    }
    sideWalls
    {
        type            empty;
    }
    glass1
    {
        type            nutkWallFunction;
        Cmu             0.09;
        kappa           0.41;
        E               9.8;
        value           nonuniform List<scalar> 9(8.3421e-05 0.000136001 0.000180691 0.000222943 0.000262724 0.000300607 0.000334368 0.00034016 0.000329512);
    }
    glass2
    {
        type            nutkWallFunction;
        Cmu             0.09;
        kappa           0.41;
        E               9.8;
        value           nonuniform List<scalar> 2(0.000103988 0.000155101);
    }
    sun
    {
        type            nutkWallFunction;
        Cmu             0.09;
        kappa           0.41;
        E               9.8;
        value           nonuniform List<scalar> 
14
(
8.34555e-05
8.70504e-05
8.17616e-05
8.49448e-05
8.82767e-05
9.14234e-05
9.44206e-05
9.73592e-05
0.000100372
0.000103241
0.000105586
0.000107227
0.00010799
0.000107699
)
;
    }
    heatsource1
    {
        type            nutkWallFunction;
        Cmu             0.09;
        kappa           0.41;
        E               9.8;
        value           nonuniform List<scalar> 3(9.54183e-05 8.71086e-05 7.63694e-05);
    }
    heatsource2
    {
        type            nutkWallFunction;
        Cmu             0.09;
        kappa           0.41;
        E               9.8;
        value           nonuniform List<scalar> 4(0.000113091 7.40234e-05 7.40233e-05 0.000115313);
    }
    Table_master
    {
        type            nutkWallFunction;
        Cmu             0.09;
        kappa           0.41;
        E               9.8;
        value           nonuniform List<scalar> 9(1.99196e-05 1.64134e-05 1.51657e-05 1.50355e-05 1.6173e-05 1.91464e-05 2.50142e-05 3.58374e-05 5.77783e-05);
    }
    Table_slave
    {
        type            nutkWallFunction;
        Cmu             0.09;
        kappa           0.41;
        E               9.8;
        value           nonuniform List<scalar> 9(8.20094e-05 8.35361e-05 8.5628e-05 8.81715e-05 9.11211e-05 9.43931e-05 9.78376e-05 0.000101482 0.000104238);
    }
    inlet
    {
        type            calculated;
        value           uniform 3.3541e-05;
    }
    outlet
    {
        type            calculated;
        value           nonuniform List<scalar> 2(0.00173991 0.00227484);
    }
}


// ************************************************************************* //
