/*--------------------------------*- C++ -*----------------------------------*\
  =========                 |
  \\      /  F ield         | OpenFOAM: The Open Source CFD Toolbox
   \\    /   O peration     | Website:  https://openfoam.org
    \\  /    A nd           | Version:  6
     \\/     M anipulation  |
\*---------------------------------------------------------------------------*/
FoamFile
{
    version     2.0;
    format      ascii;
    class       surfaceScalarField;
    location    "100";
    object      phi;
}
// * * * * * * * * * * * * * * * * * * * * * * * * * * * * * * * * * * * * * //

dimensions      [1 0 -1 0 0 0 0];

internalField   nonuniform List<scalar> 
852
(
-0.00217698
0.00222465
-0.00242574
0.0002488
-0.00268246
0.000256753
-0.00295582
0.000273388
-0.00319709
0.000241301
-0.00338551
0.000188454
-0.00350717
0.0001217
-0.00354866
4.15178e-05
-0.0034951
-5.35239e-05
-0.00332898
-0.000166086
-0.00303429
-0.00029466
-0.00259851
-0.000435747
-0.00199912
-0.000599349
-0.00116653
-0.00083256
-0.00116721
2.17002e-05
-2.26577e-05
-0.000151641
0.00017334
-0.000293537
0.000141892
-0.000388173
9.46254e-05
-0.000481197
9.30074e-05
-0.000584195
0.000102984
-0.000667483
8.32799e-05
-0.000722012
5.45236e-05
-0.000770938
4.89208e-05
-0.000831031
6.00901e-05
-0.000911323
8.0294e-05
-0.00101087
9.95584e-05
-0.00112354
0.000112685
-0.00123268
0.00010917
-0.00124273
1.00789e-05
-0.000931464
-0.000311237
-0.00056247
-0.000368968
-0.000287418
-0.000275032
-0.000288314
-0.00157746
0.00392692
-0.00208499
0.000756362
-0.00246212
0.000633921
-0.00276493
0.000576236
-0.00301834
0.000494748
-0.00321868
0.00038883
-0.00335734
0.000260397
-0.00342366
0.000107871
-0.00340673
-7.04149e-05
-0.00329713
-0.000275653
-0.00308603
-0.000505721
-0.00276667
-0.000755064
-0.00233838
-0.00102761
-0.00184402
-0.00132688
-0.00141996
-0.00159123
0.000130104
-0.00155009
0.000130084
-0.000397566
0.00037258
-0.000588345
0.000364114
-0.000682686
0.000236222
-0.000723692
0.000135617
-0.000728423
9.77244e-05
-0.000727987
0.00010254
-0.000739772
9.50626e-05
-0.000736979
5.17276e-05
-0.000730781
4.27192e-05
-0.000720654
4.99579e-05
-0.000708517
6.81524e-05
-0.000699729
9.07737e-05
-0.000699842
0.000112812
-0.000715085
0.000124441
-0.000711703
6.73276e-06
-0.000386961
-0.00063594
-0.000135303
-0.000620594
5.87858e-06
-0.000416187
-0.000284783
-0.00116913
0.00528266
-0.00176652
0.00135379
-0.00216186
0.0010293
-0.00245658
0.000870992
-0.00270203
0.000740235
-0.00290232
0.000589165
-0.00305193
0.000410042
-0.00314205
0.000198029
-0.00316381
-4.86104e-05
-0.0031126
-0.000326821
-0.00299137
-0.00062691
-0.00281057
-0.000935826
-0.00259189
-0.00124624
-0.00237692
-0.00154181
-0.00220311
-0.001765
-0.00192215
-0.00183101
-0.00179203
-0.000999537
0.00136871
-0.00119213
0.000556705
-0.00121912
0.0002632
-0.0011813
9.77869e-05
-0.00108321
-3.7845e-07
-0.000899473
-8.12052e-05
-0.000804259
-0.00075238
-0.000709512
-0.000659407
-0.000591109
-0.000500187
-0.000387222
-0.000262616
-0.000255692
0.000360482
-0.00125207
0.000490232
-0.000750307
0.000353892
-0.000279816
6.56484e-05
-0.000880977
0.00640097
-0.00148928
0.00196213
-0.0018107
0.00135077
-0.00206684
0.00112717
-0.00228165
0.000955087
-0.00245918
0.000766732
-0.00259832
0.00054922
-0.00269275
0.000292509
-0.00273343
-7.8873e-06
-0.00271895
-0.000341253
-0.0026669
-0.000678912
-0.00260637
-0.000996315
-0.00257593
-0.00127663
-0.00261994
-0.00149776
-0.00276475
-0.00162015
-0.00300941
-0.00158631
-0.0035841
-0.00121732
-0.00322705
-0.000360678
-0.00220986
0.000351527
-0.00198959
0.00033645
-0.00195737
0.000231006
-0.00196758
0.000108026
-0.00197213
4.20698e-06
-0.00198477
-6.85254e-05
-0.00189965
-8.52191e-05
-0.00179261
-0.000107134
-0.00164609
-0.000146622
-0.00144558
-0.000200601
-0.00117012
-0.00027555
-0.000792963
-0.00037724
-0.000289622
-0.00050343
0.000341687
-0.000631401
0.00113233
-0.000790745
0.000955123
-0.00107482
0.00101371
-0.000808854
0.000885127
-0.000151206
0.000946482
-0.000667835
0.00734901
-0.00125264
0.00254698
-0.00142072
0.00151889
-0.00160112
0.00130761
-0.00176468
0.00111869
-0.00189203
0.000894121
-0.00198601
0.000643251
-0.00204667
0.000353209
-0.00206558
1.10734e-05
-0.00204277
-0.000364012
-0.00200524
-0.000716384
-0.00198794
-0.00101357
-0.00202159
-0.00124293
-0.00212429
-0.001395
-0.00229582
-0.00144857
-0.0025267
-0.00135539
-0.00272307
-0.0010209
-0.00259508
-0.000488635
-0.00219482
-4.86939e-05
-0.00193163
7.32928e-05
-0.00177602
7.54263e-05
-0.00169193
2.39826e-05
-0.00164789
-3.97902e-05
-0.00162275
-9.36097e-05
-0.00157395
-0.000133955
-0.0015003
-0.000180723
-0.0013983
-0.000248555
-0.00125406
-0.000344771
-0.00105222
-0.000477308
-0.000779493
-0.000649888
-0.000428372
-0.000854471
6.84872e-07
-0.00106039
0.000436168
-0.00122618
0.000662236
-0.00130085
0.000917958
-0.00106455
0.0012803
-0.000513523
0.00203456
0.000192243
0.0017172
0.000317192
0.00120317
0.000513847
0.00122315
-0.000624141
0.00829044
-0.00113637
0.00305925
-0.000987053
0.00136962
-0.000998497
0.0013191
-0.00111621
0.00123645
-0.0011865
0.000964464
-0.00120756
0.000664353
-0.00119934
0.000345039
-0.00115864
-2.95769e-05
-0.00109786
-0.000424734
-0.001053
-0.000761192
-0.00105329
-0.00101323
-0.00111633
-0.00117983
-0.00124424
-0.00126703
-0.00142487
-0.0012679
-0.00162328
-0.00115693
-0.0017431
-0.000901029
-0.0016859
-0.000545788
-0.00149414
-0.000240415
-0.00133126
-8.95375e-05
-0.00121669
-3.91013e-05
-0.00115022
-4.245e-05
-0.00112023
-6.97304e-05
-0.00110801
-0.000105775
-0.00109408
-0.000147818
-0.00106949
-0.000205245
-0.00102888
-0.000289084
-0.000963907
-0.000409663
-0.000864499
-0.000576623
-0.00072283
-0.000791459
-0.000536733
-0.00104047
-0.000316957
-0.00128008
-9.21824e-05
-0.00145089
0.000102662
-0.00149566
0.000352724
-0.00131458
0.000747292
-0.000908069
0.0012407
-0.000301146
0.00135219
0.000205728
0.000952072
0.000913989
0.00219725
-0.000796544
0.00943815
-0.000840975
0.00310373
-0.000175821
0.000704518
2.18024e-05
0.00112153
-0.000120381
0.00137868
-0.000178612
0.00102274
-0.000131372
0.000617163
-3.9586e-05
0.000253303
6.21802e-05
-0.000131292
0.000138284
-0.000500786
0.000164295
-0.000787149
0.000126877
-0.00097576
2.27801e-05
-0.00107568
-0.0001402
-0.00110399
-0.000340353
-0.00106768
-0.000536879
-0.000960341
-0.000665861
-0.00077199
-0.000682283
-0.000529311
-0.000613628
-0.000309019
-0.000534983
-0.000168135
-0.000477615
-9.64225e-05
-0.000448398
-7.16195e-05
-0.000443079
-7.49987e-05
-0.000453394
-9.54058e-05
-0.000471394
-0.000129759
-0.000493194
-0.000183378
-0.000517158
-0.000265042
-0.000541507
-0.000385222
-0.000562263
-0.000555759
-0.000577235
-0.000776368
-0.000584348
-0.00103324
-0.000589136
-0.00127519
-0.000605465
-0.00143449
-0.000629458
-0.00147163
-0.000595667
-0.00134835
-0.000427091
-0.00107663
3.97775e-05
-0.000767987
0.000677553
-0.000432019
0.000853503
0.000738061
0.00307492
0.00163604
0.00819547
0.00221116
0.00252865
0.00245174
0.000463991
0.00212501
0.00144831
0.00181211
0.00169163
0.00169227
0.00114264
0.00166499
0.000644492
0.00168458
0.000233766
0.00171363
-0.000160291
0.00169905
-0.000486156
0.00162057
-0.000708619
0.0014838
-0.000838935
0.00130166
-0.00089349
0.001086
-0.000888265
0.000852941
-0.000834564
0.000630227
-0.000737565
0.000457574
-0.000599276
0.000363004
-0.000434681
0.000334183
-0.000280141
0.000332876
-0.000166773
0.000334747
-9.82424e-05
0.000328557
-6.53793e-05
0.00031105
-5.74416e-05
0.000282497
-6.68006e-05
0.00024339
-9.05961e-05
0.000191901
-0.000131826
0.000123709
-0.000196776
3.13515e-05
-0.000292772
-9.4224e-05
-0.000430067
-0.000260405
-0.000610049
-0.000470091
-0.0008234
-0.000728702
-0.00101644
-0.00105295
-0.00111015
-0.00143216
-0.00109237
-0.00181547
-0.000965022
-0.00217327
-0.000718802
-0.00259637
-0.000344859
-0.0030838
5.54484e-05
-0.00269107
0.000345368
0.000490491
0.00861083
0.0111177
0.00987306
0.00170864
0.00725628
0.00406513
0.00607568
0.00287227
0.00532062
0.00189774
0.00475843
0.00120672
0.0043324
0.000659841
0.0039495
0.000222656
0.00357272
-0.000109321
0.00321294
-0.000348789
0.00287535
-0.000501297
0.00255898
-0.000577063
0.00226183
-0.000591056
0.0019843
-0.000556967
0.00173392
-0.000487125
0.0015255
-0.000390791
0.00137206
-0.000281177
0.00127023
-0.000178248
0.00120215
-9.86352e-05
0.00115335
-4.93834e-05
0.00111253
-2.45076e-05
0.00107241
-1.72621e-05
0.00102832
-2.26625e-05
0.000976199
-3.84134e-05
0.000911248
-6.6815e-05
0.000827305
-0.000112762
0.00071349
-0.000178871
0.000550265
-0.00026673
0.000313828
-0.000373466
-2.33885e-05
-0.000485996
-0.000475339
-0.000564315
-0.00105201
-0.000533342
-0.00176063
-0.00038367
-0.00253863
-0.000186985
-0.00325557
-1.83827e-06
-0.00386603
0.000265613
-0.00430826
0.000497683
-0.00350285
-0.000460037
-0.0029058
0.000334477
0.0027203
0.00294687
0.00145277
0.00419499
0.00162419
0.0044921
0.00160067
0.00451243
0.00118644
0.00445163
0.000720684
0.00432466
0.000349672
0.00413113
8.42567e-05
0.00389021
-0.000107819
0.00361793
-0.000228955
0.00333124
-0.000290326
0.00304504
-0.000304788
0.00277197
-0.000283836
0.00252451
-0.000239603
0.00231241
-0.000178624
0.0021425
-0.000111208
0.00201496
-5.06362e-05
0.00192215
-5.76531e-06
0.00185333
1.9507e-05
0.00179813
3.07535e-05
0.00174905
3.18773e-05
0.00170073
2.57176e-05
0.00164891
1.34628e-05
0.00158884
-6.67832e-06
0.00151302
-3.68692e-05
0.00141128
-7.70512e-05
0.00126955
-0.000124899
0.00107257
-0.000176338
0.000814259
-0.0002275
0.000508947
-0.000258778
0.000211505
-0.000235663
-2.03502e-05
-0.000151611
-0.000167373
-3.98409e-05
-0.000239657
7.0515e-05
-9.26987e-05
0.000118687
0.000485804
-8.08129e-05
0.000876481
-0.000850708
-0.00200656
-2.01366e-06
0.00271236
0.00185079
-0.000400004
0.00278558
0.000689444
0.00332168
0.00106461
0.00372513
0.000783036
0.00398188
0.000463979
0.00409455
0.00023705
0.00408936
8.94972e-05
0.00397167
9.92824e-06
0.00376656
-2.37903e-05
0.00351096
-3.46694e-05
0.0032377
-3.14735e-05
0.00297458
-2.06474e-05
0.00274068
-5.63611e-06
0.0025508
1.13162e-05
0.0024123
2.73627e-05
0.00232129
4.04459e-05
0.00226633
4.92584e-05
0.00223028
5.56237e-05
0.00220382
5.72846e-05
0.00218041
5.53524e-05
0.0021554
5.07842e-05
0.0021251
4.38284e-05
0.00208373
3.47543e-05
0.00202241
2.45222e-05
0.00193326
1.21789e-05
0.00181115
-2.68405e-06
0.00165425
-1.93109e-05
0.00146444
-3.75051e-05
0.00126015
-5.42682e-05
0.0010885
-6.37371e-05
0.00100094
-6.37762e-05
0.00102466
-6.33279e-05
0.00116533
-6.99749e-05
0.0014158
-0.000131659
0.00166666
-0.000331604
0.00150887
-0.000692887
-0.0004742
0.00428504
-0.00247573
0.000221518
-0.00020109
0.000461116
0.00149554
0.00224527
0.00267288
0.00287068
0.00291833
0.00288421
0.00281486
0.00273378
0.00265563
0.00258846
0.00253666
0.00250227
0.00248435
0.00247982
0.00248428
0.0024952
0.00250786
0.00251863
0.00252493
0.0025244
0.00251499
0.0024956
0.00246421
0.00241837
0.00235645
0.00227699
0.0021815
0.0020773
0.00197375
0.00187118
0.00176221
0.00159121
0.00121925
0.000485362
)
;

boundaryField
{
    floor
    {
        type            calculated;
        value           nonuniform List<scalar> 
29
(
0
0
0
0
0
0
0
0
0
0
0
0
0
0
0
0
0
0
0
0
9.07641e-07
2.36441e-06
3.48549e-06
4.3184e-06
7.1192e-07
9.56192e-07
2.32731e-06
3.41059e-06
3.64862e-06
)
;
    }
    ceiling
    {
        type            calculated;
        value           nonuniform List<scalar> 
43
(
4.66888e-05
3.07749e-05
1.51391e-05
2.2643e-05
2.72804e-05
3.0228e-05
3.33602e-05
3.64202e-05
3.9298e-05
4.19076e-05
4.41007e-05
4.56253e-05
4.64703e-05
4.67351e-05
4.65901e-05
4.62312e-05
4.57762e-05
4.53542e-05
4.50508e-05
4.4869e-05
4.47655e-05
4.47022e-05
4.46409e-05
4.45536e-05
4.44219e-05
4.42313e-05
4.3972e-05
4.36469e-05
4.32395e-05
4.27137e-05
4.20988e-05
4.14176e-05
4.07256e-05
4.00934e-05
3.95755e-05
3.93097e-05
3.9582e-05
4.0504e-05
4.10728e-05
4.46328e-05
2.63412e-05
2.18306e-05
9.9773e-06
)
;
    }
    sWall
    {
        type            calculated;
        value           uniform -0.000149066;
    }
    nWall
    {
        type            calculated;
        value           nonuniform List<scalar> 6(-2.01575e-05 -2.20036e-05 -2.41484e-05 -2.27602e-05 -2.34762e-05 -3.34587e-05);
    }
    sideWalls
    {
        type            empty;
        value           nonuniform 0();
    }
    glass1
    {
        type            calculated;
        value           nonuniform List<scalar> 9(-4.76349e-05 -0.000124768 -0.000186573 -0.0002373 -0.000280162 -0.000317256 -0.00035113 -0.000393325 -0.000441657);
    }
    glass2
    {
        type            calculated;
        value           nonuniform List<scalar> 2(-0.000106621 -0.000106551);
    }
    sun
    {
        type            calculated;
        value           uniform 0;
    }
    heatsource1
    {
        type            calculated;
        value           nonuniform List<scalar> 3(2.00454e-07 2.00637e-07 2.00909e-07);
    }
    heatsource2
    {
        type            calculated;
        value           nonuniform List<scalar> 4(5.01202e-08 5.03154e-08 0 0);
    }
    Table_master
    {
        type            calculated;
        value           nonuniform List<scalar> 9(-1.50878e-07 -1.50913e-07 -1.50931e-07 -1.50945e-07 -1.50961e-07 -1.50982e-07 -1.51005e-07 -1.51025e-07 -1.51013e-07);
    }
    Table_slave
    {
        type            calculated;
        value           nonuniform List<scalar> 9(1.50341e-07 1.50373e-07 1.50407e-07 1.50453e-07 1.50516e-07 1.50603e-07 1.50724e-07 1.50776e-07 1.50599e-07);
    }
    inlet
    {
        type            calculated;
        value           uniform -0.00134613;
    }
    outlet
    {
        type            calculated;
        value           nonuniform List<scalar> 2(-0.00418256 0.00673009);
    }
}


// ************************************************************************* //
