/*--------------------------------*- C++ -*----------------------------------*\
  =========                 |
  \\      /  F ield         | OpenFOAM: The Open Source CFD Toolbox
   \\    /   O peration     | Website:  https://openfoam.org
    \\  /    A nd           | Version:  6
     \\/     M anipulation  |
\*---------------------------------------------------------------------------*/
FoamFile
{
    version     2.0;
    format      ascii;
    class       volScalarField;
    location    "100";
    object      T;
}
// * * * * * * * * * * * * * * * * * * * * * * * * * * * * * * * * * * * * * //

dimensions      [0 0 0 1 0 0 0];

internalField   nonuniform List<scalar> 
459
(
306.258
306.033
306.027
306.029
306.031
306.032
306.032
306.032
306.031
306.029
306.025
306.017
306.007
305.994
305.978
305.719
305.739
305.747
305.747
305.743
305.735
305.731
305.729
305.728
305.728
305.729
305.731
305.735
305.741
305.748
305.756
305.755
305.749
305.739
306.429
306.094
306.074
306.081
306.088
306.094
306.099
306.101
306.101
306.098
306.09
306.075
306.054
306.024
305.988
305.954
305.91
305.752
305.758
305.76
305.757
305.751
305.745
305.742
305.743
305.743
305.743
305.743
305.743
305.746
305.755
305.768
305.785
305.783
305.774
305.758
306.588
306.153
306.115
306.126
306.14
306.153
306.163
306.171
306.175
306.175
306.166
306.147
306.116
306.071
306.016
305.957
305.911
305.771
305.777
305.778
305.775
305.77
305.763
305.752
305.753
305.754
305.754
305.753
305.752
305.752
305.755
305.771
305.806
305.802
305.792
305.774
306.735
306.218
306.154
306.165
306.187
306.209
306.229
306.246
306.257
306.263
306.258
306.238
306.202
306.149
306.079
305.996
305.91
305.844
305.814
305.824
305.83
305.833
305.834
305.833
305.833
305.831
305.83
305.829
305.828
305.827
305.825
305.822
305.82
305.819
305.815
305.807
305.795
306.87
306.293
306.199
306.2
306.226
306.256
306.286
306.314
306.337
306.352
306.355
306.342
306.31
306.261
306.195
306.12
306.042
305.974
305.924
305.91
305.907
305.905
305.902
305.896
305.89
305.885
305.879
305.874
305.867
305.86
305.851
305.841
305.833
305.829
305.824
305.818
305.806
305.802
305.798
305.803
306.987
306.383
306.271
306.245
306.262
306.293
306.328
306.365
306.4
306.426
306.439
306.435
306.413
306.373
306.316
306.249
306.178
306.114
306.062
306.028
306.007
305.993
305.981
305.97
305.959
305.948
305.937
305.926
305.912
305.896
305.877
305.857
305.843
305.835
305.83
305.824
305.816
305.809
305.803
305.805
307.088
306.518
306.419
306.358
306.332
306.343
306.37
306.405
306.446
306.48
306.5
306.504
306.493
306.465
306.422
306.367
306.307
306.247
306.194
306.151
306.119
306.095
306.075
306.057
306.041
306.026
306.011
305.993
305.97
305.942
305.909
305.876
305.852
305.839
305.834
305.829
305.823
305.815
305.808
305.808
307.248
306.815
306.719
306.623
306.537
306.494
306.483
306.491
306.511
306.532
306.545
306.548
306.54
306.523
306.495
306.458
306.412
306.361
306.312
306.268
306.231
306.2
306.174
306.152
306.132
306.113
306.093
306.071
306.041
306.002
305.953
305.902
305.864
305.845
305.839
305.835
305.831
305.831
305.834
305.847
307.468
307.281
307.069
306.943
306.825
306.741
306.687
306.654
306.632
306.615
306.599
306.583
306.567
306.55
306.529
306.504
306.474
306.439
306.401
306.363
306.328
306.296
306.268
306.242
306.219
306.197
306.175
306.151
306.119
306.077
306.019
305.947
305.89
305.857
305.848
305.848
305.852
305.855
305.858
305.868
304.875
306.424
306.586
306.619
306.622
306.615
306.605
306.595
306.582
306.569
306.555
306.541
306.526
306.51
306.491
306.469
306.445
306.418
306.391
306.364
306.339
306.314
306.291
306.268
306.245
306.22
306.189
306.149
306.095
306.027
305.954
305.892
305.857
305.843
305.84
305.839
305.83
305.829
305.118
306.104
306.335
306.445
306.494
306.514
306.521
306.522
306.52
306.516
306.511
306.505
306.497
306.488
306.476
306.463
306.448
306.431
306.412
306.393
306.373
306.353
306.332
306.312
306.29
306.266
306.238
306.202
306.155
306.095
306.025
305.955
305.899
305.862
305.841
305.827
305.816
305.818
306.853
306.247
305.278
305.87
306.249
306.373
306.415
306.433
306.441
306.443
306.443
306.442
306.441
306.439
306.436
306.432
306.428
306.421
306.414
306.405
306.394
306.382
306.369
306.355
306.341
306.325
306.308
306.289
306.267
306.239
306.204
306.157
306.098
306.029
305.957
305.892
305.844
305.812
305.794
305.796
)
;

boundaryField
{
    floor
    {
        type            wallHeatTransfer;
        Tinf            uniform 305.2;
        alphaWall       uniform 0.24;
        value           nonuniform List<scalar> 
29
(
305.881
305.59
305.613
305.618
305.613
305.599
305.578
305.56
305.55
305.546
305.55
305.561
305.578
305.598
305.617
305.634
305.65
305.652
305.643
305.617
305.617
305.652
305.68
305.711
305.881
305.59
305.647
305.679
305.764
)
;
    }
    ceiling
    {
        type            wallHeatTransfer;
        Tinf            uniform 303.2;
        alphaWall       uniform 0.24;
        value           nonuniform List<scalar> 
43
(
306.585
306.067
305.189
305.738
306.09
306.198
306.221
306.222
306.213
306.201
306.188
306.179
306.173
306.169
306.167
306.166
306.163
306.16
306.154
306.146
306.136
306.124
306.112
306.098
306.084
306.07
306.054
306.037
306.017
305.993
305.961
305.918
305.863
305.798
305.729
305.666
305.616
305.579
305.558
305.541
307.26
307.108
305.054
)
;
    }
    sWall
    {
        type            wallHeatTransfer;
        Tinf            uniform 315.2;
        alphaWall       uniform 0.36;
        value           uniform 307.743;
    }
    nWall
    {
        type            wallHeatTransfer;
        Tinf            uniform 307.2;
        alphaWall       uniform 0.36;
        value           nonuniform List<scalar> 6(306.107 306.077 306.061 305.993 305.971 305.994);
    }
    sideWalls
    {
        type            empty;
    }
    glass1
    {
        type            wallHeatTransfer;
        Tinf            uniform 315.2;
        alphaWall       uniform 4.3;
        value           nonuniform List<scalar> 9(313.05 312.358 311.911 311.574 311.318 311.113 310.958 311.01 311.185);
    }
    glass2
    {
        type            wallHeatTransfer;
        Tinf            uniform 307.2;
        alphaWall       uniform 4.3;
        value           nonuniform List<scalar> 2(306.823 306.729);
    }
    sun
    {
        type            wallHeatTransfer;
        Tinf            uniform 305.2;
        alphaWall       uniform 0.24;
        value           nonuniform List<scalar> 
14
(
306.102
305.914
305.903
305.909
305.913
305.917
305.92
305.922
305.924
305.924
305.922
305.917
305.908
305.897
)
;
    }
    heatsource1
    {
        type            fixedGradient;
        gradient        uniform 0;
    }
    heatsource2
    {
        type            fixedGradient;
        gradient        uniform 0;
    }
    Table_master
    {
        type            zeroGradient;
    }
    Table_slave
    {
        type            zeroGradient;
    }
    inlet
    {
        type            fixedValue;
        value           uniform 299.15;
    }
    outlet
    {
        type            zeroGradient;
    }
}


// ************************************************************************* //
