/*--------------------------------*- C++ -*----------------------------------*\
  =========                 |
  \\      /  F ield         | OpenFOAM: The Open Source CFD Toolbox
   \\    /   O peration     | Website:  https://openfoam.org
    \\  /    A nd           | Version:  6
     \\/     M anipulation  |
\*---------------------------------------------------------------------------*/
FoamFile
{
    version     2.0;
    format      ascii;
    class       volVectorField;
    location    "100";
    object      U;
}
// * * * * * * * * * * * * * * * * * * * * * * * * * * * * * * * * * * * * * //

dimensions      [0 1 -1 0 0 0 0];

internalField   nonuniform List<vector> 
459
(
(0.0763352 0.0606444 0)
(-0.121925 0.00445982 0)
(-0.110598 0.00566639 0)
(-0.123006 0.00590565 0)
(-0.134394 0.00467096 0)
(-0.143864 0.0028926 0)
(-0.150719 0.000740102 0)
(-0.154385 -0.00179311 0)
(-0.154222 -0.00477252 0)
(-0.149541 -0.0083768 0)
(-0.139419 -0.0127322 0)
(-0.122526 -0.0180065 0)
(-0.0979668 -0.0248719 0)
(-0.0694007 -0.0346275 0)
(-0.0528471 -0.0467642 0)
(-0.0353644 -0.00240207 0)
(0.00427168 0.00617782 0)
(-0.00969692 0.003879 0)
(-0.0153375 0.00107102 0)
(-0.0189134 0.00107921 0)
(-0.0226079 0.00240268 0)
(-0.0271572 0.00236683 0)
(-0.0303137 0.00146476 0)
(-0.0324235 0.00123191 0)
(-0.0345798 0.00164019 0)
(-0.0373037 0.00231772 0)
(-0.0411885 0.00267389 0)
(-0.0470394 0.00219087 0)
(-0.0537511 0.000445505 0)
(-0.0556876 -0.00353865 0)
(-0.0460376 -0.0104268 0)
(-0.0343398 -0.0135886 0)
(-0.0236288 -0.0126667 0)
(0.0308073 -0.0128477 0)
(0.249485 0.130804 0)
(-0.137543 0.0211545 0)
(-0.0977054 0.0193073 0)
(-0.114112 0.0188375 0)
(-0.126297 0.0164995 0)
(-0.136293 0.0131349 0)
(-0.143753 0.00894445 0)
(-0.148314 0.00389055 0)
(-0.149448 -0.00214337 0)
(-0.146644 -0.00927527 0)
(-0.139533 -0.0174425 0)
(-0.127559 -0.0265779 0)
(-0.110664 -0.0371699 0)
(-0.0904547 -0.0502167 0)
(-0.0707516 -0.0644647 0)
(-0.0544038 -0.0706616 0)
(0.0361893 0.012243 0)
(-0.0450343 0.0138373 0)
(-0.0188815 0.013006 0)
(-0.0279155 0.00949163 0)
(-0.0311465 0.00679394 0)
(-0.0315825 0.00630128 0)
(-0.0311595 0.00648941 0)
(-0.0316542 0.00602569 0)
(-0.0321979 0.0049889 0)
(-0.0319739 0.00478989 0)
(-0.0315656 0.00514049 0)
(-0.0308066 0.00579917 0)
(-0.0298292 0.00649764 0)
(-0.0303365 0.00693962 0)
(-0.0342557 0.00593732 0)
(-0.0354936 -0.00107414 0)
(-0.0182084 -0.0218134 0)
(-0.0107728 -0.0214068 0)
(-0.0127533 -0.0152441 0)
(0.0527967 -0.0119486 0)
(0.396559 0.199033 0)
(-0.174325 0.0451429 0)
(-0.0795754 0.0359397 0)
(-0.100737 0.0313983 0)
(-0.112619 0.026693 0)
(-0.122438 0.0209599 0)
(-0.130124 0.0140825 0)
(-0.135441 0.00595325 0)
(-0.137959 -0.00348861 0)
(-0.137085 -0.0142216 0)
(-0.133089 -0.0260929 0)
(-0.126162 -0.0387073 0)
(-0.117033 -0.0518986 0)
(-0.106947 -0.0651985 0)
(-0.0974879 -0.0760018 0)
(-0.092031 -0.0789823 0)
(-0.0996619 -0.0724619 0)
(-0.0644631 0.0489502 0)
(-0.0461362 0.0223536 0)
(-0.0527652 0.0121365 0)
(-0.0529433 0.00601497 0)
(-0.0497274 0.00277388 0)
(-0.0440571 0.000709707 0)
(-0.034787 -0.00140816 0)
(-0.0336872 -0.00456862 0)
(-0.0318396 -0.00539675 0)
(-0.0299448 -0.00518752 0)
(-0.0272533 -0.00410715 0)
(-0.0229762 -0.00232417 0)
(-0.0182617 7.42793e-05 0)
(-0.0190663 0.00219313 0)
(-0.0257937 -0.00462437 0)
(0.0177508 -0.0450764 0)
(0.0184704 -0.0298737 0)
(0.0137934 -0.0136028 0)
(0.0554379 -0.00221712 0)
(0.516541 0.25551 0)
(-0.214066 0.0726434 0)
(-0.057787 0.0522493 0)
(-0.0841759 0.0435937 0)
(-0.0950247 0.0369907 0)
(-0.10357 0.0295686 0)
(-0.110519 0.0208317 0)
(-0.115714 0.0104768 0)
(-0.118804 -0.00160747 0)
(-0.118927 -0.0150836 0)
(-0.117104 -0.029216 0)
(-0.114253 -0.0431394 0)
(-0.111804 -0.0561726 0)
(-0.111358 -0.0672384 0)
(-0.11498 -0.0737823 0)
(-0.126838 -0.0709706 0)
(-0.148569 -0.0495923 0)
(-0.150287 0.00256081 0)
(-0.112117 0.0387003 0)
(-0.090747 0.0202062 0)
(-0.0860014 0.0104464 0)
(-0.0854805 0.00333015 0)
(-0.0862248 -0.00171151 0)
(-0.0863127 -0.00526899 0)
(-0.0847884 -0.00637645 0)
(-0.0806162 -0.00664466 0)
(-0.0751418 -0.00814718 0)
(-0.0675504 -0.0101757 0)
(-0.0569896 -0.01293 0)
(-0.0428061 -0.0166093 0)
(-0.0247231 -0.0211911 0)
(0.0033238 -0.0261958 0)
(0.0352552 -0.032342 0)
(0.0446676 -0.046866 0)
(0.0440423 -0.0333225 0)
(0.0407233 -0.00793278 0)
(0.0699454 0.0311095 0)
(0.610551 0.301858 0)
(-0.248175 0.100916 0)
(-0.0359176 0.0646479 0)
(-0.064091 0.0535541 0)
(-0.0737947 0.0453138 0)
(-0.08001 0.0364024 0)
(-0.0848352 0.0262118 0)
(-0.088348 0.0142039 0)
(-0.0901896 0.000123262 0)
(-0.0894791 -0.0153251 0)
(-0.0877063 -0.0304466 0)
(-0.0861828 -0.0439211 0)
(-0.0862929 -0.0550324 0)
(-0.0891121 -0.0631162 0)
(-0.0954391 -0.0670233 0)
(-0.105598 -0.0647327 0)
(-0.115924 -0.0517981 0)
(-0.116733 -0.0232757 0)
(-0.105033 0.00404162 0)
(-0.0889927 0.00910021 0)
(-0.0799273 0.00722404 0)
(-0.0750286 0.00350244 0)
(-0.0724218 -9.37836e-05 0)
(-0.0711584 -0.00275484 0)
(-0.0696592 -0.00427552 0)
(-0.0670953 -0.00611374 0)
(-0.0633605 -0.00864737 0)
(-0.0580304 -0.0122153 0)
(-0.0504442 -0.0171574 0)
(-0.0400216 -0.0237023 0)
(-0.0264617 -0.0316746 0)
(-0.00954407 -0.0396104 0)
(0.0103434 -0.0463196 0)
(0.0233908 -0.052526 0)
(0.0336043 -0.0403518 0)
(0.0465582 -0.013262 0)
(0.0727821 0.0261749 0)
(0.0847631 0.024662 0)
(0.0843107 0.0249692 0)
(-0.0645833 0.0414026 0)
(0.669751 0.343042 0)
(-0.274426 0.125032 0)
(-0.0203929 0.0669239 0)
(-0.0375396 0.0608763 0)
(-0.0467675 0.05212 0)
(-0.0509 0.0408034 0)
(-0.0526712 0.0289097 0)
(-0.0531583 0.0155902 0)
(-0.0519191 -3.8724e-05 0)
(-0.0486786 -0.0169359 0)
(-0.0460035 -0.0321319 0)
(-0.0448942 -0.0441635 0)
(-0.0462517 -0.0527369 0)
(-0.0505468 -0.057816 0)
(-0.0577051 -0.0588521 0)
(-0.0667801 -0.0544783 0)
(-0.0744305 -0.0425881 0)
(-0.0757539 -0.0241311 0)
(-0.0697399 -0.00826802 0)
(-0.0614057 -0.00142189 0)
(-0.0550421 0.000286751 0)
(-0.0510284 -0.000722052 0)
(-0.0491075 -0.00269649 0)
(-0.0483906 -0.00474552 0)
(-0.047951 -0.00664857 0)
(-0.0471981 -0.00907737 0)
(-0.0458404 -0.0125593 0)
(-0.0435606 -0.0174929 0)
(-0.0399226 -0.0242471 0)
(-0.0345414 -0.0329411 0)
(-0.0272721 -0.0431031 0)
(-0.0183764 -0.0531196 0)
(-0.00875918 -0.0607616 0)
(-0.000423773 -0.0639187 0)
(0.00788659 -0.0548391 0)
(0.0207676 -0.0340986 0)
(0.0445441 -0.00512269 0)
(0.0595948 0.00791895 0)
(0.0751038 0.0306839 0)
(-0.0747611 0.075522 0)
(0.689524 0.380412 0)
(-0.283792 0.120978 0)
(-0.00335427 0.0346477 0)
(0.0096568 0.0619288 0)
(-0.00206486 0.0621724 0)
(-0.00848522 0.0435993 0)
(-0.00786084 0.0278202 0)
(-0.00529952 0.0131372 0)
(0.0006171 -0.00424212 0)
(0.00565247 -0.0214266 0)
(0.007899 -0.034921 0)
(0.00745827 -0.0442472 0)
(0.00423264 -0.049777 0)
(-0.00190713 -0.052122 0)
(-0.0102424 -0.0512764 0)
(-0.0194644 -0.0466297 0)
(-0.027102 -0.0372359 0)
(-0.0303839 -0.024427 0)
(-0.0288434 -0.012978 0)
(-0.0250986 -0.00642349 0)
(-0.0218619 -0.00350991 0)
(-0.0199045 -0.00286629 0)
(-0.0192051 -0.00348579 0)
(-0.0193988 -0.00477105 0)
(-0.0200873 -0.0065464 0)
(-0.0209955 -0.00913222 0)
(-0.0220079 -0.0129757 0)
(-0.0230302 -0.0185341 0)
(-0.0239202 -0.0262221 0)
(-0.024517 -0.0360695 0)
(-0.0247687 -0.0474297 0)
(-0.0249222 -0.0582265 0)
(-0.0254925 -0.0657527 0)
(-0.0272738 -0.0679455 0)
(-0.028742 -0.0626236 0)
(-0.0254959 -0.0510355 0)
(-0.0121759 -0.0378712 0)
(0.0183261 -0.0275196 0)
(0.0643912 0.0159764 0)
(-0.0830083 0.109052 0)
(0.78058 0.396164 0)
(-0.104933 0.0940932 0)
(0.0716724 -0.0422175 0)
(0.115918 0.0178448 0)
(0.0913302 0.0409161 0)
(0.0732379 0.0282734 0)
(0.0705057 0.0130868 0)
(0.07165 -0.000470793 0)
(0.0745409 -0.0143069 0)
(0.075653 -0.0264863 0)
(0.0733786 -0.035804 0)
(0.0683615 -0.0417384 0)
(0.0611972 -0.044478 0)
(0.0523314 -0.0445495 0)
(0.0422996 -0.0423649 0)
(0.0319843 -0.0379288 0)
(0.022925 -0.0309764 0)
(0.016905 -0.0222002 0)
(0.0144544 -0.0139447 0)
(0.0141986 -0.00820388 0)
(0.0144659 -0.00491506 0)
(0.0144827 -0.00345351 0)
(0.0139946 -0.00321827 0)
(0.0129861 -0.00380255 0)
(0.0115047 -0.00505235 0)
(0.00954717 -0.00711243 0)
(0.00699454 -0.0103003 0)
(0.00362985 -0.015034 0)
(-0.000997754 -0.0219356 0)
(-0.00708429 -0.0308939 0)
(-0.0148407 -0.0412445 0)
(-0.0248546 -0.0506476 0)
(-0.037429 -0.0561417 0)
(-0.0536314 -0.0563418 0)
(-0.0724142 -0.0498383 0)
(-0.0896334 -0.0343665 0)
(-0.099528 -0.00664891 0)
(-0.105494 0.0336565 0)
(-0.137804 0.0786022 0)
(-0.323033 0.128986 0)
(0.905837 0.388735 0)
(0.427004 0.251834 0)
(0.385783 0.154143 0)
(0.386113 0.147265 0)
(0.2999 0.119809 0)
(0.241651 0.0823909 0)
(0.214231 0.0511551 0)
(0.197128 0.0265595 0)
(0.181196 0.00604364 0)
(0.16392 -0.0105409 0)
(0.147622 -0.0219322 0)
(0.132446 -0.0285032 0)
(0.118225 -0.031226 0)
(0.104837 -0.0311126 0)
(0.0922363 -0.0289399 0)
(0.0805694 -0.0252226 0)
(0.0703441 -0.0202842 0)
(0.0623187 -0.014659 0)
(0.056845 -0.00934628 0)
(0.0533712 -0.00524006 0)
(0.0510306 -0.00255843 0)
(0.0492047 -0.0010961 0)
(0.0475122 -0.000549501 0)
(0.0457206 -0.00066859 0)
(0.0436586 -0.00133023 0)
(0.0411599 -0.00258881 0)
(0.0380088 -0.00462338 0)
(0.033848 -0.00768548 0)
(0.0280211 -0.0120862 0)
(0.0196949 -0.0179706 0)
(0.00800582 -0.0250255 0)
(-0.0092091 -0.0312129 0)
(-0.0309062 -0.0324433 0)
(-0.0595482 -0.0288849 0)
(-0.0943821 -0.0227013 0)
(-0.129062 -0.0159728 0)
(-0.153317 -0.0112551 0)
(-0.167412 -0.016975 0)
(-0.190971 -0.0414863 0)
(-0.322787 -0.0890427 0)
(-0.941274 0.0309237 0)
(0.245484 0.13664 0)
(0.185115 0.113026 0)
(0.181535 0.085427 0)
(0.192381 0.0592094 0)
(0.19607 0.0368921 0)
(0.192473 0.0202593 0)
(0.185053 0.00928332 0)
(0.17517 0.00168969 0)
(0.163806 -0.00352127 0)
(0.15148 -0.00650056 0)
(0.138815 -0.00745837 0)
(0.126447 -0.00668621 0)
(0.114943 -0.0045917 0)
(0.104792 -0.00156053 0)
(0.0963886 0.00192169 0)
(0.0899316 0.00521615 0)
(0.0852342 0.00776374 0)
(0.0818689 0.00912259 0)
(0.0792921 0.00964801 0)
(0.0771037 0.00965079 0)
(0.0750379 0.00930007 0)
(0.0728952 0.00862435 0)
(0.0705082 0.00739407 0)
(0.0676522 0.00527725 0)
(0.0639226 0.00223149 0)
(0.0587819 -0.00175274 0)
(0.0515727 -0.00658959 0)
(0.0417804 -0.0117652 0)
(0.0293466 -0.0157842 0)
(0.0157639 -0.0158335 0)
(0.00323635 -0.0102789 0)
(-0.00518543 -0.00156949 0)
(-0.00683414 0.00659922 0)
(-0.00907638 0.0149955 0)
(-0.00627315 0.0170645 0)
(0.056703 -0.0358859 0)
(-0.0648678 -0.129192 0)
(-0.489453 0.100751 0)
(0.217219 0.0343031 0)
(0.113362 0.0355585 0)
(0.124052 0.0394105 0)
(0.151247 0.0220496 0)
(0.169094 -0.00224954 0)
(0.177379 -0.0257391 0)
(0.179347 -0.0466215 0)
(0.176535 -0.0635946 0)
(0.16933 -0.0750424 0)
(0.158978 -0.0819402 0)
(0.147088 -0.0853801 0)
(0.135083 -0.0863001 0)
(0.124034 -0.085557 0)
(0.114673 -0.0834025 0)
(0.107468 -0.0805219 0)
(0.102504 -0.0778162 0)
(0.099444 -0.0757731 0)
(0.0975925 -0.0742921 0)
(0.0963444 -0.0735017 0)
(0.0953313 -0.0733496 0)
(0.0943265 -0.0736944 0)
(0.0931735 -0.0744108 0)
(0.0916804 -0.0753232 0)
(0.0895064 -0.0762076 0)
(0.0863105 -0.0770669 0)
(0.0817985 -0.0775209 0)
(0.075782 -0.0771761 0)
(0.0681915 -0.0764471 0)
(0.0593772 -0.0755406 0)
(0.0507074 -0.0745433 0)
(0.0444882 -0.0736677 0)
(0.0430464 -0.073124 0)
(0.0465752 -0.0727029 0)
(0.0543068 -0.0745029 0)
(0.065456 -0.0817198 0)
(0.0925443 -0.0923916 0)
(-0.0451006 -0.125214 0)
(0.69489 0.183871 0)
(0.094732 -0.284016 0)
(-0.340825 0.140471 0)
(0.136912 0.0646221 0)
(-0.00087001 0.116029 0)
(0.0436181 0.140149 0)
(0.080886 0.14699 0)
(0.107362 0.156632 0)
(0.122091 0.172457 0)
(0.127563 0.192912 0)
(0.12733 0.214298 0)
(0.124595 0.231427 0)
(0.120968 0.243817 0)
(0.11728 0.251946 0)
(0.113987 0.256517 0)
(0.111315 0.258502 0)
(0.109394 0.258011 0)
(0.108242 0.255941 0)
(0.107782 0.253556 0)
(0.107841 0.251529 0)
(0.108232 0.249874 0)
(0.108792 0.248767 0)
(0.109345 0.248201 0)
(0.10975 0.248059 0)
(0.109907 0.248212 0)
(0.109721 0.248444 0)
(0.109124 0.248571 0)
(0.108055 0.248652 0)
(0.106399 0.248078 0)
(0.104061 0.246352 0)
(0.100983 0.244256 0)
(0.0971 0.242463 0)
(0.0925705 0.241691 0)
(0.0878181 0.242151 0)
(0.0831887 0.243208 0)
(0.0784945 0.244352 0)
(0.0725562 0.245713 0)
(0.062122 0.244338 0)
(0.0944406 0.233165 0)
(-0.221173 0.315308 0)
)
;

boundaryField
{
    floor
    {
        type            noSlip;
    }
    ceiling
    {
        type            noSlip;
    }
    sWall
    {
        type            noSlip;
    }
    nWall
    {
        type            noSlip;
    }
    sideWalls
    {
        type            empty;
    }
    glass1
    {
        type            noSlip;
    }
    glass2
    {
        type            noSlip;
    }
    sun
    {
        type            noSlip;
    }
    heatsource1
    {
        type            noSlip;
    }
    heatsource2
    {
        type            noSlip;
    }
    Table_master
    {
        type            noSlip;
    }
    Table_slave
    {
        type            noSlip;
    }
    inlet
    {
        type            fixedValue;
        value           uniform (0.092388 -0.0382683 0);
    }
    outlet
    {
        type            zeroGradient;
    }
}


// ************************************************************************* //
