/*--------------------------------*- C++ -*----------------------------------*\
  =========                 |
  \\      /  F ield         | OpenFOAM: The Open Source CFD Toolbox
   \\    /   O peration     | Website:  https://openfoam.org
    \\  /    A nd           | Version:  6
     \\/     M anipulation  |
\*---------------------------------------------------------------------------*/
FoamFile
{
    version     2.0;
    format      ascii;
    class       volScalarField;
    location    "390";
    object      k;
}
// * * * * * * * * * * * * * * * * * * * * * * * * * * * * * * * * * * * * * //

dimensions      [0 2 -2 0 0 0 0];

internalField   nonuniform List<scalar> 
458
(
0.0023609
0.00280798
0.00294639
0.00324012
0.00352423
0.00380586
0.00410073
0.00440674
0.00466285
0.00482329
0.00483332
0.00464471
0.00420958
0.00330653
0.00196678
0.00047915
0.000659808
0.000856643
0.000941125
0.000914644
0.000799062
0.000680429
0.000582667
0.000504381
0.00044116
0.000389575
0.000347084
0.000311593
0.000281028
0.000253562
0.000227415
0.000211119
0.000177222
0.00424616
0.00777441
0.00437504
0.00462446
0.00500046
0.00545931
0.00600045
0.00661426
0.00726091
0.00779717
0.00807013
0.0079812
0.00752067
0.00663579
0.00530023
0.00342337
0.00236943
0.001568
0.000467351
0.00101842
0.00139147
0.00157047
0.00159082
0.00135619
0.00109905
0.000891756
0.000734232
0.000613961
0.000520819
0.000447049
0.000386536
0.000336018
0.000299395
0.000278322
0.000494643
0.000295764
0.00623867
0.0139533
0.00517346
0.00499233
0.00523924
0.00562378
0.00613904
0.00678848
0.0074903
0.00808015
0.0084378
0.00848281
0.00818467
0.00746303
0.00638019
0.00518122
0.00414742
0.00223212
0.00109034
0.00146264
0.00171015
0.00186827
0.00187016
0.0014545
0.00110795
0.000856234
0.000676528
0.000547171
0.000452571
0.000382316
0.000329985
0.000292194
0.000272141
0.000275387
0.000772259
0.000407124
0.00851359
0.0226064
0.00623118
0.004972
0.00503144
0.00534076
0.00585934
0.00662423
0.00738898
0.00799389
0.00839691
0.00851871
0.00826417
0.00759686
0.00668413
0.00578493
0.00492369
0.00369382
0.00294032
0.00263386
0.00252079
0.00251437
0.00248698
0.00235117
0.00186555
0.0015604
0.00136444
0.00122566
0.00111315
0.00100998
0.000916264
0.000822462
0.000719961
0.000543939
0.000430739
0.00111743
0.000535849
0.0112031
0.034379
0.00883487
0.00503689
0.00477061
0.00504403
0.0057453
0.00686468
0.00769908
0.00828113
0.00868039
0.00878313
0.00843193
0.00763803
0.0066121
0.0056671
0.00490201
0.00425193
0.00404302
0.00373889
0.00352569
0.00335446
0.00314219
0.00285637
0.00253634
0.00230704
0.00215839
0.00203809
0.00191225
0.00175878
0.00156944
0.00135679
0.00113233
0.000886517
0.000674922
0.00092087
0.00103783
0.000952829
0.00107518
0.00127338
0.0144958
0.0471524
0.0155732
0.00634405
0.00511539
0.00521039
0.00642319
0.00788052
0.00859484
0.0090568
0.00936614
0.00937768
0.00887764
0.00783084
0.00650355
0.00531444
0.00452223
0.00417664
0.00416171
0.00418638
0.00410332
0.00387519
0.00353408
0.00314282
0.00281044
0.00261572
0.00250555
0.00241396
0.00230564
0.00215928
0.00195083
0.00170393
0.00144047
0.00117384
0.000953721
0.000910237
0.00102508
0.00104684
0.00164213
0.00137193
0.0181135
0.0554963
0.0277837
0.0131198
0.00905582
0.00824485
0.00937489
0.00991062
0.0101122
0.0102972
0.0104392
0.0102883
0.0095451
0.00816116
0.00647083
0.005039
0.00424778
0.00412396
0.00431106
0.00441122
0.00427708
0.00395014
0.00353013
0.00311871
0.0028191
0.0026714
0.00261311
0.00258198
0.00254773
0.00249074
0.00238101
0.00218519
0.00194597
0.0016916
0.00148811
0.00139289
0.00147462
0.00170274
0.00225104
0.00195569
0.0190502
0.0567695
0.0385505
0.0277262
0.0205924
0.0169112
0.0145003
0.0129282
0.0121779
0.011953
0.0118468
0.0114216
0.0102834
0.00842315
0.00629931
0.00471882
0.00405525
0.00406229
0.00420504
0.00417937
0.00392353
0.00353619
0.00313284
0.00280439
0.0026061
0.0025348
0.00254411
0.00259864
0.00268563
0.00280255
0.00294684
0.00307906
0.00312741
0.00316641
0.00332895
0.00391386
0.00516414
0.00684803
0.0127774
0.00465307
0.0182831
0.0264883
0.0243566
0.0217102
0.0189577
0.0166054
0.0149078
0.0140302
0.0137663
0.0136969
0.0134109
0.0125277
0.0106622
0.00804994
0.00538007
0.00414613
0.00372319
0.00365053
0.00359724
0.00342212
0.00312712
0.002787
0.00248855
0.00228672
0.00219611
0.00219643
0.00225801
0.00236329
0.00250691
0.00268891
0.00290981
0.00316711
0.00348569
0.00389731
0.00443876
0.00507699
0.00566268
0.00602613
0.00620395
0.00405906
0.00698291
0.0108436
0.0134604
0.0150126
0.0160394
0.0166734
0.0166272
0.0158774
0.0144997
0.0123842
0.00881081
0.00578084
0.00404954
0.00331458
0.00300751
0.0028365
0.00265522
0.0024227
0.00216922
0.00193859
0.00177088
0.00168609
0.00167466
0.00171638
0.00179574
0.00190603
0.00204741
0.00222531
0.00245103
0.00274806
0.00311543
0.00355226
0.00403548
0.00447367
0.00469754
0.00456771
0.00411499
0.00263314
0.00805253
0.0201301
0.022858
0.0230873
0.0224816
0.020062
0.0168001
0.0130066
0.00945973
0.00643149
0.00430971
0.00316364
0.002578
0.00225489
0.00203915
0.00184944
0.00165655
0.00147105
0.00132111
0.00122639
0.00118795
0.00119471
0.00124057
0.00131937
0.00142908
0.00157112
0.00174905
0.00196768
0.00223889
0.00257049
0.00297226
0.00344522
0.00396271
0.00445803
0.0047548
0.00502969
0.00431272
0.00270477
0.00896374
0.00943116
0.00986122
0.01224
0.0109321
0.00859655
0.00628531
0.0047337
0.00379947
0.00295271
0.00226552
0.00177671
0.00140702
0.00116993
0.00102367
0.000922663
0.000844037
0.000778571
0.000726498
0.000692748
0.00068088
0.000690251
0.00071793
0.000760883
0.000815505
0.000881565
0.000959842
0.0010521
0.00116147
0.00129346
0.00145064
0.00163572
0.00185323
0.00210846
0.0024062
0.00278979
0.00295556
0.00283024
0.00245051
0.00209641
)
;

boundaryField
{
    floor
    {
        type            kqRWallFunction;
        value           nonuniform List<scalar> 
36
(
0.00196678
0.00047915
0.000659808
0.000856643
0.000941125
0.000914644
0.000799062
0.000680429
0.000582667
0.000504381
0.00044116
0.000389575
0.000347084
0.000311593
0.000281028
0.000253562
0.000227415
0.000211119
0.000177222
0.000177222
0.000295764
0.000407124
0.000535849
0.000952829
0.00107518
0.00127338
0.00196678
0.00342337
0.00236943
0.001568
0.00047915
0.001568
0.000467351
0.00223212
0.00109034
0.00294032
)
;
    }
    ceiling
    {
        type            kqRWallFunction;
        value           nonuniform List<scalar> 
43
(
0.00896374
0.00943116
0.00986122
0.01224
0.0109321
0.00859655
0.00628531
0.0047337
0.00379947
0.00295271
0.00226552
0.00177671
0.00140702
0.00116993
0.00102367
0.000922663
0.000844037
0.000778571
0.000726498
0.000692748
0.00068088
0.000690251
0.00071793
0.000760883
0.000815505
0.000881565
0.000959842
0.0010521
0.00116147
0.00129346
0.00145064
0.00163572
0.00185323
0.00210846
0.0024062
0.00278979
0.00295556
0.00283024
0.00245051
0.00209641
0.0182831
0.0264883
0.00805253
)
;
    }
    sWall
    {
        type            kqRWallFunction;
        value           uniform 0.00896374;
    }
    nWall
    {
        type            kqRWallFunction;
        value           nonuniform List<scalar> 6(0.00127338 0.00137193 0.00195569 0.00263314 0.00270477 0.00209641);
    }
    sideWalls
    {
        type            empty;
    }
    glass1
    {
        type            kqRWallFunction;
        value           nonuniform List<scalar> 9(0.0023609 0.00424616 0.00623867 0.00851359 0.0112031 0.0144958 0.0181135 0.0190502 0.0182831);
    }
    glass2
    {
        type            kqRWallFunction;
        value           nonuniform List<scalar> 2(0.00465307 0.00405906);
    }
    sun
    {
        type            kqRWallFunction;
        value           nonuniform List<scalar> 
14
(
0.0023609
0.00280798
0.00294639
0.00324012
0.00352423
0.00380586
0.00410073
0.00440674
0.00466285
0.00482329
0.00483332
0.00464471
0.00420958
0.00330653
)
;
    }
    Table_master
    {
        type            kqRWallFunction;
        value           nonuniform List<scalar> 9(0.0014545 0.00110795 0.000856234 0.000676528 0.000547171 0.000452571 0.000382316 0.000329985 0.000292194);
    }
    Table_slave
    {
        type            kqRWallFunction;
        value           nonuniform List<scalar> 9(0.00186555 0.0015604 0.00136444 0.00122566 0.00111315 0.00100998 0.000916264 0.000822462 0.000719961);
    }
    inlet
    {
        type            turbulentIntensityKineticEnergyInlet;
        intensity       0.05;
        value           uniform 0.000937501;
    }
    outlet
    {
        type            zeroGradient;
    }
}


// ************************************************************************* //
