/*--------------------------------*- C++ -*----------------------------------*\
  =========                 |
  \\      /  F ield         | OpenFOAM: The Open Source CFD Toolbox
   \\    /   O peration     | Website:  https://openfoam.org
    \\  /    A nd           | Version:  6
     \\/     M anipulation  |
\*---------------------------------------------------------------------------*/
FoamFile
{
    version     2.0;
    format      ascii;
    class       volScalarField;
    location    "390";
    object      T;
}
// * * * * * * * * * * * * * * * * * * * * * * * * * * * * * * * * * * * * * //

dimensions      [0 0 0 1 0 0 0];

internalField   nonuniform List<scalar> 
458
(
302.763
302.487
302.474
302.47
302.467
302.463
302.459
302.454
302.447
302.438
302.43
302.427
302.432
302.448
302.487
302.65
302.626
302.618
302.624
302.632
302.639
302.645
302.651
302.658
302.664
302.67
302.676
302.682
302.689
302.695
302.702
302.711
302.737
302.947
302.521
302.496
302.497
302.498
302.498
302.495
302.489
302.473
302.45
302.426
302.413
302.416
302.432
302.453
302.463
302.473
302.495
302.656
302.602
302.598
302.607
302.618
302.623
302.627
302.63
302.633
302.636
302.639
302.642
302.645
302.65
302.656
302.665
302.679
302.721
303.142
302.566
302.526
302.536
302.549
302.558
302.562
302.556
302.528
302.481
302.432
302.404
302.405
302.427
302.448
302.46
302.469
302.488
302.61
302.587
302.589
302.606
302.627
302.628
302.63
302.632
302.633
302.635
302.637
302.639
302.642
302.644
302.651
302.659
302.672
302.716
303.341
302.625
302.559
302.578
302.607
302.635
302.654
302.651
302.605
302.524
302.442
302.395
302.395
302.424
302.453
302.47
302.477
302.486
302.496
302.515
302.547
302.584
302.623
302.657
302.684
302.704
302.72
302.734
302.746
302.754
302.762
302.768
302.772
302.742
302.711
302.693
302.719
303.537
302.701
302.594
302.611
302.655
302.705
302.749
302.754
302.684
302.563
302.447
302.384
302.386
302.424
302.467
302.494
302.504
302.51
302.526
302.554
302.592
302.636
302.679
302.718
302.751
302.776
302.795
302.81
302.821
302.827
302.828
302.824
302.815
302.792
302.756
302.722
302.723
302.818
302.901
302.902
303.714
302.8
302.651
302.642
302.683
302.744
302.823
302.832
302.73
302.576
302.44
302.37
302.376
302.429
302.492
302.536
302.557
302.569
302.592
302.626
302.668
302.713
302.756
302.793
302.823
302.846
302.863
302.875
302.882
302.884
302.878
302.868
302.853
302.829
302.795
302.756
302.74
302.78
302.811
302.854
303.871
302.963
302.797
302.749
302.759
302.806
302.885
302.866
302.73
302.547
302.4
302.338
302.366
302.446
302.536
302.6
302.636
302.658
302.686
302.721
302.761
302.802
302.839
302.87
302.894
302.91
302.922
302.928
302.93
302.928
302.919
302.904
302.885
302.86
302.83
302.795
302.772
302.78
302.794
302.825
304.102
303.424
303.23
303.095
303.027
303.024
303.012
302.876
302.651
302.435
302.304
302.286
302.366
302.491
302.613
302.693
302.736
302.761
302.789
302.821
302.855
302.888
302.915
302.936
302.951
302.96
302.964
302.965
302.962
302.957
302.947
302.933
302.914
302.893
302.869
302.845
302.831
302.837
302.856
303.003
304.432
304.117
303.871
303.635
303.447
303.306
303.053
302.685
302.356
302.171
302.143
302.238
302.416
302.596
302.743
302.806
302.839
302.86
302.884
302.91
302.935
302.956
302.973
302.984
302.99
302.993
302.992
302.989
302.984
302.979
302.974
302.971
302.97
302.974
302.986
303.008
303.042
303.078
303.106
303.171
297.576
299.23
300.243
300.657
300.852
301.084
301.369
301.7
302.023
302.324
302.63
302.792
302.87
302.905
302.925
302.943
302.962
302.979
302.994
303.005
303.012
303.016
303.017
303.016
303.015
303.014
303.012
303.011
303.011
303.011
303.014
303.021
303.034
303.054
303.081
303.109
303.135
303.162
297.942
299.317
300.163
300.631
301.015
301.411
301.816
302.255
302.55
302.749
302.871
302.932
302.962
302.98
302.994
303.006
303.017
303.026
303.032
303.036
303.037
303.038
303.038
303.037
303.036
303.035
303.035
303.035
303.034
303.035
303.038
303.043
303.051
303.065
303.083
303.105
303.107
303.142
299.497
299.456
299.453
300.514
301.193
301.758
302.234
302.544
302.727
302.855
302.933
302.978
303.008
303.025
303.037
303.045
303.051
303.056
303.06
303.062
303.063
303.062
303.062
303.06
303.059
303.058
303.056
303.055
303.054
303.053
303.052
303.052
303.052
303.054
303.058
303.067
303.078
303.086
303.091
303.132
)
;

boundaryField
{
    floor
    {
        type            wallHeatTransfer;
        Tinf            uniform 305.2;
        alphaWall       uniform 0.24;
        value           nonuniform List<scalar> 
36
(
302.791
303.121
303.053
303.009
303.002
303.012
303.036
303.064
303.092
303.119
303.145
303.17
303.194
303.217
303.24
303.263
303.287
303.308
303.358
303.358
303.256
303.2
303.161
303.165
303.222
303.204
302.791
302.711
302.758
302.825
303.121
302.825
303.13
302.778
302.97
302.756
)
;
    }
    ceiling
    {
        type            wallHeatTransfer;
        Tinf            uniform 303.2;
        alphaWall       uniform 0.24;
        value           nonuniform List<scalar> 
43
(
299.724
299.681
299.675
300.659
301.307
301.849
302.303
302.596
302.768
302.888
302.961
303.004
303.032
303.049
303.06
303.068
303.074
303.079
303.082
303.084
303.085
303.085
303.084
303.082
303.081
303.079
303.077
303.076
303.074
303.072
303.071
303.07
303.069
303.07
303.073
303.08
303.089
303.097
303.102
303.14
304.375
304.08
298.278
)
;
    }
    sWall
    {
        type            wallHeatTransfer;
        Tinf            uniform 315.2;
        alphaWall       uniform 0.36;
        value           uniform 300.904;
    }
    nWall
    {
        type            wallHeatTransfer;
        Tinf            uniform 307.2;
        alphaWall       uniform 0.36;
        value           nonuniform List<scalar> 6(303.699 303.639 303.524 303.742 303.719 303.767);
    }
    sideWalls
    {
        type            empty;
    }
    glass1
    {
        type            wallHeatTransfer;
        Tinf            uniform 315.2;
        alphaWall       uniform 4.3;
        value           nonuniform List<scalar> 9(311.241 310.604 310.199 309.889 309.63 309.392 309.195 309.257 309.483);
    }
    glass2
    {
        type            wallHeatTransfer;
        Tinf            uniform 307.2;
        alphaWall       uniform 4.3;
        value           nonuniform List<scalar> 2(305.573 305.694);
    }
    sun
    {
        type            wallHeatTransfer;
        Tinf            uniform 305.2;
        alphaWall       uniform 0.24;
        value           nonuniform List<scalar> 
14
(
303.018
302.753
302.736
302.723
302.712
302.701
302.691
302.68
302.668
302.657
302.65
302.65
302.663
302.701
)
;
    }
    Table_master
    {
        type            zeroGradient;
    }
    Table_slave
    {
        type            zeroGradient;
    }
    inlet
    {
        type            fixedValue;
        value           uniform 295.15;
    }
    outlet
    {
        type            zeroGradient;
    }
}


// ************************************************************************* //
