/*--------------------------------*- C++ -*----------------------------------*\
  =========                 |
  \\      /  F ield         | OpenFOAM: The Open Source CFD Toolbox
   \\    /   O peration     | Website:  https://openfoam.org
    \\  /    A nd           | Version:  6
     \\/     M anipulation  |
\*---------------------------------------------------------------------------*/
FoamFile
{
    version     2.0;
    format      ascii;
    class       volScalarField;
    location    "50";
    object      epsilon;
}
// * * * * * * * * * * * * * * * * * * * * * * * * * * * * * * * * * * * * * //

dimensions      [0 2 -3 0 0 0 0];

internalField   nonuniform List<scalar> 
458
(
0.000587133
0.000786285
0.00087629
0.00102282
0.00117364
0.00133403
0.00151575
0.00170441
0.0018695
0.00197956
0.00200055
0.00190411
0.00161168
0.0010626
0.000615802
3.51505e-05
6.68649e-05
0.000100715
0.000111001
0.000103641
8.01266e-05
5.86994e-05
4.28034e-05
3.11039e-05
2.26328e-05
1.68288e-05
1.31504e-05
1.10362e-05
1.00419e-05
1.00868e-05
1.15825e-05
1.58719e-05
1.45297e-05
0.00126331
0.00169534
0.000732328
0.00073224
0.000767022
0.000828937
0.000931519
0.00107025
0.00121365
0.00131836
0.00134642
0.00128802
0.00114784
0.000962781
0.000773861
0.00130691
0.000816389
0.000449915
3.88156e-05
7.65717e-05
9.02185e-05
8.58013e-05
7.90687e-05
7.5934e-05
5.46792e-05
3.88412e-05
2.76274e-05
1.97947e-05
1.4539e-05
1.12095e-05
9.29211e-06
8.55584e-06
9.59596e-06
1.37796e-05
3.46118e-05
3.18151e-05
0.00212175
0.00368192
0.000785724
0.000643948
0.000670111
0.00074823
0.000878044
0.0010502
0.00121707
0.0013318
0.00136766
0.00131901
0.00119025
0.00102271
0.000842023
0.000718409
0.000635221
0.00076144
9.47339e-05
0.00014786
0.000136062
0.000113147
0.000100725
0.000184391
9.64628e-05
5.50118e-05
3.47328e-05
2.37327e-05
1.73296e-05
1.3564e-05
1.15565e-05
1.1567e-05
1.66585e-05
2.42979e-05
5.96336e-05
5.49656e-05
0.00325216
0.00738472
0.00109808
0.000604457
0.000608343
0.000707857
0.000889802
0.00111912
0.00130425
0.00141862
0.00145576
0.00139915
0.00125713
0.00106619
0.000866681
0.000710363
0.000620639
0.000613429
0.000927602
0.000552397
0.000347873
0.000233197
0.000165102
0.000128967
0.000204072
0.00013049
0.000127216
0.000141844
0.000160413
0.000178286
0.000191299
0.000193284
0.000176628
0.00011444
8.37063e-05
9.86757e-05
0.000104658
0.00478814
0.0132387
0.00205627
0.00067377
0.000588493
0.000716744
0.00104502
0.00134911
0.00152768
0.00162532
0.0016459
0.00156356
0.00137571
0.00112126
0.000870363
0.000677027
0.000553495
0.00050138
0.000517027
0.000414655
0.000320643
0.000248646
0.000186659
0.000134363
0.000103871
8.70396e-05
8.69168e-05
9.43297e-05
0.000105439
0.000118311
0.000130446
0.000138106
0.000137449
0.000127521
0.000115042
0.000112843
0.000122703
0.000219804
0.000213694
0.000179586
0.00694248
0.0200585
0.00462348
0.00123318
0.000838275
0.000987342
0.00156511
0.00182304
0.00192591
0.00197434
0.00195952
0.00182519
0.00155745
0.00120895
0.000877377
0.000629355
0.00047846
0.000416306
0.000403275
0.000359775
0.000301051
0.00023672
0.000174723
0.000125926
9.89814e-05
9.13416e-05
9.50371e-05
0.000104764
0.000119208
0.000137873
0.000158822
0.00017801
0.000189851
0.000184559
0.000170545
0.000156878
0.000154218
0.00018394
0.000357574
0.000367953
0.00944803
0.0243198
0.00943784
0.00393009
0.00264245
0.0026763
0.00272276
0.00263622
0.00255387
0.00250616
0.00241592
0.00218331
0.00179188
0.00131353
0.000883148
0.000577613
0.000406422
0.000348889
0.000337708
0.000308134
0.000258258
0.000202818
0.000154175
0.000120706
0.000105241
0.000103849
0.000110983
0.000124221
0.000144114
0.000171685
0.000205916
0.000243897
0.000281643
0.000313151
0.000312246
0.00031552
0.000334183
0.000366919
0.000629243
0.000650716
0.0100894
0.0263051
0.0148938
0.00986721
0.00726989
0.00559819
0.00442175
0.00373018
0.00340026
0.00323742
0.00302767
0.00261894
0.00202937
0.00136228
0.000820338
0.000450026
0.000325073
0.000291872
0.000281189
0.000254889
0.000215468
0.000176044
0.000144812
0.000125557
0.000118855
0.000122613
0.00013352
0.000150891
0.000176659
0.000213182
0.000261348
0.000321694
0.0003973
0.000495874
0.000626358
0.000785174
0.00103098
0.00122358
0.00264909
0.00110501
0.00941449
0.0160456
0.0121917
0.00923546
0.00713221
0.00568455
0.00482651
0.00445097
0.00432945
0.00417502
0.00375732
0.00298543
0.0020665
0.00109464
0.000551398
0.000339644
0.000269969
0.000249548
0.00023806
0.000217962
0.000192328
0.000168964
0.000152612
0.000145087
0.0001462
0.000154802
0.00016815
0.000185996
0.000211358
0.000247861
0.000297522
0.000362249
0.000445697
0.00055145
0.000680685
0.000839676
0.00103016
0.00124069
0.00147498
0.00102352
0.00247574
0.00348993
0.00446117
0.00529421
0.00589266
0.00615324
0.00592671
0.00515599
0.00391904
0.00218174
0.00111397
0.000574972
0.000360651
0.000275568
0.000245507
0.000235602
0.000228317
0.000217735
0.000207175
0.000201598
0.000203522
0.00021228
0.000224654
0.000237166
0.000247906
0.000255998
0.000264868
0.00027998
0.000304794
0.000341935
0.000397042
0.000475709
0.000579859
0.000697223
0.000804222
0.000872125
0.000893307
0.000628502
0.00285293
0.0117494
0.0124759
0.011017
0.00894672
0.00701612
0.00507097
0.00331057
0.00195402
0.00105307
0.00060455
0.000394477
0.000304358
0.000265378
0.00024974
0.000245119
0.000246446
0.000253744
0.000271153
0.000303563
0.000352452
0.000412038
0.000469539
0.000512451
0.000539294
0.0005541
0.00056112
0.000568282
0.000577612
0.000586243
0.000593289
0.000607298
0.000640492
0.000690479
0.000734112
0.000759744
0.0010035
0.000716712
0.00363601
0.00405896
0.0044475
0.00647552
0.0056691
0.00426362
0.00318276
0.00252017
0.00197235
0.0014698
0.001061
0.000776975
0.000609845
0.000521936
0.000477919
0.0004562
0.00044447
0.00043552
0.000425376
0.000413523
0.000401605
0.000391413
0.000383854
0.000378897
0.000376614
0.000378847
0.000386016
0.000394693
0.000402343
0.000408705
0.000416155
0.000428335
0.00045097
0.00048938
0.000544564
0.000613091
0.000648777
0.000596992
0.000486591
0.000382438
)
;

boundaryField
{
    floor
    {
        Cmu             0.09;
        kappa           0.41;
        E               9.8;
        type            epsilonWallFunction;
        value           nonuniform List<scalar> 
36
(
0.000615802
3.51505e-05
6.68649e-05
0.000100715
0.000111001
0.000103641
8.01266e-05
5.86994e-05
4.28034e-05
3.11039e-05
2.26328e-05
1.68288e-05
1.31504e-05
1.10362e-05
1.00419e-05
1.00868e-05
1.15825e-05
1.58719e-05
1.45297e-05
1.45297e-05
3.18151e-05
5.49656e-05
0.000104658
0.000219804
0.000213694
0.000179586
0.000615802
0.00130691
0.000816389
0.000449915
3.51505e-05
0.000449915
3.88156e-05
0.00076144
9.47339e-05
0.000927602
)
;
    }
    ceiling
    {
        Cmu             0.09;
        kappa           0.41;
        E               9.8;
        type            epsilonWallFunction;
        value           nonuniform List<scalar> 
43
(
0.00363601
0.00405896
0.0044475
0.00647552
0.0056691
0.00426362
0.00318276
0.00252017
0.00197235
0.0014698
0.001061
0.000776975
0.000609845
0.000521936
0.000477919
0.0004562
0.00044447
0.00043552
0.000425376
0.000413523
0.000401605
0.000391413
0.000383854
0.000378897
0.000376614
0.000378847
0.000386016
0.000394693
0.000402343
0.000408705
0.000416155
0.000428335
0.00045097
0.00048938
0.000544564
0.000613091
0.000648777
0.000596992
0.000486591
0.000382438
0.00941449
0.0160456
0.00285293
)
;
    }
    sWall
    {
        Cmu             0.09;
        kappa           0.41;
        E               9.8;
        type            epsilonWallFunction;
        value           uniform 0.00363601;
    }
    nWall
    {
        Cmu             0.09;
        kappa           0.41;
        E               9.8;
        type            epsilonWallFunction;
        value           nonuniform List<scalar> 6(0.000179586 0.000367953 0.000650716 0.000628502 0.000716712 0.000382438);
    }
    sideWalls
    {
        type            empty;
    }
    glass1
    {
        Cmu             0.09;
        kappa           0.41;
        E               9.8;
        type            epsilonWallFunction;
        value           nonuniform List<scalar> 9(0.000587133 0.00126331 0.00212175 0.00325216 0.00478814 0.00694248 0.00944803 0.0100894 0.00941449);
    }
    glass2
    {
        Cmu             0.09;
        kappa           0.41;
        E               9.8;
        type            epsilonWallFunction;
        value           nonuniform List<scalar> 2(0.00110501 0.00102352);
    }
    sun
    {
        Cmu             0.09;
        kappa           0.41;
        E               9.8;
        type            epsilonWallFunction;
        value           nonuniform List<scalar> 
14
(
0.000587133
0.000786285
0.00087629
0.00102282
0.00117364
0.00133403
0.00151575
0.00170441
0.0018695
0.00197956
0.00200055
0.00190411
0.00161168
0.0010626
)
;
    }
    Table_master
    {
        Cmu             0.09;
        kappa           0.41;
        E               9.8;
        type            epsilonWallFunction;
        value           nonuniform List<scalar> 9(0.000184391 9.64628e-05 5.50118e-05 3.47328e-05 2.37327e-05 1.73296e-05 1.3564e-05 1.15565e-05 1.1567e-05);
    }
    Table_slave
    {
        Cmu             0.09;
        kappa           0.41;
        E               9.8;
        type            epsilonWallFunction;
        value           nonuniform List<scalar> 9(0.000204072 0.00013049 0.000127216 0.000141844 0.000160413 0.000178286 0.000191299 0.000193284 0.000176628);
    }
    inlet
    {
        type            turbulentMixingLengthDissipationRateInlet;
        mixingLength    0.01;
        phi             phi;
        k               k;
        value           uniform 0.000471672;
    }
    outlet
    {
        type            zeroGradient;
    }
}


// ************************************************************************* //
