/*--------------------------------*- C++ -*----------------------------------*\
  =========                 |
  \\      /  F ield         | OpenFOAM: The Open Source CFD Toolbox
   \\    /   O peration     | Website:  https://openfoam.org
    \\  /    A nd           | Version:  6
     \\/     M anipulation  |
\*---------------------------------------------------------------------------*/
FoamFile
{
    version     2.0;
    format      ascii;
    class       surfaceScalarField;
    location    "50";
    object      phi;
}
// * * * * * * * * * * * * * * * * * * * * * * * * * * * * * * * * * * * * * //

dimensions      [1 0 -1 0 0 0 0];

internalField   nonuniform List<scalar> 
850
(
-0.00312724
0.00318201
-0.00442152
0.00129411
-0.00537956
0.000957892
-0.00608966
0.000709948
-0.00652645
0.000436637
-0.00665541
0.000128815
-0.00643215
-0.000223413
-0.00581751
-0.000614795
-0.00482366
-0.000994014
-0.00353465
-0.00128916
-0.00209378
-0.00144103
-0.000688204
-0.00140574
0.000388249
-0.00107665
0.00075557
-0.00036756
0.000756613
-0.00060279
0.000604231
-0.000321839
-0.00028103
0.000208589
-0.000530542
0.000692553
-0.00048405
0.00105537
-0.000362872
0.00122855
-0.000173218
0.00125991
-3.13798e-05
0.00123443
2.54738e-05
0.00119016
4.42707e-05
0.00114308
4.70764e-05
0.00110182
4.12617e-05
0.00106819
3.36304e-05
0.00103535
3.28442e-05
0.00098099
5.43701e-05
0.000873322
0.000107676
0.000700721
0.000172609
0.000475498
0.000225231
0.000477263
-0.0022316
0.00556326
-0.00339468
0.00245704
-0.00432904
0.0018921
-0.00501715
0.00139791
-0.00544982
0.000869151
-0.00559662
0.000275457
-0.00541118
-0.000409023
-0.00486348
-0.00116266
-0.00398571
-0.00187196
-0.00288542
-0.00238962
-0.00171612
-0.00261048
-0.000633145
-0.00248887
0.00025626
-0.00196622
0.000993479
-0.00110498
0.00196743
-0.000217603
0.00184958
0.000119748
0.00124973
0.000601917
0.00125604
-3.74127e-05
0.000645986
0.000194121
-0.000512778
0.000500128
-0.000836816
0.000783567
-0.000767696
0.00100366
-0.000583096
0.00107074
-0.000240374
0.00107128
-3.19557e-05
0.00106764
2.9095e-05
0.00106379
4.81153e-05
0.00106103
4.98382e-05
0.00106003
4.22573e-05
0.00105992
3.37471e-05
0.00105852
3.42498e-05
0.00103025
8.26478e-05
0.000916091
0.000221836
0.000688408
0.000400296
0.000373118
0.000540524
0.000854903
-0.00154226
0.00733639
-0.00247823
0.00339284
-0.00327327
0.00268698
-0.00385071
0.00197519
-0.00422767
0.00124595
-0.00436828
0.000415896
-0.00419885
-0.000578634
-0.00368638
-0.00167533
-0.00289679
-0.00266174
-0.00196235
-0.00332425
-0.00102509
-0.00354792
-0.000193311
-0.00332081
0.000506157
-0.00266585
0.00113486
-0.00173387
0.00168443
-0.000767396
0.00175578
4.8128e-05
0.00136001
0.000997352
0.00262167
0.000743328
-9.09107e-05
0.000874701
-0.000644532
0.000860031
-0.000822611
0.000889516
-0.000797551
0.0010782
-0.000772015
0.000837855
0.000806001
0.000835231
0.000883494
0.000933484
0.000975896
0.0010098
0.0010442
0.00112701
0.00103048
0.000318366
0.000810325
0.000620447
0.000426857
0.000923993
0.00128847
-0.00104579
0.00868303
-0.00172634
0.00407323
-0.00223058
0.00319106
-0.00259443
0.00233889
-0.0028373
0.00148864
-0.00291275
0.000491157
-0.00270157
-0.000790008
-0.00219243
-0.00218468
-0.00150324
-0.00335115
-0.000770445
-0.00405725
-9.64411e-05
-0.0042221
0.000466391
-0.0038838
0.000943289
-0.0031429
0.00137603
-0.00216679
0.00174279
-0.00113436
0.00195064
-0.000159968
0.00216502
0.000782657
0.00326369
0.00152259
0.00247303
0.000796897
0.0021727
0.000208871
0.0017261
-0.000198605
0.0012787
-0.000375907
0.000884234
-0.00040363
0.000424157
-0.000312251
0.000463147
-3.92682e-05
0.000475433
-1.24721e-05
0.000560689
-8.54136e-05
0.000717499
-0.000156959
0.000927121
-0.000209765
0.00116631
-0.000239332
0.00139971
-0.000233534
0.00156367
-0.0001641
0.00155315
1.03791e-05
0.00150502
0.000366496
0.00130961
0.000815866
0.000916804
0.0013168
0.00221339
-0.000701695
0.00974537
-0.00116395
0.00453531
-0.00124881
0.00327576
-0.00131177
0.00240168
-0.00134083
0.00151753
-0.00124778
0.000397917
-0.000898368
-0.00113963
-0.000380668
-0.00270261
0.000154013
-0.00388607
0.000611817
-0.00451527
0.000960308
-0.00457078
0.0012171
-0.00414076
0.00142135
-0.0033473
0.00159981
-0.00234541
0.0017649
-0.00129964
0.00192851
-0.000323813
0.00217054
0.000540326
0.00254292
0.00114982
0.00238464
0.000954725
0.00208332
0.000509634
0.00166259
0.000221483
0.00119622
8.9816e-05
0.000761989
3.01106e-05
0.000437263
1.21996e-05
0.000352944
4.49369e-05
0.000374932
-3.44954e-05
0.000453636
-0.000164122
0.000579858
-0.000283171
0.000744797
-0.000374687
0.000938647
-0.000433161
0.00114836
-0.000443221
0.00135261
-0.000368336
0.00151462
-0.000151618
0.00163347
0.000247659
0.00170133
0.000748005
0.00177117
0.00124696
0.00250904
0.00147552
0.00176396
0.000752585
0.00117063
0.000600865
0.00121562
-0.000584805
0.0107411
-0.000849639
0.00479996
-0.000382351
0.00280829
-2.04718e-05
0.00203962
0.000235464
0.00126141
0.00063063
2.5509e-06
0.00117757
-0.00168679
0.00163764
-0.00316291
0.00192709
-0.00417575
0.00204887
-0.00463726
0.00204215
-0.00456425
0.00194419
-0.00404296
0.00180655
-0.00320981
0.0016699
-0.00220892
0.00156649
-0.00119641
0.00151104
-0.000268593
0.00154207
0.000509
0.0016663
0.00102523
0.0016115
0.00100907
0.00134492
0.000775698
0.000987808
0.000578047
0.000640432
0.000436723
0.000361088
0.000309142
0.000183622
0.000189502
0.00014473
8.37631e-05
0.000176524
-6.63064e-05
0.000242017
-0.000229608
0.000331879
-0.000373012
0.000444999
-0.000487779
0.000584789
-0.000572919
0.000757099
-0.000615501
0.000967225
-0.000578438
0.00121609
-0.00040047
0.00148583
-2.20757e-05
0.00175223
0.000481612
0.0020579
0.000941285
0.00235009
0.00118333
0.00205203
0.00105065
0.00127877
0.00137412
0.00253289
-0.000614328
0.0118115
-0.000402253
0.0045877
0.00079915
0.0016067
0.00154474
0.00129384
0.00220109
0.00060487
0.00291363
-0.000710201
0.00346306
-0.00223644
0.00373079
-0.00343088
0.00370002
-0.00414522
0.00342131
-0.00435876
0.00297698
-0.0041201
0.00244699
-0.00351313
0.00191145
-0.0026744
0.00142144
-0.00171905
0.0010308
-0.000805931
0.000736408
2.55681e-05
0.000614749
0.000630374
0.000639094
0.00100053
0.000602174
0.00104558
0.000451405
0.000926026
0.00025674
0.000772306
8.28825e-05
0.000610278
-4.30628e-05
0.000434909
-0.000110534
0.000256888
-0.000112548
8.57473e-05
-8.4946e-05
-9.3905e-05
-5.12563e-05
-0.000263275
-1.80216e-05
-0.000406211
1.86132e-05
-0.00052437
7.08148e-05
-0.000625077
0.000157248
-0.000701897
0.000301185
-0.00072235
0.000528618
-0.000627889
0.000859346
-0.0003528
0.00122986
0.000111101
0.0015932
0.000577933
0.00194054
0.000835985
0.00208082
0.00091036
0.00171884
0.0017361
0.00429114
0.00281544
0.00950555
0.00356536
0.00383759
0.00388329
0.00128858
0.00439886
0.000778075
0.00515612
-0.000152586
0.00584683
-0.00140112
0.00609474
-0.00248458
0.00588076
-0.00321714
0.00528446
-0.00354915
0.00442685
-0.00350134
0.00343852
-0.00313193
0.00241932
-0.00249404
0.00148074
-0.00173593
0.000659629
-0.000898058
2.48107e-05
-0.000171262
-0.000336873
0.000387049
-0.000431801
0.00072505
-0.000384493
0.000952921
-0.000345305
0.00100607
-0.000353752
0.000934161
-0.000383439
0.000801738
-0.000408235
0.0006349
-0.000420239
0.000446818
-0.000417822
0.000254432
-0.000402795
7.0719e-05
-0.000395689
-0.000100988
-0.000411991
-0.000246933
-0.000456373
-0.000361775
-0.000523897
-0.00045679
-0.000601715
-0.000547208
-0.000670905
-0.000632671
-0.000705343
-0.000687891
-0.000664473
-0.000668749
-0.000490738
-0.000526536
-0.000158852
-0.000220796
0.000209069
0.000210003
0.000537206
0.000507841
0.000793192
0.00065437
0.00059391
0.00193539
0.00508232
0.010063
0.0138922
0.012539
0.00264157
0.0118389
0.00147797
0.0112052
0.000480998
0.0102851
-0.000481247
0.00904635
-0.0012461
0.00757929
-0.0017503
0.00598327
-0.00195331
0.00436394
-0.00188215
0.00282972
-0.00159781
0.00140338
-0.00106777
0.000183582
-0.000516209
-0.000714631
5.45195e-08
-0.00120742
0.000321393
-0.00135894
0.0005384
-0.00134577
0.000711688
-0.00123357
0.0008405
-0.00110319
0.000875469
-0.000991062
0.000821846
-0.000898168
0.0007087
-0.000820728
0.00055737
-0.000759777
0.000385824
-0.000718972
0.000213621
-0.000705463
5.72317e-05
-0.000731455
-7.49521e-05
-0.000806072
-0.000172254
-0.00093357
-0.000234206
-0.00111462
-0.000275674
-0.00134934
-0.000312427
-0.00164066
-0.000341323
-0.00199584
-0.000332695
-0.0024214
-0.000243176
-0.00291483
-3.31104e-05
-0.00346124
0.000325614
-0.00409434
0.000843099
-0.00504476
0.00145825
-0.0063645
0.00197412
-0.00619284
0.00176373
-0.000891773
0.00900459
0.00435823
0.00743854
0.00304392
0.00688021
0.00103915
0.00627381
0.000125001
0.00531384
-0.000286248
0.00409715
-0.000533677
0.00274765
-0.00060385
0.00136457
-0.000499093
2.18203e-05
-0.000255071
-0.00110102
5.50779e-05
-0.0018294
0.00021214
-0.00215872
0.000329297
-0.00224485
0.000407428
-0.00219945
0.00049287
-0.00206686
0.000578971
-0.00187268
0.00064618
-0.00165978
0.000662447
-0.00145926
0.000621218
-0.00128453
0.000533897
-0.00114249
0.000415295
-0.00103949
0.000282817
-0.000981873
0.000156017
-0.000976557
5.19565e-05
-0.00102666
-2.47874e-05
-0.00113166
-6.71727e-05
-0.00128655
-7.92327e-05
-0.00148644
-7.57081e-05
-0.00172773
-7.10769e-05
-0.00200435
-6.46636e-05
-0.00230225
-3.47687e-05
-0.00259804
5.26273e-05
-0.00286768
0.000236544
-0.00308187
0.000539812
-0.00321868
0.000979914
-0.00327827
0.00151785
-0.00315038
0.00184625
-0.00181784
0.000431212
-0.00265376
-0.000761627
0.00517719
0.000128616
0.00215362
6.50054e-05
0.00110276
-0.000239254
0.000429343
-0.000621851
9.63959e-05
-0.00118079
2.52998e-05
-0.00184847
6.38673e-05
-0.00248119
0.000133652
-0.0029412
0.000204943
-0.00314425
0.000258121
-0.0032016
0.000269455
-0.00314905
0.000276685
-0.00302809
0.000286409
-0.00284622
0.000310916
-0.00261038
0.000343061
-0.00233332
0.000369043
-0.00204266
0.000371725
-0.00176689
0.000345396
-0.0015272
0.000294184
-0.00133855
0.000226634
-0.00121008
0.00015436
-0.00114365
8.96152e-05
-0.00113199
4.03504e-05
-0.00116986
1.31485e-05
-0.00124624
9.2919e-06
-0.00134526
1.98693e-05
-0.00145561
3.47306e-05
-0.00157528
4.86604e-05
-0.00170163
6.17472e-05
-0.00181848
8.21212e-05
-0.00189618
0.000130359
-0.00189363
0.00023402
-0.00176276
0.000408962
-0.00143204
0.000649216
-0.000747934
0.000833763
0.000447482
0.00065086
0.00121115
-0.00033242
-0.00138254
-0.0107332
-0.0141074
-0.00889562
-0.00672268
-0.00560877
-0.00517448
-0.00507751
-0.0050547
-0.00499583
-0.00486948
-0.00467399
-0.00442723
-0.00417062
-0.00390782
-0.003636
-0.00334018
-0.00301261
-0.00265943
-0.00230394
-0.00197514
-0.00169785
-0.00148834
-0.00135128
-0.00127911
-0.00125637
-0.00126103
-0.00126977
-0.00126818
-0.00125202
-0.00122223
-0.0011796
-0.00111674
-0.00100564
-0.000790679
-0.000400439
0.000230463
0.00104611
0.00167846
0.00132664
)
;

boundaryField
{
    floor
    {
        type            calculated;
        value           nonuniform List<scalar> 
36
(
0
0
0
0
0
0
0
0
0
0
0
0
0
0
0
0
0
0
0
-1.76117e-06
-4.51944e-06
-6.70964e-06
-8.1044e-06
-7.49858e-06
-7.54001e-06
-7.66018e-06
-1.34641e-06
-2.20323e-06
-2.42064e-06
-2.6704e-06
-1.48164e-06
-4.08194e-06
-4.37954e-06
-6.04898e-06
-6.56164e-06
-6.69819e-06
)
;
    }
    ceiling
    {
        type            calculated;
        value           nonuniform List<scalar> 
43
(
-3.6266e-05
-3.5399e-05
-3.45457e-05
-1.92572e-05
-1.1081e-05
-4.87625e-06
-5.24949e-07
2.51925e-06
5.0119e-06
7.30528e-06
9.44708e-06
1.134e-05
1.28171e-05
1.38542e-05
1.45562e-05
1.50547e-05
1.54574e-05
1.58333e-05
1.62115e-05
1.65751e-05
1.68875e-05
1.71279e-05
1.73094e-05
1.74733e-05
1.76611e-05
1.78751e-05
1.81058e-05
1.83693e-05
1.86612e-05
1.89496e-05
1.91849e-05
1.93208e-05
1.93039e-05
1.91043e-05
1.87578e-05
1.83428e-05
1.81517e-05
1.85369e-05
1.94463e-05
2.11888e-05
1.14094e-05
8.23239e-06
-5.73515e-05
)
;
    }
    sWall
    {
        type            calculated;
        value           uniform -0.000230238;
    }
    nWall
    {
        type            calculated;
        value           nonuniform List<scalar> 6(-3.73105e-05 -3.84899e-05 -3.94158e-05 -5.58034e-05 -6.00331e-05 -7.70506e-05);
    }
    sideWalls
    {
        type            empty;
        value           nonuniform 0();
    }
    glass1
    {
        type            calculated;
        value           nonuniform List<scalar> 9(-5.49413e-05 -0.000149826 -0.000231039 -0.000301024 -0.000360811 -0.000411111 -0.000456212 -0.000509657 -0.00056901);
    }
    glass2
    {
        type            calculated;
        value           nonuniform List<scalar> 2(-0.000197259 -0.000218736);
    }
    sun
    {
        type            calculated;
        value           uniform 0;
    }
    Table_master
    {
        type            calculated;
        value           nonuniform List<scalar> 9(-1.52321e-07 -1.52443e-07 -1.52453e-07 -1.52446e-07 -1.52438e-07 -1.5243e-07 -1.52424e-07 -1.52415e-07 -1.52385e-07);
    }
    Table_slave
    {
        type            calculated;
        value           nonuniform List<scalar> 9(1.52452e-07 1.52495e-07 1.52462e-07 1.52403e-07 1.52326e-07 1.52239e-07 1.52156e-07 1.521e-07 1.52101e-07);
    }
    inlet
    {
        type            calculated;
        value           uniform -0.0107213;
    }
    outlet
    {
        type            calculated;
        value           nonuniform List<scalar> 2(0.0109997 0.00340963);
    }
}


// ************************************************************************* //
