/*--------------------------------*- C++ -*----------------------------------*\
  =========                 |
  \\      /  F ield         | OpenFOAM: The Open Source CFD Toolbox
   \\    /   O peration     | Website:  https://openfoam.org
    \\  /    A nd           | Version:  6
     \\/     M anipulation  |
\*---------------------------------------------------------------------------*/
FoamFile
{
    version     2.0;
    format      ascii;
    class       volScalarField;
    location    "1400";
    object      alphat;
}
// * * * * * * * * * * * * * * * * * * * * * * * * * * * * * * * * * * * * * //

dimensions      [1 -1 -1 0 0 0 0];

internalField   nonuniform List<scalar> 
778
(
0.000966864
0.00102766
0.00102424
0.00107119
0.00111416
0.00115321
0.00118952
0.00122442
0.00125935
0.00129609
0.00133271
0.00136849
0.00140492
0.00144492
0.00148729
0.00101799
0.0010632
0.00107826
0.00106572
0.00103175
0.00097633
0.000918129
0.000863464
0.000813633
0.000768716
0.000728303
0.000691614
0.000657832
0.000625951
0.000594636
0.000561644
0.000530669
0.000475682
0.00144074
0.002645
0.00228334
0.00264233
0.00288162
0.00313742
0.00339377
0.00363215
0.0038288
0.00395398
0.00402624
0.00400843
0.00383285
0.00337978
0.00254009
0.00163816
0.00158113
0.00153155
0.00138209
0.00268078
0.00379623
0.00436899
0.00429845
0.00323783
0.00272475
0.0023832
0.00212899
0.0019267
0.0017536
0.00159993
0.00145514
0.00131015
0.00117732
0.00106281
0.00115667
0.000582673
0.00184537
0.00373865
0.00264321
0.00385849
0.00430004
0.004687
0.00504717
0.00537086
0.00565044
0.00587525
0.00607176
0.00627651
0.00646945
0.00658996
0.00651574
0.00595983
0.00438498
0.00186675
0.00169866
0.00423399
0.00597078
0.00665334
0.00583619
0.00139599
0.0011987
0.00104785
0.000930976
0.000838886
0.000765455
0.000706346
0.000659162
0.000623901
0.000697195
0.000827777
0.00127622
0.000654305
0.00224131
0.00516961
0.00251401
0.00436549
0.00504004
0.00542532
0.00572652
0.00595924
0.00613554
0.00627417
0.0064325
0.00670748
0.00712767
0.00767555
0.00823743
0.00850944
0.00792402
0.00573553
0.00191923
0.00512124
0.00759314
0.008723
0.00890332
0.00740354
0.00157413
0.00141901
0.00130006
0.00120115
0.00111711
0.00104177
0.000970936
0.000901009
0.000826394
0.000769179
0.000807475
0.00137395
0.000716981
0.00263509
0.0070015
0.00256927
0.00415605
0.00522407
0.00556665
0.00572729
0.00577539
0.00574494
0.00569602
0.00573596
0.00598795
0.00649858
0.00726326
0.00819597
0.00911599
0.00981445
0.0100834
0.0094018
0.00993536
0.0103952
0.0105534
0.0103887
0.00969374
0.00761676
0.00653893
0.0057977
0.00519964
0.00461425
0.00405232
0.00350974
0.00297539
0.00243184
0.00184071
0.00138654
0.00137002
0.00106001
0.000855431
0.0011471
0.00110823
0.00302336
0.00906026
0.00311461
0.00347603
0.00503343
0.00541015
0.00543438
0.00528892
0.00503105
0.00477444
0.00470948
0.0049591
0.00553705
0.00642016
0.00751263
0.00867712
0.00979496
0.0106656
0.0110644
0.0112147
0.011238
0.011113
0.010837
0.0103902
0.00966166
0.00893623
0.00826635
0.00762351
0.00694289
0.00623235
0.00549102
0.00471287
0.00388947
0.00301511
0.00222505
0.0016394
0.0012491
0.00138016
0.00242617
0.00133055
0.00341895
0.0109559
0.00427955
0.00280945
0.00454265
0.00514251
0.00512587
0.00486531
0.00443445
0.00397537
0.00386639
0.00419559
0.00486744
0.00585434
0.00703666
0.00828838
0.00947466
0.0104539
0.0110692
0.0113043
0.0112849
0.0110796
0.0107493
0.0103479
0.00989719
0.0094406
0.00899054
0.00851624
0.00797261
0.00735031
0.00664398
0.00585107
0.00497149
0.00401777
0.00308415
0.00219898
0.00158698
0.00139003
0.00244482
0.00155748
0.00376367
0.0123931
0.00598177
0.00269145
0.00359008
0.00460547
0.00476938
0.00456188
0.00410345
0.00339717
0.00342337
0.00390225
0.00466971
0.00568711
0.00690509
0.00820371
0.00942089
0.0104001
0.01102
0.0112562
0.0111837
0.0108956
0.0104902
0.0100564
0.00965209
0.00930011
0.00898575
0.00865872
0.00827017
0.00778898
0.00719895
0.00649549
0.00568165
0.00477316
0.00382635
0.00285346
0.00196138
0.00128125
0.00344396
0.00201848
0.00386632
0.011831
0.00761773
0.00370138
0.00238028
0.00302679
0.00359603
0.00367437
0.00324843
0.00305267
0.00334696
0.00394111
0.00477995
0.00586198
0.00713952
0.00848023
0.00970198
0.0106362
0.0111768
0.0113123
0.0111145
0.0106957
0.0101801
0.0096781
0.0092614
0.00894944
0.00871229
0.00848959
0.00822219
0.00786472
0.00739374
0.00680217
0.00609269
0.00527674
0.00437451
0.00332854
0.00189754
0.00160822
0.0051776
0.00232635
0.00379163
0.00954705
0.007932
0.00527503
0.00337244
0.00252297
0.00235139
0.00246699
0.00268755
0.0030484
0.00355971
0.00424476
0.00516163
0.00633548
0.00769627
0.00907706
0.0102708
0.0111038
0.0114875
0.0114344
0.0110396
0.010443
0.00979512
0.00922256
0.00879953
0.00853119
0.00836546
0.00822551
0.00804213
0.00777086
0.00738961
0.00689057
0.00627289
0.00553435
0.00461974
0.00310951
0.00136367
0.00322388
0.00497906
0.00234919
0.0035541
0.00816686
0.00768763
0.00610368
0.00463478
0.00367055
0.00318041
0.00304959
0.0032321
0.00358184
0.00407833
0.00479275
0.00580498
0.0071075
0.00856746
0.00996316
0.0110634
0.0117042
0.0118304
0.0114961
0.010838
0.0100341
0.00926649
0.00867193
0.00830876
0.00813716
0.00805548
0.0079683
0.00782553
0.00759852
0.00726944
0.00682735
0.00626266
0.00554835
0.00453201
0.00258411
0.0016153
0.00364222
0.00469302
0.00231226
0.00323655
0.00737898
0.00742846
0.00649144
0.00548506
0.00472448
0.00427004
0.00409701
0.00413368
0.00433917
0.0047788
0.00556639
0.00674795
0.00822425
0.00976699
0.0110974
0.0119801
0.0122901
0.0120324
0.0113232
0.0103593
0.00936808
0.00857043
0.00808338
0.00788637
0.00782232
0.00776945
0.00768406
0.00754526
0.00733269
0.00702575
0.00660025
0.00603204
0.00526358
0.00415534
0.0023939
0.00174625
0.0037545
0.00505499
0.00228032
0.00295098
0.00657461
0.00707923
0.00664245
0.00600118
0.00546095
0.00510009
0.00492529
0.00487108
0.00503534
0.00558554
0.00662891
0.00809812
0.0097555
0.0112781
0.0123661
0.0128305
0.0126287
0.0118571
0.0107132
0.00948168
0.00844719
0.00779156
0.00747288
0.00737268
0.00734443
0.00728723
0.00718591
0.00703236
0.00680906
0.00648822
0.00602458
0.00535497
0.00442759
0.0032685
0.00218787
0.00189637
0.00379818
0.00525226
0.00240943
0.00296481
0.0065164
0.00723121
0.00673475
0.00622449
0.00580433
0.00550134
0.00530249
0.0052851
0.0056963
0.00669814
0.00822979
0.0100225
0.0117086
0.0129403
0.0134845
0.0132709
0.0123807
0.0110317
0.00951895
0.00823623
0.00735129
0.00684524
0.00658623
0.00646431
0.00639804
0.00632691
0.0061995
0.00601491
0.00574984
0.0053501
0.00472738
0.00383044
0.00283158
0.00213535
0.00194765
0.00230218
0.00414332
0.0052225
0.00245886
0.00267453
0.00277645
0.00409583
0.00478856
0.00498937
0.00497795
0.00491567
0.0049956
0.00559353
0.00687793
0.00870468
0.0107225
0.0125297
0.013783
0.0142632
0.0139013
0.0127981
0.0111688
0.00941342
0.00789251
0.00677774
0.00602826
0.005556
0.00527454
0.00510213
0.00497697
0.00486269
0.00469889
0.00446816
0.00415495
0.00369612
0.00304117
0.00233588
0.0019182
0.00192516
0.00226196
0.00297443
0.00473486
0.00554547
0.00247082
0.000933064
0.00165789
0.00252624
0.00321175
0.00401376
0.00547962
0.00762062
0.0100031
0.0121958
0.013887
0.0148763
0.0150351
0.0143458
0.0128868
0.0109728
0.00901741
0.00734574
0.00607585
0.00520386
0.00466812
0.00434841
0.00413043
0.0039469
0.00376988
0.00359364
0.00341892
0.00321589
0.00297726
0.00268005
0.00232855
0.00205434
0.002047
0.0023513
0.00288563
0.00361707
0.00459848
0.00524351
0.00236888
0.00177484
0.00238266
0.0034266
0.00536848
0.00807247
0.0107471
0.0128972
0.0144563
0.0154135
0.0157478
0.0153937
0.0142524
0.012438
0.0102819
0.00818973
0.00646208
0.00524034
0.0045165
0.00413692
0.00392595
0.00377709
0.00364552
0.00351919
0.0033992
0.00328858
0.00318572
0.00307954
0.00295689
0.00281631
0.00267002
0.00257852
0.00265428
0.00296997
0.0034844
0.00407419
0.00451794
0.00450504
0.00229763
0.00322232
0.00791468
0.00734499
0.00645807
0.0081397
0.0109241
0.013247
0.0147655
0.0155285
0.0157169
0.0153971
0.0145764
0.0132362
0.0114133
0.00929715
0.00724013
0.00562015
0.00463198
0.00415004
0.0039261
0.00379703
0.0036926
0.00359132
0.00349324
0.00340728
0.00334463
0.0033141
0.0033181
0.0033481
0.00338101
0.00340265
0.00342882
0.00349257
0.0036469
0.00395257
0.0044413
0.00508528
0.00577651
0.00612153
0.00242668
0.00306682
0.00587482
0.0074644
0.00967486
0.0108856
0.0120534
0.0127234
0.0128732
0.0126092
0.0119993
0.0110606
0.0097966
0.00828041
0.00668451
0.0052869
0.00432363
0.0038077
0.00356406
0.00345223
0.0033843
0.00332226
0.00325396
0.00318058
0.00311151
0.00306208
0.00305079
0.00309525
0.00320677
0.00338426
0.00360477
0.00381357
0.0039892
0.00417703
0.00442898
0.0047962
0.00531873
0.00602151
0.00701097
0.00668833
0.00269558
0.00287295
0.00244667
0.00242193
0.00249287
0.00254644
0.00246937
0.00231132
0.0021241
0.00193466
0.00175298
0.00158276
0.00142954
0.00130233
0.00121075
0.00115748
0.00113504
0.00113156
0.00113836
0.00114886
0.0011618
0.00117764
0.00119789
0.00122464
0.00125994
0.00130509
0.00135987
0.00142229
0.00148916
0.00155727
0.00162457
0.00169112
0.00175769
0.0018264
0.00190166
0.00198782
0.00208686
0.00219663
0.00231892
0.00246512
0.00246073
)
;

boundaryField
{
    floor
    {
        type            compressible::alphatWallFunction;
        Prt             0.85;
        value           nonuniform List<scalar> 
36
(
0.000209143
0.000144725
0.00015105
0.000153149
0.000151398
0.000146641
0.000138842
0.000130595
0.000122794
0.000115632
0.000109131
0.000103243
9.78638e-05
9.28801e-05
8.81483e-05
8.34719e-05
7.85123e-05
7.38237e-05
6.54153e-05
6.54145e-05
8.16797e-05
9.23611e-05
0.000101591
0.000121656
0.000162765
0.000157365
0.000209141
0.000229333
0.000221726
0.000215091
0.000144723
0.000215089
0.000194938
0.00025954
0.000237382
0.00026643
)
;
    }
    ceiling
    {
        type            compressible::alphatWallFunction;
        Prt             0.85;
        value           nonuniform List<scalar> 
43
(
0.000388456
0.000334588
0.00033144
0.000340491
0.000347317
0.000337554
0.000317391
0.000293295
0.00026867
0.000244796
0.000222173
0.000201573
0.00018428
0.000171712
0.000164357
0.000161253
0.000160778
0.000161727
0.000163185
0.000164973
0.000167154
0.000169932
0.000173587
0.000178402
0.00018455
0.000191996
0.000200464
0.000209513
0.000218701
0.000227746
0.000236647
0.000245514
0.000254613
0.000264518
0.000275794
0.000288688
0.000302904
0.000318657
0.000337349
0.00033669
0.000363835
0.000376665
0.000246959
)
;
    }
    sWall
    {
        type            compressible::alphatWallFunction;
        Prt             0.85;
        value           nonuniform List<scalar> 9(0.000500605 0.000471583 0.000432476 0.000396977 0.000398698 0.000362274 0.000430061 0.000410816 0.000386713);
    }
    nWall
    {
        type            compressible::alphatWallFunction;
        Prt             0.85;
        value           nonuniform List<scalar> 
14
(
0.000156929
0.000187509
0.000218145
0.000321672
0.000316968
0.000312971
0.000329637
0.000335852
0.000337288
0.000324177
0.000315054
0.000332052
0.000365811
0.000336009
)
;
    }
    sideWalls
    {
        type            empty;
    }
    glass1
    {
        type            compressible::alphatWallFunction;
        Prt             0.85;
        value           nonuniform List<scalar> 9(0.000133773 0.00019812 0.000251338 0.000302301 0.000352121 0.000400546 0.000449261 0.000491286 0.000503841);
    }
    glass2
    {
        type            compressible::alphatWallFunction;
        Prt             0.85;
        value           nonuniform List<scalar> 2(0.000276915 0.000316538);
    }
    sun
    {
        type            compressible::alphatWallFunction;
        Prt             0.85;
        value           nonuniform List<scalar> 
14
(
0.000137541
0.000146076
0.000145592
0.000152165
0.000158153
0.000163572
0.000168591
0.000173399
0.000178195
0.000183223
0.000188219
0.000193086
0.000198026
0.000203434
)
;
    }
    Table_master
    {
        type            compressible::alphatWallFunction;
        Prt             0.85;
        value           nonuniform List<scalar> 9(0.000197062 0.000170087 0.000149123 0.00013264 0.000119481 0.000108866 0.000100233 9.32793e-05 8.8043e-05);
    }
    Table_slave
    {
        type            compressible::alphatWallFunction;
        Prt             0.85;
        value           nonuniform List<scalar> 9(0.000221049 0.00020018 0.000184003 0.000170426 0.00015879 0.000148271 0.000138302 0.000128377 0.000117685);
    }
    inlet
    {
        type            fixedValue;
        value           uniform 1.94e-05;
    }
    outlet
    {
        type            zeroGradient;
    }
}


// ************************************************************************* //
