/*--------------------------------*- C++ -*----------------------------------*\
  =========                 |
  \\      /  F ield         | OpenFOAM: The Open Source CFD Toolbox
   \\    /   O peration     | Website:  https://openfoam.org
    \\  /    A nd           | Version:  6
     \\/     M anipulation  |
\*---------------------------------------------------------------------------*/
FoamFile
{
    version     2.0;
    format      ascii;
    class       volScalarField;
    location    "1400";
    object      epsilon;
}
// * * * * * * * * * * * * * * * * * * * * * * * * * * * * * * * * * * * * * //

dimensions      [0 2 -3 0 0 0 0];

internalField   nonuniform List<scalar> 
778
(
0.000185011
0.000215554
0.000627951
0.000209694
0.00127863
0.00134426
0.00023685
0.000200901
0.00377946
0.00245158
0.000263288
0.000180482
0.0002963
0.00837557
0.0040461
0.000288461
0.000181267
0.000171058
0.000547773
0.0154638
0.00618681
0.000312756
0.000184943
0.000161173
0.000170802
0.00110515
0.0246713
0.00903467
0.000336851
0.000190913
0.000162199
0.000144859
0.000183115
0.00220905
0.0335537
0.0121976
0.00036168
0.000200364
0.000166729
0.000143497
0.000126389
0.000226479
0.00412718
0.0402927
0.0133263
0.000388587
0.000214806
0.000174536
0.000145238
0.000121399
0.000110943
0.000338837
0.00695236
0.0420528
0.0126535
0.000417148
0.000236154
0.000185821
0.000148717
0.000120469
0.000100352
0.000104808
0.000667949
0.0135898
0.0287727
0.010518
0.000446958
0.000264878
0.000201
0.000154168
0.000120776
9.69084e-05
8.42504e-05
0.000128967
0.00274066
0.0143228
0.0196251
0.00801577
0.000479924
0.000302864
0.000220801
0.000162671
0.000122895
9.47389e-05
7.81104e-05
7.93067e-05
0.000431435
0.00541729
0.01202
0.0139408
0.00610426
0.000519854
0.000353784
0.000247599
0.000175885
0.000128503
9.47188e-05
7.39508e-05
6.81513e-05
0.000129611
0.00183208
0.00611446
0.00970218
0.0102352
0.00612933
0.000567243
0.000425145
0.0002846
0.000196245
0.00013983
9.95825e-05
7.26954e-05
6.21919e-05
8.45132e-05
0.000651971
0.00295487
0.00583298
0.00781567
0.00787022
0.00452524
0.000542939
0.000338123
0.000226159
0.000158924
0.000112931
7.92142e-05
6.09674e-05
7.06788e-05
0.000290287
0.00147461
0.00342596
0.0052742
0.00692482
0.00510266
0.000749632
0.000418535
0.000268628
0.000187171
0.000135135
9.96149e-05
7.45999e-05
7.22172e-05
0.000177069
0.000812886
0.00207306
0.00349732
0.00480574
0.00567029
0.000711925
0.000524923
0.000326126
0.00022591
0.000165527
0.000129287
0.000108403
0.000106394
0.000162218
0.000521783
0.0013379
0.00237776
0.00338862
0.00419726
0.180344
0.000686322
0.000652808
0.000398707
0.00027573
0.000204296
0.000164588
0.000147156
0.00014883
0.000194664
0.000412154
0.00094461
0.00168762
0.00245442
0.00307101
0.0272258
0.00706557
0.00116081
0.000502737
0.000334965
0.000252586
0.000205241
0.000186948
0.000191079
0.00023302
0.000379985
0.000735554
0.00126525
0.00183732
0.00229551
0.00650506
0.00717368
0.00395431
0.000785973
0.000404627
0.000310575
0.000253898
0.000229426
0.000231074
0.000267478
0.000374585
0.000617521
0.000997791
0.00142538
0.00176017
0.00267261
0.00290527
0.00290808
0.00671286
0.00324795
0.00141656
0.000507599
0.000372888
0.000313555
0.000279494
0.000273389
0.000299952
0.000378435
0.00054694
0.000816408
0.00113162
0.00138004
0.00150083
0.00144059
0.00212764
0.00336369
0.00480475
0.00407844
0.0022522
0.0005626
0.000609259
0.000435216
0.000375083
0.000338938
0.000325345
0.000339609
0.000393516
0.000508848
0.000695646
0.000919478
0.00108986
0.000983432
0.00115429
0.00247332
0.00321229
0.00244803
0.00449588
0.00250627
0.00107134
0.00039161
0.000448502
0.000467605
0.00042537
0.000400084
0.000388194
0.000395142
0.000430562
0.000508274
0.000636263
0.000794901
0.000922962
0.000877259
0.00156785
0.0029167
0.00323449
0.00269951
0.00435038
0.00058679
0.00042804
0.000327604
0.000381331
0.00042187
0.000443696
0.000446158
0.000450854
0.000464105
0.000494578
0.000553326
0.000648979
0.000776315
0.000913285
0.00106032
0.00221922
0.00318896
0.00309393
0.00272203
0.000257789
0.000340723
0.000315418
0.000281554
0.000328433
0.00037474
0.000420158
0.000459357
0.000493366
0.000528855
0.00057331
0.000636503
0.000729795
0.000863226
0.00105509
0.00141667
0.00271969
0.00322179
0.00280278
0.00251995
0.000254809
0.000261245
0.000259033
0.000273666
0.000280471
0.000322046
0.000374267
0.000434479
0.000498272
0.000564712
0.000638117
0.000727327
0.000845461
0.00101443
0.00128273
0.00179699
0.00291377
0.00302797
0.00245488
0.00219883
0.000250149
0.000215441
0.000237975
0.000730746
0.000244681
0.000270183
0.000317146
0.000382041
0.000462143
0.000554203
0.000658879
0.000782552
0.000939572
0.001155
0.00148376
0.00204075
0.00281054
0.00271688
0.00211571
0.00186303
0.000236286
0.00018376
0.000514578
0.00053
0.0002373
0.000225283
0.000259906
0.000316625
0.000396136
0.00049745
0.000620463
0.000769878
0.000957107
0.00120677
0.0015548
0.00203732
0.00246594
0.00231519
0.00181507
0.0015593
0.000212191
0.000171465
0.000317876
0.000408584
0.000209484
0.000190325
0.00020996
0.00025187
0.000317789
0.000410114
0.000530742
0.000683226
0.000876619
0.00112379
0.0014458
0.00179572
0.0018933
0.00184996
0.00155392
0.00129003
0.000178363
0.000141176
0.000210425
0.000324671
0.000181458
0.00016172
0.000170237
0.000196492
0.000242988
0.000314089
0.000413459
0.000545277
0.000713661
0.000925381
0.00116617
0.00139165
0.00133274
0.00136613
0.00132568
0.00104843
0.000147344
0.000113529
0.000147933
0.000263276
0.00015721
0.000138935
0.0001402
0.000153668
0.000181333
0.000227509
0.000296377
0.000391107
0.00051508
0.000662032
0.000820115
0.000880707
0.000864188
0.00095726
0.00112451
0.000841019
0.000121964
9.1238e-05
0.000109337
0.000216289
0.000137537
0.000120913
0.000118041
0.000122644
0.000135639
0.000160081
0.00019903
0.000254977
0.000326643
0.000413121
0.000476086
0.000513722
0.000527337
0.000671935
0.000954038
0.000684974
0.000101811
7.37272e-05
8.41886e-05
0.000178109
0.00012155
0.000106654
0.00010167
0.000100914
0.000104184
0.000113141
0.000129598
0.000154216
0.000187737
0.000218292
0.000257689
0.000295817
0.000341711
0.000511717
0.000830911
0.000590557
8.57039e-05
6.00395e-05
6.71076e-05
0.000145368
0.000108045
9.52063e-05
8.93019e-05
8.57541e-05
8.34458e-05
8.30745e-05
8.58113e-05
9.24008e-05
0.000101343
0.000120084
0.000148869
0.000189935
0.000255452
0.000439437
0.000757567
0.00054243
7.27324e-05
4.93004e-05
5.52646e-05
0.000115197
9.633e-05
8.57445e-05
7.97194e-05
7.48835e-05
6.99538e-05
6.48241e-05
6.06854e-05
5.91804e-05
6.22487e-05
7.53506e-05
0.000101145
0.000144065
0.000218774
0.000410372
0.000722142
0.000527166
6.21825e-05
4.08223e-05
4.73269e-05
6.8712e-05
8.5758e-05
7.77423e-05
7.20097e-05
6.68833e-05
6.1017e-05
5.40141e-05
4.712e-05
4.26732e-05
4.42626e-05
5.50337e-05
7.93022e-05
0.000122887
0.000201332
0.00039754
0.000709747
0.000531037
5.34757e-05
3.42961e-05
3.60351e-05
4.65878e-05
7.00441e-05
7.07872e-05
6.5593e-05
6.07043e-05
5.49449e-05
4.77892e-05
4.00788e-05
3.46797e-05
3.52232e-05
4.44361e-05
6.7237e-05
0.000110482
0.000190506
0.00038851
0.000708291
0.00054414
4.61174e-05
3.01435e-05
3.12204e-05
0.000171231
5.53796e-05
6.32433e-05
6.01018e-05
5.56883e-05
5.05171e-05
4.40333e-05
3.68245e-05
3.09875e-05
3.04254e-05
3.80008e-05
5.90563e-05
0.000101563
0.000182393
0.000379072
0.000709965
0.00056052
3.96675e-05
2.83322e-05
0.00011422
9.58224e-05
0.000112229
5.65358e-05
5.51174e-05
5.14573e-05
4.70216e-05
4.14699e-05
3.51782e-05
2.97108e-05
2.79684e-05
3.38097e-05
5.29582e-05
9.46829e-05
0.000176339
0.000368942
0.000710874
0.000577042
3.36917e-05
6.35782e-05
6.91677e-05
0.000162549
7.65145e-05
5.17525e-05
4.78596e-05
4.40963e-05
3.94594e-05
3.4137e-05
2.92691e-05
2.7052e-05
3.1122e-05
4.83363e-05
8.95246e-05
0.000172668
0.000359613
0.000710302
0.000592643
2.95734e-05
4.56154e-05
0.000181725
0.000108718
5.91901e-05
4.57221e-05
4.16821e-05
3.77402e-05
3.32812e-05
2.90632e-05
2.67844e-05
2.95965e-05
4.48327e-05
8.58825e-05
0.000171798
0.000353097
0.000709871
0.000607931
2.2234e-05
0.000427243
0.000235429
7.74791e-05
4.97679e-05
4.05019e-05
3.63867e-05
3.25275e-05
2.8907e-05
2.67628e-05
2.89605e-05
4.21909e-05
8.33309e-05
0.000173753
0.000351232
0.000712736
0.000624908
0.000366381
0.0011452
0.000183961
6.79602e-05
4.56988e-05
3.64936e-05
3.22098e-05
2.89814e-05
2.7028e-05
2.8887e-05
4.09518e-05
8.12521e-05
0.000177836
0.000355364
0.00072293
0.00064673
0.000601347
0.00175374
0.000379443
9.92595e-05
4.81794e-05
3.42016e-05
3.01961e-05
2.83058e-05
3.00402e-05
4.11038e-05
7.92205e-05
0.000182527
0.000366197
0.000744977
0.000677686
0.000976502
0.00587397
0.00118238
0.00024921
5.3605e-05
3.6006e-05
3.31278e-05
3.53414e-05
4.4295e-05
8.02616e-05
0.000185678
0.000383471
0.000783701
0.000723386
0.00221414
0.0150084
0.00415886
0.000354588
6.52908e-05
5.06329e-05
5.45626e-05
5.75522e-05
8.53156e-05
0.000185658
0.0004053
0.000844038
0.00079084
0.0033296
0.0109651
0.00358965
0.000319192
0.000112445
0.000115972
0.000102203
0.000102832
0.000190959
0.000427455
0.000930417
0.000887724
0.00342205
0.00915944
0.00257252
0.000391117
0.000279837
0.000231127
0.000156695
0.000207308
0.000444358
0.00104514
0.00102045
0.00337897
0.00780299
0.0022248
0.000704032
0.000546162
0.000304464
0.000253863
0.000473909
0.00118515
0.00119202
0.00373072
0.00595703
0.00227711
0.00124047
0.000663714
0.000374841
0.000540836
0.00133557
0.00140187
0.00428924
0.00566744
0.00270629
0.00144685
0.000664673
0.00067109
0.00150132
0.00164963
0.00416151
0.00527313
0.002955
0.0013084
0.000936927
0.0017331
0.00194326
0.00344771
0.00511542
0.00265055
0.00152246
0.00210983
0.00228839
0.00299646
0.00547111
0.0031934
0.00277154
0.00268313
0.00346928
0.00488524
0.00430188
0.00313823
0.00438186
0.00557608
0.00368336
0.00491086
0.00432381
0.00379645
)
;

boundaryField
{
    floor
    {
        Cmu             0.09;
        kappa           0.41;
        E               9.8;
        type            epsilonWallFunction;
        value           nonuniform List<scalar> 
36
(
0.000567243
0.000257789
0.000254809
0.000250149
0.000236286
0.000212191
0.000178363
0.000147344
0.000121964
0.000101811
8.57039e-05
7.27324e-05
6.21825e-05
5.34757e-05
4.61174e-05
3.96675e-05
3.36917e-05
2.95734e-05
2.2234e-05
2.2234e-05
4.56154e-05
6.91677e-05
9.58224e-05
0.000181725
0.000427243
0.000366381
0.000567243
0.000749632
0.000711925
0.000686322
0.000257789
0.000686322
0.00058679
0.00116081
0.00107134
0.00141656
)
;
    }
    ceiling
    {
        Cmu             0.09;
        kappa           0.41;
        E               9.8;
        type            epsilonWallFunction;
        value           nonuniform List<scalar> 
43
(
0.00435038
0.00250627
0.0022522
0.00244803
0.00269951
0.00272203
0.00251995
0.00219883
0.00186303
0.0015593
0.00129003
0.00104843
0.000841019
0.000684974
0.000590557
0.00054243
0.000527166
0.000531037
0.00054414
0.00056052
0.000577042
0.000592643
0.000607931
0.000624908
0.00064673
0.000677686
0.000723386
0.00079084
0.000887724
0.00102045
0.00119202
0.00140187
0.00164963
0.00194326
0.00228839
0.00268313
0.00313823
0.00368336
0.00432381
0.00379645
0.00452524
0.00510266
0.00706557
)
;
    }
    sWall
    {
        Cmu             0.09;
        kappa           0.41;
        E               9.8;
        type            epsilonWallFunction;
        value           nonuniform List<scalar> 9(0.0126535 0.010518 0.00801577 0.00610426 0.00612933 0.00452524 0.00480475 0.00449588 0.00435038);
    }
    nWall
    {
        Cmu             0.09;
        kappa           0.41;
        E               9.8;
        type            epsilonWallFunction;
        value           nonuniform List<scalar> 
14
(
0.000366381
0.000601347
0.000976502
0.00342205
0.00337897
0.00373072
0.00428924
0.00416151
0.00344771
0.00299646
0.00346928
0.00438186
0.00491086
0.00379645
)
;
    }
    sideWalls
    {
        type            empty;
    }
    glass1
    {
        Cmu             0.09;
        kappa           0.41;
        E               9.8;
        type            epsilonWallFunction;
        value           nonuniform List<scalar> 9(0.000185011 0.000627951 0.00134426 0.00245158 0.0040461 0.00618681 0.00903467 0.0121976 0.0133263);
    }
    glass2
    {
        Cmu             0.09;
        kappa           0.41;
        E               9.8;
        type            epsilonWallFunction;
        value           nonuniform List<scalar> 2(0.00221414 0.0033296);
    }
    sun
    {
        Cmu             0.09;
        kappa           0.41;
        E               9.8;
        type            epsilonWallFunction;
        value           nonuniform List<scalar> 
14
(
0.000185011
0.000215554
0.000209694
0.00023685
0.000263288
0.000288461
0.000312756
0.000336851
0.00036168
0.000388587
0.000417148
0.000446958
0.000479924
0.000519854
)
;
    }
    Table_master
    {
        Cmu             0.09;
        kappa           0.41;
        E               9.8;
        type            epsilonWallFunction;
        value           nonuniform List<scalar> 9(0.000514578 0.000317876 0.000210425 0.000147933 0.000109337 8.41886e-05 6.71076e-05 5.52646e-05 4.73269e-05);
    }
    Table_slave
    {
        Cmu             0.09;
        kappa           0.41;
        E               9.8;
        type            epsilonWallFunction;
        value           nonuniform List<scalar> 9(0.000730746 0.00053 0.000408584 0.000324671 0.000263276 0.000216289 0.000178109 0.000145368 0.000115197);
    }
    inlet
    {
        type            turbulentMixingLengthDissipationRateInlet;
        mixingLength    0.00315;
        phi             phi;
        k               k;
        value           uniform 1.49737;
    }
    outlet
    {
        type            zeroGradient;
    }
}


// ************************************************************************* //
