/*--------------------------------*- C++ -*----------------------------------*\
  =========                 |
  \\      /  F ield         | OpenFOAM: The Open Source CFD Toolbox
   \\    /   O peration     | Website:  https://openfoam.org
    \\  /    A nd           | Version:  6
     \\/     M anipulation  |
\*---------------------------------------------------------------------------*/
FoamFile
{
    version     2.0;
    format      ascii;
    class       volScalarField;
    location    "1400";
    object      nut;
}
// * * * * * * * * * * * * * * * * * * * * * * * * * * * * * * * * * * * * * //

dimensions      [0 2 -1 0 0 0 0];

internalField   nonuniform List<scalar> 
778
(
0.00075566
0.000866063
0.00113855
0.000825736
0.00155754
0.00181827
0.000671927
0.00177389
0.00221483
0.00205497
0.000663966
0.00188716
0.00225805
0.00292371
0.00223071
0.000661817
0.00192659
0.00220902
0.00297582
0.00378396
0.00238161
0.000648226
0.00209057
0.00218133
0.00272688
0.00388803
0.0045982
0.00252185
0.000628584
0.00251637
0.00228461
0.00250093
0.00338773
0.0047172
0.00518677
0.00266318
0.000617631
0.00264532
0.00263888
0.00245591
0.00289089
0.00400859
0.00533824
0.00546864
0.00281913
0.000614532
0.002869
0.00295327
0.00270086
0.00265582
0.00325336
0.00449427
0.00578439
0.00545586
0.003008
0.000609069
0.00310482
0.00341887
0.0031041
0.00280576
0.00283833
0.00351483
0.00483642
0.00612242
0.00513443
0.00323841
0.000596883
0.00319247
0.00392419
0.00363943
0.00329128
0.00294803
0.00296442
0.00362794
0.00494515
0.00613145
0.00482802
0.0035194
0.00058491
0.00299254
0.00433122
0.00420853
0.00400021
0.00360285
0.00314246
0.00307083
0.00366909
0.00487788
0.00612685
0.00451276
0.00387258
0.000594312
0.0024055
0.00445107
0.00470309
0.00467186
0.00457414
0.00409667
0.00348592
0.00328548
0.00374764
0.00476824
0.00618983
0.00436454
0.00433837
0.000685276
0.00165998
0.00419665
0.00494319
0.0050794
0.00526964
0.00530561
0.00473322
0.00400275
0.00365035
0.00391873
0.00468524
0.00596409
0.00473317
0.00502077
0.00139848
0.00355279
0.0047838
0.00525434
0.00560886
0.00600196
0.0059747
0.00540766
0.00464206
0.00416585
0.00422629
0.00464067
0.00377503
0.0060568
0.000871399
0.00278919
0.00420086
0.00501791
0.00567262
0.0062065
0.006575
0.00650957
0.00601401
0.00532014
0.00482719
0.00476343
0.00425292
0.00654945
0.000995362
0.00255053
0.00342463
0.0043567
0.00530107
0.00617538
0.00674968
0.00702026
0.00690018
0.00650568
0.00599269
0.00567574
0.00560804
0.00249126
0.0112443
0.000935319
0.00257424
0.00259889
0.00349689
0.00450739
0.00571565
0.00667639
0.00722046
0.0073604
0.00719256
0.00691866
0.00667387
0.00669151
0.00529259
0.00481145
0.00721006
0.0011368
0.00201334
0.00262343
0.00359578
0.00492117
0.00620797
0.00712831
0.00759403
0.00760514
0.00744058
0.00729585
0.00731306
0.00725601
0.00288272
0.00600822
0.00711453
0.00232305
0.00190055
0.00282197
0.00412893
0.00551761
0.00669657
0.00747057
0.00775713
0.00772619
0.00758896
0.00750985
0.0074823
0.00664817
0.00564362
0.00750919
0.00690596
0.00612486
0.00129807
0.00200906
0.0023255
0.00353154
0.00489401
0.00614466
0.00707392
0.00755463
0.00767964
0.00758051
0.00738629
0.00717154
0.00698844
0.00725047
0.00825372
0.00612853
0.00365868
0.00579712
0.00379539
0.00259104
0.00280663
0.00223171
0.0031659
0.004454
0.00569234
0.00665783
0.00721604
0.00741902
0.00735914
0.00712415
0.00683852
0.00683227
0.00777186
0.00918924
0.00699044
0.0036437
0.00326171
0.00355966
0.00125607
0.00229496
0.00249327
0.00234895
0.00303033
0.00419677
0.00539111
0.00636161
0.00696477
0.00722032
0.00722231
0.00704964
0.00684874
0.00702556
0.00821122
0.0102705
0.00799563
0.00351121
0.00291709
0.00106113
0.00338177
0.00195849
0.00241595
0.00244858
0.00303448
0.00407754
0.00520913
0.00619429
0.0068518
0.00717661
0.00728001
0.0072455
0.00721039
0.00756468
0.00890144
0.011098
0.00912901
0.00340687
0.000747056
0.00295138
0.00230085
0.00168889
0.00216613
0.0025757
0.00316334
0.00406399
0.00512207
0.00612067
0.00684247
0.00725229
0.00747782
0.00760942
0.00775769
0.00826075
0.00964531
0.0118199
0.0103146
0.00332134
0.000788193
0.00202556
0.00180248
0.00114218
0.0019051
0.00258151
0.00330847
0.00413941
0.00511793
0.0061127
0.00689572
0.00739371
0.00774295
0.00804153
0.00836332
0.00898249
0.0103539
0.0124592
0.011458
0.00327245
0.00054623
0.00159282
0.00143155
0.000552579
0.00170731
0.00257219
0.00339981
0.00424727
0.00517441
0.00615336
0.00698509
0.00756394
0.00802585
0.0084793
0.00896095
0.00966438
0.0109918
0.0130058
0.0124635
0.00325761
0.000420845
0.00126587
0.000590488
0.000605531
0.00168999
0.00264974
0.0035187
0.0043729
0.00527299
0.00623083
0.00709584
0.00774252
0.0082986
0.00888727
0.00950885
0.0102931
0.0115371
0.0134511
0.0132756
0.00326966
0.000334703
0.000871327
0.000475138
0.000662844
0.00194834
0.0028717
0.00372329
0.00454889
0.00541062
0.00633865
0.00721977
0.00791913
0.00854777
0.00924642
0.00998949
0.0108235
0.0119958
0.0137915
0.0138831
0.0032986
0.000282
0.00051153
0.000385732
0.000721735
0.00217486
0.00319171
0.00401536
0.00478924
0.00559323
0.0064746
0.00735245
0.00808856
0.00876898
0.00954871
0.0103932
0.0112682
0.0123709
0.0140415
0.0143041
0.00333431
0.000213417
0.000309997
0.000305013
0.000786141
0.00237341
0.00348159
0.00434209
0.00507754
0.00581702
0.00663682
0.00749114
0.00824781
0.00896203
0.00979563
0.0107147
0.0116299
0.0126698
0.0142175
0.0145721
0.0033687
0.000178789
0.000250455
0.000245792
0.00086071
0.00255195
0.00373881
0.00464739
0.00537752
0.00606528
0.00681897
0.00763302
0.00839445
0.00912798
0.00999191
0.0109611
0.0119017
0.0128993
0.0143341
0.014726
0.00339663
0.000175497
0.000238695
0.00028807
0.000952038
0.00271268
0.00397203
0.00492619
0.0056608
0.00631541
0.00700972
0.00777387
0.00852599
0.00926761
0.010143
0.0111406
0.0120973
0.0130631
0.0144043
0.0148018
0.0034158
0.000174178
0.000257306
0.000373665
0.00107071
0.00285486
0.00418635
0.00518244
0.00592026
0.00655046
0.00719602
0.00790782
0.0086396
0.00938066
0.0102536
0.0112604
0.0122264
0.0131702
0.0144384
0.0148297
0.00342604
0.000179026
0.000290553
0.000498339
0.00123204
0.00297692
0.00438444
0.0054184
0.00615447
0.00676245
0.00736735
0.00802829
0.00873181
0.00946611
0.0103262
0.0113276
0.012295
0.0132276
0.014445
0.0148319
0.00342851
0.000188092
0.000338653
0.000706815
0.00292607
0.00311099
0.00456913
0.0056341
0.00636176
0.00694685
0.00751693
0.00812945
0.00879836
0.0095217
0.0103626
0.0113438
0.0123092
0.0132404
0.0144299
0.0148235
0.00342502
0.000201716
0.000475763
0.00216582
0.0034461
0.00327898
0.00472853
0.00582131
0.00653964
0.00709976
0.00764024
0.00820716
0.00883539
0.00954188
0.0103646
0.011311
0.0122733
0.013213
0.0143965
0.0148132
0.00341752
0.000226842
0.00109804
0.00280184
0.00421947
0.00332968
0.00486869
0.00596853
0.00666751
0.00721167
0.00773386
0.00825936
0.00883991
0.00952215
0.0103232
0.0112392
0.0121933
0.0131488
0.0143458
0.0148048
0.0034078
0.00028056
0.00174965
0.0039611
0.00150561
0.00332505
0.00501758
0.00609335
0.00676097
0.00727679
0.00778406
0.00828124
0.00881152
0.00945563
0.0102367
0.0111297
0.012076
0.0130512
0.0142778
0.0147987
0.00339727
0.000413118
0.0025294
0.00129795
0.0032016
0.00524479
0.0062068
0.00682745
0.00730415
0.00780137
0.00827923
0.00875983
0.0093566
0.0101106
0.0109838
0.0119254
0.0129244
0.0141917
0.0147929
0.003387
0.000653524
0.000993143
0.00197007
0.00561355
0.00633669
0.00687656
0.00729646
0.00778716
0.0082645
0.00869916
0.0092364
0.0099517
0.0108044
0.0117456
0.0127718
0.0140867
0.0147844
0.00337762
0.000685455
0.00200407
0.00623963
0.00655591
0.00692732
0.00726102
0.00773781
0.00824054
0.00864415
0.00911057
0.00977357
0.0106007
0.0115421
0.012597
0.0139621
0.0147699
0.00336945
0.00191619
0.00608823
0.0073043
0.00701727
0.00721687
0.00765394
0.00820166
0.00860829
0.00899531
0.00958998
0.010383
0.0113211
0.012403
0.0138177
0.0147463
0.00336256
0.0023997
0.00900566
0.00752981
0.00720686
0.00756016
0.00813381
0.00859931
0.00891186
0.00941388
0.010162
0.0110896
0.0121933
0.0136536
0.0147113
0.00335687
0.00288869
0.0103674
0.00756993
0.00753426
0.00803766
0.00860925
0.00888329
0.00926679
0.00994852
0.0108546
0.0119713
0.0134705
0.014663
0.00335218
0.00337743
0.00997463
0.0077477
0.00800352
0.00860436
0.00893502
0.00917074
0.00975415
0.0106235
0.0117412
0.0132699
0.0146005
0.00334831
0.00321614
0.00800302
0.00825884
0.0086058
0.00906221
0.0091671
0.00959503
0.0104036
0.0115075
0.0130539
0.0145231
0.00334511
0.00221329
0.00862917
0.00891115
0.0092002
0.00931269
0.00950264
0.0102039
0.0112748
0.0128257
0.0144305
0.00334246
0.00222223
0.00946089
0.00952632
0.00960448
0.00954093
0.0100418
0.0110481
0.0125887
0.0143218
0.00334031
0.00231728
0.0100331
0.010003
0.00978743
0.00996058
0.0108347
0.0123458
0.014195
0.00333863
0.00238598
0.0102242
0.0102069
0.0100502
0.010653
0.0120979
0.014045
0.00333726
0.00244527
0.0100235
0.0103418
0.0105549
0.0118443
0.0138625
0.00333574
0.00253799
0.00982276
0.0105816
0.0115816
0.0136334
0.00333287
0.00267642
0.00988084
0.0112631
0.0133377
0.00332642
0.00290706
0.0105153
0.0129139
0.0033144
0.00327439
0.011505
0.00329871
0.00375778
0.00320404
0.00288214
)
;

boundaryField
{
    floor
    {
        type            nutkWallFunction;
        Cmu             0.09;
        kappa           0.41;
        E               9.8;
        value           nonuniform List<scalar> 
36
(
8.28804e-05
9.04632e-05
9.54672e-05
6.55176e-05
4.93864e-05
3.79557e-05
3.07771e-05
2.11534e-05
1.61564e-05
1.56721e-05
1.54802e-05
1.61935e-05
1.75187e-05
1.94924e-05
2.30838e-05
3.05898e-05
4.83804e-05
7.89637e-05
8.29084e-05
8.29084e-05
0.000119978
0.000155405
0.000179015
0.000230604
0.000234325
0.000224696
8.28804e-05
0.000105499
0.000120244
0.00011313
9.04632e-05
0.00011313
0.000127974
0.000136814
0.000150599
0.000155431
)
;
    }
    ceiling
    {
        type            nutkWallFunction;
        Cmu             0.09;
        kappa           0.41;
        E               9.8;
        value           nonuniform List<scalar> 
43
(
0.000332109
0.000398942
0.000423141
0.000407584
0.000393944
0.000383165
0.000374304
0.000369228
0.000367685
0.000368935
0.000371938
0.00037564
0.000379201
0.00038209
0.00038407
0.000385126
0.000385379
0.000385016
0.000384238
0.00038323
0.000382139
0.000381074
0.000380101
0.000379253
0.000378539
0.000377947
0.00037746
0.000377057
0.000376724
0.000376447
0.000376223
0.000376048
0.000375905
0.000375746
0.000375447
0.000374777
0.00037353
0.000371901
0.000362062
0.00032838
0.000546662
0.000648803
0.000760646
)
;
    }
    sWall
    {
        type            nutkWallFunction;
        Cmu             0.09;
        kappa           0.41;
        E               9.8;
        value           nonuniform List<scalar> 9(0.000341692 0.000365741 0.000394835 0.000431073 0.000478367 0.000546764 0.000409222 0.000368211 0.000332195);
    }
    nWall
    {
        type            nutkWallFunction;
        Cmu             0.09;
        kappa           0.41;
        E               9.8;
        value           nonuniform List<scalar> 
14
(
0.000224701
0.000277152
0.000329073
0.000257078
0.000258046
0.000268301
0.000275685
0.000282041
0.000291947
0.000306667
0.000331018
0.000369397
0.000419247
0.000328408
)
;
    }
    sideWalls
    {
        type            empty;
    }
    glass1
    {
        type            nutkWallFunction;
        Cmu             0.09;
        kappa           0.41;
        E               9.8;
        value           nonuniform List<scalar> 9(9.14953e-05 0.000137074 0.000214022 0.000240006 0.000259088 0.000275345 0.000290357 0.000305396 0.000321895);
    }
    glass2
    {
        type            nutkWallFunction;
        Cmu             0.09;
        kappa           0.41;
        E               9.8;
        value           nonuniform List<scalar> 2(0.000379901 0.000363166);
    }
    sun
    {
        type            nutkWallFunction;
        Cmu             0.09;
        kappa           0.41;
        E               9.8;
        value           nonuniform List<scalar> 
14
(
9.15031e-05
0.000104862
0.000100016
8.12401e-05
8.0257e-05
7.99907e-05
7.83041e-05
7.58581e-05
7.44895e-05
7.41013e-05
7.34181e-05
7.18919e-05
7.03887e-05
7.15694e-05
)
;
    }
    Table_master
    {
        type            nutkWallFunction;
        Cmu             0.09;
        kappa           0.41;
        E               9.8;
        value           nonuniform List<scalar> 9(7.10696e-05 5.6392e-05 4.47088e-05 3.38568e-05 2.56755e-05 3.15763e-05 4.31421e-05 5.94078e-05 8.55441e-05);
    }
    Table_slave
    {
        type            nutkWallFunction;
        Cmu             0.09;
        kappa           0.41;
        E               9.8;
        value           nonuniform List<scalar> 9(6.62951e-05 7.29648e-05 8.01038e-05 8.73624e-05 9.52204e-05 0.000104224 0.000115128 0.000129119 0.000147858);
    }
    inlet
    {
        type            calculated;
        value           uniform 0.00591667;
    }
    outlet
    {
        type            calculated;
        value           nonuniform List<scalar> 2(0.00365868 0.00690596);
    }
}


// ************************************************************************* //
