/*--------------------------------*- C++ -*----------------------------------*\
  =========                 |
  \\      /  F ield         | OpenFOAM: The Open Source CFD Toolbox
   \\    /   O peration     | Website:  https://openfoam.org
    \\  /    A nd           | Version:  6
     \\/     M anipulation  |
\*---------------------------------------------------------------------------*/
FoamFile
{
    version     2.0;
    format      ascii;
    class       surfaceScalarField;
    location    "1400";
    object      phi;
}
// * * * * * * * * * * * * * * * * * * * * * * * * * * * * * * * * * * * * * //

dimensions      [1 0 -1 0 0 0 0];

internalField   nonuniform List<scalar> 
1482
(
-0.00272857
0.00279216
-0.0033296
0.000601014
-0.0039607
0.000631068
-0.00456146
0.000600732
-0.00508182
0.000520333
-0.00550317
0.000421322
-0.00581302
0.000309818
-0.00599742
0.000184358
-0.00603817
4.0722e-05
-0.00590908
-0.000129127
-0.00557732
-0.000331806
-0.00500683
-0.000570525
-0.00411816
-0.000888713
-0.00264396
-0.00147424
-0.00264124
0.0005473
-0.00054362
0.00119573
-0.000648468
0.00170004
-0.000504342
0.00204511
-0.000345097
0.00226135
-0.000216275
0.00236705
-0.000105729
0.0024103
-4.32731e-05
0.00242819
-1.79233e-05
0.00243375
-5.57627e-06
0.00243038
3.3435e-06
0.00241829
1.20741e-05
0.00239288
2.53955e-05
0.00233982
5.30375e-05
0.00222441
0.000115397
0.00198817
0.000236223
0.00159898
0.000389177
0.00106855
0.000530414
0.00107436
-0.00200751
0.00496874
-0.00283761
0.0014311
-0.00360777
0.0014012
-0.00425094
0.00124389
-0.00479004
0.00105941
-0.00522953
0.000860786
-0.00556669
0.00064695
-0.00579411
0.000411745
-0.0059007
0.000147283
-0.0058771
-0.000152761
-0.00571712
-0.000491822
-0.00540559
-0.000882093
-0.00493193
-0.00136241
-0.00447001
-0.00193621
-0.00492883
-0.00218247
-0.0032869
-0.00163683
-0.00169455
-0.00158706
-0.00168074
0.000935125
-0.00146966
0.00143533
-0.00114871
0.00179117
-0.000860226
0.00204265
-0.000596615
0.00219584
-0.000369504
0.0022249
-0.000134815
0.00223452
-5.29277e-05
0.00224152
-2.49558e-05
0.00224638
-1.04557e-05
0.00224903
6.66473e-07
0.00224943
1.16557e-05
0.00224642
2.83829e-05
0.0022344
6.50435e-05
0.0021727
0.000177078
0.00192207
0.000486843
0.00148872
0.000822516
0.000916284
0.00110284
0.0020062
-0.00147622
0.00670074
-0.00232916
0.00228402
-0.00308439
0.0021564
-0.00365883
0.0018183
-0.00412607
0.00152663
-0.00450014
0.00123483
-0.00478323
0.000930018
-0.00497297
0.000601468
-0.0050638
0.00023809
-0.0050474
-0.000169194
-0.00491192
-0.000627324
-0.00464698
-0.00114707
-0.00427917
-0.00173026
-0.00392847
-0.00228696
-0.00354681
-0.00256418
-0.00261426
-0.00256943
-0.00147842
-0.00272296
-0.00314714
0.000885849
-0.00234241
0.00141303
-0.00167594
0.0017675
-0.00121474
0.00200562
-0.000834773
0.00210748
-0.000471402
0.00197278
0.00191997
0.00189514
0.00188481
0.00188561
0.0018974
0.00192591
0.0019911
0.00216831
0.00182475
0.000830389
0.00139352
0.00125374
0.000797176
0.00169917
0.00282757
-0.00110438
0.00813301
-0.00191961
0.00309923
-0.002544
0.00278077
-0.00299136
0.00226565
-0.00335017
0.00188543
-0.0036339
0.00151855
-0.00384693
0.00114304
-0.00398961
0.000744133
-0.00405684
0.000305307
-0.00403696
-0.000189095
-0.00391679
-0.000747513
-0.00369088
-0.00137301
-0.00337891
-0.00204228
-0.00301223
-0.00265369
-0.0025193
-0.00305716
-0.00183621
-0.00325259
-0.00119301
-0.00336622
-0.001161
-0.00317921
0.00104604
-0.00219286
0.00108729
-0.00238372
0.0014564
-0.0020451
0.00180255
-0.00156094
0.00208019
-0.00111246
0.00231714
-0.000708392
0.00267352
-0.00035657
0.00285924
-0.000185913
0.00293234
-7.3291e-05
0.00291822
1.39354e-05
0.00282867
8.93715e-05
0.00266778
0.000160707
0.00243114
0.000236459
0.00209961
0.000331354
0.00161999
0.000479449
0.00151442
0.000935939
0.00122165
0.0015465
0.000737441
0.00218337
0.00359701
-0.000807925
0.00932946
-0.00158416
0.00387545
-0.00203415
0.00323075
-0.00233558
0.00256707
-0.00256809
0.00211792
-0.00274323
0.00169368
-0.00286751
0.0012673
-0.00294439
0.000821003
-0.00297132
0.000332231
-0.00293485
-0.000225577
-0.00282057
-0.0008618
-0.00262011
-0.0015735
-0.00233551
-0.00232691
-0.00196674
-0.00302251
-0.00150133
-0.00352264
-0.000962432
-0.00379156
-0.000475011
-0.00385371
-1.49514e-05
-0.00363934
0.000874713
-0.00308259
0.00126539
-0.00277445
0.00156834
-0.00234811
0.00185161
-0.00184426
0.00209494
-0.00135584
0.00230717
-0.000920657
0.00251629
-0.000565734
0.00263402
-0.000303682
0.00267173
-0.000111031
0.00264357
4.20633e-05
0.00255871
0.000174206
0.00242201
0.000297372
0.00223438
0.00042407
0.00199486
0.000570852
0.00171124
0.000763046
0.00152673
0.00112044
0.00141481
0.00165841
0.00127399
0.00232417
0.00228206
0.00258893
0.00128569
0.00102895
0.00180206
-0.000489855
0.00191527
-0.000582781
0.0103526
-0.00133721
0.00462986
-0.00158112
0.00347464
-0.00173425
0.0027202
-0.00183564
0.0022193
-0.00189459
0.00175263
-0.0019185
0.0012912
-0.00191374
0.000816245
-0.00188301
0.000301497
-0.00180891
-0.000299676
-0.0016784
-0.000992314
-0.00147926
-0.00177266
-0.00120963
-0.00259658
-0.000869466
-0.00336273
-0.000477105
-0.00391507
-6.18342e-05
-0.00420691
0.000321806
-0.00423743
0.000688344
-0.00400595
0.00115388
-0.00354819
0.00147244
-0.00309307
0.00170632
-0.00258204
0.0019022
-0.00204018
0.00206586
-0.00151955
0.00220052
-0.00105536
0.00230248
-0.000667731
0.00235701
-0.000358249
0.00236179
-0.000115845
0.0023225
8.13201e-05
0.00224578
0.000250897
0.00213725
0.000405878
0.00200233
0.000558968
0.00184888
0.000724283
0.00169173
0.000920186
0.00161095
0.0012012
0.00168757
0.00158177
0.00192168
0.00209006
0.00219954
0.00231106
0.0017333
0.00149519
0.000809519
0.000433916
0.00281862
-0.000554227
0.0113918
-0.00126699
0.0053426
-0.00120508
0.00341272
-0.00120324
0.00271834
-0.00118314
0.00219919
-0.00113775
0.00170723
-0.00106957
0.00122302
-0.000984212
0.000730888
-0.000885217
0.000202506
-0.000743053
-0.000441834
-0.000563692
-0.00117167
-0.000335608
-0.00200076
-6.36042e-05
-0.00286863
0.000230838
-0.00365725
0.000531467
-0.00421578
0.000818147
-0.00449367
0.0010722
-0.00449156
0.00130375
-0.00423757
0.00154582
-0.00379032
0.00172108
-0.0032684
0.00184064
-0.00270165
0.00192621
-0.0021258
0.00198812
-0.00158151
0.00203075
-0.00109802
0.00205284
-0.000689855
0.00205181
-0.000357245
0.00202511
-8.91743e-05
0.00197442
0.000131982
0.0019046
0.000320688
0.00182086
0.000489596
0.00172918
0.00065063
0.00163844
0.000815004
0.00156411
0.000994509
0.00155187
0.00121342
0.00165091
0.00148272
0.00188429
0.00185667
0.00217675
0.00201859
0.0022142
0.00145773
0.00165317
0.000994936
0.00457131
-0.000520599
0.0124393
-0.00110341
0.0059254
-0.000742394
0.00305169
-0.00066967
0.00264561
-0.000586685
0.0021162
-0.000471477
0.00159202
-0.00033675
0.00108829
-0.00018961
0.000583749
3.48286e-07
1.25525e-05
0.000230208
-0.00067168
0.000480314
-0.00142178
0.00075022
-0.00227069
0.00102112
-0.00313958
0.00126236
-0.00389857
0.00147089
-0.0044244
0.00163839
-0.00466126
0.00176002
-0.00461327
0.00184421
-0.00432184
0.0019061
-0.00385228
0.00192696
-0.00328931
0.00191313
-0.00268787
0.00187899
-0.00209171
0.00183563
-0.00153818
0.00178954
-0.00105197
0.00174285
-0.000643201
0.00169479
-0.000309211
0.00164228
-3.66863e-05
0.00158518
0.000189058
0.00152604
0.00037981
0.00146713
0.000548485
0.00141163
0.000706112
0.00136538
0.000861239
0.00133926
0.00102062
0.0013587
0.00119397
0.00145799
0.00138342
0.00169735
0.00161731
0.00204709
0.00166885
0.00221017
0.00129464
0.00171891
0.00148619
0.00664391
0.00294049
0.0100764
0.00197222
0.00689365
0.00080554
0.00421835
0.000303979
0.00314717
0.000152903
0.00226728
0.000222069
0.00152286
0.000385786
0.000924575
0.000603561
0.00036598
0.000868675
-0.000252549
0.00114885
-0.000951843
0.0014522
-0.00172512
0.00175062
-0.00256913
0.00201115
-0.00340017
0.00220483
-0.00409234
0.00232174
-0.0045414
0.00236317
-0.00470279
0.0023385
-0.00458868
0.00226384
-0.00424725
0.00215655
-0.00374505
0.00202246
-0.00315528
0.0018727
-0.00253815
0.00172121
-0.00194026
0.00158012
-0.00139712
0.00145726
-0.000929131
0.00135551
-0.000541478
0.00127362
-0.000227346
0.00120748
2.9432e-05
0.0011552
0.000241318
0.00111471
0.000420293
0.00108349
0.000579689
0.00106038
0.000729204
0.0010465
0.000875114
0.00104624
0.00102087
0.00107216
0.00116805
0.00114853
0.00130704
0.00134663
0.0014192
0.00172569
0.00128979
0.00186765
0.00115266
0.000563907
0.00278989
0.00757798
0.00403841
0.00617648
0.00365737
0.00727467
0.00250484
0.00537086
0.0018358
0.0038162
0.00146792
0.00263516
0.00131823
0.00167255
0.00135419
0.000888618
0.00153978
0.000180404
0.0018127
-0.00052544
0.00211596
-0.00125509
0.00243083
-0.00203999
0.00271966
-0.00285801
0.00293657
-0.00361717
0.00304818
-0.00420406
0.00304547
-0.0045388
0.00293945
-0.00459687
0.00275251
-0.00440182
0.00251108
-0.00400589
0.00224012
-0.00347414
0.00195786
-0.00287306
0.00168122
-0.00226154
0.00142565
-0.00168472
0.00120468
-0.00117617
0.0010261
-0.000750579
0.000890973
-0.000406368
0.000795409
-0.000131798
0.000734551
9.02763e-05
0.000702268
0.000273588
0.000689341
0.000433209
0.000688807
0.000580214
0.000695804
0.000722199
0.00070639
0.000864521
0.000715974
0.00101128
0.000717564
0.00116645
0.000695714
0.00132889
0.00060395
0.00151097
4.8881e-05
0.00184486
-0.00156611
0.00276753
-0.00282015
0.00404378
0.00485912
0.00241687
0.00392192
0.00330014
0.00639138
0.00322412
0.00544686
0.00300016
0.00404015
0.00280031
0.00283501
0.00267185
0.00180102
0.00265997
0.000900516
0.00276295
7.74456e-05
0.0029488
-0.000711253
0.00319139
-0.00149767
0.0034508
-0.00229942
0.00366639
-0.00307368
0.00377833
-0.00372922
0.00375233
-0.00417818
0.00358715
-0.00437373
0.00330577
-0.00431559
0.0029426
-0.00403872
0.0025333
-0.00359664
0.00210953
-0.0030504
0.00169605
-0.0024596
0.00131448
-0.00187999
0.000981014
-0.00135127
0.000711246
-0.000906421
0.000510581
-0.00054993
0.000374747
-0.000270548
0.00029516
-5.22225e-05
0.000260579
0.000124848
0.000258038
0.000276122
0.000275615
0.000415625
0.000305236
0.000550588
0.000340841
0.000686589
0.000375651
0.000829708
0.000399161
0.000987761
0.000389838
0.00117577
0.000302591
0.00141614
4.45301e-05
0.00176904
-0.000707323
0.00259696
-0.00194764
0.00400795
-0.00232393
0.00442004
0.00264875
0.00144406
0.00266942
0.00273028
0.00510514
0.00340678
0.00477036
0.00368636
0.00376057
0.00378318
0.00273819
0.00381424
0.00176998
0.0038593
0.000855476
0.00394737
-1.05943e-05
0.00408637
-0.000850235
0.00426454
-0.00167588
0.00443107
-0.00246603
0.00451318
-0.00315592
0.0044531
-0.00366928
0.00423058
-0.0039558
0.00386191
-0.00400517
0.00338471
-0.00383848
0.00284337
-0.00349744
0.0022791
-0.0030324
0.00172712
-0.00249844
0.00121405
-0.00194654
0.000766645
-0.0014326
0.000399948
-0.000984584
0.000130325
-0.000636811
-4.50579e-05
-0.000374559
-0.000141829
-0.000173786
-0.000180475
-1.35838e-05
-0.00017965
0.000124017
-0.000153592
0.00025006
-0.000110923
0.000372952
-5.67557e-05
0.000496419
4.97175e-06
0.00062486
6.88184e-05
0.00076586
0.000124821
0.000931757
0.000152274
0.00114832
0.000104525
0.00146388
-8.91506e-05
0.00196274
-0.000427251
0.00293543
-0.00102168
0.00460282
-0.0013094
0.0047081
0.0014653
0.00224825
0.000643902
0.0029735
0.00437988
0.0035786
0.00416525
0.00413567
0.00320349
0.0044663
0.00240757
0.0046514
0.00158488
0.00478668
0.00072021
0.00491897
-0.000142875
0.00506133
-0.000992631
0.00518424
-0.00179889
0.0052207
-0.00250266
0.00510609
-0.0030415
0.00481101
-0.00337438
0.00434738
-0.0034923
0.00375599
-0.00341387
0.00308746
-0.00317
0.00239107
-0.00280107
0.0017074
-0.00234874
0.00107311
-0.00186415
0.000513715
-0.00138715
6.04882e-05
-0.000979377
-0.000263814
-0.000660292
-0.000463709
-0.000436928
-0.000568266
-0.000270012
-0.000607879
-0.000134181
-0.00060634
-1.51268e-05
-0.000578448
9.61221e-05
-0.000533234
0.000204845
-0.00047489
0.000314607
-0.000405367
0.000426896
-0.000325317
0.00054481
-0.000235259
0.000675803
-0.000138498
0.000834996
-4.517e-05
0.00105499
1.49696e-05
0.00140372
1.70282e-05
0.00196062
0.000115067
0.00283751
0.000450261
0.00426805
0.000657313
0.00450144
0.00225544
-0.0016317
0.00251716
0.00107976
0.00166841
0.0032976
0.0019474
0.0043049
0.00219618
0.00482194
0.00189053
0.00515783
0.00124899
0.00541623
0.000461808
0.0056352
-0.000361917
0.00578167
-0.00113926
0.00579151
-0.00180896
0.00561053
-0.00232193
0.00522183
-0.00265303
0.00464813
-0.00280085
0.00393808
-0.00278237
0.00315047
-0.00262632
0.00233726
-0.00235681
0.001545
-0.00200881
0.000807772
-0.00161149
0.000160333
-0.0012167
-0.000350437
-0.000876384
-0.000700396
-0.00062943
-0.000905337
-0.000455366
-0.00101164
-0.000330637
-0.00105145
-0.000230207
-0.00104754
-0.0001381
-0.00101664
-4.60305e-05
-0.000970316
4.98017e-05
-0.00091413
0.000148659
-0.000849086
0.000249564
-0.000774995
0.000352805
-0.000690054
0.000459869
-0.000591215
0.000576965
-0.000476756
0.000720537
-0.000353129
0.000931342
-0.000231176
0.00128167
-7.49681e-05
0.00180419
0.000287561
0.00247477
0.00105759
0.00349813
0.00147316
0.00408602
0.00387017
0.00276964
0.00441798
0.00476284
0.00160254
0.00529174
0.00166727
0.00555833
0.00162392
0.00582513
0.000982149
0.00605841
0.000228458
0.00617292
-0.000476659
0.00609481
-0.00106145
0.00578827
-0.00150274
0.0052624
-0.00179631
0.00456119
-0.00195201
0.00374182
-0.00198158
0.00286098
-0.00190158
0.00197292
-0.00173827
0.00111411
-0.00149798
0.000318881
-0.00121355
-0.000362309
-0.00093028
-0.00087984
-0.000699171
-0.00122112
-0.000535117
-0.0014255
-0.000425072
-0.00153143
-0.00034946
-0.00157243
-0.000289649
-0.00157024
-0.000232393
-0.00153842
-0.000169917
-0.00148722
-9.72299e-05
-0.00142669
-1.0722e-05
-0.00136397
8.59405e-05
-0.0013005
0.000186092
-0.00123612
0.000288417
-0.00117039
0.000394143
-0.00110301
0.000509589
-0.00103442
0.000651967
-0.000961086
0.000858003
-0.000858041
0.00117849
-0.000657758
0.00160354
-0.00018196
0.00199842
0.000905614
0.00241019
0.00149132
0.00350001
0.00551194
0.00796065
0.00529036
0.00584843
0.00377945
0.00562333
0.00184888
0.00573221
0.000873034
0.00572826
0.000232054
0.00550563
-0.00025438
0.00506286
-0.000618973
0.00443799
-0.000878083
0.00368328
-0.00104172
0.00285122
-0.00112001
0.00198374
-0.0011141
0.00111416
-0.00103197
0.000275568
-0.000899637
-0.000483489
-0.000738865
-0.00110646
-0.000590563
-0.00156579
-0.00047095
-0.00187636
-0.000388633
-0.00206956
-0.000341946
-0.0021792
-0.000315462
-0.00223271
-0.000295965
-0.00224736
-0.000274996
-0.00223249
-0.00024724
-0.00219375
-0.000208625
-0.00213601
-0.000154939
-0.00206509
-8.1625e-05
-0.00199324
1.40771e-05
-0.00193052
0.000123353
-0.00187851
0.000236376
-0.00184001
0.000355615
-0.00181874
0.000488352
-0.0018179
0.000651222
-0.00182933
0.000869577
-0.00181519
0.00116441
-0.00172254
0.0015107
-0.00150419
0.00177955
-0.00106221
0.00196748
-0.000682281
0.00311933
0.00499411
0.00434231
0.00119543
0.00476439
0.00335734
0.0039704
0.0026428
0.00344728
0.00139601
0.00308813
0.000591036
0.00270063
0.000132992
0.0022258
-0.000144202
0.00166813
-0.000320425
0.0010446
-0.000418168
0.000370278
-0.000445637
-0.000326817
-0.000416928
-0.00099606
-0.000362668
-0.00158882
-0.000306839
-0.00207148
-0.000256187
-0.00243545
-0.000226602
-0.00268831
-0.000218131
-0.00285413
-0.000222862
-0.00296186
-0.000234259
-0.00303127
-0.000246078
-0.0030726
-0.000254624
-0.00308988
-0.000257659
-0.00308408
-0.000252964
-0.00305525
-0.000237371
-0.00300388
-0.000206225
-0.00293189
-0.000153586
-0.00284446
-7.3379e-05
-0.00275757
3.63706e-05
-0.00268592
0.000164624
-0.00263177
0.000301373
-0.00259382
0.000450378
-0.00257269
0.000630195
-0.00256723
0.000864383
-0.00256635
0.00116389
-0.00259287
0.00153752
-0.00289988
0.00208672
-0.00384641
0.00291397
-0.00396496
0.00323761
0.00120668
-0.00237029
-0.00648569
-0.00729042
-0.00737127
-0.00373116
-0.00236375
-0.00156936
0.00119559
-0.000636109
0.00170959
-0.000456662
0.00121661
-0.000564313
0.000698759
-0.000765339
0.000334106
-0.00101716
0.000107694
-0.00132578
-1.17117e-05
-0.00168425
-5.96087e-05
-0.00206789
-6.19176e-05
-0.00245001
-3.47451e-05
-0.0028088
-3.8344e-06
-0.00312444
8.80925e-06
-0.00337601
-4.6532e-06
-0.00356243
-4.02363e-05
-0.00369396
-8.66712e-05
-0.00379085
-0.000126032
-0.00386765
-0.000157485
-0.00393017
-0.000183531
-0.00397835
-0.000206371
-0.00400916
-0.00022673
-0.00401872
-0.000243252
-0.00400396
-0.000251963
-0.00396378
-0.000246273
-0.00389921
-0.000218087
-0.00381285
-0.000159778
-0.00371014
-6.65054e-05
-0.00360496
5.92239e-05
-0.00350163
0.000197807
-0.00338888
0.000337458
-0.00325182
0.000493095
-0.00307143
0.000684117
-0.00282475
0.000917508
-0.00246931
0.00118246
-0.00191221
0.00153
-0.00115998
0.00216204
-0.00064009
0.00271797
0.000749199
-0.00712974
0.0010958
-0.00792355
-0.00657731
-0.00708401
-0.00320314
-0.00562854
-0.000259708
-0.00455466
0.000635877
-0.00399184
0.000653967
-0.00376621
0.000473313
-0.00372998
0.000298047
-0.00379623
0.000174093
-0.00390983
0.000102018
-0.00403736
6.80281e-05
-0.0041602
6.10016e-05
-0.00425918
6.42793e-05
-0.00432853
6.55125e-05
-0.00437581
5.60391e-05
-0.00441392
3.3374e-05
-0.00445385
-3.91037e-07
-0.00449955
-4.10361e-05
-0.00454844
-7.71771e-05
-0.00459886
-0.000107045
-0.00464918
-0.000133122
-0.0046976
-0.000157808
-0.00474222
-0.000181909
-0.00478117
-0.000204078
-0.00481236
-0.000220545
-0.00483293
-0.000225519
-0.00483835
-0.000212585
-0.00482162
-0.000176544
-0.00477381
-0.000114504
-0.00468773
-2.7188e-05
-0.00456166
7.13644e-05
-0.004388
0.000163456
-0.00414273
0.000247574
-0.00379544
0.000336718
-0.00331445
0.000436564
-0.00264202
0.000510205
-0.0015449
0.000433113
0.000426554
0.000190833
0.00205945
0.00108535
0.00298758
0.00163379
-0.00488251
-0.00802671
-0.00823139
-0.00754566
-0.00684987
-0.00634187
-0.00601439
-0.0058144
-0.0056887
-0.00559817
-0.00551507
-0.00542856
-0.00534041
-0.00526133
-0.00520463
-0.00518153
-0.00519904
-0.00525277
-0.00533658
-0.00544686
-0.00558242
-0.0057429
-0.00592653
-0.00612772
-0.00633498
-0.00653028
-0.0066903
-0.0067888
-0.00680026
-0.00671329
-0.00653425
-0.00627118
-0.00591921
-0.00546789
-0.00494366
-0.00449746
-0.00429458
-0.00319818
)
;

boundaryField
{
    floor
    {
        type            calculated;
        value           nonuniform List<scalar> 
36
(
0
0
0
0
0
0
0
0
0
0
0
0
0
0
0
0
0
0
0
-5.81801e-06
-1.55654e-05
-2.42013e-05
-3.20118e-05
-3.26044e-05
-2.65132e-05
-2.62376e-05
-2.77061e-06
-5.15574e-06
-5.34658e-06
-5.51218e-06
-3.70706e-06
-8.34494e-06
-9.1299e-06
-1.20756e-05
-1.3149e-05
-1.42341e-05
)
;
    }
    ceiling
    {
        type            calculated;
        value           nonuniform List<scalar> 
43
(
-5.53942e-05
-6.08554e-05
-5.87448e-05
-5.48173e-05
-4.96216e-05
-4.15927e-05
-3.44769e-05
-2.9259e-05
-2.57612e-05
-2.36021e-05
-2.24609e-05
-2.20941e-05
-2.22685e-05
-2.27002e-05
-2.31234e-05
-2.34074e-05
-2.35473e-05
-2.35569e-05
-2.34411e-05
-2.31715e-05
-2.27184e-05
-2.20644e-05
-2.12166e-05
-2.02185e-05
-1.91537e-05
-1.81336e-05
-1.72665e-05
-1.66229e-05
-1.62174e-05
-1.60146e-05
-1.59444e-05
-1.58951e-05
-1.57443e-05
-1.54074e-05
-1.48346e-05
-1.40174e-05
-1.30096e-05
-1.19324e-05
-1.08902e-05
-9.85364e-06
2.43445e-05
2.0061e-05
-0.000247376
)
;
    }
    sWall
    {
        type            calculated;
        value           nonuniform List<scalar> 9(-0.000138471 -0.00016233 -0.000191577 -0.000222751 -0.000241572 -0.000276834 -0.0004203 -0.00045163 -0.000482477);
    }
    nWall
    {
        type            calculated;
        value           nonuniform List<scalar> 
14
(
-8.69716e-05
-9.38292e-05
-9.95263e-05
-0.000101313
-0.000113577
-0.000125847
-0.000132571
-0.000141566
-0.0001508
-0.000164893
-0.000177941
-0.000182164
-0.000178732
-0.000200544
)
;
    }
    sideWalls
    {
        type            empty;
        value           nonuniform 0();
    }
    glass1
    {
        type            calculated;
        value           nonuniform List<scalar> 9(-6.36206e-05 -0.000169103 -0.000255805 -0.000327924 -0.000388559 -0.000440409 -0.000484995 -0.000526944 -0.000577618);
    }
    glass2
    {
        type            calculated;
        value           nonuniform List<scalar> 2(-0.000353688 -0.000370164);
    }
    sun
    {
        type            calculated;
        value           uniform 0;
    }
    Table_master
    {
        type            calculated;
        value           nonuniform List<scalar> 9(-1.53737e-07 -1.53869e-07 -1.53899e-07 -1.53917e-07 -1.53926e-07 -1.53927e-07 -1.53922e-07 -1.53903e-07 -1.53844e-07);
    }
    Table_slave
    {
        type            calculated;
        value           nonuniform List<scalar> 9(1.53457e-07 1.53516e-07 1.53512e-07 1.53528e-07 1.53546e-07 1.53589e-07 1.53654e-07 1.53744e-07 1.53865e-07);
    }
    inlet
    {
        type            calculated;
        value           uniform -0.0116485;
    }
    outlet
    {
        type            calculated;
        value           nonuniform List<scalar> 2(0.00927638 0.0122915);
    }
}


// ************************************************************************* //
