/*--------------------------------*- C++ -*----------------------------------*\
  =========                 |
  \\      /  F ield         | OpenFOAM: The Open Source CFD Toolbox
   \\    /   O peration     | Website:  https://openfoam.org
    \\  /    A nd           | Version:  6
     \\/     M anipulation  |
\*---------------------------------------------------------------------------*/
FoamFile
{
    version     2.0;
    format      ascii;
    class       volScalarField;
    location    "1400";
    object      T;
}
// * * * * * * * * * * * * * * * * * * * * * * * * * * * * * * * * * * * * * //

dimensions      [0 0 0 1 0 0 0];

internalField   nonuniform List<scalar> 
778
(
302.481
302.148
302.707
302.133
302.174
302.933
302.13
302.145
302.221
303.151
302.127
302.146
302.173
302.282
303.357
302.123
302.148
302.183
302.204
302.357
303.549
302.12
302.15
302.196
302.222
302.237
302.443
303.713
302.117
302.151
302.209
302.248
302.258
302.273
302.538
303.862
302.114
302.15
302.22
302.274
302.294
302.286
302.319
302.681
304.071
302.11
302.149
302.229
302.299
302.333
302.33
302.308
302.41
303.147
304.056
302.106
302.147
302.236
302.32
302.371
302.377
302.352
302.337
302.744
303.464
304.058
302.1
302.142
302.237
302.337
302.407
302.424
302.401
302.365
302.477
303.076
303.605
304.087
302.093
302.132
302.234
302.346
302.437
302.471
302.451
302.41
302.397
302.756
303.276
303.694
304.151
302.084
302.115
302.221
302.347
302.457
302.513
302.5
302.456
302.418
302.569
302.997
303.418
303.814
304.086
302.074
302.091
302.196
302.332
302.464
302.545
302.546
302.499
302.454
302.498
302.8
303.191
303.563
303.828
304.228
302.06
302.157
302.3
302.452
302.561
302.585
302.537
302.487
302.487
302.688
303.021
303.369
303.625
304.042
302.036
302.108
302.247
302.415
302.557
302.614
302.577
302.521
302.502
302.637
302.91
303.224
303.486
303.699
302.017
302.06
302.178
302.349
302.522
302.627
302.63
302.575
302.542
302.629
302.851
303.125
303.372
303.455
294.589
302.007
302.016
302.103
302.257
302.445
302.6
302.661
302.641
302.615
302.666
302.836
303.068
303.285
303.298
296.33
294.773
301.983
302.033
302.155
302.331
302.515
302.637
302.678
302.685
302.728
302.856
303.046
303.225
303.183
298.119
295.607
296.998
301.974
302.06
302.199
302.381
302.543
302.648
302.707
302.768
302.877
303.035
303.182
303.085
299.197
296.495
296.435
298.537
299.578
301.944
301.986
302.082
302.225
302.394
302.539
302.647
302.74
302.848
302.978
303.082
302.973
299.698
297.258
297.321
299.009
299.889
300.127
300.961
301.908
301.938
301.993
302.09
302.228
302.375
302.505
302.618
302.727
302.827
302.861
302.6
299.772
297.841
298.385
299.342
301.015
300.269
300.92
301.917
301.894
301.906
301.934
301.991
302.082
302.197
302.315
302.423
302.517
302.576
302.528
302.116
299.791
298.364
299.247
299.982
301.107
300.925
301.931
301.9
301.887
301.891
301.902
301.928
301.976
302.047
302.128
302.206
302.266
302.276
302.155
301.666
299.889
299.039
299.926
300.551
301.36
301.973
301.914
301.893
301.882
301.882
301.886
301.895
301.913
301.943
301.982
302.019
302.036
301.999
301.833
301.354
300.114
299.728
300.464
301.006
301.618
301.953
301.906
301.888
301.879
301.878
301.878
301.879
301.881
301.886
301.892
301.893
301.873
301.803
301.625
301.221
300.435
300.325
300.87
301.351
301.827
301.944
301.901
301.886
301.875
301.874
301.874
301.873
301.87
301.864
301.852
301.831
301.79
301.707
301.546
301.247
300.795
300.813
301.212
301.607
301.979
301.94
301.899
301.885
301.872
301.872
301.871
301.871
301.868
301.861
301.846
301.819
301.774
301.697
301.569
301.372
301.149
301.214
301.499
301.801
302.086
301.939
301.898
301.883
301.87
301.869
301.869
301.869
301.868
301.865
301.854
301.834
301.798
301.741
301.655
301.541
301.451
301.561
301.735
301.951
302.163
301.94
301.898
301.882
301.868
301.867
301.867
301.868
301.869
301.869
301.866
301.857
301.837
301.805
301.76
301.713
301.694
301.793
301.918
302.063
302.22
301.942
301.897
301.88
301.866
301.865
301.865
301.866
301.867
301.87
301.873
301.874
301.872
301.864
301.854
301.849
301.885
301.948
302.043
302.144
302.261
301.944
301.897
301.878
301.863
301.863
301.863
301.863
301.865
301.868
301.874
301.882
301.891
301.902
301.917
301.943
301.985
302.045
302.119
302.195
302.288
301.947
301.896
301.876
301.861
301.86
301.86
301.861
301.862
301.865
301.87
301.879
301.894
301.915
301.943
301.981
302.029
302.09
302.157
302.223
302.303
301.949
301.896
301.875
301.858
301.858
301.858
301.858
301.859
301.86
301.864
301.871
301.885
301.907
301.939
301.983
302.038
302.102
302.17
302.234
302.31
301.952
301.896
301.874
301.856
301.855
301.855
301.855
301.855
301.856
301.857
301.861
301.871
301.889
301.921
301.968
302.028
302.098
302.169
302.234
302.311
301.955
301.897
301.874
301.859
301.853
301.853
301.853
301.852
301.852
301.851
301.852
301.857
301.871
301.899
301.946
302.01
302.085
302.16
302.227
302.307
301.957
301.898
301.877
301.867
301.853
301.85
301.85
301.849
301.848
301.846
301.845
301.846
301.855
301.879
301.924
301.99
302.069
302.148
302.217
302.301
301.96
301.903
301.884
301.884
301.857
301.849
301.847
301.846
301.845
301.843
301.84
301.838
301.844
301.862
301.903
301.969
302.052
302.134
302.207
302.294
301.963
301.911
301.9
301.955
301.872
301.851
301.846
301.844
301.842
301.839
301.836
301.833
301.835
301.849
301.885
301.951
302.037
302.123
302.198
302.288
301.967
301.924
301.963
301.929
301.861
301.846
301.842
301.84
301.837
301.833
301.83
301.83
301.84
301.871
301.936
302.026
302.116
302.192
302.284
301.972
301.976
301.94
301.896
301.852
301.842
301.838
301.835
301.831
301.828
301.827
301.834
301.861
301.924
302.019
302.113
302.191
302.284
302
301.947
301.906
301.872
301.845
301.837
301.833
301.83
301.826
301.825
301.83
301.853
301.917
302.016
302.115
302.195
302.288
302.041
301.919
301.883
301.857
301.839
301.833
301.829
301.825
301.824
301.828
301.849
301.911
302.017
302.122
302.204
302.296
302.052
301.899
301.868
301.848
301.835
301.829
301.825
301.823
301.827
301.847
301.906
302.018
302.132
302.217
302.309
302.034
301.908
301.876
301.855
301.834
301.828
301.826
301.829
301.848
301.904
302.017
302.142
302.234
302.325
302.214
301.963
302.046
301.868
301.839
301.835
301.839
301.853
301.904
302.011
302.15
302.251
302.342
302.371
302.181
302.064
301.881
301.865
301.868
301.873
301.907
302.005
302.151
302.266
302.359
302.379
302.223
302.039
301.926
301.932
301.923
301.923
301.999
302.141
302.276
302.373
302.393
302.195
302.047
302.014
302.013
301.968
301.999
302.127
302.277
302.381
302.379
302.176
302.11
302.123
302.054
302.018
302.113
302.267
302.383
302.347
302.211
302.228
302.169
302.071
302.108
302.249
302.378
302.367
302.309
302.282
302.157
302.122
302.232
302.368
302.417
302.367
302.255
302.163
302.224
302.357
302.452
302.331
302.232
302.229
302.35
302.405
302.289
302.252
302.351
302.366
302.287
302.358
302.366
302.367
302.405
)
;

boundaryField
{
    floor
    {
        type            wallHeatTransfer;
        Tinf            uniform 305.2;
        alphaWall       uniform 0.36;
        value           nonuniform List<scalar> 
36
(
302.516
302.524
302.509
302.504
302.508
302.521
302.546
302.574
302.603
302.632
302.66
302.687
302.714
302.74
302.766
302.794
302.824
302.85
302.92
302.92
302.78
302.704
302.647
302.543
302.44
302.538
302.516
302.454
302.443
302.438
302.524
302.438
302.39
302.365
302.314
302.311
)
;
    }
    ceiling
    {
        type            wallHeatTransfer;
        Tinf            uniform 303.2;
        alphaWall       uniform 0.36;
        value           nonuniform List<scalar> 
43
(
301.117
301.141
301.184
301.229
301.306
301.535
301.772
301.965
302.107
302.209
302.283
302.339
302.382
302.411
302.429
302.438
302.439
302.436
302.43
302.423
302.417
302.413
302.412
302.414
302.42
302.43
302.441
302.454
302.466
302.474
302.478
302.475
302.467
302.455
302.441
302.432
302.429
302.432
302.438
302.475
304.142
303.973
295.385
)
;
    }
    sWall
    {
        type            wallHeatTransfer;
        Tinf            uniform 315.2;
        alphaWall       uniform 0.54;
        value           nonuniform List<scalar> 9(305.088 305.141 305.248 305.389 305.33 305.557 301.697 302.065 302.659);
    }
    nWall
    {
        type            wallHeatTransfer;
        Tinf            uniform 308.2;
        alphaWall       uniform 0.54;
        value           nonuniform List<scalar> 
14
(
303.39
303.258
303.114
303.131
303.146
303.115
303.061
303.085
303.163
303.22
303.151
303.074
303.053
303.134
)
;
    }
    sideWalls
    {
        type            empty;
    }
    glass1
    {
        type            wallHeatTransfer;
        Tinf            uniform 315.2;
        alphaWall       uniform 4.3;
        value           nonuniform List<scalar> 9(311.824 310.979 310.438 310.018 309.682 309.412 309.176 309.006 309.05);
    }
    glass2
    {
        type            wallHeatTransfer;
        Tinf            uniform 308.2;
        alphaWall       uniform 4.3;
        value           nonuniform List<scalar> 2(305.651 305.549);
    }
    sun
    {
        type            wallHeatTransfer;
        Tinf            uniform 305.2;
        alphaWall       uniform 0.36;
        value           nonuniform List<scalar> 
14
(
302.983
302.691
302.683
302.665
302.649
302.635
302.623
302.612
302.601
302.59
302.578
302.565
302.551
302.535
)
;
    }
    Table_master
    {
        type            zeroGradient;
    }
    Table_slave
    {
        type            zeroGradient;
    }
    inlet
    {
        type            fixedValue;
        value           uniform 293.15;
    }
    outlet
    {
        type            zeroGradient;
    }
}


// ************************************************************************* //
