/*--------------------------------*- C++ -*----------------------------------*\
  =========                 |
  \\      /  F ield         | OpenFOAM: The Open Source CFD Toolbox
   \\    /   O peration     | Website:  https://openfoam.org
    \\  /    A nd           | Version:  6
     \\/     M anipulation  |
\*---------------------------------------------------------------------------*/
FoamFile
{
    version     2.0;
    format      ascii;
    class       surfaceScalarField;
    location    "21700";
    object      phi;
}
// * * * * * * * * * * * * * * * * * * * * * * * * * * * * * * * * * * * * * //

dimensions      [1 0 -1 0 0 0 0];

internalField   nonuniform List<scalar> 
1482
(
-0.00279972
0.00286376
-0.00348389
0.000684171
-0.00414459
0.000660699
-0.00475868
0.000614084
-0.00528001
0.000521328
-0.0056918
0.000411798
-0.00598283
0.000291027
-0.00614003
0.000157204
-0.00614611
6.07215e-06
-0.0059751
-0.000171006
-0.00559713
-0.000377976
-0.00498121
-0.000615913
-0.00405723
-0.000923979
-0.00257899
-0.00147824
-0.00257607
-6.33918e-05
6.82463e-05
0.000780617
-0.000844009
0.00143321
-0.000652598
0.00183255
-0.000399332
0.00205405
-0.000221506
0.00215841
-0.000104351
0.0022059
-4.74929e-05
0.00222891
-2.30134e-05
0.00223878
-9.87193e-06
0.0022397
-9.14891e-07
0.00223259
7.10856e-06
0.00221352
1.90742e-05
0.0021692
4.43174e-05
0.00206643
0.000102763
0.00184979
0.000216641
0.00149245
0.000357341
0.00102135
0.000471103
0.00102779
-0.00204032
0.0050744
-0.00290838
0.00155223
-0.00369422
0.00144654
-0.00434527
0.00126513
-0.0048825
0.00105856
-0.00531117
0.000840471
-0.00562949
0.00060934
-0.00583063
0.000358351
-0.00590396
7.93958e-05
-0.00584167
-0.000233295
-0.00563799
-0.000581649
-0.00528165
-0.000972257
-0.00477148
-0.00143415
-0.00428546
-0.00196426
-0.00470095
-0.00216058
-0.0031152
-0.0015803
-0.00163276
-0.00147675
-0.00161791
0.00131849
-0.00124004
0.00166304
-0.00118856
0.00191455
-0.000904104
0.00210536
-0.000590144
0.00221234
-0.000328488
0.00222108
-0.000113086
0.00222303
-4.94494e-05
0.00222468
-2.46647e-05
0.0022257
-1.08922e-05
0.00222576
-9.70382e-07
0.00222441
8.45571e-06
0.0022202
2.32835e-05
0.00220755
5.69739e-05
0.00214558
0.000164732
0.00189577
0.000466445
0.00146623
0.000786885
0.000903067
0.00103427
0.00194774
-0.00148818
0.00682051
-0.00235898
0.00242303
-0.00312893
0.00221649
-0.00371314
0.00184933
-0.00418376
0.00152918
-0.00455512
0.00121183
-0.004829
0.000883217
-0.00500215
0.000531504
-0.00506819
0.000145434
-0.00501806
-0.000283416
-0.00484108
-0.000758634
-0.00452983
-0.0012835
-0.00411516
-0.00184882
-0.00371771
-0.00236171
-0.00329743
-0.00258085
-0.00236651
-0.00251122
-0.00127323
-0.00257003
-0.0028783
0.0011505
-0.00237608
0.00165415
-0.00169221
0.00195246
-0.00120241
0.00214501
-0.000782698
0.00217463
-0.000358109
0.0020617
0.0020124
0.00198789
0.00197715
0.00197634
0.00198495
0.00200838
0.00206551
0.0022304
0.00187142
0.000825426
0.00142297
0.00123533
0.000803873
0.00165336
0.00277765
-0.00110597
0.0082577
-0.00192776
0.00324482
-0.00256972
0.00285844
-0.00303
0.00230961
-0.00339748
0.00189666
-0.00368619
0.00150054
-0.00389911
0.00109614
-0.00403438
0.000666773
-0.00408448
0.000195528
-0.00403622
-0.000331672
-0.00387736
-0.000917492
-0.00360381
-0.00155705
-0.00323819
-0.00221445
-0.00281631
-0.00278358
-0.00227703
-0.00312013
-0.00155756
-0.0032307
-0.000869391
-0.0032582
-0.000688874
-0.00305882
0.00144719
-0.00212061
0.00137759
-0.00230649
0.00169255
-0.00200716
0.00200481
-0.00151467
0.00227094
-0.00104882
0.00254704
-0.000634214
0.00286054
-0.000313652
0.00302769
-0.000167301
0.00309279
-6.52554e-05
0.0030763
1.63323e-05
0.00298691
8.92368e-05
0.00282545
0.000161306
0.00258391
0.000241384
0.00223921
0.000344551
0.00173397
0.000505081
0.00159688
0.000962516
0.0012685
0.00156371
0.000741468
0.0021804
0.00355342
-0.000803672
0.00945456
-0.00157968
0.00402083
-0.00204819
0.00332695
-0.00236379
0.00262522
-0.0026081
0.00214097
-0.00279359
0.00168603
-0.00292525
0.0012278
-0.00300377
0.000745297
-0.00302258
0.000214341
-0.00296504
-0.000389207
-0.00281792
-0.00106462
-0.00257425
-0.00180071
-0.00224064
-0.00254806
-0.00182423
-0.00319999
-0.00131896
-0.0036254
-0.000742503
-0.00380716
-0.000211246
-0.00378945
0.000266107
-0.00353617
0.00112671
-0.00298122
0.00149164
-0.00267142
0.00174971
-0.00226522
0.00200164
-0.0017666
0.00223123
-0.00127842
0.00244536
-0.000848342
0.00264647
-0.000514763
0.00275689
-0.000277726
0.00279378
-0.000102147
0.00276878
4.13326e-05
0.00268819
0.000169832
0.00255435
0.000295144
0.00236591
0.000429823
0.00212032
0.000590142
0.00182556
0.000799845
0.00161892
0.00116915
0.00147648
0.00170616
0.00129608
0.0023608
0.00228435
0.00256515
0.00133203
0.000987224
0.00191575
-0.000555233
0.0020342
-0.000575748
0.0104767
-0.00132451
0.00476959
-0.0015839
0.00358634
-0.00174968
0.002791
-0.00186361
0.00225491
-0.00193512
0.00175754
-0.00197065
0.00126332
-0.00197446
0.000749105
-0.00194334
0.000183226
-0.00185548
-0.000477065
-0.00170103
-0.00121907
-0.00146999
-0.00203176
-0.00116527
-0.00285278
-0.000792785
-0.00357247
-0.000372804
-0.00404539
6.76268e-05
-0.00424759
0.000472848
-0.00419468
0.000847082
-0.0039104
0.00129749
-0.00343163
0.00159542
-0.00296934
0.00179784
-0.00246763
0.00196864
-0.0019374
0.00211993
-0.00142971
0.00225432
-0.00098273
0.00235935
-0.000619797
0.00241804
-0.000336418
0.00243002
-0.000114121
0.00240042
7.09341e-05
0.00233391
0.000236337
0.00223412
0.000394929
0.00210487
0.00055908
0.00195289
0.000742115
0.00179239
0.000960349
0.00169955
0.00126199
0.00175384
0.00165187
0.00196219
0.00215244
0.00220452
0.00232282
0.00172448
0.00146726
0.00079861
0.00037064
0.00293012
-0.000543361
0.0115123
-0.00124339
0.00546962
-0.00119138
0.00353433
-0.00119957
0.00279919
-0.0011919
0.00224723
-0.00115852
0.00172416
-0.00110158
0.00120638
-0.00102677
0.000674298
-0.000928703
8.51611e-05
-0.000780053
-0.000625715
-0.000590946
-0.00140818
-0.000350715
-0.00227199
-6.64724e-05
-0.00313703
0.000238978
-0.00387793
0.000549532
-0.00435595
0.000845076
-0.00454314
0.00110816
-0.00445776
0.00134129
-0.00414354
0.00157244
-0.00366278
0.0017312
-0.00312809
0.00183012
-0.00256656
0.00189933
-0.0020066
0.00195458
-0.00148496
0.00200107
-0.00102922
0.00203356
-0.000652289
0.00204634
-0.000349199
0.00203598
-0.000103754
0.00200312
0.000103788
0.0019507
0.000288761
0.00188223
0.000463395
0.00180256
0.000638753
0.00171971
0.000824968
0.00164809
0.00103197
0.00163041
0.00127967
0.00171144
0.00157084
0.0019143
0.00194959
0.0021647
0.00207242
0.00219178
0.00144018
0.00162924
0.000933188
0.00466174
-0.000483559
0.0125313
-0.00105129
0.00603735
-0.000696832
0.00317987
-0.000635814
0.00273817
-0.000567412
0.00217883
-0.000462863
0.00161961
-0.00033413
0.00107764
-0.000183363
0.00052353
5.42146e-06
-0.000103623
0.000223177
-0.00084347
0.000462742
-0.00164775
0.000720719
-0.00252997
0.00097836
-0.00339467
0.00120794
-0.00410751
0.00140827
-0.00455628
0.00157025
-0.00470513
0.00168846
-0.00457599
0.00176761
-0.0042227
0.00182017
-0.00371533
0.0018294
-0.00313733
0.00180372
-0.00254087
0.00176223
-0.00196511
0.00171994
-0.00144267
0.0016844
-0.000993684
0.0016557
-0.000623596
0.00163004
-0.000323538
0.00160263
-7.63378e-05
0.00157117
0.000135244
0.00153576
0.000324172
0.00149747
0.000501681
0.00145904
0.000677187
0.00142596
0.000858046
0.00140802
0.00104992
0.00142702
0.00126067
0.0015093
0.00148856
0.00170435
0.00175454
0.00197935
0.00179742
0.00214073
0.0012788
0.00174066
0.00133326
0.00676658
0.00297849
0.01014
0.00202295
0.00699289
0.000869493
0.00433333
0.000371183
0.00323649
0.000214416
0.0023356
0.000270752
0.00156327
0.000424352
0.000924044
0.000637761
0.000310122
0.000896544
-0.000362406
0.0011609
-0.00110782
0.00143924
-0.0019261
0.00170663
-0.00279735
0.00193361
-0.00362166
0.00209571
-0.00426962
0.00218679
-0.00464736
0.00220924
-0.00472759
0.00217177
-0.00453852
0.00208798
-0.00413891
0.00197314
-0.0036005
0.00183297
-0.00299716
0.00167975
-0.00238766
0.00153045
-0.00181582
0.00139983
-0.00131205
0.00129627
-0.000890118
0.00122125
-0.000548575
0.00117023
-0.00027252
0.00113611
-4.22168e-05
0.00111359
0.000157755
0.0010991
0.000338666
0.00109021
0.000510567
0.00108657
0.000680827
0.00109008
0.000854538
0.00110485
0.00103514
0.00113966
0.00122586
0.00120518
0.00142303
0.00133506
0.00162466
0.00152805
0.00160444
0.0015991
0.00120776
0.000276035
0.00265635
0.00742524
0.00403204
0.00624821
0.00366821
0.00735673
0.00254247
0.00545907
0.00188911
0.00388985
0.00153258
0.00269212
0.00138774
0.00170812
0.00142137
0.000890413
0.00159536
0.000136129
0.00184687
-0.000613912
0.00212351
-0.00138447
0.0024031
-0.00220568
0.00264848
-0.00304273
0.00281795
-0.00379112
0.0028843
-0.00433597
0.00284404
-0.0046071
0.0027108
-0.00459436
0.00250676
-0.00433449
0.00225619
-0.00388834
0.00198185
-0.00332617
0.0017009
-0.00271621
0.00143058
-0.00211734
0.00118875
-0.00157399
0.000990315
-0.00111362
0.000841831
-0.000741633
0.00074273
-0.000449475
0.000684656
-0.000214446
0.000656974
-1.45344e-05
0.000650892
0.000163837
0.000659372
0.000330186
0.000677517
0.000492423
0.000702799
0.000655545
0.000734035
0.000823302
0.000769601
0.000999578
0.000805314
0.00119015
0.000822552
0.0014058
0.00075571
0.0016915
0.00025068
0.00210948
-0.00165811
0.00311692
-0.0031659
0.00416435
0.00436226
0.0024093
0.00400344
0.00330431
0.00646173
0.00324832
0.00551507
0.00303763
0.00410054
0.00284672
0.00288304
0.00272344
0.00183139
0.00270936
0.000904495
0.00279792
4.75692e-05
0.00295928
-0.000775269
0.00316942
-0.00159461
0.00338681
-0.00242306
0.00355151
-0.00320743
0.00360869
-0.0038483
0.00353152
-0.00425879
0.00332526
-0.00440084
0.00301595
-0.00428505
0.00263793
-0.00395647
0.00222456
-0.00347499
0.00180541
-0.00290702
0.00140394
-0.00231474
0.00104165
-0.00175505
0.000737769
-0.00127011
0.000506555
-0.000882403
0.000347131
-0.000582209
0.000251826
-0.00035417
0.000204973
-0.000167593
0.000193021
-2.58283e-06
0.00020541
0.000151448
0.000234098
0.000301498
0.000274168
0.000452353
0.000322682
0.00060703
0.000377254
0.00076873
0.000434062
0.000942771
0.000486387
0.00113782
0.000512096
0.00138009
0.000451198
0.00175238
0.000160439
0.00240018
-0.000355249
0.00363284
-0.000663778
0.00447318
0.00381172
0.00145586
0.00274183
0.00274702
0.00517057
0.00343153
0.00483056
0.0037182
0.00381387
0.00381717
0.00278407
0.00384546
0.0018031
0.00388135
0.000868601
0.00394994
-2.10183e-05
0.0040592
-0.000884536
0.00419863
-0.00173404
0.00431713
-0.00254155
0.00434409
-0.00323439
0.00422784
-0.00373204
0.00395604
-0.00398699
0.00355114
-0.00399593
0.00305295
-0.00378686
0.00250541
-0.00340893
0.0019472
-0.00291679
0.00141233
-0.00237216
0.000926926
-0.00182934
0.000517637
-0.00134576
0.000202023
-0.000954498
-1.34958e-05
-0.000666885
-0.000143852
-0.000451854
-0.000212354
-0.000285668
-0.000239309
-0.000140639
-0.000236555
-5.33712e-06
-0.000211761
0.000126653
-0.000170241
0.000259978
-0.000115632
0.000397744
-5.07041e-05
0.000542103
2.20968e-05
0.000695929
9.99765e-05
0.000864893
0.00018071
0.00105709
0.000253231
0.00130756
0.00025493
0.00175063
0.000202192
0.00245267
0.000521985
0.00331283
0.000728239
0.00426688
0.00465927
0.00216677
0.000801028
0.00293936
0.00439797
0.00359196
0.00417796
0.00416386
0.00324197
0.0044928
0.00245514
0.0046677
0.0016282
0.00478444
0.000751864
0.00488828
-0.000124858
0.00499327
-0.000989527
0.0050701
-0.00181086
0.00505354
-0.00252498
0.00488343
-0.00306427
0.00453715
-0.00338575
0.00403361
-0.00348344
0.00341794
-0.00338026
0.00274123
-0.00311015
0.00205221
-0.00271991
0.0013888
-0.00225338
0.000789622
-0.00177298
0.000279442
-0.00131916
-0.000105711
-0.000960603
-0.000361532
-0.000698676
-0.00051423
-0.000514188
-0.000598691
-0.000367395
-0.000641747
-0.000242614
-0.00065465
-0.000127738
-0.000643398
-1.65893e-05
-0.000611846
9.51e-05
-0.000562922
0.000211054
-0.000499781
0.000334603
-0.000426128
0.00046845
-0.000346334
0.000616135
-0.000264997
0.000783558
-0.00019015
0.000982245
-0.000150232
0.00126763
-0.000201995
0.00180224
-0.000227781
0.002478
0.000285429
0.00279901
0.000626942
0.00392485
0.00541729
-0.00157593
0.00262208
0.00111792
0.00170412
0.0033501
0.00194578
0.00435431
0.00223776
0.00485992
0.00194953
0.00517534
0.00131278
0.00540294
0.000524257
0.00557911
-0.00030103
0.00567634
-0.00108675
0.00563315
-0.00176766
0.00539873
-0.00229055
0.00496122
-0.00262674
0.00434848
-0.00277299
0.00361383
-0.00274878
0.00281807
-0.0025845
0.00201193
-0.002304
0.00124405
-0.00195203
0.00054521
-0.00155454
-3.85031e-05
-0.00118926
-0.000467098
-0.000890558
-0.000739215
-0.000688482
-0.000900723
-0.000537168
-0.000997663
-0.000417251
-0.00105285
-0.000312214
-0.00107955
-0.000215919
-0.00108291
-0.000124381
-0.00106526
-3.42468e-05
-0.00102813
5.79774e-05
-0.000973405
0.000156326
-0.000904456
0.000265655
-0.00082695
0.000390944
-0.000749808
0.000538995
-0.000688234
0.00072199
-0.000672236
0.000966276
-0.000749893
0.00134536
-0.000947144
0.00199953
-0.00129524
0.00282586
-0.00183006
0.00333334
-0.00180708
0.00390129
0.00375798
0.0028838
0.00457273
0.00487261
0.0016459
0.0053609
0.00174946
0.00559922
0.00171121
0.00583078
0.00108121
0.00601635
0.00033868
0.00608019
-0.000364878
0.00595175
-0.000958307
0.00559766
-0.00141355
0.00503032
-0.00172318
0.00429671
-0.00189312
0.00345559
-0.00193184
0.0025669
-0.00186007
0.00168698
-0.00170456
0.000850366
-0.00146738
9.98802e-05
-0.00120154
-0.000507615
-0.000947039
-0.000934853
-0.000762012
-0.00120156
-0.000623842
-0.00136766
-0.000522375
-0.0014702
-0.000434635
-0.00153505
-0.00035241
-0.00157353
-0.000273752
-0.00159026
-0.00019921
-0.00158652
-0.00012813
-0.00156267
-5.80967e-05
-0.00151962
1.49273e-05
-0.00145874
9.54491e-05
-0.00138247
0.000189388
-0.00129673
0.0003052
-0.00121175
0.00045401
-0.00114439
0.000654632
-0.00112269
0.000944633
-0.00117802
0.00140088
-0.00131321
0.00213507
-0.00168345
0.00319649
-0.00272088
0.00437105
-0.00306456
0.00424518
0.000857653
0.00793734
0.00535749
0.00581972
0.00386705
0.00557139
0.00195947
0.00564113
0.00101139
0.00560368
0.000376059
0.00535885
-0.000120085
0.00489401
-0.000493473
0.00424884
-0.000768377
0.00347698
-0.000951301
0.00263236
-0.00104847
0.00175774
-0.00105721
0.000893161
-0.00099547
7.62189e-05
-0.000887604
-0.000632522
-0.000758625
-0.00117784
-0.000656199
-0.00155361
-0.000571239
-0.0018024
-0.000513202
-0.0019617
-0.000464525
-0.00206979
-0.000414289
-0.00214658
-0.000357874
-0.00220109
-0.00029794
-0.00223637
-0.000238516
-0.0022532
-0.00018242
-0.0022512
-0.000130148
-0.00222947
-7.98294e-05
-0.00218735
-2.71687e-05
-0.00212411
3.22263e-05
-0.00203838
0.000103665
-0.00193012
0.000196932
-0.00180246
0.000326324
-0.00166221
0.000514326
-0.00151659
0.000798993
-0.001359
0.00124338
-0.00115086
0.00192728
-0.000833183
0.00287934
-0.000456461
0.00399481
-3.94409e-05
0.00382859
0.000990983
0.00411299
0.00149107
0.00451257
0.00346743
0.00373857
0.00273338
0.00323456
0.00151532
0.00288936
0.000721213
0.00252327
0.000245979
0.00207497
-4.51723e-05
0.00153077
-0.000224173
0.00091041
-0.000330925
0.00023351
-0.000371555
-0.000457656
-0.000366025
-0.00110061
-0.0003525
-0.00164329
-0.000344892
-0.00205487
-0.000347006
-0.00234797
-0.000363053
-0.00254407
-0.000375097
-0.00268274
-0.000374502
-0.00279113
-0.000356137
-0.00288267
-0.000322795
-0.00296028
-0.000280338
-0.00302324
-0.000235065
-0.0030703
-0.000191544
-0.00310066
-0.000152122
-0.00311354
-0.00011729
-0.00310709
-8.62532e-05
-0.00307677
-5.74289e-05
-0.00301669
-2.77863e-05
-0.00292062
7.6551e-06
-0.00278034
5.66611e-05
-0.00258861
0.00013453
-0.00234107
0.000266664
-0.00203051
0.00048827
-0.00162569
0.000838417
-0.00105348
0.00135507
-0.000244941
0.00207105
0.000713766
0.00303643
0.00131332
0.00322945
0.00248118
-0.00260254
-0.00676172
-0.0074041
-0.0074578
-0.00374777
-0.0021652
-0.00167081
0.00139043
-0.000757211
0.00181973
-0.000557527
0.00131559
-0.000636517
0.000800166
-0.000823571
0.000433006
-0.00106724
0.000198477
-0.00135945
6.80186e-05
-0.00170312
1.27272e-05
-0.00207449
-1.86721e-07
-0.00243984
-6.70911e-07
-0.00277298
-1.9322e-05
-0.00304003
-7.7782e-05
-0.00322166
-0.000165299
-0.00334184
-0.000242801
-0.00343401
-0.000282891
-0.00352306
-0.000285451
-0.00361705
-0.000262193
-0.00371444
-0.000225506
-0.00380996
-0.000184956
-0.00389776
-0.000147405
-0.00397249
-0.000116944
-0.00402987
-9.48074e-05
-0.00406714
-8.00357e-05
-0.00408225
-7.10799e-05
-0.00407224
-6.73111e-05
-0.00403009
-6.97813e-05
-0.00394311
-7.91544e-05
-0.00379408
-9.22339e-05
-0.00356329
-9.62165e-05
-0.00323397
-6.27198e-05
-0.00279505
4.91533e-05
-0.00222227
0.00026534
-0.00143821
0.000570696
-0.000360656
0.000993273
0.00090664
0.00176914
0.00134112
0.00279508
0.00400453
-0.00734857
0.0010403
-0.0081167
-0.00668967
-0.00717097
-0.00311093
-0.00565186
-0.000128695
-0.00455904
0.000726854
-0.00396647
0.000722952
-0.00370584
0.00053947
-0.00363767
0.000364771
-0.00367869
0.000239452
-0.00377315
0.000162453
-0.00387888
0.000118453
-0.00396701
8.79619e-05
-0.00402295
5.53197e-05
-0.00405423
1.20327e-05
-0.00408242
-4.94864e-05
-0.0041261
-0.000121528
-0.00419297
-0.000175874
-0.00427959
-0.00019626
-0.00437688
-0.00018822
-0.00447497
-0.000164222
-0.00456627
-0.000134367
-0.00464614
-0.000105266
-0.00471233
-8.13896e-05
-0.0047639
-6.55076e-05
-0.0048004
-5.83768e-05
-0.00482151
-5.89091e-05
-0.00482679
-6.57022e-05
-0.00481463
-7.92947e-05
-0.00478123
-0.000102937
-0.00471894
-0.00014115
-0.00461617
-0.000194689
-0.00445716
-0.000254926
-0.00422084
-0.000298824
-0.00388035
-0.000291262
-0.00341288
-0.000202295
-0.00278301
-5.95624e-05
-0.00177408
-1.61687e-05
9.07583e-06
-1.44529e-05
0.00103103
0.00177297
0.00522306
0.00158188
-0.00504335
-0.00809143
-0.00816102
-0.0073801
-0.00661078
-0.00603151
-0.00563158
-0.00535989
-0.00516682
-0.00501836
-0.00490026
-0.00481419
-0.00477067
-0.00478824
-0.00487784
-0.00502203
-0.00518694
-0.00534409
-0.00547742
-0.00558098
-0.00565543
-0.00570599
-0.00574068
-0.00576835
-0.00579682
-0.00583253
-0.0058825
-0.00595701
-0.00607088
-0.00623965
-0.00647022
-0.00674636
-0.00701656
-0.00719921
-0.00724028
-0.00723885
-0.00723643
-0.00544721
)
;

boundaryField
{
    floor
    {
        type            calculated;
        value           nonuniform List<scalar> 
36
(
0
0
0
0
0
0
0
0
0
0
0
0
0
0
0
0
0
0
0
-6.43927e-06
-1.6885e-05
-2.60323e-05
-3.43083e-05
-3.49096e-05
-2.8482e-05
-2.8535e-05
-2.92043e-06
-5.44243e-06
-5.68878e-06
-5.90896e-06
-4.85418e-06
-8.94023e-06
-1.02106e-05
-1.28342e-05
-1.44559e-05
-1.5445e-05
)
;
    }
    ceiling
    {
        type            calculated;
        value           nonuniform List<scalar> 
43
(
-5.77927e-05
-6.44538e-05
-6.28994e-05
-5.91781e-05
-5.41594e-05
-4.64688e-05
-3.9905e-05
-3.52525e-05
-3.22964e-05
-3.06538e-05
-2.99961e-05
-3.00856e-05
-3.06722e-05
-3.13906e-05
-3.18207e-05
-3.18595e-05
-3.16571e-05
-3.13834e-05
-3.11559e-05
-3.10204e-05
-3.09699e-05
-3.09675e-05
-3.09626e-05
-3.09001e-05
-3.07263e-05
-3.03939e-05
-2.98672e-05
-2.91246e-05
-2.8157e-05
-2.69674e-05
-2.55774e-05
-2.40442e-05
-2.24756e-05
-2.10117e-05
-1.97652e-05
-1.87636e-05
-1.79466e-05
-1.72185e-05
-1.65375e-05
-1.68212e-05
1.934e-05
1.51853e-05
-0.000246578
)
;
    }
    sWall
    {
        type            calculated;
        value           nonuniform List<scalar> 9(-0.000140239 -0.000164526 -0.000194255 -0.000225961 -0.00024512 -0.000281059 -0.000423533 -0.000453426 -0.000483772);
    }
    nWall
    {
        type            calculated;
        value           nonuniform List<scalar> 
14
(
-8.99275e-05
-9.73161e-05
-0.00010239
-0.000102969
-0.000113234
-0.000119464
-0.000131559
-0.000148089
-0.000164113
-0.000172122
-0.000176597
-0.000182139
-0.000187578
-0.000207484
)
;
    }
    sideWalls
    {
        type            empty;
        value           nonuniform 0();
    }
    glass1
    {
        type            calculated;
        value           nonuniform List<scalar> 9(-6.40345e-05 -0.000170322 -0.000257925 -0.00033121 -0.000393195 -0.000446401 -0.000492212 -0.000535492 -0.000587174);
    }
    glass2
    {
        type            calculated;
        value           nonuniform List<scalar> 2(-0.000364214 -0.000382737);
    }
    sun
    {
        type            calculated;
        value           uniform 0;
    }
    Table_master
    {
        type            calculated;
        value           nonuniform List<scalar> 9(-1.53993e-07 -1.5411e-07 -1.54142e-07 -1.54162e-07 -1.54175e-07 -1.5418e-07 -1.54178e-07 -1.54164e-07 -1.54111e-07);
    }
    Table_slave
    {
        type            calculated;
        value           nonuniform List<scalar> 9(1.53662e-07 1.53719e-07 1.53718e-07 1.53734e-07 1.53755e-07 1.53799e-07 1.53866e-07 1.53959e-07 1.54087e-07);
    }
    inlet
    {
        type            calculated;
        value           uniform -0.0116489;
    }
    outlet
    {
        type            calculated;
        value           nonuniform List<scalar> 2(0.00978785 0.0122594);
    }
}


// ************************************************************************* //
