/*--------------------------------*- C++ -*----------------------------------*\
  =========                 |
  \\      /  F ield         | OpenFOAM: The Open Source CFD Toolbox
   \\    /   O peration     | Website:  https://openfoam.org
    \\  /    A nd           | Version:  6
     \\/     M anipulation  |
\*---------------------------------------------------------------------------*/
FoamFile
{
    version     2.0;
    format      ascii;
    class       volScalarField;
    location    "3600";
    object      alphat;
}
// * * * * * * * * * * * * * * * * * * * * * * * * * * * * * * * * * * * * * //

dimensions      [1 -1 -1 0 0 0 0];

internalField   nonuniform List<scalar> 
778
(
0.000977111
0.00103563
0.00143422
0.00103394
0.0025433
0.00182645
0.0010771
0.00213116
0.00357091
0.00221322
0.00111559
0.00240285
0.0024727
0.00494206
0.00260214
0.00114981
0.00257954
0.00344121
0.0023549
0.00674474
0.00299005
0.00118097
0.00276982
0.00376457
0.00391157
0.00239054
0.00882259
0.00338926
0.00121034
0.00295877
0.00405494
0.00438473
0.0037913
0.00290686
0.0107844
0.00374638
0.00123925
0.00313098
0.00432039
0.0046602
0.00454723
0.00323251
0.00407283
0.0123045
0.00386174
0.00126923
0.00326781
0.00455115
0.00486347
0.00476795
0.00442284
0.00263019
0.00584082
0.0118689
0.00380115
0.00129941
0.00334777
0.0047402
0.00500236
0.00484692
0.00465041
0.00406985
0.0025304
0.00754228
0.00963081
0.00357992
0.00132951
0.0033858
0.0048781
0.00508732
0.00482811
0.00461936
0.00446997
0.00329917
0.00354409
0.00793055
0.00824558
0.00327331
0.00136127
0.00335799
0.00498314
0.00513501
0.00474157
0.00445441
0.00441118
0.00408731
0.00220851
0.00517284
0.00772004
0.00741989
0.00298764
0.0013978
0.00321932
0.00509606
0.00518778
0.00463923
0.00420303
0.00417602
0.00418517
0.00271006
0.00323984
0.0060645
0.00746285
0.00661802
0.00298764
0.00143858
0.00288231
0.005211
0.00533066
0.00460097
0.00395758
0.00381748
0.00401574
0.0032132
0.00238468
0.00455039
0.00648934
0.00712375
0.00657631
0.00269904
0.00225762
0.00529476
0.0055917
0.00471536
0.00385567
0.00343466
0.00366658
0.00331004
0.00219661
0.00356296
0.00544928
0.00665975
0.00722875
0.00280574
0.00157307
0.005264
0.00597223
0.00501462
0.00396686
0.00330218
0.00306207
0.00302877
0.00228817
0.00305833
0.00466216
0.00599309
0.00668629
0.00277209
0.00153439
0.00488736
0.0064051
0.00551261
0.00428585
0.00346951
0.00301998
0.0027968
0.00248893
0.00291309
0.00418555
0.00542761
0.00614341
0.00345071
0.000230317
0.00150676
0.0037147
0.00666436
0.00619064
0.0048124
0.00383398
0.00329271
0.00298097
0.00280135
0.00306605
0.00398937
0.00503955
0.00569076
0.00385026
0.000118996
0.00323783
0.00179317
0.00629388
0.00695497
0.00555288
0.004384
0.00371001
0.00333573
0.00317281
0.00333726
0.00398225
0.00482159
0.00534383
0.00398086
0.000150965
0.000491236
0.00295673
0.00472057
0.00767912
0.00645557
0.00515409
0.00427218
0.00377905
0.00355678
0.00361884
0.00403597
0.00465112
0.00504656
0.00393068
0.000274834
0.000318574
0.00109149
0.0046309
0.00525087
0.00185741
0.00823493
0.00745369
0.00609749
0.00503669
0.00436277
0.0039998
0.00391308
0.0041098
0.00447507
0.00465091
0.00363644
0.000376764
0.000463023
0.00257777
0.00635546
0.00284338
0.004557
0.00215919
0.00501735
0.0081175
0.00841296
0.00712879
0.00599986
0.00516374
0.00461802
0.00433472
0.00429187
0.00438888
0.00432134
0.00333228
0.000599744
0.00157499
0.0063685
0.0077007
0.00221808
0.00277316
0.00224489
0.00166789
0.00698744
0.00856448
0.00898523
0.0080964
0.00705222
0.00617255
0.00549409
0.00502697
0.00475717
0.00460806
0.00435114
0.00348369
0.00161275
0.00457362
0.00961314
0.00944192
0.0022829
0.00271291
0.00137529
0.00401395
0.00781366
0.00891093
0.00920602
0.00878699
0.00801562
0.00725594
0.00658238
0.00603318
0.00562406
0.00532177
0.00499936
0.00442127
0.00375172
0.00799908
0.0117649
0.0105779
0.00227046
0.001024
0.00252967
0.00549714
0.00792164
0.00902075
0.00927658
0.00910859
0.00870678
0.00821119
0.00770328
0.00722955
0.00683095
0.00652467
0.00629015
0.00612199
0.00653349
0.0106206
0.0129667
0.0110645
0.00218608
0.00105514
0.00349455
0.00604032
0.00672662
0.00889465
0.00919891
0.00916266
0.00903674
0.00885615
0.00862452
0.00836808
0.00813343
0.0079729
0.00794532
0.0081832
0.00920115
0.0122464
0.0134804
0.0110588
0.00206594
0.00106242
0.00397917
0.00535768
0.00154547
0.00839325
0.00899336
0.00901785
0.00904302
0.00910778
0.00916358
0.0091895
0.00921138
0.00928839
0.00950937
0.0100315
0.0111795
0.013057
0.0134555
0.0106993
0.00193984
0.00104581
0.00393205
0.00137218
0.00140635
0.00679739
0.0086725
0.00875119
0.00881293
0.00899861
0.00925539
0.00952767
0.00980509
0.0101228
0.0105527
0.011197
0.0121353
0.0131428
0.0128923
0.0100553
0.0018199
0.00101073
0.00306616
0.00119121
0.00130013
0.00592211
0.00816479
0.00843843
0.00846005
0.00863772
0.00895916
0.00936048
0.00980263
0.0102821
0.0108215
0.0114371
0.0120383
0.012319
0.0117828
0.00915073
0.00170533
0.000958369
0.00261642
0.00105264
0.00121162
0.00531059
0.00766085
0.00812135
0.00809595
0.0081713
0.00842219
0.00880314
0.00926239
0.00976887
0.0102891
0.0107612
0.0110093
0.0107933
0.0101702
0.0080273
0.00159429
0.000904206
0.00230914
0.000944921
0.00113644
0.004824
0.00719859
0.00783439
0.00779692
0.00773997
0.0078324
0.00806387
0.00839316
0.00877042
0.00914836
0.00940039
0.00937377
0.00892277
0.00828132
0.0068066
0.00149057
0.000853393
0.00207693
0.00085971
0.00106915
0.00432871
0.00676193
0.00757836
0.00758961
0.00743695
0.00736074
0.00739018
0.00749479
0.00764405
0.00777271
0.00781016
0.00762109
0.00708367
0.00649906
0.00568381
0.00140398
0.00080701
0.00188708
0.000791247
0.00100578
0.00383651
0.00626421
0.00732237
0.00745355
0.0072835
0.00710419
0.00697988
0.00688553
0.00679932
0.00663981
0.006433
0.00610399
0.00558965
0.00522113
0.0048157
0.0013459
0.000765342
0.00172529
0.000735626
0.000942773
0.00335076
0.00570987
0.00699794
0.00733613
0.00723674
0.00705113
0.00688582
0.00671468
0.00638939
0.00592353
0.00543745
0.0049992
0.00462403
0.00450705
0.0042579
0.00131724
0.000727757
0.00158254
0.000690662
0.000874552
0.00286553
0.00509809
0.00658046
0.00716723
0.0072208
0.0071087
0.00699208
0.00681057
0.00632142
0.00556817
0.00482572
0.00434312
0.00411737
0.00416826
0.00394584
0.00130748
0.000693623
0.00144917
0.000656198
0.000820013
0.00236819
0.00442563
0.00605342
0.0068985
0.00715621
0.00716356
0.00713312
0.00697444
0.00642931
0.0054767
0.00453157
0.00400905
0.00387359
0.0040257
0.00380257
0.00131142
0.000662229
0.00131723
0.000729092
0.000854369
0.00183303
0.00369005
0.00540847
0.00649923
0.00698804
0.00713955
0.00718092
0.00709054
0.00657751
0.00554965
0.00444354
0.00384467
0.00375236
0.00398097
0.00377526
0.00132446
0.000632661
0.00119813
0.000863463
0.00145616
0.00141366
0.00289896
0.00464633
0.00595494
0.00668523
0.00700576
0.00712371
0.00708128
0.00667145
0.00567814
0.00446377
0.00375613
0.00368316
0.00398265
0.00382586
0.00134277
0.000603652
0.00109606
0.0013506
0.000765231
0.00143639
0.00217713
0.00378925
0.00526535
0.00623373
0.00674559
0.00696956
0.00697993
0.00665062
0.00576424
0.00450999
0.00368953
0.00362815
0.00399673
0.00391995
0.00136335
0.000573076
0.00121836
0.000696132
0.00112935
0.00166944
0.00293768
0.00445208
0.00563252
0.00634889
0.0067102
0.00679937
0.00653743
0.00574315
0.00450991
0.0036043
0.0035615
0.00399781
0.00402449
0.00138413
0.000546194
0.000615347
0.000906423
0.00130421
0.00215168
0.00358552
0.00489725
0.00581213
0.0063332
0.00653018
0.0063417
0.00561584
0.00441735
0.00347145
0.00346634
0.00397118
0.00411213
0.00140397
0.000493857
0.00119859
0.00146488
0.00160532
0.00270477
0.00406766
0.00513889
0.00582639
0.00615418
0.00605299
0.00539407
0.00422388
0.00328793
0.00334133
0.00391686
0.00416796
0.00142262
0.00114334
0.00255886
0.00146299
0.00192159
0.00313458
0.00432148
0.00516587
0.00563564
0.00563754
0.0050687
0.00395713
0.00307232
0.00320432
0.00384894
0.00419304
0.00144063
0.0013633
0.00260351
0.00131922
0.00186577
0.0031803
0.00425934
0.00487924
0.00499663
0.00459185
0.00363171
0.00286126
0.00308217
0.00378705
0.00420094
0.00145915
0.00160946
0.00382737
0.00164142
0.00144857
0.00286481
0.00367485
0.00390341
0.00383104
0.00324154
0.00267874
0.00299749
0.00374543
0.00420797
0.00147964
0.00212644
0.00608813
0.00290555
0.00154152
0.0021742
0.00241796
0.00270062
0.00274868
0.00252981
0.00295555
0.00373025
0.00422438
0.00150363
0.00239462
0.00587821
0.00317374
0.00180306
0.00172142
0.00181068
0.00217698
0.00240284
0.00295045
0.00374404
0.00425244
0.00153278
0.00244878
0.0065352
0.00372201
0.00231379
0.00190748
0.00185045
0.00229539
0.00297528
0.00378769
0.00429367
0.00156924
0.002485
0.00661071
0.00420788
0.00287928
0.00218171
0.00228564
0.00303776
0.00386858
0.0043554
0.00161624
0.00259818
0.00665874
0.004373
0.00319179
0.00260297
0.00318016
0.00400852
0.00445635
0.00167828
0.00250169
0.00561038
0.00449765
0.00349005
0.00350766
0.00425329
0.0046265
0.00176039
0.00237258
0.00543431
0.00488239
0.00424531
0.00468562
0.00490561
0.00186615
0.00230543
0.00610171
0.00593099
0.00548333
0.00533174
0.00199582
0.00244957
0.0065233
0.00740056
0.00596336
0.00214642
0.00256413
0.00741507
0.00722948
0.0023141
0.00264374
0.00780453
0.00249502
0.00269395
0.00267586
0.00249876
)
;

boundaryField
{
    floor
    {
        type            compressible::alphatWallFunction;
        Prt             0.85;
        value           nonuniform List<scalar> 
36
(
0.000202567
0.000145528
0.000149891
0.000150909
0.000148585
0.000143661
0.000136276
0.000128587
0.000121324
0.00011465
0.000108615
0.000103138
9.8134e-05
9.3506e-05
8.91226e-05
8.47977e-05
8.02116e-05
7.6155e-05
6.81853e-05
6.81845e-05
8.65449e-05
9.85033e-05
0.000108598
0.000128903
0.000169808
0.000162176
0.000202564
0.000220638
0.000215456
0.000211746
0.000145526
0.000211743
0.00019398
0.000249851
0.000233265
0.000258303
)
;
    }
    ceiling
    {
        type            compressible::alphatWallFunction;
        Prt             0.85;
        value           nonuniform List<scalar> 
43
(
0.000368353
0.000308753
0.000297708
0.000305309
0.000313655
0.000312075
0.000301227
0.000285693
0.000269281
0.000253564
0.000238451
0.000223699
0.000209816
0.000198135
0.000190236
0.000186321
0.000184976
0.000185502
0.000187277
0.000189773
0.000192581
0.000195416
0.000198119
0.000200657
0.000203101
0.000205606
0.000208367
0.000211589
0.000215488
0.00022034
0.000226563
0.000234737
0.000245508
0.000259337
0.00027623
0.000295763
0.000317383
0.000340545
0.000363522
0.000341035
0.000366898
0.000380318
0.000433297
)
;
    }
    sWall
    {
        type            compressible::alphatWallFunction;
        Prt             0.85;
        value           nonuniform List<scalar> 9(0.000501718 0.000474703 0.00043698 0.000401513 0.000401502 0.000365322 0.000382877 0.000374117 0.00036663);
    }
    nWall
    {
        type            compressible::alphatWallFunction;
        Prt             0.85;
        value           nonuniform List<scalar> 
14
(
0.000161722
0.000191884
0.000224996
0.000334255
0.000338868
0.000352999
0.00034033
0.000324163
0.000315885
0.000334756
0.000348909
0.000358903
0.000365069
0.000340335
)
;
    }
    sideWalls
    {
        type            empty;
    }
    glass1
    {
        type            compressible::alphatWallFunction;
        Prt             0.85;
        value           nonuniform List<scalar> 9(0.000135083 0.000197108 0.000248717 0.000298541 0.000347796 0.000396221 0.000445421 0.000488976 0.000503074);
    }
    glass2
    {
        type            compressible::alphatWallFunction;
        Prt             0.85;
        value           nonuniform List<scalar> 2(0.000290555 0.000324872);
    }
    sun
    {
        type            compressible::alphatWallFunction;
        Prt             0.85;
        value           nonuniform List<scalar> 
14
(
0.000138969
0.000147176
0.000146938
0.000152975
0.000158338
0.000163086
0.000167396
0.000171448
0.000175424
0.000179536
0.000183665
0.000187771
0.000192094
0.000197051
)
;
    }
    Table_master
    {
        type            compressible::alphatWallFunction;
        Prt             0.85;
        value           nonuniform List<scalar> 9(0.000193842 0.000169068 0.000149809 0.000134634 0.000122486 0.000112623 0.000104534 9.79418e-05 9.28534e-05);
    }
    Table_slave
    {
        type            compressible::alphatWallFunction;
        Prt             0.85;
        value           nonuniform List<scalar> 9(0.000217225 0.000198481 0.00018403 0.000171886 0.000161492 0.000152122 0.000143233 0.000134332 0.000124615);
    }
    inlet
    {
        type            fixedValue;
        value           uniform 1.94e-05;
    }
    outlet
    {
        type            zeroGradient;
    }
}


// ************************************************************************* //
