/*--------------------------------*- C++ -*----------------------------------*\
  =========                 |
  \\      /  F ield         | OpenFOAM: The Open Source CFD Toolbox
   \\    /   O peration     | Website:  https://openfoam.org
    \\  /    A nd           | Version:  6
     \\/     M anipulation  |
\*---------------------------------------------------------------------------*/
FoamFile
{
    version     2.0;
    format      ascii;
    class       volVectorField;
    location    "3600";
    object      U;
}
// * * * * * * * * * * * * * * * * * * * * * * * * * * * * * * * * * * * * * //

dimensions      [0 1 -1 0 0 0 0];

internalField   nonuniform List<vector> 
778
(
(0.0655913 0.0794106 0)
(-0.155183 0.01577 0)
(-0.164319 0.01463 0)
(-0.192444 0.0122812 0)
(-0.216892 0.00873191 0)
(-0.236965 0.00475111 0)
(-0.252105 0.000423424 0)
(-0.261889 -0.00436377 0)
(-0.2658 -0.009809 0)
(-0.262834 -0.0161926 0)
(-0.251034 -0.0242702 0)
(-0.226331 -0.0348944 0)
(-0.186195 -0.0504229 0)
(-0.144244 -0.0752037 0)
(-0.150136 -0.108612 0)
(0.0546035 0.035491 0)
(0.0156957 -0.0268715 0)
(0.0448667 -0.023266 0)
(0.0692539 -0.0161619 0)
(0.0843065 -0.0103542 0)
(0.091514 -0.00641533 0)
(0.0943492 -0.00433536 0)
(0.095379 -0.00331191 0)
(0.0958252 -0.00272571 0)
(0.0959898 -0.00231397 0)
(0.0958623 -0.001951 0)
(0.0953361 -0.0015119 0)
(0.094081 -0.000759153 0)
(0.091239 0.000843515 0)
(0.0850437 0.00406383 0)
(0.0735205 0.00776781 0)
(0.0598804 0.0116105 0)
(-0.00794234 0.0299673 0)
(0.258386 0.1674 0)
(-0.161239 0.0484035 0)
(-0.141618 0.0459925 0)
(-0.174029 0.0416293 0)
(-0.199402 0.0356851 0)
(-0.220136 0.0291486 0)
(-0.23618 0.0220785 0)
(-0.247448 0.0142476 0)
(-0.253639 0.0053122 0)
(-0.25397 -0.00514288 0)
(-0.247825 -0.0170817 0)
(-0.234124 -0.03086 0)
(-0.214218 -0.0480972 0)
(-0.197646 -0.0699935 0)
(-0.194138 -0.0826869 0)
(-0.166515 -0.0425985 0)
(-0.105415 -0.0364281 0)
(-0.0983359 -0.0445265 0)
(0.109331 -0.0419927 0)
(0.0644242 -0.0411143 0)
(0.0718333 -0.0322428 0)
(0.0857922 -0.0207032 0)
(0.0936776 -0.0104594 0)
(0.0959084 -0.00364043 0)
(0.0956728 -0.000189321 0)
(0.0952865 0.00126197 0)
(0.0952491 0.00190843 0)
(0.0953278 0.00227705 0)
(0.0953326 0.00259338 0)
(0.095231 0.00313134 0)
(0.0949397 0.00440973 0)
(0.0936836 0.00772193 0)
(0.0880917 0.0167466 0)
(0.0743486 0.0253177 0)
(0.0630226 0.0329255 0)
(-0.0519948 0.0635067 0)
(0.42996 0.253966 0)
(-0.194234 0.0847781 0)
(-0.112794 0.0784515 0)
(-0.148266 0.0669783 0)
(-0.170706 0.0555274 0)
(-0.188811 0.0437592 0)
(-0.20266 0.0313792 0)
(-0.212364 0.0180424 0)
(-0.217729 0.00342948 0)
(-0.218098 -0.0126108 0)
(-0.21285 -0.0303159 0)
(-0.20175 -0.0499156 0)
(-0.186113 -0.0715917 0)
(-0.169583 -0.0932497 0)
(-0.151217 -0.104612 0)
(-0.120373 -0.093197 0)
(-0.0796598 -0.0950157 0)
(-0.071552 -0.10769 0)
(0.0920944 -0.088052 0)
(0.0625287 -0.0656727 0)
(0.0743077 -0.0460726 0)
(0.0879199 -0.0292079 0)
(0.0947287 -0.0148688 0)
(0.0918017 -0.0120419 0)
(0.0875694 -0.00798459 0)
(0.085197 -0.00580195 0)
(0.0845047 -0.00456523 0)
(0.0844877 -0.00379576 0)
(0.0847491 -0.0032226 0)
(0.0854032 -0.00259777 0)
(0.0871631 -0.00144068 0)
(0.091843 0.00291746 0)
(0.0900005 0.0250881 0)
(0.0732134 0.0423191 0)
(0.0699625 0.0574092 0)
(-0.0900394 0.100788 0)
(0.578521 0.325856 0)
(-0.240101 0.121836 0)
(-0.0808515 0.109249 0)
(-0.121599 0.0898839 0)
(-0.139039 0.0741054 0)
(-0.153109 0.0586777 0)
(-0.163877 0.0427986 0)
(-0.171482 0.0258549 0)
(-0.175703 0.00723806 0)
(-0.175778 -0.013502 0)
(-0.171096 -0.0364549 0)
(-0.161536 -0.0614545 0)
(-0.147678 -0.0873826 0)
(-0.130716 -0.110319 0)
(-0.109775 -0.123229 0)
(-0.0823123 -0.124584 0)
(-0.0527175 -0.126435 0)
(-0.0336071 -0.123245 0)
(0.0160727 -0.0568295 0)
(0.0606435 -0.0929704 0)
(0.0683582 -0.0791135 0)
(0.0790076 -0.0587609 0)
(0.0915107 -0.0395273 0)
(0.102863 -0.0208644 0)
(0.115609 -0.0132027 0)
(0.126749 -0.00882868 0)
(0.132338 -0.00561661 0)
(0.133311 -0.0031047 0)
(0.130773 -0.000876123 0)
(0.125296 0.00129524 0)
(0.116759 0.00367438 0)
(0.104399 0.0067238 0)
(0.0851618 0.0111444 0)
(0.0713081 0.0367978 0)
(0.0600489 0.0604902 0)
(0.0761119 0.0832646 0)
(-0.117669 0.136967 0)
(0.705696 0.383701 0)
(-0.287673 0.157038 0)
(-0.0477161 0.133816 0)
(-0.0963193 0.106958 0)
(-0.107777 0.087642 0)
(-0.116817 0.069227 0)
(-0.123614 0.0505058 0)
(-0.12828 0.030646 0)
(-0.130646 0.00877528 0)
(-0.129844 -0.0157819 0)
(-0.125349 -0.0430541 0)
(-0.116731 -0.0726706 0)
(-0.104023 -0.102814 0)
(-0.0875741 -0.129075 0)
(-0.0676488 -0.145779 0)
(-0.0443297 -0.152276 0)
(-0.0204823 -0.152408 0)
(4.29718e-05 -0.14378 0)
(0.0305924 -0.115023 0)
(0.0567983 -0.109347 0)
(0.0704239 -0.0924028 0)
(0.080597 -0.0712185 0)
(0.0906769 -0.0507588 0)
(0.100243 -0.032718 0)
(0.109351 -0.0193535 0)
(0.116365 -0.00997819 0)
(0.119772 -0.00328178 0)
(0.11995 0.00197016 0)
(0.117516 0.00650979 0)
(0.112847 0.0108506 0)
(0.105973 0.0155044 0)
(0.0968285 0.0211755 0)
(0.0849168 0.0291669 0)
(0.0733808 0.0471611 0)
(0.0629121 0.0711888 0)
(0.0944299 0.0992871 0)
(0.0165847 0.138169 0)
(0.0958499 0.182828 0)
(0.140984 0.147533 0)
(-0.224968 0.203413 0)
(0.810401 0.431999 0)
(-0.331309 0.190714 0)
(-0.0173353 0.150295 0)
(-0.0733983 0.117572 0)
(-0.0786305 0.0955692 0)
(-0.0822595 0.0750084 0)
(-0.08452 0.0544092 0)
(-0.0855617 0.0327851 0)
(-0.085308 0.00891894 0)
(-0.0826323 -0.0183634 0)
(-0.0774656 -0.0489881 0)
(-0.0688436 -0.0824644 0)
(-0.0568636 -0.116458 0)
(-0.0418341 -0.146252 0)
(-0.0248699 -0.165956 0)
(-0.00650766 -0.174486 0)
(0.0118768 -0.172776 0)
(0.0277916 -0.161057 0)
(0.0459734 -0.139371 0)
(0.0624537 -0.122376 0)
(0.0731607 -0.102501 0)
(0.0808698 -0.0804276 0)
(0.0876462 -0.0590678 0)
(0.0938339 -0.0401822 0)
(0.099162 -0.0250047 0)
(0.102838 -0.0136469 0)
(0.104422 -0.00495493 0)
(0.103968 0.0022316 0)
(0.101787 0.00868571 0)
(0.0981322 0.0149243 0)
(0.0931667 0.0214761 0)
(0.0871251 0.0289806 0)
(0.0802697 0.0383635 0)
(0.0745338 0.052783 0)
(0.0693039 0.0727993 0)
(0.0912849 0.0985533 0)
(0.0730565 0.107359 0)
(0.0894947 0.0480906 0)
(0.14622 -0.0367417 0)
(-0.328755 0.105762 0)
(0.879882 0.474713 0)
(-0.368628 0.221004 0)
(0.00370593 0.155619 0)
(-0.0526946 0.121634 0)
(-0.0522494 0.0979203 0)
(-0.0510777 0.0758935 0)
(-0.0490799 0.0541172 0)
(-0.0465671 0.0316057 0)
(-0.0433787 0.00683569 0)
(-0.0374115 -0.0222448 0)
(-0.0303335 -0.0553177 0)
(-0.0205562 -0.0918769 0)
(-0.00876995 -0.128807 0)
(0.00440521 -0.161136 0)
(0.0174417 -0.181804 0)
(0.0302112 -0.190181 0)
(0.0420117 -0.187244 0)
(0.0523199 -0.17447 0)
(0.0623054 -0.154127 0)
(0.070908 -0.132461 0)
(0.076464 -0.109417 0)
(0.0799522 -0.0858828 0)
(0.0825681 -0.063675 0)
(0.0848104 -0.0441503 0)
(0.0866352 -0.0280327 0)
(0.0877084 -0.0152263 0)
(0.0878096 -0.00495536 0)
(0.0867911 0.00369497 0)
(0.0848497 0.0114025 0)
(0.0821374 0.0186883 0)
(0.078839 0.0260552 0)
(0.0752426 0.0340151 0)
(0.0717568 0.0431454 0)
(0.0697508 0.0547718 0)
(0.0685875 0.0693273 0)
(0.0815155 0.0885624 0)
(0.0843265 0.092143 0)
(0.0891467 0.0548051 0)
(0.180777 0.025146 0)
(-0.281297 0.153856 0)
(0.927941 0.517169 0)
(-0.383157 0.234221 0)
(0.016895 0.133059 0)
(-0.0273581 0.116735 0)
(-0.0265927 0.0950004 0)
(-0.0227952 0.0725076 0)
(-0.0176903 0.0501809 0)
(-0.0124186 0.0273201 0)
(-0.00545477 0.00191427 0)
(0.00453589 -0.030697 0)
(0.0142599 -0.0652762 0)
(0.0255489 -0.103245 0)
(0.0371633 -0.140725 0)
(0.0478031 -0.171985 0)
(0.0568589 -0.192203 0)
(0.0643212 -0.199747 0)
(0.0700259 -0.195394 0)
(0.0739785 -0.181253 0)
(0.0766913 -0.160192 0)
(0.078077 -0.136191 0)
(0.0777479 -0.111148 0)
(0.0762729 -0.0865816 0)
(0.0744755 -0.063974 0)
(0.0728749 -0.0443314 0)
(0.0716041 -0.0280343 0)
(0.0705249 -0.0148035 0)
(0.069443 -0.00394855 0)
(0.0680683 0.00529998 0)
(0.0665247 0.0135159 0)
(0.0647922 0.0211818 0)
(0.0629656 0.0287253 0)
(0.0612489 0.0365085 0)
(0.0599664 0.0448459 0)
(0.060007 0.0542611 0)
(0.0612292 0.0648284 0)
(0.0701226 0.078301 0)
(0.0795235 0.0823384 0)
(0.078172 0.0625569 0)
(0.238613 0.0529501 0)
(-0.557583 0.231223 0)
(1.01129 0.506846 0)
(-0.137335 0.296375 0)
(0.0410767 0.16157 0)
(0.040566 0.122155 0)
(0.013048 0.0920454 0)
(0.00862234 0.0654322 0)
(0.0140433 0.0414506 0)
(0.0206681 0.0170285 0)
(0.03249 -0.0109906 0)
(0.0439629 -0.0421231 0)
(0.0558375 -0.0768612 0)
(0.0681021 -0.114533 0)
(0.0792091 -0.150934 0)
(0.087667 -0.180367 0)
(0.0928406 -0.198418 0)
(0.0948507 -0.203655 0)
(0.0941136 -0.197098 0)
(0.0911818 -0.181134 0)
(0.0867325 -0.158786 0)
(0.0812148 -0.133365 0)
(0.0749162 -0.107309 0)
(0.0684301 -0.0824542 0)
(0.0624716 -0.0601685 0)
(0.0575507 -0.0411839 0)
(0.0538478 -0.0255907 0)
(0.0512509 -0.0129005 0)
(0.0494889 -0.00235296 0)
(0.0481613 0.00673227 0)
(0.0472555 0.0148464 0)
(0.0465524 0.0224244 0)
(0.0460172 0.0298002 0)
(0.0457217 0.0371953 0)
(0.0458398 0.04473 0)
(0.0468876 0.0525284 0)
(0.0489567 0.0604298 0)
(0.0554039 0.069278 0)
(0.0645728 0.0706121 0)
(0.0568752 0.0477642 0)
(0.29378 0.0723836 0)
(-0.768452 0.300925 0)
(0.779337 0.395774 0)
(0.000747791 0.319526 0)
(0.0933758 0.218943 0)
(0.110589 0.155209 0)
(0.0771584 0.106867 0)
(0.0597837 0.0675863 0)
(0.0582029 0.0357898 0)
(0.0623715 0.00642584 0)
(0.0738135 -0.0234339 0)
(0.0853944 -0.0550393 0)
(0.0975901 -0.0897127 0)
(0.109437 -0.126146 0)
(0.118774 -0.159848 0)
(0.123828 -0.185523 0)
(0.124008 -0.199622 0)
(0.119747 -0.201297 0)
(0.112005 -0.191884 0)
(0.101858 -0.173895 0)
(0.0903492 -0.150334 0)
(0.0783218 -0.124225 0)
(0.0664635 -0.0981073 0)
(0.0555045 -0.0739133 0)
(0.0461656 -0.0529019 0)
(0.0389036 -0.035521 0)
(0.0337996 -0.0215618 0)
(0.030596 -0.0102591 0)
(0.0288273 -0.000728529 0)
(0.0280207 0.00763552 0)
(0.0279239 0.0152667 0)
(0.0282084 0.0225277 0)
(0.0287439 0.0296451 0)
(0.0294665 0.0367297 0)
(0.0303475 0.0437811 0)
(0.0314902 0.050719 0)
(0.0326567 0.0572886 0)
(0.03483 0.0640037 0)
(0.0259268 0.0672875 0)
(0.0225831 0.0809067 0)
(0.127678 0.161432 0)
(-0.646989 0.306267 0)
(0.617277 0.220902 0)
(0.00462697 0.298146 0)
(0.113042 0.241562 0)
(0.148314 0.177573 0)
(0.130882 0.123529 0)
(0.117863 0.0778499 0)
(0.115002 0.0388957 0)
(0.117175 0.0033878 0)
(0.12355 -0.0307371 0)
(0.131787 -0.0650131 0)
(0.141472 -0.100448 0)
(0.150327 -0.135225 0)
(0.155414 -0.165006 0)
(0.154812 -0.185502 0)
(0.148211 -0.194424 0)
(0.136516 -0.191785 0)
(0.121202 -0.179299 0)
(0.103779 -0.159496 0)
(0.0856227 -0.135259 0)
(0.0678491 -0.109369 0)
(0.0514116 -0.0842982 0)
(0.0371909 -0.0619315 0)
(0.0259304 -0.0433621 0)
(0.017887 -0.0286399 0)
(0.0128079 -0.017165 0)
(0.0100231 -0.00781308 0)
(0.00881004 0.00033699 0)
(0.00876012 0.00775906 0)
(0.00940183 0.0147913 0)
(0.0104867 0.0216871 0)
(0.011851 0.0285922 0)
(0.0133218 0.0355835 0)
(0.0146551 0.0426597 0)
(0.0155763 0.0497319 0)
(0.0157734 0.0566589 0)
(0.0146355 0.0649607 0)
(-0.0120433 0.0864535 0)
(-0.00408192 0.122199 0)
(0.101511 0.179879 0)
(-0.555943 0.239179 0)
(0.570769 0.118535 0)
(-0.0202877 0.258656 0)
(0.11375 0.229898 0)
(0.165096 0.176074 0)
(0.166756 0.126201 0)
(0.164413 0.081109 0)
(0.165399 0.039967 0)
(0.168336 0.00160477 0)
(0.172313 -0.0354246 0)
(0.177906 -0.071919 0)
(0.184077 -0.107504 0)
(0.187743 -0.139431 0)
(0.185892 -0.163882 0)
(0.177153 -0.178086 0)
(0.161976 -0.181265 0)
(0.141902 -0.174298 0)
(0.118876 -0.159189 0)
(0.0946624 -0.138336 0)
(0.0708636 -0.114429 0)
(0.0487402 -0.0899646 0)
(0.029484 -0.0673166 0)
(0.0141218 -0.048245 0)
(0.00324549 -0.0334818 0)
(-0.00359635 -0.0222134 0)
(-0.00721719 -0.0136469 0)
(-0.00897756 -0.00624029 0)
(-0.00950295 0.000611159 0)
(-0.009045 0.00715242 0)
(-0.00795963 0.0135832 0)
(-0.00634989 0.0200714 0)
(-0.00436382 0.0267628 0)
(-0.00223216 0.0338201 0)
(-0.000375711 0.0414225 0)
(0.000513048 0.0496808 0)
(2.05179e-05 0.0591475 0)
(-0.00589484 0.0755266 0)
(-0.0386019 0.11388 0)
(-0.0302526 0.153989 0)
(0.031873 0.183006 0)
(-0.524375 0.167348 0)
(0.628441 0.0536529 0)
(0.00943768 0.197302 0)
(0.113879 0.196978 0)
(0.175171 0.15797 0)
(0.191405 0.11772 0)
(0.198044 0.0772851 0)
(0.203369 0.0372556 0)
(0.20859 -0.00156467 0)
(0.213133 -0.0397341 0)
(0.217486 -0.0765609 0)
(0.219321 -0.109865 0)
(0.215472 -0.136523 0)
(0.204058 -0.153992 0)
(0.185173 -0.161323 0)
(0.160427 -0.159091 0)
(0.131985 -0.148688 0)
(0.102098 -0.132165 0)
(0.0724972 -0.111579 0)
(0.044982 -0.0894362 0)
(0.0208234 -0.0679459 0)
(0.00163133 -0.0494214 0)
(-0.011615 -0.0354541 0)
(-0.0192283 -0.025821 0)
(-0.0234311 -0.0182908 0)
(-0.0255466 -0.0117455 0)
(-0.0264799 -0.00557289 0)
(-0.0265691 0.000396191 0)
(-0.0259032 0.00622855 0)
(-0.0246159 0.0120483 0)
(-0.0226791 0.0180265 0)
(-0.0201853 0.0243877 0)
(-0.0173457 0.031453 0)
(-0.0146243 0.0396707 0)
(-0.0129387 0.0497213 0)
(-0.012932 0.0632748 0)
(-0.0164739 0.0875966 0)
(-0.0421893 0.135787 0)
(-0.0336542 0.185423 0)
(-0.00217835 0.17568 0)
(-0.539989 0.0675426 0)
(0.472418 0.0747573 0)
(-0.132003 0.137614 0)
(0.0942519 0.13337 0)
(0.172724 0.116873 0)
(0.203809 0.0953961 0)
(0.218072 0.064407 0)
(0.228055 0.028345 0)
(0.237167 -0.00907177 0)
(0.243614 -0.0454463 0)
(0.245177 -0.0783307 0)
(0.239224 -0.105056 0)
(0.224403 -0.12361 0)
(0.201232 -0.133197 0)
(0.171616 -0.134304 0)
(0.138122 -0.128201 0)
(0.103034 -0.116152 0)
(0.068689 -0.100016 0)
(0.0363028 -0.0813859 0)
(0.00834874 -0.0627843 0)
(-0.0142509 -0.0462702 0)
(-0.0281407 -0.0352334 0)
(-0.0363254 -0.0275686 0)
(-0.0407009 -0.0216047 0)
(-0.0429637 -0.0161407 0)
(-0.0440176 -0.0107636 0)
(-0.0443578 -0.00536431 0)
(-0.0441483 -3.16975e-05 0)
(-0.0433562 0.00516526 0)
(-0.0419866 0.0103044 0)
(-0.0398415 0.0156009 0)
(-0.036911 0.0213873 0)
(-0.0332952 0.0281495 0)
(-0.029319 0.0365988 0)
(-0.0257453 0.0479103 0)
(-0.0228571 0.0643686 0)
(-0.0174139 0.0914485 0)
(-0.0216182 0.139826 0)
(-0.0157186 0.204873 0)
(0.117173 0.196787 0)
(-0.450464 0.0435823 0)
(0.724058 0.134416 0)
(0.0818262 0.115233 0)
(0.149702 0.0992645 0)
(0.222324 0.0805641 0)
(0.243956 0.0699944 0)
(0.248738 0.0476817 0)
(0.255067 0.0174795 0)
(0.261232 -0.0148687 0)
(0.260326 -0.0449144 0)
(0.249898 -0.069676 0)
(0.229704 -0.0874537 0)
(0.20131 -0.0978278 0)
(0.167072 -0.101159 0)
(0.129507 -0.0984762 0)
(0.0911016 -0.0910685 0)
(0.0532818 -0.0796127 0)
(0.0188431 -0.0657901 0)
(-0.0126678 -0.0507801 0)
(-0.0347073 -0.0394628 0)
(-0.0491182 -0.0318286 0)
(-0.057368 -0.0269815 0)
(-0.0618941 -0.0231328 0)
(-0.0642202 -0.0193255 0)
(-0.0652898 -0.0151026 0)
(-0.065602 -0.0104524 0)
(-0.0654447 -0.00554651 0)
(-0.064925 -0.000650705 0)
(-0.064011 0.00402043 0)
(-0.0626987 0.00846384 0)
(-0.0606108 0.0129226 0)
(-0.0576296 0.0178218 0)
(-0.0537116 0.0237814 0)
(-0.048909 0.0317276 0)
(-0.043404 0.0430593 0)
(-0.0367382 0.0597307 0)
(-0.0246045 0.0846181 0)
(-0.00856037 0.124006 0)
(0.00271498 0.183317 0)
(0.164738 0.183006 0)
(-0.36026 0.100672 0)
(0.191757 0.0880605 0)
(0.22561 0.0998662 0)
(0.246374 0.0702378 0)
(0.242451 0.0398596 0)
(0.239695 0.012084 0)
(0.234743 -0.0130125 0)
(0.220099 -0.0335197 0)
(0.196479 -0.0485914 0)
(0.166198 -0.0582101 0)
(0.131671 -0.0628826 0)
(0.0946628 -0.0629638 0)
(0.0570629 -0.0592102 0)
(0.0208463 -0.0525456 0)
(-0.0147355 -0.043179 0)
(-0.042262 -0.0346643 0)
(-0.0627824 -0.0282963 0)
(-0.0761394 -0.0248824 0)
(-0.0842534 -0.023139 0)
(-0.0889376 -0.0219223 0)
(-0.0916214 -0.0202252 0)
(-0.0930552 -0.0177012 0)
(-0.0936469 -0.0143268 0)
(-0.0936518 -0.0102671 0)
(-0.0932697 -0.00579186 0)
(-0.0926149 -0.001243 0)
(-0.0917096 0.00305326 0)
(-0.0907191 0.00695435 0)
(-0.0892517 0.010634 0)
(-0.0871096 0.0145598 0)
(-0.0840423 0.0194042 0)
(-0.0795942 0.0260543 0)
(-0.0731272 0.0355845 0)
(-0.0635952 0.0490747 0)
(-0.0478096 0.0673454 0)
(-0.0221532 0.0919514 0)
(0.00600958 0.134207 0)
(0.183736 0.15363 0)
(-0.341994 0.160321 0)
(0.450906 0.209869 0)
(0.205938 0.17885 0)
(0.152465 0.118816 0)
(0.139495 0.0639496 0)
(0.128259 0.0256873 0)
(0.114375 0.00153395 0)
(0.0990443 -0.0131892 0)
(0.0780577 -0.0222248 0)
(0.0533666 -0.0275998 0)
(0.0260801 -0.0297225 0)
(-0.0041141 -0.0284934 0)
(-0.0338226 -0.0249361 0)
(-0.0603728 -0.0206229 0)
(-0.0825955 -0.0170819 0)
(-0.0988421 -0.015829 0)
(-0.109779 -0.016391 0)
(-0.116709 -0.0180512 0)
(-0.121221 -0.0195173 0)
(-0.124291 -0.0200787 0)
(-0.126414 -0.0194123 0)
(-0.127812 -0.0174672 0)
(-0.12861 -0.01434 0)
(-0.128907 -0.0102512 0)
(-0.128802 -0.00554921 0)
(-0.128361 -0.000734147 0)
(-0.12763 0.00356939 0)
(-0.12695 0.00704786 0)
(-0.126159 0.0100504 0)
(-0.125019 0.0130635 0)
(-0.123158 0.0166119 0)
(-0.119907 0.0212228 0)
(-0.114433 0.0273914 0)
(-0.105829 0.0352673 0)
(-0.09149 0.0439726 0)
(-0.0644929 0.0523702 0)
(-0.0218912 0.0676115 0)
(0.171433 0.125578 0)
(-0.448551 0.228103 0)
(0.359012 -0.417035 0)
(-0.346482 -0.512982 0)
(-0.218572 -0.0272225 0)
(-0.0934355 0.11106 0)
(-0.05395 0.0925545 0)
(-0.0315573 0.0544186 0)
(-0.0266705 0.0281482 0)
(-0.0315433 0.0113656 0)
(-0.0401596 0.000532501 0)
(-0.0506019 -0.00644515 0)
(-0.064276 -0.0104821 0)
(-0.0798241 -0.0124291 0)
(-0.096244 -0.0135216 0)
(-0.112139 -0.0152837 0)
(-0.126285 -0.0181905 0)
(-0.137722 -0.0215715 0)
(-0.14584 -0.0245169 0)
(-0.151079 -0.0267308 0)
(-0.154688 -0.0282446 0)
(-0.15756 -0.0290564 0)
(-0.160039 -0.0291312 0)
(-0.162206 -0.0284178 0)
(-0.164053 -0.0269112 0)
(-0.165572 -0.0246647 0)
(-0.166776 -0.0217789 0)
(-0.167702 -0.0183539 0)
(-0.16833 -0.0144019 0)
(-0.168464 -0.00973867 0)
(-0.167903 -0.00462793 0)
(-0.166686 0.000157929 0)
(-0.164829 0.00475384 0)
(-0.162221 0.00948877 0)
(-0.158605 0.0146765 0)
(-0.154023 0.0205421 0)
(-0.149271 0.0270324 0)
(-0.144019 0.0339164 0)
(-0.13145 0.0436158 0)
(-0.1002 0.0694812 0)
(-0.0837156 0.131741 0)
(-0.564901 0.214207 0)
(0.122472 -0.186284 0)
(-0.388713 -0.298146 0)
(-0.343741 -0.0963046 0)
(-0.265335 0.0518251 0)
(-0.211644 0.0836193 0)
(-0.179551 0.0745641 0)
(-0.163343 0.0610521 0)
(-0.157398 0.0511559 0)
(-0.157464 0.0461925 0)
(-0.160689 0.0459713 0)
(-0.165173 0.0496539 0)
(-0.169509 0.0560688 0)
(-0.172811 0.0637652 0)
(-0.174901 0.0710014 0)
(-0.176197 0.0759284 0)
(-0.177287 0.0765043 0)
(-0.178822 0.0713244 0)
(-0.181011 0.0646023 0)
(-0.1839 0.058201 0)
(-0.187421 0.0527663 0)
(-0.191415 0.0485678 0)
(-0.195645 0.0457898 0)
(-0.1998 0.0445353 0)
(-0.203526 0.0447729 0)
(-0.206485 0.0462623 0)
(-0.208437 0.0484655 0)
(-0.209288 0.0504451 0)
(-0.208986 0.0507341 0)
(-0.207504 0.0488716 0)
(-0.204736 0.0465541 0)
(-0.200688 0.0442237 0)
(-0.195235 0.0420519 0)
(-0.188106 0.0402358 0)
(-0.17938 0.0389482 0)
(-0.169813 0.0379323 0)
(-0.157897 0.0361525 0)
(-0.131721 0.0336464 0)
(-0.0665619 0.0388966 0)
(0.10002 0.0798821 0)
(-0.524696 0.10779 0)
(1.14884 -0.0112161 0)
(-0.29755 -0.323741 0)
(-0.353567 -0.233456 0)
(-0.353224 -0.149093 0)
(-0.329512 -0.107835 0)
(-0.298036 -0.0994323 0)
(-0.271039 -0.101817 0)
(-0.251595 -0.107733 0)
(-0.238677 -0.115528 0)
(-0.230104 -0.125029 0)
(-0.223833 -0.136417 0)
(-0.218404 -0.149694 0)
(-0.213108 -0.164242 0)
(-0.207975 -0.178623 0)
(-0.203617 -0.190717 0)
(-0.20109 -0.198477 0)
(-0.201538 -0.200162 0)
(-0.205564 -0.198535 0)
(-0.212631 -0.194593 0)
(-0.221911 -0.188804 0)
(-0.2325 -0.181586 0)
(-0.243482 -0.17348 0)
(-0.253968 -0.165116 0)
(-0.263138 -0.157029 0)
(-0.270281 -0.149493 0)
(-0.274831 -0.142442 0)
(-0.276489 -0.135507 0)
(-0.27537 -0.128147 0)
(-0.272166 -0.120563 0)
(-0.267748 -0.113618 0)
(-0.262271 -0.106845 0)
(-0.255589 -0.099714 0)
(-0.247463 -0.0919638 0)
(-0.238298 -0.0836488 0)
(-0.229578 -0.0751814 0)
(-0.220366 -0.0670402 0)
(-0.197189 -0.0575147 0)
(-0.1404 -0.0365388 0)
(-0.121569 0.0113824 0)
(-0.634077 0.0536188 0)
)
;

boundaryField
{
    floor
    {
        type            noSlip;
    }
    ceiling
    {
        type            noSlip;
    }
    sWall
    {
        type            noSlip;
    }
    nWall
    {
        type            noSlip;
    }
    sideWalls
    {
        type            empty;
    }
    glass1
    {
        type            noSlip;
    }
    glass2
    {
        type            noSlip;
    }
    sun
    {
        type            noSlip;
    }
    Table_master
    {
        type            noSlip;
    }
    Table_slave
    {
        type            noSlip;
    }
    inlet
    {
        type            fixedValue;
        value           uniform (0.5 0 0);
    }
    outlet
    {
        type            zeroGradient;
    }
}


// ************************************************************************* //
