/*--------------------------------*- C++ -*----------------------------------*\
  =========                 |
  \\      /  F ield         | OpenFOAM: The Open Source CFD Toolbox
   \\    /   O peration     | Website:  https://openfoam.org
    \\  /    A nd           | Version:  6
     \\/     M anipulation  |
\*---------------------------------------------------------------------------*/
FoamFile
{
    version     2.0;
    format      ascii;
    class       volScalarField;
    location    "2800";
    object      k;
}
// * * * * * * * * * * * * * * * * * * * * * * * * * * * * * * * * * * * * * //

dimensions      [0 2 -2 0 0 0 0];

internalField   nonuniform List<scalar> 
662
(
0.00203709
0.00238327
0.00247215
0.00271123
0.00294398
0.00317355
0.00340994
0.00366777
0.0039365
0.00419372
0.00440002
0.00447234
0.00429063
0.00373641
0.00245852
0.000509805
0.000703954
0.000907178
0.000982181
0.000945767
0.000823182
0.000699336
0.000597615
0.000516322
0.000450813
0.000397479
0.000353605
0.000317067
0.000285725
0.000257698
0.000231257
0.000216616
0.000183375
0.00376333
0.00693704
0.00350894
0.00367799
0.00395123
0.00425664
0.00460033
0.00500101
0.00550518
0.00612728
0.00678274
0.0072833
0.007386
0.00696132
0.00597273
0.00363726
0.00246718
0.00162854
0.000504857
0.00110216
0.0014754
0.00164874
0.00165549
0.00140635
0.00113837
0.000922633
0.000758555
0.000633253
0.000536233
0.000459586
0.000396931
0.000344828
0.000306802
0.00028523
0.000534007
0.000315849
0.0057721
0.0135238
0.00421987
0.00385681
0.00398757
0.00415633
0.00434523
0.00461633
0.00504076
0.00564262
0.00638109
0.00713695
0.00760414
0.00746211
0.00667004
0.00553726
0.00452273
0.00236089
0.00124227
0.0016095
0.00183907
0.00197874
0.00196092
0.00151743
0.00115274
0.000889822
0.000702761
0.000568271
0.0004699
0.000396708
0.000341994
0.000302157
0.000279603
0.000283613
0.000852104
0.000441502
0.00827343
0.0233706
0.00572643
0.00386401
0.00377678
0.00380397
0.00382957
0.00398453
0.00436097
0.00490482
0.0056487
0.00660203
0.00733299
0.00733839
0.00679476
0.00607962
0.00532572
0.00407761
0.00319776
0.0028766
0.0027312
0.00269312
0.00263482
0.00246902
0.00194058
0.00160983
0.00139861
0.00125024
0.00113142
0.00102328
0.000925628
0.000828531
0.000723224
0.000546147
0.000439319
0.00126106
0.000582499
0.0112253
0.0336055
0.00996445
0.00445267
0.00385846
0.00372986
0.00364726
0.00381419
0.00424545
0.00470334
0.00540932
0.00649335
0.00728523
0.00722378
0.00660211
0.00582957
0.0051267
0.00452439
0.00432968
0.004003
0.00376158
0.00355384
0.00330396
0.00298456
0.0026364
0.00238689
0.00222253
0.00208948
0.00195335
0.00179168
0.00159323
0.00137275
0.00114255
0.000894267
0.000688302
0.00100188
0.00118096
0.00104728
0.00115198
0.00135657
0.0150619
0.0457786
0.0195351
0.00829801
0.00567776
0.00474394
0.00437759
0.00455039
0.0048624
0.00511863
0.00573471
0.00683866
0.00765468
0.00737973
0.00647582
0.00545067
0.00469565
0.00437989
0.00440199
0.00443487
0.0043262
0.00405783
0.00367932
0.00325936
0.00290579
0.00269391
0.00256821
0.00246339
0.00234527
0.00219253
0.00197931
0.00172718
0.00146002
0.00119212
0.000980634
0.000962673
0.00113183
0.00115534
0.0017582
0.00146493
0.0132943
0.0264435
0.025734
0.0173508
0.0113691
0.00815124
0.00667361
0.00621157
0.00599887
0.00579359
0.00614871
0.00729706
0.00848555
0.00775949
0.00648697
0.00522397
0.00447261
0.00436062
0.0045496
0.00462645
0.00445859
0.00409729
0.00364977
0.00321823
0.00290252
0.00273906
0.00266472
0.00261985
0.0025769
0.0025179
0.00241599
0.00222514
0.00198916
0.00173682
0.00154327
0.00146043
0.00155758
0.00177963
0.00237815
0.00206339
0.00825759
0.0141339
0.0158207
0.0159145
0.0146305
0.012361
0.0101842
0.00849067
0.00717052
0.00666562
0.00744416
0.00888305
0.00934011
0.00801139
0.00631495
0.00492314
0.00432115
0.00431155
0.00442232
0.00436327
0.00408376
0.00367601
0.00325451
0.00290846
0.00269108
0.00259893
0.00258796
0.00262606
0.00270315
0.00281865
0.00297184
0.0031347
0.00321721
0.00327038
0.00345177
0.00403788
0.00521053
0.00684003
0.0138767
0.00471095
0.00159812
0.00647925
0.00849568
0.00892016
0.00840395
0.00759381
0.00724978
0.00819173
0.0100055
0.010996
0.00952402
0.00742299
0.00543299
0.00441823
0.00404922
0.00396488
0.00389256
0.00369565
0.0033741
0.00300769
0.00268081
0.00244846
0.00232532
0.00229276
0.00232411
0.00240495
0.00253279
0.00271038
0.00294115
0.00322519
0.00357823
0.00402217
0.00460438
0.00529614
0.00595548
0.00641223
0.00664073
0.00412963
0.00312697
0.00303066
0.00484939
0.00638235
0.00742087
0.00859108
0.0104801
0.0123681
0.012802
0.0112804
0.0075639
0.00576817
0.00455889
0.00394329
0.00365344
0.00348961
0.00331506
0.0030774
0.00279396
0.0025113
0.0022816
0.00212975
0.00205183
0.00203182
0.00205622
0.00211975
0.00222451
0.00237874
0.00259741
0.00290047
0.00329458
0.00378241
0.00435724
0.00495976
0.00547833
0.00580769
0.00534457
0.00283054
0.00920834
0.0156739
0.00557758
0.00566572
0.00781039
0.010011
0.0120641
0.0136927
0.013987
0.0127125
0.0101397
0.00703342
0.00429096
0.00384596
0.00355298
0.00338627
0.00327095
0.00314428
0.00297855
0.00277801
0.00256621
0.00236807
0.00220454
0.00208676
0.00201364
0.00198277
0.00199451
0.00205168
0.00215834
0.00231886
0.0025469
0.00285359
0.00324837
0.00373442
0.00429419
0.00487689
0.00545786
0.00643192
0.00378991
0.00304508
0.00542045
0.00907325
0.0103246
0.0126374
0.0138664
0.013887
0.0128715
0.0108939
0.00839973
0.00606099
0.00409166
0.00267605
0.00158583
0.0015073
0.00143258
0.00136532
0.00129971
0.00123088
0.00115993
0.00109485
0.0010447
0.00101538
0.00100664
0.00101556
0.00104064
0.00108124
0.00113779
0.00121186
0.00130664
0.00142801
0.00157788
0.00175959
0.00197741
0.00223554
0.00253595
0.0028811
0.00308834
0.00255224
0.00222668
0.00284235
0.0175908
0.0317249
0.022073
0.014047
0.00947303
0.00722149
0.00632903
0.0061263
0.00588111
0.00586704
0.00665975
0.00791683
0.0129583
0.0155596
0.015961
0.0154709
0.0135408
0.0112134
0.00930371
0.0077642
0.00677563
0.00689658
0.00817419
0.0093611
0.00477745
0.00772466
0.00886696
0.00873827
0.0079941
0.00730393
0.00753989
0.00908798
0.0106998
0.0108449
0.00231565
0.00392643
0.00568707
0.00693967
0.00793089
0.00943903
0.0115281
0.0128293
0.0122558
0.0101604
0.0268839
0.0108081
0.00491155
0.00678062
0.00885776
0.0110498
0.0129847
0.0140502
0.0135136
0.0115585
0.00857292
0.00579498
0.0143913
0.00956552
0.0115746
0.0134353
0.0140042
0.0135064
0.0119882
0.00966369
0.00718806
0.00502095
0.00330859
0.0021642
0.0144847
0.018521
0.0208556
0.0188092
0.0149927
0.0114141
0.00903237
0.00767253
0.00674289
0.00624029
0.00668808
0.00798083
0.00923515
0.0110965
0.0116749
0.0119649
0.0120096
0.0110872
0.00966695
0.00826848
0.0071976
0.00719562
0.00852152
0.00994639
0.0029962
0.00362194
0.00587386
0.007108
0.00741054
0.00740126
0.00813223
0.0100303
0.011687
0.0116175
0.00190064
0.00357055
0.00541147
0.00722518
0.00911288
0.0113817
0.0132899
0.0136741
0.012387
0.00960788
0.00938198
0.013216
0.00831063
0.00924007
0.011327
0.0128341
0.0136455
0.0134257
0.0119516
0.00975282
0.00707948
0.00468871
0.00782656
0.00648634
0.00729889
0.00787206
0.00773807
0.00697081
0.00578358
0.00441886
0.00318922
0.00224189
0.0015794
0.00137949
0.0157742
0.0210841
0.0202092
0.0170017
0.0130729
0.0100586
0.00827612
0.00717115
0.00640923
0.00632057
0.00729188
0.00856302
0.00957305
0.0114378
0.0117485
0.0121091
0.0116501
0.0103999
0.00894784
0.00765251
0.00701589
0.00773741
0.00933388
0.0101666
0.00243419
0.00484341
0.00663115
0.00734454
0.00739287
0.00759683
0.00899359
0.0110073
0.0119025
0.0108863
0.00231013
0.00450167
0.00631854
0.00814056
0.0101987
0.0125239
0.0136768
0.0132489
0.0111289
0.00824678
0.0238305
0.0107812
0.00835376
0.0103873
0.0121314
0.0133368
0.0136939
0.0128239
0.0109123
0.00845548
0.00575336
0.00411045
0.00615828
0.00694021
0.0076162
0.0079042
0.00741757
0.00641744
0.00510347
0.00377101
0.00268187
0.00186759
0.00141009
0.00145068
)
;

boundaryField
{
    floor
    {
        type            kqRWallFunction;
        value           nonuniform List<scalar> 
36
(
0.00245852
0.000509805
0.000703954
0.000907178
0.000982181
0.000945767
0.000823182
0.000699336
0.000597615
0.000516322
0.000450813
0.000397479
0.000353605
0.000317067
0.000285725
0.000257698
0.000231257
0.000216616
0.000183375
0.000183375
0.000315849
0.000441502
0.000582499
0.00104728
0.00115198
0.00135657
0.00245852
0.00363726
0.00246718
0.00162854
0.000509805
0.00162854
0.000504857
0.00236089
0.00124227
0.00319776
)
;
    }
    ceiling
    {
        type            kqRWallFunction;
        value           nonuniform List<scalar> 
58
(
0.00615828
0.00694021
0.0076162
0.0079042
0.00741757
0.00641744
0.00510347
0.00377101
0.00268187
0.00186759
0.00141009
0.00145068
0.00158583
0.0015073
0.00143258
0.00136532
0.00129971
0.00123088
0.00115993
0.00109485
0.0010447
0.00101538
0.00100664
0.00101556
0.00104064
0.00108124
0.00113779
0.00121186
0.00130664
0.00142801
0.00157788
0.00175959
0.00197741
0.00223554
0.00253595
0.0028811
0.00308834
0.00255224
0.00222668
0.00284235
0.00957305
0.0114378
0.00190064
0.00542045
0.00648634
0.00729889
0.00787206
0.00773807
0.00697081
0.00578358
0.00441886
0.00318922
0.00224189
0.0015794
0.00137949
0.00825759
0.0110965
0.00312697
)
;
    }
    sWall
    {
        type            kqRWallFunction;
        value           nonuniform List<scalar> 4(0.00938198 0.00782656 0.00920834 0.00542045);
    }
    nWall
    {
        type            kqRWallFunction;
        value           nonuniform List<scalar> 6(0.00135657 0.00146493 0.00206339 0.00283054 0.00304508 0.00284235);
    }
    sideWalls
    {
        type            empty;
    }
    glass1
    {
        type            kqRWallFunction;
        value           nonuniform List<scalar> 10(0.00203709 0.00376333 0.0057721 0.00827343 0.0112253 0.0150619 0.0144847 0.00923515 0.0132943 0.00825759);
    }
    glass2
    {
        type            kqRWallFunction;
        value           nonuniform List<scalar> 2(0.00471095 0.00412963);
    }
    sun
    {
        type            kqRWallFunction;
        value           nonuniform List<scalar> 
14
(
0.00203709
0.00238327
0.00247215
0.00271123
0.00294398
0.00317355
0.00340994
0.00366777
0.0039365
0.00419372
0.00440002
0.00447234
0.00429063
0.00373641
)
;
    }
    Table_master
    {
        type            kqRWallFunction;
        value           nonuniform List<scalar> 9(0.00151743 0.00115274 0.000889822 0.000702761 0.000568271 0.0004699 0.000396708 0.000341994 0.000302157);
    }
    Table_slave
    {
        type            kqRWallFunction;
        value           nonuniform List<scalar> 9(0.00194058 0.00160983 0.00139861 0.00125024 0.00113142 0.00102328 0.000925628 0.000828531 0.000723224);
    }
    inlet
    {
        type            turbulentIntensityKineticEnergyInlet;
        intensity       0.05;
        value           uniform 0.0009375;
    }
    outlet
    {
        type            zeroGradient;
    }
}


// ************************************************************************* //
