/*--------------------------------*- C++ -*----------------------------------*\
  =========                 |
  \\      /  F ield         | OpenFOAM: The Open Source CFD Toolbox
   \\    /   O peration     | Website:  https://openfoam.org
    \\  /    A nd           | Version:  6
     \\/     M anipulation  |
\*---------------------------------------------------------------------------*/
FoamFile
{
    version     2.0;
    format      ascii;
    class       surfaceScalarField;
    location    "2800";
    object      phi;
}
// * * * * * * * * * * * * * * * * * * * * * * * * * * * * * * * * * * * * * //

dimensions      [1 0 -1 0 0 0 0];

internalField   nonuniform List<scalar> 
1256
(
-0.00304625
0.00310871
-0.00402626
0.000980014
-0.00480836
0.000782101
-0.00544698
0.000638622
-0.00592325
0.000476274
-0.0062185
0.000295254
-0.00630379
8.52936e-05
-0.00613452
-0.000169272
-0.00565383
-0.000480689
-0.00482296
-0.000830866
-0.00366977
-0.00115318
-0.00234193
-0.00132783
-0.00109518
-0.00124674
-0.000197361
-0.000897818
-0.000194972
-0.00095247
0.000956428
-0.000710955
-0.000241516
-6.15959e-05
-0.000649359
0.000551468
-0.000613064
0.0010117
-0.000460227
0.00126899
-0.000257293
0.00137897
-0.00010998
0.00143401
-5.50459e-05
0.00146692
-3.29094e-05
0.00148473
-1.78166e-05
0.00149139
-6.66345e-06
0.00148801
3.3815e-06
0.00146891
1.90909e-05
0.001415
5.39118e-05
0.00129373
0.00012126
0.00109366
0.000200068
0.000833202
0.000260447
0.000838486
-0.00212051
0.00539781
-0.00305472
0.00191422
-0.00384353
0.00157091
-0.00445715
0.00125225
-0.00491481
0.000933933
-0.00521091
0.000591357
-0.00531848
0.000192858
-0.00519463
-0.000293116
-0.00478904
-0.000886282
-0.00406943
-0.00155047
-0.00307508
-0.00214753
-0.00196196
-0.00244094
-0.00093833
-0.00227037
-0.000122103
-0.00171404
0.000641311
-0.00095838
0.00107749
-0.000432094
0.000955423
0.000126794
0.000969232
6.25008e-05
0.000905812
0.000455868
-0.000634883
0.000820265
-0.00101376
0.00112932
-0.00092212
0.00137343
-0.000704334
0.0014283
-0.000312164
0.00143622
-0.000117897
0.00144676
-6.55856e-05
0.00145569
-4.18398e-05
0.00146094
-2.3077e-05
0.0014635
-9.2169e-06
0.00146348
3.38993e-06
0.0014585
2.40717e-05
0.00142278
8.96303e-05
0.00127074
0.00027329
0.00100297
0.000467829
0.000668392
0.000595023
0.00152039
-0.00144404
0.00709859
-0.00220188
0.00267206
-0.00285119
0.00222022
-0.00333678
0.00173784
-0.00371107
0.00130822
-0.00397331
0.000853602
-0.00409216
0.000311707
-0.00401388
-0.000371402
-0.00368101
-0.00121916
-0.00306509
-0.00216639
-0.00221292
-0.0029997
-0.00129072
-0.00336314
-0.00047655
-0.00308453
0.000170144
-0.00236073
0.000671737
-0.00145996
0.000856383
-0.000616733
0.000692447
0.000290736
0.00167375
0.0015036
-0.000583065
0.001706
-0.000837291
0.00163879
-0.000946538
0.00165942
-0.000942749
0.00184509
-0.000889998
0.00153308
0.00141534
0.00134991
0.00130822
0.00128529
0.00127623
0.00127977
0.00130399
0.00139377
0.00116259
0.000504469
0.000871718
0.000758694
0.00050778
0.000958954
0.00204841
-0.00101967
0.00844824
-0.00155402
0.00320642
-0.001881
0.0025472
-0.00213923
0.00199606
-0.00235283
0.00152182
-0.00252138
0.00102214
-0.00261189
0.000402216
-0.00255398
-0.000429327
-0.00227553
-0.00149761
-0.0017644
-0.00267752
-0.00108612
-0.00367798
-0.000400731
-0.00404853
0.000159717
-0.00364498
0.000601976
-0.00280298
0.000949026
-0.00180701
0.0011605
-0.0008282
0.00135739
9.38499e-05
0.00235191
0.000679233
0.00230195
6.26478e-05
0.00210002
-0.000381124
0.00199295
-0.000730216
0.00186179
-0.000815381
0.00171372
-0.000794674
0.00147615
-0.000652418
0.00177432
-0.00029833
0.0019295
-0.000155326
0.00204001
-0.000110667
0.00212318
-8.33211e-05
0.00216944
-4.64152e-05
0.00215788
1.14086e-05
0.00206127
9.64555e-05
0.00184276
0.000218352
0.00144262
0.000399984
0.00121527
0.000731819
0.000857254
0.0011167
0.000346516
0.00146969
0.00242071
-0.000848228
0.00968831
-0.00113518
0.00349337
-0.000961925
0.00237394
-0.000932327
0.00196646
-0.000942904
0.00153239
-0.000977467
0.0010567
-0.000984649
0.000409393
-0.000888103
-0.000525879
-0.000624707
-0.00176101
-0.000214263
-0.00308796
0.000230296
-0.00412253
0.000610497
-0.00442872
0.000861081
-0.00389555
0.00105132
-0.0029932
0.00120811
-0.0019638
0.00137441
-0.000994488
0.00167033
-0.000202063
0.00211541
0.00023416
0.00213992
3.81452e-05
0.00205235
-0.00029355
0.00184838
-0.000526243
0.00164492
-0.000611917
0.00145422
-0.000603966
0.0013123
-0.000510496
0.00135177
-0.000337801
0.00142006
-0.000223618
0.00148654
-0.000177149
0.0015533
-0.000150076
0.00161377
-0.000106886
0.00164882
-2.36498e-05
0.0016344
0.000110878
0.00155454
0.000298212
0.00141213
0.000542386
0.0012672
0.000876749
0.00110036
0.00128354
0.000749716
0.00182032
0.000994782
0.00217564
-0.00115183
0.00216954
-0.00185486
0.000724498
-0.00177792
-0.000982542
0.00405546
0.00705801
-7.07743e-05
0.00145825
0.00112335
0.000199733
0.001147
0.000956433
0.000497395
0.000860765
0.000808033
0.000586496
0.000745109
0.000698178
0.000617849
0.000557545
0.0004678
0.000693862
0.000241595
9.17788e-05
0.000870565
-0.000241136
-0.000461453
0.00114805
-0.000895149
-0.00114335
0.00143368
-0.00158096
-0.00179263
0.00160654
-0.00209793
-0.00219747
0.00163275
-0.0022532
-0.00220172
0.00153589
-0.00379868
0.00139048
-0.00284778
0.0012717
-0.00184501
0.00123361
-0.000956392
0.00132904
-0.000297482
0.00151879
4.44105e-05
0.00155049
6.45461e-06
0.00143914
-0.000182194
0.00125381
-0.00034091
0.00106473
-0.000422834
0.000898027
-0.000437263
0.000782597
-0.000395066
0.000758971
-0.000314176
0.000794049
-0.000258697
0.000856831
-0.000239934
0.000936926
-0.000230174
0.00102932
-0.000199281
0.00112572
-0.000120055
0.00120488
3.1713e-05
0.00125267
0.000250413
0.00128198
0.00051308
0.00133224
0.000826478
0.00145412
0.00116166
0.00168322
0.00159122
0.00206129
0.00179756
0.00238236
0.00184846
0.00187226
0.00123459
0.000162586
-0.00319085
0.000503902
0.00315566
-0.00461636
0.0032084
0.00286621
-0.00237291
0.00207572
0.00144419
-0.00181788
0.00159767
0.00108098
-0.00141584
0.00127187
0.000889076
-0.00118853
0.00111463
0.000631443
-0.00110968
0.001095
0.000256272
-0.00116999
0.00120878
-0.000279929
-0.00133187
0.00137055
-0.000933825
-0.00148467
0.00149361
-0.0015899
-0.00154698
0.00150422
-0.00205516
-0.00146041
0.001372
-0.00216479
0.00197013
-0.00314726
-0.00125481
-0.00136673
0.00142069
-0.00229833
0.000997386
-0.0014217
0.000734756
-0.000693756
0.000648325
-0.000211046
0.000680822
1.19186e-05
0.000679796
7.48396e-06
0.000598326
-0.000100723
0.000466664
-0.000209247
0.00032223
-0.0002784
0.000191765
-0.000306799
0.000100337
-0.000303641
7.10499e-05
-0.000284892
9.27836e-05
-0.000280435
0.000145498
-0.000292653
0.000220532
-0.000305213
0.00031964
-0.000298393
0.000449245
-0.000249666
0.000609813
-0.00012886
0.000780711
7.95105e-05
0.000959251
0.000334535
0.00117979
0.000605938
0.00147893
0.000862501
0.00191327
0.00115688
0.00247722
0.00123361
0.00327016
0.00105551
0.00347465
0.00103009
0.00370901
0.00197914
-0.00153952
-0.00379802
0.0041568
-0.00285631
0.00249753
-0.00458481
0.00464777
-0.00177368
0.00171072
-0.00448633
0.00419073
-0.00143863
0.00173423
-0.00385731
0.00354445
-0.00117046
0.00148333
-0.00327399
0.00305122
-0.000798001
0.00102077
-0.00288226
0.00275976
-0.000320455
0.00044295
-0.00267463
0.00261547
0.000290454
-0.000231295
-0.00257377
0.00253136
0.000961178
-0.000918764
-0.00247444
0.00238562
0.00157603
-0.00148721
-0.00225869
0.00208855
0.00196373
-0.00179359
-0.00188138
0.00164335
0.00200052
-0.00176249
0.00170178
-0.00215675
-0.00138419
-0.0013081
0.000882361
-0.00147891
0.000273171
-0.000812503
-7.72691e-05
-0.000343313
-0.000208106
-8.02074e-05
-0.000219777
2.35906e-05
-0.000227294
1.50013e-05
-0.000279305
-4.87121e-05
-0.000369342
-0.000119213
-0.000474314
-0.00017343
-0.000572312
-0.000208805
-0.000645391
-0.000230567
-0.000682355
-0.000247933
-0.000690945
-0.00027185
-0.000682821
-0.000300783
-0.000662457
-0.000325584
-0.000625206
-0.00033565
-0.000555574
-0.000319304
-0.000422875
-0.000261566
-0.000205853
-0.000137517
6.20653e-05
6.66104e-05
0.000364072
0.000303925
0.000703818
0.000522749
0.00112077
0.000739912
0.00156699
0.000787386
0.00190787
0.000714622
0.00100617
0.00193178
0.00501876
-0.00165884
0.00268992
0.00491037
-0.00474501
0.00458939
-0.00193628
0.00209191
-0.00447638
0.00432047
-0.00175254
0.00190847
-0.00414857
0.00398297
-0.0012463
0.0014119
-0.00383165
0.00369466
-0.00059509
0.000732094
-0.00356628
0.00343114
0.000115766
1.93897e-05
-0.0032759
0.00309182
0.000796715
-0.000612625
-0.00287206
0.00261443
0.00130788
-0.00105023
-0.002323
0.00200677
0.00154035
-0.00122412
-0.00167708
0.00134146
0.00147087
-0.00113524
0.000606159
-0.00108126
-0.000989772
-0.000691873
-0.000226123
-0.000646627
-0.000737538
-0.000301089
-0.00096973
-0.000111123
-0.00104614
-3.79891e-06
-0.00105899
3.64344e-05
-0.0010706
2.66152e-05
-0.0011104
-8.91867e-06
-0.00117809
-5.15301e-05
-0.00126084
-9.06783e-05
-0.00134533
-0.00012433
-0.00142288
-0.000153017
-0.0014918
-0.000179026
-0.00155983
-0.000203819
-0.00163713
-0.000223498
-0.00173282
-0.000229896
-0.00185643
-0.000212052
-0.00201961
-0.000156127
-0.00223726
-4.39253e-05
-0.00250808
0.000133294
-0.00283216
0.000390689
-0.00327632
0.000748078
-0.00396173
0.00120816
-0.00496526
0.00174344
-0.0064178
0.00223991
-0.00819291
0.00248972
-0.00796824
0.00170711
-0.00261521
-0.000335116
0.000415653
1.83681e-05
-0.0032596
0.00299434
-0.0023777
0.00264297
-0.0028572
0.00282593
-0.00202033
0.00205162
-0.0028239
0.00281524
-0.00150407
0.00151274
-0.00278629
0.00273075
-0.000832204
0.000887768
-0.00264477
0.00252725
-0.000152156
0.0002697
-0.00236822
0.00216189
0.00039823
-0.000191885
-0.00191427
0.0016349
0.000754418
-0.000475042
-0.00133452
0.00102468
0.00088835
-0.000578513
-0.000717557
0.000416532
0.000813958
-0.000512934
-0.00093642
-0.000362786
-9.15699e-05
0.000309508
-0.00141094
-0.000172115
-0.001651
-6.1034e-05
-0.00175893
-3.19088e-06
-0.00179056
2.78298e-05
-0.00179377
3.96358e-05
-0.00180253
3.53676e-05
-0.001832
2.05496e-05
-0.00188465
1.11066e-06
-0.00195328
-2.206e-05
-0.00203071
-4.69026e-05
-0.00211447
-6.92675e-05
-0.00220626
-8.72421e-05
-0.00231058
-9.95031e-05
-0.0024306
-0.000103489
-0.00256583
-9.46717e-05
-0.00271115
-6.67456e-05
-0.0028535
-1.37835e-05
-0.00297869
8.1253e-05
-0.0030848
0.000239399
-0.00317757
0.00048345
-0.00326278
0.000833277
-0.00334253
0.00128791
-0.00338155
0.00178244
-0.00326648
0.00212484
-0.00246634
0.00168958
-0.000455892
-0.000303348
-0.00298523
0.00418275
-0.00361695
-0.000370138
-0.00020831
-0.00175419
-0.0038981
0.00350498
-0.00298226
-0.000857829
0.00182891
-0.00111189
-0.00225644
0.00153942
0.00061533
-0.000256968
-0.00188583
0.00152748
-1.89758e-05
0.000230829
-0.00141886
0.00120702
-0.000381722
0.000475696
-0.000882827
0.000788863
-0.000514831
0.00050191
-0.000353384
0.000366309
-0.00044273
0.000344423
3.90796e-05
5.92251e-05
-0.000209445
3.90416e-05
0.000249755
-7.93567e-05
0.000153216
-0.000348646
0.000322271
-0.000126845
0.000528609
-0.000676578
0.000291812
-0.000143845
-0.00211809
-2.12298e-05
0.00081254
0.000963986
-0.00230979
1.95773e-05
-0.00239725
2.6415e-05
-0.00242701
2.65719e-05
-0.00242456
2.5366e-05
-0.00240958
2.46546e-05
-0.00239513
2.09058e-05
-0.00238851
1.39262e-05
-0.00239231
4.89726e-06
-0.00240552
-8.85196e-06
-0.00242903
-2.3404e-05
-0.00246245
-3.58624e-05
-0.00250532
-4.43782e-05
-0.00255696
-4.78693e-05
-0.00261544
-4.50206e-05
-0.00267647
-3.36437e-05
-0.00273332
-9.90619e-06
-0.00277574
2.8628e-05
-0.00278158
8.70794e-05
-0.00272611
0.000183925
-0.00257692
0.000334248
-0.00230098
0.000557329
-0.00188259
0.00086951
-0.00130298
0.00120283
-0.000296611
0.00111846
0.0016735
-0.000280546
0.00349641
-0.00212626
0.000604055
0.0022316
-0.00193196
0.00250055
-0.00373591
0.00246758
-0.00123223
0.00457436
-0.00487158
0.000646886
-0.000349668
0.00463661
-0.00413951
-0.000864752
0.000367642
0.00359261
-0.00306609
-0.00104989
0.000523365
0.00258502
-0.00216416
-0.00087453
0.000453667
0.00181267
-0.00153738
-0.000590917
0.000315627
0.00133966
-0.00121514
-0.000304702
0.000180174
0.0011538
-0.00114092
-0.000106208
9.33158e-05
0.00115951
-0.00119366
-2.51432e-05
5.92899e-05
0.00123181
-0.00126806
6.26257e-06
2.99898e-05
0.00130622
-0.00134041
9.19007e-05
-5.7709e-05
-0.00288898
0.00126191
0.00161761
-0.00285771
-0.00281963
-0.00278137
-0.00274426
-0.00270776
-0.00267487
-0.00264877
-0.00263155
-0.00262796
-0.00263887
-0.00266224
-0.00269419
-0.00272975
-0.00276264
-0.00278436
-0.00278262
-0.00274265
-0.00264458
-0.00245007
-0.00210565
-0.0015386
-0.000659855
0.000551682
0.00167842
0.00140655
-0.000711852
-0.00431407
0.00375318
0.00195884
0.00121428
0.000989859
0.000781519
0.000472744
1.67839e-05
-0.000584545
-0.00125748
-0.00184599
-0.00215366
-0.00208453
-0.00290161
-0.00251498
0.00161857
-0.00225908
0.00183108
-0.00155621
0.00171765
-0.0013211
0.00165452
-0.000997222
0.00126768
-0.000576913
0.000745872
-3.02079e-05
0.000115341
0.000622556
-0.000580859
0.00128384
-0.00122692
0.00180723
-0.0016803
0.00202768
-0.0018205
0.00188557
-0.0016264
-0.00529973
-0.0015925
0.00214722
-0.00191804
0.00203105
-0.00152295
0.00169485
-0.000933351
0.00108468
-0.000243301
0.000371679
0.000468553
-0.000313307
0.00108182
-0.000862046
0.0014627
-0.00117126
0.00154091
-0.00121122
0.001348
-0.000996314
-0.00323771
-0.00266212
0.00264024
-0.00219317
0.00233032
-0.00179042
0.00179247
-0.00117895
0.00120793
-0.000482622
0.000568623
0.000144411
1.46359e-05
0.00060317
-0.00035554
0.000849328
-0.000548941
0.000874639
-0.000567513
0.000731636
-0.000406676
-0.00143636
-0.00386816
-0.00268155
-0.00205318
0.000899824
-0.0021137
0.00161714
-0.00166129
0.00138536
-0.00115727
0.00100639
-0.000609409
0.000570282
-0.0001326
0.000191781
0.000162985
-2.80114e-05
0.000301597
-0.000109346
0.000318896
-0.000138937
0.000228411
-9.2451e-05
0.00116719
0.00275255
-0.00141921
0.00167436
-0.000835916
-0.000320455
8.54857e-05
-0.00104046
0.000493562
-0.000983753
0.000502679
-0.000739944
0.000388441
-0.000441614
0.000243886
-0.000190557
0.000129211
-5.3109e-05
7.16929e-05
-9.49586e-06
4.76342e-05
3.35655e-05
4.5905e-06
0.000193954
-0.000272461
-0.00439385
0.00440375
-0.0041035
0.00377401
-0.00343207
0.00307441
-0.00274317
0.00246178
-0.00224607
0.00207951
-0.00197534
0.00191115
-0.00189773
0.00190825
-0.00194626
0.00197361
-0.00199998
0.00198611
-0.00194735
0.00185592
-0.00172995
0.00156569
-6.25683e-05
0.00254945
0.00122141
-0.00437151
0.00486082
-0.00498597
0.00478392
-0.0045204
0.00425119
-0.00399591
0.00377038
-0.0035829
0.00343076
-0.0033028
0.00318727
-0.00307497
0.00295292
-0.00280783
0.00262851
-0.00241092
0.00215769
-0.00187811
0.00158649
-0.00439548
0.0041097
-0.00394759
0.00383574
-0.00374019
0.00364804
-0.00355378
0.00345368
-0.00334276
0.00321001
-0.00304113
0.00282675
-0.00256789
0.00227209
-0.00195017
0.00161441
-0.00127783
0.000956552
-0.000605432
0.000991972
-0.00120859
0.00137439
-0.00150559
0.00159949
-0.00165016
0.00165512
-0.00161435
0.00153068
-0.00141273
0.00125993
-0.00106738
0.000842094
-0.000594749
0.000338504
-8.9884e-05
-0.000131242
0.00148575
-0.00291627
0.00392346
-0.00413441
0.00355504
-0.00288037
0.00230368
-0.00182609
0.00142448
-0.00109198
0.00082554
-0.000627595
0.000498929
-0.000437326
0.000436109
-0.000483098
0.000564226
-0.000668732
0.00078758
-0.000908166
0.00101354
-0.00106549
0.0033128
-0.004508
0.00530846
-0.00562392
0.0055054
-0.00510613
0.00458293
-0.00403214
0.00350427
-0.00302759
0.00261823
-0.00228367
0.00202274
-0.00182723
0.00168414
-0.00157812
0.00149456
-0.00142397
0.0013653
-0.00132436
0.00130882
-0.0013557
)
;

boundaryField
{
    floor
    {
        type            calculated;
        value           nonuniform List<scalar> 
36
(
0
0
0
0
0
0
0
0
0
0
0
0
0
0
0
0
0
0
0
-5.29174e-06
-1.35197e-05
-2.0248e-05
-2.57939e-05
-2.29335e-05
-2.14746e-05
-2.02303e-05
-2.3841e-06
-4.07448e-06
-4.72523e-06
-5.49111e-06
-3.95968e-06
-8.31358e-06
-1.18869e-05
-1.20634e-05
-1.47187e-05
-1.26797e-05
)
;
    }
    ceiling
    {
        type            calculated;
        value           nonuniform List<scalar> 
58
(
-3.83739e-05
-3.54708e-05
-3.30449e-05
-2.96446e-05
-2.51975e-05
-2.09363e-05
-1.70522e-05
-1.38842e-05
-1.1865e-05
-1.10305e-05
-1.09516e-05
-1.0551e-05
-1.17798e-05
-1.16975e-05
-1.1678e-05
-1.16958e-05
-1.17508e-05
-1.18521e-05
-1.20002e-05
-1.21737e-05
-1.23364e-05
-1.24523e-05
-1.25063e-05
-1.24993e-05
-1.2434e-05
-1.23146e-05
-1.21448e-05
-1.19274e-05
-1.16631e-05
-1.1349e-05
-1.09928e-05
-1.06006e-05
-1.01767e-05
-9.72486e-06
-9.24809e-06
-8.71672e-06
-8.29099e-06
-8.68353e-06
-7.86739e-06
-5.30753e-06
1.64809e-05
9.0166e-06
-0.000132142
-3.80683e-05
-3.70299e-05
-3.4211e-05
-3.1638e-05
-2.74307e-05
-2.3024e-05
-1.89353e-05
-1.53455e-05
-1.2719e-05
-1.13105e-05
-1.09598e-05
-1.08252e-05
2.6217e-05
1.06462e-05
-9.89064e-05
)
;
    }
    sWall
    {
        type            calculated;
        value           nonuniform List<scalar> 4(-0.000184827 -0.000218157 -0.000195668 -0.000261579);
    }
    nWall
    {
        type            calculated;
        value           nonuniform List<scalar> 6(-5.67224e-05 -6.82477e-05 -7.17781e-05 -8.58867e-05 -9.28801e-05 -0.000102498);
    }
    sideWalls
    {
        type            empty;
        value           nonuniform 0();
    }
    glass1
    {
        type            calculated;
        value           nonuniform List<scalar> 10(-6.2463e-05 -0.000168586 -0.000256746 -0.000329972 -0.000391842 -0.000442622 -0.000446911 -0.000418569 -0.000468709 -0.000465831);
    }
    glass2
    {
        type            calculated;
        value           nonuniform List<scalar> 2(-0.000303578 -0.000334282);
    }
    sun
    {
        type            calculated;
        value           uniform 0;
    }
    Table_master
    {
        type            calculated;
        value           nonuniform List<scalar> 9(-1.5394e-07 -1.54093e-07 -1.54145e-07 -1.54177e-07 -1.54198e-07 -1.54212e-07 -1.54218e-07 -1.54213e-07 -1.54184e-07);
    }
    Table_slave
    {
        type            calculated;
        value           nonuniform List<scalar> 9(1.53819e-07 1.53817e-07 1.53776e-07 1.53744e-07 1.53725e-07 1.53725e-07 1.53733e-07 1.53772e-07 1.53855e-07);
    }
    inlet
    {
        type            calculated;
        value           nonuniform List<scalar> 2(-0.00573716 -0.00594145);
    }
    outlet
    {
        type            calculated;
        value           nonuniform List<scalar> 4(0.00509621 0.00443233 0.0029312 0.00586059);
    }
}


// ************************************************************************* //
