/*--------------------------------*- C++ -*----------------------------------*\
  =========                 |
  \\      /  F ield         | OpenFOAM: The Open Source CFD Toolbox
   \\    /   O peration     | Website:  https://openfoam.org
    \\  /    A nd           | Version:  6
     \\/     M anipulation  |
\*---------------------------------------------------------------------------*/
FoamFile
{
    version     2.0;
    format      ascii;
    class       surfaceScalarField;
    location    "2800";
    object      phi;
}
// * * * * * * * * * * * * * * * * * * * * * * * * * * * * * * * * * * * * * //

dimensions      [1 0 -1 0 0 0 0];

internalField   nonuniform List<scalar> 
1482
(
-0.00278623
0.00285165
-0.00343186
0.000645628
-0.00206513
0.00509129
-0.00411406
0.000682205
-0.00294635
0.00152684
-0.00151822
0.00687396
-0.0047595
0.000645438
-0.00377989
0.00151575
-0.00240903
0.00241765
-0.00113127
0.00834453
-0.00531942
0.000559924
-0.0044804
0.00134594
-0.00322247
0.00232919
-0.00196918
0.00325557
-0.000823279
0.00956986
-0.00577435
0.000454923
-0.0050698
0.00114933
-0.0038486
0.00197207
-0.0026349
0.0029949
-0.00161175
0.00404404
-0.000587883
0.0106131
-0.00611097
0.000336622
-0.00555196
0.00093708
-0.00435948
0.00166021
-0.00311875
0.00245593
-0.00208055
0.0034637
-0.00134742
0.00480358
-0.000546937
0.011661
-0.00631487
0.000203904
-0.00592342
0.000708086
-0.00476893
0.00134652
-0.00350927
0.00205073
-0.00240097
0.00277634
-0.00158652
0.0037028
-0.00126029
0.00551694
-0.000524821
0.012729
-0.00636772
5.285e-05
-0.00617637
0.000456846
-0.00507939
0.00101854
-0.00381876
0.00165602
-0.00265236
0.00230212
-0.0017447
0.00293452
-0.0011723
0.00361481
-0.00109868
0.0060908
0.00292102
0.0104024
-0.0062431
-0.000124626
-0.00629999
0.000176471
-0.00528911
0.000666571
-0.00405169
0.00125147
-0.00284309
0.00184675
-0.00185499
0.00241241
-0.00116732
0.00292954
-0.000688729
0.00320486
0.00194177
0.00707005
0.00407749
0.00646715
-0.00590708
-0.000336014
-0.00628647
-0.000138136
-0.00539405
0.000281417
-0.00420907
0.000823944
-0.00297862
0.001387
-0.0019222
0.00191396
-0.00115013
0.00239522
-0.000601837
0.00284265
0.000812391
0.00433424
0.00367271
0.00747484
0.00248685
0.00414647
-0.00532152
-0.000585557
-0.00613254
-0.000489951
-0.00538868
-0.000143505
-0.00428741
0.000359766
-0.00306249
0.000907822
-0.0019519
0.00141671
-0.00110966
0.00187349
-0.000514716
0.0023081
0.000360468
0.00329457
0.00251369
0.00549326
0.00336719
0.0065945
0.00154021
0.00280185
-0.00439802
-0.000923501
-0.00582204
-0.000896053
-0.00526362
-0.000615009
-0.00427823
-0.000152686
-0.00309399
0.000391266
-0.00194943
0.000905348
-0.00104733
0.00135438
-0.000400958
0.00175973
0.00024048
0.00242809
0.00186947
0.0039388
0.00328081
0.00557964
0.00284849
0.00528622
0.00223703
0.000792197
-0.0028383
-0.00155972
-0.00533759
-0.00140795
-0.00500919
-0.00115049
-0.00417306
-0.000720182
-0.00306464
-0.000182041
-0.00191813
0.00035997
-0.00096703
0.000825045
-0.000272327
0.00122575
0.000317836
0.00168237
0.00152914
0.00276842
0.00305856
0.00416105
0.00351858
0.00490956
0.00305855
0.0044647
-0.00154506
0.00258445
-0.00283508
-0.00486016
-0.00203715
-0.00465167
-0.00176546
-0.00397099
-0.00135255
-0.00296788
-0.000816937
-0.00184787
-0.000252304
-0.000869568
0.000262509
-0.000133606
0.000686324
0.000473614
0.00106997
0.0013984
0.00181311
0.00286401
0.00296298
0.00379364
0.003886
0.00371663
0.00425148
0.00119206
0.00172759
0.00284882
-0.00537838
-0.00231686
-0.00431617
-0.00237265
-0.00369227
-0.00204418
-0.00280156
-0.00151887
-0.00173709
-0.000927716
-0.000735047
-0.000386825
3.95713e-05
8.93321e-05
0.000669246
0.000490692
0.00143824
0.00103014
0.00273924
0.00193788
0.00388598
0.00287064
0.00428704
0.00331559
0.00346146
0.00198208
0.00456176
-0.00361388
-0.00175848
-0.00393634
-0.00269668
-0.00336075
-0.00270417
-0.00256368
-0.00228206
-0.0015777
-0.00167826
-0.000580218
-0.00108254
0.000244383
-0.000591637
0.000904614
-0.000146036
0.0016098
0.000319133
0.00272573
0.00104365
0.00391044
0.00191342
0.00461525
0.00254243
0.00449049
0.00228655
0.00490545
0.00163839
-0.00185809
-0.00174959
-0.00293638
-0.00275844
-0.00287647
-0.00318095
-0.00223887
-0.00302899
-0.00135743
-0.00250234
-0.000391083
-0.00186739
0.00046354
-0.0013017
0.00115338
-0.000840402
0.0018531
-0.000389329
0.00281897
0.000225896
0.00394648
0.00100761
0.00478971
0.00173896
0.00500962
0.0020233
0.00547052
0.00172149
0.00829811
0.00500899
-0.00184218
-0.00168733
-0.00299863
-0.00216979
-0.00346512
-0.00179026
-0.00362956
-0.00106039
-0.00332603
-0.000158938
-0.00273448
0.000703967
-0.00210782
0.00142561
-0.00157393
0.00211699
-0.0011043
0.00298097
-0.000551329
0.00401778
0.000154599
0.00490597
0.000891353
0.00533207
0.00141652
0.00575793
0.00173588
0.00622157
0.00379804
0.00342929
0.00173808
-0.00351544
-0.0015082
-0.00366022
-0.00124781
-0.00400757
-0.000685662
-0.00400429
0.000110633
-0.00359561
0.000957391
-0.00298791
0.00170619
-0.0023884
0.00240149
-0.00185842
0.00319081
-0.00131414
0.00412791
-0.000661454
0.00500896
5.16084e-05
0.0055648
0.000658625
0.00602299
0.00115146
0.00601874
0.00193872
0.00414906
0.00307826
-0.00404647
0.00804472
-0.00226018
-0.00157148
-0.00345217
-0.000755203
-0.00415283
-0.000272232
-0.004421
0.000402072
-0.00429574
0.00119856
-0.00383678
0.00196986
-0.00325157
0.00268521
-0.00267212
0.00343242
-0.00210003
0.00428157
-0.00146781
0.00512652
-0.000779016
0.00576121
-0.000144804
0.00626963
0.000411973
0.00620824
0.000961908
0.00373852
0.00234922
-0.00194988
0.000981618
0.00234226
-0.00728212
-0.00719872
0.00823196
-0.00329349
0.000818724
-0.00237368
-0.000264457
-0.00394291
0.000121767
-0.00454684
0.000692988
-0.00471192
0.00141084
-0.00450801
0.00218365
-0.00405057
0.0029265
-0.00349286
0.00366513
-0.00290482
0.00445534
-0.00227379
0.00525555
-0.00159684
0.00592706
-0.000944879
0.00646281
-0.000338017
0.0063326
0.000287534
0.00340599
0.00129435
-0.00109968
0.00149895
-0.00588635
-0.000330824
-0.00655082
0.00735186
-0.00640207
-0.00773749
0.00450599
0.0024123
0.00097479
-0.00256836
0.000716712
-0.00335485
0.000527767
-0.00434892
0.000958659
-0.00481251
0.00158832
-0.00488941
0.00232421
-0.00464857
0.00307983
-0.0042039
0.00382681
-0.00365452
0.00458759
-0.00303707
0.00534618
-0.00236442
0.00601155
-0.00168133
0.00650965
-0.000991761
0.0062369
-0.000242413
0.00307736
0.000616066
-0.000967517
0.00116212
-0.00494099
0.000553495
-0.00800934
0.00128225
-0.00183431
0.00157729
0.000850151
0.00174675
0.00142474
-0.00219669
0.001179
-0.00303065
0.0010529
-0.00387998
0.00121541
-0.00460568
0.00172189
-0.00494609
0.00238496
-0.00495016
0.003117
-0.00468574
0.00386148
-0.00423856
0.0046027
-0.00366963
0.00531975
-0.00301062
0.00593773
-0.00229059
0.00632643
-0.00149814
0.00584176
-0.000596691
0.00265062
0.000184269
-0.00109127
0.000739769
-0.00441128
0.000632335
-0.00740094
0.000590415
0.000997317
0.00117822
0.00141868
0.00126028
0.00184125
-0.00167679
0.00155016
-0.00256785
0.00142371
-0.00340145
0.00149417
-0.00415875
0.00182058
-0.00470438
0.00237113
-0.00493227
0.00303564
-0.0048688
0.00374353
-0.00456779
0.00444889
-0.00408473
0.00511014
-0.00346
0.00564445
-0.00271734
0.00587325
-0.00183743
0.00516262
-0.00081903
0.00212818
-7.4266e-05
-0.00129872
0.000391691
-0.00416647
0.000494909
-0.0067203
0.000594644
0.000668306
0.00150723
0.000864043
0.00181491
0.000846796
0.002184
-0.00118954
0.00189637
-0.002023
0.00170763
-0.00285177
0.00170328
-0.00361056
0.00189854
-0.00423671
0.00229926
-0.00463252
0.00285379
-0.00475041
0.00348182
-0.00460708
0.00411807
-0.00423695
0.00469674
-0.00367131
0.00511694
-0.00293248
0.00517024
-0.00201432
0.00427837
-0.000953175
0.00152675
-0.000217592
-0.00154164
0.000168636
-0.00410606
0.00033124
-0.00618273
0.00126295
0.000503448
0.00186783
0.000582582
0.00207913
0.000431911
0.00250273
-0.000750647
0.00220007
-0.00149324
0.00195049
-0.00226586
0.00185383
-0.00300233
0.00193264
-0.00364466
0.00218846
-0.00412592
0.0026003
-0.00437903
0.00310915
-0.00437775
0.00363937
-0.00412837
0.00410735
-0.00364754
0.00439313
-0.00294749
0.00428008
-0.0020423
0.00328726
-0.00102319
0.000865168
-0.000291573
-0.0018223
6.30567e-05
-0.00414751
0.000210079
-0.00581263
0.0017664
0.000332044
0.00211837
0.000341853
0.00216919
0.002894
-0.000391422
0.00247124
-0.00102182
0.00215949
-0.00170223
0.0019683
-0.00238033
0.00192934
-0.00299903
0.00204591
-0.00350211
0.00230541
-0.00383103
0.00266754
-0.00393742
0.00306246
-0.00380083
0.00339705
-0.00341806
0.00354299
-0.00279738
0.00328738
-0.00195476
0.00226168
-0.00101669
0.000153407
-0.000311398
-0.00214458
3.07056e-05
-0.00422582
0.000141393
-0.00556594
0.00209844
0.000196896
0.00226332
0.000112504
0.00205684
0.0031131
-0.000219253
0.00272556
-0.000645748
0.00233851
-0.00120083
0.00205885
-0.00179278
0.00190486
-0.00235585
0.00188528
-0.00283841
0.00199275
-0.00318945
0.00219778
-0.00336128
0.00244017
-0.00331513
0.00262974
-0.00303351
0.00263701
-0.00251206
0.00227479
-0.00178476
0.00125835
-0.000951408
-0.000564632
-0.000298624
-0.00248329
2.73234e-05
-0.00430002
0.000104964
-0.0053891
0.00229534
8.89265e-05
0.0022869
4.22429e-05
0.00201475
0.00321302
-0.000100075
0.00287666
-0.000370348
0.00247887
-0.000786113
0.00213119
-0.00127316
0.00187301
-0.00176093
0.00172392
-0.00219448
0.00168468
-0.00253035
0.00173319
-0.00272487
0.0018205
-0.0027416
0.00186196
-0.00254735
0.00174243
-0.00213892
0.00129543
-0.00153269
0.000315444
-0.000841822
-0.00122318
-0.000292826
-0.00280509
2.32165e-05
-0.00434929
7.66777e-05
-0.00524907
0.00238426
3.30912e-05
0.00229605
1.76835e-05
0.00199722
0.00321803
-5.15984e-06
0.00294117
-0.00016459
0.00256466
-0.000456136
0.00218245
-0.000837373
0.00184242
-0.00124258
0.00157789
-0.00161491
0.00140173
-0.00191153
0.00130355
-0.0021007
0.00124045
-0.00214482
0.00114539
-0.00202503
0.000908792
-0.00171371
0.000398932
-0.00124241
-0.000510247
-0.000706989
-0.00177727
-0.000287687
-0.00309261
-5.25445e-06
-0.00436807
4.20939e-05
-0.00513713
0.00241736
1.10116e-05
0.00230272
4.97939e-06
0.00199239
0.00313934
7.85367e-05
0.00293288
3.13749e-06
0.00259486
-0.000194792
0.00220868
-0.000482373
0.00181541
-0.000810359
0.00145791
-0.00112259
0.00116291
-0.00137608
0.000931236
-0.00153922
0.000737764
-0.00159802
0.000516148
-0.00151559
0.000184436
-0.00130067
-0.000350516
-0.000964255
-0.00115555
-0.000597089
-0.00219936
-0.000284862
-0.00331313
-6.70948e-05
-0.00437241
-8.22812e-07
-0.00505917
0.00242837
3.17338e-07
0.00230739
-4.41008e-06
0.00199696
0.00297889
0.000160294
0.00285897
0.000152447
0.00257507
2.29335e-05
0.00220653
-0.000192634
0.00178978
-0.00045674
0.00136802
-0.000720467
0.000978719
-0.000938405
0.000639226
-0.00108407
0.000333347
-0.0011348
1.76525e-05
-0.00109953
-0.000370447
-0.000960702
-0.000896593
-0.000754589
-0.00160491
-0.000514878
-0.00250244
-0.000293972
-0.00345972
-0.000138228
-0.00437928
-6.01564e-05
-0.00502343
0.00242869
-7.11925e-06
0.0023101
-1.37799e-05
0.00201089
0.00272938
0.000249357
0.00272299
0.000296271
0.00251051
0.000216999
0.00217617
5.3288e-05
0.00176083
-0.000163691
0.00130516
-0.000393879
0.000851635
-0.000593383
0.000432136
-0.000731315
4.91849e-05
-0.000799911
-0.000324395
-0.000792758
-0.000734881
-0.000735093
-0.0012405
-0.000616798
-0.00189932
-0.000460179
-0.00271231
-0.000305007
-0.00356105
-0.000192628
-0.00440235
-0.000115123
-0.00504663
0.00242157
-1.44501e-05
0.00231077
-2.91196e-05
0.00204017
0.00236757
0.000361656
0.00252446
0.000447882
0.00240557
0.000401212
0.00212066
0.000272507
0.00172545
8.86741e-05
0.0012618
-0.000120332
0.000774172
-0.000316416
0.000304347
-0.000465594
-0.000125727
-0.000556404
-0.000528187
-0.000596121
-0.000945615
-0.000582029
-0.00145124
-0.000524363
-0.00209065
-0.000425485
-0.00286298
-0.000309533
-0.00364871
-0.000217384
-0.00444832
-0.000146695
-0.00512467
0.00240712
-2.64513e-05
0.0023081
-6.46505e-05
0.00210497
0.00183386
0.000533558
0.00226191
0.000624207
0.00226508
0.00058838
0.00204415
0.000477725
0.00168344
0.000314512
0.00123148
0.000118992
0.000734062
-8.02218e-05
0.000238423
-0.000250492
-0.000218895
-0.000372426
-0.0006395
-0.000445094
-0.00107089
-0.000470856
-0.00157978
-0.000453504
-0.00221989
-0.000395153
-0.00298324
-0.000305279
-0.00374077
-0.000217551
-0.0045137
-0.000152094
-0.00523433
0.00238067
-5.28764e-05
0.00229632
-0.000177943
0.00228307
-0.000855698
0.00167924
0.00101032
0.0019457
0.000849774
0.00209718
0.0007921
0.0019523
0.000680226
0.00163592
0.000525247
0.0012097
0.000336289
0.000720449
0.000132605
0.00021651
-5.83088e-05
-0.000258268
-0.00021112
-0.000696448
-0.00031548
-0.00114185
-0.000374136
-0.00166065
-0.000390009
-0.00231125
-0.000362198
-0.00308529
-0.00029319
-0.0038416
-0.000204568
-0.00459063
-0.000140771
-0.00534946
0.00232779
-0.000114584
0.00223297
-0.000493735
0.00192111
-0.00128775
0.00133284
0.00163415
0.00171975
0.00123627
0.00191829
0.00102867
0.00185422
0.000890184
0.00158568
0.000730465
0.0011929
0.000542046
0.000724105
0.000332633
0.000224667
0.000124449
-0.000260984
-5.55922e-05
-0.000716422
-0.000191146
-0.00117652
-0.000280812
-0.00170813
-0.000326664
-0.00237545
-0.000325848
-0.00317127
-0.000276309
-0.00394681
-0.000188122
-0.00467166
-0.000123704
-0.00545333
0.00221321
-0.000235178
0.00197441
-0.000832528
0.00146589
-0.00173845
0.0007885
0.00228279
0.00156122
0.00179267
0.00180806
0.0013465
0.00176581
0.00111708
0.00153848
0.000937388
0.00117962
0.000743745
0.000737828
0.000528324
0.000252235
0.000305065
-0.000237332
0.000100796
-0.000707724
-6.42902e-05
-0.00118279
-0.000184884
-0.00172805
-0.000260909
-0.00241553
-0.000286621
-0.00323985
-0.000257349
-0.004049
-0.000174245
-0.00475122
-0.000108735
-0.00554013
0.00197803
-0.000386176
0.00152806
-0.0011045
0.000831934
-0.00289844
0.00372256
0.00137587
0.00246814
0.00184978
0.00175095
0.00173206
0.00138025
0.00150473
0.00115083
0.00117092
0.000946091
0.000757161
0.000724412
0.000292085
0.000488474
-0.000194235
0.000261969
-0.000675467
6.85385e-05
-0.00116442
-8.26587e-05
-0.00172247
-0.00019046
-0.00243181
-0.000244641
-0.00328887
-0.000237637
-0.00414096
-0.000165483
-0.00482535
-0.000100242
-0.00561194
0.00159185
-0.000516077
0.000939639
-0.0020395
0.00239927
0.00269915
0.002053
0.00226492
0.00180074
0.00168227
0.00150782
0.00137716
0.00117038
0.00115137
0.000779094
0.000924158
0.000339514
0.000676983
-0.00013626
0.000430499
-0.000623214
0.000209717
-0.00112433
2.84564e-05
-0.00169282
-0.0001123
-0.00242346
-0.000198792
-0.00331608
-0.000217431
-0.00421676
-0.000161867
-0.00489118
-9.97347e-05
-0.00567527
0.00107577
-0.00108238
0.00135883
0.00107685
0.00229997
0.00245218
0.00199612
0.00206955
0.00157774
0.00161235
0.00118723
0.00136031
0.000799559
0.0011309
0.00039014
0.000873533
-6.68392e-05
0.000607563
-0.000553905
0.000361189
-0.00106484
0.000150227
-0.00164209
-2.22706e-05
-0.00238914
-0.000146591
-0.00331846
-0.000196364
-0.00427169
-0.000162463
-0.00494631
-0.000106726
-0.00573817
0.00192584
-0.000537118
0.00179495
0.00158187
0.00224768
0.00220062
0.00177027
0.00187702
0.00123612
0.00156346
0.000811144
0.00134873
0.000436235
0.00108481
1.0808e-05
0.000795886
-0.000470447
0.000524107
-0.00098853
0.000284879
-0.00157312
8.12687e-05
-0.00232746
-8.39171e-05
-0.00329158
-0.000173386
-0.00430102
-0.000166923
-0.00498852
-0.00012016
-0.00580829
0.0020475
0.000833926
0.000423903
0.00227042
0.00155913
0.00206473
0.00190615
0.00136642
0.00174672
0.000790682
0.00158392
0.00046458
0.00132038
9.18738e-05
0.00100374
-0.000375531
0.00070097
-0.000899545
0.000435123
-0.00148895
0.000200705
-0.00224211
-4.06338e-06
-0.00322966
-0.000145733
-0.00429836
-0.000175879
-0.00501524
-0.000140028
-0.00589225
0.00298075
0.00166068
0.00103364
0.00223856
0.0013853
0.00162573
0.00164684
0.000665561
0.00187184
0.000441754
0.00160675
0.000168752
0.0012435
-0.000269656
0.000897871
-0.00080299
0.000604417
-0.00139632
0.000342493
-0.00213809
9.66928e-05
-0.00312642
-0.00010722
-0.00425469
-0.00018921
-0.00502302
-0.000167851
-0.00599672
0.00474617
0.00177271
0.00149948
0.0017545
0.00125654
5.72707e-05
0.00225516
0.000300137
0.00201346
0.00022293
0.00155256
-0.000154038
0.00112788
-0.000705205
0.000800093
-0.0013063
0.000514398
-0.00202033
0.000224721
-0.00298344
-4.62579e-05
-0.00415909
-0.000202631
-0.00500714
-0.000204781
-0.00612993
0.00689309
0.000426777
0.00282717
-0.00189545
0.00320954
-0.000143091
0.00269848
0.00020926
0.00202709
-4.42623e-05
0.00144276
-0.000618734
0.00104142
-0.0012368
0.000730621
-0.00190092
0.000394962
-0.00281014
5.13885e-05
-0.00400076
-0.000204441
-0.00496177
-0.000247671
-0.00630125
0.00771142
-0.00335173
0.00428347
-0.0011198
0.00418676
0.000139846
0.00276781
2.15155e-05
0.00196117
-0.000569085
0.00139308
-0.00121582
0.00102052
-0.0017976
0.000627293
-0.00261585
0.00020058
-0.00377663
-0.000172705
-0.00488027
-0.000285638
-0.00651691
0.00446502
-0.00159696
0.00476095
0.000275883
0.00405099
0.000152649
0.00263635
-0.000558901
0.00195077
-0.00126912
0.00144653
-0.00173036
0.000953368
-0.00240953
0.000420846
-0.00349685
-7.93055e-05
-0.00475265
-0.000300135
-0.00677216
0.00298479
0.00031739
0.00471972
0.000779979
0.00342347
-0.000440869
0.00251776
-0.00140172
0.00208346
-0.00170732
0.00142375
-0.00219191
0.000735671
-0.00317652
0.000100303
-0.00456148
-0.000270441
-0.00704359
0.00342672
0.00123328
0.00426631
0.000266895
0.00271498
-0.00170047
0.00281633
-0.00172198
0.00209856
-0.00193503
0.00116695
-0.00281103
0.000369907
-0.00428328
-0.000178121
-0.00728693
0.0047909
0.000726997
0.00380555
-0.0022607
0.00327473
-0.00193031
0.00302514
-0.0015813
0.00174516
-0.00234616
0.000701838
-0.00390425
-9.5657e-06
-0.00743933
0.00566132
-0.0021995
0.00374372
-0.00277918
0.00412399
-0.00105807
0.00250245
-0.00167402
0.00107293
-0.00341085
0.000207944
-0.00742429
0.00362197
-0.00305378
0.00401862
-0.000344952
0.00341136
-0.000652851
0.00148142
-0.00272514
0.000386768
-0.00719267
0.000744585
0.000282012
0.00339213
0.000678382
0.00208039
-0.00163189
0.000387846
-0.00678299
0.00120786
0.00133329
0.00273757
0.000217605
0.000230772
-0.00637297
0.00272544
0.00136612
0.00158914
-0.00612085
0.00428048
-0.0045112
)
;

boundaryField
{
    floor
    {
        type            calculated;
        value           nonuniform List<scalar> 
36
(
0
0
0
0
0
0
0
0
0
0
0
0
0
0
0
0
0
0
0
-6.60967e-06
-1.74744e-05
-2.70108e-05
-3.56137e-05
-3.64109e-05
-2.98941e-05
-2.98686e-05
-3.21709e-06
-6.01969e-06
-6.19907e-06
-6.33384e-06
-4.22916e-06
-9.57755e-06
-1.04411e-05
-1.40644e-05
-1.51406e-05
-1.65219e-05
)
;
    }
    ceiling
    {
        type            calculated;
        value           nonuniform List<scalar> 
43
(
-5.40364e-05
-6.18104e-05
-6.20738e-05
-5.90848e-05
-5.5017e-05
-4.84006e-05
-4.27422e-05
-3.89075e-05
-3.66159e-05
-3.54075e-05
-3.49781e-05
-3.51619e-05
-3.57662e-05
-3.64681e-05
-3.6909e-05
-3.70881e-05
-3.71028e-05
-3.70679e-05
-3.70469e-05
-3.70486e-05
-3.70474e-05
-3.70002e-05
-3.68563e-05
-3.65634e-05
-3.6074e-05
-3.53512e-05
-3.43735e-05
-3.31428e-05
-3.16963e-05
-3.01201e-05
-2.85456e-05
-2.71109e-05
-2.59057e-05
-2.49365e-05
-2.41222e-05
-2.33391e-05
-2.24841e-05
-2.15244e-05
-2.05585e-05
-2.05497e-05
1.8645e-05
1.46416e-05
-0.000158374
)
;
    }
    sWall
    {
        type            calculated;
        value           nonuniform List<scalar> 9(-0.000142226 -0.000166165 -0.000195594 -0.000227373 -0.000247198 -0.000283011 -0.000458704 -0.000481226 -0.000498019);
    }
    nWall
    {
        type            calculated;
        value           nonuniform List<scalar> 
14
(
-9.17952e-05
-9.93377e-05
-0.000104742
-0.000105418
-0.000116754
-0.000124432
-0.000131146
-0.000144071
-0.000160633
-0.000176224
-0.000180675
-0.000184047
-0.00018886
-0.000210126
)
;
    }
    sideWalls
    {
        type            empty;
        value           nonuniform 0();
    }
    glass1
    {
        type            calculated;
        value           nonuniform List<scalar> 9(-6.54248e-05 -0.000174501 -0.00026445 -0.000339305 -0.000402051 -0.000455395 -0.000500911 -0.000543185 -0.000594441);
    }
    glass2
    {
        type            calculated;
        value           nonuniform List<scalar> 2(-0.000374222 -0.000391646);
    }
    sun
    {
        type            calculated;
        value           uniform 0;
    }
    Table_master
    {
        type            calculated;
        value           nonuniform List<scalar> 9(-1.54152e-07 -1.54273e-07 -1.54303e-07 -1.54321e-07 -1.54331e-07 -1.54334e-07 -1.5433e-07 -1.54313e-07 -1.54255e-07);
    }
    Table_slave
    {
        type            calculated;
        value           nonuniform List<scalar> 9(1.53829e-07 1.53866e-07 1.53853e-07 1.53867e-07 1.53882e-07 1.53922e-07 1.53988e-07 1.54084e-07 1.54217e-07);
    }
    inlet
    {
        type            calculated;
        value           uniform -0.0116687;
    }
    outlet
    {
        type            calculated;
        value           nonuniform List<scalar> 2(0.0093518 0.0129846);
    }
}


// ************************************************************************* //
