/*--------------------------------*- C++ -*----------------------------------*\
  =========                 |
  \\      /  F ield         | OpenFOAM: The Open Source CFD Toolbox
   \\    /   O peration     | Website:  https://openfoam.org
    \\  /    A nd           | Version:  6
     \\/     M anipulation  |
\*---------------------------------------------------------------------------*/
FoamFile
{
    version     2.0;
    format      ascii;
    class       volScalarField;
    location    "2800";
    object      T;
}
// * * * * * * * * * * * * * * * * * * * * * * * * * * * * * * * * * * * * * //

dimensions      [0 0 0 1 0 0 0];

internalField   nonuniform List<scalar> 
778
(
302.473
302.147
302.695
302.131
302.176
302.919
302.126
302.147
302.224
303.137
302.121
302.147
302.179
302.286
303.346
302.117
302.149
302.19
302.213
302.361
303.54
302.112
302.15
302.204
302.233
302.248
302.448
303.708
302.108
302.15
302.217
302.261
302.272
302.285
302.544
303.86
302.103
302.149
302.229
302.289
302.312
302.303
302.332
302.688
304.069
302.099
302.147
302.238
302.316
302.354
302.35
302.327
302.424
303.148
304.055
302.093
302.143
302.244
302.339
302.396
302.401
302.374
302.356
302.75
303.465
304.058
302.086
302.135
302.244
302.357
302.435
302.454
302.428
302.389
302.497
303.081
303.607
304.089
302.076
302.122
302.238
302.366
302.467
302.504
302.482
302.437
302.425
302.773
303.282
303.699
304.155
302.065
302.101
302.221
302.363
302.488
302.549
302.535
302.486
302.447
302.598
303.013
303.427
303.822
304.094
302.052
302.072
302.19
302.343
302.491
302.582
302.583
302.533
302.485
302.534
302.828
303.209
303.575
303.838
304.24
302.036
302.144
302.302
302.472
302.594
302.623
302.575
302.522
302.527
302.726
303.048
303.387
303.638
304.054
302.009
302.087
302.237
302.422
302.583
302.651
302.623
302.562
302.545
302.685
302.948
303.251
303.504
303.711
301.988
302.033
302.156
302.338
302.53
302.653
302.669
302.625
302.6
302.686
302.9
303.163
303.396
303.467
294.559
301.976
301.986
302.073
302.229
302.427
302.602
302.682
302.685
302.676
302.733
302.895
303.115
303.316
303.309
296.217
294.758
301.95
301.998
302.116
302.288
302.483
302.626
302.696
302.73
302.789
302.917
303.099
303.261
303.189
297.895
295.523
297.148
301.939
302.016
302.146
302.318
302.495
302.625
302.713
302.797
302.915
303.066
303.198
303.074
298.865
296.311
296.494
298.703
299.796
301.909
301.942
302.025
302.155
302.319
302.472
302.599
302.712
302.83
302.95
303.017
302.784
299.23
296.97
297.38
299.259
300.064
300.326
301.157
301.885
301.898
301.939
302.021
302.141
302.278
302.409
302.528
302.636
302.715
302.69
302.269
299.27
297.522
298.476
299.552
301.214
300.464
301.111
301.896
301.875
301.877
301.891
301.929
301.998
302.091
302.192
302.288
302.365
302.39
302.271
301.715
299.341
298.207
299.375
300.186
301.31
301.108
301.914
301.883
301.87
301.867
301.868
301.878
301.905
301.949
302.004
302.056
302.086
302.053
301.865
301.277
299.555
299.011
300.067
300.751
301.547
301.969
301.9
301.879
301.869
301.864
301.859
301.856
301.857
301.864
301.876
301.883
301.866
301.788
301.569
301.044
299.911
299.768
300.585
301.189
301.786
301.944
301.894
301.877
301.869
301.864
301.859
301.851
301.841
301.829
301.813
301.787
301.738
301.635
301.426
301.018
300.347
300.398
300.994
301.509
301.971
301.936
301.892
301.877
301.869
301.865
301.861
301.855
301.844
301.826
301.8
301.761
301.699
301.596
301.422
301.141
300.798
300.916
301.344
301.746
302.101
301.934
301.892
301.879
301.868
301.866
301.864
301.86
301.853
301.84
301.817
301.78
301.725
301.64
301.514
301.343
301.198
301.364
301.635
301.925
302.191
301.934
301.894
301.881
301.868
301.867
301.866
301.866
301.864
301.857
301.844
301.82
301.782
301.725
301.65
301.568
301.528
301.679
301.864
302.061
302.255
301.937
301.896
301.882
301.868
301.867
301.868
301.87
301.871
301.872
301.868
301.86
301.843
301.817
301.786
301.763
301.796
301.893
302.025
302.159
302.3
301.941
301.898
301.883
301.868
301.868
301.869
301.872
301.876
301.881
301.885
301.888
301.89
301.89
301.892
301.911
301.96
302.033
302.129
302.224
302.332
301.946
301.9
301.885
301.868
301.868
301.869
301.873
301.878
301.885
301.894
301.903
301.915
301.932
301.956
301.991
302.041
302.108
302.186
302.262
302.352
301.95
301.902
301.886
301.868
301.868
301.87
301.873
301.879
301.887
301.896
301.907
301.922
301.944
301.974
302.016
302.07
302.138
302.213
302.283
302.365
301.955
301.904
301.887
301.868
301.868
301.87
301.873
301.878
301.886
301.894
301.904
301.918
301.938
301.968
302.012
302.071
302.143
302.22
302.29
302.371
301.959
301.907
301.889
301.868
301.868
301.869
301.872
301.877
301.884
301.891
301.899
301.909
301.925
301.953
301.996
302.059
302.136
302.217
302.29
302.372
301.964
301.91
301.892
301.877
301.868
301.868
301.871
301.875
301.881
301.887
301.894
301.901
301.913
301.936
301.977
302.041
302.123
302.208
302.284
302.369
301.969
301.914
301.897
301.89
301.87
301.868
301.87
301.873
301.878
301.883
301.888
301.894
301.903
301.921
301.959
302.022
302.107
302.196
302.275
302.363
301.974
301.921
301.908
301.911
301.879
301.868
301.868
301.871
301.875
301.88
301.884
301.888
301.895
301.909
301.942
302.003
302.09
302.182
302.264
302.356
301.979
301.932
301.927
301.98
301.898
301.873
301.868
301.869
301.873
301.876
301.88
301.883
301.888
301.9
301.928
301.986
302.074
302.169
302.253
302.349
301.986
301.949
301.989
301.955
301.887
301.87
301.868
301.87
301.873
301.876
301.879
301.883
301.893
301.917
301.973
302.062
302.159
302.244
302.343
301.994
302.002
301.967
301.924
301.879
301.869
301.868
301.87
301.872
301.875
301.879
301.888
301.909
301.963
302.053
302.153
302.239
302.339
302.026
301.98
301.938
301.903
301.874
301.868
301.868
301.87
301.872
301.876
301.884
301.904
301.956
302.049
302.152
302.239
302.339
302.08
301.953
301.917
301.889
301.871
301.867
301.868
301.869
301.873
301.88
301.9
301.951
302.048
302.155
302.243
302.343
302.092
301.935
301.904
301.882
301.87
301.867
301.868
301.871
301.878
301.898
301.949
302.049
302.163
302.252
302.351
302.072
301.945
301.911
301.889
301.871
301.869
301.871
301.879
301.897
301.948
302.049
302.172
302.266
302.363
302.253
302
302.059
301.899
301.878
301.878
301.885
301.901
301.948
302.048
302.18
302.282
302.379
302.413
302.213
302.077
301.917
301.904
301.91
301.916
301.951
302.047
302.184
302.299
302.396
302.421
302.248
302.063
301.965
301.967
301.957
301.964
302.044
302.183
302.313
302.414
302.434
302.223
302.085
302.054
302.038
301.999
302.044
302.176
302.323
302.429
302.419
302.216
302.159
302.153
302.073
302.058
302.167
302.324
302.438
302.398
302.265
302.273
302.184
302.099
302.162
302.314
302.441
302.429
302.365
302.306
302.176
302.169
302.3
302.437
302.475
302.401
302.276
302.2
302.29
302.428
302.496
302.36
302.263
302.288
302.419
302.437
302.323
302.302
302.414
302.407
302.332
302.414
302.413
302.418
302.453
)
;

boundaryField
{
    floor
    {
        type            wallHeatTransfer;
        Tinf            uniform 305.2;
        alphaWall       uniform 0.36;
        value           nonuniform List<scalar> 
36
(
302.481
302.53
302.498
302.489
302.493
302.507
302.531
302.558
302.586
302.614
302.641
302.667
302.693
302.719
302.744
302.771
302.801
302.832
302.906
302.906
302.778
302.711
302.66
302.577
302.481
302.581
302.481
302.416
302.405
302.4
302.53
302.4
302.377
302.326
302.3
302.279
)
;
    }
    ceiling
    {
        type            wallHeatTransfer;
        Tinf            uniform 303.2;
        alphaWall       uniform 0.36;
        value           nonuniform List<scalar> 
43
(
301.283
301.314
301.362
301.409
301.491
301.706
301.926
302.098
302.221
302.306
302.369
302.415
302.448
302.471
302.485
302.492
302.493
302.49
302.484
302.477
302.47
302.463
302.46
302.458
302.461
302.466
302.475
302.487
302.5
302.512
302.521
302.526
302.525
302.518
302.506
302.494
302.486
302.483
302.484
302.519
304.152
303.984
295.372
)
;
    }
    sWall
    {
        type            wallHeatTransfer;
        Tinf            uniform 315.2;
        alphaWall       uniform 0.54;
        value           nonuniform List<scalar> 9(305.09 305.143 305.25 305.394 305.34 305.569 301.83 302.216 302.813);
    }
    nWall
    {
        type            wallHeatTransfer;
        Tinf            uniform 308.2;
        alphaWall       uniform 0.54;
        value           nonuniform List<scalar> 
14
(
303.446
303.303
303.157
303.173
303.183
303.146
303.104
303.15
303.223
303.261
303.17
303.113
303.1
303.179
)
;
    }
    sideWalls
    {
        type            empty;
    }
    glass1
    {
        type            wallHeatTransfer;
        Tinf            uniform 315.2;
        alphaWall       uniform 4.3;
        value           nonuniform List<scalar> 9(311.736 310.931 310.415 310.014 309.689 309.425 309.191 309.021 309.061);
    }
    glass2
    {
        type            wallHeatTransfer;
        Tinf            uniform 308.2;
        alphaWall       uniform 4.3;
        value           nonuniform List<scalar> 2(305.683 305.585);
    }
    sun
    {
        type            wallHeatTransfer;
        Tinf            uniform 305.2;
        alphaWall       uniform 0.36;
        value           nonuniform List<scalar> 
14
(
302.962
302.673
302.66
302.641
302.625
302.61
302.597
302.585
302.574
302.562
302.549
302.535
302.519
302.501
)
;
    }
    Table_master
    {
        type            zeroGradient;
    }
    Table_slave
    {
        type            zeroGradient;
    }
    inlet
    {
        type            fixedValue;
        value           uniform 293.15;
    }
    outlet
    {
        type            zeroGradient;
    }
}


// ************************************************************************* //
