/*--------------------------------*- C++ -*----------------------------------*\
  =========                 |
  \\      /  F ield         | OpenFOAM: The Open Source CFD Toolbox
   \\    /   O peration     | Website:  https://openfoam.org
    \\  /    A nd           | Version:  6
     \\/     M anipulation  |
\*---------------------------------------------------------------------------*/
FoamFile
{
    version     2.0;
    format      ascii;
    class       surfaceScalarField;
    location    "38199.9999987952397";
    object      phi;
}
// * * * * * * * * * * * * * * * * * * * * * * * * * * * * * * * * * * * * * //

dimensions      [1 0 -1 0 0 0 0];

internalField   nonuniform List<scalar> 
1482
(
-0.00279974
0.00286377
-0.00348397
0.000684232
-0.00414476
0.000660788
-0.00475895
0.000614197
-0.00528041
0.000521458
-0.00569235
0.000411935
-0.0059835
0.000291156
-0.00614081
0.000157307
-0.00614694
6.13319e-06
-0.00597595
-0.000170996
-0.00559792
-0.000378024
-0.00498191
-0.000616014
-0.00405779
-0.000924119
-0.00257935
-0.00147844
-0.00257643
-6.39609e-05
6.8815e-05
0.000779408
-0.000843369
0.00143149
-0.000652084
0.00183035
-0.000398857
0.00205147
-0.000221118
0.00215568
-0.00010421
0.00220315
-4.74717e-05
0.00222612
-2.29689e-05
0.00223592
-9.80646e-06
0.00223679
-8.61551e-07
0.00222966
7.13058e-06
0.0022106
1.906e-05
0.00216633
4.42622e-05
0.00206369
0.000102643
0.00184731
0.000216385
0.00149049
0.000356817
0.00102023
0.000470263
0.00102666
-0.00204034
0.00507444
-0.00290846
0.00155235
-0.00369439
0.00144671
-0.00434554
0.00126535
-0.00488291
0.00105882
-0.00531173
0.000840757
-0.00563019
0.000609619
-0.00583148
0.000358589
-0.0059049
7.95601e-05
-0.00584267
-0.000233226
-0.00563902
-0.000581679
-0.00528266
-0.000972372
-0.00477244
-0.00143433
-0.00428637
-0.00196452
-0.00470188
-0.00216091
-0.00311574
-0.0015807
-0.0016328
-0.00147725
-0.00161796
0.00131812
-0.0012391
0.00166206
-0.00118731
0.00191289
-0.000902918
0.00210306
-0.000589023
0.00220947
-0.000327526
0.00221809
-0.000112836
0.0022201
-4.94775e-05
0.00222178
-2.46541e-05
0.00222282
-1.08372e-05
0.00222286
-9.07323e-07
0.0022215
8.49438e-06
0.00221728
2.32798e-05
0.00220462
5.6916e-05
0.00214269
0.000164577
0.00189303
0.000466049
0.00146395
0.000785891
0.000901691
0.00103252
0.00194524
-0.00148821
0.00682058
-0.00235907
0.00242321
-0.0031291
0.00221675
-0.00371341
0.00184966
-0.00418416
0.00152957
-0.00455566
0.00121225
-0.00482967
0.000883633
-0.00500295
0.000531868
-0.00506909
0.000145699
-0.00501904
-0.000283279
-0.00484209
-0.000758625
-0.00453087
-0.00128359
-0.00411624
-0.00184896
-0.00371887
-0.00236188
-0.00329868
-0.0025811
-0.00236772
-0.00251166
-0.00127421
-0.00257075
-0.00287933
0.00114975
-0.00237439
0.00165302
-0.00169058
0.00195091
-0.00120081
0.00214286
-0.000780975
0.00217129
-0.000355951
0.00205861
0.00200928
0.00198478
0.0019741
0.00197335
0.001982
0.00200543
0.0020625
0.00222723
0.00186809
0.000825186
0.00141998
0.001234
0.000801821
0.00165068
0.0027731
-0.001106
0.00825779
-0.00192785
0.00324506
-0.0025699
0.00285879
-0.00303028
0.00231004
-0.00339787
0.00189716
-0.0036867
0.00150108
-0.00389974
0.00109668
-0.00403513
0.000667254
-0.00408532
0.000195895
-0.00403714
-0.000331457
-0.00387835
-0.000917422
-0.00360488
-0.00155706
-0.0032394
-0.00221445
-0.00281775
-0.00278352
-0.00227872
-0.00312013
-0.00155947
-0.0032309
-0.000871534
-0.00325869
-0.000691682
-0.00305918
0.00144424
-0.00212047
0.00137563
-0.00230577
0.00169092
-0.00200587
0.00200331
-0.00151319
0.00226954
-0.00104721
0.00254623
-0.000632639
0.00285879
-0.000312715
0.00302531
-0.000166673
0.00308986
-6.47005e-05
0.00307286
1.68382e-05
0.00298302
8.96915e-05
0.00282118
0.000161686
0.00257937
0.000241655
0.00223454
0.000344676
0.0017294
0.000504988
0.00159256
0.000962028
0.00126438
0.00156218
0.000738023
0.00217704
0.00354544
-0.000803693
0.00945468
-0.00157976
0.00402113
-0.00204837
0.00332741
-0.00236408
0.00262575
-0.00260849
0.00214157
-0.00279408
0.00168667
-0.00292584
0.00122844
-0.00300446
0.000745877
-0.00302336
0.000214799
-0.00296591
-0.000388914
-0.00281885
-0.00106447
-0.00257531
-0.00180059
-0.00224192
-0.00254784
-0.00182586
-0.00319959
-0.00132091
-0.00362508
-0.000744751
-0.00380706
-0.000213777
-0.00378966
0.00026353
-0.00353649
0.00112428
-0.00298122
0.00148953
-0.00267102
0.00174798
-0.00226432
0.00200014
-0.00176536
0.00222987
-0.00127694
0.00244402
-0.000846784
0.00264468
-0.000513376
0.0027545
-0.000276496
0.00279079
-0.00010099
0.00276521
4.24157e-05
0.00268411
0.000170795
0.00254987
0.000295926
0.00236116
0.000430368
0.00211542
0.000590416
0.00182056
0.000799847
0.00161373
0.00116886
0.00147064
0.00170527
0.00128882
0.00235886
0.00227282
0.00256144
0.00132235
0.000985385
0.00191179
-0.000560919
0.00203042
-0.00057575
0.0104768
-0.00132456
0.00476993
-0.00158408
0.00358693
-0.00174997
0.00279164
-0.00186402
0.00225561
-0.00193563
0.00175828
-0.00197124
0.00126405
-0.00197512
0.000749759
-0.00194408
0.00018376
-0.00185629
-0.000476707
-0.00170192
-0.00121884
-0.00147106
-0.00203146
-0.00116663
-0.00285227
-0.000794562
-0.00357166
-0.000374942
-0.00404471
6.52249e-05
-0.00424723
0.000470305
-0.00419474
0.000844511
-0.00391069
0.00129512
-0.00343182
0.00159335
-0.00296925
0.00179612
-0.00246709
0.00196716
-0.0019364
0.00211854
-0.00142832
0.00225282
-0.000981071
0.00235748
-0.00061803
0.0024156
-0.000334617
0.00242694
-0.000112329
0.0023967
7.26506e-05
0.00232963
0.000237873
0.00222939
0.000396166
0.00209983
0.000559922
0.00194771
0.000742539
0.00178709
0.000960465
0.00169386
0.00126208
0.00174684
0.00165229
0.00195226
0.00215344
0.00218984
0.00232385
0.00170757
0.00146766
0.000787375
0.000359274
0.00291524
-0.00054329
0.0115123
-0.00124336
0.00547001
-0.00119153
0.0035351
-0.00119988
0.00279999
-0.00119233
0.00224807
-0.00115906
0.00172501
-0.00110221
0.00120719
-0.00102746
0.000675005
-0.000929478
8.57801e-05
-0.000780873
-0.000625312
-0.00059187
-0.00140784
-0.000351871
-0.00227146
-6.79882e-05
-0.00313615
0.000237104
-0.00387675
0.000547353
-0.00435496
0.000842671
-0.00454255
0.00110562
-0.00445769
0.00133878
-0.00414385
0.00157014
-0.00366319
0.00172921
-0.00312832
0.00182848
-0.00256636
0.00189793
-0.00200585
0.00195326
-0.00148364
0.00199961
-0.00102742
0.00203171
-0.000650132
0.0020439
-0.000346803
0.00203282
-0.000101248
0.00199921
0.000106255
0.00194609
0.000290993
0.00187708
0.000465178
0.00179709
0.000639907
0.00171421
0.00082542
0.00164277
0.0010319
0.00162512
0.00127974
0.00170504
0.00157237
0.00190407
0.00195441
0.00214641
0.00208151
0.00216608
0.001448
0.00162562
0.000899733
0.00464343
-0.000483456
0.0125313
-0.00105126
0.00603781
-0.000696973
0.00318081
-0.000636143
0.00273916
-0.000567888
0.00217981
-0.000463474
0.0016206
-0.000334865
0.00107858
-0.000184224
0.000524364
4.4928e-06
-0.000102937
0.00022221
-0.000843029
0.000461639
-0.00164727
0.000719371
-0.00252919
0.000976696
-0.00339348
0.00120601
-0.00410607
0.00140605
-0.00455501
0.00156783
-0.00470434
0.00168597
-0.00457584
0.00176521
-0.00422309
0.001818
-0.00371598
0.00182758
-0.0031379
0.00180225
-0.00254103
0.00176103
-0.00196463
0.00171883
-0.00144145
0.00168315
-0.000991741
0.00165404
-0.000621018
0.0016277
-0.000320465
0.00159941
-7.29613e-05
0.001567
0.000138671
0.00153067
0.000327323
0.00149165
0.000504195
0.00145285
0.000678706
0.00141997
0.000858298
0.00140293
0.00104894
0.00142336
0.00125931
0.00150632
0.00148941
0.00169749
0.00176325
0.00195587
0.00182313
0.00208919
0.00131469
0.00170451
0.00128442
0.00671252
0.00297746
0.010141
0.00202194
0.00699333
0.000868825
0.00433393
0.000370608
0.00323738
0.000213813
0.00233661
0.000270058
0.00156435
0.000423547
0.000925095
0.000636855
0.000311057
0.00089556
-0.000361642
0.00115975
-0.00110722
0.00143792
-0.00192543
0.00170506
-0.00279634
0.00193178
-0.0036202
0.00209363
-0.00426793
0.0021845
-0.00464588
0.00220683
-0.00472669
0.00216936
-0.00453837
0.00208571
-0.00413945
0.00197116
-0.00360144
0.00183138
-0.00299812
0.00167858
-0.00238822
0.00152963
-0.00181567
0.00139918
-0.001311
0.0012955
-0.000888062
0.00122002
-0.000545531
0.00116818
-0.000268628
0.00113293
-3.77138e-05
0.00110911
0.00016249
0.00109331
0.000343124
0.00108331
0.000514193
0.00107904
0.000682978
0.00108286
0.000854483
0.00109956
0.00103223
0.00113868
0.00122019
0.00121067
0.00141743
0.00134274
0.00163117
0.00150592
0.00165996
0.00154898
0.00127164
0.000209518
0.00262394
0.00730587
0.00403116
0.0062501
0.00366711
0.00735738
0.00254156
0.00545948
0.00188836
0.00389058
0.00153186
0.00269311
0.00138699
0.00170922
0.00142055
0.000891536
0.00159442
0.000137179
0.00184579
-0.000613007
0.00212225
-0.00138369
0.00240162
-0.00220481
0.00264675
-0.00304146
0.00281595
-0.0037894
0.00288208
-0.00433407
0.00284168
-0.00460548
0.00270838
-0.0045934
0.00250441
-0.00433441
0.00225405
-0.00388909
0.00198007
-0.00332746
0.00169961
-0.00271766
0.00142985
-0.00211847
0.00118856
-0.00157438
0.00099049
-0.00111293
0.000841977
-0.000739549
0.000742335
-0.000445889
0.000683214
-0.000209507
0.000654014
-8.51381e-06
0.000646104
0.0001704
0.000652667
0.00033656
0.000668984
0.000497876
0.000692843
0.000659119
0.000723749
0.000823577
0.000761557
0.000994426
0.000805009
0.00117674
0.000841619
0.00138082
0.000818863
0.00165392
0.000418315
0.0020605
-0.00129996
0.00299017
-0.00276781
0.00409205
0.0046413
0.00240907
0.00400555
0.00330387
0.00646259
0.00324789
0.00551547
0.00303721
0.00410126
0.0028462
0.00288411
0.00272281
0.00183262
0.00270862
0.000905729
0.00279704
4.87562e-05
0.00295823
-0.0007742
0.00316819
-0.00159365
0.00338533
-0.00242195
0.00354975
-0.00320587
0.00360664
-0.0038463
0.00352925
-0.00425668
0.00332284
-0.00439908
0.00301347
-0.00428405
0.00263553
-0.00395647
0.00222242
-0.00347598
0.00180372
-0.00290877
0.00140296
-0.0023169
0.00104157
-0.00175708
0.00073865
-0.00127146
0.00050819
-0.000882472
0.000348853
-0.000580212
0.000252793
-0.00034983
0.000204329
-0.000161043
0.000190302
5.51237e-06
0.000200347
0.000160354
0.000226352
0.000310556
0.000263525
0.000460702
0.000309025
0.00061362
0.000360879
0.000771723
0.000416525
0.000938781
0.000472254
0.00112101
0.000513668
0.0013394
0.000485829
0.00168175
0.000243505
0.00230272
-8.13423e-05
0.00331493
-0.00029561
0.00430642
0.00445926
0.00145617
0.00274363
0.0027474
0.00517136
0.00343186
0.004831
0.00371836
0.00381476
0.00381707
0.00278539
0.00384508
0.00180461
0.0038807
0.000870109
0.0039491
-1.9642e-05
0.00405828
-0.000883384
0.0041976
-0.00173296
0.00431586
-0.00254021
0.00434251
-0.00323251
0.00422592
-0.00372971
0.00395381
-0.00398457
0.00354863
-0.00399391
0.00305025
-0.00378567
0.00250269
-0.00340891
0.00194473
-0.00291802
0.00141046
-0.0023745
0.000926241
-0.00183269
0.000518604
-0.00134945
0.000204797
-0.000957657
-9.49341e-06
-0.000668181
-0.000139737
-0.000449968
-0.000209348
-0.00028022
-0.000238414
-0.000131977
-0.000238423
5.5202e-06
-0.000216802
0.000138733
-0.00017879
0.000272544
-0.000128135
0.000410047
-6.80389e-05
0.000553524
-1.63059e-06
0.000705315
6.75851e-05
0.000869566
0.000137031
0.00105157
0.000195973
0.00128046
0.000169516
0.00170814
6.23988e-05
0.0024095
0.000378095
0.00299881
0.0005858
0.00409845
0.00516672
0.00216785
0.000801735
0.00294088
0.00439833
0.00359321
0.00417867
0.0041647
0.00324328
0.00449318
0.00245691
0.00466765
0.00163014
0.00478407
0.000753691
0.00488775
-0.000123329
0.00499272
-0.000988352
0.0050695
-0.00180973
0.00505274
-0.00252344
0.0048823
-0.00306205
0.00453556
-0.00338296
0.00403146
-0.00348047
0.00341518
-0.00337763
0.0027379
-0.00310839
0.00204856
-0.00271958
0.00138535
-0.00225482
0.000787146
-0.00177629
0.000279237
-0.00132478
-0.000102911
-0.000967297
-0.000355954
-0.000704613
-0.000507095
-0.00051704
-0.000591536
-0.000365528
-0.000636178
-0.00023558
-0.000651892
-0.000116264
-0.000644243
-2.1296e-06
-0.000616673
0.000111162
-0.000571852
0.000227722
-0.000513121
0.000351315
-0.000444936
0.000485339
-0.000373477
0.000633856
-0.000307279
0.000803369
-0.000262095
0.00100639
-0.000276328
0.0012947
-0.000413896
0.00184563
-0.000609678
0.00260491
-0.000622186
0.00301069
-0.000506264
0.00398192
0.0047971
-0.00157456
0.00262143
0.00111937
0.00170439
0.00335145
0.00194659
0.00435543
0.0022393
0.00486054
0.0019518
0.00517543
0.00131525
0.00540272
0.000526395
0.00557894
-0.000299536
0.00567637
-0.00108577
0.00563327
-0.00176662
0.00539871
-0.00228886
0.00496079
-0.00262411
0.00434731
-0.00276947
0.00361158
-0.00274472
0.00281449
-0.00258055
0.00200701
-0.00230091
0.00123832
-0.00195089
0.000539697
-0.0015562
-4.16959e-05
-0.0011949
-0.000466294
-0.000900178
-0.000734058
-0.000699527
-0.000892008
-0.000546659
-0.000986953
-0.000422096
-0.00104216
-0.000310323
-0.00107092
-0.000206823
-0.00107795
-0.000109241
-0.0010649
-1.51808e-05
-0.00103254
7.8799e-05
-0.000982086
0.000177264
-0.000916746
0.000285975
-0.000842417
0.00041101
-0.000768913
0.000560352
-0.000713131
0.00074759
-0.000707874
0.00100116
-0.00080726
0.00139419
-0.00104816
0.00208674
-0.00156124
0.0031181
-0.00257528
0.00402463
-0.00274906
0.00415547
0.00220046
0.00288317
0.00457238
0.00487323
0.00164574
0.00536156
0.00175096
0.00559936
0.001714
0.00583049
0.00108411
0.0060161
0.000340788
0.00608042
-0.000363847
0.0059525
-0.000957824
0.00559872
-0.0014128
0.00503129
-0.0017214
0.00429706
-0.00188986
0.00345457
-0.00192696
0.00256375
-0.00185389
0.00168128
-0.00169806
0.000842119
-0.00146174
9.0361e-05
-0.00119913
-0.00051568
-0.000950149
-0.000938625
-0.000771943
-0.00119995
-0.00063884
-0.00136049
-0.000538969
-0.00145855
-0.000448604
-0.00152084
-0.000359815
-0.00155915
-0.000272024
-0.00157818
-0.000187809
-0.00157891
-0.000108527
-0.00156096
-3.31316e-05
-0.00152391
4.17464e-05
-0.00146797
0.000121323
-0.00139502
0.000213029
-0.0013098
0.000325784
-0.00122057
0.000471117
-0.00114018
0.000667188
-0.00108801
0.000949007
-0.00108397
0.0013903
-0.00110656
0.00210969
-0.00116701
0.00317907
-0.00161071
0.00446878
-0.00175478
0.0043
0.00061217
0.00793555
0.00535898
0.0058173
0.00386915
0.00556928
0.00196193
0.0056397
0.00101363
0.0056033
0.000377161
0.00535958
-0.000120125
0.00489561
-0.000493833
0.00425086
-0.000768019
0.00347871
-0.000949226
0.00263283
-0.00104396
0.00175559
-0.00104971
0.000887044
-0.000985327
6.55023e-05
-0.000876509
-0.000646419
-0.000749812
-0.00119166
-0.000653867
-0.00156397
-0.000577814
-0.00180691
-0.000528971
-0.0019592
-0.000486519
-0.00206053
-0.000437628
-0.00213198
-0.000377163
-0.00218328
-0.000308538
-0.00221781
-0.000237541
-0.00223643
-0.000169238
-0.00223877
-0.000106217
-0.00222373
-4.81903e-05
-0.00219012
8.13736e-06
-0.0021361
6.73202e-05
-0.00205951
0.000136447
-0.00195834
0.000224623
-0.00183119
0.000343934
-0.00167761
0.000513536
-0.00149476
0.000766086
-0.00126251
0.00115804
-0.000922937
0.00177031
-0.000394612
0.00265119
0.000294914
0.00377967
0.000904357
0.00369106
0.00168674
0.00410349
0.00150204
0.00450385
0.00346874
0.00373287
0.00273285
0.00323213
0.00151432
0.00288956
0.00071972
0.00252504
0.000244412
0.00207745
-4.62366e-05
0.00153322
-0.000223778
0.000911704
-0.000327707
0.000231994
-0.000364241
-0.000463951
-0.000353755
-0.00111268
-0.000336585
-0.0016608
-0.000328379
-0.0020749
-0.000335677
-0.00236622
-0.000362504
-0.00255613
-0.000387841
-0.00268603
-0.000399024
-0.00278511
-0.000387404
-0.00286856
-0.000354187
-0.0029403
-0.000305473
-0.0029998
-0.000249112
-0.00304552
-0.000191913
-0.00307643
-0.000138422
-0.003092
-9.07076e-05
-0.00309156
-4.8644e-05
-0.00307238
-1.10124e-05
-0.00302959
2.45886e-05
-0.00295566
6.2581e-05
-0.00284004
0.00010903
-0.00267026
0.000174127
-0.00243304
0.000276211
-0.00211084
0.000443694
-0.00166471
0.000711697
-0.00101886
0.0011243
-0.000116517
0.00174887
0.00094921
0.00271417
0.00150779
0.00313278
0.00337224
-0.00261447
-0.00677878
-0.0074094
-0.00746416
-0.00374878
-0.0021585
-0.0016743
0.00139425
-0.000760621
0.00181914
-0.000559535
0.00131321
-0.000636969
0.000797137
-0.000822755
0.000430179
-0.00106604
0.000197035
-0.00135934
6.95027e-05
-0.00170561
1.85406e-05
-0.00208074
1.08711e-05
-0.00245008
1.557e-05
-0.00278819
1.54123e-06
-0.00306367
-5.28552e-05
-0.00324921
-0.000150062
-0.00336585
-0.000245784
-0.00344839
-0.000305222
-0.00352524
-0.000322119
-0.00360729
-0.000305353
-0.00369465
-0.000266885
-0.00378302
-0.000217216
-0.00386709
-0.000165183
-0.0039414
-0.00011776
-0.00400066
-7.92929e-05
-0.00404058
-5.08683e-05
-0.00405841
-3.08193e-05
-0.00405363
-1.57263e-05
-0.00402511
-3.80207e-06
-0.00396545
3.07418e-06
-0.00386012
3.84075e-06
-0.00368698
1.05614e-06
-0.00341758
6.79463e-06
-0.00301949
4.54648e-05
-0.00244827
0.000140214
-0.00162308
0.000298749
-0.000484429
0.000609862
0.000835804
0.00139376
0.00131341
0.00265511
0.00486953
-0.00736115
0.00103588
-0.00812644
-0.00669884
-0.00717712
-0.00310779
-0.0056562
-0.000126655
-0.00456347
0.000726389
-0.00397119
0.000720877
-0.00371072
0.000536606
-0.00364249
0.000361891
-0.00368324
0.000237717
-0.00377726
0.000163466
-0.00388272
0.000123972
-0.00397119
9.93313e-05
-0.00402782
7.22148e-05
-0.00405806
3.18388e-05
-0.00408198
-2.88428e-05
-0.00411957
-0.000112364
-0.00418055
-0.000184707
-0.0042642
-0.000221499
-0.00436291
-0.000223396
-0.00446608
-0.000202232
-0.00456407
-0.000169018
-0.00465008
-0.000131381
-0.0047205
-9.49645e-05
-0.00477399
-6.44659e-05
-0.00481014
-4.32954e-05
-0.00482871
-3.23798e-05
-0.00482974
-2.97938e-05
-0.00481263
-3.27389e-05
-0.00477632
-3.99434e-05
-0.00471674
-5.62675e-05
-0.00462457
-8.80413e-05
-0.0044837
-0.000139498
-0.00427113
-0.00020548
-0.00396165
-0.00026377
-0.0035359
-0.000285418
-0.0029511
-0.000286116
-0.0019633
-0.00037821
-0.000147149
-0.000422788
0.000810667
0.00169702
0.00587153
0.00157749
-0.00505689
-0.00810185
-0.00816945
-0.00738908
-0.00662195
-0.00604569
-0.00564879
-0.00537899
-0.00518503
-0.00503114
-0.00490172
-0.00479877
-0.00473539
-0.00473216
-0.0048124
-0.00496526
-0.00515536
-0.00534781
-0.00551946
-0.00565813
-0.00575926
-0.00582399
-0.00585821
-0.00587126
-0.00587351
-0.00587343
-0.00587675
-0.00588792
-0.00591629
-0.00597753
-0.00609152
-0.00627301
-0.00651445
-0.00677925
-0.00704634
-0.00740686
-0.00781298
-0.00610004
)
;

boundaryField
{
    floor
    {
        type            calculated;
        value           nonuniform List<scalar> 
36
(
0
0
0
0
0
0
0
0
0
0
0
0
0
0
0
0
0
0
0
-6.43924e-06
-1.68857e-05
-2.60349e-05
-3.43143e-05
-3.49201e-05
-2.85194e-05
-2.85775e-05
-2.92027e-06
-5.4422e-06
-5.68851e-06
-5.90875e-06
-4.85386e-06
-8.9399e-06
-1.02118e-05
-1.28346e-05
-1.44565e-05
-1.5445e-05
)
;
    }
    ceiling
    {
        type            calculated;
        value           nonuniform List<scalar> 
43
(
-5.78092e-05
-6.44516e-05
-6.28456e-05
-5.90919e-05
-5.40444e-05
-4.63319e-05
-3.97584e-05
-3.51112e-05
-3.21774e-05
-3.05703e-05
-2.99522e-05
-3.00767e-05
-3.06951e-05
-3.14616e-05
-3.19696e-05
-3.20212e-05
-3.17659e-05
-3.13687e-05
-3.09754e-05
-3.06744e-05
-3.04949e-05
-3.04204e-05
-3.04074e-05
-3.04003e-05
-3.03397e-05
-3.01685e-05
-2.9838e-05
-2.93145e-05
-2.85823e-05
-2.76393e-05
-2.64906e-05
-2.51486e-05
-2.36438e-05
-2.20474e-05
-2.04815e-05
-1.90852e-05
-1.79418e-05
-1.70409e-05
-1.63386e-05
-1.68459e-05
1.93415e-05
1.51858e-05
-0.000246563
)
;
    }
    sWall
    {
        type            calculated;
        value           nonuniform List<scalar> 9(-0.000140239 -0.000164522 -0.000194248 -0.000225956 -0.000245138 -0.000281075 -0.00042362 -0.000453467 -0.000483777);
    }
    nWall
    {
        type            calculated;
        value           nonuniform List<scalar> 
14
(
-9.00556e-05
-9.74536e-05
-0.000102571
-0.000103243
-0.000113549
-0.000121884
-0.000136847
-0.000152529
-0.000165989
-0.000169811
-0.000177511
-0.000183938
-0.000191572
-0.000211994
)
;
    }
    sideWalls
    {
        type            empty;
        value           nonuniform 0();
    }
    glass1
    {
        type            calculated;
        value           nonuniform List<scalar> 9(-6.40347e-05 -0.000170322 -0.000257926 -0.000331212 -0.000393198 -0.000446406 -0.000492219 -0.0005355 -0.000587179);
    }
    glass2
    {
        type            calculated;
        value           nonuniform List<scalar> 2(-0.000364613 -0.000383884);
    }
    sun
    {
        type            calculated;
        value           uniform 0;
    }
    Table_master
    {
        type            calculated;
        value           nonuniform List<scalar> 9(-1.53994e-07 -1.54111e-07 -1.54143e-07 -1.54163e-07 -1.54176e-07 -1.54181e-07 -1.54179e-07 -1.54165e-07 -1.54112e-07);
    }
    Table_slave
    {
        type            calculated;
        value           nonuniform List<scalar> 9(1.53663e-07 1.53719e-07 1.53719e-07 1.53735e-07 1.53756e-07 1.538e-07 1.53867e-07 1.53961e-07 1.54088e-07);
    }
    inlet
    {
        type            calculated;
        value           uniform -0.0116488;
    }
    outlet
    {
        type            calculated;
        value           nonuniform List<scalar> 2(0.00981694 0.0122592);
    }
}


// ************************************************************************* //
