/*--------------------------------*- C++ -*----------------------------------*\
  =========                 |
  \\      /  F ield         | OpenFOAM: The Open Source CFD Toolbox
   \\    /   O peration     | Website:  https://openfoam.org
    \\  /    A nd           | Version:  6
     \\/     M anipulation  |
\*---------------------------------------------------------------------------*/
FoamFile
{
    version     2.0;
    format      ascii;
    class       volScalarField;
    location    "38199.9999987952397";
    object      T;
}
// * * * * * * * * * * * * * * * * * * * * * * * * * * * * * * * * * * * * * //

dimensions      [0 0 0 1 0 0 0];

internalField   nonuniform List<scalar> 
778
(
302.565
302.246
302.23
302.225
302.221
302.216
302.212
302.207
302.202
302.198
302.191
302.184
302.175
302.164
302.154
302.223
302.094
302.086
302.085
302.087
302.091
302.095
302.1
302.105
302.11
302.115
302.12
302.125
302.13
302.135
302.142
302.15
302.182
302.778
302.277
302.245
302.244
302.245
302.245
302.245
302.243
302.239
302.234
302.225
302.211
302.192
302.166
302.138
302.119
302.105
302.101
302.082
302.063
302.056
302.053
302.053
302.054
302.056
302.057
302.059
302.061
302.063
302.065
302.068
302.072
302.079
302.09
302.106
302.158
302.994
302.324
302.272
302.278
302.289
302.299
302.307
302.313
302.315
302.313
302.304
302.285
302.254
302.213
302.167
302.127
302.095
302.075
302.048
302.041
302.039
302.039
302.04
302.041
302.042
302.044
302.045
302.046
302.047
302.048
302.05
302.052
302.057
302.067
302.084
302.145
303.204
302.385
302.303
302.315
302.336
302.358
302.378
302.395
302.407
302.411
302.403
302.379
302.335
302.274
302.207
302.146
302.097
302.062
302.047
302.036
302.032
302.032
302.033
302.034
302.035
302.035
302.036
302.036
302.036
302.037
302.037
302.037
302.037
302.043
302.053
302.071
302.137
303.405
302.459
302.335
302.349
302.38
302.414
302.448
302.479
302.503
302.517
302.513
302.485
302.426
302.341
302.248
302.164
302.099
302.057
302.036
302.028
302.027
302.028
302.031
302.034
302.036
302.037
302.038
302.039
302.039
302.039
302.039
302.038
302.038
302.039
302.045
302.061
302.114
302.125
302.138
302.235
303.594
302.544
302.372
302.377
302.415
302.458
302.503
302.547
302.587
302.613
302.617
302.587
302.512
302.4
302.28
302.174
302.095
302.05
302.028
302.021
302.022
302.027
302.032
302.036
302.04
302.042
302.043
302.043
302.043
302.043
302.042
302.041
302.04
302.039
302.042
302.052
302.086
302.098
302.113
302.248
303.757
302.639
302.42
302.401
302.439
302.485
302.535
302.585
302.635
302.675
302.692
302.664
302.575
302.436
302.292
302.171
302.087
302.038
302.017
302.014
302.02
302.028
302.036
302.042
302.046
302.048
302.049
302.049
302.048
302.047
302.045
302.044
302.042
302.04
302.04
302.047
302.067
302.079
302.096
302.229
303.91
302.783
302.516
302.436
302.457
302.499
302.545
302.592
302.642
302.701
302.732
302.7
302.596
302.444
302.285
302.153
302.065
302.018
302.003
302.007
302.019
302.033
302.044
302.051
302.055
302.057
302.056
302.055
302.053
302.051
302.049
302.046
302.043
302.041
302.04
302.043
302.055
302.068
302.109
302.409
304.118
303.232
302.843
302.588
302.504
302.516
302.552
302.593
302.65
302.719
302.754
302.712
302.588
302.416
302.245
302.111
302.028
301.992
301.989
302.004
302.024
302.042
302.055
302.063
302.066
302.066
302.064
302.061
302.058
302.055
302.051
302.048
302.045
302.042
302.04
302.042
302.05
302.074
302.163
302.574
304.103
303.535
303.162
302.862
302.686
302.617
302.609
302.633
302.703
302.773
302.786
302.707
302.545
302.348
302.17
302.044
301.978
301.963
301.978
302.007
302.036
302.058
302.071
302.076
302.076
302.074
302.07
302.065
302.061
302.056
302.052
302.049
302.045
302.042
302.041
302.042
302.056
302.173
302.344
302.577
304.107
303.67
303.355
303.095
302.915
302.815
302.778
302.787
302.836
302.865
302.815
302.665
302.449
302.23
302.059
301.958
301.925
301.94
301.978
302.021
302.057
302.079
302.088
302.089
302.085
302.079
302.073
302.067
302.062
302.057
302.053
302.049
302.045
302.043
302.042
302.046
302.076
302.195
302.357
302.58
304.139
303.757
303.493
303.282
303.128
303.033
302.99
302.99
302.994
302.938
302.78
302.537
302.272
302.053
301.917
301.867
301.882
301.934
301.997
302.051
302.087
302.104
302.105
302.098
302.09
302.081
302.074
302.067
302.062
302.057
302.053
302.049
302.045
302.043
302.045
302.061
302.127
302.245
302.375
302.579
304.204
303.876
303.633
303.45
303.318
303.232
303.186
303.158
303.071
302.874
302.578
302.257
301.99
301.826
301.768
301.794
301.869
301.96
302.04
302.096
302.123
302.127
302.118
302.106
302.094
302.084
302.075
302.068
302.063
302.058
302.054
302.05
302.048
302.048
302.058
302.106
302.211
302.335
302.443
302.605
304.14
303.889
303.681
303.539
303.424
303.333
303.256
303.127
302.853
302.472
302.084
301.786
301.625
301.595
301.66
301.779
301.91
302.027
302.107
302.149
302.157
302.148
302.133
302.118
302.103
302.091
302.081
302.074
302.068
302.063
302.059
302.056
302.055
302.059
302.081
302.151
302.28
302.419
302.523
302.635
304.281
304.088
303.618
303.297
303.094
302.929
302.738
302.37
301.899
301.501
301.269
301.216
301.302
301.469
301.666
301.861
302.017
302.131
302.182
302.196
302.189
302.175
302.158
302.141
302.125
302.11
302.099
302.09
302.084
302.08
302.078
302.077
302.078
302.084
302.106
302.167
302.283
302.419
302.521
302.622
294.642
296.442
298.141
299.049
299.399
299.586
299.833
300.157
300.526
300.904
301.264
301.577
301.835
302.045
302.164
302.224
302.245
302.244
302.234
302.22
302.204
302.186
302.169
302.153
302.141
302.132
302.128
302.127
302.129
302.133
302.137
302.141
302.152
302.187
302.267
302.389
302.475
302.554
294.923
295.749
296.65
297.516
298.291
299.011
299.689
300.299
300.82
301.258
301.634
301.91
302.097
302.216
302.278
302.303
302.309
302.306
302.299
302.288
302.274
302.258
302.242
302.228
302.217
302.212
302.212
302.217
302.225
302.233
302.239
302.242
302.244
302.255
302.291
302.377
302.44
302.528
299.767
298.694
297.314
296.761
297.518
298.521
299.42
300.151
300.722
301.161
301.517
301.804
302.028
302.185
302.285
302.34
302.367
302.378
302.382
302.381
302.376
302.368
302.356
302.342
302.328
302.316
302.309
302.308
302.312
302.322
302.335
302.348
302.361
302.369
302.373
302.376
302.384
302.414
302.451
302.539
300.128
300.002
299.416
298.894
299.296
300.014
300.671
301.186
301.568
301.845
302.049
302.196
302.299
302.366
302.405
302.427
302.441
302.449
302.453
302.453
302.448
302.44
302.429
302.417
302.405
302.396
302.392
302.393
302.399
302.41
302.425
302.443
302.463
302.481
302.498
302.51
302.516
302.512
302.503
302.572
300.844
300.845
300.905
300.993
301.146
301.486
301.804
302.042
302.206
302.316
302.389
302.438
302.469
302.49
302.503
302.514
302.522
302.528
302.531
302.529
302.525
302.518
302.509
302.501
302.495
302.491
302.491
302.495
302.503
302.515
302.531
302.55
302.57
302.59
302.607
302.617
302.619
302.614
302.605
302.621
)
;

boundaryField
{
    floor
    {
        type            wallHeatTransfer;
        Tinf            uniform 305.2;
        alphaWall       uniform 0.36;
        value           nonuniform List<scalar> 
36
(
302.544
302.868
302.622
302.613
302.621
302.639
302.665
302.693
302.722
302.751
302.779
302.806
302.833
302.858
302.884
302.91
302.94
302.968
303.04
303.04
302.909
302.841
302.793
302.711
302.616
302.715
302.544
302.487
302.488
302.497
302.868
302.497
302.535
302.417
302.434
302.394
)
;
    }
    ceiling
    {
        type            wallHeatTransfer;
        Tinf            uniform 303.2;
        alphaWall       uniform 0.36;
        value           nonuniform List<scalar> 
43
(
301.031
301.056
301.112
301.188
301.324
301.638
301.934
302.156
302.311
302.415
302.486
302.535
302.569
302.592
302.607
302.618
302.625
302.63
302.631
302.629
302.624
302.616
302.608
302.6
302.594
302.589
302.588
302.59
302.595
302.604
302.616
302.631
302.646
302.661
302.673
302.678
302.677
302.668
302.657
302.674
304.19
304.016
295.883
)
;
    }
    sWall
    {
        type            wallHeatTransfer;
        Tinf            uniform 315.2;
        alphaWall       uniform 0.54;
        value           nonuniform List<scalar> 9(305.123 305.181 305.292 305.436 305.376 305.601 301.396 301.775 302.496);
    }
    nWall
    {
        type            wallHeatTransfer;
        Tinf            uniform 308.2;
        alphaWall       uniform 0.54;
        value           nonuniform List<scalar> 
14
(
303.577
303.437
303.292
303.313
303.309
303.294
303.344
303.398
303.391
303.288
303.251
303.248
303.272
303.356
)
;
    }
    sideWalls
    {
        type            empty;
    }
    glass1
    {
        type            wallHeatTransfer;
        Tinf            uniform 315.2;
        alphaWall       uniform 4.3;
        value           nonuniform List<scalar> 9(311.626 310.812 310.3 309.912 309.605 309.359 309.142 308.996 309.046);
    }
    glass2
    {
        type            wallHeatTransfer;
        Tinf            uniform 308.2;
        alphaWall       uniform 4.3;
        value           nonuniform List<scalar> 2(305.751 305.683);
    }
    sun
    {
        type            wallHeatTransfer;
        Tinf            uniform 305.2;
        alphaWall       uniform 0.36;
        value           nonuniform List<scalar> 
14
(
303.018
302.731
302.719
302.7
302.684
302.669
302.656
302.643
302.631
302.618
302.605
302.591
302.576
302.56
)
;
    }
    Table_master
    {
        type            zeroGradient;
    }
    Table_slave
    {
        type            zeroGradient;
    }
    inlet
    {
        type            fixedValue;
        value           uniform 293.15;
    }
    outlet
    {
        type            zeroGradient;
    }
}


// ************************************************************************* //
