/*--------------------------------*- C++ -*----------------------------------*\
  =========                 |
  \\      /  F ield         | OpenFOAM: The Open Source CFD Toolbox
   \\    /   O peration     | Website:  https://openfoam.org
    \\  /    A nd           | Version:  6
     \\/     M anipulation  |
\*---------------------------------------------------------------------------*/
FoamFile
{
    version     2.0;
    format      ascii;
    class       volScalarField;
    location    "250";
    object      alphat;
}
// * * * * * * * * * * * * * * * * * * * * * * * * * * * * * * * * * * * * * //

dimensions      [1 -1 -1 0 0 0 0];

internalField   nonuniform List<scalar> 
458
(
0.00132466
0.00145231
0.00149382
0.00156934
0.00163981
0.00170783
0.0017777
0.00184477
0.00189771
0.00192768
0.00192485
0.00188056
0.00178451
0.00150547
0.00121298
0.000604629
0.000712269
0.000820489
0.000868479
0.000858282
0.000800889
0.000737747
0.000681738
0.000633652
0.000592247
0.000556401
0.00052506
0.000497551
0.00047269
0.000449226
0.000425592
0.00040687
0.000370448
0.00175346
0.00414945
0.00390844
0.00450018
0.00510963
0.00572124
0.00623839
0.00667958
0.00711992
0.00751779
0.00782077
0.00797459
0.00793336
0.00748976
0.00562687
0.00159387
0.00133967
0.00108669
0.000592094
0.0014937
0.00225695
0.0028391
0.00299481
0.0021123
0.00176087
0.00152768
0.00135823
0.00122997
0.00112936
0.00104863
0.000972086
0.000892919
0.000818828
0.000757144
0.000883121
0.000457259
0.00210929
0.0056009
0.00479898
0.00576421
0.0062316
0.00656699
0.00682673
0.00709854
0.00745243
0.00787789
0.00833857
0.00875479
0.00906081
0.00902363
0.00834385
0.00677239
0.00496987
0.00131943
0.000890396
0.00164631
0.00252713
0.00338384
0.00358415
0.00108679
0.000942162
0.000823122
0.000727566
0.000651031
0.000589417
0.000539463
0.00049955
0.000469379
0.000525678
0.000622374
0.00103856
0.000524869
0.00244926
0.0070517
0.00475014
0.00598019
0.00623162
0.00623787
0.00626593
0.00641857
0.00671757
0.00716912
0.00774682
0.00831501
0.0087831
0.00895638
0.00880144
0.0082587
0.0069403
0.00373965
0.00150387
0.00187294
0.0026759
0.00372942
0.00466198
0.00470731
0.00124004
0.00112794
0.0010474
0.000984687
0.00093021
0.000880772
0.000832966
0.000782768
0.000725342
0.000671799
0.000670384
0.00121872
0.000593695
0.0027966
0.00896394
0.00501039
0.00573555
0.00605856
0.005881
0.00578815
0.00590905
0.00619293
0.00666985
0.00732325
0.00792842
0.00835696
0.0085365
0.00850337
0.00830857
0.00772958
0.00634179
0.0055991
0.00578242
0.00625515
0.00677804
0.00711601
0.00702405
0.00590872
0.00529966
0.00493025
0.00465095
0.00437314
0.00399203
0.00350022
0.00291884
0.00228805
0.0017029
0.00127317
0.00124664
0.000999322
0.000783649
0.000841566
0.000918256
0.00317017
0.011108
0.00672353
0.00548322
0.00587869
0.0059299
0.00568806
0.00579185
0.00604934
0.00653067
0.00717617
0.007792
0.00817854
0.00826777
0.00817112
0.00807619
0.00802626
0.0078895
0.00806987
0.00850758
0.00884293
0.0089656
0.0088468
0.00848636
0.00788662
0.00734587
0.00688979
0.00647043
0.00604957
0.00557942
0.00501321
0.00434465
0.00358382
0.00279476
0.00212447
0.00159798
0.00128276
0.00109697
0.00137825
0.000954258
0.00352679
0.0126584
0.00957783
0.00676976
0.00615126
0.00622837
0.00604817
0.00596721
0.00614258
0.00663083
0.00730792
0.00792669
0.00825599
0.00824461
0.00809501
0.00815664
0.00861374
0.00918797
0.00975455
0.0101406
0.0101922
0.00995373
0.00949647
0.00889323
0.00821899
0.00758364
0.00701507
0.00649904
0.00602319
0.00558846
0.00519637
0.00473858
0.0041659
0.00349348
0.00285318
0.00228751
0.00190566
0.00173484
0.001642
0.0011484
0.0036073
0.0114276
0.00992233
0.00865359
0.00777657
0.00712872
0.00643643
0.00613057
0.0063317
0.00693696
0.0076925
0.00828871
0.00850143
0.00836791
0.00827971
0.00876013
0.00958461
0.010122
0.0104545
0.0105156
0.0102326
0.00967603
0.00893323
0.0080932
0.00725916
0.00652757
0.0059226
0.00542745
0.00503171
0.00473785
0.00455082
0.00444684
0.00425278
0.00387482
0.00354368
0.00336814
0.0034424
0.00361594
0.0042326
0.00175955
0.00352515
0.00423183
0.00466606
0.00489536
0.00493203
0.00493421
0.00512461
0.00566733
0.00654319
0.00754507
0.00837945
0.0087936
0.00869376
0.00841084
0.0087131
0.00930158
0.00972862
0.00989508
0.00983663
0.00951969
0.00893513
0.0081325
0.00719541
0.00625048
0.00542544
0.00478381
0.0043061
0.00394852
0.00367639
0.003463
0.00328504
0.00312786
0.00300473
0.00290569
0.00283731
0.00279035
0.00270787
0.00255662
0.00238052
0.00164314
0.00144198
0.00255455
0.00371052
0.00489752
0.00616196
0.00743621
0.00849758
0.00913858
0.00924996
0.00887329
0.00834141
0.00809128
0.00834068
0.00855859
0.00855547
0.00834534
0.00792976
0.00729726
0.00648366
0.00558753
0.00473681
0.00403523
0.00352529
0.00318811
0.00297179
0.00283432
0.00274913
0.00270038
0.00268368
0.00269611
0.00271702
0.00273739
0.00274329
0.00270457
0.00257876
0.00236005
0.00208404
0.00133213
0.00239923
0.0051509
0.00718114
0.0086022
0.00950998
0.00968658
0.00948925
0.0087898
0.00775506
0.00684339
0.00636773
0.00621616
0.0061468
0.00599301
0.00573207
0.00534718
0.00482337
0.00419045
0.00353826
0.00297899
0.00257964
0.00233761
0.00221384
0.00216052
0.00215557
0.00218727
0.00224494
0.00232055
0.00241455
0.00252176
0.00263738
0.00275199
0.00284603
0.0028967
0.00285252
0.00282127
0.00269965
0.0013527
0.00253684
0.00260989
0.00267417
0.00298092
0.00281695
0.00250865
0.00219892
0.00196556
0.00177527
0.00158104
0.00139559
0.00122903
0.0011021
0.00101474
0.000953009
0.000903597
0.000857924
0.000812072
0.000766848
0.000727108
0.000698671
0.00068455
0.000683953
0.000694255
0.000713083
0.000738937
0.000770678
0.000807738
0.000850594
0.000900193
0.000955933
0.00101804
0.00108699
0.00116322
0.00124657
0.00134668
0.0013818
0.00134888
0.00125757
0.00116454
)
;

boundaryField
{
    floor
    {
        type            compressible::alphatWallFunction;
        Prt             0.85;
        value           nonuniform List<scalar> 
36
(
0.000171917
8.50522e-05
0.000100985
0.000116714
0.000123609
0.000122149
0.000113887
0.000104715
9.65001e-05
8.93821e-05
8.32001e-05
7.78051e-05
7.30529e-05
6.88525e-05
6.50314e-05
6.14017e-05
5.77214e-05
5.47874e-05
4.90293e-05
4.90286e-05
6.26469e-05
7.30239e-05
8.34178e-05
0.0001114
0.000119764
0.000130728
0.000171915
0.000223539
0.000189267
0.000154418
8.50512e-05
0.000154416
8.31742e-05
0.000186508
0.000126737
0.000211483
)
;
    }
    ceiling
    {
        type            compressible::alphatWallFunction;
        Prt             0.85;
        value           nonuniform List<scalar> 
43
(
0.000346034
0.000355295
0.000363424
0.000402018
0.000381534
0.000342616
0.000302991
0.000272737
0.000247773
0.000221984
0.000197026
0.00017429
0.000156728
0.000144505
0.000135796
0.000128776
0.000122247
0.000115651
0.0001091
0.000103305
9.91331e-05
9.7053e-05
9.6963e-05
9.84781e-05
0.000101242
0.000105023
0.000109644
0.000115011
0.000121182
0.000128277
0.000136197
0.000144957
0.000154611
0.000165203
0.000176692
0.000190378
0.000195152
0.000190679
0.000178203
0.00016539
0.000469625
0.000555512
0.000328392
)
;
    }
    sWall
    {
        type            compressible::alphatWallFunction;
        Prt             0.85;
        value           uniform 0.000344792;
    }
    nWall
    {
        type            compressible::alphatWallFunction;
        Prt             0.85;
        value           nonuniform List<scalar> 6(0.000130517 0.00013562 0.000162796 0.000188066 0.000190865 0.000165059);
    }
    sideWalls
    {
        type            empty;
    }
    glass1
    {
        type            compressible::alphatWallFunction;
        Prt             0.85;
        value           nonuniform List<scalar> 9(0.000182527 0.000239259 0.000285298 0.00032859 0.00037223 0.000418577 0.000462338 0.000472291 0.000462515);
    }
    glass2
    {
        type            compressible::alphatWallFunction;
        Prt             0.85;
        value           nonuniform List<scalar> 2(0.000243827 0.00022854);
    }
    sun
    {
        type            compressible::alphatWallFunction;
        Prt             0.85;
        value           nonuniform List<scalar> 
14
(
0.000187237
0.000204537
0.000210128
0.00022026
0.000229666
0.000238702
0.000247942
0.000256775
0.000263722
0.000267644
0.000267274
0.000261471
0.000248838
0.000211691
)
;
    }
    Table_master
    {
        type            compressible::alphatWallFunction;
        Prt             0.85;
        value           nonuniform List<scalar> 9(0.000154586 0.000134246 0.00011723 0.000103359 9.209e-05 8.29006e-05 7.5363e-05 6.9278e-05 6.46376e-05);
    }
    Table_slave
    {
        type            compressible::alphatWallFunction;
        Prt             0.85;
        value           nonuniform List<scalar> 9(0.000175803 0.000160318 0.000149082 0.000140265 0.000132552 0.000125507 0.00011865 0.000111399 0.000103035);
    }
    inlet
    {
        type            fixedValue;
        value           uniform 1.94e-05;
    }
    outlet
    {
        type            zeroGradient;
    }
}


// ************************************************************************* //
