/*--------------------------------*- C++ -*----------------------------------*\
  =========                 |
  \\      /  F ield         | OpenFOAM: The Open Source CFD Toolbox
   \\    /   O peration     | Website:  https://openfoam.org
    \\  /    A nd           | Version:  6
     \\/     M anipulation  |
\*---------------------------------------------------------------------------*/
FoamFile
{
    version     2.0;
    format      ascii;
    class       volScalarField;
    location    "250";
    object      k;
}
// * * * * * * * * * * * * * * * * * * * * * * * * * * * * * * * * * * * * * //

dimensions      [0 2 -2 0 0 0 0];

internalField   nonuniform List<scalar> 
458
(
0.00257231
0.00308646
0.00326511
0.0036035
0.00393433
0.00426737
0.00462354
0.00497881
0.00526837
0.00543572
0.0054195
0.00517287
0.00465819
0.00331578
0.002153
0.000535741
0.00074334
0.000986319
0.00110514
0.00107942
0.000939944
0.000797623
0.000681151
0.000588485
0.000514119
0.000453794
0.000404136
0.000362919
0.000327578
0.000295882
0.000265588
0.000242755
0.000201278
0.0045127
0.00824597
0.00488362
0.00519832
0.00565928
0.00621778
0.00686882
0.00760455
0.00834552
0.00891816
0.00915492
0.00896025
0.00835427
0.00717506
0.00552619
0.00371717
0.00262625
0.0017283
0.000513802
0.00114451
0.00162188
0.0018602
0.00189295
0.00160347
0.00129114
0.00104208
0.000854375
0.00071216
0.000602868
0.000517461
0.000447504
0.000388536
0.000344976
0.000318579
0.000498898
0.000306643
0.00653853
0.0145658
0.00575253
0.00559455
0.00591924
0.0064094
0.00705709
0.00785299
0.00866029
0.00930932
0.00967517
0.00966348
0.00924373
0.00831942
0.00709432
0.00578067
0.0046135
0.00254789
0.00116153
0.00164194
0.00200035
0.00223277
0.00225188
0.00173084
0.00130084
0.000992919
0.000775791
0.00062118
0.000509187
0.000426552
0.000365785
0.000322949
0.000299826
0.000302842
0.000746088
0.000404031
0.0088279
0.0233281
0.00689374
0.00556745
0.00568485
0.00610915
0.00680592
0.00772826
0.00857072
0.00924313
0.0096954
0.00978999
0.00941138
0.00860334
0.00755967
0.00653485
0.00552404
0.00409644
0.00331041
0.00294008
0.00289087
0.00296537
0.00299125
0.00285595
0.00225454
0.00186567
0.00160897
0.00142225
0.00126936
0.00113813
0.00101801
0.000899071
0.000772032
0.00056722
0.000442733
0.00106249
0.000516977
0.0115245
0.035192
0.0097257
0.00569131
0.00544592
0.00587791
0.00692171
0.00810481
0.00893285
0.00957736
0.0100507
0.0101082
0.00962887
0.00867398
0.00752112
0.00648162
0.00561401
0.00487181
0.00464847
0.00438614
0.00421497
0.00407067
0.0038524
0.00352008
0.00311588
0.00280211
0.00258085
0.00239447
0.00220587
0.00198817
0.00174127
0.0014745
0.00120046
0.000911618
0.000677701
0.000897829
0.000956461
0.000901463
0.0010403
0.00123853
0.0148269
0.0480575
0.0169252
0.00732568
0.00602696
0.00634112
0.00819003
0.00932554
0.00994204
0.0104568
0.0108416
0.0108099
0.0101299
0.00886609
0.00740185
0.00616277
0.00536545
0.0050251
0.00506024
0.00512764
0.00505459
0.00480019
0.00439472
0.00390606
0.00345898
0.00315902
0.00295717
0.00278062
0.00259188
0.0023681
0.0020996
0.00180442
0.00150123
0.00120227
0.000963123
0.000906128
0.000988181
0.00100873
0.00160209
0.00133716
0.0183704
0.056369
0.0293359
0.0148753
0.0109179
0.0104668
0.0113427
0.0114943
0.0115866
0.0118643
0.012109
0.011881
0.0108837
0.00920813
0.00736748
0.0059346
0.00522188
0.00517379
0.00541732
0.00553761
0.00536527
0.00495938
0.00442716
0.00388169
0.00344504
0.00317655
0.00301362
0.00288705
0.00276571
0.00263438
0.00246293
0.00223807
0.00198391
0.00171855
0.00151082
0.00141227
0.00148368
0.00170672
0.00224281
0.0019363
0.0192487
0.0565333
0.0390298
0.0288693
0.0225113
0.0189031
0.0160073
0.0143038
0.0137054
0.0137564
0.01381
0.0132239
0.0117029
0.00944183
0.0071898
0.00567529
0.00514136
0.0052086
0.00536889
0.00531388
0.00498307
0.00447888
0.00393586
0.0034601
0.00312242
0.00292913
0.00283293
0.00279562
0.0028049
0.00286039
0.00296008
0.00305813
0.00310614
0.00315364
0.00332609
0.00391247
0.00514046
0.00679486
0.0125365
0.00455099
0.0184226
0.0264952
0.0242949
0.0216245
0.0189722
0.0168232
0.0155061
0.0151966
0.01558
0.0160202
0.0158309
0.0144704
0.0119543
0.0087364
0.00625535
0.00513347
0.00477768
0.00471887
0.00463846
0.00439299
0.00400037
0.00353975
0.00309985
0.00275347
0.00253028
0.00241925
0.0023911
0.00242576
0.00251579
0.00265902
0.002853
0.00309699
0.00341084
0.00381875
0.00434427
0.00495553
0.00551416
0.00586401
0.00604154
0.00397348
0.00649354
0.0101974
0.0132677
0.0157629
0.0178484
0.0193359
0.0198346
0.0190915
0.0170109
0.0132989
0.00898613
0.00616291
0.0047341
0.00412256
0.00383847
0.00363787
0.00338676
0.0030508
0.00267327
0.00232137
0.00204324
0.0018567
0.00175872
0.0017354
0.00176926
0.00185007
0.00197465
0.00214505
0.00237143
0.00266831
0.00303437
0.0034697
0.00395018
0.00438907
0.00462764
0.00453841
0.004131
0.00261214
0.00816519
0.0220968
0.0263751
0.0271802
0.0262465
0.0232481
0.0192347
0.0148218
0.010552
0.00715394
0.00497387
0.00379318
0.00316004
0.00279915
0.00253819
0.0022915
0.00202652
0.00175544
0.00151554
0.00133983
0.00123943
0.00120645
0.00122687
0.0012858
0.0013785
0.00150533
0.00166882
0.00187428
0.00213128
0.00244883
0.0028369
0.00329634
0.00379985
0.00428531
0.00456307
0.0048259
0.00437676
0.00269323
0.00923731
0.00977433
0.0102615
0.0128473
0.0115321
0.00918416
0.00707787
0.00566572
0.00462705
0.00367282
0.00286322
0.00222136
0.00178665
0.00151485
0.00133631
0.00120143
0.00108312
0.000970495
0.000865437
0.000778066
0.000718378
0.000689602
0.000688363
0.00070922
0.000748173
0.000803373
0.00087384
0.000959871
0.0010644
0.00119212
0.00134428
0.0015246
0.00173809
0.00199043
0.00228592
0.00266791
0.00280908
0.00267702
0.00232694
0.00199602
)
;

boundaryField
{
    floor
    {
        type            kqRWallFunction;
        value           nonuniform List<scalar> 
36
(
0.002153
0.000535741
0.00074334
0.000986319
0.00110514
0.00107942
0.000939944
0.000797623
0.000681151
0.000588485
0.000514119
0.000453794
0.000404136
0.000362919
0.000327578
0.000295882
0.000265588
0.000242755
0.000201278
0.000201278
0.000306643
0.000404031
0.000516977
0.000901463
0.0010403
0.00123853
0.002153
0.00371717
0.00262625
0.0017283
0.000535741
0.0017283
0.000513802
0.00254789
0.00116153
0.00331041
)
;
    }
    ceiling
    {
        type            kqRWallFunction;
        value           nonuniform List<scalar> 
43
(
0.00923731
0.00977433
0.0102615
0.0128473
0.0115321
0.00918416
0.00707787
0.00566572
0.00462705
0.00367282
0.00286322
0.00222136
0.00178665
0.00151485
0.00133631
0.00120143
0.00108312
0.000970495
0.000865437
0.000778066
0.000718378
0.000689602
0.000688363
0.00070922
0.000748173
0.000803373
0.00087384
0.000959871
0.0010644
0.00119212
0.00134428
0.0015246
0.00173809
0.00199043
0.00228592
0.00266791
0.00280908
0.00267702
0.00232694
0.00199602
0.0184226
0.0264952
0.00816519
)
;
    }
    sWall
    {
        type            kqRWallFunction;
        value           uniform 0.00923731;
    }
    nWall
    {
        type            kqRWallFunction;
        value           nonuniform List<scalar> 6(0.00123853 0.00133716 0.0019363 0.00261214 0.00269323 0.00199602);
    }
    sideWalls
    {
        type            empty;
    }
    glass1
    {
        type            kqRWallFunction;
        value           nonuniform List<scalar> 9(0.00257231 0.0045127 0.00653853 0.0088279 0.0115245 0.0148269 0.0183704 0.0192487 0.0184226);
    }
    glass2
    {
        type            kqRWallFunction;
        value           nonuniform List<scalar> 2(0.00455099 0.00397348);
    }
    sun
    {
        type            kqRWallFunction;
        value           nonuniform List<scalar> 
14
(
0.00257231
0.00308646
0.00326511
0.0036035
0.00393433
0.00426737
0.00462354
0.00497881
0.00526837
0.00543572
0.0054195
0.00517287
0.00465819
0.00331578
)
;
    }
    Table_master
    {
        type            kqRWallFunction;
        value           nonuniform List<scalar> 9(0.00173084 0.00130084 0.000992919 0.000775791 0.00062118 0.000509187 0.000426552 0.000365785 0.000322949);
    }
    Table_slave
    {
        type            kqRWallFunction;
        value           nonuniform List<scalar> 9(0.00225454 0.00186567 0.00160897 0.00142225 0.00126936 0.00113813 0.00101801 0.000899071 0.000772032);
    }
    inlet
    {
        type            turbulentIntensityKineticEnergyInlet;
        intensity       0.05;
        value           uniform 0.000937501;
    }
    outlet
    {
        type            zeroGradient;
    }
}


// ************************************************************************* //
