/*--------------------------------*- C++ -*----------------------------------*\
  =========                 |
  \\      /  F ield         | OpenFOAM: The Open Source CFD Toolbox
   \\    /   O peration     | Website:  https://openfoam.org
    \\  /    A nd           | Version:  6
     \\/     M anipulation  |
\*---------------------------------------------------------------------------*/
FoamFile
{
    version     2.0;
    format      ascii;
    class       volScalarField;
    location    "250";
    object      T;
}
// * * * * * * * * * * * * * * * * * * * * * * * * * * * * * * * * * * * * * //

dimensions      [0 0 0 1 0 0 0];

internalField   nonuniform List<scalar> 
458
(
302.813
302.542
302.529
302.524
302.521
302.516
302.512
302.506
302.497
302.488
302.48
302.478
302.486
302.512
302.542
302.762
302.735
302.724
302.732
302.743
302.752
302.761
302.77
302.779
302.787
302.796
302.805
302.814
302.823
302.833
302.843
302.857
302.887
302.991
302.578
302.553
302.554
302.555
302.554
302.551
302.541
302.521
302.495
302.471
302.463
302.473
302.495
302.514
302.524
302.535
302.557
302.769
302.703
302.698
302.711
302.727
302.735
302.741
302.748
302.754
302.76
302.767
302.773
302.78
302.788
302.798
302.812
302.83
302.874
303.182
302.625
302.586
302.596
302.609
302.619
302.621
302.609
302.572
302.518
302.47
302.451
302.463
302.49
302.51
302.522
302.531
302.55
302.712
302.681
302.685
302.708
302.736
302.739
302.744
302.749
302.754
302.76
302.766
302.773
302.779
302.786
302.797
302.809
302.827
302.872
303.377
302.685
302.622
302.641
302.673
302.701
302.718
302.704
302.642
302.549
302.469
302.438
302.454
302.489
302.519
302.535
302.543
302.551
302.562
302.587
302.627
302.676
302.727
302.772
302.809
302.836
302.859
302.879
302.896
302.91
302.923
302.935
302.943
302.907
302.872
302.853
302.878
303.571
302.762
302.66
302.678
302.725
302.778
302.821
302.805
302.709
302.574
302.463
302.425
302.446
302.494
302.539
302.566
302.575
302.583
302.602
302.637
302.686
302.742
302.799
302.85
302.895
302.929
302.956
302.978
302.995
303.005
303.009
303.008
303
302.972
302.928
302.889
302.886
302.998
303.094
303.092
303.748
302.863
302.72
302.714
302.759
302.826
302.905
302.873
302.739
302.574
302.45
302.408
302.44
302.509
302.577
302.62
302.639
302.655
302.685
302.729
302.783
302.842
302.898
302.947
302.988
303.02
303.045
303.063
303.075
303.079
303.076
303.066
303.049
303.021
302.979
302.933
302.911
302.958
302.996
303.041
303.907
303.027
302.87
302.832
302.851
302.91
302.969
302.895
302.719
302.527
302.401
302.377
302.44
302.544
302.641
302.705
302.742
302.767
302.804
302.851
302.904
302.957
303.006
303.048
303.081
303.106
303.123
303.135
303.14
303.139
303.129
303.113
303.092
303.063
303.026
302.983
302.955
302.963
302.98
303.012
304.137
303.48
303.299
303.181
303.13
303.145
303.068
302.86
302.6
302.393
302.302
302.34
302.465
302.619
302.747
302.827
302.872
302.9
302.938
302.984
303.029
303.072
303.108
303.137
303.159
303.173
303.182
303.185
303.184
303.178
303.167
303.15
303.129
303.103
303.074
303.043
303.025
303.029
303.049
303.185
304.467
304.158
303.918
303.694
303.515
303.346
302.969
302.546
302.24
302.117
302.166
302.342
302.564
302.772
302.907
302.97
303.003
303.031
303.066
303.103
303.137
303.166
303.189
303.205
303.215
303.219
303.219
303.215
303.208
303.2
303.192
303.185
303.181
303.18
303.188
303.206
303.236
303.27
303.296
303.358
297.416
298.899
299.775
300.094
300.421
300.832
301.295
301.749
302.163
302.558
302.847
302.99
303.059
303.094
303.12
303.146
303.173
303.199
303.221
303.236
303.246
303.25
303.251
303.249
303.245
303.24
303.235
303.231
303.227
303.225
303.224
303.228
303.238
303.256
303.281
303.312
303.343
303.38
297.804
299.057
299.917
300.494
301.059
301.599
302.113
302.497
302.781
302.973
303.083
303.14
303.173
303.196
303.216
303.235
303.253
303.267
303.276
303.281
303.282
303.281
303.278
303.274
303.27
303.266
303.261
303.258
303.254
303.252
303.251
303.253
303.26
303.271
303.288
303.312
303.322
303.361
299.563
299.522
299.519
300.652
301.428
302.056
302.515
302.79
302.961
303.076
303.153
303.204
303.237
303.257
303.272
303.283
303.293
303.3
303.306
303.309
303.309
303.308
303.306
303.303
303.299
303.295
303.291
303.287
303.283
303.279
303.276
303.273
303.271
303.27
303.272
303.278
303.288
303.299
303.306
303.352
)
;

boundaryField
{
    floor
    {
        type            wallHeatTransfer;
        Tinf            uniform 305.2;
        alphaWall       uniform 0.24;
        value           nonuniform List<scalar> 
36
(
302.83
303.196
303.127
303.081
303.074
303.086
303.111
303.14
303.169
303.196
303.223
303.249
303.273
303.297
303.32
303.344
303.37
303.395
303.449
303.449
303.371
303.327
303.297
303.326
303.392
303.372
302.83
302.759
302.802
302.868
303.196
302.868
303.208
302.819
303.05
302.805
)
;
    }
    ceiling
    {
        type            wallHeatTransfer;
        Tinf            uniform 303.2;
        alphaWall       uniform 0.24;
        value           nonuniform List<scalar> 
43
(
299.783
299.74
299.733
300.787
301.526
302.126
302.561
302.82
302.98
303.087
303.158
303.204
303.232
303.25
303.263
303.272
303.28
303.286
303.29
303.292
303.292
303.291
303.289
303.286
303.283
303.28
303.277
303.274
303.271
303.269
303.266
303.264
303.263
303.263
303.264
303.271
303.28
303.289
303.295
303.335
304.408
304.12
298.147
)
;
    }
    sWall
    {
        type            wallHeatTransfer;
        Tinf            uniform 315.2;
        alphaWall       uniform 0.36;
        value           uniform 300.947;
    }
    nWall
    {
        type            wallHeatTransfer;
        Tinf            uniform 307.2;
        alphaWall       uniform 0.36;
        value           nonuniform List<scalar> 6(303.861 303.8 303.684 303.931 303.908 303.963);
    }
    sideWalls
    {
        type            empty;
    }
    glass1
    {
        type            wallHeatTransfer;
        Tinf            uniform 315.2;
        alphaWall       uniform 4.3;
        value           nonuniform List<scalar> 9(311.158 310.545 310.156 309.859 309.611 309.38 309.197 309.263 309.493);
    }
    glass2
    {
        type            wallHeatTransfer;
        Tinf            uniform 307.2;
        alphaWall       uniform 4.3;
        value           nonuniform List<scalar> 2(305.653 305.773);
    }
    sun
    {
        type            wallHeatTransfer;
        Tinf            uniform 305.2;
        alphaWall       uniform 0.24;
        value           nonuniform List<scalar> 
14
(
303.054
302.793
302.775
302.762
302.751
302.74
302.729
302.717
302.704
302.693
302.686
302.688
302.704
302.759
)
;
    }
    Table_master
    {
        type            zeroGradient;
    }
    Table_slave
    {
        type            zeroGradient;
    }
    inlet
    {
        type            fixedValue;
        value           uniform 295.15;
    }
    outlet
    {
        type            zeroGradient;
    }
}


// ************************************************************************* //
