/*--------------------------------*- C++ -*----------------------------------*\
  =========                 |
  \\      /  F ield         | OpenFOAM: The Open Source CFD Toolbox
   \\    /   O peration     | Website:  https://openfoam.org
    \\  /    A nd           | Version:  6
     \\/     M anipulation  |
\*---------------------------------------------------------------------------*/
FoamFile
{
    version     2.0;
    format      ascii;
    class       volScalarField;
    location    "44500.0000000787186";
    object      k;
}
// * * * * * * * * * * * * * * * * * * * * * * * * * * * * * * * * * * * * * //

dimensions      [0 2 -2 0 0 0 0];

internalField   nonuniform List<scalar> 
778
(
0.00158588
0.00180106
0.00178794
0.00194652
0.00209779
0.00224012
0.00237684
0.00251251
0.0026529
0.00280628
0.00295657
0.00310291
0.00325047
0.00341292
0.0035866
0.000793083
0.00162487
0.00165142
0.00157256
0.0014449
0.00128273
0.00113065
0.000998978
0.000887229
0.00079268
0.000712942
0.000644935
0.000585956
0.000533461
0.000484735
0.000436279
0.000397981
0.000326101
0.00340689
0.00643318
0.00268751
0.00274613
0.00288784
0.00305445
0.00323484
0.00343066
0.00364396
0.00387438
0.00412654
0.00438034
0.00459608
0.00470121
0.00459531
0.00429896
0.00390785
0.00358042
0.00253536
0.00281146
0.00295363
0.00289611
0.00266346
0.00226474
0.00190565
0.00160949
0.00136979
0.00117595
0.00101711
0.000885294
0.000774025
0.000681207
0.000615185
0.000574653
0.000864175
0.000523984
0.00549061
0.0127804
0.0034779
0.00321221
0.00329756
0.00345542
0.00363684
0.00384106
0.00407147
0.0043282
0.00463635
0.00501171
0.00545177
0.00596101
0.00653158
0.00685978
0.00627757
0.00538585
0.00403712
0.00416842
0.00417135
0.0039738
0.00357604
0.00266399
0.00201438
0.00157529
0.00126933
0.0010494
0.000887088
0.000764757
0.000671929
0.000603714
0.00055151
0.000548693
0.00116521
0.000677917
0.00797323
0.0217568
0.00449091
0.00339083
0.00334163
0.00343823
0.00354963
0.00366916
0.00380947
0.00399189
0.00425982
0.00464925
0.00517198
0.0058258
0.00655493
0.00713426
0.00722774
0.00724203
0.00534342
0.00555077
0.00537601
0.00512499
0.00478629
0.00434745
0.00345504
0.00285816
0.00243514
0.00210931
0.00185008
0.00163173
0.00143839
0.00125841
0.00107751
0.000800441
0.000659616
0.00142101
0.000821443
0.0108758
0.0336316
0.00621204
0.00342503
0.00315837
0.00316709
0.00318975
0.0032101
0.00325243
0.00336151
0.00359525
0.00398982
0.00455413
0.00527732
0.00608734
0.00681763
0.00728352
0.00764461
0.00751853
0.00665475
0.00607352
0.00557896
0.00509886
0.00462905
0.00412261
0.00366507
0.00327453
0.00293695
0.00263085
0.00234751
0.002079
0.00181822
0.00155457
0.00122147
0.000929926
0.00118968
0.00121559
0.00116771
0.00203916
0.00186006
0.0141739
0.0475942
0.00928207
0.0034899
0.00290856
0.0028228
0.00276451
0.00269972
0.00266444
0.0027348
0.00298111
0.00341461
0.00402384
0.00479779
0.00565351
0.00646055
0.00706856
0.00740745
0.00732425
0.00679034
0.0062153
0.00563722
0.00507426
0.00455587
0.00409112
0.00369546
0.00336292
0.00307351
0.00280667
0.00255147
0.00229889
0.00204197
0.00177342
0.00147096
0.00117811
0.00111216
0.00111044
0.00171873
0.00512098
0.00265814
0.0179906
0.0606012
0.0143562
0.00381906
0.00271512
0.00252937
0.00241185
0.00229417
0.00222124
0.00231172
0.00263045
0.00313936
0.00380179
0.00463025
0.00552726
0.00636529
0.00699972
0.00732754
0.00725446
0.00681826
0.0062155
0.0055548
0.00491182
0.0043427
0.00387242
0.00350038
0.00320673
0.00296183
0.00274153
0.00252935
0.00231364
0.00208708
0.00184486
0.00158266
0.00132759
0.00115969
0.00109135
0.00156372
0.00630599
0.00369958
0.0216392
0.0704779
0.0214306
0.00510053
0.0027424
0.00237166
0.00221011
0.00208203
0.00202651
0.00221974
0.00265003
0.00323089
0.00393647
0.00477282
0.00569647
0.00657073
0.00722137
0.0075126
0.00738378
0.00689607
0.00619802
0.00542663
0.00469118
0.00406421
0.00357427
0.00321238
0.00294764
0.00274108
0.00256454
0.00239634
0.00222254
0.00203553
0.00183194
0.00161305
0.00139824
0.00122971
0.00115221
0.00212069
0.0144284
0.00637595
0.0228321
0.0694973
0.0325272
0.0110492
0.00406408
0.00258656
0.0022353
0.00210308
0.00219026
0.00251306
0.00300112
0.0036021
0.00433124
0.00520962
0.00618068
0.00708284
0.00771334
0.00792065
0.00766331
0.00702471
0.00616439
0.0052475
0.00440657
0.0037217
0.00321615
0.00286854
0.00263538
0.00246901
0.00233651
0.00221183
0.00207991
0.00193351
0.00177041
0.00159365
0.00141826
0.00128469
0.00131976
0.00397969
0.0288398
0.00810653
0.021918
0.0516425
0.0336409
0.017426
0.00858084
0.00475547
0.0032598
0.00272995
0.00285366
0.00321199
0.00367336
0.00424615
0.00499279
0.00593304
0.006967
0.00788042
0.00843625
0.00848046
0.00800148
0.00712196
0.00603916
0.00495175
0.00400956
0.00328936
0.00279699
0.002488
0.00230175
0.00218395
0.00209625
0.00201172
0.00191675
0.00180573
0.00167786
0.00153736
0.00139786
0.00130874
0.0016261
0.00775842
0.026749
0.0085457
0.0192343
0.0394437
0.0302382
0.0195619
0.0121773
0.00793484
0.00571486
0.0046684
0.00436232
0.00440034
0.0046526
0.00514326
0.00592926
0.00697128
0.00807711
0.00895434
0.00933685
0.00909321
0.00827085
0.00705745
0.00570735
0.00445569
0.00345874
0.00276683
0.00234713
0.00211403
0.00198947
0.00192262
0.00187318
0.00181968
0.00175208
0.00166672
0.00156457
0.00145263
0.00135043
0.00136194
0.00223058
0.00868424
0.0245582
0.00856629
0.015951
0.0315905
0.0266519
0.0195373
0.0139735
0.0102815
0.00802508
0.00674924
0.00604803
0.00573042
0.00578112
0.0062688
0.00719795
0.00840122
0.00954983
0.0102712
0.010306
0.00959287
0.00828439
0.00666028
0.0050486
0.00371466
0.00278976
0.00223228
0.00195314
0.00181336
0.00174461
0.00171124
0.00168422
0.00164892
0.00159792
0.00152841
0.00144272
0.00135371
0.00130623
0.00163593
0.00366975
0.00961046
0.0210042
0.00817327
0.0132668
0.0256707
0.0233501
0.0186887
0.0145822
0.0115864
0.00954172
0.00820829
0.00729918
0.00683912
0.00695412
0.00770821
0.00895776
0.0103389
0.0113836
0.0116951
0.0111075
0.00969874
0.00778622
0.00575495
0.00402194
0.00283155
0.00219275
0.00186123
0.00169695
0.00161518
0.00157468
0.00155367
0.00153342
0.00150404
0.00145992
0.00139918
0.00132693
0.00126889
0.0013473
0.00217154
0.00494981
0.0101883
0.0168633
0.0075793
0.0133457
0.0224159
0.0220552
0.0177584
0.014391
0.0118927
0.0100826
0.00876835
0.00791811
0.00777257
0.00846383
0.00984597
0.0114912
0.0128361
0.0133806
0.0128423
0.0112909
0.00899358
0.00651969
0.00430756
0.0029618
0.00222564
0.00185674
0.00166883
0.0015678
0.00150954
0.00147405
0.00144998
0.00142524
0.00139312
0.00135009
0.00129637
0.00124118
0.00122324
0.00139924
0.00234652
0.00509134
0.0099585
0.0165393
0.00732503
0.0108731
0.0117629
0.0129234
0.0125533
0.0113759
0.0100766
0.00894922
0.00820614
0.00830468
0.00941062
0.0112704
0.0133202
0.0149029
0.0154927
0.0148295
0.0128995
0.0101823
0.00703591
0.00465024
0.00314617
0.00235912
0.00197175
0.00177169
0.00165153
0.00156752
0.00150349
0.00145365
0.00141484
0.00137865
0.00134135
0.00130376
0.00127213
0.00126168
0.00131205
0.00154649
0.00235047
0.00460512
0.00926086
0.0159014
0.00839933
0.00354591
0.00482851
0.0060045
0.00661286
0.00729302
0.00880611
0.0113142
0.0141235
0.016514
0.0179324
0.0180305
0.0167355
0.0142483
0.0106522
0.00736311
0.0048638
0.00335898
0.00259191
0.00223124
0.00204448
0.0019229
0.00182421
0.00173452
0.00165192
0.00158045
0.00152685
0.00149073
0.00147582
0.00149255
0.00155254
0.00166544
0.00185172
0.00218877
0.00291079
0.00466268
0.0100112
0.0144149
0.00881643
0.00444553
0.00630086
0.00812484
0.0110447
0.0147219
0.0181704
0.0203867
0.0214244
0.0213302
0.0201052
0.0175808
0.0141318
0.0104993
0.00723128
0.00492382
0.00359302
0.0029505
0.00265481
0.00249988
0.00239727
0.00231478
0.00223984
0.00216794
0.00210073
0.00204619
0.00201791
0.00202712
0.00208962
0.00222134
0.00243198
0.00272551
0.0031159
0.00366403
0.00454745
0.00627034
0.0114804
0.0147107
0.00914559
0.0150738
0.0244173
0.0180876
0.0144108
0.0170469
0.0207513
0.0228811
0.0235706
0.0230938
0.0217189
0.019692
0.0170515
0.0138992
0.0106165
0.00770882
0.00556901
0.00432683
0.00372208
0.00343117
0.00327162
0.00317528
0.00311814
0.00308651
0.00306702
0.00304796
0.00302526
0.00300848
0.0030174
0.00307497
0.00320243
0.00341594
0.00372779
0.00414853
0.00469852
0.00543511
0.00650479
0.00827019
0.0117804
0.0158634
0.00837691
0.0138095
0.0170468
0.0178925
0.020799
0.0217442
0.0221668
0.0211699
0.0193537
0.0172288
0.0150472
0.0129124
0.010878
0.00900448
0.00740091
0.0061732
0.00531328
0.00472753
0.0043432
0.00409391
0.00394932
0.00389748
0.00392818
0.00402522
0.00416495
0.00431903
0.00446068
0.00457303
0.00466487
0.00477831
0.00494296
0.0051816
0.00551537
0.00597052
0.00659191
0.0074623
0.00869701
0.0104458
0.0135569
0.0183571
0.0080681
0.0121399
0.00890914
0.00882205
0.00934251
0.00978489
0.00921023
0.00814279
0.0069837
0.00591897
0.00499842
0.00421593
0.00355969
0.00303214
0.00264459
0.00239904
0.0022811
0.00224528
0.00225496
0.00229988
0.00237395
0.00247045
0.00258135
0.00269867
0.00281626
0.00293085
0.00304274
0.00315585
0.00327504
0.00340667
0.003559
0.0037378
0.0039469
0.00419003
0.00447532
0.00482618
0.00530103
0.00598821
0.00694277
0.00811576
0.00738579
)
;

boundaryField
{
    floor
    {
        type            kqRWallFunction;
        value           nonuniform List<scalar> 
36
(
0.0035866
0.000793083
0.00162487
0.00165142
0.00157256
0.0014449
0.00128273
0.00113065
0.000998978
0.000887229
0.00079268
0.000712942
0.000644935
0.000585956
0.000533461
0.000484735
0.000436279
0.000397981
0.000326101
0.000326101
0.000523984
0.000677917
0.000821443
0.00116771
0.00203916
0.00186006
0.0035866
0.00429896
0.00390785
0.00358042
0.000793083
0.00358042
0.00253536
0.00538585
0.00403712
0.00534342
)
;
    }
    ceiling
    {
        type            kqRWallFunction;
        value           nonuniform List<scalar> 
43
(
0.0121399
0.00890914
0.00882205
0.00934251
0.00978489
0.00921023
0.00814279
0.0069837
0.00591897
0.00499842
0.00421593
0.00355969
0.00303214
0.00264459
0.00239904
0.0022811
0.00224528
0.00225496
0.00229988
0.00237395
0.00247045
0.00258135
0.00269867
0.00281626
0.00293085
0.00304274
0.00315585
0.00327504
0.00340667
0.003559
0.0037378
0.0039469
0.00419003
0.00447532
0.00482618
0.00530103
0.00598821
0.00694277
0.00811576
0.00738579
0.0108731
0.0117629
0.00444553
)
;
    }
    sWall
    {
        type            kqRWallFunction;
        value           nonuniform List<scalar> 9(0.021918 0.0192343 0.015951 0.0132668 0.0133457 0.0108731 0.0150738 0.0138095 0.0121399);
    }
    nWall
    {
        type            kqRWallFunction;
        value           nonuniform List<scalar> 
14
(
0.00186006
0.00265814
0.00369958
0.0085457
0.00856629
0.00817327
0.0075793
0.00732503
0.00839933
0.00881643
0.00914559
0.00837691
0.0080681
0.00738579
)
;
    }
    sideWalls
    {
        type            empty;
    }
    glass1
    {
        type            kqRWallFunction;
        value           nonuniform List<scalar> 9(0.00158588 0.00340689 0.00549061 0.00797323 0.0108758 0.0141739 0.0179906 0.0216392 0.0228321);
    }
    glass2
    {
        type            kqRWallFunction;
        value           nonuniform List<scalar> 2(0.00637595 0.00810653);
    }
    sun
    {
        type            kqRWallFunction;
        value           nonuniform List<scalar> 
14
(
0.00158588
0.00180106
0.00178794
0.00194652
0.00209779
0.00224012
0.00237684
0.00251251
0.0026529
0.00280628
0.00295657
0.00310291
0.00325047
0.00341292
)
;
    }
    Table_master
    {
        type            kqRWallFunction;
        value           nonuniform List<scalar> 9(0.00266399 0.00201438 0.00157529 0.00126933 0.0010494 0.000887088 0.000764757 0.000671929 0.000603714);
    }
    Table_slave
    {
        type            kqRWallFunction;
        value           nonuniform List<scalar> 9(0.00345504 0.00285816 0.00243514 0.00210931 0.00185008 0.00163173 0.00143839 0.00125841 0.00107751);
    }
    inlet
    {
        type            turbulentIntensityKineticEnergyInlet;
        intensity       0.05;
        value           uniform 0.0009375;
    }
    outlet
    {
        type            zeroGradient;
    }
}


// ************************************************************************* //
