/*--------------------------------*- C++ -*----------------------------------*\
  =========                 |
  \\      /  F ield         | OpenFOAM: The Open Source CFD Toolbox
   \\    /   O peration     | Website:  https://openfoam.org
    \\  /    A nd           | Version:  6
     \\/     M anipulation  |
\*---------------------------------------------------------------------------*/
FoamFile
{
    version     2.0;
    format      ascii;
    class       volScalarField;
    location    "12000";
    object      alphat;
}
// * * * * * * * * * * * * * * * * * * * * * * * * * * * * * * * * * * * * * //

dimensions      [1 -1 -1 0 0 0 0];

internalField   nonuniform List<scalar> 
778
(
0.00104101
0.00111056
0.00110653
0.00115454
0.00119854
0.0012385
0.0012757
0.00131158
0.00134771
0.00138611
0.00142276
0.0014576
0.00149194
0.00152887
0.0015674
0.000736767
0.00105579
0.00106439
0.00103867
0.000995564
0.000937914
0.000880461
0.000827571
0.000779923
0.000737218
0.000699163
0.000664976
0.000633827
0.000604749
0.000576446
0.000546852
0.000522255
0.000472682
0.0015247
0.00300735
0.00263935
0.00304645
0.00334176
0.00365479
0.00396701
0.00425473
0.00448638
0.00462136
0.00470082
0.00466849
0.00443612
0.00385973
0.0028192
0.00171639
0.00163649
0.0015665
0.00131869
0.00224658
0.00311451
0.0036274
0.00365159
0.00288118
0.00246415
0.00217503
0.00195547
0.0017808
0.00163192
0.00150037
0.00137797
0.00125822
0.00115075
0.00105808
0.00119137
0.000599338
0.00193419
0.00419888
0.00311336
0.00445339
0.00497602
0.00541811
0.00581951
0.00617275
0.00647205
0.00670691
0.00693461
0.00717459
0.00739562
0.00752799
0.00744266
0.00681589
0.00498549
0.00192161
0.00166346
0.00355799
0.00496628
0.00563365
0.00512478
0.00135237
0.00117603
0.00103991
0.000933359
0.000848542
0.00078008
0.000724253
0.00067886
0.000643475
0.000707311
0.000831914
0.00131648
0.000681876
0.00232917
0.00565856
0.00297901
0.00500689
0.00578064
0.00619431
0.00649826
0.00672296
0.00689062
0.00702665
0.00722031
0.00754802
0.00802667
0.008629
0.00923491
0.00953451
0.0089549
0.00668243
0.00191359
0.00442926
0.00658941
0.00768855
0.00796146
0.00679862
0.00153941
0.00140034
0.0012927
0.00120312
0.00112675
0.00105814
0.000993464
0.000929241
0.000859905
0.000803238
0.000832298
0.00142433
0.000750951
0.00271846
0.00749068
0.00300557
0.00475917
0.00594884
0.00630148
0.00642913
0.00643357
0.00636919
0.00631229
0.00639321
0.00671143
0.00729592
0.00812407
0.00908466
0.00996973
0.0105312
0.0105251
0.00944571
0.00960967
0.00982938
0.00986076
0.00966152
0.00904488
0.00719952
0.00621989
0.00554872
0.0050037
0.00446865
0.00395013
0.00344275
0.00293598
0.00241535
0.00185549
0.00141625
0.00141311
0.00111853
0.000895056
0.00117228
0.00112934
0.00310141
0.00954086
0.0035385
0.00401294
0.00569927
0.00609064
0.00605889
0.00584034
0.00552816
0.0052707
0.00526482
0.00559814
0.00626409
0.00722439
0.00834815
0.00947057
0.0104251
0.0110345
0.0111451
0.0110324
0.010836
0.0105584
0.0102022
0.00974932
0.00908799
0.00845055
0.00787159
0.00731216
0.00670771
0.00606197
0.0053721
0.00463226
0.00383777
0.002995
0.00223292
0.00167679
0.00130204
0.00145119
0.00250916
0.00135309
0.00349218
0.011436
0.00471529
0.00328761
0.00512046
0.0057608
0.00568945
0.00533622
0.00482404
0.00437343
0.00436012
0.00478073
0.00554302
0.00661677
0.00783816
0.0090467
0.0100859
0.0108294
0.0111707
0.0111432
0.0108975
0.0105264
0.010102
0.00967904
0.0092701
0.00889475
0.00854208
0.0081659
0.00771133
0.00716404
0.00651595
0.0057639
0.00491072
0.00397853
0.00306877
0.0022224
0.00163781
0.00145611
0.00254693
0.00159053
0.00382792
0.0128687
0.00642799
0.00313089
0.00405558
0.00510626
0.00525297
0.00496299
0.00435726
0.00374503
0.00388334
0.00443962
0.0052923
0.00639906
0.00766822
0.00893361
0.0100118
0.0107598
0.0110987
0.0110531
0.0107358
0.0102686
0.00976658
0.00932163
0.00897881
0.00873389
0.00854289
0.00833551
0.00804685
0.00764282
0.00710751
0.00643752
0.0056391
0.00473656
0.00380052
0.00286107
0.00201357
0.00133998
0.00358946
0.00206326
0.0039291
0.0121735
0.00795082
0.00404829
0.00275009
0.00336813
0.00394182
0.00399087
0.00352355
0.00342471
0.00378027
0.00443467
0.00535698
0.00653104
0.0078615
0.00916594
0.0102402
0.0109302
0.0111715
0.0110034
0.0105438
0.00994137
0.00934376
0.00886714
0.00856479
0.00841634
0.00834888
0.00826898
0.00810271
0.00781069
0.00737722
0.00680034
0.00608722
0.0052582
0.00435199
0.00334036
0.00198973
0.00165683
0.00533533
0.00237009
0.00384957
0.00981047
0.0082077
0.00555453
0.00366993
0.00284147
0.00269026
0.00281616
0.00305286
0.00342944
0.003964
0.00470087
0.00570436
0.00697041
0.00837315
0.00969557
0.0107131
0.0112723
0.0113296
0.0109523
0.0102887
0.00952472
0.0088425
0.0083753
0.0081615
0.00813645
0.00818225
0.00818091
0.00807243
0.00783511
0.00746147
0.0069505
0.00630638
0.00553663
0.00460818
0.00318327
0.00149754
0.00313535
0.00525081
0.00239688
0.00360581
0.00838295
0.00793329
0.00635373
0.00489195
0.00393928
0.00346769
0.00336078
0.00355569
0.00391477
0.00443758
0.00521593
0.00632442
0.00771215
0.00918531
0.0104784
0.011354
0.0116785
0.0114484
0.0107781
0.00986698
0.00895368
0.00825926
0.00791148
0.007872
0.00798564
0.00809925
0.00810089
0.00798571
0.00775515
0.0074043
0.00692658
0.00631758
0.00556181
0.00449983
0.00253624
0.00177322
0.00364761
0.00485028
0.00235463
0.00328293
0.00755731
0.00765093
0.00672339
0.00572154
0.0049668
0.0045223
0.00436366
0.0044035
0.00462074
0.00510192
0.00597242
0.00725394
0.00878959
0.0102915
0.011452
0.0120475
0.0119959
0.0113616
0.0103297
0.00917632
0.00821199
0.00766785
0.00755958
0.00765528
0.00780336
0.00790036
0.00787232
0.0077388
0.00750655
0.00716604
0.00669825
0.00608529
0.00529978
0.0041182
0.00206
0.00203787
0.00383662
0.00483938
0.00229049
0.00299325
0.00675828
0.00730344
0.00686678
0.00622467
0.00568477
0.00532571
0.0051503
0.00509897
0.00528656
0.00589951
0.00703777
0.00858711
0.0102456
0.0116446
0.0124797
0.0125946
0.0120006
0.0108641
0.00946818
0.00820121
0.00739343
0.00704508
0.00700613
0.00710288
0.00722691
0.00730632
0.00728402
0.00715256
0.00692128
0.00657361
0.00607938
0.00541038
0.00455244
0.00344932
0.00207728
0.0021013
0.00393374
0.00539856
0.00232749
0.00300385
0.00670693
0.00746172
0.00694868
0.00642907
0.00600345
0.00569667
0.00549796
0.00549295
0.00594875
0.00703043
0.00864171
0.0104534
0.012046
0.0130542
0.0132679
0.012669
0.0113958
0.00976425
0.00818542
0.00704791
0.00639245
0.00608936
0.00600821
0.00604528
0.00612311
0.00618598
0.00617979
0.00604719
0.00579472
0.00538785
0.00478445
0.00399563
0.0031501
0.00246118
0.002053
0.00234601
0.00420538
0.0053306
0.00245152
0.00270992
0.00281968
0.00416556
0.00489788
0.00512533
0.00513015
0.0050818
0.00518035
0.00581614
0.00716463
0.00905458
0.0110841
0.0128067
0.0138577
0.0140317
0.0132982
0.0118359
0.00991324
0.00808165
0.00666241
0.00572522
0.00518988
0.00493169
0.00482153
0.00477428
0.00474745
0.00472049
0.00466631
0.00449904
0.0042032
0.00374471
0.00313481
0.00252568
0.00213674
0.00205994
0.00227432
0.00293033
0.00484837
0.00553562
0.00247761
0.000964959
0.0017399
0.00266856
0.00341193
0.00427658
0.00575285
0.0079207
0.0103177
0.0124842
0.0140826
0.01489
0.0147721
0.01375
0.0119377
0.0097974
0.00778149
0.00620062
0.0051525
0.00457722
0.00428625
0.00411666
0.00398381
0.00385573
0.00372535
0.00359426
0.00346009
0.003295
0.00305545
0.00274147
0.00240384
0.00218166
0.002195
0.00245376
0.0029283
0.00369518
0.00513692
0.0059872
0.00244287
0.00178718
0.00246852
0.0035894
0.00559382
0.00831718
0.0110376
0.0131414
0.0146446
0.0155294
0.0157361
0.0151587
0.0137006
0.0115943
0.00925429
0.00714862
0.00560426
0.0047151
0.00429246
0.00408703
0.00395323
0.00383457
0.0037163
0.00359994
0.00349101
0.00339227
0.00329926
0.00319556
0.0030625
0.00290702
0.00276321
0.00270881
0.00282832
0.00314295
0.00360595
0.00414889
0.00464742
0.00479343
0.00234751
0.00323898
0.00785959
0.0072474
0.00648297
0.00822777
0.0109608
0.0132625
0.0148091
0.015613
0.0157913
0.0154292
0.014498
0.0129682
0.0109124
0.0086449
0.00665411
0.00534832
0.00470395
0.00441912
0.00426122
0.00412944
0.00399438
0.00385658
0.00372817
0.00362428
0.00355735
0.00353253
0.00354416
0.00357213
0.00358415
0.00358445
0.00360179
0.00367417
0.00384717
0.00415328
0.00458517
0.00508765
0.00549049
0.00556344
0.0023771
0.00309577
0.00597973
0.00772389
0.00988174
0.0109608
0.0120741
0.0127199
0.0128717
0.0126171
0.0120131
0.0110752
0.00980423
0.00828141
0.00674485
0.00551708
0.00476553
0.00438262
0.00419515
0.00407443
0.00396193
0.00383963
0.00370955
0.00358421
0.00348208
0.00342397
0.00342847
0.00350642
0.00365489
0.00384984
0.00403478
0.00416774
0.00429388
0.00445931
0.00470264
0.00505367
0.00552841
0.00612635
0.00686393
0.00624702
0.0026888
0.00289445
0.00248049
0.00246757
0.00253851
0.00259646
0.00251592
0.00236142
0.00218046
0.00199728
0.0018215
0.00165728
0.00151046
0.0013904
0.00130614
0.00125888
0.00123989
0.00123845
0.00124362
0.00125166
0.001262
0.00127579
0.00129506
0.00132191
0.00135769
0.00140221
0.00145362
0.00150903
0.00156559
0.00162155
0.00167698
0.00173273
0.00178969
0.00185176
0.00192308
0.00200644
0.00210188
0.00220593
0.00231765
0.00244952
0.00246562
)
;

boundaryField
{
    floor
    {
        type            compressible::alphatWallFunction;
        Prt             0.85;
        value           nonuniform List<scalar> 
36
(
0.000219892
0.000104474
0.000149995
0.000151197
0.000147596
0.000141539
0.00013339
0.000125211
0.000117625
0.000110743
0.000104531
9.89596e-05
9.39232e-05
8.9307e-05
8.49726e-05
8.07294e-05
7.6265e-05
7.25319e-05
6.49411e-05
6.49402e-05
8.41645e-05
9.64181e-05
0.000106535
0.000127299
0.000166207
0.000160268
0.000219889
0.000239722
0.00022911
0.000219767
0.000104473
0.000219765
0.000186295
0.000266729
0.00023269
0.000265679
)
;
    }
    ceiling
    {
        type            compressible::alphatWallFunction;
        Prt             0.85;
        value           nonuniform List<scalar> 
43
(
0.000391141
0.00033888
0.00033724
0.000346273
0.00035364
0.000343455
0.000323785
0.000300556
0.000276818
0.000253806
0.000232075
0.000212436
0.000196216
0.000184742
0.00017828
0.000175689
0.000175503
0.000176222
0.000177331
0.00017875
0.000180631
0.000183249
0.000186892
0.00019174
0.000197769
0.000204724
0.000212208
0.00021983
0.000227347
0.000234763
0.000242197
0.000249755
0.000257944
0.000267304
0.000278195
0.000290607
0.000304077
0.000318487
0.000335422
0.000337351
0.000368276
0.000382073
0.000248589
)
;
    }
    sWall
    {
        type            compressible::alphatWallFunction;
        Prt             0.85;
        value           nonuniform List<scalar> 9(0.000507617 0.000477879 0.000438176 0.000402218 0.000403532 0.000366701 0.000432105 0.000414397 0.00038939);
    }
    nWall
    {
        type            compressible::alphatWallFunction;
        Prt             0.85;
        value           nonuniform List<scalar> 
14
(
0.000159821
0.00019054
0.000222519
0.000327706
0.000322301
0.000314153
0.000319229
0.000334832
0.000338145
0.00033333
0.000321305
0.000325449
0.000365097
0.000336661
)
;
    }
    sideWalls
    {
        type            empty;
    }
    glass1
    {
        type            compressible::alphatWallFunction;
        Prt             0.85;
        value           nonuniform List<scalar> 9(0.000143931 0.000209139 0.000262698 0.000313309 0.000362384 0.000410008 0.000458018 0.000498875 0.000511236);
    }
    glass2
    {
        type            compressible::alphatWallFunction;
        Prt             0.85;
        value           nonuniform List<scalar> 2(0.000282543 0.000321957);
    }
    sun
    {
        type            compressible::alphatWallFunction;
        Prt             0.85;
        value           nonuniform List<scalar> 
14
(
0.000147965
0.000157648
0.000157087
0.000163752
0.000169831
0.00017533
0.000180433
0.000185337
0.00019026
0.000195477
0.00020044
0.000205145
0.00020977
0.00021473
)
;
    }
    Table_master
    {
        type            compressible::alphatWallFunction;
        Prt             0.85;
        value           nonuniform List<scalar> 9(0.00019115 0.000166973 0.000148026 0.000132993 0.000120883 0.000111004 0.000102871 9.62026e-05 9.09666e-05);
    }
    Table_slave
    {
        type            compressible::alphatWallFunction;
        Prt             0.85;
        value           nonuniform List<scalar> 9(0.000216413 0.000197668 0.000183015 0.000170715 0.000160146 0.000150582 0.000141499 0.000132411 0.000122517);
    }
    inlet
    {
        type            fixedValue;
        value           uniform 1.94e-05;
    }
    outlet
    {
        type            zeroGradient;
    }
}


// ************************************************************************* //
