/*--------------------------------*- C++ -*----------------------------------*\
  =========                 |
  \\      /  F ield         | OpenFOAM: The Open Source CFD Toolbox
   \\    /   O peration     | Website:  https://openfoam.org
    \\  /    A nd           | Version:  6
     \\/     M anipulation  |
\*---------------------------------------------------------------------------*/
FoamFile
{
    version     2.0;
    format      ascii;
    class       volScalarField;
    location    "2220";
    object      alphat;
}
// * * * * * * * * * * * * * * * * * * * * * * * * * * * * * * * * * * * * * //

dimensions      [1 -1 -1 0 0 0 0];

internalField   nonuniform List<scalar> 
458
(
0.00124408
0.00135521
0.00138589
0.00145221
0.00151329
0.00157113
0.00162899
0.00168774
0.00173578
0.00176599
0.00176944
0.00173734
0.00165864
0.00149201
0.00113177
0.000559102
0.00065548
0.000743166
0.000774874
0.000762729
0.000713749
0.000659561
0.000611074
0.000569073
0.000532592
0.000500737
0.000472862
0.000448143
0.00042563
0.000404276
0.000382833
0.000370089
0.000340107
0.00167643
0.00377464
0.00348169
0.00398931
0.00449538
0.00501598
0.00548315
0.00584445
0.00621574
0.00656346
0.0068425
0.00701204
0.0070279
0.00678329
0.00551286
0.00149401
0.00123944
0.00101118
0.000554583
0.0013163
0.00191864
0.00238487
0.00253222
0.00184543
0.00155788
0.00136223
0.00121785
0.00110722
0.00101945
0.000943781
0.000872634
0.000801619
0.000738186
0.000684997
0.000837915
0.000447115
0.00203692
0.00507265
0.0041865
0.00510443
0.00549005
0.00576088
0.00596907
0.00616133
0.0064292
0.00675504
0.00711118
0.00746005
0.00773531
0.00783153
0.00737921
0.00601394
0.00455779
0.00119428
0.000854316
0.00147432
0.00214538
0.00281283
0.00300337
0.000959295
0.000839852
0.000740464
0.000659964
0.000595004
0.00054236
0.000499567
0.000464962
0.000438045
0.00048544
0.00056218
0.000983087
0.000528393
0.00238378
0.00647834
0.00407213
0.00528777
0.0054987
0.00547757
0.00545801
0.00555022
0.00576826
0.00609094
0.00650089
0.00695774
0.00735744
0.00760852
0.00755141
0.00716064
0.00614563
0.00337382
0.00137581
0.00175208
0.00240867
0.00321252
0.00390913
0.00394324
0.00108042
0.00099032
0.000928949
0.000883652
0.000845351
0.000807302
0.000771166
0.000732985
0.000688361
0.000648439
0.000639018
0.00117166
0.000608555
0.00273781
0.00836908
0.00427092
0.00501915
0.00532061
0.00514035
0.00499368
0.00507734
0.0053077
0.00564378
0.00608608
0.00658719
0.00697891
0.00717341
0.00716811
0.00703107
0.00662586
0.0054789
0.00496579
0.00500158
0.00529285
0.00563977
0.0058523
0.00575585
0.00491069
0.00447597
0.00423632
0.00406464
0.00389092
0.0036672
0.00328719
0.00279773
0.00224095
0.00170471
0.00127864
0.00119126
0.00103424
0.00081333
0.000860759
0.000935587
0.00311664
0.0104979
0.00584853
0.00464665
0.0050641
0.0050534
0.00486616
0.00493537
0.00517061
0.00550726
0.00595617
0.00643687
0.00679934
0.00691464
0.00680414
0.00664669
0.00657604
0.00648162
0.00667661
0.00701467
0.00725155
0.0072934
0.00713313
0.00679845
0.0063315
0.00595207
0.00565661
0.00539631
0.00514081
0.00486964
0.0045194
0.00403945
0.00343223
0.00274545
0.00210978
0.00152981
0.00125746
0.00109686
0.00138114
0.000970513
0.00348939
0.0121022
0.00872429
0.00570999
0.00496868
0.00503994
0.00510358
0.00514045
0.00527432
0.00557165
0.00601374
0.00649029
0.00682258
0.00685872
0.00664922
0.00649791
0.00674741
0.00730064
0.00786347
0.00818076
0.0081811
0.00790821
0.00744635
0.00688443
0.00632509
0.0058749
0.00553405
0.00525774
0.00501611
0.00479914
0.0046017
0.00434374
0.00391929
0.00335236
0.00276326
0.0021973
0.00182796
0.00167458
0.00159617
0.00115309
0.00357897
0.0112156
0.009527
0.00799787
0.00682791
0.00630963
0.00582319
0.0054937
0.00548999
0.00577421
0.00623153
0.00670212
0.00698146
0.00691627
0.00665954
0.00672335
0.00743608
0.00802097
0.00832519
0.00831073
0.00797988
0.00740809
0.00670453
0.00599541
0.00540642
0.00499371
0.0047154
0.00451555
0.00436759
0.00426792
0.00422372
0.00422569
0.00411257
0.00377568
0.00344714
0.0032641
0.003344
0.00353
0.0041931
0.00178523
0.00350477
0.00423041
0.0046753
0.00492486
0.00496213
0.00488889
0.0048923
0.00510039
0.0055202
0.00605387
0.00659917
0.00702797
0.00716451
0.00691716
0.00684663
0.00720814
0.00762621
0.00776934
0.00766523
0.00730199
0.00669367
0.00594249
0.00519269
0.00457761
0.0041523
0.00388144
0.00369973
0.00356168
0.00344396
0.00333341
0.00321995
0.00309533
0.00298234
0.00288457
0.00281976
0.00278317
0.00271362
0.00257062
0.00239702
0.00166669
0.00157983
0.00276062
0.00377668
0.0045722
0.00530085
0.00600982
0.00657126
0.00694695
0.00719091
0.00722373
0.00698582
0.00669695
0.00669771
0.00681711
0.00672527
0.00645433
0.0060272
0.00545219
0.00479066
0.00414463
0.00363048
0.00328425
0.003072
0.00294169
0.00285518
0.00279217
0.00274382
0.0027081
0.00268803
0.00269431
0.00271003
0.00272402
0.00272475
0.00268163
0.00254863
0.00231435
0.00202417
0.00134113
0.00238086
0.00465349
0.00595106
0.00679152
0.00744516
0.00749557
0.00710356
0.00670943
0.00637229
0.00573425
0.0052804
0.00517463
0.00510288
0.00490301
0.00460195
0.00422882
0.00379136
0.00333118
0.00291635
0.00259357
0.00237115
0.00224297
0.00218293
0.00217
0.00219126
0.0022385
0.0023045
0.00238085
0.00247031
0.00257294
0.00268275
0.00279057
0.00287829
0.00292215
0.00288124
0.00284557
0.00261988
0.0013586
0.0024916
0.0025535
0.00260944
0.00289324
0.00272908
0.00241434
0.00203359
0.00172835
0.00154177
0.00136495
0.00120949
0.00108786
0.000984927
0.000906916
0.000852697
0.000813091
0.000781234
0.000753823
0.000731191
0.000715922
0.000710229
0.000714519
0.000727205
0.000745854
0.000769419
0.000797343
0.000829471
0.000865987
0.000907499
0.000955303
0.00100969
0.00107027
0.00113734
0.00121122
0.00129193
0.00138865
0.00143095
0.00140162
0.00130369
0.00120559
)
;

boundaryField
{
    floor
    {
        type            compressible::alphatWallFunction;
        Prt             0.85;
        value           nonuniform List<scalar> 
36
(
0.000160683
7.82004e-05
9.26077e-05
0.000105492
0.000110105
0.000108342
0.000101192
9.32127e-05
8.6005e-05
7.97047e-05
7.41857e-05
6.93281e-05
6.50456e-05
6.12213e-05
5.77149e-05
5.4367e-05
5.09824e-05
4.89594e-05
4.41639e-05
4.41633e-05
6.10623e-05
7.35486e-05
8.56304e-05
0.00011568
0.000122504
0.000133176
0.000160681
0.000210146
0.000175549
0.000143834
7.81995e-05
0.000143833
7.75171e-05
0.000169331
0.000121565
0.000194173
)
;
    }
    ceiling
    {
        type            compressible::alphatWallFunction;
        Prt             0.85;
        value           nonuniform List<scalar> 
43
(
0.000340274
0.000348137
0.000355228
0.000391035
0.000370452
0.000330567
0.000281549
0.00024153
0.000216689
0.000192834
0.000171568
0.000154711
0.000140275
0.000129217
0.000121465
0.000115766
0.000111158
0.000107175
0.000103873
0.000101639
0.000100804
0.000101433
0.000103291
0.000106014
0.000109444
0.000113492
0.000118128
0.000123372
0.000129302
0.000136091
0.000143768
0.000152261
0.0001616
0.000171814
0.000182892
0.000196065
0.000201794
0.000197824
0.000184501
0.000171043
0.000467119
0.000555337
0.000326056
)
;
    }
    sWall
    {
        type            compressible::alphatWallFunction;
        Prt             0.85;
        value           uniform 0.000339031;
    }
    nWall
    {
        type            compressible::alphatWallFunction;
        Prt             0.85;
        value           nonuniform List<scalar> 6(0.000132957 0.000137898 0.000163425 0.000189266 0.000191642 0.000170702);
    }
    sideWalls
    {
        type            empty;
    }
    glass1
    {
        type            compressible::alphatWallFunction;
        Prt             0.85;
        value           nonuniform List<scalar> 9(0.000171655 0.000229163 0.000275988 0.000320287 0.000364869 0.000411952 0.000457743 0.00046881 0.000459996);
    }
    glass2
    {
        type            compressible::alphatWallFunction;
        Prt             0.85;
        value           nonuniform List<scalar> 2(0.000247083 0.00023154);
    }
    sun
    {
        type            compressible::alphatWallFunction;
        Prt             0.85;
        value           nonuniform List<scalar> 
14
(
0.000176205
0.000191374
0.000195541
0.000204514
0.000212738
0.000220491
0.000228215
0.000236027
0.000242393
0.000246386
0.000246841
0.000242598
0.000232161
0.000209876
)
;
    }
    Table_master
    {
        type            compressible::alphatWallFunction;
        Prt             0.85;
        value           nonuniform List<scalar> 9(0.00013667 0.000119635 0.000105241 9.3411e-05 8.37365e-05 7.58006e-05 6.92789e-05 6.39537e-05 5.97767e-05);
    }
    Table_slave
    {
        type            compressible::alphatWallFunction;
        Prt             0.85;
        value           nonuniform List<scalar> 9(0.000153695 0.000141056 0.00013237 0.000125916 0.000120428 0.000114947 0.000109713 0.000104151 9.76052e-05);
    }
    inlet
    {
        type            fixedValue;
        value           uniform 1.94e-05;
    }
    outlet
    {
        type            zeroGradient;
    }
}


// ************************************************************************* //
