/*--------------------------------*- C++ -*----------------------------------*\
  =========                 |
  \\      /  F ield         | OpenFOAM: The Open Source CFD Toolbox
   \\    /   O peration     | Website:  https://openfoam.org
    \\  /    A nd           | Version:  6
     \\/     M anipulation  |
\*---------------------------------------------------------------------------*/
FoamFile
{
    version     2.0;
    format      ascii;
    class       volScalarField;
    location    "2220";
    object      k;
}
// * * * * * * * * * * * * * * * * * * * * * * * * * * * * * * * * * * * * * //

dimensions      [0 2 -2 0 0 0 0];

internalField   nonuniform List<scalar> 
458
(
0.00226773
0.002686
0.00280874
0.00308392
0.00334874
0.00360953
0.00388019
0.00416498
0.00440528
0.00455969
0.00457728
0.00441259
0.00402197
0.00325477
0.00187334
0.000457599
0.000628866
0.000808331
0.000878813
0.000851518
0.000745693
0.000636789
0.000546623
0.000474079
0.000415258
0.000367082
0.000327362
0.000294041
0.000265249
0.000239309
0.000214605
0.000200564
0.00016941
0.00412303
0.0075524
0.00415031
0.00437424
0.00471604
0.00513526
0.00563225
0.00619645
0.00680034
0.00731269
0.00758804
0.00753075
0.00712355
0.00635467
0.00513859
0.00326398
0.00224656
0.0014955
0.00045027
0.000973099
0.00130321
0.0014583
0.00147264
0.00125931
0.0010243
0.000833987
0.000688727
0.000577315
0.000490659
0.000421509
0.000364693
0.000317431
0.000283503
0.000264379
0.000493898
0.000292764
0.0060951
0.0136498
0.00491152
0.00472505
0.00494159
0.00528596
0.00575069
0.00634063
0.00699357
0.00755014
0.00789206
0.00794934
0.007693
0.00706038
0.00603693
0.00488816
0.00391841
0.00208612
0.00106826
0.00139967
0.00160351
0.00173029
0.0017227
0.00134706
0.0010325
0.000802588
0.00063757
0.000518236
0.000430591
0.000365324
0.000316467
0.000280888
0.000262134
0.000265438
0.00078036
0.000408878
0.00835903
0.0222367
0.00592703
0.00470713
0.00474665
0.0050166
0.00547372
0.00616798
0.00689231
0.00746276
0.00783344
0.00795319
0.00774795
0.00714546
0.00628674
0.00543536
0.00463206
0.0035001
0.00276874
0.00250686
0.00237404
0.00233807
0.00228944
0.00215173
0.00170936
0.00143631
0.00126392
0.00114375
0.00104681
0.000954741
0.000871213
0.000787101
0.00069419
0.00053019
0.000422746
0.00113249
0.000542382
0.0110412
0.0339576
0.00842363
0.00474991
0.00448305
0.00470824
0.00529961
0.00635505
0.00718493
0.00773939
0.00809487
0.00819696
0.00790013
0.00718231
0.00621584
0.00530901
0.0045795
0.00397828
0.00379452
0.00347936
0.00325239
0.00307051
0.00285905
0.00259012
0.00230259
0.00210654
0.00198652
0.00189183
0.00178979
0.00166103
0.00149184
0.0012991
0.00109385
0.000865672
0.000664753
0.000922193
0.00106384
0.000969444
0.00108637
0.00128348
0.0143256
0.0466888
0.0149489
0.00592293
0.00474243
0.0047833
0.00570734
0.00726669
0.00803174
0.00847415
0.0087384
0.00874738
0.00831993
0.00737848
0.00612426
0.00496583
0.00418334
0.00384137
0.00381375
0.00382281
0.00373162
0.00350849
0.00318894
0.0028346
0.00254762
0.0023952
0.0023216
0.00226301
0.00218492
0.00206506
0.00187828
0.0016488
0.00140027
0.00114674
0.00093557
0.000900679
0.00103002
0.00105444
0.00165137
0.00138073
0.0179764
0.0550468
0.0270753
0.0123589
0.00830757
0.00741172
0.00850442
0.00920935
0.00948563
0.00964532
0.00972938
0.0095832
0.00894678
0.00770895
0.00610978
0.00469845
0.00388651
0.00373555
0.0038979
0.00398232
0.00385323
0.00355005
0.00317064
0.00281161
0.00256723
0.0024684
0.00245156
0.00245688
0.00245481
0.0024244
0.00233587
0.00214713
0.00191054
0.00165887
0.00145713
0.00136452
0.0014509
0.00168145
0.00223389
0.0019488
0.018941
0.0568479
0.0383019
0.0271706
0.019741
0.0158798
0.0137247
0.0122881
0.0115359
0.0112118
0.0110092
0.0106094
0.00964613
0.00799449
0.0059739
0.00439207
0.00367695
0.00365496
0.00377945
0.0037498
0.0035165
0.00316979
0.00281983
0.00255033
0.00240793
0.00238367
0.0024313
0.00251746
0.00263027
0.00276719
0.0029255
0.0030669
0.00310916
0.00313888
0.00329202
0.00386906
0.00511963
0.00681595
0.0128318
0.00467701
0.018204
0.0264668
0.0243623
0.0217106
0.0188863
0.0164643
0.0146538
0.0135901
0.0130861
0.012767
0.0123561
0.0115953
0.0100706
0.00776873
0.00515907
0.00385726
0.00340225
0.00330924
0.00325269
0.00309103
0.00282318
0.00252752
0.00228241
0.00213418
0.00208889
0.00212324
0.00220959
0.00233308
0.00249007
0.0026817
0.00290935
0.00317117
0.00348968
0.00390095
0.00444794
0.00509771
0.0056969
0.00606903
0.00624821
0.00408116
0.0071852
0.0110953
0.0135431
0.0147731
0.0154366
0.015707
0.0153762
0.0144504
0.0132112
0.0115849
0.0088101
0.00585902
0.00403631
0.00322546
0.00288131
0.00270022
0.00252793
0.00231818
0.00209088
0.00188811
0.00175207
0.00169317
0.00169793
0.00174775
0.00182983
0.0019393
0.00207753
0.00225115
0.00247287
0.00276577
0.00313121
0.00356696
0.00405089
0.00449043
0.0047126
0.00457278
0.00410671
0.00264226
0.008051
0.0194682
0.0216087
0.0214986
0.0207261
0.0184755
0.0153368
0.0120142
0.00883235
0.00623555
0.00435114
0.00326403
0.00271644
0.00241274
0.00221107
0.00203305
0.00184828
0.00166528
0.00150956
0.00139915
0.00133841
0.00132646
0.00135521
0.00141897
0.00151613
0.00164811
0.00181816
0.0020306
0.00229601
0.00262441
0.00302442
0.00349682
0.00401534
0.0045122
0.00481686
0.0051015
0.00428729
0.00271135
0.00890519
0.00935065
0.0097646
0.0120868
0.0107996
0.00848172
0.00603651
0.00437006
0.00348191
0.00273144
0.00214583
0.00173645
0.00142368
0.00120723
0.00106728
0.000970484
0.000895961
0.000834215
0.000784895
0.000752467
0.000740551
0.000749527
0.000776379
0.000816709
0.000869129
0.000933356
0.00101008
0.00110097
0.00120905
0.00133979
0.0014967
0.00168168
0.00189907
0.00215383
0.00245053
0.00283136
0.00300671
0.00288484
0.00249586
0.00213495
)
;

boundaryField
{
    floor
    {
        type            kqRWallFunction;
        value           nonuniform List<scalar> 
36
(
0.00187334
0.000457599
0.000628866
0.000808331
0.000878813
0.000851518
0.000745693
0.000636789
0.000546623
0.000474079
0.000415258
0.000367082
0.000327362
0.000294041
0.000265249
0.000239309
0.000214605
0.000200564
0.00016941
0.00016941
0.000292764
0.000408878
0.000542382
0.000969444
0.00108637
0.00128348
0.00187334
0.00326398
0.00224656
0.0014955
0.000457599
0.0014955
0.00045027
0.00208612
0.00106826
0.00276874
)
;
    }
    ceiling
    {
        type            kqRWallFunction;
        value           nonuniform List<scalar> 
43
(
0.00890519
0.00935065
0.0097646
0.0120868
0.0107996
0.00848172
0.00603651
0.00437006
0.00348191
0.00273144
0.00214583
0.00173645
0.00142368
0.00120723
0.00106728
0.000970484
0.000895961
0.000834215
0.000784895
0.000752467
0.000740551
0.000749527
0.000776379
0.000816709
0.000869129
0.000933356
0.00101008
0.00110097
0.00120905
0.00133979
0.0014967
0.00168168
0.00189907
0.00215383
0.00245053
0.00283136
0.00300671
0.00288484
0.00249586
0.00213495
0.018204
0.0264668
0.008051
)
;
    }
    sWall
    {
        type            kqRWallFunction;
        value           uniform 0.00890519;
    }
    nWall
    {
        type            kqRWallFunction;
        value           nonuniform List<scalar> 6(0.00128348 0.00138073 0.0019488 0.00264226 0.00271135 0.00213495);
    }
    sideWalls
    {
        type            empty;
    }
    glass1
    {
        type            kqRWallFunction;
        value           nonuniform List<scalar> 9(0.00226773 0.00412303 0.0060951 0.00835903 0.0110412 0.0143256 0.0179764 0.018941 0.018204);
    }
    glass2
    {
        type            kqRWallFunction;
        value           nonuniform List<scalar> 2(0.00467701 0.00408116);
    }
    sun
    {
        type            kqRWallFunction;
        value           nonuniform List<scalar> 
14
(
0.00226773
0.002686
0.00280874
0.00308392
0.00334874
0.00360953
0.00388019
0.00416498
0.00440528
0.00455969
0.00457728
0.00441259
0.00402197
0.00325477
)
;
    }
    Table_master
    {
        type            kqRWallFunction;
        value           nonuniform List<scalar> 9(0.00134706 0.0010325 0.000802588 0.00063757 0.000518236 0.000430591 0.000365324 0.000316467 0.000280888);
    }
    Table_slave
    {
        type            kqRWallFunction;
        value           nonuniform List<scalar> 9(0.00170936 0.00143631 0.00126392 0.00114375 0.00104681 0.000954741 0.000871213 0.000787101 0.00069419);
    }
    inlet
    {
        type            turbulentIntensityKineticEnergyInlet;
        intensity       0.05;
        value           uniform 0.000937501;
    }
    outlet
    {
        type            zeroGradient;
    }
}


// ************************************************************************* //
