/*--------------------------------*- C++ -*----------------------------------*\
  =========                 |
  \\      /  F ield         | OpenFOAM: The Open Source CFD Toolbox
   \\    /   O peration     | Website:  https://openfoam.org
    \\  /    A nd           | Version:  6
     \\/     M anipulation  |
\*---------------------------------------------------------------------------*/
FoamFile
{
    version     2.0;
    format      ascii;
    class       volScalarField;
    location    "35699.9999982859226";
    object      alphat;
}
// * * * * * * * * * * * * * * * * * * * * * * * * * * * * * * * * * * * * * //

dimensions      [1 -1 -1 0 0 0 0];

internalField   nonuniform List<scalar> 
778
(
0.00104102
0.00111058
0.00110656
0.00115458
0.00119858
0.00123853
0.00127573
0.00131159
0.0013477
0.00138609
0.00142271
0.00145753
0.00149184
0.00152875
0.00156727
0.000736704
0.00105579
0.00106434
0.00103857
0.000995444
0.000937793
0.000880363
0.000827505
0.000779881
0.000737187
0.000699133
0.000664944
0.000633793
0.000604714
0.000576413
0.000546821
0.000522233
0.000472669
0.0015247
0.00300741
0.0026394
0.00304652
0.0033419
0.003655
0.00396726
0.00425499
0.0044866
0.00462147
0.00470085
0.00466844
0.004436
0.00385961
0.0028191
0.00171626
0.00163636
0.00156641
0.00131889
0.00224674
0.00311455
0.0036272
0.00365123
0.00288093
0.00246394
0.00217478
0.00195522
0.00178059
0.0016318
0.00150029
0.00137791
0.00125817
0.00115071
0.00105804
0.00119147
0.000599356
0.0019342
0.00419898
0.0031134
0.00445344
0.00497615
0.00541833
0.00581979
0.00617301
0.00647223
0.00670691
0.00693447
0.00717427
0.00739517
0.00752753
0.0074424
0.00681601
0.00498587
0.00192157
0.00166351
0.00355808
0.00496654
0.00563392
0.00512511
0.00135238
0.00117599
0.00103983
0.000933258
0.00084844
0.000779992
0.000724183
0.000678807
0.000643433
0.000707259
0.000831891
0.00131674
0.000681948
0.00232918
0.00565873
0.00297907
0.00500688
0.00578071
0.00619447
0.00649847
0.00672318
0.00689075
0.00702661
0.0072201
0.00754756
0.00802596
0.00862814
0.00923419
0.0095343
0.00895574
0.00668525
0.00191349
0.00442713
0.00658801
0.00768824
0.00796166
0.00679904
0.00153943
0.00140035
0.00129268
0.00120306
0.00112667
0.00105805
0.000993375
0.000929159
0.000859828
0.000803143
0.000832258
0.0014249
0.000751077
0.00271847
0.00749094
0.00300568
0.00475912
0.00594884
0.00630155
0.00642924
0.00643367
0.00636922
0.00631217
0.0063929
0.00671082
0.00729493
0.00812275
0.00908321
0.00996845
0.0105301
0.010524
0.00944445
0.00960815
0.00982845
0.00986051
0.00966164
0.00904515
0.00719982
0.00622009
0.00554881
0.0050039
0.00446878
0.00395009
0.00344251
0.00293561
0.00241499
0.00185516
0.00141589
0.00141323
0.0011186
0.000895405
0.00117618
0.00113251
0.00310143
0.00954119
0.00353871
0.00401287
0.00569923
0.00609064
0.00605889
0.00584029
0.00552803
0.00527048
0.00526449
0.00559754
0.00626307
0.00722298
0.00834639
0.00946889
0.0104231
0.0110325
0.0111431
0.0110308
0.010835
0.010558
0.0102022
0.00974948
0.00908817
0.00845065
0.00787157
0.0073122
0.00670761
0.00606161
0.00537148
0.0046315
0.00383705
0.0029943
0.00223199
0.00167602
0.00130175
0.00145225
0.00251477
0.00135629
0.00349221
0.0114363
0.0047157
0.00328757
0.00512039
0.00576077
0.00568938
0.00533606
0.00482377
0.00437321
0.00435997
0.00478047
0.00554242
0.006616
0.00783689
0.00904513
0.0100841
0.0108274
0.0111687
0.0111415
0.0108965
0.0105259
0.010102
0.0096792
0.00927033
0.00889496
0.0085422
0.008166
0.0077112
0.00716357
0.00651518
0.00576299
0.00490979
0.00397743
0.0030669
0.00222012
0.00163621
0.00145529
0.00255725
0.00159528
0.00382796
0.0128689
0.00642855
0.00313097
0.00405545
0.00510628
0.00525299
0.00496292
0.00435709
0.00374502
0.00388343
0.00443976
0.00529242
0.00639914
0.00766817
0.00893322
0.0100109
0.0107584
0.0110971
0.0110516
0.0107349
0.0102683
0.0097667
0.00932199
0.00897929
0.00873444
0.00854342
0.00833601
0.00804704
0.00764259
0.0071069
0.0064367
0.00563812
0.00473494
0.00379701
0.00285546
0.00200554
0.00134268
0.00360848
0.00207262
0.00392911
0.0121732
0.00795121
0.00404869
0.00274985
0.00336775
0.00394189
0.00399108
0.00352378
0.00342478
0.00378037
0.00443503
0.00535784
0.00653251
0.00786328
0.00916742
0.0102408
0.0109298
0.0111706
0.0110025
0.0105434
0.00994159
0.00934444
0.00886804
0.0085658
0.0084175
0.00835014
0.00827025
0.00810366
0.00781116
0.00737723
0.00680002
0.00608647
0.00525604
0.00434675
0.0033302
0.00196011
0.00168776
0.00539927
0.0023824
0.00384955
0.00980983
0.00820772
0.00555491
0.00367008
0.00284124
0.00268991
0.00281595
0.0030526
0.00342908
0.00396382
0.00470138
0.00570617
0.00697371
0.0083773
0.00969938
0.0107155
0.0112731
0.0113293
0.010952
0.0102891
0.00952596
0.00884418
0.00837705
0.00816333
0.00813858
0.00818466
0.00818349
0.00807472
0.00783694
0.00746292
0.0069517
0.00630696
0.00553554
0.00460857
0.00317709
0.00145103
0.00330304
0.00516929
0.00240534
0.00360573
0.00838239
0.00793315
0.0063539
0.00489203
0.00393907
0.0034672
0.00336004
0.00355478
0.00391386
0.00443713
0.00521685
0.00632774
0.00771799
0.00919241
0.0104847
0.011358
0.01168
0.0114484
0.0107783
0.00986845
0.00895617
0.0082618
0.00791387
0.00787481
0.00798933
0.0081034
0.00810531
0.00798975
0.00775884
0.00740807
0.00693065
0.00632132
0.00556533
0.00453816
0.00264646
0.00168657
0.00373712
0.0048533
0.00236492
0.00328283
0.00755715
0.00765097
0.00672356
0.00572161
0.00496667
0.0045219
0.00436299
0.00440252
0.00461972
0.00510165
0.00597451
0.0072598
0.00879893
0.010302
0.0114605
0.012052
0.0119968
0.0113612
0.0103301
0.0091785
0.00821456
0.00766946
0.00756203
0.00766014
0.00781004
0.00790684
0.00787868
0.00774426
0.00751165
0.00717181
0.00670301
0.00608688
0.00529105
0.00418773
0.00238237
0.00185087
0.00387476
0.00516326
0.00232533
0.00299323
0.00675939
0.00730448
0.00686748
0.00622508
0.00568493
0.0053256
0.00514987
0.0050982
0.00528575
0.00590012
0.00704231
0.00859701
0.0102594
0.0116582
0.0124888
0.0125974
0.0119988
0.0108618
0.00946733
0.00820063
0.00739168
0.00704433
0.00701143
0.00711541
0.00724221
0.00731841
0.00729298
0.00715778
0.00692476
0.00657713
0.00607836
0.00538489
0.00447447
0.00338603
0.00223999
0.00200441
0.00397118
0.00542897
0.00245029
0.00300418
0.0067086
0.00746339
0.00694977
0.00642977
0.00600384
0.00569673
0.00549763
0.00549211
0.00594819
0.00703295
0.00865053
0.0104689
0.0120642
0.0130689
0.013274
0.0126658
0.0113882
0.00975748
0.00817719
0.00703669
0.00638241
0.00608972
0.00602476
0.00607492
0.00615438
0.00620647
0.00618995
0.00604867
0.00579437
0.00538907
0.00476834
0.00391176
0.00297185
0.00227314
0.00202423
0.00241132
0.00436412
0.00542657
0.00251548
0.00271015
0.00281999
0.0041656
0.00489776
0.00512508
0.00512973
0.00508115
0.00517913
0.00581421
0.00716454
0.00906087
0.0110992
0.012828
0.0138777
0.0140422
0.0132951
0.0118213
0.00989442
0.00805843
0.00663433
0.00569903
0.00517653
0.00493925
0.0048512
0.00481795
0.00478869
0.00474144
0.00466251
0.00449347
0.00420722
0.00377074
0.00315451
0.00248495
0.00204764
0.00200412
0.00232565
0.00309317
0.00495724
0.00578071
0.00253077
0.000964601
0.00173898
0.00266688
0.00340973
0.00427387
0.00574883
0.00791747
0.0103204
0.0124968
0.0141041
0.0149135
0.0147869
0.0137481
0.0119184
0.00976207
0.00773505
0.0061486
0.00510585
0.00454567
0.00427566
0.00412836
0.0040129
0.00389141
0.00375419
0.00360543
0.00345201
0.00328961
0.00307469
0.00279925
0.00246808
0.00218962
0.00214293
0.00240977
0.00295091
0.0037409
0.00479066
0.00544089
0.00242125
0.00178732
0.00246728
0.00358679
0.00558919
0.00831101
0.0110334
0.0131412
0.0146526
0.0155472
0.0157586
0.0151746
0.0136963
0.0115641
0.00919812
0.00707158
0.00552079
0.00464136
0.00423944
0.00406087
0.00395519
0.00386036
0.00375702
0.00364466
0.00353029
0.00342133
0.00332056
0.00322191
0.00310896
0.00297689
0.00283787
0.00274089
0.00278988
0.00307625
0.00359373
0.00423423
0.00474842
0.00476637
0.00234942
0.00323892
0.00786485
0.00725211
0.00648168
0.00822168
0.0109513
0.0132514
0.0148006
0.0156118
0.0157984
0.0154411
0.0145016
0.0129447
0.0108463
0.00853324
0.00651841
0.00522078
0.0046065
0.00436484
0.00425638
0.00417343
0.00407965
0.00396931
0.0038498
0.00373428
0.00363762
0.00357285
0.00354723
0.0035583
0.003588
0.00361107
0.00363695
0.00369905
0.00384728
0.0041439
0.00463403
0.00530825
0.00606466
0.00643083
0.00249274
0.00309562
0.00597861
0.00771675
0.00987481
0.010952
0.0120629
0.0127075
0.0128604
0.01261
0.0120118
0.011077
0.00979717
0.00824254
0.00665194
0.00537186
0.0045957
0.00423958
0.00410363
0.00404694
0.00400142
0.0039403
0.0038576
0.00375822
0.00365374
0.003561
0.00350091
0.00349551
0.00356259
0.00370873
0.00391988
0.00414404
0.00432434
0.00450486
0.00474742
0.00510972
0.00563728
0.00635872
0.00738429
0.0069721
0.00275769
0.00289433
0.00248079
0.00246809
0.0025395
0.00259806
0.00251868
0.00236563
0.00218612
0.00200377
0.00182735
0.00166033
0.0015087
0.00138358
0.00129643
0.00124967
0.00123401
0.00123478
0.00124242
0.0012525
0.00126358
0.00127597
0.00129111
0.00131123
0.00133886
0.00137615
0.001424
0.00148142
0.00154572
0.00161354
0.00168223
0.00175114
0.00182129
0.00189284
0.00196985
0.00205693
0.00215623
0.00226552
0.00238605
0.00252962
0.00251225
)
;

boundaryField
{
    floor
    {
        type            compressible::alphatWallFunction;
        Prt             0.85;
        value           nonuniform List<scalar> 
36
(
0.000219875
0.000104465
0.000149995
0.000151189
0.000147582
0.000141522
0.000133373
0.000125197
0.000117616
0.000110736
0.000104526
9.8955e-05
9.39184e-05
8.93018e-05
8.49673e-05
8.07242e-05
7.62602e-05
7.25284e-05
6.4939e-05
6.49382e-05
8.41671e-05
9.64286e-05
0.000106553
0.000127348
0.000166756
0.00016071
0.000219873
0.000239705
0.000229093
0.000219755
0.000104464
0.000219752
0.000186322
0.000266724
0.000232697
0.000265666
)
;
    }
    ceiling
    {
        type            compressible::alphatWallFunction;
        Prt             0.85;
        value           nonuniform List<scalar> 
43
(
0.000391126
0.000338918
0.000337307
0.000346398
0.000353842
0.000343807
0.000324326
0.000301292
0.000277675
0.000254594
0.000232509
0.000212233
0.000195322
0.000183441
0.000177033
0.000174887
0.000174997
0.000176054
0.000177447
0.000178972
0.000180669
0.000182732
0.000185461
0.000189199
0.000194237
0.000200693
0.000208432
0.000217082
0.000226183
0.000235373
0.000244551
0.000253856
0.000263302
0.000273404
0.00028476
0.000297639
0.000311744
0.000327222
0.000345519
0.000343209
0.000368305
0.000382113
0.000248608
)
;
    }
    sWall
    {
        type            compressible::alphatWallFunction;
        Prt             0.85;
        value           nonuniform List<scalar> 9(0.000507614 0.00047787 0.000438163 0.000402216 0.000403573 0.000366729 0.000432097 0.000414378 0.000389375);
    }
    nWall
    {
        type            compressible::alphatWallFunction;
        Prt             0.85;
        value           nonuniform List<scalar> 
14
(
0.000160262
0.000190974
0.000223157
0.000328806
0.000323664
0.000318694
0.000334844
0.000343028
0.000344855
0.000330806
0.000321657
0.000340474
0.000373583
0.000342515
)
;
    }
    sideWalls
    {
        type            empty;
    }
    glass1
    {
        type            compressible::alphatWallFunction;
        Prt             0.85;
        value           nonuniform List<scalar> 9(0.000143932 0.00020914 0.000262699 0.00031331 0.000362386 0.000410011 0.000458022 0.00049888 0.000511237);
    }
    glass2
    {
        type            compressible::alphatWallFunction;
        Prt             0.85;
        value           nonuniform List<scalar> 2(0.000283766 0.000323527);
    }
    sun
    {
        type            compressible::alphatWallFunction;
        Prt             0.85;
        value           nonuniform List<scalar> 
14
(
0.000147966
0.000157651
0.000157091
0.000163756
0.000169836
0.000175335
0.000180437
0.000185339
0.00019026
0.000195474
0.000200434
0.000205135
0.000209757
0.000214715
)
;
    }
    Table_master
    {
        type            compressible::alphatWallFunction;
        Prt             0.85;
        value           nonuniform List<scalar> 9(0.00019115 0.000166967 0.000148014 0.000132978 0.000120869 0.000110991 0.000102861 9.61946e-05 9.09603e-05);
    }
    Table_slave
    {
        type            compressible::alphatWallFunction;
        Prt             0.85;
        value           nonuniform List<scalar> 9(0.000216415 0.000197668 0.000183012 0.000170707 0.000160135 0.000150569 0.000141486 0.000132399 0.000122505);
    }
    inlet
    {
        type            fixedValue;
        value           uniform 1.94e-05;
    }
    outlet
    {
        type            zeroGradient;
    }
}


// ************************************************************************* //
