/*--------------------------------*- C++ -*----------------------------------*\
  =========                 |
  \\      /  F ield         | OpenFOAM: The Open Source CFD Toolbox
   \\    /   O peration     | Website:  https://openfoam.org
    \\  /    A nd           | Version:  6
     \\/     M anipulation  |
\*---------------------------------------------------------------------------*/
FoamFile
{
    version     2.0;
    format      ascii;
    class       volVectorField;
    location    "35699.9999982859226";
    object      U;
}
// * * * * * * * * * * * * * * * * * * * * * * * * * * * * * * * * * * * * * //

dimensions      [0 1 -1 0 0 0 0];

internalField   nonuniform List<vector> 
778
(
(0.0655988 0.0794067 0)
(-0.155176 0.0157636 0)
(-0.1643 0.0146218 0)
(-0.192412 0.012272 0)
(-0.216843 0.00872252 0)
(-0.236898 0.00474278 0)
(-0.252023 0.000417384 0)
(-0.261793 -0.00436639 0)
(-0.265696 -0.00980737 0)
(-0.262728 -0.0161863 0)
(-0.250933 -0.024259 0)
(-0.226242 -0.0348781 0)
(-0.186126 -0.0504006 0)
(-0.144189 -0.0751723 0)
(-0.150066 -0.108567 0)
(0.0546649 0.0355127 0)
(0.0157841 -0.0268994 0)
(0.045002 -0.0232862 0)
(0.0694436 -0.016181 0)
(0.0845414 -0.0103692 0)
(0.0917735 -0.0064185 0)
(0.0946122 -0.00433528 0)
(0.0956398 -0.00331373 0)
(0.0960897 -0.00272878 0)
(0.096262 -0.00231659 0)
(0.0961401 -0.00195221 0)
(0.0956149 -0.00151104 0)
(0.094356 -0.000755793 0)
(0.0915043 0.000850593 0)
(0.0852895 0.00407803 0)
(0.0737279 0.00779426 0)
(0.0600233 0.0116509 0)
(-0.00785308 0.0300213 0)
(0.258398 0.167393 0)
(-0.161235 0.0483904 0)
(-0.1416 0.0459744 0)
(-0.173999 0.0416069 0)
(-0.199356 0.0356597 0)
(-0.22007 0.0291225 0)
(-0.236096 0.0220545 0)
(-0.247347 0.0142289 0)
(-0.253526 0.00530151 0)
(-0.253852 -0.00514406 0)
(-0.247708 -0.0170732 0)
(-0.234014 -0.0308438 0)
(-0.214116 -0.0480752 0)
(-0.197547 -0.0699642 0)
(-0.194041 -0.0826453 0)
(-0.16644 -0.0425445 0)
(-0.105386 -0.0363661 0)
(-0.098321 -0.044476 0)
(0.109348 -0.042125 0)
(0.0644689 -0.0412238 0)
(0.0719447 -0.0323366 0)
(0.0859703 -0.0207887 0)
(0.093923 -0.0105306 0)
(0.0961918 -0.00365379 0)
(0.0959596 -0.000186184 0)
(0.095565 0.00125725 0)
(0.0955225 0.00189679 0)
(0.0956001 0.00226561 0)
(0.0956065 0.00258724 0)
(0.0955067 0.00313178 0)
(0.0952162 0.00441693 0)
(0.0939583 0.00773871 0)
(0.0883569 0.0167848 0)
(0.0745834 0.0253935 0)
(0.0631914 0.0330494 0)
(-0.0518337 0.0636692 0)
(0.429977 0.253955 0)
(-0.194235 0.0847573 0)
(-0.112777 0.078422 0)
(-0.148237 0.0669412 0)
(-0.170663 0.0554848 0)
(-0.18875 0.0437149 0)
(-0.202582 0.0313384 0)
(-0.212272 0.0180109 0)
(-0.217624 0.00341196 0)
(-0.217987 -0.0126122 0)
(-0.212739 -0.0303029 0)
(-0.20164 -0.0498929 0)
(-0.186002 -0.0715648 0)
(-0.169462 -0.0932203 0)
(-0.151085 -0.104576 0)
(-0.120241 -0.0931479 0)
(-0.0795397 -0.0949421 0)
(-0.0714207 -0.107602 0)
(0.0921713 -0.0881807 0)
(0.0626002 -0.0658138 0)
(0.0744127 -0.0462194 0)
(0.0880759 -0.0293642 0)
(0.0949652 -0.015039 0)
(0.0921061 -0.0120898 0)
(0.0878652 -0.00797305 0)
(0.0854892 -0.00578315 0)
(0.0847988 -0.00455643 0)
(0.0847768 -0.00379609 0)
(0.0850305 -0.00322638 0)
(0.0856815 -0.00259973 0)
(0.0874445 -0.00143834 0)
(0.0921363 0.00292663 0)
(0.0903069 0.0251306 0)
(0.0735089 0.0424285 0)
(0.0701917 0.0576192 0)
(-0.0897526 0.10111 0)
(0.578542 0.325841 0)
(-0.240106 0.121808 0)
(-0.080834 0.109209 0)
(-0.121571 0.0898344 0)
(-0.138999 0.0740484 0)
(-0.153054 0.0586179 0)
(-0.163808 0.0427425 0)
(-0.171399 0.0258098 0)
(-0.175608 0.00721039 0)
(-0.175675 -0.0135092 0)
(-0.170991 -0.0364445 0)
(-0.161427 -0.0614353 0)
(-0.147559 -0.0873653 0)
(-0.130574 -0.110308 0)
(-0.109607 -0.123212 0)
(-0.082119 -0.124547 0)
(-0.0525011 -0.12637 0)
(-0.0333708 -0.123194 0)
(0.0163896 -0.0568176 0)
(0.0608563 -0.0930381 0)
(0.0685178 -0.0792401 0)
(0.0791369 -0.0589144 0)
(0.0916282 -0.0397029 0)
(0.10296 -0.021056 0)
(0.115718 -0.0133002 0)
(0.126942 -0.00887426 0)
(0.132604 -0.00563949 0)
(0.13363 -0.00311897 0)
(0.131131 -0.000887503 0)
(0.125686 0.00128528 0)
(0.117171 0.00366688 0)
(0.10482 0.00672139 0)
(0.0855818 0.0111515 0)
(0.071705 0.0368369 0)
(0.0604404 0.0606173 0)
(0.0764623 0.0835471 0)
(-0.117176 0.137571 0)
(0.705718 0.38368 0)
(-0.287681 0.157005 0)
(-0.0476985 0.133766 0)
(-0.0962912 0.106898 0)
(-0.107739 0.0875726 0)
(-0.116767 0.0691537 0)
(-0.123551 0.0504358 0)
(-0.128205 0.0305879 0)
(-0.13056 0.00873718 0)
(-0.129751 -0.0157958 0)
(-0.125251 -0.0430487 0)
(-0.116627 -0.0726606 0)
(-0.1039 -0.102817 0)
(-0.0874156 -0.129095 0)
(-0.0674549 -0.145795 0)
(-0.0441006 -0.152268 0)
(-0.0202337 -0.152363 0)
(0.00031369 -0.143713 0)
(0.0308409 -0.11501 0)
(0.0570154 -0.10938 0)
(0.0706016 -0.0924898 0)
(0.0807374 -0.0713474 0)
(0.090797 -0.0509177 0)
(0.100357 -0.0328854 0)
(0.109492 -0.0194821 0)
(0.116565 -0.0100829 0)
(0.120038 -0.00337287 0)
(0.120278 0.0018936 0)
(0.117896 0.00645022 0)
(0.113263 0.0108104 0)
(0.106411 0.0154842 0)
(0.0972749 0.0211736 0)
(0.0853662 0.0291812 0)
(0.0738418 0.0471945 0)
(0.0634213 0.0712783 0)
(0.0950791 0.0995127 0)
(0.017489 0.13876 0)
(0.0970087 0.182732 0)
(0.140308 0.146898 0)
(-0.222248 0.202028 0)
(0.810419 0.431975 0)
(-0.331317 0.190675 0)
(-0.0173209 0.150233 0)
(-0.0733691 0.1175 0)
(-0.0785925 0.0954885 0)
(-0.0822094 0.0749234 0)
(-0.0844581 0.0543276 0)
(-0.0854892 0.0327158 0)
(-0.0852266 0.00887028 0)
(-0.0825444 -0.0183855 0)
(-0.0773734 -0.0489907 0)
(-0.0687397 -0.0824698 0)
(-0.0567332 -0.11649 0)
(-0.0416587 -0.146316 0)
(-0.0246592 -0.166011 0)
(-0.00625597 -0.174506 0)
(0.0121358 -0.172744 0)
(0.0280583 -0.161 0)
(0.0462228 -0.139327 0)
(0.0626709 -0.122367 0)
(0.0733386 -0.102547 0)
(0.0810118 -0.08053 0)
(0.0877692 -0.0592168 0)
(0.0939597 -0.0403586 0)
(0.0993185 -0.0251812 0)
(0.103051 -0.0138139 0)
(0.104702 -0.00510682 0)
(0.104317 0.00210115 0)
(0.102194 0.00858423 0)
(0.09858 0.0148579 0)
(0.0936352 0.0214462 0)
(0.0875952 0.0289803 0)
(0.0807341 0.0383745 0)
(0.0750126 0.0527778 0)
(0.0698659 0.0727674 0)
(0.0920855 0.0985349 0)
(0.0743133 0.107502 0)
(0.0912616 0.0483127 0)
(0.146407 -0.0352194 0)
(-0.323298 0.106298 0)
(0.879881 0.474688 0)
(-0.368634 0.220959 0)
(0.00370881 0.155543 0)
(-0.0526652 0.121551 0)
(-0.05221 0.0978271 0)
(-0.0510242 0.0757964 0)
(-0.0490127 0.0540243 0)
(-0.0464887 0.0315274 0)
(-0.0432903 0.00677945 0)
(-0.0373179 -0.0222748 0)
(-0.0302336 -0.05533 0)
(-0.0204387 -0.0919035 0)
(-0.00862073 -0.128874 0)
(0.00460081 -0.161249 0)
(0.0176623 -0.18189 0)
(0.0304576 -0.190221 0)
(0.0422716 -0.187224 0)
(0.0525807 -0.174407 0)
(0.0625472 -0.154056 0)
(0.0711156 -0.132415 0)
(0.0766316 -0.109425 0)
(0.0800849 -0.0859598 0)
(0.0826834 -0.0638188 0)
(0.0849332 -0.0443464 0)
(0.0867944 -0.0282582 0)
(0.0879301 -0.0154607 0)
(0.0881076 -0.00517942 0)
(0.0871728 0.00349807 0)
(0.0853003 0.0112498 0)
(0.0826359 0.0185938 0)
(0.0793551 0.0260238 0)
(0.0757417 0.0340349 0)
(0.0722123 0.0431772 0)
(0.0701692 0.0547386 0)
(0.0690542 0.0691241 0)
(0.0822793 0.0881106 0)
(0.0858141 0.0915433 0)
(0.0916719 0.0546665 0)
(0.181429 0.0274745 0)
(-0.27751 0.15625 0)
(0.92792 0.517148 0)
(-0.383148 0.234158 0)
(0.0168832 0.132951 0)
(-0.0273268 0.116627 0)
(-0.0265517 0.0948903 0)
(-0.0227367 0.0723947 0)
(-0.0176132 0.0500731 0)
(-0.0123262 0.0272286 0)
(-0.00533441 0.00183685 0)
(0.00464854 -0.0307302 0)
(0.0143881 -0.0653011 0)
(0.0256994 -0.103298 0)
(0.0373438 -0.140826 0)
(0.0480107 -0.172116 0)
(0.057088 -0.192316 0)
(0.0645678 -0.199804 0)
(0.0702796 -0.195379 0)
(0.0742256 -0.181178 0)
(0.0769151 -0.160091 0)
(0.0782637 -0.136105 0)
(0.077892 -0.111118 0)
(0.0763801 -0.0866331 0)
(0.0745641 -0.064115 0)
(0.0729733 -0.0445535 0)
(0.0717465 -0.0283161 0)
(0.0707435 -0.0151172 0)
(0.0697575 -0.00426194 0)
(0.068493 0.00501811 0)
(0.0670419 0.0132977 0)
(0.0653735 0.0210552 0)
(0.0635644 0.0287065 0)
(0.0618011 0.0365906 0)
(0.0603982 0.0449761 0)
(0.0602618 0.054303 0)
(0.0613476 0.0645135 0)
(0.0704817 0.0772236 0)
(0.0811894 0.0803149 0)
(0.0827835 0.0613249 0)
(0.238934 0.0571834 0)
(-0.545513 0.235278 0)
(1.01128 0.506804 0)
(-0.137156 0.296335 0)
(0.041091 0.161495 0)
(0.0406314 0.12204 0)
(0.0131119 0.0919171 0)
(0.00868984 0.0652988 0)
(0.0141295 0.0413227 0)
(0.0207755 0.0169176 0)
(0.0326133 -0.0110706 0)
(0.044103 -0.0421723 0)
(0.0560008 -0.0769036 0)
(0.0682905 -0.114607 0)
(0.0794223 -0.151056 0)
(0.0878989 -0.180517 0)
(0.0930841 -0.198546 0)
(0.0950997 -0.203719 0)
(0.0943592 -0.197078 0)
(0.0914114 -0.181039 0)
(0.0869318 -0.158651 0)
(0.0813704 -0.133237 0)
(0.0750214 -0.107236 0)
(0.0684898 -0.0824766 0)
(0.0625044 -0.0603055 0)
(0.0575908 -0.0414373 0)
(0.0539412 -0.0259424 0)
(0.0514437 -0.0133164 0)
(0.0498128 -0.00278636 0)
(0.048641 0.00633256 0)
(0.0478703 0.0145344 0)
(0.0472667 0.0222506 0)
(0.0467661 0.0298062 0)
(0.0464011 0.037404 0)
(0.0462934 0.0451133 0)
(0.046899 0.0529315 0)
(0.0483133 0.0603731 0)
(0.0544605 0.0675293 0)
(0.066053 0.0647474 0)
(0.0644508 0.0369511 0)
(0.289452 0.0710642 0)
(-0.745221 0.308371 0)
(0.77931 0.395658 0)
(0.000944623 0.319462 0)
(0.0934389 0.218884 0)
(0.110673 0.155117 0)
(0.0772493 0.106747 0)
(0.0598683 0.0674462 0)
(0.058295 0.0356458 0)
(0.0624836 0.00629472 0)
(0.0739506 -0.023539 0)
(0.0855566 -0.0551154 0)
(0.0977806 -0.0897806 0)
(0.109656 -0.126242 0)
(0.119016 -0.159988 0)
(0.124083 -0.185683 0)
(0.124266 -0.199752 0)
(0.120002 -0.201355 0)
(0.112247 -0.191848 0)
(0.102075 -0.173772 0)
(0.0905269 -0.150156 0)
(0.0784423 -0.124042 0)
(0.0665141 -0.0979791 0)
(0.0554855 -0.0738933 0)
(0.0460952 -0.0530258 0)
(0.0388277 -0.0358089 0)
(0.0337897 -0.0220044 0)
(0.030725 -0.0108163 0)
(0.0291468 -0.00133418 0)
(0.028568 0.00706157 0)
(0.0286765 0.0148073 0)
(0.029128 0.0222627 0)
(0.0297572 0.0296565 0)
(0.0304429 0.0371099 0)
(0.0310418 0.0446225 0)
(0.0314043 0.0520702 0)
(0.0307532 0.0589156 0)
(0.0298293 0.0645748 0)
(0.0151267 0.063958 0)
(0.010145 0.094786 0)
(0.0459129 0.17538 0)
(-0.632783 0.308211 0)
(0.617236 0.220678 0)
(0.00477497 0.298043 0)
(0.113085 0.241498 0)
(0.148369 0.177487 0)
(0.130949 0.12341 0)
(0.117934 0.0777054 0)
(0.115086 0.0387396 0)
(0.117281 0.00323183 0)
(0.123687 -0.0308767 0)
(0.131954 -0.0651237 0)
(0.141671 -0.100548 0)
(0.150558 -0.135348 0)
(0.15567 -0.165164 0)
(0.155081 -0.185667 0)
(0.148483 -0.194551 0)
(0.136785 -0.191832 0)
(0.121459 -0.179239 0)
(0.104006 -0.159333 0)
(0.0857981 -0.135022 0)
(0.0679414 -0.109107 0)
(0.0513899 -0.0840824 0)
(0.0370424 -0.0618349 0)
(0.0256741 -0.0434461 0)
(0.0176005 -0.0289613 0)
(0.0126135 -0.0177333 0)
(0.0100377 -0.00857923 0)
(0.00912241 -0.000523113 0)
(0.00939347 0.00692819 0)
(0.0103397 0.0141004 0)
(0.0116934 0.0212418 0)
(0.0132745 0.028506 0)
(0.0148822 0.0360261 0)
(0.0161837 0.0439176 0)
(0.0166111 0.0523407 0)
(0.0148968 0.0614221 0)
(0.0103599 0.0722862 0)
(-0.0214418 0.0982442 0)
(-0.019895 0.14754 0)
(-0.000253318 0.18644 0)
(-0.543385 0.194361 0)
(0.570784 0.118261 0)
(-0.0202277 0.258539 0)
(0.113734 0.229838 0)
(0.165087 0.175987 0)
(0.166762 0.126072 0)
(0.164436 0.0809475 0)
(0.165447 0.0397854 0)
(0.168436 0.00141715 0)
(0.172435 -0.0355952 0)
(0.178057 -0.0720618 0)
(0.184261 -0.107638 0)
(0.187961 -0.139586 0)
(0.18614 -0.164061 0)
(0.177424 -0.178263 0)
(0.162266 -0.181395 0)
(0.14221 -0.17434 0)
(0.119187 -0.159108 0)
(0.0949483 -0.138124 0)
(0.0710823 -0.11411 0)
(0.0488228 -0.0895775 0)
(0.0293575 -0.0669449 0)
(0.0137484 -0.0479889 0)
(0.00266322 -0.03345 0)
(-0.00421112 -0.0225828 0)
(-0.00768186 -0.0144191 0)
(-0.00912076 -0.00733189 0)
(-0.00922806 -0.000630829 0)
(-0.00829699 0.00594053 0)
(-0.00679751 0.01254 0)
(-0.0048174 0.0193058 0)
(-0.00248392 0.0263682 0)
(7.68761e-05 0.0340025 0)
(0.00253683 0.0424783 0)
(0.00431018 0.0524053 0)
(0.00427005 0.0648931 0)
(0.00276363 0.083356 0)
(-0.0219525 0.123703 0)
(-0.0168626 0.187291 0)
(0.0418907 0.189355 0)
(-0.510041 0.0637512 0)
(0.628522 0.0533989 0)
(0.00930041 0.197225 0)
(0.113763 0.196926 0)
(0.175069 0.15787 0)
(0.191328 0.11757 0)
(0.198 0.0770953 0)
(0.203365 0.0370362 0)
(0.208627 -0.00179388 0)
(0.213207 -0.0399399 0)
(0.217588 -0.0767373 0)
(0.219455 -0.110037 0)
(0.215643 -0.136716 0)
(0.204272 -0.154208 0)
(0.18544 -0.161536 0)
(0.160759 -0.159255 0)
(0.132386 -0.148755 0)
(0.102544 -0.13208 0)
(0.0729359 -0.111314 0)
(0.0453223 -0.0889939 0)
(0.0209057 -0.0673303 0)
(0.00131206 -0.0487301 0)
(-0.0123625 -0.0348992 0)
(-0.0202446 -0.0256727 0)
(-0.0244833 -0.018738 0)
(-0.0263692 -0.0128137 0)
(-0.0268309 -0.00712476 0)
(-0.0263231 -0.00137679 0)
(-0.0249832 0.00451234 0)
(-0.0231727 0.0105724 0)
(-0.0208216 0.0168739 0)
(-0.0179707 0.023542 0)
(-0.0146225 0.0308661 0)
(-0.010849 0.0393502 0)
(-0.00694004 0.0499776 0)
(-0.00368756 0.0647354 0)
(0.00118933 0.0879508 0)
(-0.00425548 0.129735 0)
(-0.00551414 0.200356 0)
(0.136796 0.205192 0)
(-0.402938 0.0680638 0)
(0.472007 0.0747341 0)
(-0.132138 0.137557 0)
(0.0941239 0.133281 0)
(0.17258 0.116735 0)
(0.203689 0.0952107 0)
(0.217984 0.0641751 0)
(0.228008 0.0280795 0)
(0.237156 -0.00933887 0)
(0.243621 -0.0456786 0)
(0.245197 -0.0785347 0)
(0.239267 -0.105266 0)
(0.224489 -0.123852 0)
(0.201395 -0.133478 0)
(0.171898 -0.134601 0)
(0.138559 -0.12846 0)
(0.103643 -0.116307 0)
(0.0694126 -0.0999699 0)
(0.0370484 -0.0810649 0)
(0.00890282 -0.0621272 0)
(-0.0142532 -0.0451773 0)
(-0.0287491 -0.0340169 0)
(-0.037498 -0.0266042 0)
(-0.0422321 -0.021276 0)
(-0.0445506 -0.0167039 0)
(-0.0453001 -0.012257 0)
(-0.0449931 -0.00758309 0)
(-0.0439282 -0.00256364 0)
(-0.0421917 0.00278833 0)
(-0.0401772 0.00835544 0)
(-0.0376795 0.0141306 0)
(-0.0346509 0.0202291 0)
(-0.0309933 0.0269085 0)
(-0.0265833 0.0347078 0)
(-0.02149 0.0448773 0)
(-0.0162927 0.0601787 0)
(-0.00894154 0.0841052 0)
(0.000425638 0.119104 0)
(0.00384056 0.176097 0)
(0.172475 0.191252 0)
(-0.325127 0.132903 0)
(0.723887 0.134435 0)
(0.0818767 0.11522 0)
(0.149653 0.099185 0)
(0.222245 0.0804254 0)
(0.243884 0.0697907 0)
(0.248681 0.0474174 0)
(0.25503 0.017184 0)
(0.261181 -0.0151426 0)
(0.260252 -0.0451425 0)
(0.249802 -0.0698872 0)
(0.229616 -0.0876987 0)
(0.20129 -0.0981449 0)
(0.167207 -0.101568 0)
(0.129892 -0.0989543 0)
(0.0917916 -0.0915364 0)
(0.0543118 -0.0799685 0)
(0.0200469 -0.0658535 0)
(-0.0114391 -0.0503415 0)
(-0.0340514 -0.0382865 0)
(-0.0491794 -0.0301142 0)
(-0.058227 -0.0251547 0)
(-0.0634738 -0.0217155 0)
(-0.0662894 -0.0188208 0)
(-0.0674924 -0.0158527 0)
(-0.0674866 -0.0125296 0)
(-0.0665375 -0.00868823 0)
(-0.0648795 -0.00425289 0)
(-0.0626505 0.000743646 0)
(-0.0603005 0.00603455 0)
(-0.0578932 0.0114396 0)
(-0.0552474 0.0170444 0)
(-0.0523618 0.0230742 0)
(-0.0491916 0.0301348 0)
(-0.0456962 0.0397696 0)
(-0.041914 0.0544861 0)
(-0.035993 0.0748218 0)
(-0.0226627 0.0964907 0)
(-0.0045521 0.12484 0)
(0.183501 0.159748 0)
(-0.342851 0.197248 0)
(0.191997 0.0879984 0)
(0.225766 0.0997638 0)
(0.246478 0.0700348 0)
(0.24253 0.0395589 0)
(0.239718 0.0117717 0)
(0.234663 -0.0132561 0)
(0.21992 -0.0337073 0)
(0.196231 -0.0487992 0)
(0.165975 -0.0585258 0)
(0.131608 -0.0633653 0)
(0.0949168 -0.0636539 0)
(0.0577755 -0.0600869 0)
(0.0220696 -0.0534841 0)
(-0.0129013 -0.0439488 0)
(-0.0404406 -0.0347795 0)
(-0.0612638 -0.0274837 0)
(-0.0753287 -0.023076 0)
(-0.0843672 -0.0206457 0)
(-0.0900541 -0.0193021 0)
(-0.0936548 -0.0181538 0)
(-0.0957655 -0.0168198 0)
(-0.0966513 -0.0150915 0)
(-0.0964327 -0.0128229 0)
(-0.0952142 -0.0098737 0)
(-0.0931559 -0.00611405 0)
(-0.0904678 -0.00148736 0)
(-0.0873421 0.00379923 0)
(-0.0848583 0.00930115 0)
(-0.0826924 0.0150164 0)
(-0.081034 0.0212513 0)
(-0.0799478 0.0286971 0)
(-0.0791607 0.0386014 0)
(-0.0788591 0.0521575 0)
(-0.0793696 0.0680314 0)
(-0.0743362 0.0807268 0)
(-0.0436793 0.0942381 0)
(0.0627141 0.150838 0)
(-0.467082 0.242755 0)
(0.451352 0.209482 0)
(0.20685 0.17871 0)
(0.153149 0.118775 0)
(0.13988 0.0639065 0)
(0.128348 0.0256586 0)
(0.114197 0.00153663 0)
(0.0987164 -0.0132191 0)
(0.0776911 -0.0224145 0)
(0.0531351 -0.0280924 0)
(0.0261835 -0.0306055 0)
(-0.00337748 -0.029838 0)
(-0.0323658 -0.0266535 0)
(-0.0582668 -0.0223543 0)
(-0.0801162 -0.0181693 0)
(-0.0964752 -0.0154767 0)
(-0.108013 -0.0141574 0)
(-0.115932 -0.0139938 0)
(-0.121646 -0.0142417 0)
(-0.125975 -0.0145295 0)
(-0.129254 -0.0146638 0)
(-0.131545 -0.0145523 0)
(-0.13281 -0.0140893 0)
(-0.132983 -0.0131206 0)
(-0.13202 -0.0114264 0)
(-0.129958 -0.00873718 0)
(-0.126948 -0.00479849 0)
(-0.123126 0.000438325 0)
(-0.119098 0.00648287 0)
(-0.116081 0.0128163 0)
(-0.113788 0.0197765 0)
(-0.112011 0.0281947 0)
(-0.110228 0.0391032 0)
(-0.10903 0.0532503 0)
(-0.111433 0.0703738 0)
(-0.113674 0.0888907 0)
(-0.0984805 0.108248 0)
(-0.122151 0.133765 0)
(-0.574245 0.158982 0)
(0.362811 -0.413841 0)
(-0.345908 -0.512976 0)
(-0.21874 -0.0282231 0)
(-0.0926126 0.110908 0)
(-0.0534448 0.0926565 0)
(-0.031245 0.0546182 0)
(-0.0265502 0.0284223 0)
(-0.0316367 0.0116329 0)
(-0.0404226 0.000666836 0)
(-0.050795 -0.00662599 0)
(-0.064292 -0.0110936 0)
(-0.079359 -0.0135652 0)
(-0.0949566 -0.0151423 0)
(-0.110034 -0.0169876 0)
(-0.123547 -0.019419 0)
(-0.134502 -0.0221759 0)
(-0.142619 -0.0248329 0)
(-0.148728 -0.026835 0)
(-0.153787 -0.0282082 0)
(-0.158359 -0.0290605 0)
(-0.162554 -0.0294657 0)
(-0.166253 -0.0294289 0)
(-0.16925 -0.0289234 0)
(-0.171316 -0.0278982 0)
(-0.172242 -0.0262752 0)
(-0.171894 -0.0239331 0)
(-0.170264 -0.0206908 0)
(-0.167487 -0.0163046 0)
(-0.163787 -0.0105176 0)
(-0.159204 -0.00324164 0)
(-0.154542 0.00530591 0)
(-0.149987 0.0143913 0)
(-0.144595 0.0241749 0)
(-0.1373 0.0355619 0)
(-0.127117 0.0493185 0)
(-0.114053 0.0661728 0)
(-0.0951971 0.0887343 0)
(-0.0510535 0.119288 0)
(0.0725685 0.1311 0)
(-0.528611 0.0145294 0)
(0.12477 -0.184692 0)
(-0.387519 -0.297389 0)
(-0.343086 -0.0966229 0)
(-0.26469 0.0516326 0)
(-0.211034 0.0837336 0)
(-0.178956 0.0747745 0)
(-0.16275 0.0612386 0)
(-0.156819 0.0511954 0)
(-0.156914 0.0459394 0)
(-0.160151 0.0452643 0)
(-0.164484 0.0483061 0)
(-0.168684 0.054098 0)
(-0.172074 0.0614277 0)
(-0.174412 0.0684302 0)
(-0.176102 0.0733122 0)
(-0.177838 0.0750438 0)
(-0.180034 0.0745015 0)
(-0.18273 0.0728866 0)
(-0.185776 0.070723 0)
(-0.189018 0.0680612 0)
(-0.192318 0.0648055 0)
(-0.195552 0.0608714 0)
(-0.198606 0.0562206 0)
(-0.20138 0.0509305 0)
(-0.203787 0.045295 0)
(-0.20573 0.0398692 0)
(-0.207071 0.0353724 0)
(-0.207591 0.0324657 0)
(-0.206994 0.0315141 0)
(-0.204832 0.0323367 0)
(-0.200385 0.0336238 0)
(-0.194363 0.0340312 0)
(-0.185875 0.0346515 0)
(-0.173607 0.0363435 0)
(-0.156138 0.0391179 0)
(-0.131107 0.0416113 0)
(-0.092509 0.0431881 0)
(-0.0284977 0.0508247 0)
(0.160081 0.0823525 0)
(-0.350377 0.0858626 0)
(1.14671 -0.0112172 0)
(-0.294786 -0.323002 0)
(-0.352787 -0.234022 0)
(-0.352113 -0.149636 0)
(-0.328363 -0.10819 0)
(-0.296664 -0.099605 0)
(-0.269328 -0.101858 0)
(-0.249507 -0.107734 0)
(-0.236331 -0.115724 0)
(-0.227867 -0.125834 0)
(-0.222356 -0.138285 0)
(-0.218476 -0.152794 0)
(-0.215351 -0.167988 0)
(-0.212639 -0.181582 0)
(-0.210492 -0.191422 0)
(-0.209294 -0.196662 0)
(-0.209396 -0.198543 0)
(-0.210806 -0.198444 0)
(-0.213382 -0.197175 0)
(-0.217043 -0.195017 0)
(-0.22182 -0.191917 0)
(-0.227798 -0.187663 0)
(-0.235066 -0.182002 0)
(-0.243663 -0.174741 0)
(-0.253502 -0.165826 0)
(-0.264257 -0.155401 0)
(-0.27526 -0.143814 0)
(-0.285477 -0.13152 0)
(-0.293606 -0.118914 0)
(-0.298299 -0.106158 0)
(-0.298379 -0.093174 0)
(-0.293185 -0.0802927 0)
(-0.283828 -0.0690897 0)
(-0.270949 -0.0591973 0)
(-0.255143 -0.0499643 0)
(-0.235568 -0.0413888 0)
(-0.204623 -0.0318869 0)
(-0.152609 -0.0109578 0)
(-0.136673 0.036287 0)
(-0.566402 0.0853612 0)
)
;

boundaryField
{
    floor
    {
        type            noSlip;
    }
    ceiling
    {
        type            noSlip;
    }
    sWall
    {
        type            noSlip;
    }
    nWall
    {
        type            noSlip;
    }
    sideWalls
    {
        type            empty;
    }
    glass1
    {
        type            noSlip;
    }
    glass2
    {
        type            noSlip;
    }
    sun
    {
        type            noSlip;
    }
    Table_master
    {
        type            noSlip;
    }
    Table_slave
    {
        type            noSlip;
    }
    inlet
    {
        type            fixedValue;
        value           uniform (0.5 0 0);
    }
    outlet
    {
        type            zeroGradient;
    }
}


// ************************************************************************* //
