/*--------------------------------*- C++ -*----------------------------------*\
  =========                 |
  \\      /  F ield         | OpenFOAM: The Open Source CFD Toolbox
   \\    /   O peration     | Website:  https://openfoam.org
    \\  /    A nd           | Version:  6
     \\/     M anipulation  |
\*---------------------------------------------------------------------------*/
FoamFile
{
    version     2.0;
    format      ascii;
    class       volVectorField;
    location    "2840";
    object      U;
}
// * * * * * * * * * * * * * * * * * * * * * * * * * * * * * * * * * * * * * //

dimensions      [0 1 -1 0 0 0 0];

internalField   nonuniform List<vector> 
458
(
(0.0348252 0.0885225 0)
(-0.172081 0.0265842 0)
(-0.199349 0.0191133 0)
(-0.233224 0.0130812 0)
(-0.258397 0.00641379 0)
(-0.273601 -0.000804824 0)
(-0.276731 -0.00877818 0)
(-0.265483 -0.0177781 0)
(-0.239425 -0.0274271 0)
(-0.199713 -0.036112 0)
(-0.150447 -0.0420518 0)
(-0.0978302 -0.0436517 0)
(-0.0487297 -0.0390818 0)
(-0.00627078 -0.023685 0)
(-0.0102635 0.00977231 0)
(-0.0102383 0.0105133 0)
(-0.037261 -0.0174867 0)
(-0.0145114 -0.029103 0)
(0.0136678 -0.0251832 0)
(0.0334391 -0.0178892 0)
(0.0480556 -0.00955477 0)
(0.0568149 -0.00517619 0)
(0.0606936 -0.00363237 0)
(0.0621292 -0.00308269 0)
(0.0627786 -0.00275986 0)
(0.0630886 -0.00250942 0)
(0.0630278 -0.00224146 0)
(0.0624302 -0.00179743 0)
(0.0608388 -0.000838858 0)
(0.0572371 0.00107437 0)
(0.050518 0.0031704 0)
(0.0451139 0.00508605 0)
(-0.0141475 0.0219478 0)
(0.214273 0.18189 0)
(-0.162149 0.0709934 0)
(-0.162942 0.0577628 0)
(-0.198657 0.0457437 0)
(-0.224134 0.0319886 0)
(-0.24011 0.0161759 0)
(-0.244613 -0.00240979 0)
(-0.235117 -0.0239666 0)
(-0.211869 -0.04617 0)
(-0.176486 -0.0649272 0)
(-0.133356 -0.0764275 0)
(-0.088127 -0.0781998 0)
(-0.04626 -0.0687309 0)
(-0.0100268 -0.0460177 0)
(0.0194099 -0.0133809 0)
(0.0442428 0.00784942 0)
(0.0548476 0.0347582 0)
(-0.0118086 0.0706831 0)
(0.0670398 0.0439823 0)
(0.0102864 -0.0218338 0)
(0.0265176 -0.0378984 0)
(0.0407456 -0.0356449 0)
(0.0531347 -0.0273415 0)
(0.0595568 -0.0120937 0)
(0.061177 -0.00275363 0)
(0.0612268 0.000745399 0)
(0.0613915 0.00202297 0)
(0.0617167 0.00272164 0)
(0.0619417 0.00322147 0)
(0.0619992 0.00367481 0)
(0.0618953 0.00440707 0)
(0.0611843 0.00620489 0)
(0.0577878 0.0112232 0)
(0.0490972 0.0155321 0)
(0.0476926 0.0187033 0)
(-0.0584294 0.0475492 0)
(0.379535 0.272956 0)
(-0.180118 0.113734 0)
(-0.123512 0.0941097 0)
(-0.159198 0.0724349 0)
(-0.1826 0.0495032 0)
(-0.19841 0.0236429 0)
(-0.204063 -0.00653476 0)
(-0.195374 -0.0409797 0)
(-0.173591 -0.0757812 0)
(-0.141425 -0.10365 0)
(-0.103841 -0.118954 0)
(-0.0658951 -0.119157 0)
(-0.0318228 -0.10412 0)
(-0.0022769 -0.0743985 0)
(0.022031 -0.040074 0)
(0.0375974 -0.0152199 0)
(0.0431793 0.0131636 0)
(-0.0236601 0.0623202 0)
(0.12249 -0.0075306 0)
(0.0725103 -0.0320898 0)
(0.0643123 -0.0419284 0)
(0.0672609 -0.0417566 0)
(0.0718712 -0.0380438 0)
(0.0734893 -0.028228 0)
(0.0643661 -0.0183291 0)
(0.0574117 -0.013027 0)
(0.0548131 -0.0100785 0)
(0.0541217 -0.008186 0)
(0.0538875 -0.00689745 0)
(0.0539578 -0.00590255 0)
(0.0547571 -0.00475352 0)
(0.0572078 -0.00139888 0)
(0.0561023 0.0149935 0)
(0.0445865 0.0258685 0)
(0.0541326 0.0332456 0)
(-0.0993796 0.0727931 0)
(0.530028 0.346653 0)
(-0.216669 0.151756 0)
(-0.0801996 0.125837 0)
(-0.115538 0.0962973 0)
(-0.133417 0.0672245 0)
(-0.146929 0.0337634 0)
(-0.152515 -0.00711117 0)
(-0.142621 -0.0550541 0)
(-0.121288 -0.102309 0)
(-0.0929784 -0.13784 0)
(-0.0625314 -0.155426 0)
(-0.033572 -0.153428 0)
(-0.00879759 -0.133438 0)
(0.0128654 -0.0979239 0)
(0.0304329 -0.0589732 0)
(0.0443571 -0.0228971 0)
(0.0599556 0.0131492 0)
(0.0588236 0.0534411 0)
(0.100335 0.0615058 0)
(0.098817 -0.00244034 0)
(0.0851524 -0.029388 0)
(0.0784688 -0.0376899 0)
(0.0736173 -0.0383938 0)
(0.0670217 -0.0341074 0)
(0.0666024 -0.0208385 0)
(0.0772781 -0.0138301 0)
(0.086241 -0.0101072 0)
(0.09164 -0.00782428 0)
(0.0948795 -0.00591655 0)
(0.0962857 -0.00385548 0)
(0.0945175 -0.00119013 0)
(0.0882554 0.00248028 0)
(0.0757134 0.00774298 0)
(0.0597993 0.0250975 0)
(0.0440617 0.0405827 0)
(0.0629782 0.0533437 0)
(-0.131389 0.0942769 0)
(0.662682 0.40381 0)
(-0.262353 0.182679 0)
(-0.0350339 0.145258 0)
(-0.0687492 0.11132 0)
(-0.0779458 0.0792336 0)
(-0.0862934 0.0412501 0)
(-0.0890487 -0.00798741 0)
(-0.0740283 -0.0688145 0)
(-0.0534823 -0.125902 0)
(-0.0315786 -0.165074 0)
(-0.0112748 -0.181843 0)
(0.00616194 -0.175991 0)
(0.019326 -0.151483 0)
(0.030344 -0.114539 0)
(0.040194 -0.0729584 0)
(0.0494384 -0.0337231 0)
(0.0619371 0.000675029 0)
(0.0760396 0.019717 0)
(0.0903287 -0.000566578 0)
(0.0896862 -0.021372 0)
(0.0826197 -0.0300333 0)
(0.0738131 -0.0325491 0)
(0.0655682 -0.0316289 0)
(0.0586238 -0.0266316 0)
(0.0568423 -0.0155114 0)
(0.0603956 -0.00902617 0)
(0.0647368 -0.00637172 0)
(0.0684599 -0.0048295 0)
(0.0717025 -0.00274937 0)
(0.0742093 0.000781301 0)
(0.0750587 0.00596824 0)
(0.0731646 0.0129865 0)
(0.0682555 0.0224378 0)
(0.0612084 0.0371775 0)
(0.0500562 0.053629 0)
(0.0748592 0.0727477 0)
(-0.0068463 0.10138 0)
(0.0557881 0.150674 0)
(-0.0835196 0.0748407 0)
(-0.277797 0.000488144 0)
(0.761893 0.451325 0)
(-0.30855 0.203339 0)
(0.00243006 0.143886 0)
(-0.0205838 0.116259 0)
(-0.0197894 0.0857223 0)
(-0.021499 0.0472957 0)
(-0.0143131 -0.00693675 0)
(0.0103166 -0.0859255 0)
(0.0269255 -0.146193 0)
(0.0388275 -0.182424 0)
(0.0460474 -0.194554 0)
(0.0488955 -0.185052 0)
(0.0486307 -0.158121 0)
(0.0472259 -0.119918 0)
(0.0460521 -0.0779394 0)
(0.046469 -0.0397075 0)
(0.050821 -0.00999122 0)
(0.0599696 0.0048244 0)
(0.0662464 -0.00105154 0)
(0.0649935 -0.0110135 0)
(0.058608 -0.0188059 0)
(0.0504372 -0.0229107 0)
(0.042799 -0.0236604 0)
(0.0368229 -0.0211341 0)
(0.0342714 -0.01577 0)
(0.0354206 -0.0122937 0)
(0.0383744 -0.0108626 0)
(0.0420304 -0.00977464 0)
(0.0460903 -0.00763853 0)
(0.0502727 -0.00338443 0)
(0.0544833 0.00368373 0)
(0.0570004 0.0131865 0)
(0.0581667 0.024944 0)
(0.0592916 0.0395782 0)
(0.0583679 0.0559997 0)
(0.0797091 0.0766952 0)
(0.0654484 0.0889837 0)
(0.0997222 0.0967314 0)
(0.117478 0.0571988 0)
(-0.136895 -0.0299279 0)
(0.815614 0.494189 0)
(-0.334123 0.187371 0)
(0.0322411 0.0938002 0)
(0.0390631 0.101054 0)
(0.0459318 0.0830002 0)
(0.0516245 0.0393706 0)
(0.079099 -0.0311714 0)
(0.103111 -0.103704 0)
(0.113287 -0.157016 0)
(0.112863 -0.186332 0)
(0.104583 -0.192432 0)
(0.0907911 -0.178776 0)
(0.0740953 -0.149769 0)
(0.0575017 -0.111563 0)
(0.042972 -0.07091 0)
(0.0326169 -0.035696 0)
(0.0281008 -0.0107571 0)
(0.0295012 0.000990916 0)
(0.0311371 -0.000280269 0)
(0.0296359 -0.00656859 0)
(0.0249843 -0.0126299 0)
(0.0188649 -0.0163689 0)
(0.0128395 -0.0177421 0)
(0.00803306 -0.0171039 0)
(0.00567186 -0.0151949 0)
(0.0060139 -0.0141007 0)
(0.00805306 -0.0139676 0)
(0.0110514 -0.0137418 0)
(0.0148466 -0.0123611 0)
(0.0195245 -0.00873962 0)
(0.0256932 -0.00163559 0)
(0.0333029 0.00886885 0)
(0.0400694 0.0208902 0)
(0.0478783 0.03416 0)
(0.0558777 0.0479596 0)
(0.0754523 0.0644567 0)
(0.0882332 0.0697704 0)
(0.11967 0.0632093 0)
(0.163391 0.0513057 0)
(-0.0203526 0.0954881 0)
(0.921869 0.497287 0)
(-0.0766783 0.16742 0)
(0.110608 0.0261618 0)
(0.163738 0.0227931 0)
(0.1614 0.015547 0)
(0.162866 -0.0293631 0)
(0.19649 -0.0804106 0)
(0.211273 -0.125543 0)
(0.205361 -0.158278 0)
(0.185092 -0.173983 0)
(0.155586 -0.171675 0)
(0.121086 -0.153974 0)
(0.0852905 -0.124274 0)
(0.0523634 -0.0880741 0)
(0.024458 -0.0510594 0)
(0.00511342 -0.0219291 0)
(-0.00463288 -0.00442865 0)
(-0.00655963 0.001758 0)
(-0.0064405 0.000663002 0)
(-0.00764118 -0.00366307 0)
(-0.0109409 -0.00801288 0)
(-0.0154392 -0.0110769 0)
(-0.0200735 -0.0128473 0)
(-0.0239378 -0.0136837 0)
(-0.0263199 -0.0141348 0)
(-0.0272115 -0.0148861 0)
(-0.0271755 -0.0158703 0)
(-0.0265938 -0.0165839 0)
(-0.0254663 -0.0164983 0)
(-0.023487 -0.0150359 0)
(-0.0198617 -0.0114654 0)
(-0.011709 -0.00490956 0)
(-9.38424e-05 0.00445913 0)
(0.0110863 0.0137603 0)
(0.0226899 0.0208654 0)
(0.0398998 0.0277363 0)
(0.0554301 0.0224378 0)
(0.0795691 0.00564806 0)
(0.146408 0.047978 0)
(-0.428338 0.212666 0)
(1.06591 0.444166 0)
(0.518238 0.298302 0)
(0.529534 0.249858 0)
(0.518392 0.182906 0)
(0.469838 0.122439 0)
(0.433158 0.0601129 0)
(0.392048 -0.00742386 0)
(0.342843 -0.0669802 0)
(0.289085 -0.107862 0)
(0.232746 -0.126612 0)
(0.175364 -0.1251 0)
(0.118904 -0.108912 0)
(0.065456 -0.0822844 0)
(0.0202346 -0.0512617 0)
(-0.0161036 -0.0208446 0)
(-0.0329486 -0.00607252 0)
(-0.0401266 0.000441476 0)
(-0.0416831 0.00220681 0)
(-0.0420615 0.00100789 0)
(-0.0432035 -0.00163949 0)
(-0.0458313 -0.00451695 0)
(-0.0494802 -0.00704464 0)
(-0.0535053 -0.00913458 0)
(-0.0573699 -0.0108632 0)
(-0.0608173 -0.0123652 0)
(-0.0640103 -0.0137468 0)
(-0.0673528 -0.0148454 0)
(-0.0712203 -0.0153018 0)
(-0.0759667 -0.0146315 0)
(-0.082065 -0.0121814 0)
(-0.0902074 -0.00711448 0)
(-0.101118 0.00142834 0)
(-0.112752 0.0133221 0)
(-0.127984 0.028414 0)
(-0.152908 0.0467843 0)
(-0.190232 0.0673932 0)
(-0.241634 0.0862252 0)
(-0.297562 0.0999184 0)
(-0.371646 0.106912 0)
(-0.65067 0.106305 0)
(0.233924 0.0528322 0)
(0.30589 0.115963 0)
(0.321218 0.0913664 0)
(0.299643 0.0395763 0)
(0.275047 -0.0106043 0)
(0.244386 -0.0469407 0)
(0.203097 -0.0684136 0)
(0.154002 -0.0754157 0)
(0.100436 -0.068699 0)
(0.0461623 -0.0529162 0)
(-0.00863325 -0.0295126 0)
(-0.0451358 -0.0114965 0)
(-0.0635938 -0.00313921 0)
(-0.0709245 -0.000757934 0)
(-0.0731602 -0.000284148 0)
(-0.0734783 -0.000982606 0)
(-0.0737801 -0.00258375 0)
(-0.0749183 -0.00467907 0)
(-0.0771332 -0.0067677 0)
(-0.0803885 -0.00854749 0)
(-0.0841844 -0.0100191 0)
(-0.0882912 -0.0111407 0)
(-0.0927204 -0.0119153 0)
(-0.0976255 -0.0123094 0)
(-0.103157 -0.0121328 0)
(-0.109347 -0.0110405 0)
(-0.116065 -0.00856334 0)
(-0.122967 -0.00415733 0)
(-0.129429 0.0027387 0)
(-0.134402 0.0123365 0)
(-0.13837 0.0256173 0)
(-0.141807 0.0431791 0)
(-0.146018 0.0642221 0)
(-0.151773 0.0850511 0)
(-0.155359 0.0955473 0)
(-0.141304 0.0734013 0)
(-0.110248 -0.0250084 0)
(-0.286611 -0.213741 0)
(0.120027 0.324336 0)
(0.00839063 0.203592 0)
(0.0392638 0.118448 0)
(0.0584768 0.0604333 0)
(0.0631238 0.0216228 0)
(0.0601095 -0.00478706 0)
(0.040195 -0.019913 0)
(0.00541442 -0.0189526 0)
(-0.0366009 -0.00171706 0)
(-0.0701189 0.0128799 0)
(-0.0912301 0.0208817 0)
(-0.100244 0.0232648 0)
(-0.102468 0.0233925 0)
(-0.102413 0.0234451 0)
(-0.101541 0.0241591 0)
(-0.100509 0.0252856 0)
(-0.0997869 0.0264268 0)
(-0.0996596 0.0271769 0)
(-0.100185 0.0271118 0)
(-0.101326 0.0259068 0)
(-0.10312 0.0238735 0)
(-0.105496 0.0216294 0)
(-0.108388 0.01945 0)
(-0.111706 0.0174809 0)
(-0.115313 0.0158322 0)
(-0.118996 0.014613 0)
(-0.122445 0.0139601 0)
(-0.125176 0.0140307 0)
(-0.126372 0.0155215 0)
(-0.124865 0.0198898 0)
(-0.119076 0.0282962 0)
(-0.107619 0.0417407 0)
(-0.090352 0.0602413 0)
(-0.0683174 0.0804254 0)
(-0.0434464 0.0948377 0)
(-0.00758462 0.085778 0)
(0.146941 0.00930502 0)
(-0.209929 -0.129684 0)
(-0.422119 -0.516031 0)
(-0.637319 -0.143275 0)
(-0.449399 0.177759 0)
(-0.357934 0.0560782 0)
(-0.2139 -0.00554117 0)
(-0.145612 -0.0477906 0)
(-0.117168 -0.0705395 0)
(-0.112988 -0.0713628 0)
(-0.122348 -0.0626888 0)
(-0.134864 -0.0549773 0)
(-0.140348 -0.0505067 0)
(-0.138588 -0.0490672 0)
(-0.134127 -0.0499524 0)
(-0.128945 -0.0527748 0)
(-0.124483 -0.0563026 0)
(-0.121039 -0.0599462 0)
(-0.118239 -0.0635882 0)
(-0.115827 -0.0672848 0)
(-0.113758 -0.0708861 0)
(-0.112109 -0.0739026 0)
(-0.111009 -0.0756829 0)
(-0.110623 -0.0757902 0)
(-0.111053 -0.0743577 0)
(-0.112259 -0.0719865 0)
(-0.11407 -0.0689148 0)
(-0.116261 -0.0652752 0)
(-0.118549 -0.0610877 0)
(-0.120566 -0.0562787 0)
(-0.121831 -0.0506322 0)
(-0.12171 -0.043802 0)
(-0.119187 -0.0358148 0)
(-0.112354 -0.0266901 0)
(-0.0984064 -0.0158835 0)
(-0.0748449 -0.00248666 0)
(-0.041551 0.0143641 0)
(0.00931593 0.0362842 0)
(0.0618657 0.0423471 0)
(0.109598 0.0240444 0)
(0.172058 -0.015943 0)
(-0.19629 -0.0826847 0)
)
;

boundaryField
{
    floor
    {
        type            noSlip;
    }
    ceiling
    {
        type            noSlip;
    }
    sWall
    {
        type            noSlip;
    }
    nWall
    {
        type            noSlip;
    }
    sideWalls
    {
        type            empty;
    }
    glass1
    {
        type            noSlip;
    }
    glass2
    {
        type            noSlip;
    }
    sun
    {
        type            noSlip;
    }
    Table_master
    {
        type            noSlip;
    }
    Table_slave
    {
        type            noSlip;
    }
    inlet
    {
        type            fixedValue;
        value           uniform (0.46194 -0.191342 0);
    }
    outlet
    {
        type            zeroGradient;
    }
}


// ************************************************************************* //
