/*--------------------------------*- C++ -*----------------------------------*\
  =========                 |
  \\      /  F ield         | OpenFOAM: The Open Source CFD Toolbox
   \\    /   O peration     | Website:  https://openfoam.org
    \\  /    A nd           | Version:  6
     \\/     M anipulation  |
\*---------------------------------------------------------------------------*/
FoamFile
{
    version     2.0;
    format      ascii;
    class       volScalarField;
    location    "5600";
    object      alphat;
}
// * * * * * * * * * * * * * * * * * * * * * * * * * * * * * * * * * * * * * //

dimensions      [1 -1 -1 0 0 0 0];

internalField   nonuniform List<scalar> 
662
(
0.00117339
0.0012701
0.00129359
0.00135468
0.00141158
0.00146549
0.00151893
0.00157506
0.00163172
0.00168439
0.001726
0.00174158
0.00170816
0.00159695
0.00129756
0.000585842
0.000688167
0.000781237
0.000812891
0.000797793
0.000744367
0.000686143
0.000634332
0.000589647
0.000550983
0.000517348
0.000487938
0.000461985
0.000438464
0.000416273
0.000394162
0.000381405
0.000350648
0.00159488
0.00337895
0.00302498
0.00345961
0.00387474
0.00430459
0.00471942
0.00506718
0.00541016
0.00582613
0.00629859
0.00676102
0.00708821
0.00709239
0.00614575
0.00157452
0.00129689
0.00105383
0.000582292
0.00138725
0.00202955
0.00252619
0.00267683
0.00194148
0.00163298
0.00142415
0.00127068
0.00115365
0.00106117
0.00098374
0.000910974
0.000837784
0.000771412
0.000715525
0.000875769
0.000461675
0.00197489
0.00469836
0.00349176
0.00442112
0.00481423
0.00506053
0.00519565
0.00527389
0.00540757
0.00569704
0.00618263
0.00685942
0.00757932
0.0080442
0.00785227
0.00649827
0.00505172
0.00126862
0.000912236
0.00156788
0.0022844
0.00299782
0.00319456
0.0010099
0.000880461
0.000773531
0.000687289
0.000617879
0.000561744
0.000516107
0.000479235
0.000450561
0.000498949
0.000581809
0.00103177
0.000546264
0.00236407
0.00644258
0.00349995
0.0045721
0.00500281
0.00501837
0.00482938
0.00461959
0.00455858
0.00472287
0.00519547
0.00602966
0.00700923
0.00771106
0.00795522
0.00772173
0.00675356
0.00373614
0.00147441
0.00186417
0.00257137
0.00344587
0.00420758
0.00423473
0.00114163
0.00103981
0.000969085
0.000916147
0.000871494
0.000828895
0.000788482
0.000746154
0.00069735
0.000656274
0.000655227
0.00123729
0.000627785
0.00275324
0.00840396
0.00449951
0.00418833
0.00484563
0.00493962
0.00465637
0.00423158
0.00403418
0.00410653
0.0045674
0.00550768
0.00655943
0.00723379
0.00754363
0.00758316
0.00725473
0.00605365
0.00550033
0.00553759
0.00585397
0.00622015
0.00643486
0.00629907
0.00530567
0.00478939
0.00449577
0.00428334
0.00407404
0.00380172
0.00338766
0.00286836
0.00228567
0.00173154
0.00130118
0.00122949
0.00107555
0.000840913
0.00088301
0.000958702
0.00318991
0.0101383
0.00665882
0.00441675
0.00422158
0.00440662
0.00446696
0.00414971
0.0039346
0.00395113
0.00439283
0.00534668
0.00645465
0.00704857
0.00725398
0.0072801
0.00730735
0.00727484
0.00752486
0.00787766
0.008101
0.00811276
0.00791317
0.00752286
0.00696389
0.0064931
0.00611477
0.00577938
0.00545503
0.00511914
0.0047059
0.00417542
0.00352975
0.00281713
0.00217155
0.00156749
0.00130147
0.00114541
0.00143057
0.000996328
0.00149264
0.0047306
0.00617662
0.00539412
0.00457534
0.00423915
0.00420571
0.00416929
0.00399028
0.00388974
0.00422521
0.00519638
0.00675051
0.00717679
0.00727429
0.00733809
0.00772441
0.00834845
0.00891526
0.00920234
0.00915928
0.00883788
0.00832292
0.00769587
0.00704541
0.00648463
0.00602853
0.00564451
0.00530859
0.00501384
0.00475755
0.00447067
0.00403286
0.00345626
0.00287103
0.00230338
0.0019323
0.00176028
0.00163882
0.0011842
0.00116803
0.00237813
0.0034271
0.00414859
0.00447433
0.00444195
0.00428002
0.00407901
0.00383796
0.00387079
0.00458775
0.00584165
0.00724762
0.00747789
0.00753248
0.00786514
0.00860555
0.00915152
0.00941589
0.00936309
0.00898728
0.00836102
0.00758619
0.00677668
0.00605546
0.00549897
0.00508859
0.00477858
0.00454439
0.00438116
0.00429318
0.00427243
0.00420194
0.00388253
0.00358179
0.00341796
0.00347297
0.00355361
0.00427316
0.00178783
0.00031414
0.00150009
0.0024032
0.00297644
0.00323778
0.00331386
0.00351201
0.00430558
0.00567278
0.00691707
0.0076744
0.00771995
0.00801615
0.00841509
0.00875086
0.00884864
0.00872083
0.00832894
0.00767287
0.00684514
0.00598114
0.00521918
0.00464009
0.00423413
0.00394458
0.00372478
0.00354875
0.00340108
0.00326978
0.00314398
0.00303527
0.00294538
0.00288336
0.00284482
0.00277374
0.00263462
0.00245282
0.00167351
0.000749038
0.000766178
0.00139879
0.00210957
0.00275082
0.00351883
0.00472325
0.00616121
0.00719587
0.00755282
0.00757625
0.00768407
0.00781226
0.0078099
0.00764526
0.00738351
0.00698089
0.00641049
0.00572004
0.00499654
0.00436281
0.00388317
0.00354914
0.0033182
0.00315147
0.00302611
0.00293158
0.00286468
0.00282723
0.00282421
0.00284095
0.00286671
0.00289306
0.00289962
0.00285968
0.00276569
0.00246403
0.00138297
0.00126164
0.00344189
0.001801
0.00157729
0.00238191
0.00346249
0.00466528
0.00594269
0.00690189
0.00723373
0.00699639
0.00640968
0.00585001
0.00590135
0.00577956
0.0055828
0.00536425
0.00508818
0.00473137
0.00431248
0.00388381
0.00349718
0.00318229
0.00295034
0.00278852
0.00268159
0.00261907
0.00259389
0.00259923
0.00262573
0.00268011
0.00275942
0.00285661
0.00296221
0.00306038
0.00313153
0.00318427
0.00329143
0.00222326
0.00143384
0.00096759
0.00236879
0.00324317
0.0039344
0.00448006
0.00493124
0.00521086
0.00523507
0.00495145
0.00437198
0.00341424
0.00209099
0.00102299
0.000996077
0.000969922
0.000945887
0.00092207
0.000896713
0.000870155
0.000845498
0.000826533
0.000815915
0.000813975
0.000819353
0.000831256
0.000849123
0.000872736
0.000902228
0.000938176
0.000981875
0.00103294
0.00109136
0.00115726
0.00123059
0.00131069
0.00139715
0.00144623
0.00131231
0.0012253
0.00138628
0.00250403
0.00644711
0.00607952
0.00496336
0.00436025
0.00420319
0.00422167
0.00408646
0.003916
0.00398112
0.00464713
0.00580094
0.00184746
0.00299618
0.00382067
0.00436978
0.00448762
0.00436585
0.00419076
0.00395071
0.00379011
0.00413289
0.00518787
0.00643947
0.000979835
0.00198881
0.00273275
0.0031406
0.00328525
0.00336801
0.00381394
0.00495461
0.00635447
0.00730873
0.000592001
0.00105145
0.00176147
0.00243463
0.0030947
0.00405446
0.00545564
0.00676064
0.00744689
0.00758647
0.00360561
0.00292018
0.00138604
0.00194607
0.00287859
0.00404402
0.00531194
0.00649485
0.00713835
0.00719289
0.00669768
0.0062414
0.00248917
0.00279216
0.00366903
0.00421535
0.00472079
0.0050971
0.00526023
0.00513122
0.00469988
0.0039499
0.00277354
0.00151049
0.0015621
0.0031468
0.00469579
0.00514561
0.00491822
0.00455233
0.00432547
0.0041779
0.00395868
0.00387361
0.00434345
0.00544937
0.00123439
0.00136318
0.00184226
0.00270119
0.00341561
0.00376338
0.00382396
0.00373264
0.00363519
0.00396098
0.00501519
0.00635228
0.000548639
0.000864266
0.00168123
0.00236336
0.00280155
0.00312415
0.00377871
0.0050716
0.00649081
0.00738283
0.000586391
0.000926736
0.00157489
0.00240045
0.003383
0.00467989
0.00606401
0.0070524
0.00743349
0.00726714
0.00127348
0.00324733
0.00283567
0.00294181
0.00377563
0.00472809
0.00563892
0.0063643
0.00666369
0.00644187
0.00576317
0.00493637
0.0011635
0.00105866
0.00112257
0.00116511
0.00115351
0.00109286
0.000993525
0.000866377
0.000733594
0.000612611
0.000512588
0.000478068
0.00216169
0.00418323
0.00505542
0.00508457
0.00472634
0.00441647
0.00426211
0.00407169
0.00387478
0.00401732
0.0048431
0.0060643
0.0012629
0.00138492
0.00226743
0.00310048
0.00363387
0.0038206
0.00378919
0.00366447
0.00371247
0.00440692
0.00569846
0.00687671
0.000525168
0.0012713
0.00205231
0.00261
0.00295977
0.00337135
0.00436145
0.00581564
0.00702125
0.00758265
0.000659489
0.0012222
0.0019702
0.00286423
0.00398603
0.00541476
0.00662026
0.00733107
0.00737907
0.00721717
0.00351759
0.00320722
0.00274343
0.00333423
0.00424208
0.0051934
0.00604016
0.00657913
0.00661406
0.00615579
0.00531712
0.00483282
0.00103174
0.00109489
0.00114637
0.00116677
0.00112837
0.00104759
0.00093226
0.000799135
0.000671383
0.000558139
0.000483883
0.000489711
)
;

boundaryField
{
    floor
    {
        type            compressible::alphatWallFunction;
        Prt             0.85;
        value           nonuniform List<scalar> 
36
(
0.000183498
8.22128e-05
9.74193e-05
0.000111013
0.000115592
0.000113411
0.000105654
9.71224e-05
8.94569e-05
8.27841e-05
7.69603e-05
7.18527e-05
6.73526e-05
6.33533e-05
5.97041e-05
5.62383e-05
5.27616e-05
5.07444e-05
4.58447e-05
4.58441e-05
6.33063e-05
7.62476e-05
8.84851e-05
0.000119638
0.000125675
0.000136438
0.000183496
0.000220927
0.000183405
0.000149802
8.22118e-05
0.0001498
8.16791e-05
0.000179535
0.000129825
0.000207492
)
;
    }
    ceiling
    {
        type            compressible::alphatWallFunction;
        Prt             0.85;
        value           nonuniform List<scalar> 
58
(
0.000146778
0.00015561
0.000162769
0.000165603
0.000160297
0.000149047
0.000132798
0.000113736
9.50792e-05
7.81733e-05
6.68577e-05
6.77537e-05
0.000145621
0.000141836
0.000138146
0.000134744
0.000131363
0.000127752
0.000123957
0.000120421
0.000117693
0.000116162
0.000115883
0.000116658
0.000118373
0.000120942
0.000124326
0.000128538
0.000133651
0.000139835
0.000147021
0.000155192
0.000164348
0.000174468
0.000185443
0.000197205
0.000203847
0.000185666
0.000173746
0.000195743
0.000179014
0.000195624
8.21694e-05
0.000137749
0.00015055
0.000159464
0.000165368
0.000163776
0.000155363
0.000141457
0.000123408
0.000104214
8.63536e-05
7.12561e-05
6.59628e-05
0.000165989
0.000192679
0.000106254
)
;
    }
    sWall
    {
        type            compressible::alphatWallFunction;
        Prt             0.85;
        value           nonuniform List<scalar> 4(0.000179668 0.000164535 0.000178045 0.000137165);
    }
    nWall
    {
        type            compressible::alphatWallFunction;
        Prt             0.85;
        value           nonuniform List<scalar> 6(0.000136213 0.00014152 0.000167707 0.000194936 0.000201822 0.000195392);
    }
    sideWalls
    {
        type            empty;
    }
    glass1
    {
        type            compressible::alphatWallFunction;
        Prt             0.85;
        value           nonuniform List<scalar> 10(0.000162011 0.000218384 0.000267937 0.000317726 0.000366723 0.000420885 0.000215877 0.000172751 0.000206894 0.000163639);
    }
    glass2
    {
        type            compressible::alphatWallFunction;
        Prt             0.85;
        value           nonuniform List<scalar> 2(0.000247324 0.000232356);
    }
    sun
    {
        type            compressible::alphatWallFunction;
        Prt             0.85;
        value           nonuniform List<scalar> 
14
(
0.000166453
0.000179744
0.000182958
0.000191289
0.000199009
0.000206292
0.000213482
0.000221003
0.000228565
0.000235568
0.000241084
0.000243143
0.000238718
0.000223924
)
;
    }
    Table_master
    {
        type            compressible::alphatWallFunction;
        Prt             0.85;
        value           nonuniform List<scalar> 9(0.000143811 0.000125457 0.000110054 9.74451e-05 8.71575e-05 7.87333e-05 7.18076e-05 6.61559e-05 6.17227e-05);
    }
    Table_slave
    {
        type            compressible::alphatWallFunction;
        Prt             0.85;
        value           nonuniform List<scalar> 9(0.000162213 0.000148014 0.000138058 0.00013055 0.000124177 0.000118061 0.000112225 0.000106073 9.89277e-05);
    }
    inlet
    {
        type            fixedValue;
        value           uniform 1.94e-05;
    }
    outlet
    {
        type            zeroGradient;
    }
}


// ************************************************************************* //
