/*--------------------------------*- C++ -*----------------------------------*\
  =========                 |
  \\      /  F ield         | OpenFOAM: The Open Source CFD Toolbox
   \\    /   O peration     | Website:  https://openfoam.org
    \\  /    A nd           | Version:  6
     \\/     M anipulation  |
\*---------------------------------------------------------------------------*/
FoamFile
{
    version     2.0;
    format      ascii;
    class       volScalarField;
    location    "5600";
    object      k;
}
// * * * * * * * * * * * * * * * * * * * * * * * * * * * * * * * * * * * * * //

dimensions      [0 2 -2 0 0 0 0];

internalField   nonuniform List<scalar> 
778
(
0.00158592
0.00180106
0.00178789
0.0019464
0.00209761
0.00223987
0.00237655
0.00251217
0.00265254
0.00280592
0.00295625
0.00310267
0.00325035
0.00341292
0.00358673
0.000793006
0.00162541
0.00165207
0.00157329
0.00144561
0.00128328
0.00113103
0.000999243
0.000887448
0.000792884
0.000713137
0.000645118
0.000586125
0.00053361
0.000484864
0.000436387
0.000398052
0.000326143
0.00340698
0.00643331
0.00268743
0.00274598
0.00288762
0.00305418
0.00323451
0.00343028
0.00364355
0.00387398
0.00412623
0.0043802
0.0045962
0.00470159
0.00459586
0.0042995
0.00390829
0.00358081
0.00253553
0.00281191
0.00295452
0.00289732
0.00266477
0.00226582
0.00190643
0.00161003
0.00137016
0.0011762
0.0010173
0.00088545
0.000774165
0.000681338
0.000615321
0.000574818
0.000864209
0.000524096
0.00549081
0.0127808
0.00347786
0.00321203
0.00329732
0.00345514
0.00363652
0.00384071
0.0040711
0.00432787
0.00463612
0.00501171
0.00545213
0.00596184
0.00653289
0.00686143
0.006279
0.00538669
0.00403678
0.00416819
0.00417158
0.00397452
0.00357721
0.00266543
0.00201568
0.00157632
0.00127009
0.00104995
0.000887476
0.000765038
0.000672146
0.000603895
0.000551652
0.000548827
0.00116474
0.000678105
0.00797361
0.0217578
0.00449098
0.00339064
0.00334139
0.00343797
0.00354936
0.00366888
0.00380918
0.00399162
0.00425962
0.00464926
0.00517236
0.00582667
0.00655626
0.00713586
0.00722914
0.0072431
0.00534337
0.00555014
0.0053753
0.00512452
0.00478615
0.0043477
0.00345558
0.00285898
0.00243611
0.00211026
0.00185097
0.00163253
0.0014391
0.00125904
0.0010781
0.000800964
0.000659988
0.00141967
0.000821898
0.0108764
0.0336331
0.00621236
0.00342487
0.00315815
0.00316686
0.00318954
0.00320991
0.00325225
0.00336132
0.00359511
0.00398987
0.0045546
0.00527839
0.0060889
0.0068194
0.00728497
0.00764538
0.00751868
0.00665453
0.00607301
0.00557847
0.00509862
0.00462918
0.00412306
0.0036657
0.00327523
0.00293769
0.00263157
0.00234819
0.00207964
0.0018188
0.0015551
0.00122213
0.000930835
0.00118956
0.00121585
0.00116758
0.00201671
0.0018529
0.0141748
0.0475959
0.00928283
0.00348982
0.00290838
0.00282262
0.00276437
0.00269962
0.00266436
0.00273468
0.00298099
0.00341469
0.00402446
0.00479925
0.00565562
0.00646288
0.00707054
0.00740871
0.00732486
0.00679044
0.00621508
0.00563695
0.00507414
0.004556
0.00409144
0.00369584
0.0033633
0.00307391
0.00280709
0.00255193
0.0022994
0.0020425
0.00177389
0.00147148
0.00117923
0.001113
0.0011113
0.00170623
0.00507135
0.00265497
0.0179916
0.0606025
0.0143575
0.00381918
0.00271502
0.00252926
0.00241179
0.00229416
0.00222125
0.00231162
0.00263028
0.00313937
0.00380245
0.00463201
0.00552987
0.00636825
0.00700238
0.0073295
0.00725567
0.00681889
0.00621574
0.00555488
0.00491191
0.00434286
0.00387262
0.00350052
0.00320678
0.00296188
0.00274163
0.00252956
0.00231402
0.00208757
0.00184531
0.00158306
0.00132861
0.00116167
0.00109278
0.00155138
0.00622645
0.00368101
0.0216404
0.0704783
0.0214322
0.00510129
0.00274253
0.00237169
0.00221017
0.00208215
0.00202665
0.00221975
0.00264986
0.00323086
0.00393715
0.00477463
0.00569929
0.00657399
0.00722444
0.00751508
0.00738559
0.00689731
0.0061988
0.00542711
0.00469147
0.00406438
0.00357432
0.00321227
0.00294739
0.00274079
0.0025643
0.00239624
0.00222268
0.00203591
0.00183241
0.00161348
0.00139934
0.00123382
0.00115598
0.00208379
0.0139739
0.00626705
0.022833
0.0694962
0.0325287
0.0110519
0.00406551
0.00258703
0.00223558
0.00210338
0.00219069
0.00251332
0.00300112
0.0036022
0.00433197
0.00521134
0.00618328
0.00708585
0.0077163
0.00792331
0.00766561
0.00702661
0.00616581
0.0052484
0.00440701
0.00372179
0.00321598
0.00286817
0.00263483
0.00246838
0.00233588
0.00221131
0.0020796
0.00193349
0.0017706
0.00159408
0.00142019
0.00129425
0.00133758
0.00384357
0.0270848
0.00810209
0.0219184
0.0516399
0.0336414
0.0174289
0.00858416
0.00475798
0.00326142
0.00273103
0.00285485
0.00321289
0.0036739
0.00424663
0.00499359
0.00593435
0.0069687
0.00788234
0.00843839
0.00848296
0.00800429
0.00712476
0.00604138
0.00495306
0.00400996
0.00328918
0.00279653
0.00248737
0.00230098
0.00218306
0.00209525
0.00201069
0.00191575
0.00180476
0.00167691
0.00153675
0.00140002
0.0013251
0.00170563
0.00779287
0.0254597
0.00845564
0.019234
0.0394403
0.0302375
0.0195638
0.0121804
0.00793806
0.00571782
0.00467107
0.00436471
0.00440219
0.00465393
0.00514421
0.00592986
0.00697137
0.00807669
0.00895391
0.00933731
0.00909532
0.00827451
0.00706161
0.00571052
0.00445724
0.00345881
0.00276635
0.0023466
0.00211347
0.00198902
0.00192172
0.00187204
0.0018184
0.0017506
0.00166481
0.00156184
0.00144939
0.00135127
0.00140456
0.00272547
0.00931525
0.0220535
0.00832993
0.0159498
0.0315872
0.0266502
0.0195379
0.0139754
0.010284
0.00802779
0.00675252
0.00605089
0.00573276
0.00578295
0.00626975
0.00719728
0.00839831
0.00954513
0.0102666
0.0103039
0.00959492
0.00828971
0.00666634
0.00505229
0.00371597
0.00278951
0.00223247
0.00195339
0.00181329
0.00174413
0.00171036
0.00168321
0.00164798
0.00159705
0.00152716
0.00144003
0.00134911
0.00130813
0.00172785
0.00418176
0.00993643
0.0181736
0.00782642
0.0132652
0.0256663
0.0233465
0.0186877
0.0145826
0.0115876
0.00954348
0.00821017
0.00730109
0.00684115
0.00695577
0.00770786
0.00895334
0.0103295
0.0113712
0.0116842
0.0111028
0.00970203
0.00779404
0.00576244
0.00402384
0.00283322
0.00219432
0.00186333
0.00169892
0.00161621
0.00157448
0.00155271
0.00153239
0.00150368
0.00146079
0.00140124
0.00132846
0.00126395
0.00130815
0.00201822
0.00481628
0.0100058
0.0159375
0.00733775
0.0133456
0.0224079
0.02205
0.0177558
0.0143899
0.0118925
0.0100831
0.00876886
0.0079193
0.00777457
0.00846459
0.00984157
0.0114783
0.0128148
0.0133562
0.0128242
0.0112855
0.00900025
0.00652739
0.00431349
0.00296457
0.0022288
0.00186158
0.00167484
0.00157332
0.0015129
0.00147452
0.00144852
0.00142333
0.00139237
0.00135184
0.00130127
0.0012471
0.00121712
0.00131891
0.00199871
0.00444104
0.00917288
0.016641
0.00760082
0.0108731
0.0117602
0.0129218
0.0125522
0.0113748
0.0100755
0.00894807
0.00820595
0.00830691
0.00941344
0.011268
0.0133057
0.0148735
0.0154527
0.014791
0.0128778
0.0101807
0.00704275
0.00465582
0.00314925
0.00236346
0.00198002
0.00178407
0.00166619
0.0015813
0.00151304
0.00145706
0.00141303
0.00137453
0.00133738
0.00130225
0.00127634
0.00127545
0.00133069
0.00152325
0.00212729
0.00403124
0.00901197
0.0146678
0.00852595
0.00354712
0.00482942
0.00600386
0.00661
0.00728881
0.0088072
0.0113186
0.0141236
0.0164995
0.0178967
0.0179763
0.0166744
0.0141996
0.0106331
0.00735815
0.00486431
0.0033619
0.00259985
0.00224662
0.00206753
0.00195219
0.00185701
0.00176658
0.00167772
0.00159495
0.00152876
0.00148354
0.00146211
0.00147803
0.00155176
0.00170207
0.00194567
0.00233212
0.00304147
0.00465414
0.0101335
0.0137673
0.00876464
0.00444488
0.00629749
0.00811808
0.0110371
0.0147184
0.018166
0.0203808
0.021407
0.0212917
0.020044
0.0175097
0.0140567
0.010435
0.00718808
0.00490396
0.00359588
0.00297281
0.0026919
0.00254653
0.00244923
0.00236965
0.00229605
0.0022224
0.00214698
0.00207524
0.00202225
0.00200547
0.00204183
0.00215758
0.00237979
0.00272782
0.0032171
0.00389167
0.0048961
0.0066428
0.0111247
0.0154633
0.00887531
0.0150783
0.0244267
0.0180799
0.0143983
0.0170339
0.0207454
0.0228821
0.023575
0.023094
0.0217109
0.0196702
0.0170181
0.0138607
0.0105831
0.0077028
0.00560821
0.00439903
0.00381473
0.00352974
0.00336111
0.00324424
0.00316254
0.00311105
0.00308291
0.00306704
0.00305226
0.00303563
0.00303149
0.00306227
0.00315718
0.0033449
0.00365522
0.00411516
0.0047493
0.00559172
0.00671653
0.00829943
0.010682
0.013606
0.00806425
0.0138113
0.0170486
0.0178915
0.0207947
0.0217336
0.0221552
0.021159
0.0193437
0.0172176
0.0150291
0.0128803
0.0108289
0.00894582
0.00735392
0.00617411
0.00540086
0.00488361
0.00453213
0.00427723
0.00409333
0.0039798
0.00394238
0.00398243
0.004092
0.00425227
0.00443503
0.00460754
0.00474085
0.0048597
0.00501129
0.00523308
0.00555485
0.00600421
0.00661477
0.00744097
0.00857247
0.010149
0.0125192
0.0149859
0.00785407
0.0121377
0.00890698
0.0088178
0.00933539
0.00977374
0.00919213
0.0081141
0.00694067
0.00586019
0.00492736
0.0041417
0.00349541
0.00298944
0.00262821
0.00240317
0.00228885
0.00225616
0.00226014
0.00229305
0.0023548
0.0024453
0.00256112
0.00269531
0.00283939
0.00298589
0.0031304
0.00327282
0.00341802
0.00356871
0.00373457
0.00392753
0.00415725
0.00443037
0.00474979
0.00511215
0.00550561
0.00593666
0.00656552
0.00760002
0.00742587
)
;

boundaryField
{
    floor
    {
        type            kqRWallFunction;
        value           nonuniform List<scalar> 
36
(
0.00358673
0.000793006
0.00162541
0.00165207
0.00157329
0.00144561
0.00128328
0.00113103
0.000999243
0.000887448
0.000792884
0.000713137
0.000645118
0.000586125
0.00053361
0.000484864
0.000436387
0.000398052
0.000326143
0.000326143
0.000524096
0.000678105
0.000821898
0.00116758
0.00201671
0.0018529
0.00358673
0.0042995
0.00390829
0.00358081
0.000793006
0.00358081
0.00253553
0.00538669
0.00403678
0.00534337
)
;
    }
    ceiling
    {
        type            kqRWallFunction;
        value           nonuniform List<scalar> 
43
(
0.0121377
0.00890698
0.0088178
0.00933539
0.00977374
0.00919213
0.0081141
0.00694067
0.00586019
0.00492736
0.0041417
0.00349541
0.00298944
0.00262821
0.00240317
0.00228885
0.00225616
0.00226014
0.00229305
0.0023548
0.0024453
0.00256112
0.00269531
0.00283939
0.00298589
0.0031304
0.00327282
0.00341802
0.00356871
0.00373457
0.00392753
0.00415725
0.00443037
0.00474979
0.00511215
0.00550561
0.00593666
0.00656552
0.00760002
0.00742587
0.0108731
0.0117602
0.00444488
)
;
    }
    sWall
    {
        type            kqRWallFunction;
        value           nonuniform List<scalar> 9(0.0219184 0.019234 0.0159498 0.0132652 0.0133456 0.0108731 0.0150783 0.0138113 0.0121377);
    }
    nWall
    {
        type            kqRWallFunction;
        value           nonuniform List<scalar> 
14
(
0.0018529
0.00265497
0.00368101
0.00845564
0.00832993
0.00782642
0.00733775
0.00760082
0.00852595
0.00876464
0.00887531
0.00806425
0.00785407
0.00742587
)
;
    }
    sideWalls
    {
        type            empty;
    }
    glass1
    {
        type            kqRWallFunction;
        value           nonuniform List<scalar> 9(0.00158592 0.00340698 0.00549081 0.00797361 0.0108764 0.0141748 0.0179916 0.0216404 0.022833);
    }
    glass2
    {
        type            kqRWallFunction;
        value           nonuniform List<scalar> 2(0.00626705 0.00810209);
    }
    sun
    {
        type            kqRWallFunction;
        value           nonuniform List<scalar> 
14
(
0.00158592
0.00180106
0.00178789
0.0019464
0.00209761
0.00223987
0.00237655
0.00251217
0.00265254
0.00280592
0.00295625
0.00310267
0.00325035
0.00341292
)
;
    }
    Table_master
    {
        type            kqRWallFunction;
        value           nonuniform List<scalar> 9(0.00266543 0.00201568 0.00157632 0.00127009 0.00104995 0.000887476 0.000765038 0.000672146 0.000603895);
    }
    Table_slave
    {
        type            kqRWallFunction;
        value           nonuniform List<scalar> 9(0.00345558 0.00285898 0.00243611 0.00211026 0.00185097 0.00163253 0.0014391 0.00125904 0.0010781);
    }
    inlet
    {
        type            turbulentIntensityKineticEnergyInlet;
        intensity       0.05;
        value           uniform 0.0009375;
    }
    outlet
    {
        type            zeroGradient;
    }
}


// ************************************************************************* //
