/*--------------------------------*- C++ -*----------------------------------*\
  =========                 |
  \\      /  F ield         | OpenFOAM: The Open Source CFD Toolbox
   \\    /   O peration     | Website:  https://openfoam.org
    \\  /    A nd           | Version:  6
     \\/     M anipulation  |
\*---------------------------------------------------------------------------*/
FoamFile
{
    version     2.0;
    format      ascii;
    class       surfaceScalarField;
    location    "5600";
    object      phi;
}
// * * * * * * * * * * * * * * * * * * * * * * * * * * * * * * * * * * * * * //

dimensions      [1 0 -1 0 0 0 0];

internalField   nonuniform List<scalar> 
1482
(
-0.00279984
0.00286387
-0.00348419
0.000684353
-0.00414507
0.000660884
-0.0047594
0.000614326
-0.00528105
0.000521649
-0.00569325
0.000412198
-0.00598473
0.000291488
-0.00614242
0.000157682
-0.00614893
6.50918e-06
-0.00597826
-0.000170664
-0.00560045
-0.000377813
-0.00498444
-0.000616014
-0.00406002
-0.000924416
-0.00258085
-0.00147917
-0.00257794
-6.53625e-05
7.02158e-05
0.000777751
-0.000843113
0.00142991
-0.000652163
0.00182907
-0.000399155
0.00205054
-0.000221467
0.00215492
-0.000104382
0.00220224
-4.73181e-05
0.00222495
-2.27081e-05
0.00223456
-9.61197e-06
0.00223534
-7.78764e-07
0.00222821
7.12234e-06
0.00220921
1.90072e-05
0.00216501
4.41993e-05
0.00206244
0.000102563
0.00184621
0.000216233
0.00148953
0.000356678
0.00101926
0.000470278
0.0010257
-0.00204044
0.00507464
-0.00290869
0.0015526
-0.0036947
0.00144689
-0.00434596
0.00126559
-0.00488348
0.00105918
-0.00531255
0.000841264
-0.00563134
0.000610281
-0.00583303
0.000359367
-0.0059069
8.03759e-05
-0.00584508
-0.000232483
-0.00564176
-0.000581134
-0.00528563
-0.000972146
-0.00477551
-0.00143453
-0.00428949
-0.00196519
-0.00470556
-0.00216187
-0.00311854
-0.00158159
-0.00163439
-0.00147846
-0.00161954
0.00131714
-0.00123672
0.00166038
-0.00118635
0.00191108
-0.000902865
0.00210142
-0.000589492
0.00220805
-0.000328099
0.00221686
-0.000113192
0.00221896
-4.94146e-05
0.00222065
-2.44056e-05
0.00222163
-1.05906e-05
0.0022216
-7.50663e-07
0.00222019
8.53753e-06
0.00221595
2.32446e-05
0.00220331
5.6846e-05
0.00214141
0.000164458
0.00189201
0.000465638
0.00146324
0.000785443
0.000900963
0.00103256
0.00194354
-0.00148834
0.0068209
-0.00235935
0.00242362
-0.00312949
0.00221703
-0.00371391
0.00185001
-0.0041848
0.00153007
-0.0045565
0.00121296
-0.00483079
0.000884567
-0.0050044
0.000532982
-0.00507092
0.000146889
-0.00502124
-0.000282166
-0.00484461
-0.000757759
-0.00453364
-0.00128312
-0.00411918
-0.00184899
-0.00372196
-0.0023624
-0.00330185
-0.00258198
-0.00237049
-0.00251294
-0.00127615
-0.0025728
-0.00288286
0.00114899
-0.00237125
0.00165181
-0.00168916
0.00194947
-0.00120053
0.00214131
-0.000781335
0.0021696
-0.000356391
0.00205656
0.0020073
0.00198305
0.00197262
0.00197202
0.00198071
0.00200411
0.00206111
0.00222572
0.00186728
0.000824082
0.00141994
0.00123278
0.000801715
0.00165078
0.00277129
-0.00110615
0.00825826
-0.0019282
0.00324566
-0.0025704
0.00285923
-0.00303091
0.00231052
-0.00339862
0.00189779
-0.0036876
0.00150193
-0.00390082
0.00109779
-0.00403645
0.000668607
-0.00408694
0.000197377
-0.00403909
-0.00033002
-0.00388061
-0.000916231
-0.00360747
-0.00155627
-0.00324232
-0.00221414
-0.00282105
-0.00278367
-0.00228234
-0.00312069
-0.00156331
-0.00323197
-0.00087569
-0.00326042
-0.000697479
-0.00306107
0.001439
-0.00212103
0.00137296
-0.00230522
0.00168919
-0.00200539
0.00200195
-0.00151328
0.00226832
-0.0010477
0.00254513
-0.000633204
0.00285809
-0.000313112
0.00302474
-0.000166808
0.00308918
-6.45957e-05
0.00307191
1.71239e-05
0.00298169
9.00609e-05
0.00281956
0.000161974
0.00257774
0.000241666
0.00223334
0.000344248
0.00172917
0.000504015
0.00159317
0.000960088
0.00126622
0.00155972
0.000740898
0.0021761
0.0035465
-0.000803856
0.00945531
-0.00158014
0.00402195
-0.00204898
0.00332807
-0.00236485
0.00262639
-0.00260937
0.00214231
-0.00279505
0.00168761
-0.00292689
0.00122963
-0.00300561
0.000747333
-0.00302467
0.000216433
-0.00296743
-0.000387255
-0.00282068
-0.00106298
-0.00257757
-0.00179938
-0.00224475
-0.00254696
-0.00182937
-0.00319905
-0.00132504
-0.00362501
-0.000749343
-0.00380767
-0.000218738
-0.00379102
0.000258454
-0.00353826
0.00111996
-0.00298254
0.00148657
-0.00267183
0.00174612
-0.00226495
0.00199894
-0.0017661
0.00222902
-0.00127778
0.00244338
-0.00084757
0.00264417
-0.000513897
0.00275392
-0.000276563
0.00278993
-0.000100606
0.00276393
4.31237e-05
0.00268238
0.000171617
0.00254781
0.00029654
0.0023591
0.000430378
0.0021139
0.000589445
0.00182026
0.00079766
0.00161508
0.00116526
0.00147403
0.00170078
0.00129497
0.00235516
0.00227887
0.00256261
0.00131866
0.000995148
0.00188309
-0.000535648
0.00200221
-0.000575917
0.0104776
-0.00132496
0.00477099
-0.00158479
0.0035879
-0.0017509
0.0027925
-0.00186505
0.00225647
-0.0019367
0.00175925
-0.00197229
0.00126522
-0.00197612
0.000751163
-0.001945
0.000185319
-0.00185723
-0.000475026
-0.00170309
-0.00121712
-0.00147275
-0.00202971
-0.0011692
-0.00285051
-0.000798243
-0.00357
-0.000379614
-0.00404364
5.99394e-05
-0.00424722
0.000464859
-0.00419594
0.000839288
-0.00391269
0.00129075
-0.00343399
0.00159018
-0.00297126
0.00179411
-0.00246887
0.00196602
-0.00193801
0.00211797
-0.00142974
0.00225259
-0.000982187
0.00235733
-0.00061864
0.0024153
-0.000334528
0.00242621
-0.000111522
0.00239532
7.40131e-05
0.00232748
0.000239462
0.00222655
0.000397465
0.00209667
0.000560262
0.00194493
0.000741188
0.00178576
0.000956823
0.00169515
0.00125588
0.00175164
0.00164428
0.00196063
0.00214617
0.00219884
0.0023244
0.00170844
0.00148554
0.000792882
0.000379912
0.00289281
-0.00054343
0.0115133
-0.00124376
0.00547131
-0.00119234
0.00353648
-0.00120095
0.00280111
-0.00119353
0.00224904
-0.00116027
0.00172599
-0.00110332
0.00120827
-0.0010284
0.000676241
-0.00093006
8.69797e-05
-0.000781224
-0.000623862
-0.000592307
-0.00140604
-0.000352952
-0.00226907
-7.02947e-05
-0.00313317
0.000233334
-0.00387363
0.000542326
-0.00435263
0.000836827
-0.00454172
0.0010995
-0.0044586
0.00133299
-0.00414618
0.00156528
-0.00366628
0.00172561
-0.00313159
0.00182617
-0.00256944
0.00189675
-0.00200858
0.00195295
-0.00148594
0.00199988
-0.00102912
0.0020322
-0.000650965
0.00204421
-0.000346532
0.0020325
-9.98156e-05
0.00199786
0.000108654
0.00194342
0.000293901
0.00187304
0.000467847
0.001792
0.000641295
0.00170894
0.000824249
0.00163894
0.00102683
0.00162501
0.0012698
0.00171115
0.00155814
0.00191752
0.00193981
0.002162
0.00207993
0.00216861
0.00147893
0.0016359
0.000912625
0.00463187
-0.000483577
0.0125323
-0.00105169
0.00603942
-0.000697847
0.00318265
-0.000637322
0.00274059
-0.000569216
0.00218094
-0.00046478
0.00162155
-0.000335974
0.00107947
-0.000184967
0.000525234
4.21263e-06
-0.0001022
0.000222284
-0.000841933
0.000461662
-0.00164542
0.000718651
-0.00252606
0.00097459
-0.00338911
0.00120226
-0.0041013
0.00140075
-0.00455112
0.00156146
-0.00470242
0.00167917
-0.00457632
0.00175869
-0.00422569
0.0018124
-0.00371998
0.00182331
-0.00314249
0.00179947
-0.0025456
0.00175971
-0.00196883
0.0017188
-0.00144503
0.0016841
-0.000994416
0.0016555
-0.000622361
0.00162903
-0.000320063
0.00159989
-7.06766e-05
0.00156592
0.000142623
0.00152746
0.000332364
0.00148597
0.000509336
0.00144479
0.000682476
0.00141039
0.000858653
0.00139401
0.00104321
0.00141927
0.00124453
0.00151346
0.00146395
0.00172233
0.00173094
0.00199402
0.00180824
0.00209385
0.0013791
0.0016451
0.00136139
0.00664446
0.00297619
0.0101433
0.00202073
0.00699488
0.000867952
0.00433542
0.000369601
0.00323894
0.000212592
0.00233795
0.000268813
0.00156533
0.000422547
0.000925736
0.000636298
0.000311484
0.000895451
-0.000361353
0.00116004
-0.00110652
0.00143812
-0.0019235
0.00170447
-0.00279241
0.00192973
-0.00361438
0.00208981
-0.00426138
0.00217896
-0.00464028
0.00220003
-0.00472349
0.00216196
-0.00453824
0.00207845
-0.00414219
0.00196472
-0.00360624
0.00182628
-0.00300406
0.00167516
-0.00239447
0.00152809
-0.00182175
0.00139954
-0.00131647
0.0012975
-0.000892383
0.00122304
-0.000547901
0.00117126
-0.000268281
0.00113494
-3.43566e-05
0.00110893
0.000168635
0.0010899
0.000351392
0.00107581
0.000523422
0.00106692
0.000691374
0.00106632
0.000859245
0.00108071
0.00102882
0.00112367
0.00120158
0.00121313
0.00137449
0.00138648
0.00155758
0.00161231
0.00158241
0.00169906
0.00129234
0.000355647
0.00270483
0.00738596
0.00403072
0.00625284
0.00366658
0.00735902
0.00254116
0.00546084
0.001888
0.0038921
0.00153141
0.00269454
0.00138649
0.00171025
0.00142017
0.000892055
0.0015944
0.000137254
0.00184618
-0.000613141
0.00212294
-0.00138328
0.00240209
-0.00220266
0.00264629
-0.00303661
0.00281394
-0.00378204
0.00287822
-0.00432567
0.00283603
-0.0045981
0.00270132
-0.00458879
0.00249654
-0.00433346
0.00224606
-0.0038917
0.00197265
-0.00333283
0.00169345
-0.00272485
0.00142556
-0.00212659
0.00118676
-0.00158295
0.000991551
-0.00112126
0.000845805
-0.000746637
0.00074808
-0.000450176
0.0006894
-0.000209601
0.000658913
-3.86999e-06
0.000648027
0.000179521
0.000650033
0.000349386
0.000660218
0.000513237
0.000676204
0.000675388
0.000697426
0.000838023
0.000724816
0.00100143
0.000761591
0.00116481
0.000808231
0.00132785
0.000840032
0.00152578
0.000552603
0.0018698
-0.000645003
0.00248972
-0.00188608
0.00394585
0.00560439
0.00240944
0.00400792
0.00330429
0.00646416
0.00324823
0.0055169
0.00303739
0.00410293
0.00284627
0.00288566
0.0027229
0.00183362
0.00270889
0.000906056
0.00279768
4.84694e-05
0.00295934
-0.000774804
0.00316955
-0.00159349
0.00338636
-0.00241946
0.0035497
-0.00319996
0.00360497
-0.00383731
0.00352568
-0.00424639
0.00331742
-0.00438984
0.00300645
-0.00427783
0.00262733
-0.00395435
0.00221361
-0.00347798
0.00179496
-0.00291419
0.00139523
-0.00232512
0.00103596
-0.00176732
0.000736657
-0.00128365
0.000510792
-0.000895396
0.000356057
-0.000591902
0.00026323
-0.000357349
0.000215762
-0.000162133
0.000200128
1.17646e-05
0.000206206
0.000173443
0.000226316
0.000329276
0.000255514
0.000484038
0.000289953
0.000640949
0.000325606
0.000802369
0.000357401
0.000969637
0.000379701
0.00114251
0.000382137
0.00132542
0.000291354
0.00161656
-0.000112058
0.002273
-0.000669974
0.00304728
-0.000871341
0.00414696
0.00484942
0.00145702
0.00274515
0.00274855
0.00517262
0.00343274
0.00483271
0.00371869
0.00381697
0.003817
0.00278735
0.00384493
0.00180568
0.00388094
0.00087005
0.00395006
-2.06547e-05
0.00406002
-0.000884771
0.00419979
-0.00173326
0.00431778
-0.00253745
0.00434336
-0.00322555
0.00422519
-0.00371915
0.00395123
-0.00397245
0.00354408
-0.0039827
0.00304368
-0.00377745
0.00249421
-0.00340488
0.00193465
-0.00291841
0.00139937
-0.00237891
0.00091587
-0.00184162
0.000511074
-0.00136252
0.000203242
-0.000975815
-3.51803e-06
-0.000688636
-0.000126851
-0.000468569
-0.000192051
-0.000292148
-0.000220052
-0.000134133
-0.000222264
1.39771e-05
-0.000205418
0.000156596
-0.000174038
0.000297896
-0.000131759
0.000441759
-8.30601e-05
0.000592249
-3.48445e-05
0.000754153
1.47728e-06
0.000933315
6.74134e-06
0.00113724
-5.66023e-05
0.00138877
-0.000280795
0.00184078
-0.000779955
0.00277208
-0.00136361
0.00363066
-0.00134906
0.00413214
0.00363048
0.00217302
0.000798095
0.00294474
0.0044009
0.00359492
0.00418253
0.00416485
0.00324705
0.00449233
0.00245986
0.00466645
0.00163156
0.00478323
0.000753272
0.00488813
-0.000125558
0.00499468
-0.000991315
0.00507251
-0.00181108
0.00505584
-0.00252078
0.00488466
-0.00305438
0.00453668
-0.00337118
0.00403088
-0.00346666
0.00341233
-0.00336417
0.00273211
-0.00309724
0.00203932
-0.0027121
0.00137257
-0.00225166
0.000771497
-0.00177784
0.000264227
-0.00133435
-0.000112411
-0.000985881
-0.000355827
-0.000732397
-0.000496122
-0.000548339
-0.0005712
-0.000393488
-0.000609977
-0.00025337
-0.000624486
-0.000119624
-0.000619889
9.37997e-06
-0.000598227
0.000134934
-0.000560555
0.000260223
-0.000508786
0.000389989
-0.000447153
0.000530615
-0.000383886
0.000690885
-0.000334012
0.000883441
-0.000326119
0.00112935
-0.000413501
0.00147619
-0.00065616
0.00208364
-0.00112934
0.00324557
-0.00211274
0.00461424
-0.00245011
0.0044696
0.00132495
-0.00157674
0.00262001
0.0011199
0.00170425
0.00335178
0.00195065
0.00435423
0.00224459
0.00485803
0.00195606
0.00517262
0.00131696
0.00540095
0.000524941
0.00557939
-0.000303984
0.00567901
-0.00109092
0.00563734
-0.00176939
0.00540337
-0.0022868
0.00496545
-0.00261645
0.00435142
-0.00275715
0.00361417
-0.00272942
0.00281406
-0.00256407
0.00200158
-0.00228477
0.00122623
-0.00193676
0.000520108
-0.00154554
-6.53478e-05
-0.00119239
-0.000487488
-0.000912206
-0.00074616
-0.000727205
-0.000891062
-0.000587488
-0.00097131
-0.000468084
-0.00101365
-0.000351142
-0.00103431
-0.000232708
-0.00103967
-0.000114264
-0.00103098
6.86993e-07
-0.00100674
0.000110689
-0.000964925
0.000218407
-0.00090503
0.000330093
-0.000829342
0.000454926
-0.000744256
0.000605798
-0.000662044
0.000801223
-0.000602822
0.00107012
-0.000592269
0.00146566
-0.000612793
0.00210437
-0.000525865
0.00315913
-0.000469363
0.00455815
-0.000413989
0.00441464
0.00106712
0.00288177
0.00457084
0.00487148
0.00165002
0.00535801
0.00175806
0.00559442
0.00171966
0.00582584
0.00108555
0.00601356
0.000337233
0.0060805
-0.000370885
0.00595489
-0.000965272
0.00560308
-0.00141753
0.00503741
-0.00172112
0.00430461
-0.00188364
0.00346261
-0.00191517
0.00257007
-0.00183689
0.00168261
-0.00167662
0.000834102
-0.00143627
6.94999e-05
-0.00117216
-0.00054752
-0.000928521
-0.00097395
-0.00076596
-0.00123082
-0.000655335
-0.00137893
-0.000579076
-0.00145955
-0.000506854
-0.00150268
-0.000424932
-0.00152395
-0.000329865
-0.00153163
-0.000225021
-0.00152929
-0.000116614
-0.00151703
-1.15875e-05
-0.00149201
8.56564e-05
-0.00144998
0.000176375
-0.00138767
0.000267786
-0.00130419
0.00037144
-0.00120121
0.000502818
-0.00108218
0.000682166
-0.000948087
0.000935973
-0.000782935
0.00130043
-0.00051423
0.00183567
4.08144e-06
0.00264106
0.000726997
0.00383561
0.00121285
0.00392919
0.00244191
0.00793015
0.00536806
0.00580985
0.00387835
0.00556218
0.00196735
0.00563474
0.00101303
0.00560071
0.000371323
0.00535881
-0.000128922
0.00489706
-0.000503478
0.00425529
-0.000775743
0.00348666
-0.000952491
0.00264387
-0.00104086
0.00176765
-0.00103896
0.000895127
-0.000964376
6.27353e-05
-0.000844236
-0.000665885
-0.000707658
-0.00122866
-0.0006094
-0.00161277
-0.000544416
-0.00185826
-0.000520459
-0.00200278
-0.000510784
-0.00208769
-0.000494133
-0.00213734
-0.000457151
-0.0021652
-0.000397037
-0.00217839
-0.000316667
-0.00218125
-0.000222168
-0.0021765
-0.000121401
-0.00216524
-2.28917e-05
-0.00214596
6.63459e-05
-0.00211452
0.000144921
-0.00206609
0.000219363
-0.00199547
0.000300838
-0.00189549
0.000402854
-0.00175471
0.000541357
-0.00155438
0.00073552
-0.00125986
0.00100569
-0.000792876
0.00136843
-1.51428e-05
0.00186317
0.00109997
0.00272061
0.00162322
0.00340611
0.00423625
0.00408929
0.00152534
0.00449124
0.00347642
0.00372473
0.0027339
0.00322809
0.00150972
0.00288883
0.000710652
0.00252629
0.000233665
0.0020808
-5.79767e-05
0.00154061
-0.000235549
0.000923945
-0.000335847
0.000247559
-0.00036449
-0.000450805
-0.000340614
-0.00111087
-0.000304332
-0.00167778
-0.000277355
-0.00211497
-0.000270492
-0.00242626
-0.000298119
-0.00262664
-0.000344026
-0.00275445
-0.000392612
-0.0028392
-0.000425957
-0.00289917
-0.000434081
-0.00294271
-0.000413535
-0.00297373
-0.000365966
-0.00299421
-0.000296189
-0.00300529
-0.000211141
-0.00300786
-0.000118927
-0.00300327
-2.75906e-05
-0.00299362
5.66155e-05
-0.00297734
0.000128612
-0.00294952
0.000191577
-0.00290251
0.000253907
-0.00282375
0.000324198
-0.00269354
0.000411203
-0.00248258
0.000524496
-0.00214806
0.000670945
-0.0016238
0.000843779
-0.00077569
0.00101458
0.000642578
0.001302
0.00128579
0.00276265
0.00570189
-0.00263547
-0.0068107
-0.00743357
-0.00748028
-0.00375765
-0.00215056
-0.00168387
0.00140267
-0.000769524
0.00181961
-0.000566995
0.00130725
-0.000642004
0.000785697
-0.000822524
0.000414206
-0.00105883
0.000178344
-0.00134608
5.16881e-05
-0.00168853
6.58334e-06
-0.00206424
1.11962e-05
-0.0024394
3.45133e-05
-0.00278781
4.40358e-05
-0.00308447
1.92631e-05
-0.00330674
-4.82476e-05
-0.00345155
-0.000153292
-0.00354451
-0.000251005
-0.00361292
-0.000324096
-0.00367152
-0.000367238
-0.00372579
-0.00037969
-0.00377658
-0.00036265
-0.0038233
-0.000319204
-0.00386525
-0.000254288
-0.00390172
-0.000174793
-0.00393129
-8.95371e-05
-0.00394965
-9.42727e-06
-0.00394914
5.59441e-05
-0.00392976
0.000109151
-0.00389392
0.000155749
-0.00384122
0.000201319
-0.00376778
0.000250949
-0.00366648
0.000310125
-0.00352594
0.000384139
-0.00332399
0.000469068
-0.0030274
0.000547108
-0.00270452
0.000691439
-0.00272344
0.0013205
-0.00235713
0.00239588
0.00354067
-0.00738172
0.00102475
-0.00814862
-0.00671332
-0.00719428
-0.00310485
-0.00566971
-0.000121831
-0.00457697
0.000726921
-0.0039862
0.000716523
-0.00372784
0.000527368
-0.00366134
0.000347708
-0.00370269
0.000219684
-0.00379595
0.00014491
-0.00390012
0.000110693
-0.00398851
9.95133e-05
-0.00404774
9.36707e-05
-0.00408178
7.80139e-05
-0.00410553
4.29837e-05
-0.00413507
-1.86942e-05
-0.00417985
-0.00010845
-0.00424186
-0.000188875
-0.00432102
-0.000244784
-0.00441402
-0.000274079
-0.00451474
-0.00027884
-0.00461504
-0.00026228
-0.00470614
-0.000228122
-0.0047803
-0.000180242
-0.00483228
-0.000123007
-0.00485992
-6.21595e-05
-0.00486434
-5.28374e-06
-0.00484196
3.333e-05
-0.00479042
5.74636e-05
-0.00471215
7.74278e-05
-0.00460795
9.71783e-05
-0.00447503
0.000118189
-0.00430577
0.00014109
-0.00408752
0.000166146
-0.00380281
0.000184618
-0.00340793
0.00015243
-0.00270878
-7.5928e-06
-0.00122099
-0.000167267
-4.55302e-05
0.00122026
0.00370295
0.00156667
-0.00508187
-0.00812353
-0.00818602
-0.00740491
-0.00664204
-0.00607505
-0.00569249
-0.00544097
-0.00526585
-0.00512552
-0.00499616
-0.00487192
-0.00476242
-0.00468719
-0.00467322
-0.004749
-0.00490549
-0.00511845
-0.00536144
-0.00561004
-0.00584288
-0.00604223
-0.00619417
-0.00628916
-0.00632342
-0.00630085
-0.00623969
-0.00615452
-0.00604965
-0.00592552
-0.00578106
-0.00561461
-0.00542419
-0.0052165
-0.00504232
-0.00502953
-0.00517797
-0.00394056
)
;

boundaryField
{
    floor
    {
        type            calculated;
        value           nonuniform List<scalar> 
36
(
0
0
0
0
0
0
0
0
0
0
0
0
0
0
0
0
0
0
0
-6.43877e-06
-1.68843e-05
-2.60335e-05
-3.43096e-05
-3.49357e-05
-2.87834e-05
-2.87009e-05
-2.9199e-06
-5.44123e-06
-5.68747e-06
-5.90773e-06
-4.85371e-06
-8.93837e-06
-1.02123e-05
-1.28333e-05
-1.44575e-05
-1.54452e-05
)
;
    }
    ceiling
    {
        type            calculated;
        value           nonuniform List<scalar> 
43
(
-5.79218e-05
-6.47184e-05
-6.30953e-05
-5.92601e-05
-5.41143e-05
-4.62909e-05
-3.96058e-05
-3.48651e-05
-3.18811e-05
-3.02823e-05
-2.97265e-05
-2.99403e-05
-3.06499e-05
-3.15293e-05
-3.22559e-05
-3.26287e-05
-3.25889e-05
-3.22561e-05
-3.16832e-05
-3.09478e-05
-3.0159e-05
-2.94323e-05
-2.88543e-05
-2.84609e-05
-2.82383e-05
-2.81376e-05
-2.80904e-05
-2.80169e-05
-2.78386e-05
-2.74896e-05
-2.69341e-05
-2.61642e-05
-2.51941e-05
-2.40542e-05
-2.2785e-05
-2.1433e-05
-2.00337e-05
-1.85464e-05
-1.69718e-05
-1.58344e-05
1.93386e-05
1.5188e-05
-0.000246568
)
;
    }
    sWall
    {
        type            calculated;
        value           nonuniform List<scalar> 9(-0.000140236 -0.00016452 -0.000194248 -0.000225966 -0.000245167 -0.000281099 -0.000423758 -0.000453698 -0.000483983);
    }
    nWall
    {
        type            calculated;
        value           nonuniform List<scalar> 
14
(
-9.04236e-05
-9.77016e-05
-0.000103155
-0.000104438
-0.000116342
-0.000130152
-0.000144562
-0.000155624
-0.00016165
-0.000171032
-0.000180072
-0.000196228
-0.000207989
-0.000221747
)
;
    }
    sideWalls
    {
        type            empty;
        value           nonuniform 0();
    }
    glass1
    {
        type            calculated;
        value           nonuniform List<scalar> 9(-6.40347e-05 -0.000170322 -0.000257924 -0.000331209 -0.000393193 -0.0004464 -0.000492213 -0.000535495 -0.000587175);
    }
    glass2
    {
        type            calculated;
        value           nonuniform List<scalar> 2(-0.000367465 -0.000385768);
    }
    sun
    {
        type            calculated;
        value           uniform 0;
    }
    Table_master
    {
        type            calculated;
        value           nonuniform List<scalar> 9(-1.53994e-07 -1.54111e-07 -1.54143e-07 -1.54163e-07 -1.54176e-07 -1.54181e-07 -1.54179e-07 -1.54165e-07 -1.54112e-07);
    }
    Table_slave
    {
        type            calculated;
        value           nonuniform List<scalar> 9(1.53663e-07 1.53719e-07 1.53719e-07 1.53735e-07 1.53757e-07 1.53801e-07 1.53868e-07 1.53961e-07 1.54088e-07);
    }
    inlet
    {
        type            calculated;
        value           uniform -0.0116482;
    }
    outlet
    {
        type            calculated;
        value           nonuniform List<scalar> 2(0.00986996 0.0122784);
    }
}


// ************************************************************************* //
