/*--------------------------------*- C++ -*----------------------------------*\
  =========                 |
  \\      /  F ield         | OpenFOAM: The Open Source CFD Toolbox
   \\    /   O peration     | Website:  https://openfoam.org
    \\  /    A nd           | Version:  6
     \\/     M anipulation  |
\*---------------------------------------------------------------------------*/
FoamFile
{
    version     2.0;
    format      ascii;
    class       volScalarField;
    location    "430";
    object      epsilon;
}
// * * * * * * * * * * * * * * * * * * * * * * * * * * * * * * * * * * * * * //

dimensions      [0 2 -3 0 0 0 0];

internalField   nonuniform List<scalar> 
458
(
0.000528494
0.000689126
0.000746317
0.00086459
0.00098716
0.00111876
0.00127097
0.00141851
0.00153678
0.00159267
0.00155374
0.00138655
0.000956819
0.000580443
0.000350833
5.12921e-05
8.2868e-05
0.000120787
0.000136748
0.000130013
0.000107168
8.54218e-05
6.86023e-05
5.5885e-05
4.61577e-05
3.86154e-05
3.27196e-05
2.79925e-05
2.40797e-05
2.07032e-05
1.76278e-05
1.58437e-05
1.22741e-05
0.0012512
0.00181648
0.000633033
0.000617286
0.000645618
0.000705725
0.000808141
0.000935697
0.00105237
0.00111131
0.00108093
0.000965722
0.00074713
0.000555813
0.000418286
0.000678402
0.000439562
0.00025972
4.89316e-05
8.89781e-05
0.000108169
0.000110031
0.000106968
0.000109694
8.70563e-05
6.69209e-05
5.17311e-05
4.04685e-05
3.21067e-05
2.58698e-05
2.11261e-05
1.75282e-05
1.52779e-05
1.44032e-05
4.0124e-05
2.6719e-05
0.00219195
0.00424363
0.000714395
0.000559736
0.000583177
0.000659953
0.000784314
0.000938432
0.00106878
0.00113187
0.00110905
0.0010038
0.000807337
0.000611066
0.000456408
0.000379681
0.000338947
0.000364214
0.000147156
0.00015069
0.000137725
0.00012527
0.000120067
0.00024697
0.000164456
0.000112078
7.90996e-05
5.79001e-05
4.38765e-05
3.43879e-05
2.78674e-05
2.35167e-05
1.83519e-05
1.65539e-05
8.57119e-05
4.34714e-05
0.00343913
0.00863126
0.00102075
0.000534893
0.000543801
0.000640173
0.00080548
0.00100758
0.00114992
0.00121195
0.00118992
0.00107232
0.000858177
0.000637545
0.000464031
0.000354116
0.000300451
0.000329075
0.000485692
0.00036012
0.000246591
0.000188071
0.000154578
0.00014079
0.000344001
0.000263968
0.000217205
0.000185929
0.000161246
0.000139359
0.000120236
0.000101931
8.29859e-05
5.00115e-05
3.27838e-05
0.000159982
6.42718e-05
0.00510856
0.0154275
0.00186683
0.000557521
0.000506208
0.000633782
0.000910413
0.00119648
0.00134206
0.00138977
0.00134756
0.00118761
0.000924974
0.000652589
0.000451111
0.000332002
0.000270483
0.000270486
0.000316005
0.000273546
0.000232445
0.000199628
0.000169551
0.000142913
0.000134236
0.000124162
0.000117208
0.000110693
0.0001028
9.31732e-05
8.31961e-05
7.34284e-05
6.41466e-05
5.15702e-05
4.02136e-05
0.000101014
0.00015673
0.000153313
0.0001769
0.000223101
0.00740606
0.0232064
0.00412657
0.000845023
0.000546593
0.000663718
0.00122809
0.00156006
0.00166993
0.00167323
0.00158333
0.0013611
0.00101472
0.000662798
0.000415709
0.000286283
0.000238085
0.000242628
0.000263834
0.000262875
0.000245626
0.000216138
0.000181441
0.000149036
0.000128585
0.000121032
0.000119679
0.000118417
0.000114237
0.000105621
9.24728e-05
7.87494e-05
6.6279e-05
5.50449e-05
4.79486e-05
7.00104e-05
0.000118233
0.00013978
0.000254196
0.000250279
0.010273
0.027966
0.00891636
0.00274945
0.00148311
0.0015148
0.00202838
0.00218232
0.00217095
0.00207629
0.00189956
0.0015763
0.00111168
0.000660753
0.000367426
0.0002398
0.000214896
0.000235573
0.000262421
0.00026741
0.000248079
0.00021433
0.000178032
0.000148463
0.000132935
0.000131588
0.000136902
0.000143092
0.000147409
0.000147287
0.000137893
0.00012164
0.000106018
9.29935e-05
8.7664e-05
0.000101631
0.00014653
0.000224365
0.000423089
0.000430244
0.0111025
0.0320647
0.0169258
0.00953014
0.00582451
0.00443662
0.00368681
0.00322419
0.00288587
0.00259354
0.0022725
0.00179537
0.00116568
0.000605488
0.000300143
0.000218013
0.000214766
0.000237413
0.000255882
0.000250729
0.000225069
0.000192227
0.000163963
0.000146636
0.00014207
0.000147899
0.000160045
0.00017641
0.00019669
0.000220742
0.000247183
0.000265206
0.000279904
0.000313289
0.000380484
0.000573109
0.00103001
0.0018423
0.00567675
0.0015806
0.0104904
0.0185346
0.0143943
0.0107786
0.00808538
0.00627893
0.00506235
0.00423899
0.00361103
0.00310421
0.00260927
0.00190201
0.00103792
0.000457263
0.000269995
0.000226048
0.000225936
0.000235027
0.000235443
0.00022125
0.000198152
0.000175169
0.000159129
0.000152285
0.00015392
0.000162388
0.000176802
0.000197913
0.000227912
0.000270082
0.00032871
0.000408538
0.000517263
0.000677888
0.000910319
0.00121583
0.00155367
0.0018461
0.00207592
0.0012293
0.00440435
0.00584852
0.00624523
0.00605372
0.00553526
0.00477138
0.00391718
0.00323176
0.00257144
0.00145479
0.000709864
0.000396756
0.000297085
0.000269846
0.00026506
0.000264003
0.000258115
0.000245314
0.000229659
0.00021545
0.000205225
0.000199389
0.000197464
0.000199095
0.000204543
0.000215031
0.000232957
0.000262214
0.000308817
0.000379212
0.000480237
0.000619894
0.000798982
0.000992096
0.00113418
0.00114624
0.000992148
0.000639124
0.00358131
0.0107241
0.00984713
0.00813668
0.00629494
0.00426358
0.00253351
0.00150341
0.000958819
0.000630953
0.000483659
0.000429214
0.000414491
0.000414431
0.000416988
0.00041591
0.000407745
0.000391961
0.000371055
0.000350498
0.000331876
0.000315518
0.000301812
0.000291639
0.000286455
0.000288148
0.000298982
0.00032177
0.000360839
0.000421796
0.000511104
0.000634739
0.000792856
0.000974187
0.0011205
0.00124675
0.000842708
0.000664842
0.00408704
0.00434578
0.0046099
0.00646037
0.00484402
0.00278543
0.00147584
0.00105428
0.000795178
0.000653346
0.000568438
0.000491925
0.000433519
0.000395307
0.000370238
0.000349803
0.000328628
0.000304646
0.000279654
0.00025822
0.000242572
0.000231639
0.000225104
0.000222495
0.000223635
0.000228703
0.000238205
0.000253003
0.000274537
0.000305371
0.000346184
0.000399064
0.00046646
0.000551546
0.000657519
0.000808305
0.000875988
0.000822879
0.000664294
0.000523266
)
;

boundaryField
{
    floor
    {
        Cmu             0.09;
        kappa           0.41;
        E               9.8;
        type            epsilonWallFunction;
        value           nonuniform List<scalar> 
36
(
0.000350833
5.12921e-05
8.2868e-05
0.000120787
0.000136748
0.000130013
0.000107168
8.54218e-05
6.86023e-05
5.5885e-05
4.61577e-05
3.86154e-05
3.27196e-05
2.79925e-05
2.40797e-05
2.07032e-05
1.76278e-05
1.58437e-05
1.22741e-05
1.22741e-05
2.6719e-05
4.34714e-05
6.42718e-05
0.000153313
0.0001769
0.000223101
0.000350833
0.000678402
0.000439562
0.00025972
5.12921e-05
0.00025972
4.89316e-05
0.000364214
0.000147156
0.000485692
)
;
    }
    ceiling
    {
        Cmu             0.09;
        kappa           0.41;
        E               9.8;
        type            epsilonWallFunction;
        value           nonuniform List<scalar> 
43
(
0.00408704
0.00434578
0.0046099
0.00646037
0.00484402
0.00278543
0.00147584
0.00105428
0.000795178
0.000653346
0.000568438
0.000491925
0.000433519
0.000395307
0.000370238
0.000349803
0.000328628
0.000304646
0.000279654
0.00025822
0.000242572
0.000231639
0.000225104
0.000222495
0.000223635
0.000228703
0.000238205
0.000253003
0.000274537
0.000305371
0.000346184
0.000399064
0.00046646
0.000551546
0.000657519
0.000808305
0.000875988
0.000822879
0.000664294
0.000523266
0.0104904
0.0185346
0.00358131
)
;
    }
    sWall
    {
        Cmu             0.09;
        kappa           0.41;
        E               9.8;
        type            epsilonWallFunction;
        value           uniform 0.00408704;
    }
    nWall
    {
        Cmu             0.09;
        kappa           0.41;
        E               9.8;
        type            epsilonWallFunction;
        value           nonuniform List<scalar> 6(0.000223101 0.000250279 0.000430244 0.000639124 0.000664842 0.000523266);
    }
    sideWalls
    {
        type            empty;
    }
    glass1
    {
        Cmu             0.09;
        kappa           0.41;
        E               9.8;
        type            epsilonWallFunction;
        value           nonuniform List<scalar> 9(0.000528494 0.0012512 0.00219195 0.00343913 0.00510856 0.00740606 0.010273 0.0111025 0.0104904);
    }
    glass2
    {
        Cmu             0.09;
        kappa           0.41;
        E               9.8;
        type            epsilonWallFunction;
        value           nonuniform List<scalar> 2(0.0015806 0.0012293);
    }
    sun
    {
        Cmu             0.09;
        kappa           0.41;
        E               9.8;
        type            epsilonWallFunction;
        value           nonuniform List<scalar> 
14
(
0.000528494
0.000689126
0.000746317
0.00086459
0.00098716
0.00111876
0.00127097
0.00141851
0.00153678
0.00159267
0.00155374
0.00138655
0.000956819
0.000580443
)
;
    }
    Table_master
    {
        Cmu             0.09;
        kappa           0.41;
        E               9.8;
        type            epsilonWallFunction;
        value           nonuniform List<scalar> 9(0.00024697 0.000164456 0.000112078 7.90996e-05 5.79001e-05 4.38765e-05 3.43879e-05 2.78674e-05 2.35167e-05);
    }
    Table_slave
    {
        Cmu             0.09;
        kappa           0.41;
        E               9.8;
        type            epsilonWallFunction;
        value           nonuniform List<scalar> 9(0.000344001 0.000263968 0.000217205 0.000185929 0.000161246 0.000139359 0.000120236 0.000101931 8.29859e-05);
    }
    inlet
    {
        type            turbulentMixingLengthDissipationRateInlet;
        mixingLength    0.01;
        phi             phi;
        k               k;
        value           uniform 0.000471671;
    }
    outlet
    {
        type            zeroGradient;
    }
}


// ************************************************************************* //
