/*--------------------------------*- C++ -*----------------------------------*\
  =========                 |
  \\      /  F ield         | OpenFOAM: The Open Source CFD Toolbox
   \\    /   O peration     | Website:  https://openfoam.org
    \\  /    A nd           | Version:  6
     \\/     M anipulation  |
\*---------------------------------------------------------------------------*/
FoamFile
{
    version     2.0;
    format      ascii;
    class       volScalarField;
    location    "430";
    object      k;
}
// * * * * * * * * * * * * * * * * * * * * * * * * * * * * * * * * * * * * * //

dimensions      [0 2 -2 0 0 0 0];

internalField   nonuniform List<scalar> 
458
(
0.00259076
0.00309219
0.00326099
0.003597
0.00392939
0.00427128
0.00465041
0.00500368
0.00527807
0.00540527
0.00531682
0.00492824
0.00384846
0.00275787
0.00197152
0.000547143
0.000753341
0.000968455
0.001052
0.00101716
0.000894218
0.000768739
0.00066419
0.000579335
0.000509991
0.000452801
0.000405451
0.000365394
0.000330497
0.000298831
0.000268451
0.000250018
0.000210892
0.00460204
0.00839804
0.0047856
0.00506387
0.00550694
0.00607433
0.006743
0.00751068
0.0082252
0.00867895
0.00871667
0.00829852
0.00720265
0.00586805
0.00409487
0.00306003
0.00229129
0.00161338
0.000530225
0.00114023
0.00152957
0.00171917
0.00173142
0.00147919
0.00120739
0.000989644
0.000823163
0.000694773
0.000594302
0.000513076
0.000445466
0.000388213
0.000346953
0.000323648
0.000594878
0.000354227
0.00668788
0.0148159
0.00554883
0.00535509
0.00563516
0.00611926
0.0067832
0.00758705
0.00832781
0.00884931
0.00905399
0.00886291
0.00805501
0.00685787
0.00550997
0.00432328
0.00348624
0.00202133
0.00110472
0.00155211
0.00182956
0.00200591
0.00200199
0.00156014
0.00118969
0.000921328
0.000730325
0.00059318
0.000493047
0.000419119
0.000364304
0.000325326
0.000304113
0.000312694
0.000943015
0.000490009
0.00903025
0.023681
0.00652737
0.00526338
0.00534012
0.0057666
0.00650383
0.00741273
0.00816284
0.00872819
0.00906185
0.00896871
0.00821295
0.00704658
0.00583178
0.00476569
0.00389688
0.00293194
0.00244892
0.00254536
0.00255982
0.00261704
0.00260825
0.00246206
0.00194584
0.00163092
0.00143212
0.00129111
0.00117416
0.00106534
0.000965511
0.000864842
0.000754056
0.000565532
0.000458731
0.00141282
0.000635938
0.0117562
0.0357224
0.00894985
0.00523186
0.00500797
0.00549125
0.00660627
0.00774229
0.00848249
0.00904922
0.00941388
0.00924273
0.00833015
0.00698563
0.00571548
0.00475368
0.00402514
0.00353585
0.00370507
0.00361638
0.00354048
0.00344069
0.00324104
0.00293983
0.00260632
0.00238144
0.00224366
0.00212912
0.00199977
0.00183237
0.00162793
0.00140087
0.00116337
0.000903552
0.00069016
0.00109548
0.00128496
0.00113533
0.00124897
0.00145793
0.0150589
0.0488423
0.0152774
0.00623057
0.0051313
0.00558667
0.00757264
0.00874003
0.00936118
0.00984294
0.0101202
0.00980308
0.00860902
0.00691349
0.00540944
0.00445613
0.00401687
0.0039622
0.00421337
0.00436906
0.00431544
0.0040575
0.00366245
0.00322281
0.00287147
0.00268969
0.00260059
0.00252172
0.0024129
0.00225261
0.00201849
0.00174807
0.00146477
0.00118218
0.00096102
0.00099246
0.00119809
0.0012438
0.00188607
0.00157405
0.0187298
0.0574055
0.0271417
0.012169
0.00845297
0.00864691
0.00999612
0.0104818
0.0107624
0.0110366
0.0111537
0.0106005
0.0090105
0.00687412
0.00511933
0.00423503
0.00409877
0.00435807
0.00471425
0.00482723
0.00461952
0.00419167
0.00367963
0.00320832
0.00289386
0.00276672
0.00273566
0.00272364
0.00269761
0.00263609
0.00249699
0.00226368
0.00199029
0.00170722
0.0014942
0.00142929
0.00157897
0.00190319
0.00257231
0.0022588
0.0197249
0.05909
0.0392669
0.0265797
0.0192413
0.0161051
0.0140976
0.0130614
0.0126548
0.0125739
0.0124296
0.0114939
0.00931441
0.00666039
0.00482849
0.00425892
0.00430479
0.00458425
0.00479821
0.00470893
0.00433289
0.00382339
0.00333339
0.00296572
0.00276565
0.00270915
0.00273457
0.00280364
0.00290614
0.00304126
0.00320384
0.00331799
0.00332663
0.00334844
0.00351579
0.00421718
0.00580177
0.00813862
0.015891
0.00537793
0.0189931
0.0277581
0.0259036
0.0228759
0.0197362
0.017311
0.0157483
0.0149282
0.0144528
0.0141685
0.0137099
0.0120958
0.00890335
0.00596803
0.00469808
0.00435315
0.00436954
0.00445154
0.0044002
0.00413437
0.00371798
0.00327776
0.00291996
0.00268986
0.00257977
0.00255575
0.00258773
0.0026647
0.00278927
0.00296802
0.00320586
0.00350049
0.00387025
0.00436903
0.00502899
0.00580307
0.00650135
0.00690314
0.0070592
0.00454821
0.00871604
0.0131041
0.0157186
0.0170587
0.0175853
0.017191
0.0161251
0.0152067
0.0140143
0.0107888
0.0074748
0.00555248
0.00474515
0.00445915
0.00436219
0.00427678
0.00410477
0.00382771
0.00350312
0.00320717
0.00297994
0.00282294
0.00271919
0.00265178
0.00261271
0.00260528
0.00264226
0.0027439
0.00293708
0.0032382
0.00364242
0.00414548
0.00470948
0.00520923
0.00542779
0.00518786
0.00448478
0.00294075
0.00927746
0.0227244
0.0245254
0.0238085
0.0214374
0.0170697
0.0128228
0.0099466
0.00785335
0.0063545
0.00551524
0.00510313
0.00492046
0.00484481
0.00478459
0.00467874
0.00449694
0.00424616
0.00396823
0.00371841
0.00350754
0.00333063
0.00318257
0.00306384
0.00298102
0.00294399
0.00296269
0.00304479
0.0032135
0.00348608
0.00387046
0.00436165
0.00492327
0.00548683
0.00585042
0.00612169
0.00467871
0.00301912
0.0101315
0.0105547
0.0109782
0.013748
0.0113468
0.00784627
0.0051376
0.00410556
0.00340181
0.00298421
0.00271972
0.00246984
0.00227025
0.00213481
0.00204357
0.00196767
0.00188744
0.00179445
0.00169492
0.00160718
0.00154157
0.0014949
0.00146665
0.00145529
0.00146026
0.00148224
0.00152301
0.00158545
0.00167418
0.0017973
0.00195407
0.00214831
0.00238384
0.00266557
0.00299691
0.00343916
0.00362856
0.00348037
0.00301746
0.00257365
)
;

boundaryField
{
    floor
    {
        type            kqRWallFunction;
        value           nonuniform List<scalar> 
36
(
0.00197152
0.000547143
0.000753341
0.000968455
0.001052
0.00101716
0.000894218
0.000768739
0.00066419
0.000579335
0.000509991
0.000452801
0.000405451
0.000365394
0.000330497
0.000298831
0.000268451
0.000250018
0.000210892
0.000210892
0.000354227
0.000490009
0.000635938
0.00113533
0.00124897
0.00145793
0.00197152
0.00306003
0.00229129
0.00161338
0.000547143
0.00161338
0.000530225
0.00202133
0.00110472
0.00244892
)
;
    }
    ceiling
    {
        type            kqRWallFunction;
        value           nonuniform List<scalar> 
43
(
0.0101315
0.0105547
0.0109782
0.013748
0.0113468
0.00784627
0.0051376
0.00410556
0.00340181
0.00298421
0.00271972
0.00246984
0.00227025
0.00213481
0.00204357
0.00196767
0.00188744
0.00179445
0.00169492
0.00160718
0.00154157
0.0014949
0.00146665
0.00145529
0.00146026
0.00148224
0.00152301
0.00158545
0.00167418
0.0017973
0.00195407
0.00214831
0.00238384
0.00266557
0.00299691
0.00343916
0.00362856
0.00348037
0.00301746
0.00257365
0.0189931
0.0277581
0.00927746
)
;
    }
    sWall
    {
        type            kqRWallFunction;
        value           uniform 0.0101315;
    }
    nWall
    {
        type            kqRWallFunction;
        value           nonuniform List<scalar> 6(0.00145793 0.00157405 0.0022588 0.00294075 0.00301912 0.00257365);
    }
    sideWalls
    {
        type            empty;
    }
    glass1
    {
        type            kqRWallFunction;
        value           nonuniform List<scalar> 9(0.00259076 0.00460204 0.00668788 0.00903025 0.0117562 0.0150589 0.0187298 0.0197249 0.0189931);
    }
    glass2
    {
        type            kqRWallFunction;
        value           nonuniform List<scalar> 2(0.00537793 0.00454821);
    }
    sun
    {
        type            kqRWallFunction;
        value           nonuniform List<scalar> 
14
(
0.00259076
0.00309219
0.00326099
0.003597
0.00392939
0.00427128
0.00465041
0.00500368
0.00527807
0.00540527
0.00531682
0.00492824
0.00384846
0.00275787
)
;
    }
    Table_master
    {
        type            kqRWallFunction;
        value           nonuniform List<scalar> 9(0.00156014 0.00118969 0.000921328 0.000730325 0.00059318 0.000493047 0.000419119 0.000364304 0.000325326);
    }
    Table_slave
    {
        type            kqRWallFunction;
        value           nonuniform List<scalar> 9(0.00194584 0.00163092 0.00143212 0.00129111 0.00117416 0.00106534 0.000965511 0.000864842 0.000754056);
    }
    inlet
    {
        type            turbulentIntensityKineticEnergyInlet;
        intensity       0.05;
        value           uniform 0.0009375;
    }
    outlet
    {
        type            zeroGradient;
    }
}


// ************************************************************************* //
