/*--------------------------------*- C++ -*----------------------------------*=========                 |
  \      /  F ield         | OpenFOAM: The Open Source CFD Toolbox
   \    /   O peration     | Website:  https://openfoam.org
    \  /    A nd           | Version:  6
     \/     M anipulation  |
\*---------------------------------------------------------------------------*/
FoamFile
{
    version     2.0;
    format      ascii;
    class       volScalarField;
    location    "430";
    object      PMV;
}
// * * * * * * * * * * * * * * * * * * * * * * * * * * * * * * * * * * * * * //

dimensions      [0 0 0 0 0 0 0];

internalField   nonuniform List<scalar> 
458
(
1.326062895875645
1.07974753325216
1.046677688459116
1.017823209055507
0.9994983391377834
0.9911316553444933
0.9941362669770556
1.0090210840386329
1.039140001816008
1.0882953091275742
1.1605634681082675
1.227482686022223
1.2432393348257085
1.2518335296825822
1.2637694955892895
1.3830982544996295
1.3692593487130884
1.3659187837963844
1.3725998599364992
1.3778491250627785
1.3816666873097492
1.3771447674859294
1.373200805149536
1.374069476072575
1.3763494521374346
1.3792522658556108
1.382904701057333
1.3876492913001568
1.394477379008325
1.4056600327778364
1.4160213956518395
1.4207923876856703
1.4351046055773298
1.2586296561489585
1.0925626623333629
1.080162030964141
1.0518129870568205
1.0346640000510643
1.0265222439965067
1.0280763024135495
1.0364499681951826
1.0513027707054532
1.0758861295428277
1.1169346978448362
1.1796001541839058
1.2408520151234161
1.2513560808978625
1.2518109831407143
1.211912119583155
1.214499890763817
1.2388960314479762
1.338888417231955
1.3558967717217
1.3558967717217
1.3635326333937126
1.3665750388318112
1.3663410020869895
1.3668664182890882
1.3684421419541724
1.3696055686222242
1.3703413516723857
1.3707846138645505
1.3725212797172908
1.3741038465814897
1.3776777794853445
1.3862563886567176
1.3959818939694024
1.4031391027321924
1.388038549327552
1.2898251529063818
1.0839273817219641
1.1131152067182408
1.0984030073379536
1.0918861115255343
1.0885483389481252
1.088800369676494
1.0842563808821186
1.06994331812808
1.057580372750925
1.0700577457399765
1.1210213458858618
1.2146026715480276
1.2580402932956356
1.2642469239319098
1.26711147707995
1.2632908635085816
1.2480066997051593
1.2478357445087211
1.309128515434488
1.3181492292921215
1.3275135101081021
1.338888650825243
1.3436956880145758
1.3663806417472628
1.3821438775078112
1.3826210665716077
1.3830982544996295
1.3835754412904995
1.3845298114549123
1.385006994825578
1.385961358136726
1.389301593556076
1.393118936076961
1.3863233856533816
1.3152459150507219
1.3634396344556652
1.077926730426833
1.1374192553466587
1.1490206999409556
1.1670260627687286
1.178833681541371
1.180917966983882
1.153790697639162
1.094233919904294
1.0405667321746732
1.030281480548754
1.0800822254658369
1.1736930595656172
1.2651377043745615
1.2785693951529669
1.2795242000381395
1.2485111482866325
1.224025794817534
1.176459986118496
1.2417251636785582
1.2789580679958807
1.306301304570608
1.3382482456880218
1.3740241041186962
1.4016614131362408
1.3968920171363526
1.3921666257318923
1.3924608651249502
1.3946187613519183
1.3980890949594726
1.4059543723785
1.419835145534656
1.4437511531433924
1.4415139388580438
1.4255632543610925
1.3672148519197844
1.2713221627911258
1.4574899239335035
1.0864164611637177
1.1550867389325967
1.1943911552049202
1.2508428224848038
1.2985507089780026
1.3057969588706548
1.227061530066983
1.113536829000672
1.024590425304074
1.0009017755072156
1.053551166515051
1.150696274794332
1.2534398699716731
1.2990969420458118
1.3005290358334016
1.2835753589060293
1.2557285587135536
1.2552044056585767
1.272224735695709
1.3048813163443478
1.3468469670547476
1.3904093001821283
1.4324592942609493
1.4632485168146943
1.4752412349102144
1.4772407973189294
1.478381640404269
1.4776839273888793
1.475592635809719
1.4739011783064928
1.473858157422588
1.4730338616088552
1.457066197285563
1.4288455443018515
1.3530062181585936
1.3520152570018364
1.3527388568939023
1.437633700660832
1.3168260447966385
1.5550657557121843
1.1166865276846356
1.1870260740207192
1.2265135051103584
1.3134976632605408
1.3878700709974154
1.4117373038413186
1.2524225458684646
1.109616173761045
1.0062421391617977
0.9804152562215948
1.0384550869027365
1.14770681163343
1.267711055768524
1.3282145474552023
1.3334648851066488
1.3310783827621724
1.3325102871349783
1.3411089158876812
1.3631347990939984
1.3991470838812956
1.4351046055773298
1.4637254914307192
1.4875724127044254
1.5056936192540873
1.5185678699881475
1.5266732898672155
1.531917725601306
1.5343014949222058
1.5333479921009747
1.5290571486101325
1.5219054516977213
1.5055616427838872
1.4750384764744724
1.4369831582041028
1.3653909662511081
1.3582298699225372
1.3523105684238024
1.3775144117413278
1.3855914170699464
1.6473353724281126
1.2041773702664236
1.3067679825035623
1.286797598685852
1.3434633472883166
1.4241320076109258
1.346547905858766
1.2214807194809514
1.0774092979174381
0.9753634583170714
0.9611481812756176
1.0399479028646668
1.1736299300705295
1.318560854974807
1.3687821284296193
1.3792807193552088
1.3792807193552088
1.385006994825578
1.4040933769697512
1.4312881267681716
1.4608636228946017
1.4890031128372259
1.5133229422611318
1.531917725601306
1.5447895899708828
1.5528934716116285
1.557183562528124
1.559090224833311
1.5581368971376512
1.5548001958504822
1.5481265416543513
1.5390689103619093
1.5281036099627945
1.5111097886188694
1.4659520291297616
1.4030557710517804
1.3732213903263866
1.35224702613456
1.3248167371111705
1.4300241603537758
1.7879430195907058
1.5764779748433349
1.518613831067938
1.4033996868908327
1.382013372955567
1.3689277869003478
1.2911551526362668
1.1431068363055994
0.9928348583953418
0.9160830733674944
0.9448980927706747
1.0720918127888324
1.2474492357960278
1.3821438775078112
1.421746571097715
1.433196376517505
1.4374898626580013
1.4479846030583017
1.4684951607112715
1.493295133202576
1.5180910662563245
1.5390689103619093
1.5557535476817679
1.5667165957624747
1.5733893007429032
1.5762489245368876
1.5772021181052651
1.5757723250549849
1.5729126905128452
1.5686231183413124
1.5624268171126015
1.5538468371556633
1.542882723472421
1.530487444422069
1.516183835535435
1.5009250921259225
1.491606165562319
1.463758527589346
1.3852827003567194
1.299320983590257
1.9969918080469558
1.8501118963064038
1.689536678728288
1.54799471789041
1.4562463900686733
1.381364261461671
1.172853356056052
0.9487719106995601
0.8234069088070965
0.8345781669971591
0.9642184206649369
1.180592055373931
1.3730770714140519
1.4494156541031187
1.4775571428336942
1.489480009926128
1.498063902770313
1.5109388215062234
1.5290571486101325
1.5476498393294287
1.5643334029275688
1.576725522220903
1.5821264207838865
1.5784677742733293
1.573031798409117
1.5665198273441479
1.5591159682867468
1.5503693277368928
1.540414759217847
1.5287160684402208
1.5152749846846192
1.500554526093078
1.4862508384771254
1.4690876358807725
1.449411309386141
1.4315330285554815
1.4200285089732403
1.4157167534219048
1.4056433693286339
1.3749591295028474
-1.6787686200715428
-0.7872834891154072
-0.24297416372172495
-0.05405521346527401
0.10271206180943113
0.30734252187421546
0.5702753730741777
0.8628526227506693
1.1705589542219552
1.379757915203215
1.4719982097418203
1.485025364397318
1.494409709532975
1.5031448889609125
1.5147027159140263
1.5282883880379365
1.5413090522677444
1.550662960194455
1.5557808381081446
1.5565174678179674
1.5538827712956933
1.5494451894946357
1.5430945270216576
1.5356022497909605
1.527414925112664
1.518274883567696
1.5100949208326988
1.5025247743562435
1.4965587473139823
1.4923671441857016
1.48915442072213
1.4868773114037377
1.4850653206489564
1.4854439427136035
1.4955497914980493
1.5323583798170999
1.6006244478405318
1.4489360661231998
-1.6893756027865987
-0.608899099389121
-0.027581739172081995
0.2904928056215154
0.5167497188109459
0.7904228083990144
1.0818219051358122
1.3038705564397317
1.3876852537639093
1.435212374142421
1.4637634790076341
1.4803967815656014
1.4920621099006273
1.5013554118479193
1.5101493977816243
1.5182345485889872
1.5248879060394158
1.5297576834674818
1.5327348017155504
1.5335624351098467
1.5322832639732467
1.5299850067971397
1.5272816166635592
1.5238282925757354
1.5202703787283733
1.51727523364432
1.51457105840577
1.5131163564097847
1.5133589304959305
1.5156006547881788
1.5224137208623558
1.5334790958451014
1.545667633379896
1.5555292309325865
1.5662925660458769
1.601507108590053
1.5490833567255389
1.4913992796690414
-1.1280068392185678
-1.1276787761958997
-1.0043555718515362
-0.1952132149686116
0.39825918425386136
0.8238701225804007
1.118987815466944
1.261778050815273
1.348782302081713
1.4016740511962433
1.4352799480433809
1.4597464228714283
1.4744282026854294
1.4832741906845506
1.4893673917588155
1.4928204541522676
1.4949808487003209
1.4951336321012114
1.4940334886791462
1.4910036799277595
1.4880389882838205
1.48492797420568
1.4823557654445083
1.4793794734922752
1.477637978556924
1.4762590301587517
1.476508622383972
1.4777137821739683
1.4814133443014086
1.487311012046588
1.4964919646513872
1.5105996261673655
1.5336776373264607
1.5740330795788136
1.6296148781915367
1.6353313608893036
1.6071195186658283
1.5492011817262459
1.498550531881204
1.5121415461908612
)
;

boundaryField
{
    ".*"
    {
        type            zeroGradient;
    }
}


// ************************************************************************* //
