/*--------------------------------*- C++ -*----------------------------------*=========                 |
  \      /  F ield         | OpenFOAM: The Open Source CFD Toolbox
   \    /   O peration     | Website:  https://openfoam.org
    \  /    A nd           | Version:  6
     \/     M anipulation  |
\*---------------------------------------------------------------------------*/
FoamFile
{
    version     2.0;
    format      ascii;
    class       volScalarField;
    location    "430";
    object      PPD;
}
// * * * * * * * * * * * * * * * * * * * * * * * * * * * * * * * * * * * * * //

dimensions      [0 0 0 0 0 0 0];

internalField   nonuniform List<scalar> 
458
(
41.61107987253622
29.592248308092366
28.123206231959045
26.873750367400106
26.09631934835231
25.745586114429372
25.87123337998044
26.49874438609656
27.79386058502739
29.978231063731116
33.3395799641885
36.596901951634
37.38223430345401
37.813336819555296
38.415201266856535
44.60705703146031
43.87478302842124
43.69850224011756
44.05125171324992
44.32893200457774
44.53116132199944
44.29164576266503
44.08301776766781
44.12894654716557
44.249554348987296
44.403233623717334
44.596793717563386
44.84855030771574
45.211475285399786
45.807355689365245
46.36104987921707
46.61648725218011
47.384473091337235
38.15558716606147
30.171873562856632
29.610906705532557
28.34876445461427
27.599271074881685
27.24720432513783
27.31421629610368
27.676826195124463
28.32631154750736
29.418717858109815
31.289703967751095
34.25277611077347
37.26282299984711
37.78933695240256
37.81220334342191
35.82747297682988
35.95488277058122
37.16509854804695
42.27949658581352
43.17081724375678
43.17081724375678
43.572704095781994
43.73311746114691
43.72077196266503
43.74848912707981
43.83164149217667
43.89306392705432
43.93192109646273
43.95533449967016
44.04709839985016
44.130764060565696
44.31986081522813
44.77460354570716
45.291538124574956
45.67286685836431
44.86922075640333
39.74118243190639
29.78067621313457
31.113200128132263
30.437908085247344
30.141131452209493
29.98969545494539
30.00111677661576
29.79553332384053
29.152672167720823
28.603219116824988
29.15778307172016
31.47909036821183
35.95994709318603
38.125860710252184
38.43934970351226
38.58435799004945
38.39099762967955
37.62113885183356
37.61256164914487
40.73369931778313
41.200316731933775
41.686514661266216
42.27950878943915
42.530866554800554
43.722862898217
44.55645629949777
44.5817548723014
44.60705703146031
44.63236276802573
44.682984937533135
44.70830135254248
44.758944798202705
44.93630737800015
45.13921491732492
44.77815960259541
41.04994677904789
43.56780319615424
29.510356908966486
32.24453030883848
32.791324228662674
33.64835007865669
34.21579551809924
34.316398829604736
33.01738183647295
30.24788199458493
27.856040211629875
27.409458055626985
29.607313836711143
33.96822945777036
38.4844207014313
39.166380628147564
39.215024123398344
37.646452568037574
36.425500192457484
34.10138211792929
37.30647963389382
39.18617933729502
40.58781586248162
42.24605606564353
44.126547307294146
45.59407597347092
45.33998678296271
45.08857483370717
45.10421984517852
45.21899750890901
45.4037296292398
45.823064253175374
46.56521310558478
47.849608929959714
47.72917935783281
46.872209865734575
43.76687260098739
38.797875984896
48.59032114894394
29.89317258546859
33.07892691797781
34.96983103341323
37.76354357211695
40.18878885908459
40.56181007621055
36.57600250154586
31.132659972852565
27.16402769272804
26.155412254004233
28.425326308667522
32.87065056791816
37.89412541786883
40.216867023876
40.290513031739245
39.42165486136546
38.009345486534606
37.98294614418356
38.84370052931493
40.51461067979076
42.69588547457062
44.99516355499426
47.24234068436862
48.90134334697239
49.550020710842674
49.658292060940106
49.72007998466427
49.68229072688938
49.569045895519864
49.4774778788137
49.47514922081379
49.43053420684372
48.5674480228492
47.048308146213934
43.01895729799906
42.96693078184342
43.00491876622549
47.52043708096982
41.13176359218207
53.88942825794842
31.278220932046054
34.61196911132946
36.54881452934618
40.95948664447894
44.86027390040138
46.13193740142442
37.84295288406211
30.95193290711127
26.38095425868245
25.300260408162814
27.76403710379364
32.729183271035254
38.61473525031345
41.722985322926185
41.99644303979331
41.87207626616768
41.94668284273331
42.395550048000764
43.55173991075968
45.460083761392234
47.384473091337235
48.92711857209171
50.21820696382504
51.20199056315275
51.90199643658353
52.34306321062414
52.62856295467907
52.758357911413796
52.706438398306226
52.47282687059309
52.083586087453554
51.19481880947598
49.53904362356815
47.48545695498384
43.6706670830052
43.29350104639583
42.982433054074235
44.31121242837154
44.7393121092248
58.906230506473165
35.44777729324149
40.61188432925534
39.58628186424971
42.51870734786263
46.795463690756385
42.68021684821843
36.299517789772636
29.48710631186239
25.091862516647296
24.510760292108486
27.829061325075145
33.9651941856614
41.22165024572806
43.849588484528184
44.4047406767731
44.4047406767731
44.70830135254248
45.72376570187109
47.179440255607965
48.77249736684149
50.295803134599424
51.61672456877145
52.62856295467907
53.329582463156896
53.771073880594535
54.00481697007285
54.10870279128519
54.05675995777162
53.87495938033498
53.511367024548655
53.01798296066393
52.420919533402646
51.496387491971745
49.047465536150476
45.66842275184177
44.084106010633846
42.9790972875284
41.54631149530365
47.11157418661607
66.38522409727082
55.05602821729389
51.90449677041694
45.68676454058922
44.54953812893098
43.85727801838004
39.80929694252425
32.512057461692166
25.816768617972684
22.72114550098506
23.8561590717037
29.248711698787503
37.59317243701461
44.55645629949777
46.66760925626127
47.281935821470775
47.512702395015076
48.07764378135184
49.1849784706638
50.52866935982296
51.87605828615301
53.01798296066393
53.92690238413932
54.524229761216255
54.88776924122677
55.043550913147804
55.09547471808408
55.01758834298764
54.86180424518176
54.62810403799917
54.29050027416479
53.823016517721776
53.22571097255313
52.550692351914904
51.77231416721418
50.942922737837904
50.43701895828844
48.92890388911002
44.722930234911665
40.22838542526473
76.61454206580196
69.5670312332585
61.1812394228554
53.5041854834985
48.52319905904019
44.51513217875075
33.927866328860404
24.011264323864964
19.29975934287647
19.693320424380573
24.63560167527477
34.30065929122952
44.07647668791999
48.15477011533746
49.67542427865727
50.32167145683694
50.787539297086276
51.48709234757091
52.47282687059309
53.485397169777364
54.394381841797376
55.0695130417291
55.36369369045865
55.16441719032527
54.868293086818916
54.513508970246946
54.110105446548474
53.63355334702473
53.09128450705855
52.45425932836649
51.72288247087826
50.92279563887805
50.14654194382712
49.21702303194077
48.15453592513732
47.1925919602781
46.575569560348264
46.34474956587162
45.80646641690733
44.17599779009583
60.602607557520294
18.063102278021262
6.225206602513083
5.060494062259494
5.218488036283901
6.963184892211814
11.812109131734232
20.712694758598772
33.817687632360446
44.43001754376225
49.37448747373499
50.08009910125818
50.589160888678144
51.063505966250695
51.69175904425019
52.43097799205085
53.139994069043034
53.6495507496358
53.92838929916081
53.96852459117296
53.82497434561749
53.58320590182796
53.23724811355776
52.82918946004851
52.38343167745939
51.88605784957633
51.44121317067411
51.029817508584244
50.70581774282883
50.4783105411251
50.30401035985843
50.180512182187435
50.08226528416442
50.102792414544325
50.65104474687336
52.65255519754062
56.37070388273366
48.12892040405005
61.17259442596394
12.775632486016931
5.015748490093415
6.753118731197347
10.58376436996862
18.16838470565034
29.685685115012433
40.46252959765901
44.85045989378326
47.39026522000782
48.929171471052214
49.829244314285894
50.46175857550672
50.966296303399304
51.44417474044649
51.88386363657673
52.24588915038046
52.51096331815085
52.67305060962752
52.718114904249205
52.64846533744416
52.5233388967506
52.37617534178162
52.188222115450955
51.99462039529935
51.83167909381073
51.68459891747955
51.60549080652914
51.618681563135006
51.74059500904601
52.11124347655451
52.713577034336545
53.37741345647757
53.914680531364475
54.501126768582346
56.41872642863359
53.56349334597762
50.425793741772665
31.804093187146663
31.788794082368682
26.301154904933
5.790175979853018
8.304535088738561
19.315974273076762
31.38478184825182
38.31453468939979
42.79732359311779
45.59474970556512
47.393897115122016
48.71215781691568
49.50600616499925
49.985172472372255
50.31556257281594
50.502909446187175
50.62016141709412
50.62845460245176
50.56874133378347
50.404330068835506
50.24351085225612
50.07481925009886
49.935395909743825
49.77413076749977
49.67980219731973
49.60512783781838
49.61864292470023
49.68390763243578
49.88432529349239
50.20403102465547
50.70219213280206
51.46865137677857
52.72438775957145
54.92284088004048
57.9459835927066
58.25601009666946
56.72400288866684
53.56991240576336
50.81396343699806
51.55248502578614
)
;

boundaryField
{
    ".*"
    {
        type            zeroGradient;
    }
}


// ************************************************************************* //
