/*--------------------------------*- C++ -*----------------------------------*\
  =========                 |
  \\      /  F ield         | OpenFOAM: The Open Source CFD Toolbox
   \\    /   O peration     | Website:  https://openfoam.org
    \\  /    A nd           | Version:  6
     \\/     M anipulation  |
\*---------------------------------------------------------------------------*/
FoamFile
{
    version     2.0;
    format      ascii;
    class       volVectorField;
    location    "430";
    object      U;
}
// * * * * * * * * * * * * * * * * * * * * * * * * * * * * * * * * * * * * * //

dimensions      [0 1 -1 0 0 0 0];

internalField   nonuniform List<vector> 
458
(
(0.0315699 0.0922809 0)
(-0.180525 0.027892 0)
(-0.21062 0.0183834 0)
(-0.244751 0.0105815 0)
(-0.267473 0.00193523 0)
(-0.276531 -0.00759985 0)
(-0.268561 -0.0182934 0)
(-0.242382 -0.030465 0)
(-0.198605 -0.0424158 0)
(-0.141903 -0.0517324 0)
(-0.0803882 -0.0559919 0)
(-0.0212561 -0.0517615 0)
(0.0305241 -0.0270209 0)
(0.0466935 -0.00386205 0)
(0.0304929 0.0317565 0)
(-0.0101148 0.010649 0)
(-0.0395174 -0.0209834 0)
(-0.0135013 -0.0341018 0)
(0.0196282 -0.0282363 0)
(0.041005 -0.019824 0)
(0.0571477 -0.0107085 0)
(0.06654 -0.00593525 0)
(0.0704555 -0.00419252 0)
(0.0717831 -0.00351924 0)
(0.0723366 -0.00309859 0)
(0.0725449 -0.00276637 0)
(0.072339 -0.00241412 0)
(0.0715357 -0.00187001 0)
(0.0696125 -0.000762419 0)
(0.0654187 0.00139783 0)
(0.0577083 0.00377607 0)
(0.051039 0.00610512 0)
(-0.013881 0.0249839 0)
(0.214033 0.190367 0)
(-0.16841 0.0768107 0)
(-0.172532 0.0602826 0)
(-0.209067 0.0447877 0)
(-0.232904 0.0266763 0)
(-0.243682 0.00529373 0)
(-0.23811 -0.0200757 0)
(-0.215352 -0.0477954 0)
(-0.176956 -0.0729068 0)
(-0.128095 -0.0896469 0)
(-0.0764393 -0.0937581 0)
(-0.0297503 -0.0819435 0)
(0.012133 -0.0479833 0)
(0.0407198 -0.0114513 0)
(0.0621403 0.0272261 0)
(0.0831589 0.0394992 0)
(0.0759695 0.0548029 0)
(-0.00672939 0.086124 0)
(0.0761489 0.0479018 0)
(0.0106368 -0.0261828 0)
(0.0285095 -0.0434031 0)
(0.0447852 -0.0399889 0)
(0.0586552 -0.0299059 0)
(0.0661169 -0.0129366 0)
(0.0679971 -0.00280202 0)
(0.0679506 0.000946544 0)
(0.0680351 0.00229147 0)
(0.0683469 0.00302167 0)
(0.068575 0.00353635 0)
(0.0686106 0.00399112 0)
(0.0684574 0.00479235 0)
(0.0676226 0.00681731 0)
(0.0637739 0.0124637 0)
(0.05407 0.0173504 0)
(0.0523964 0.0210765 0)
(-0.063869 0.0535832 0)
(0.382123 0.2857 0)
(-0.184562 0.122525 0)
(-0.131773 0.0981533 0)
(-0.168971 0.0707567 0)
(-0.192092 0.0406067 0)
(-0.204138 0.00568445 0)
(-0.200324 -0.0348544 0)
(-0.17935 -0.0785328 0)
(-0.144808 -0.116002 0)
(-0.102776 -0.138046 0)
(-0.0603513 -0.139809 0)
(-0.0235279 -0.119958 0)
(0.00878148 -0.0784863 0)
(0.0336629 -0.0366913 0)
(0.0540276 -0.00267729 0)
(0.0634714 0.0109589 0)
(0.060759 0.0302414 0)
(-0.0241419 0.0766824 0)
(0.13806 -0.00743206 0)
(0.0755697 -0.0362942 0)
(0.0658225 -0.0476949 0)
(0.0697272 -0.0470167 0)
(0.0751945 -0.0418967 0)
(0.0776797 -0.0304124 0)
(0.0678189 -0.0192759 0)
(0.0602935 -0.0134021 0)
(0.0576261 -0.0101806 0)
(0.057065 -0.00812116 0)
(0.0569776 -0.00672208 0)
(0.0572258 -0.00560667 0)
(0.0582845 -0.00430313 0)
(0.0612585 -0.000621266 0)
(0.059948 0.0170516 0)
(0.0470325 0.0287039 0)
(0.0586761 0.0363428 0)
(-0.110953 0.0810358 0)
(0.536267 0.362967 0)
(-0.219818 0.163231 0)
(-0.0866352 0.132427 0)
(-0.124119 0.0956357 0)
(-0.143352 0.0569413 0)
(-0.154918 0.0107187 0)
(-0.150952 -0.0451882 0)
(-0.129679 -0.105296 0)
(-0.099317 -0.153467 0)
(-0.065578 -0.178784 0)
(-0.0338538 -0.177548 0)
(-0.00746304 -0.150682 0)
(0.0151394 -0.104107 0)
(0.0336786 -0.0571247 0)
(0.0486927 -0.0171475 0)
(0.0584657 0.0116116 0)
(0.0703229 0.0383784 0)
(0.0597279 0.0744336 0)
(0.103682 0.0864799 0)
(0.0971698 0.00233496 0)
(0.0824574 -0.0333954 0)
(0.077372 -0.0440101 0)
(0.0737968 -0.044515 0)
(0.0679112 -0.0388142 0)
(0.0686353 -0.0235345 0)
(0.0810942 -0.0154272 0)
(0.091079 -0.0110707 0)
(0.0968077 -0.00834309 0)
(0.0999109 -0.00604597 0)
(0.100646 -0.00361063 0)
(0.0977668 -0.000592507 0)
(0.0899891 0.0034262 0)
(0.0751765 0.00916304 0)
(0.0580186 0.0282797 0)
(0.0413173 0.0445395 0)
(0.0669214 0.0569616 0)
(-0.155648 0.102708 0)
(0.674136 0.422739 0)
(-0.26555 0.19597 0)
(-0.0387316 0.154654 0)
(-0.0751121 0.112407 0)
(-0.0870253 0.069003 0)
(-0.0953149 0.0148958 0)
(-0.0861199 -0.0546063 0)
(-0.0627977 -0.129678 0)
(-0.03926 -0.18337 0)
(-0.0169757 -0.207931 0)
(0.00145696 -0.202066 0)
(0.0151071 -0.169518 0)
(0.0262103 -0.121228 0)
(0.0360739 -0.070799 0)
(0.0446065 -0.0273419 0)
(0.0525626 0.00612095 0)
(0.063597 0.0318496 0)
(0.0749548 0.0425379 0)
(0.09111 0.00996208 0)
(0.090508 -0.0221398 0)
(0.0832933 -0.0353981 0)
(0.0742782 -0.0394015 0)
(0.0657761 -0.0381478 0)
(0.0586453 -0.0316443 0)
(0.057195 -0.0183511 0)
(0.0614504 -0.0104809 0)
(0.0663175 -0.00702793 0)
(0.0703088 -0.00486572 0)
(0.0735804 -0.00211369 0)
(0.0759693 0.00212667 0)
(0.0760514 0.00790305 0)
(0.0731821 0.0153872 0)
(0.0670804 0.0252755 0)
(0.058967 0.0408994 0)
(0.0458883 0.0581327 0)
(0.0778167 0.0778189 0)
(-0.0197214 0.10905 0)
(0.0502934 0.165893 0)
(-0.0967352 0.0835325 0)
(-0.290224 0.00155002 0)
(0.780121 0.471917 0)
(-0.313865 0.217322 0)
(0.00264604 0.155984 0)
(-0.024059 0.119774 0)
(-0.0270574 0.077497 0)
(-0.030543 0.0199564 0)
(-0.00374061 -0.067715 0)
(0.019541 -0.153068 0)
(0.0322956 -0.203264 0)
(0.0398661 -0.22196 0)
(0.0421052 -0.211243 0)
(0.0406486 -0.175985 0)
(0.0379823 -0.126107 0)
(0.0358313 -0.0746084 0)
(0.0351754 -0.0313665 0)
(0.0374114 -8.1232e-05 0)
(0.0443513 0.0202293 0)
(0.055852 0.0240133 0)
(0.0656138 0.00603934 0)
(0.0660881 -0.0117184 0)
(0.0598219 -0.0235403 0)
(0.0509036 -0.0290834 0)
(0.042296 -0.0295453 0)
(0.0354981 -0.0257393 0)
(0.0326206 -0.0187093 0)
(0.0339342 -0.0140781 0)
(0.0372392 -0.0119249 0)
(0.0412831 -0.0101893 0)
(0.0456879 -0.00723351 0)
(0.0500815 -0.00189415 0)
(0.0541607 0.00616824 0)
(0.0562898 0.0163457 0)
(0.0570664 0.0286432 0)
(0.0579831 0.0438406 0)
(0.0558467 0.0607352 0)
(0.0820044 0.0825593 0)
(0.0630014 0.0949179 0)
(0.101736 0.103164 0)
(0.124024 0.0575979 0)
(-0.147884 -0.0392652 0)
(0.840561 0.516079 0)
(-0.34237 0.200279 0)
(0.0366332 0.107605 0)
(0.0386007 0.10625 0)
(0.0419551 0.0729274 0)
(0.0566882 3.30605e-05 0)
(0.0934916 -0.0946738 0)
(0.109727 -0.166489 0)
(0.110139 -0.207846 0)
(0.10054 -0.218986 0)
(0.084028 -0.203268 0)
(0.0640397 -0.165667 0)
(0.0442853 -0.115787 0)
(0.027861 -0.0658502 0)
(0.0168626 -0.0261032 0)
(0.0125381 -0.000550958 0)
(0.0162426 0.0130911 0)
(0.0245713 0.0146136 0)
(0.0304977 0.00436227 0)
(0.030475 -0.00770551 0)
(0.0255834 -0.0167586 0)
(0.0182291 -0.0214223 0)
(0.0107544 -0.0224189 0)
(0.00475525 -0.0208021 0)
(0.00177831 -0.0178338 0)
(0.00209001 -0.0160467 0)
(0.0044373 -0.0154477 0)
(0.00792798 -0.0147018 0)
(0.0123421 -0.0125312 0)
(0.0177136 -0.00770312 0)
(0.0251767 0.000937019 0)
(0.0327189 0.012179 0)
(0.0396514 0.0246101 0)
(0.0480076 0.0382586 0)
(0.055864 0.0521957 0)
(0.0781063 0.0694906 0)
(0.0909977 0.0737191 0)
(0.126289 0.0639849 0)
(0.173956 0.0487584 0)
(-0.0113484 0.0966348 0)
(0.950401 0.517296 0)
(-0.070363 0.18104 0)
(0.11636 0.0479839 0)
(0.165029 0.0328769 0)
(0.160656 -0.000270484 0)
(0.188401 -0.0652053 0)
(0.212303 -0.124755 0)
(0.210782 -0.170471 0)
(0.189784 -0.194609 0)
(0.156379 -0.195048 0)
(0.11605 -0.174306 0)
(0.0741025 -0.135979 0)
(0.0357815 -0.0887088 0)
(0.0058467 -0.044002 0)
(-0.0122676 -0.0127523 0)
(-0.0184958 0.00208055 0)
(-0.0164375 0.00869743 0)
(-0.0112449 0.008767 0)
(-0.00785977 0.00269602 0)
(-0.00838405 -0.00498673 0)
(-0.0123963 -0.0110684 0)
(-0.0183116 -0.01456 0)
(-0.0243556 -0.0160268 0)
(-0.029258 -0.0163533 0)
(-0.0321841 -0.0163757 0)
(-0.0332214 -0.0168458 0)
(-0.0330872 -0.0175822 0)
(-0.0322311 -0.0179756 0)
(-0.0306445 -0.0174132 0)
(-0.0279521 -0.015267 0)
(-0.0230683 -0.0107431 0)
(-0.0122518 -0.0030475 0)
(-0.000985289 0.00671086 0)
(0.0113166 0.0159549 0)
(0.0230235 0.0230252 0)
(0.0410848 0.0308198 0)
(0.0560342 0.0253099 0)
(0.0801762 0.00659425 0)
(0.149658 0.0528377 0)
(-0.47556 0.227768 0)
(1.09893 0.455143 0)
(0.542169 0.304674 0)
(0.543722 0.249003 0)
(0.519555 0.170037 0)
(0.470599 0.096556 0)
(0.426785 0.0194447 0)
(0.370857 -0.0556577 0)
(0.310472 -0.111953 0)
(0.24717 -0.140346 0)
(0.181236 -0.141574 0)
(0.114779 -0.122407 0)
(0.0520332 -0.0876267 0)
(-0.000246308 -0.0466152 0)
(-0.0331921 -0.0162031 0)
(-0.04692 -0.00240013 0)
(-0.0511754 0.0034583 0)
(-0.0500681 0.00560624 0)
(-0.0473861 0.00489142 0)
(-0.0459553 0.00149071 0)
(-0.0468561 -0.00293674 0)
(-0.0500439 -0.00694299 0)
(-0.0545616 -0.00991463 0)
(-0.0593586 -0.0120141 0)
(-0.0637871 -0.0135659 0)
(-0.0676499 -0.0148238 0)
(-0.0712284 -0.0159208 0)
(-0.0750045 -0.0166542 0)
(-0.0793701 -0.0166086 0)
(-0.0846611 -0.0152609 0)
(-0.0913279 -0.0119593 0)
(-0.100063 -0.00584561 0)
(-0.111545 0.0038252 0)
(-0.123354 0.0167788 0)
(-0.140756 0.0331471 0)
(-0.169279 0.0527752 0)
(-0.211504 0.0737431 0)
(-0.269342 0.0906606 0)
(-0.331654 0.0993887 0)
(-0.408892 0.0989416 0)
(-0.692038 0.0883735 0)
(0.232605 0.165697 0)
(0.300283 0.163386 0)
(0.310994 0.092173 0)
(0.28114 0.0161506 0)
(0.250988 -0.03966 0)
(0.210089 -0.072594 0)
(0.158885 -0.0841123 0)
(0.0993918 -0.0767159 0)
(0.0357535 -0.0572349 0)
(-0.0281654 -0.0276278 0)
(-0.0606877 -0.0107811 0)
(-0.0770362 -0.00347099 0)
(-0.0825483 -0.00154266 0)
(-0.0833348 -0.00144122 0)
(-0.0822158 -0.00208544 0)
(-0.0806427 -0.00364493 0)
(-0.0799565 -0.00635722 0)
(-0.0806524 -0.00950081 0)
(-0.0826478 -0.0121746 0)
(-0.0854987 -0.0144781 0)
(-0.0888944 -0.0163884 0)
(-0.0927707 -0.0179178 0)
(-0.0972526 -0.019065 0)
(-0.102556 -0.0197503 0)
(-0.108825 -0.0196981 0)
(-0.115992 -0.0184133 0)
(-0.123698 -0.0152169 0)
(-0.131215 -0.00934708 0)
(-0.137612 -3.86998e-05 0)
(-0.142 0.0122942 0)
(-0.145404 0.0284554 0)
(-0.148495 0.0489447 0)
(-0.152926 0.0727234 0)
(-0.159635 0.0952623 0)
(-0.164527 0.10509 0)
(-0.149268 0.0788425 0)
(-0.105515 -0.0300835 0)
(-0.292224 -0.23802 0)
(0.139699 0.381721 0)
(0.0144498 0.220999 0)
(0.0418714 0.112869 0)
(0.0527247 0.0468316 0)
(0.0562859 0.0111489 0)
(0.0386235 -0.011829 0)
(-0.000588617 -0.00965813 0)
(-0.0470039 0.0141366 0)
(-0.0833398 0.0304486 0)
(-0.104186 0.0387767 0)
(-0.111848 0.0410635 0)
(-0.113452 0.0416602 0)
(-0.112727 0.0424572 0)
(-0.111196 0.0438849 0)
(-0.10935 0.0460089 0)
(-0.107486 0.0485127 0)
(-0.106093 0.0508164 0)
(-0.105499 0.0520458 0)
(-0.105578 0.0517746 0)
(-0.106338 0.051556 0)
(-0.107728 0.0514141 0)
(-0.10967 0.0512861 0)
(-0.112082 0.0510879 0)
(-0.114891 0.0506563 0)
(-0.118007 0.0498033 0)
(-0.121296 0.0483442 0)
(-0.12456 0.0460668 0)
(-0.127363 0.0425699 0)
(-0.128621 0.0394875 0)
(-0.126702 0.039649 0)
(-0.119836 0.044723 0)
(-0.106715 0.0560473 0)
(-0.0877939 0.0737502 0)
(-0.0646146 0.0934939 0)
(-0.0396162 0.10693 0)
(0.000958153 0.0949137 0)
(0.145538 0.014371 0)
(-0.205313 -0.155775 0)
(-0.509369 -0.572619 0)
(-0.705708 -0.154993 0)
(-0.471395 0.214932 0)
(-0.365741 0.046221 0)
(-0.202581 -0.0462201 0)
(-0.142226 -0.105786 0)
(-0.127931 -0.126738 0)
(-0.133261 -0.120071 0)
(-0.146611 -0.112385 0)
(-0.151128 -0.107014 0)
(-0.147498 -0.103995 0)
(-0.141517 -0.105301 0)
(-0.134996 -0.11049 0)
(-0.129532 -0.11636 0)
(-0.125175 -0.121907 0)
(-0.12153 -0.127496 0)
(-0.11836 -0.133749 0)
(-0.115678 -0.141064 0)
(-0.11372 -0.148904 0)
(-0.112826 -0.155685 0)
(-0.113339 -0.160475 0)
(-0.115199 -0.16374 0)
(-0.117993 -0.165444 0)
(-0.121357 -0.165626 0)
(-0.124943 -0.164271 0)
(-0.128418 -0.161263 0)
(-0.131431 -0.156365 0)
(-0.133578 -0.149215 0)
(-0.1344 -0.139283 0)
(-0.133402 -0.125835 0)
(-0.12974 -0.110122 0)
(-0.121251 -0.0926995 0)
(-0.104634 -0.0736256 0)
(-0.0772406 -0.0521602 0)
(-0.0398265 -0.0273983 0)
(0.0220484 0.00394784 0)
(0.0786714 0.00735556 0)
(0.132019 -0.0175941 0)
(0.18664 -0.0690612 0)
(-0.154162 -0.145224 0)
)
;

boundaryField
{
    floor
    {
        type            noSlip;
    }
    ceiling
    {
        type            noSlip;
    }
    sWall
    {
        type            noSlip;
    }
    nWall
    {
        type            noSlip;
    }
    sideWalls
    {
        type            empty;
    }
    glass1
    {
        type            noSlip;
    }
    glass2
    {
        type            noSlip;
    }
    sun
    {
        type            noSlip;
    }
    Table_master
    {
        type            noSlip;
    }
    Table_slave
    {
        type            noSlip;
    }
    inlet
    {
        type            fixedValue;
        value           uniform (0.5 0 0);
    }
    outlet
    {
        type            zeroGradient;
    }
}


// ************************************************************************* //
