/*--------------------------------*- C++ -*----------------------------------*\
  =========                 |
  \\      /  F ield         | OpenFOAM: The Open Source CFD Toolbox
   \\    /   O peration     | Website:  https://openfoam.org
    \\  /    A nd           | Version:  6
     \\/     M anipulation  |
\*---------------------------------------------------------------------------*/
FoamFile
{
    version     2.0;
    format      ascii;
    class       volScalarField;
    location    "19100";
    object      alphat;
}
// * * * * * * * * * * * * * * * * * * * * * * * * * * * * * * * * * * * * * //

dimensions      [1 -1 -1 0 0 0 0];

internalField   nonuniform List<scalar> 
778
(
0.001041
0.00111054
0.00110651
0.00115452
0.00119852
0.00123849
0.00127571
0.0013116
0.00134775
0.00138617
0.00142284
0.00145769
0.00149204
0.00152898
0.00156751
0.00073683
0.00105572
0.00106436
0.00103867
0.000995597
0.000937968
0.000880515
0.000827608
0.000779941
0.000737223
0.000699165
0.000664979
0.000633832
0.000604756
0.000576455
0.000546862
0.000522263
0.000472686
0.00152468
0.00300727
0.00263929
0.00304635
0.00334161
0.0036546
0.00396681
0.00425457
0.00448629
0.00462136
0.00470089
0.00466861
0.00443622
0.00385979
0.00281922
0.00171647
0.00163657
0.00156655
0.00131853
0.00224639
0.00311427
0.00362723
0.0036515
0.00288123
0.00246417
0.00217511
0.0019556
0.00178094
0.001632
0.00150041
0.00137799
0.00125823
0.00115075
0.00105808
0.00119133
0.000599303
0.00193417
0.00419875
0.00311333
0.00445331
0.00497586
0.0054179
0.0058193
0.00617261
0.00647204
0.00670706
0.00693489
0.00717496
0.00739599
0.00752818
0.00744247
0.00681526
0.00498477
0.00192161
0.00166347
0.00355816
0.00496619
0.00563327
0.00512413
0.00135225
0.00117596
0.00103988
0.000933365
0.000848569
0.000780114
0.000724282
0.00067888
0.000643487
0.000707351
0.000831948
0.00131644
0.000681784
0.00232914
0.00565835
0.00297898
0.00500689
0.00578054
0.00619415
0.0064981
0.00672287
0.00689066
0.00702689
0.00722075
0.00754865
0.00802743
0.0086297
0.0092353
0.00953428
0.00895373
0.00667983
0.00191372
0.00443143
0.00659135
0.00768947
0.00796159
0.00679818
0.00153936
0.00140028
0.00129264
0.00120309
0.00112674
0.00105815
0.000993475
0.00092925
0.000859908
0.000803284
0.000832351
0.00142423
0.000750775
0.00271842
0.00749037
0.00300546
0.00475928
0.00594882
0.00630141
0.00642906
0.00643355
0.00636929
0.00631259
0.00639372
0.00671221
0.00729693
0.00812517
0.0090857
0.00997055
0.010532
0.0105261
0.00944695
0.00961145
0.00983087
0.0098616
0.00966177
0.00904466
0.00719901
0.00621932
0.00554818
0.00500297
0.00446798
0.00394965
0.00344248
0.00293589
0.00241534
0.0018555
0.00141629
0.00141304
0.00111835
0.000894744
0.00117108
0.00112711
0.00310136
0.00954046
0.00353824
0.00401311
0.00569935
0.00609065
0.0060589
0.00584041
0.00552833
0.00527099
0.00526525
0.00559876
0.00626491
0.00722521
0.00834904
0.00947135
0.0104264
0.0110361
0.0111468
0.0110341
0.0108374
0.0105592
0.0102026
0.00974929
0.00908769
0.00845014
0.00787118
0.00731155
0.00670714
0.0060616
0.00537195
0.00463228
0.00383787
0.00299515
0.00223317
0.00167696
0.00130183
0.00145205
0.00251092
0.00135046
0.00349211
0.0114356
0.00471481
0.00328771
0.00512063
0.00576086
0.0056895
0.00533633
0.00482423
0.00437362
0.00436027
0.00478093
0.0055432
0.0066166
0.00783806
0.00904677
0.0100865
0.0108305
0.0111722
0.0111447
0.0108987
0.0105271
0.0101023
0.00967904
0.0092699
0.00889447
0.00854181
0.00816552
0.00771105
0.00716395
0.00651604
0.00576409
0.00491097
0.003979
0.00306966
0.00222302
0.00163789
0.00145743
0.00254535
0.00158756
0.00382785
0.0128684
0.00642734
0.00313077
0.00405591
0.00510644
0.00525299
0.00496298
0.00435748
0.00374499
0.00388327
0.00443941
0.00529168
0.00639785
0.00766661
0.00893212
0.0100109
0.0107599
0.0110994
0.0110539
0.0107364
0.0102689
0.00976652
0.00932137
0.00897842
0.00873343
0.00854245
0.00833507
0.0080466
0.00764284
0.00710772
0.00643783
0.00563955
0.00473762
0.00380278
0.00286316
0.00201626
0.00133595
0.00360001
0.00206012
0.00392907
0.0121739
0.00795035
0.00404766
0.00275026
0.00336883
0.00394215
0.00399086
0.00352351
0.00342474
0.0037803
0.00443428
0.00535562
0.00652846
0.00785808
0.0091626
0.0102378
0.010929
0.0111712
0.0110033
0.0105435
0.00994065
0.00934286
0.00886621
0.00856382
0.0084153
0.00834785
0.00826801
0.00810206
0.00781044
0.00737729
0.00680063
0.00608796
0.00526017
0.0043559
0.00334645
0.00200645
0.00163177
0.00535297
0.00236123
0.00384958
0.0098111
0.00820764
0.00555392
0.00366942
0.00284142
0.00269059
0.00281654
0.00305321
0.00342987
0.00396425
0.00470027
0.00570208
0.00696619
0.00836774
0.00969039
0.0107093
0.0112702
0.0113284
0.0109512
0.010287
0.00952257
0.00884034
0.0083733
0.0081595
0.00813426
0.00818001
0.00817871
0.0080707
0.00783393
0.00746071
0.00695012
0.00630685
0.00553869
0.00460967
0.0032013
0.00153374
0.00296063
0.0053922
0.00239419
0.00360589
0.00838362
0.00793348
0.00635342
0.00489153
0.00393903
0.00346774
0.00336112
0.00355625
0.00391543
0.00443786
0.00521479
0.00632077
0.00770592
0.00917787
0.0104717
0.0113496
0.0116762
0.0114468
0.0107759
0.00986371
0.00894989
0.00825587
0.00790828
0.00786833
0.00798145
0.00809514
0.00809676
0.00798232
0.00775233
0.00740163
0.00692415
0.0063159
0.00555877
0.00446399
0.00249123
0.0017858
0.00355479
0.00499796
0.00235633
0.00328307
0.00755772
0.00765108
0.00672321
0.00572124
0.00496657
0.00452221
0.00436368
0.00440387
0.00462125
0.00510176
0.00597008
0.00724821
0.00878101
0.0102824
0.0114451
0.012044
0.0119947
0.0113605
0.0103268
0.00917202
0.00820769
0.00766414
0.00755481
0.00764853
0.0077961
0.00789431
0.00786635
0.00773404
0.00750214
0.00716107
0.00669471
0.00608397
0.00529228
0.00393949
0.00187811
0.0021666
0.00378693
0.0047414
0.00227964
0.00299333
0.0067578
0.00730295
0.00686629
0.0062242
0.00568437
0.00532542
0.00515026
0.00509922
0.00528677
0.00589837
0.00703331
0.00857858
0.0102349
0.0116353
0.0124749
0.0125947
0.0120027
0.0108648
0.00946642
0.00819951
0.00739171
0.00704023
0.00699495
0.00708741
0.00721299
0.00729777
0.00727752
0.00714918
0.00691845
0.00657007
0.00608019
0.00542823
0.00458084
0.00331981
0.00188343
0.00226982
0.00391798
0.00524594
0.00225959
0.00300355
0.00670613
0.00746068
0.00694786
0.0064284
0.00600293
0.00569633
0.00549802
0.00549332
0.00594856
0.00702747
0.00863411
0.010442
0.0120348
0.0130481
0.0132695
0.0126766
0.0114042
0.00977006
0.00819093
0.00705328
0.00639148
0.00607547
0.00598166
0.00601444
0.00610012
0.00617741
0.00617727
0.00604971
0.00579612
0.00538928
0.00480758
0.00407793
0.00329604
0.00256744
0.00199485
0.00237432
0.00412942
0.0053462
0.00241465
0.0027097
0.00281949
0.00416539
0.00489777
0.00512535
0.0051304
0.00508237
0.00518131
0.00581708
0.00716345
0.00904857
0.0110731
0.0127946
0.0138509
0.0140351
0.0133121
0.011856
0.00993356
0.00810241
0.00668165
0.00573474
0.00518213
0.00490518
0.00478196
0.0047343
0.00472276
0.00472012
0.00467692
0.00450718
0.0041977
0.0037296
0.00314755
0.00259819
0.00223968
0.00212414
0.00223979
0.00282957
0.0046883
0.00544673
0.00244408
0.000965036
0.00174032
0.00266981
0.00341416
0.00427978
0.00575622
0.00792225
0.0103143
0.0124749
0.0140711
0.0148837
0.0147784
0.0137715
0.0119707
0.00983875
0.00782552
0.00623995
0.00517736
0.00458218
0.00427064
0.00408462
0.0039444
0.00382088
0.00370612
0.00359584
0.00347421
0.00329162
0.00302438
0.00269218
0.00238133
0.0022145
0.00225157
0.00247555
0.00288475
0.00362315
0.00533235
0.00588669
0.00247026
0.00178709
0.00247012
0.00359312
0.00560023
0.00832455
0.0110429
0.0131421
0.0146397
0.0155216
0.0157331
0.0151701
0.0137339
0.0116497
0.00932632
0.00722681
0.00567195
0.00475937
0.00430766
0.00407297
0.0039148
0.00378127
0.0036601
0.00355182
0.00345748
0.00337273
0.00328371
0.00316575
0.00301267
0.00284852
0.00272998
0.00273106
0.00289135
0.00319517
0.00361432
0.00416072
0.00487186
0.00527707
0.002369
0.00323882
0.00785642
0.00724632
0.00648752
0.00823717
0.0109725
0.013274
0.0148173
0.0156159
0.0157912
0.0154346
0.0145202
0.0130163
0.01099
0.0087537
0.00676995
0.00543357
0.00474174
0.00440605
0.00420085
0.00403184
0.00387572
0.00373709
0.00362844
0.00356036
0.00353595
0.00354758
0.00357505
0.00358545
0.00357199
0.003562
0.0035862
0.00367884
0.00386574
0.00414487
0.00447937
0.00479905
0.00494313
0.00477314
0.00232861
0.00309576
0.00598123
0.00773146
0.00989025
0.0109722
0.0120875
0.0127337
0.0128837
0.0126261
0.01202
0.011086
0.00983384
0.00834944
0.00685903
0.00565207
0.00488725
0.00445637
0.00420329
0.00401739
0.00384927
0.00368883
0.00354495
0.00343467
0.00337648
0.0033848
0.00346479
0.00360756
0.00378532
0.00394624
0.00405215
0.0041437
0.00425864
0.00442448
0.00465951
0.00497246
0.00536011
0.00579601
0.0062031
0.00551607
0.00255189
0.00289467
0.00248026
0.00246718
0.00253781
0.00259535
0.00251405
0.0023588
0.00217755
0.00199517
0.00182184
0.00166172
0.00151966
0.00140305
0.00131914
0.00126917
0.001246
0.00124105
0.00124393
0.00125096
0.0012623
0.00127943
0.00130394
0.00133653
0.00137643
0.00142149
0.00146901
0.00151662
0.00156307
0.00160868
0.00165436
0.00170104
0.00175205
0.00181082
0.00187991
0.00196037
0.00205055
0.00214502
0.00223959
0.00235576
0.00239721
)
;

boundaryField
{
    floor
    {
        type            compressible::alphatWallFunction;
        Prt             0.85;
        value           nonuniform List<scalar> 
36
(
0.000219906
0.000104483
0.000149986
0.000151193
0.000147597
0.000141544
0.000133398
0.000125219
0.000117631
0.000110745
0.000104532
9.896e-05
9.39237e-05
8.93078e-05
8.49738e-05
8.07308e-05
7.62665e-05
7.25331e-05
6.49417e-05
6.49408e-05
8.41594e-05
9.64047e-05
0.000106509
0.000127254
0.000166032
0.000159955
0.000219904
0.000239734
0.000229121
0.000219774
0.000104482
0.000219771
0.000186273
0.000266729
0.000232692
0.000265697
)
;
    }
    ceiling
    {
        type            compressible::alphatWallFunction;
        Prt             0.85;
        value           nonuniform List<scalar> 
43
(
0.000391168
0.000338851
0.00033719
0.000346183
0.000353498
0.000343215
0.000323444
0.00030017
0.000276528
0.000253828
0.00023264
0.000213647
0.000197912
0.000186508
0.000179691
0.000176531
0.000175865
0.000176268
0.000177235
0.000178784
0.000181115
0.000184448
0.000188878
0.000194297
0.000200414
0.000206854
0.000213293
0.000219558
0.000225686
0.000231806
0.000238029
0.000244795
0.000252557
0.000261644
0.000272189
0.000283964
0.00029626
0.000308525
0.000323458
0.000328728
0.000368249
0.000382049
0.000248578
)
;
    }
    sWall
    {
        type            compressible::alphatWallFunction;
        Prt             0.85;
        value           nonuniform List<scalar> 9(0.000507618 0.000477889 0.000438193 0.000402228 0.000403495 0.000366674 0.000432085 0.000414395 0.000389417);
    }
    nWall
    {
        type            compressible::alphatWallFunction;
        Prt             0.85;
        value           nonuniform List<scalar> 
14
(
0.000159508
0.00019018
0.000222117
0.000327343
0.000322481
0.000312679
0.000310248
0.000330078
0.000333789
0.000337051
0.000324085
0.000319069
0.000348026
0.000328041
)
;
    }
    sideWalls
    {
        type            empty;
    }
    glass1
    {
        type            compressible::alphatWallFunction;
        Prt             0.85;
        value           nonuniform List<scalar> 9(0.000143929 0.000209137 0.000262695 0.000313305 0.000362379 0.000410002 0.00045801 0.000498866 0.000511232);
    }
    glass2
    {
        type            compressible::alphatWallFunction;
        Prt             0.85;
        value           nonuniform List<scalar> 2(0.000282115 0.000320817);
    }
    sun
    {
        type            compressible::alphatWallFunction;
        Prt             0.85;
        value           nonuniform List<scalar> 
14
(
0.000147963
0.000157646
0.000157084
0.000163749
0.000169829
0.000175329
0.000180433
0.00018534
0.000190265
0.000195485
0.000200451
0.000205157
0.000209784
0.000214745
)
;
    }
    Table_master
    {
        type            compressible::alphatWallFunction;
        Prt             0.85;
        value           nonuniform List<scalar> 9(0.000191135 0.000166962 0.000148022 0.000132994 0.000120888 0.000111009 0.000102876 9.62057e-05 9.09686e-05);
    }
    Table_slave
    {
        type            compressible::alphatWallFunction;
        Prt             0.85;
        value           nonuniform List<scalar> 9(0.000216406 0.000197659 0.000183007 0.000170711 0.000160145 0.000150583 0.000141501 0.000132413 0.000122517);
    }
    inlet
    {
        type            fixedValue;
        value           uniform 1.94e-05;
    }
    outlet
    {
        type            zeroGradient;
    }
}


// ************************************************************************* //
