/*--------------------------------*- C++ -*----------------------------------*\
  =========                 |
  \\      /  F ield         | OpenFOAM: The Open Source CFD Toolbox
   \\    /   O peration     | Website:  https://openfoam.org
    \\  /    A nd           | Version:  6
     \\/     M anipulation  |
\*---------------------------------------------------------------------------*/
FoamFile
{
    version     2.0;
    format      ascii;
    class       surfaceScalarField;
    location    "150";
    object      phi;
}
// * * * * * * * * * * * * * * * * * * * * * * * * * * * * * * * * * * * * * //

dimensions      [1 0 -1 0 0 0 0];

internalField   nonuniform List<scalar> 
1530
(
-0.00199231
0.00202701
-0.00186236
-0.000129891
-0.00160533
-0.000256971
-0.00147892
-0.000126344
-0.0014563
-2.25562e-05
-0.00149947
4.32389e-05
-0.00157746
7.80553e-05
-0.00166534
8.79458e-05
-0.00174335
7.80869e-05
-0.00179526
5.19829e-05
-0.00180756
1.23624e-05
-0.00176897
-3.85255e-05
-0.00167137
-9.75333e-05
-0.00151105
-0.000160255
-0.00128983
-0.000221161
-0.00101728
-0.000272494
-0.000714367
-0.000302865
-0.000415544
-0.000298771
-0.000158826
-0.000256669
3.64043e-05
-0.000195182
0.000167347
-0.000130896
0.000233335
-6.59426e-05
0.000245374
-1.19969e-05
0.000217861
2.75526e-05
0.000164172
5.37252e-05
9.77053e-05
6.6499e-05
3.10874e-05
6.66465e-05
-2.45816e-05
5.56933e-05
-6.0017e-05
3.5457e-05
-6.81393e-05
8.14283e-06
-4.47332e-05
-2.33859e-05
1.43539e-05
-5.90668e-05
0.000115076
-0.000100703
0.000263815
-0.000148718
0.000465025
-0.00020119
0.000716835
-0.000251789
0.0010117
-0.000294844
0.00133353
-0.000321809
0.00142901
-9.54545e-05
0.00144499
-0.0013201
0.00342355
-0.00161808
0.000168153
-0.00161269
-0.0002623
-0.00158795
-0.00015102
-0.00160191
-8.5368e-06
-0.00164711
8.85075e-05
-0.00170934
0.00014035
-0.0017729
0.000151579
-0.00182265
0.000127902
-0.001845
7.43992e-05
-0.00182817
-4.41073e-06
-0.00176253
-0.0001041
-0.00164164
-0.00021837
-0.00146253
-0.000339317
-0.00122667
-0.000456969
-0.00094205
-0.000557067
-0.000626808
-0.000618064
-0.000312501
-0.000613038
-3.23701e-05
-0.00053676
0.000190755
-0.000418268
0.000348139
-0.000288241
0.000445376
-0.00016314
0.000489416
-5.59978e-05
0.000490158
2.68489e-05
0.000459662
8.42577e-05
0.00040944
0.000116754
0.000350888
0.00012523
0.000294762
0.000111848
0.000250537
7.97076e-05
0.000226375
3.23291e-05
0.000229078
-2.60657e-05
0.000262852
-9.28177e-05
0.000330582
-0.000168409
0.000434292
-0.000252402
0.000574252
-0.000341123
0.000747394
-0.000424905
0.000935825
-0.000483247
0.0010557
-0.000441653
0.000917731
4.25392e-05
0.00239982
-0.000946239
0.00447449
-0.00137747
0.000599445
-0.00154057
-9.91294e-05
-0.00159862
-9.29099e-05
-0.00165239
4.5298e-05
-0.0017127
0.000148881
-0.00177496
0.000202681
-0.00182946
0.000206139
-0.0018649
0.000163406
-0.00187016
7.97205e-05
-0.00183495
-3.95661e-05
-0.00175099
-0.000188004
-0.00161284
-0.000356476
-0.00141783
-0.000534283
-0.00116651
-0.000708248
-0.000864365
-0.000859177
-0.000526762
-0.000955634
-0.000188691
-0.000951078
0.000107356
-0.000832778
0.000346933
-0.000657815
0.000524964
-0.000466241
0.000644285
-0.000282427
0.000709853
-0.000121532
0.000729807
6.93029e-06
0.000714719
9.93809e-05
0.000674952
0.000156555
0.000620974
0.000179241
0.000562916
0.000169936
0.000510114
0.00013254
0.000470737
7.17334e-05
0.000452265
-7.56633e-06
0.000459305
-9.98295e-05
0.00049314
-0.000202215
0.000553896
-0.000313128
0.00064096
-0.000428157
0.00075074
-0.000534654
0.000855337
-0.000587812
0.00085565
-0.000441933
0.000642349
0.000255872
0.00309451
-0.000695277
0.00529736
-0.00117374
0.00107797
-0.00145147
0.000178667
-0.00157695
3.26363e-05
-0.00166533
0.000133744
-0.00174392
0.000227535
-0.00181264
0.000271458
-0.00186534
0.000258907
-0.00189321
0.00019133
-0.00188667
7.32355e-05
-0.00183658
-8.96117e-05
-0.00173624
-0.000288295
-0.00158177
-0.000510907
-0.00137132
-0.000744696
-0.00110451
-0.000975023
-0.000783629
-0.00118003
-0.000420685
-0.00131855
-5.96025e-05
-0.00131214
0.000252856
-0.00114522
0.000507598
-0.000912535
0.000703585
-0.000662205
0.000842275
-0.000421092
0.000926942
-0.00020617
0.000963261
-2.93579e-05
0.000960184
0.00010249
0.000928237
0.000188535
0.000877367
0.000230144
0.000817137
0.000230199
0.000756471
0.000193238
0.000703248
0.000124989
0.000664211
3.15023e-05
0.000644513
-8.00991e-05
0.00064556
-0.000203229
0.000666869
-0.000334403
0.000707313
-0.000468566
0.000761515
-0.00058882
0.000794396
-0.000620657
0.000716023
-0.000363524
0.000462415
0.000509514
0.00362182
-0.000505232
0.00595037
-0.00100733
0.00158013
-0.00135371
0.000525114
-0.00153426
0.000213249
-0.00165268
0.000252227
-0.00174851
0.00032342
-0.00182475
0.000347761
-0.00187738
0.000311594
-0.00189894
0.000212934
-0.00188089
5.52382e-05
-0.00181553
-0.000154933
-0.0016986
-0.000405185
-0.00152869
-0.000680777
-0.00130556
-0.000967795
-0.00102816
-0.00125241
-0.000694699
-0.00151347
-0.00031171
-0.00170152
6.06328e-05
-0.00168447
0.000382215
-0.00146678
0.000647057
-0.00117736
0.000856499
-0.000871632
0.00101203
-0.000576608
0.00111535
-0.000309471
0.00116952
-8.35006e-05
0.00118082
9.12178e-05
0.00115892
0.000210466
0.00111336
0.000275733
0.00105342
0.000290179
0.000987734
0.000258957
0.000923839
0.000188919
0.000867556
8.78209e-05
0.000823916
-3.64228e-05
0.000795183
-0.000174459
0.000780561
-0.000319742
0.000778054
-0.000466019
0.000779787
-0.000590514
0.000746176
-0.000587007
0.000602226
-0.000219534
0.000326309
0.000785466
0.00402411
-0.000356555
0.00647331
-0.00086838
0.00209202
-0.00125329
0.000910084
-0.00147629
0.000436314
-0.0016177
0.000393697
-0.00172611
0.000431894
-0.00180723
0.00042893
-0.00185806
0.000362482
-0.00187185
0.000226766
-0.00184083
2.42646e-05
-0.00175932
-0.000236413
-0.00162615
-0.000538318
-0.00144308
-0.000863815
-0.00121215
-0.0011987
-0.000932004
-0.00153253
-0.00059635
-0.0018491
-0.000203672
-0.00209418
0.000167375
-0.0020555
0.000486175
-0.00178558
0.000750999
-0.00144218
0.000965084
-0.00108571
0.00113115
-0.000742661
0.00125039
-0.000428701
0.00132351
-0.000156596
0.001353
6.17472e-05
0.00134596
0.000217537
0.00131083
0.000310891
0.0012564
0.000344643
0.00119099
0.0003244
0.00112179
0.000258153
0.00105423
0.000155422
0.000992178
2.56722e-05
0.000938329
-0.000120568
0.000891834
-0.000273206
0.000849669
-0.000423812
0.000801786
-0.000542588
0.000707836
-0.000493016
0.000501558
-1.32156e-05
0.000220491
0.00106657
0.0043308
-0.000241145
0.00689844
-0.000746597
0.00259754
-0.00115162
0.00131517
-0.00140456
0.000689315
-0.00156057
0.000549772
-0.00167491
0.000546292
-0.00175625
0.000510316
-0.00180219
0.00040847
-0.00180634
0.000230957
-0.00176156
-2.04741e-05
-0.00166438
-0.000333563
-0.00151667
-0.000685993
-0.00132386
-0.0010566
-0.00109092
-0.00143161
-0.000816552
-0.00180688
-0.000489841
-0.00217579
-9.97579e-05
-0.00248425
0.000260042
-0.00241529
0.000564761
-0.00209029
0.000817433
-0.00169485
0.00102457
-0.00129284
0.00119105
-0.000909127
0.00131886
-0.000556503
0.00140772
-0.00024545
0.00145686
1.2628e-05
0.00146877
0.000205655
0.00144987
0.000329818
0.00140768
0.000386863
0.00134975
0.000382363
0.00128279
0.000325149
0.00121184
0.000226421
0.0011393
9.82516e-05
0.00106691
-4.81334e-05
0.000994375
-0.000200626
0.000917644
-0.000347036
0.000824621
-0.000449522
0.000676347
-0.000344698
0.00042545
0.000237723
0.000139503
0.00135256
0.00456615
-0.000153287
0.00725257
-0.000643672
0.00308798
-0.0010488
0.00172035
-0.00131828
0.000958861
-0.00148024
0.000711788
-0.00159341
0.000659514
-0.00167005
0.000586999
-0.00170826
0.000446728
-0.00170178
0.000224514
-0.00164383
-7.8391e-05
-0.0015325
-0.000444858
-0.00137264
-0.000845815
-0.00117407
-0.00125514
-0.000945218
-0.00166044
-0.000684866
-0.00206721
-0.000377084
-0.00248355
-1.21503e-06
-0.0028601
0.000338292
-0.00275479
0.000618738
-0.00237073
0.000848419
-0.00192452
0.00103775
-0.00148217
0.00119406
-0.00106543
0.00132073
-0.000683167
0.00141785
-0.000342559
0.00148318
-5.26783e-05
0.00151477
0.000174079
0.00151603
0.000328584
0.00149212
0.0004108
0.00144898
0.000425537
0.00139218
0.000381996
0.00132589
0.000292754
0.00125209
0.000172095
0.00117048
3.35153e-05
0.00108027
-0.000110367
0.000977139
-0.000243857
0.000848107
-0.000320445
0.000656388
-0.000152936
0.000383246
0.000510908
8.39512e-05
0.00165189
0.00475522
-9.76093e-05
0.00756721
-0.000560365
0.0035508
-0.000940631
0.00210068
-0.00121253
0.00123082
-0.00137333
0.000872637
-0.00147934
0.000765575
-0.00154724
0.000654948
-0.00157584
0.000475363
-0.00155874
0.000207456
-0.0014885
-0.000148594
-0.00136426
-0.000569064
-0.00119498
-0.00101507
-0.000995629
-0.00145445
-0.000778037
-0.001878
-0.00054036
-0.00230486
-0.000260265
-0.00276362
9.0712e-05
-0.00321106
0.000400491
-0.00306455
0.0006476
-0.00261783
0.000845092
-0.00212201
0.00100799
-0.00164506
0.00114585
-0.00120329
0.00126297
-0.000800276
0.00135993
-0.000439514
0.00143468
-0.000127411
0.00148322
0.000125558
0.00150523
0.000306595
0.00150299
0.000413065
0.00148015
0.000448415
0.00144042
0.000421766
0.00138664
0.000346579
0.00131997
0.000238812
0.0012389
0.000114629
0.00114051
-1.19306e-05
0.00102058
-0.000123878
0.000866344
-0.000166165
0.000646294
6.71577e-05
0.000364547
0.000792696
6.37856e-05
0.00195269
0.00493297
-3.1586e-05
0.00783188
-0.000466841
0.00398612
-0.00079903
0.00243293
-0.00106743
0.00149928
-0.00122898
0.00103424
-0.00132614
0.00086279
-0.00138318
0.000712034
-0.00140072
0.000492942
-0.00137249
0.000179265
-0.00128973
-0.000231316
-0.0011536
-0.000705167
-0.00097912
-0.00118951
-0.000786752
-0.00164679
-0.000590417
-0.00207431
-0.00038644
-0.00250881
-0.000144561
-0.00300548
0.000173931
-0.00352953
0.00044628
-0.00333689
0.000649593
-0.00282113
0.000806139
-0.00227855
0.000935948
-0.00177487
0.00104989
-0.00131723
0.00115216
-0.000902535
0.00124329
-0.000530637
0.00132155
-0.000205654
0.00138248
6.4635e-05
0.00142282
0.000266284
0.00144243
0.000393484
0.00144243
0.000448449
0.00142417
0.000440065
0.00138855
0.000382239
0.00133539
0.000292017
0.00126267
0.000187389
0.00116556
8.52278e-05
0.00103723
4.49842e-06
0.000863951
7.15926e-06
0.000628967
0.000302185
0.00035407
0.00106763
6.27669e-05
0.00224403
0.00511831
0.000120196
0.00796039
-0.000244317
0.00435069
-0.000554659
0.00274333
-0.000837653
0.00178233
-0.00102066
0.0012173
-0.00111778
0.000959957
-0.00116566
0.000759956
-0.00117087
0.000498197
-0.00112882
0.000137253
-0.00103106
-0.000329049
-0.000885019
-0.000851168
-0.000713979
-0.00136052
-0.000541815
-0.00181892
-0.000381323
-0.00223477
-0.00022521
-0.00266489
-3.35451e-05
-0.00319712
0.000244762
-0.00380782
0.000471425
-0.00356354
0.000620266
-0.00296996
0.000727502
-0.00238577
0.000818869
-0.00186623
0.000905414
-0.00140377
0.000990085
-0.000987199
0.00107257
-0.00061311
0.00115101
-0.000284089
0.001221
-5.33555e-06
0.00127665
0.000210653
0.00131657
0.00035359
0.00133951
0.000425548
0.00134448
0.000435128
0.00133031
0.000396454
0.0012951
0.000327269
0.00123554
0.000246992
0.00114561
0.000175201
0.00101467
0.000135484
0.000825936
0.000195933
0.000575414
0.000552749
0.000305957
0.00133713
1.2037e-05
0.00253798
0.00526183
0.000202293
0.00802183
-2.01154e-05
0.00457317
-0.000228256
0.00295154
-0.000481952
0.00203609
-0.000699709
0.00143511
-0.000819301
0.0010796
-0.000866618
0.000807317
-0.000859239
0.000490858
-0.000797041
7.50924e-05
-0.000680532
-0.000445522
-0.00053255
-0.000999113
-0.000383024
-0.00151001
-0.000253021
-0.00194889
-0.000149092
-0.00233866
-5.83051e-05
-0.00275565
6.58811e-05
-0.00332128
0.000298968
-0.00404089
0.000470487
-0.00373504
0.000553038
-0.0030525
0.000602458
-0.00243518
0.000650597
-0.00191436
0.000706984
-0.00146015
0.000772376
-0.00105258
0.000844965
-0.000685688
0.00092179
-0.000360901
0.000999266
-8.27946e-05
0.00106987
0.000140066
0.00112886
0.000294633
0.00117362
0.000380822
0.00120178
0.000407002
0.0012105
0.000387766
0.00119638
0.000341436
0.00115466
0.000288747
0.00107756
0.000252343
0.000950864
0.000262223
0.00075068
0.000396157
0.000469792
0.000833678
0.000161069
0.0016459
-0.000113034
0.00281212
0.00528893
3.15777e-05
0.00826893
-3.88261e-05
0.00464363
0.000139011
0.00277376
6.65147e-05
0.00210865
-0.000164298
0.00166598
-0.000343147
0.00125849
-0.000413433
0.000877647
-0.000399705
0.000477171
-0.000314579
-9.99713e-06
-0.000188159
-0.000571904
-6.34023e-05
-0.00112383
3.17176e-05
-0.00160509
8.71011e-05
-0.00200423
0.000107133
-0.00235866
0.000109205
-0.00275769
0.000147226
-0.00335927
0.000331785
-0.00422542
0.000435142
-0.00383838
0.000437719
-0.00305506
0.000420833
-0.00241829
0.000421232
-0.00191474
0.000444189
-0.00148309
0.000487938
-0.00109632
0.000549639
-0.000747377
0.000625736
-0.000436984
0.000711305
-0.000168348
0.000796752
5.46398e-05
0.000873307
0.000218103
0.000938369
0.000315789
0.000988845
0.000356559
0.00102089
0.00035576
0.00103017
0.000332192
0.00101115
0.0003078
0.000954939
0.000308594
0.000844337
0.000372862
0.000649867
0.000590664
0.000361814
0.00112177
3.26781e-05
0.00197509
-0.000206979
0.00305185
0.00523052
-0.000440104
0.00900026
6.53975e-05
0.00413819
0.000839113
0.00200011
0.000971824
0.001976
0.00074748
0.00189038
0.000512373
0.00149365
0.000386412
0.00100365
0.000368478
0.000495147
0.000430176
-7.16582e-05
0.000506671
-0.000648362
0.000550625
-0.00116775
0.000542039
-0.00159646
0.000483423
-0.00194557
0.000387164
-0.00226236
0.000272988
-0.00264348
0.000206224
-0.00329248
0.000333213
-0.00435238
0.000350563
-0.00385571
0.000258926
-0.00296341
0.000169705
-0.00232905
0.000117883
-0.00186291
0.000101987
-0.00146719
0.000118678
-0.001113
0.000164851
-0.000793537
0.00023647
-0.000508588
0.0003277
-0.000259562
0.000428714
-4.63539e-05
0.000525006
0.000121834
0.000610575
0.000230247
0.000682897
0.000284267
0.000738201
0.000300488
0.000772349
0.000298077
0.000780183
0.000299999
0.000753524
0.000335287
0.000675905
0.000450515
0.000521842
0.000744758
0.000289325
0.00135432
9.86231e-06
0.0022546
-0.000213231
0.00327504
0.00517414
0.00117833
0.00813818
0.00222791
0.00308867
0.00279599
0.0014321
0.00268839
0.00208366
0.00232989
0.00224894
0.00200664
0.00181696
0.00177465
0.00123569
0.00162312
0.000646728
0.00152944
2.20626e-05
0.00144883
-0.000567708
0.00132705
-0.00104592
0.00115037
-0.00141974
0.000928963
-0.00172412
0.000677519
-0.00201088
0.000417623
-0.00238355
0.000228129
-0.00310296
0.000287603
-0.00441183
0.000199712
-0.0037678
3.10849e-06
-0.00276679
-0.000160435
-0.00216549
-0.000272792
-0.00175054
-0.000337366
-0.0014026
-0.000357399
-0.00109295
-0.000336644
-0.000814277
-0.000280073
-0.000565143
-0.000193532
-0.000346086
-8.26131e-05
-0.000157254
3.54928e-05
3.74939e-06
0.000143141
0.000122622
0.000237036
0.000190397
0.000314716
0.000222835
0.000373778
0.000239044
0.000410906
0.0002629
0.000421093
0.00032513
0.000394839
0.000476799
0.000325618
0.000814006
0.00023509
0.00144487
0.00014199
0.00234774
-5.22037e-05
0.00346932
0.00528689
0.00850316
0.0116
0.00943367
0.00359849
0.00729414
0.00422325
0.0057763
0.00376684
0.00473752
0.0028558
0.00400358
0.00196968
0.0034865
0.00116386
0.00304778
0.000460831
0.00261737
-0.000137248
0.00219758
-0.000626088
0.00178105
-0.00100316
0.00135962
-0.00130265
0.000925988
-0.0015772
0.00049363
-0.00195115
0.000172
-0.0027813
0.000177559
-0.00441736
-1.55948e-05
-0.00357462
-0.000312206
-0.00247016
-0.00056946
-0.00190823
-0.000765703
-0.00155428
-0.000897381
-0.0012709
-0.000968763
-0.00102155
-0.000986434
-0.000796588
-0.000957967
-0.000593592
-0.000891271
-0.000412763
-0.000793873
-0.000254634
-0.000671501
-0.000118604
-0.000544088
-4.77292e-06
-0.000430287
7.6617e-05
-0.000331521
0.00012409
-0.000247296
0.000154841
-0.00017773
0.00019336
-0.000121946
0.000269372
-7.5094e-05
0.000429973
-1.62721e-05
0.000755202
9.23522e-05
0.00133625
0.00022818
0.00221191
0.000180408
0.00351712
0.00563867
0.00237154
0.00368203
0.0028469
0.00374795
0.00364427
0.00296953
0.00381326
0.00268686
0.00368851
0.00209449
0.00349344
0.00135898
0.00325838
0.000695946
0.00295113
0.000170058
0.00256577
-0.000240683
0.00211421
-0.00055155
0.00161808
-0.000806464
0.00106315
-0.00102223
0.000447907
-0.00133587
-1.77756e-05
-0.00231558
-7.63836e-06
-0.00442747
-0.000252551
-0.00332969
-0.000679067
-0.00204363
-0.0010746
-0.00151268
-0.00137926
-0.0012496
-0.00159523
-0.00105491
-0.00173519
-0.000881572
-0.00181049
-0.000721273
-0.00183121
-0.000572849
-0.00180662
-0.00043733
-0.00174491
-0.000316328
-0.00165255
-0.000210957
-0.00153527
-0.00012204
-0.00140827
-5.03682e-05
-0.00128724
3.07559e-06
-0.00117306
4.0676e-05
-0.00105865
7.89757e-05
-0.00093656
0.000147312
-0.000787726
0.000281171
-0.000560359
0.000527854
-0.000195845
0.000971731
0.000230986
0.00178506
0.000297464
0.00345061
0.00611445
-0.000139241
0.00385331
0.00124601
0.00236276
0.00194692
0.00226867
0.00237875
0.00225509
0.0026785
0.00179479
0.00284202
0.00119552
0.00286155
0.000676469
0.00274436
0.000287304
0.00248478
1.89527e-05
0.00212169
-0.000188412
0.00171384
-0.000398575
0.00119449
-0.000502842
0.000447941
-0.000589283
-0.000197372
-0.00167024
-0.000294348
-0.00433047
-0.000650061
-0.00297395
-0.0012515
-0.00144217
-0.00177309
-0.000991078
-0.0021613
-0.000861367
-0.00244867
-0.00076752
-0.0026587
-0.000671519
-0.00280465
-0.000575295
-0.00289606
-0.000481418
-0.00294058
-0.000392795
-0.00294421
-0.000312689
-0.00291129
-0.000243879
-0.00284489
-0.000188442
-0.00274718
-0.000148075
-0.00262037
-0.000123722
-0.00246759
-0.000112074
-0.00228674
-0.000101832
-0.00207144
-6.79322e-05
-0.00180028
1.00697e-05
-0.00139689
0.000124511
-0.000746958
0.00032182
0.000130803
0.00090728
0.000564987
0.00301638
0.00686442
0.007444
-0.00853626
-0.000106539
-0.00162287
-0.00093485
0.00468167
-0.000588819
0.00201678
0.000285153
0.00139476
0.00102665
0.00151365
0.0016594
0.00116209
0.00211441
0.000740565
0.00235958
0.000431355
0.00242936
0.000217571
0.00235621
9.21573e-05
0.00221792
-5.00735e-05
0.00201672
-0.000197336
0.00171037
-0.000196456
0.00120833
-8.71982e-05
0.00038824
-0.000850125
-0.000829148
-0.00311305
-0.00177476
-0.00202832
-0.00242056
-0.000796346
-0.00290645
-0.00050517
-0.00329119
-0.0004766
-0.00360327
-0.000455406
-0.00385519
-0.000419578
-0.00405357
-0.000376892
-0.00420327
-0.000331704
-0.00430852
-0.00028755
-0.00437313
-0.000248078
-0.00440054
-0.000216482
-0.00439373
-0.000195257
-0.00435542
-0.00018638
-0.00428768
-0.000191438
-0.00418949
-0.000210222
-0.00405558
-0.000235664
-0.00387699
-0.000246419
-0.00364119
-0.000225616
-0.00328432
-0.000232256
-0.00255038
-0.00041205
-0.00124028
-0.000402795
-0.000366849
0.00214292
0.00669712
-0.0078633
-0.00945312
-0.00473857
-0.00269261
-0.0012672
0.000277576
0.00147202
0.00224625
0.00271253
0.00296614
0.00309519
0.00308268
0.00292331
0.00276506
0.00271637
0.00190588
-0.00116443
-0.00314876
-0.00390216
-0.00436508
-0.00479998
-0.00521424
-0.0055933
-0.00593035
-0.00622294
-0.00647216
-0.00668274
-0.00686262
-0.00702224
-0.00717406
-0.00733214
-0.00751032
-0.00771541
-0.00793284
-0.00813114
-0.0083378
-0.00872595
-0.00910645
-0.00694268
)
;

boundaryField
{
    floor
    {
        type            calculated;
        value           uniform 0;
    }
    ceiling
    {
        type            calculated;
        value           nonuniform List<scalar> 
43
(
-2.88386e-05
-3.30024e-05
-3.28337e-05
-2.91332e-05
-3.0593e-05
-3.10772e-05
-3.22984e-05
-3.3614e-05
-3.48802e-05
-3.59895e-05
-3.68488e-05
-3.75225e-05
-3.79216e-05
-3.81669e-05
-3.84707e-05
-3.9603e-05
-4.27069e-05
-4.39761e-05
-4.29203e-05
-4.22235e-05
-4.16762e-05
-4.11166e-05
-4.05024e-05
-3.98329e-05
-3.91113e-05
-3.83373e-05
-3.75054e-05
-3.66048e-05
-3.56196e-05
-3.45308e-05
-3.33194e-05
-3.19724e-05
-3.04903e-05
-2.88934e-05
-2.72216e-05
-2.55252e-05
-2.3857e-05
-2.22856e-05
-2.08852e-05
-2.21162e-05
-7.42648e-06
-8.11284e-06
-3.20008e-05
)
;
    }
    sWall
    {
        type            calculated;
        value           nonuniform List<scalar> 
18
(
-3.46413e-05
-7.63763e-05
-0.000104639
-0.000127535
-0.000147711
-0.000166327
-0.00018392
-0.000200778
-0.000216976
-0.000233014
-0.000248647
-0.000263669
-0.000278611
-0.000291169
-0.000316188
-0.000357483
-0.000586985
-0.000644084
)
;
    }
    nWall
    {
        type            calculated;
        value           nonuniform List<scalar> 
20
(
-1.59623e-05
-3.7073e-05
-5.23214e-05
-6.48675e-05
-7.59551e-05
-8.61645e-05
-9.58197e-05
-0.000105081
-0.000113935
-0.000122549
-0.000131459
-0.000140103
-0.000148523
-0.000156801
-0.000164866
-0.000171291
-0.000178317
-0.000185063
-0.000199621
-0.000223507
)
;
    }
    sideWalls
    {
        type            empty;
        value           nonuniform 0();
    }
    inlet
    {
        type            calculated;
        value           uniform -0.00245502;
    }
    outlet
    {
        type            calculated;
        value           nonuniform List<scalar> 2(0.00167929 0.00917346);
    }
}


// ************************************************************************* //
