/*--------------------------------*- C++ -*----------------------------------*=========                 |
  \      /  F ield         | OpenFOAM: The Open Source CFD Toolbox
   \    /   O peration     | Website:  https://openfoam.org
    \  /    A nd           | Version:  6
     \/     M anipulation  |
\*---------------------------------------------------------------------------*/
FoamFile
{
    version     2.0;
    format      ascii;
    class       volScalarField;
    location    "150";
    object      PMV;
}
// * * * * * * * * * * * * * * * * * * * * * * * * * * * * * * * * * * * * * //

dimensions      [0 0 0 0 0 0 0];

internalField   nonuniform List<scalar> 
458
(
1.202594807742148
0.9460670147098984
0.9059081936168455
0.8785244833498898
0.867079402380189
0.8717447217829568
0.8944456886265788
0.9403917887319099
1.0137882300843797
1.1092429161349975
1.153442082666038
1.1232925785232781
1.1053710428734096
1.1195043264890137
1.131770140283558
1.5269136573041855
1.4972762282844874
1.4767179224740175
1.4810210403012738
1.4939297075667588
1.4888604145725175
1.4788358867121802
1.4804245712265658
1.4879676593325988
1.4968068242136303
1.506927860793948
1.5183999050676888
1.5316801596300822
1.547411516790862
1.568703177302774
1.5996445908963
1.6442296752173178
1.68932196731998
1.1198479344385994
0.9614618470636258
0.9438802683156041
0.9172002249624835
0.90559736923597
0.9080775818226468
0.9203129905371397
0.9399492642998489
0.9737397341256685
1.0334159325180643
1.120078250774085
1.1526056914548883
1.146454679167136
1.1217885566674588
1.0873055753898324
1.0789953368119214
1.121525642405303
1.1877919106068986
1.5289186497230973
1.464764231206828
1.4461147995864085
1.4330892391665924
1.4372352016323764
1.4479648996053953
1.458775859129702
1.470428870233391
1.482186650258132
1.494560948796711
1.507151527922826
1.5205251478203918
1.535211950626375
1.5516089982958352
1.5730946805974588
1.605189623381286
1.6410247323771714
1.671192511437683
1.1313281118533978
0.9560265298181712
0.9845324102710643
0.9757099126814595
0.9731345968533094
0.9731580799935698
0.9599251821579229
0.9280351171987574
0.9158791757140777
0.9648655242101538
1.063056264503562
1.1435880360226451
1.1795549648379313
1.167288713723007
1.1362541708125788
1.1312590882282136
1.1457208084417692
1.1610176394088578
1.4179790966392685
1.3727882724988736
1.3508751710404971
1.3684762813402471
1.397929347276904
1.4122660701128305
1.450022942964178
1.4837338512788458
1.5080457223166637
1.5286596528270182
1.5482196249789038
1.5682515233018137
1.5863680297172118
1.597655005026518
1.6097462840152177
1.6307166140991922
1.6363292554430988
1.6187830507391543
1.1918138471894058
0.9531786652289019
1.0176826391600067
1.0468614445974471
1.0731612018376258
1.0741239785932026
1.0098908779714648
0.9121994330151537
0.8656557282543431
0.9154415176519266
1.0253705036290368
1.1368902549755227
1.2122809782611212
1.2285234003111811
1.2006244048865935
1.173278316157918
1.1422718601222857
1.1119765053546162
1.0949818752780323
1.1619205784060502
1.2234430448631002
1.2890784046246095
1.3642306665632564
1.4382375947114192
1.4971591876584822
1.517238201381026
1.5346204507523913
1.5574767069332107
1.5826375224877727
1.6098308014150688
1.639029968960007
1.6731525647912744
1.716541833639761
1.7077611240798773
1.6792402677393965
1.6395615098548713
1.5916892883259488
1.2760892969031334
0.9651595710139103
1.0450085813016765
1.1175488549435464
1.2090392988597773
1.1974651933211289
1.0437169817299186
0.8908721651374001
0.8285100544569383
0.8813146000490525
1.0094124379448717
1.1511090712209788
1.2600493283680683
1.3055269727070622
1.2842521001212004
1.2440503665383114
1.2012577375380564
1.1732601437050607
1.186884318954646
1.225971505769488
1.2913542227491206
1.3744652160746433
1.4628008660922065
1.5464895319634413
1.616126872809322
1.6569924474635205
1.6881606195919845
1.7170365506400176
1.7409179893847617
1.7606449476404176
1.7760362344730083
1.7876320237295147
1.791894910538357
1.7651916206037828
1.7151618872155774
1.6475023198277807
1.6303679506268236
1.7315231433993858
1.8680793327670544
1.7527158977241393
1.3685250777358964
0.9995021584714793
1.0903522903727865
1.1772784680106254
1.2834565582064472
1.2173492897099907
1.0270857313527209
0.8629149690493845
0.7967851194169432
0.8625734216717534
1.019322817462272
1.1968890327326478
1.341493113117531
1.4006786839915146
1.3944602782913056
1.3609891898251694
1.3195507946313312
1.3006013118922022
1.32473248637353
1.37884491364992
1.4555438322022456
1.542986053538598
1.6302513056225498
1.7110525355815145
1.7570806767332974
1.7904644667256915
1.8162086659323793
1.8352731226956391
1.8486154463024034
1.8571914062596964
1.8600498390839573
1.8567149900153914
1.8462330606517976
1.8191825839851143
1.7603524944523017
1.6825862305312167
1.6601393003803586
1.7044877111672276
1.7561638629501044
1.782458848373747
1.4647365535939436
1.0926440955005297
1.2359167962283606
1.2716873510108324
1.2837170506077122
1.1585346957423308
0.9701705159604277
0.8033452074461095
0.7568396541100739
0.8634279170262434
1.0687972631619713
1.2922004865587586
1.4642860658671597
1.4944077863065097
1.487714552946972
1.4709802573776416
1.465242395198519
1.4805429216858121
1.527391632245411
1.5928572824080467
1.6621101421314632
1.7279789352559065
1.7856961453062907
1.831460603180467
1.8662427277427156
1.8914851227809784
1.9071974586448197
1.9181463110374106
1.924809938900271
1.9276655703415202
1.924809938900271
1.9152902630708264
1.898151404686657
1.8705298030089152
1.82562465017119
1.7495242465474503
1.7090376073527276
1.7081184346673681
1.7041460928011558
1.7928441430657216
1.6035957273057497
1.457174258068201
1.4150420715355734
1.3204941103750574
1.2513431803433324
1.07318691352141
0.8410132556359481
0.6895656807175338
0.7126464911913659
0.9078652161466129
1.1906366668305746
1.4698437972651308
1.5833020480616868
1.6086218304018953
1.6019340852110395
1.5957237123284587
1.6038449066636813
1.634891515065439
1.6917086322218646
1.7589886641111125
1.8185919751308557
1.8700534738844419
1.9110059597502136
1.9414659944940784
1.9628744159248295
1.975715841175499
1.9833242568216387
1.9871280912629936
1.9880790106778103
1.9852262053428242
1.9776180378783506
1.9657283046819467
1.9486029605209048
1.922906114707587
1.890532744123878
1.858620636540377
1.8363512907310964
1.8151394825267382
1.7663668217747355
1.7123413612162397
1.8142450344954932
1.6889533951768738
1.549753540958627
1.4314427966895111
1.1769577221212064
0.7946258027837216
0.5302288216019343
0.5034900389376682
0.7147968043679289
1.0807490264420605
1.464764231206828
1.6506504746655652
1.6969245022348514
1.7006312221687319
1.7042568131390676
1.719165047425761
1.7500088665437907
1.7970992873049711
1.8527623650897156
1.9026619155007796
1.9400778295658652
1.9652669394364843
1.9818775184913222
1.9920564439941757
1.997797965073479
1.9998541660191511
1.9996594059163375
1.9960179190993645
1.988420686085659
1.976930500698099
1.961168877751953
1.9430361700578487
1.923078724815972
1.901515522130554
1.88090089334168
1.8657145289172172
1.8601244694221386
1.8614070881761529
1.8553212110374546
1.8424563830324892
-2.1766639758777
-1.6974378121308435
-1.3874313726373686
-0.8447714548798193
-0.197658041041674
0.4567617213247846
1.0929339569587568
1.5512883500491674
1.6855705009671085
1.7448951461410789
1.7698292065752033
1.78520572958967
1.80225033111628
1.8257688186839476
1.857885859505324
1.897091007367248
1.9384277023710974
1.973865338730322
2.0001703996767235
2.0172568140611253
2.0262676116263107
2.0299967932397456
2.029926465353857
2.026309748327101
2.0203221480960343
2.0117362730313375
2.00139956443031
1.989239439282566
1.9767162418815365
1.9642867508181845
1.9532519883560397
1.9445915179359288
1.9396379373082946
1.9409172289508834
1.9554717804965718
1.997640749701415
2.0905983191359057
2.0363871373235325
-2.0530459143657716
-0.9177876138106741
0.08219424570481589
0.7328422192185731
1.1475953076162204
1.409402682092039
1.613469490152218
1.7488432239460565
1.8154456315031293
1.8519517070985134
1.8754860244699234
1.8961831500085353
1.918048102403178
1.9425710058170702
1.970603071871732
1.999310445375449
2.0268223734350777
2.048472597563148
2.0633929291915485
2.0713798115499746
2.0737539020463434
2.0722560127109104
2.0680118925722546
2.0615508182425786
2.05388292689136
2.045038926843443
2.03609033107
2.026671101868389
2.018509881709485
2.0120218642342302
2.0087573949380917
2.0093730481500764
2.0144188110171197
2.0231545843447414
2.0363287611181358
2.0845398204066394
2.0438551320056084
2.0577407457765755
-0.8176027937328855
-0.8309260840733708
-0.7202893952013517
0.3618078184150687
1.1492809695589417
1.5553430250050773
1.7357483189623941
1.8317492908633817
1.8943290247996165
1.9375007030482205
1.9677802421112849
1.9912416679066014
2.0103926740916944
2.028006082721465
2.044387105179236
2.06026902746947
2.075710567623101
2.0900915194689555
2.1021714193779983
2.110745160948211
2.114740539519124
2.115803816220735
2.1136456053388204
2.110050908268056
2.104729856437168
2.098883104183798
2.092668978207403
2.0862266061541006
2.0796579267722604
2.073519711252822
2.067938700529995
2.063874711378863
2.0622448504950164
2.064723085034976
2.067061576410434
2.061332489473621
2.0523956281358773
2.052545702059242
2.0346300539681432
2.045411193225997
)
;

boundaryField
{
    ".*"
    {
        type            zeroGradient;
    }
}


// ************************************************************************* //
