/*--------------------------------*- C++ -*----------------------------------*=========                 |
  \      /  F ield         | OpenFOAM: The Open Source CFD Toolbox
   \    /   O peration     | Website:  https://openfoam.org
    \  /    A nd           | Version:  6
     \/     M anipulation  |
\*---------------------------------------------------------------------------*/
FoamFile
{
    version     2.0;
    format      ascii;
    class       volScalarField;
    location    "150";
    object      PPD;
}
// * * * * * * * * * * * * * * * * * * * * * * * * * * * * * * * * * * * * * //

dimensions      [0 0 0 0 0 0 0];

internalField   nonuniform List<scalar> 
458
(
35.37029988239293
23.90289953956841
22.32831567636333
21.29197412921846
20.867932047744816
21.040131703859686
21.890795309387343
23.676476136972695
26.70148376469004
30.934754038912658
33.0008361626699
31.58458425640542
30.756830898227363
31.408722980078025
31.979844766341728
52.35614662453356
50.744771264962026
49.62997662600534
49.86306795037158
50.563108724408806
50.288063053378956
49.74468472142051
49.83074995342701
50.23964235781818
50.71928599767319
51.26906504900402
51.89285903047417
52.61562845269122
53.472413908013884
54.632465884491836
56.31738966747218
58.73811539980273
61.169715720177834
31.42465466525519
24.523497611999957
23.815504382085322
22.76453062539784
22.316381285241818
22.411720238109282
22.885681128321764
23.65887444379753
25.025089740763477
27.545143604706396
31.43533567268129
32.96115563301633
32.67001403460851
31.514706628648867
29.93340900386447
29.558403900290443
31.50249915891912
34.649105963945345
52.46528729859725
48.98325813937615
47.97690326642975
47.27618013935074
47.49900893497252
48.076582014951825
48.65974757635886
49.28957601754698
49.92623092699708
50.59736971768788
51.28122101021311
52.008481927245555
52.807935599295206
53.701092445992444
54.87171881893652
56.619045134095
58.5645448875722
60.19468018424442
31.959177480366236
24.30332538948184
25.47082958850794
25.10612304365536
25.00023065670203
25.0011950812558
24.461133568023286
23.187908774377732
22.71323245726333
24.661960998418976
28.845916111659136
32.534739240378386
34.250595336518984
33.66092623617973
32.18985653704465
31.955950816082037
32.63535829249993
33.36123719126138
46.46582864125811
44.06121057662831
42.907097475159226
43.83344353110784
45.39522204716233
46.16020236397642
48.187506293033685
50.01008734746128
51.329821620320665
52.45118823921773
53.51643806307856
54.60785838897822
55.594687283612906
56.209124753140735
56.86683274492247
58.00575268622851
58.310105638893404
57.35794100356278
34.84442108423033
24.188427451482212
26.867738748149506
28.13126090981939
29.296574944018985
29.339700909053803
26.535671741851118
22.570713556064632
20.815562221794664
22.69625308153732
27.19759820659847
32.219700547858736
35.84562236910668
36.648567045067225
35.27393545000983
33.94829076779163
32.472717673337115
31.060673420013202
30.281929870085378
33.40431297397885
36.39663809795317
39.70295638961567
43.609494200117744
47.552913197242724
50.738416675951356
51.82966469909894
52.77572600362326
54.0207890838483
55.39152989250439
56.87142782158367
58.45647302376367
60.300278928111695
62.62561538003985
62.15711665951952
60.627981224982896
58.48527376121636
55.884412921329194
39.04013123330255
24.673944190590717
28.05009947985218
31.318130317489576
35.68624940874382
35.119664784672764
27.99359695445385
21.755487873223984
19.478893202558183
21.396164876089458
26.515355910822777
32.890207103899726
38.22722890250547
40.54789095879971
39.456209991899
37.422835298019976
35.30489701296548
33.947417250852766
34.60509704491058
36.521933541244174
39.81949560449735
44.14987448245439
48.8771546398163
53.42218699790774
57.21363448856926
59.428440339476104
61.10737528650921
62.65197647218985
63.91977579337668
64.95941538283253
65.76525660583275
66.3690707183946
66.59029888167444
65.19796853101428
62.55206475395925
58.915265264878826
57.986838614816406
63.4221683979313
70.46727868911074
64.54242499624435
43.836019271324226
26.096480063378394
30.07149374009329
34.14081421549545
39.41558988027219
36.09539060280517
27.27149193306346
20.714979191432775
18.383037348085793
20.702466514181395
26.937928559491667
35.09156084394836
42.41563963825192
45.54169398460823
45.210565465040844
43.43872346934561
41.27297085618337
40.294231071769076
41.541933760962955
44.38165946826229
48.485283812761836
53.23133945011255
57.980510745823295
62.33286646805992
64.77212043978983
66.51610987970281
67.84395952584087
68.81665601113015
69.49163455830573
69.9228617643342
70.06612452159997
69.8989611288181
69.37147160715065
67.9963096249524
64.94405697684223
60.807911677392454
59.598420638426425
61.98217155578663
64.72390374784285
66.10005664945794
48.98176215348247
30.175574903428824
37.01644535941718
38.8164145769921
39.428888901307474
33.242915904900045
24.878671084749655
18.606157226750867
17.0638676241266
20.733780236390004
29.101509199555707
39.862861120867706
48.957414081952855
50.58905650244127
50.2259155258737
49.319407285380116
49.00910417498578
49.837162226637176
52.38216378026644
55.94799554796685
59.70482829397103
63.2340538616473
66.2684710749298
68.62289582974331
70.37568964291822
71.62549999868607
72.39329432606775
72.92349337397405
73.24418615012947
73.38114640796084
73.24418615012947
72.7855786835586
71.95223224478181
70.58932367449694
68.32555626067204
64.37423570370535
62.225295288593905
62.176203480396055
61.96390517347961
66.6395044766323
56.53234851384886
48.573281071653426
46.30865414136632
41.321893456666075
37.78868856275033
29.29772623188404
19.92239780401603
14.99663223929386
15.683923473139515
22.403547194658174
34.78720506175614
49.25792508502022
55.42772120323003
56.805694749193485
56.44195565197861
56.104018234697946
56.54590281315858
58.2321638703384
61.29777641247563
64.87241212130597
67.96607124130627
70.565614314942
72.57817813643722
74.0389931730112
75.04587016598971
75.64159964564952
75.9915719885035
76.16569356817129
76.20913323654656
76.0787052375738
75.72930764354167
75.17880739718
74.37652757316272
73.15271889276383
71.57870521796582
69.99452342749271
68.87138018719288
67.78913226290413
65.25956098953503
62.40164150979638
67.74324341331592
61.14993284412347
53.60000492197664
47.187746249583235
34.12535919618125
18.30999369913245
10.881402452668908
10.298639610316997
15.749124564241313
29.637340255448393
48.98325813937615
59.085590079196
61.57738435406591
61.775869068515895
61.969825587197796
62.765350496078476
64.39978587715491
66.85982503176237
69.70041643940309
72.17248861541772
73.97312778369408
75.15733734353192
75.92519828970036
76.3904417819156
76.65105468915047
76.74406629028083
76.7352636739956
76.57039773967652
76.22473285539519
75.69762227457915
74.96627793859639
74.1134110019174
73.16101692753033
72.11657111670867
71.1038407880044
70.34933052811279
70.0698617688696
70.13406582433639
69.82900115258823
69.18065980351433
84.04920264064135
61.604881853134614
44.83697938427539
20.0569822404248
5.810125310053849
9.354346932899801
30.188751678081516
53.68362291563206
60.96827831600704
64.1299604816287
65.44086134827666
66.24297296023663
67.12596846572931
68.33291231728305
69.95768905282267
71.90035506986219
73.89474296622075
75.55614124066867
76.75835591794356
77.5243871478213
77.92351112919714
78.08769502437082
78.0846041445753
77.92536954609383
77.66054326314497
77.278193983618
76.81385978194294
76.26209528925449
75.68774435205127
75.11169666838518
74.59539872648845
74.187038335227
73.95224142737533
74.0129637224833
74.69962332610375
76.6439361067925
80.67111449621817
78.36767202447083
79.08929786873537
22.78736229780938
5.139892539482531
16.304134758468194
32.723912155545236
46.007186866361806
57.06922416855999
64.33832336709725
67.80483437271761
69.65964109858524
70.83561433321537
71.85591162107661
72.91875561851683
74.09137399694062
75.40516554188952
76.71948780422424
77.9479726232811
78.89238671722836
79.5314224674497
79.86945943958861
79.9693914718204
79.90637056950476
79.72726195827235
79.4530548520099
79.125237938464
78.7439474346463
78.35470668169192
77.94130378615708
77.58009314745685
77.29096098747866
77.1448273228905
77.17242040660258
77.39798118223574
77.78600648604134
78.36512228257908
80.4202051686244
78.69265313920226
79.2904901958704
19.097348797233494
19.564083046442263
15.916573093623455
7.724501119536427
32.803640288050374
53.9045351579413
63.64614854603297
68.6375810815161
71.7650618388468
73.85066566832566
75.27419850268299
76.35335185479946
77.21808507927447
78.000123407447
78.71571123355211
79.39843603838332
80.05156284329307
80.6501898894225
81.1457299281478
81.49334368233836
81.65416052591588
81.69683210135493
81.61016302731933
81.4653233469568
81.24981708540722
81.01150320843033
80.75648512367535
80.49023051681442
80.2168100692396
79.95954496600604
79.72416608576775
79.55189380034284
79.4825981982456
79.58791690122692
79.68704698133587
79.4437566993136
79.0613544125656
79.0678048801095
78.29086289774868
78.76006536861067
)
;

boundaryField
{
    ".*"
    {
        type            zeroGradient;
    }
}


// ************************************************************************* //
