/*--------------------------------*- C++ -*----------------------------------*\
  =========                 |
  \\      /  F ield         | OpenFOAM: The Open Source CFD Toolbox
   \\    /   O peration     | Website:  https://openfoam.org
    \\  /    A nd           | Version:  6
     \\/     M anipulation  |
\*---------------------------------------------------------------------------*/
FoamFile
{
    version     2.0;
    format      ascii;
    class       volScalarField;
    location    "150";
    object      T;
}
// * * * * * * * * * * * * * * * * * * * * * * * * * * * * * * * * * * * * * //

dimensions      [0 0 0 1 0 0 0];

internalField   nonuniform List<scalar> 
458
(
301.783
301.505
301.491
301.487
301.484
301.48
301.475
301.472
301.477
301.506
301.572
301.605
301.625
301.639
301.659
302.335
302.273
302.23
302.239
302.266
302.29
302.314
302.339
302.365
302.39
302.416
302.443
302.471
302.499
302.529
302.563
302.605
302.675
301.956
301.53
301.5
301.496
301.493
301.488
301.474
301.452
301.447
301.49
301.577
301.632
301.661
301.669
301.672
301.683
301.697
301.726
302.354
302.205
302.166
302.188
302.226
302.251
302.276
302.301
302.327
302.355
302.383
302.412
302.443
302.475
302.509
302.548
302.597
302.676
302.145
301.575
301.53
301.535
301.542
301.54
301.509
301.449
301.419
301.475
301.585
301.67
301.716
301.725
301.721
301.721
301.722
301.734
302.266
302.129
302.113
302.165
302.234
302.249
302.271
302.296
302.325
302.358
302.392
302.429
302.467
302.503
302.539
302.574
302.617
302.689
302.346
301.638
301.573
301.595
301.625
301.635
301.575
301.456
301.392
301.457
301.594
301.718
301.791
301.811
301.8
301.785
301.77
301.758
301.776
301.83
301.927
302.054
302.189
302.306
302.397
302.461
302.513
302.561
302.605
302.648
302.689
302.73
302.768
302.719
302.676
302.666
302.71
302.55
301.721
301.624
301.658
301.722
301.757
301.65
301.461
301.369
301.439
301.61
301.782
301.889
301.923
301.909
301.882
301.853
301.838
301.866
301.941
302.064
302.211
302.358
302.487
302.594
302.672
302.734
302.786
302.826
302.857
302.878
302.89
302.89
302.843
302.771
302.723
302.734
302.994
303.18
303.155
302.743
301.831
301.7
301.726
301.826
301.857
301.684
301.452
301.341
301.427
301.645
301.874
302.022
302.071
302.058
302.022
301.993
301.992
302.052
302.165
302.309
302.462
302.604
302.723
302.817
302.887
302.941
302.981
303.009
303.027
303.033
303.026
303.004
302.949
302.868
302.796
302.776
302.909
302.997
303.073
302.927
302.01
301.868
301.882
301.98
301.921
301.662
301.385
301.284
301.426
301.719
302.016
302.204
302.267
302.253
302.218
302.206
302.238
302.336
302.473
302.618
302.756
302.877
302.973
303.046
303.099
303.132
303.155
303.169
303.175
303.169
303.149
303.113
303.055
302.977
302.899
302.857
302.902
302.951
303.003
303.178
302.497
302.324
302.259
302.213
301.924
301.507
301.206
301.192
301.465
301.874
302.242
302.453
302.506
302.492
302.479
302.496
302.561
302.68
302.821
302.946
303.054
303.14
303.204
303.249
303.276
303.292
303.3
303.302
303.296
303.28
303.255
303.219
303.165
303.097
303.03
302.994
303.016
303.056
303.2
303.544
303.211
302.957
302.743
302.263
301.526
300.976
300.835
301.111
301.653
302.205
302.594
302.732
302.765
302.773
302.793
302.84
302.921
303.03
303.142
303.237
303.308
303.359
303.392
303.411
303.419
303.421
303.416
303.404
303.386
303.362
303.337
303.314
303.296
303.29
303.302
303.336
303.378
303.408
303.486
295.578
296.586
297.168
298.13
299.255
300.367
301.428
302.386
302.784
302.952
303.012
303.043
303.073
303.114
303.172
303.246
303.328
303.402
303.46
303.5
303.523
303.534
303.536
303.53
303.519
303.503
303.484
303.462
303.44
303.419
303.402
303.392
303.393
303.409
303.445
303.501
303.585
303.72
296
297.383
299.316
300.676
301.593
302.271
302.748
303.041
303.176
303.246
303.288
303.324
303.362
303.405
303.455
303.507
303.558
303.599
303.628
303.644
303.649
303.646
303.637
303.623
303.606
303.586
303.565
303.542
303.52
303.499
303.481
303.467
303.461
303.467
303.487
303.539
303.604
303.695
298.836
298.794
298.787
300.688
302.036
302.775
303.111
303.29
303.404
303.479
303.529
303.567
303.598
303.627
303.654
303.68
303.705
303.728
303.747
303.76
303.765
303.765
303.759
303.75
303.737
303.722
303.705
303.686
303.665
303.643
303.62
303.597
303.574
303.554
303.537
303.528
303.54
303.57
303.607
303.707
)
;

boundaryField
{
    floor
    {
        type            wallHeatTransfer;
        Tinf            uniform 305.2;
        alphaWall       uniform 0.24;
        value           nonuniform List<scalar> 
36
(
302
302.782
302.682
302.599
302.584
302.606
302.644
302.686
302.728
302.769
302.809
302.849
302.888
302.926
302.964
303.004
303.049
303.102
303.191
303.191
303.158
303.149
303.147
303.335
303.472
303.433
302
301.983
302.026
302.099
302.782
302.099
302.811
302.075
302.678
302.095
)
;
    }
    ceiling
    {
        type            wallHeatTransfer;
        Tinf            uniform 303.2;
        alphaWall       uniform 0.24;
        value           nonuniform List<scalar> 
43
(
299.079
299.033
299.021
300.809
302.098
302.802
303.118
303.283
303.387
303.455
303.499
303.532
303.56
303.585
303.609
303.632
303.653
303.672
303.687
303.695
303.698
303.694
303.687
303.677
303.664
303.65
303.635
303.619
303.601
303.583
303.565
303.546
303.529
303.513
303.5
303.494
303.505
303.531
303.562
303.648
303.528
303.211
296.419
)
;
    }
    sWall
    {
        type            wallHeatTransfer;
        Tinf            uniform 315.2;
        alphaWall       uniform 0.36;
        value           uniform 300.168;
    }
    nWall
    {
        type            wallHeatTransfer;
        Tinf            uniform 307.2;
        alphaWall       uniform 0.36;
        value           nonuniform List<scalar> 6(303.928 303.844 303.707 304.23 304.201 304.284);
    }
    sideWalls
    {
        type            empty;
    }
    glass1
    {
        type            wallHeatTransfer;
        Tinf            uniform 315.2;
        alphaWall       uniform 4.3;
        value           nonuniform List<scalar> 9(310.415 309.826 309.457 309.18 308.951 308.738 308.585 308.67 308.928);
    }
    glass2
    {
        type            wallHeatTransfer;
        Tinf            uniform 307.2;
        alphaWall       uniform 4.3;
        value           nonuniform List<scalar> 2(305.69 305.847);
    }
    sun
    {
        type            wallHeatTransfer;
        Tinf            uniform 305.2;
        alphaWall       uniform 0.24;
        value           nonuniform List<scalar> 
14
(
302.089
301.811
301.788
301.771
301.756
301.742
301.728
301.717
301.719
301.747
301.824
301.871
301.911
301.95
)
;
    }
    Table_master
    {
        type            zeroGradient;
    }
    Table_slave
    {
        type            zeroGradient;
    }
    inlet
    {
        type            fixedValue;
        value           uniform 293.15;
    }
    outlet
    {
        type            zeroGradient;
    }
}


// ************************************************************************* //
