/*--------------------------------*- C++ -*----------------------------------*\
  =========                 |
  \\      /  F ield         | OpenFOAM: The Open Source CFD Toolbox
   \\    /   O peration     | Website:  https://openfoam.org
    \\  /    A nd           | Version:  6
     \\/     M anipulation  |
\*---------------------------------------------------------------------------*/
FoamFile
{
    version     2.0;
    format      ascii;
    class       volScalarField;
    location    "47700.0000007306444";
    object      alphat;
}
// * * * * * * * * * * * * * * * * * * * * * * * * * * * * * * * * * * * * * //

dimensions      [1 -1 -1 0 0 0 0];

internalField   nonuniform List<scalar> 
778
(
0.00104098
0.00111051
0.0011065
0.00115453
0.00119855
0.00123854
0.00127579
0.0013117
0.00134787
0.00138631
0.00142299
0.00145785
0.00149219
0.00152911
0.00156761
0.000736928
0.00105553
0.00106418
0.0010385
0.00099546
0.000937889
0.000880478
0.000827579
0.000779899
0.000737166
0.000699102
0.000664916
0.000633775
0.000604706
0.000576413
0.000546827
0.00052224
0.00047267
0.00152465
0.00300714
0.0026392
0.00304619
0.00334142
0.00365443
0.0039667
0.00425456
0.00448641
0.00462157
0.00470114
0.0046688
0.00443626
0.00385964
0.00281903
0.0017165
0.00163661
0.00156657
0.00131833
0.00224608
0.00311362
0.00362631
0.00365054
0.00288085
0.00246379
0.00217484
0.0019555
0.00178094
0.001632
0.00150038
0.00137794
0.00125817
0.00115069
0.001058
0.00119135
0.000599223
0.00193413
0.00419852
0.00311333
0.00445316
0.00497561
0.00541767
0.00581919
0.00617267
0.00647233
0.00670753
0.00693547
0.0071755
0.00739623
0.00752784
0.00744128
0.00681329
0.00498291
0.00192154
0.00166356
0.00355884
0.00496639
0.00563255
0.00512254
0.00135186
0.0011756
0.00103961
0.000933172
0.000848443
0.000780034
0.000724225
0.000678829
0.000643436
0.000707378
0.000832003
0.00131676
0.000681621
0.00232908
0.00565794
0.002979
0.00500693
0.00578038
0.00619399
0.00649804
0.006723
0.00689105
0.00702757
0.00722168
0.00754973
0.0080284
0.0086302
0.00923499
0.0095328
0.00895073
0.00667477
0.00191391
0.00443517
0.00659519
0.00769175
0.00796224
0.00679732
0.00153921
0.00140006
0.00129238
0.00120285
0.00112653
0.00105797
0.000993317
0.000929101
0.000859754
0.000803258
0.000832455
0.00142494
0.000750439
0.00271833
0.00748974
0.00300531
0.00475958
0.00594881
0.00630133
0.00642903
0.00643367
0.00636966
0.00631327
0.00639473
0.00671345
0.00729817
0.00812603
0.00908609
0.00997046
0.010532
0.0105265
0.00944814
0.00961412
0.00983362
0.00986358
0.00966263
0.00904427
0.00719766
0.00621768
0.00554651
0.0050009
0.00446604
0.00394801
0.0034412
0.00293491
0.00241461
0.0018549
0.00141572
0.00141302
0.00111793
0.000894422
0.00117471
0.00112619
0.00310125
0.00953967
0.00353777
0.00401355
0.00569954
0.00609066
0.00605891
0.0058405
0.00552859
0.00527147
0.00526594
0.00559959
0.00626552
0.00722513
0.00834851
0.00947051
0.0104264
0.0110371
0.0111487
0.0110365
0.0108397
0.010561
0.0102036
0.00974937
0.00908694
0.00844894
0.00786977
0.0073096
0.0067051
0.00605971
0.00537032
0.0046309
0.00383673
0.00299422
0.00223211
0.00167604
0.00130062
0.00145673
0.00252559
0.0013482
0.00349198
0.0114348
0.0047139
0.00328799
0.00512108
0.00576098
0.00568949
0.00533631
0.00482427
0.00437374
0.00436051
0.0047811
0.00554275
0.0066147
0.00783556
0.0090442
0.0100847
0.0108301
0.011173
0.0111461
0.0109002
0.0105284
0.0101031
0.00967926
0.00926965
0.00889395
0.00854118
0.00816449
0.00770987
0.00716276
0.00651486
0.0057629
0.00490989
0.00397822
0.0030688
0.00222071
0.00163523
0.00146009
0.00255877
0.00158719
0.00382771
0.0128678
0.00642612
0.00313049
0.00405678
0.00510705
0.00525309
0.00496277
0.00435791
0.0037448
0.00388327
0.0044391
0.00529018
0.00639457
0.00766194
0.0089272
0.010007
0.0107574
0.0110984
0.0110537
0.0107365
0.0102689
0.00976648
0.00932121
0.00897813
0.00873309
0.00854215
0.00833463
0.00804617
0.00764243
0.00710721
0.00643717
0.005639
0.00473765
0.00380306
0.00285945
0.00200999
0.00132784
0.00367391
0.00206831
0.00392899
0.0121743
0.00794942
0.00404631
0.00275039
0.00337055
0.00394339
0.00399125
0.00352383
0.00342496
0.00378057
0.00443383
0.0053533
0.00652367
0.00785144
0.00915564
0.0102319
0.0109249
0.0111684
0.0110012
0.0105416
0.00993891
0.00934144
0.00886511
0.00856286
0.00841441
0.00834716
0.00826745
0.00810183
0.00781049
0.00737743
0.00680083
0.00608864
0.00526202
0.00435823
0.00334695
0.0020046
0.00160639
0.00554913
0.00235293
0.00384959
0.00981215
0.00820745
0.00555256
0.003668
0.00284081
0.00269096
0.00281732
0.00305378
0.00343049
0.00396469
0.0046995
0.00569881
0.00695995
0.00835959
0.00968225
0.0107027
0.0112652
0.0113244
0.0109471
0.0102827
0.00951847
0.00883705
0.00837069
0.00815704
0.00813181
0.00817785
0.00817692
0.00806969
0.00783363
0.00746092
0.00695102
0.00630922
0.00554274
0.00461451
0.00325031
0.00158052
0.00270583
0.00572196
0.00240179
0.00360602
0.00838485
0.00793379
0.00635263
0.00489022
0.00393778
0.00346688
0.00336071
0.0035562
0.00391572
0.00443788
0.00521317
0.00631619
0.00769841
0.00916913
0.010464
0.0113439
0.0116718
0.0114422
0.0107698
0.00985671
0.00894331
0.00825061
0.00790338
0.00786289
0.00797602
0.00809053
0.00809257
0.00797946
0.00775038
0.00740015
0.00692381
0.00631764
0.00555532
0.00442453
0.00252977
0.00170791
0.00340256
0.00552594
0.00238131
0.00328332
0.00755875
0.00765158
0.00672285
0.00572035
0.00496546
0.0045211
0.00436235
0.00440314
0.00462088
0.00510082
0.00596702
0.00724215
0.008773
0.010275
0.0114404
0.0120419
0.0119929
0.0113562
0.0103192
0.00916329
0.0081998
0.00765623
0.00754541
0.00763793
0.00778739
0.00788773
0.00786036
0.0077296
0.0074977
0.00715569
0.00669072
0.00608395
0.00524672
0.00363949
0.001791
0.00220944
0.00374467
0.00505998
0.00230643
0.00299357
0.00675832
0.00730321
0.00686591
0.00622343
0.00568334
0.00532426
0.00514928
0.00509852
0.0052859
0.00589612
0.00702847
0.00857164
0.0102286
0.011633
0.0124777
0.0126001
0.0120058
0.0108623
0.00945955
0.00819324
0.00738315
0.00702443
0.00697221
0.007066
0.00720121
0.00729535
0.00727486
0.00714815
0.0069154
0.00656492
0.00608028
0.00543233
0.00447283
0.00281764
0.00175085
0.00250989
0.00391112
0.00485177
0.00223652
0.00300323
0.00670671
0.00746029
0.00694721
0.00642759
0.006002
0.00569538
0.00549759
0.00549284
0.00594689
0.00702338
0.00862786
0.0104367
0.0120353
0.0130574
0.0132858
0.0126936
0.011415
0.00977448
0.00819166
0.0070475
0.00636918
0.00603537
0.00593558
0.00598065
0.00609165
0.00619006
0.00618766
0.00605836
0.00579803
0.00539549
0.00485164
0.00418581
0.00339146
0.00242378
0.00186171
0.00258951
0.00405228
0.00545081
0.00229238
0.00270948
0.00281959
0.00416526
0.00489759
0.00512531
0.00513064
0.00508308
0.00518194
0.00581631
0.00715989
0.00904256
0.0110683
0.0127975
0.0138674
0.0140652
0.0133486
0.0118892
0.00995909
0.00812034
0.00668478
0.00571235
0.00513405
0.0048422
0.00472238
0.00469969
0.00472761
0.00475555
0.00470541
0.00451751
0.00418741
0.00373136
0.00321803
0.00275203
0.00240807
0.0021895
0.00215643
0.00279373
0.0044664
0.0054714
0.00241455
0.000965381
0.00174112
0.00267164
0.00341767
0.00428498
0.00575907
0.00792123
0.0103096
0.0124714
0.014077
0.0149074
0.0148237
0.0138329
0.0120348
0.00989751
0.00786995
0.00625768
0.00516114
0.00453579
0.00420382
0.00401218
0.00388415
0.00378873
0.00370922
0.00362279
0.00348906
0.00326743
0.00297074
0.00265791
0.00241725
0.00230887
0.00233592
0.00248226
0.00278626
0.0034684
0.00528364
0.00578481
0.00244737
0.00178722
0.00247313
0.00360004
0.00561132
0.00833551
0.0110514
0.0131446
0.0146409
0.0155319
0.0157635
0.0152284
0.0138217
0.0117589
0.00943863
0.00731632
0.00571452
0.00474786
0.00424802
0.00397896
0.00380605
0.00367922
0.00358232
0.00350685
0.00344152
0.00336768
0.00326037
0.00311111
0.00294609
0.00281376
0.00276641
0.00282991
0.00299718
0.00325825
0.00364667
0.00428936
0.0056906
0.00628337
0.00245035
0.00323866
0.00785494
0.00724902
0.00649849
0.00825427
0.0109899
0.0132879
0.0148264
0.0156228
0.0158031
0.015468
0.0145803
0.0131014
0.0111059
0.00888176
0.00686331
0.00544507
0.00466593
0.00425931
0.00400976
0.00382972
0.00369787
0.00361365
0.00357692
0.00358008
0.00360582
0.00362826
0.00362035
0.00358666
0.00355742
0.00355718
0.00360648
0.0037148
0.00387499
0.00406854
0.00428055
0.00451305
0.00478104
0.00487612
0.00233828
0.00309578
0.00598433
0.00774348
0.00990426
0.0109906
0.0121073
0.0127522
0.0128994
0.0126398
0.012038
0.0111218
0.00991229
0.00848376
0.00702181
0.00579416
0.00495239
0.00440583
0.00404925
0.00378927
0.00358765
0.0034403
0.00335542
0.00334076
0.00339665
0.00351194
0.00366198
0.00380954
0.00391176
0.00397292
0.00403068
0.00410851
0.00421921
0.00436708
0.00455005
0.0047641
0.0050063
0.00527312
0.00558152
0.00548484
0.00232398
0.00289506
0.00248009
0.00246711
0.00253768
0.00259518
0.00251382
0.0023591
0.00217976
0.00200129
0.00183378
0.00168023
0.00154303
0.00142701
0.00133856
0.00128072
0.0012503
0.00124158
0.00124261
0.00125122
0.00126736
0.001291
0.0013211
0.00135565
0.00139223
0.00142881
0.00146417
0.00149821
0.00153197
0.00156609
0.00160242
0.00164342
0.00169094
0.00174595
0.00180848
0.00187724
0.00194915
0.00202313
0.00211972
0.00227486
0.00226037
)
;

boundaryField
{
    floor
    {
        type            compressible::alphatWallFunction;
        Prt             0.85;
        value           nonuniform List<scalar> 
36
(
0.000219921
0.000104498
0.000149959
0.000151168
0.000147573
0.000141525
0.000133387
0.000125214
0.000117627
0.000110739
0.000104524
9.89509e-05
9.39147e-05
8.92995e-05
8.49666e-05
8.07247e-05
7.62615e-05
7.25298e-05
6.49393e-05
6.49385e-05
8.41473e-05
9.63806e-05
0.000106461
0.000127207
0.000166518
0.000159817
0.000219919
0.000239737
0.000229126
0.000219776
0.000104496
0.000219774
0.000186245
0.000266721
0.000232703
0.000265721
)
;
    }
    ceiling
    {
        type            compressible::alphatWallFunction;
        Prt             0.85;
        value           nonuniform List<scalar> 
43
(
0.000391217
0.000338828
0.00033718
0.000346165
0.000353472
0.000343178
0.000323471
0.000300437
0.0002773
0.000255373
0.000235077
0.000216772
0.00020116
0.000189175
0.000181298
0.00017714
0.00017595
0.000176092
0.000177266
0.000179468
0.000182692
0.0001868
0.000191513
0.000196499
0.000201476
0.000206278
0.000210887
0.000215443
0.000220033
0.000224899
0.000230371
0.000236693
0.000243993
0.000252269
0.000261341
0.000270794
0.000280451
0.000292857
0.000312731
0.000311135
0.000368221
0.000382061
0.000248594
)
;
    }
    sWall
    {
        type            compressible::alphatWallFunction;
        Prt             0.85;
        value           nonuniform List<scalar> 9(0.000507618 0.000477905 0.000438224 0.000402257 0.000403455 0.000366646 0.000432066 0.000414398 0.000389466);
    }
    nWall
    {
        type            compressible::alphatWallFunction;
        Prt             0.85;
        value           nonuniform List<scalar> 
14
(
0.00015937
0.000189864
0.000222053
0.000328285
0.000325618
0.000316005
0.000307113
0.000314679
0.000329978
0.000334143
0.000334214
0.000320016
0.000318639
0.000310455
)
;
    }
    sideWalls
    {
        type            empty;
    }
    glass1
    {
        type            compressible::alphatWallFunction;
        Prt             0.85;
        value           nonuniform List<scalar> 9(0.000143926 0.000209133 0.000262689 0.000313297 0.000362368 0.000409988 0.000457994 0.00049885 0.000511222);
    }
    glass2
    {
        type            compressible::alphatWallFunction;
        Prt             0.85;
        value           nonuniform List<scalar> 2(0.000283137 0.000319752);
    }
    sun
    {
        type            compressible::alphatWallFunction;
        Prt             0.85;
        value           nonuniform List<scalar> 
14
(
0.00014796
0.000157642
0.000157082
0.000163749
0.000169832
0.000175336
0.000180443
0.000185353
0.000190282
0.000195504
0.000200472
0.000205179
0.000209803
0.000214763
)
;
    }
    Table_master
    {
        type            compressible::alphatWallFunction;
        Prt             0.85;
        value           nonuniform List<scalar> 9(0.000191082 0.000166914 0.000147984 0.000132968 0.00012087 0.000110998 0.000102868 9.61985e-05 9.09613e-05);
    }
    Table_slave
    {
        type            compressible::alphatWallFunction;
        Prt             0.85;
        value           nonuniform List<scalar> 9(0.000216387 0.00019763 0.000182973 0.000170679 0.000160117 0.000150559 0.000141479 0.000132392 0.000122496);
    }
    inlet
    {
        type            fixedValue;
        value           uniform 1.94e-05;
    }
    outlet
    {
        type            zeroGradient;
    }
}


// ************************************************************************* //
