/*--------------------------------*- C++ -*----------------------------------*\
  =========                 |
  \\      /  F ield         | OpenFOAM: The Open Source CFD Toolbox
   \\    /   O peration     | Website:  https://openfoam.org
    \\  /    A nd           | Version:  6
     \\/     M anipulation  |
\*---------------------------------------------------------------------------*/
FoamFile
{
    version     2.0;
    format      ascii;
    class       volVectorField;
    location    "47700.0000007306444";
    object      U;
}
// * * * * * * * * * * * * * * * * * * * * * * * * * * * * * * * * * * * * * //

dimensions      [0 1 -1 0 0 0 0];

internalField   nonuniform List<vector> 
778
(
(0.0655947 0.0794098 0)
(-0.155181 0.0157693 0)
(-0.164316 0.0146302 0)
(-0.192442 0.0122817 0)
(-0.21689 0.00873229 0)
(-0.236964 0.00475129 0)
(-0.252105 0.000423267 0)
(-0.261889 -0.00436429 0)
(-0.265799 -0.00980986 0)
(-0.262832 -0.0161937 0)
(-0.251031 -0.0242713 0)
(-0.226326 -0.0348953 0)
(-0.18619 -0.0504233 0)
(-0.144241 -0.0752037 0)
(-0.150139 -0.108612 0)
(0.0546108 0.0354855 0)
(0.0156875 -0.0268628 0)
(0.04485 -0.0232577 0)
(0.0692261 -0.0161549 0)
(0.0842677 -0.010349 0)
(0.0914681 -0.00641356 0)
(0.0943013 -0.00433523 0)
(0.095332 -0.00331183 0)
(0.0957789 -0.00272532 0)
(0.0959432 -0.0023134 0)
(0.0958149 -0.00195043 0)
(0.0952882 -0.00151158 0)
(0.0940333 -0.00075931 0)
(0.0911925 0.000842517 0)
(0.0850005 0.00406127 0)
(0.0734842 0.0077623 0)
(0.059858 0.0116011 0)
(-0.00796232 0.029958 0)
(0.25839 0.167399 0)
(-0.161239 0.0484019 0)
(-0.141617 0.0459929 0)
(-0.17403 0.0416305 0)
(-0.199404 0.0356866 0)
(-0.220139 0.0291499 0)
(-0.236184 0.0220791 0)
(-0.247452 0.0142474 0)
(-0.253642 0.0053111 0)
(-0.253973 -0.00514462 0)
(-0.247826 -0.0170834 0)
(-0.234124 -0.030861 0)
(-0.214218 -0.0480968 0)
(-0.197646 -0.0699921 0)
(-0.194139 -0.0826862 0)
(-0.166512 -0.0426022 0)
(-0.105411 -0.036434 0)
(-0.0983416 -0.0445302 0)
(0.109327 -0.0419858 0)
(0.064417 -0.0410978 0)
(0.0718156 -0.0322239 0)
(0.0857625 -0.0206845 0)
(0.0936354 -0.0104435 0)
(0.0958583 -0.00363592 0)
(0.0956209 -0.000190444 0)
(0.0952354 0.00126055 0)
(0.0951989 0.00190828 0)
(0.0952781 0.00227784 0)
(0.0952831 0.00259427 0)
(0.0951815 0.00313163 0)
(0.0948901 0.00440886 0)
(0.0936343 0.00771907 0)
(0.0880438 0.0167396 0)
(0.0743056 0.0253028 0)
(0.062996 0.0328997 0)
(-0.0520339 0.0634812 0)
(0.429965 0.253964 0)
(-0.194236 0.0847764 0)
(-0.112794 0.0784526 0)
(-0.148267 0.0669807 0)
(-0.170709 0.0555302 0)
(-0.188815 0.0437616 0)
(-0.202665 0.0313804 0)
(-0.21237 0.0180421 0)
(-0.217734 0.00342752 0)
(-0.218104 -0.0126138 0)
(-0.212855 -0.0303188 0)
(-0.201754 -0.0499173 0)
(-0.186119 -0.0715912 0)
(-0.169591 -0.0932473 0)
(-0.151227 -0.104609 0)
(-0.120384 -0.0931978 0)
(-0.0796732 -0.0950208 0)
(-0.0715757 -0.107696 0)
(0.0920721 -0.0880333 0)
(0.0625067 -0.0656478 0)
(0.0742814 -0.0460443 0)
(0.0878859 -0.0291771 0)
(0.0946826 -0.0148359 0)
(0.0917461 -0.0120256 0)
(0.0875167 -0.00798006 0)
(0.0851461 -0.0058022 0)
(0.084453 -0.00456633 0)
(0.0844354 -0.00379627 0)
(0.0846973 -0.00322242 0)
(0.0853521 -0.00259746 0)
(0.0871118 -0.0014409 0)
(0.0917901 0.00291574 0)
(0.0899441 0.0250812 0)
(0.073156 0.0422983 0)
(0.069926 0.0573653 0)
(-0.0901136 0.100733 0)
(0.578526 0.325855 0)
(-0.240103 0.121835 0)
(-0.0808517 0.109251 0)
(-0.1216 0.0898874 0)
(-0.139042 0.0741096 0)
(-0.153113 0.0586815 0)
(-0.163884 0.0428011 0)
(-0.171489 0.0258553 0)
(-0.17571 0.00723636 0)
(-0.175785 -0.0135051 0)
(-0.171104 -0.0364578 0)
(-0.161543 -0.0614553 0)
(-0.147688 -0.0873799 0)
(-0.130729 -0.110313 0)
(-0.109792 -0.123223 0)
(-0.0823332 -0.124581 0)
(-0.0527435 -0.126435 0)
(-0.0336381 -0.123242 0)
(0.0160232 -0.0568232 0)
(0.0606047 -0.0929574 0)
(0.0683222 -0.07909 0)
(0.0789739 -0.0587318 0)
(0.091478 -0.039494 0)
(0.102833 -0.0208294 0)
(0.115577 -0.0131813 0)
(0.126702 -0.00881664 0)
(0.132279 -0.00560997 0)
(0.133244 -0.00310121 0)
(0.130701 -0.00087448 0)
(0.125223 0.00129605 0)
(0.116684 0.0036751 0)
(0.104322 0.0067247 0)
(0.0850821 0.0111452 0)
(0.0712298 0.036795 0)
(0.0599657 0.0604693 0)
(0.0760516 0.0832068 0)
(-0.11782 0.136852 0)
(0.705701 0.383699 0)
(-0.287675 0.157037 0)
(-0.0477163 0.133819 0)
(-0.0963215 0.106963 0)
(-0.10778 0.0876477 0)
(-0.116822 0.0692326 0)
(-0.123621 0.0505099 0)
(-0.128289 0.0306478 0)
(-0.130656 0.00877441 0)
(-0.129856 -0.0157847 0)
(-0.12536 -0.0430568 0)
(-0.116744 -0.0726705 0)
(-0.104037 -0.102809 0)
(-0.0875911 -0.129065 0)
(-0.0676685 -0.145768 0)
(-0.0443535 -0.152268 0)
(-0.0205099 -0.152404 0)
(9.52988e-06 -0.143778 0)
(0.0305569 -0.115014 0)
(0.0567614 -0.109333 0)
(0.0703868 -0.0923809 0)
(0.0805614 -0.0711906 0)
(0.090642 -0.050727 0)
(0.100208 -0.0326865 0)
(0.109312 -0.0193307 0)
(0.116316 -0.00996187 0)
(0.119714 -0.00326982 0)
(0.119884 0.00197847 0)
(0.117446 0.00651513 0)
(0.112773 0.0108539 0)
(0.105897 0.015507 0)
(0.0967508 0.0211785 0)
(0.0848344 0.0291704 0)
(0.0732894 0.0471637 0)
(0.0627991 0.0711802 0)
(0.0943042 0.0992447 0)
(0.0163666 0.138053 0)
(0.0956179 0.182853 0)
(0.141053 0.147245 0)
(-0.224789 0.203452 0)
(0.810407 0.431997 0)
(-0.331311 0.190714 0)
(-0.0173351 0.150298 0)
(-0.0734009 0.117577 0)
(-0.078634 0.0955766 0)
(-0.0822651 0.0750159 0)
(-0.084528 0.0544155 0)
(-0.0855723 0.032789 0)
(-0.0853211 0.0089201 0)
(-0.0826478 -0.0183649 0)
(-0.0774825 -0.0489901 0)
(-0.0688617 -0.0824635 0)
(-0.0568829 -0.116452 0)
(-0.0418552 -0.146239 0)
(-0.0248907 -0.165943 0)
(-0.00653084 -0.174474 0)
(0.0118525 -0.172767 0)
(0.0277635 -0.161049 0)
(0.0459426 -0.139361 0)
(0.062421 -0.122361 0)
(0.0731271 -0.102479 0)
(0.0808359 -0.0803998 0)
(0.0876111 -0.0590352 0)
(0.093796 -0.0401482 0)
(0.0991186 -0.0249742 0)
(0.102786 -0.0136216 0)
(0.104362 -0.00493537 0)
(0.103901 0.00224549 0)
(0.101716 0.00869451 0)
(0.0980597 0.0149295 0)
(0.0930937 0.0214802 0)
(0.0870513 0.0289869 0)
(0.0801913 0.0383753 0)
(0.0744416 0.0528028 0)
(0.0691771 0.0728226 0)
(0.0911185 0.0985621 0)
(0.0727914 0.107307 0)
(0.0891861 0.0479311 0)
(0.146188 -0.0370775 0)
(-0.329424 0.105899 0)
(0.879889 0.474711 0)
(-0.368631 0.221004 0)
(0.00370737 0.155624 0)
(-0.0526975 0.121642 0)
(-0.0522531 0.0979295 0)
(-0.051084 0.0759035 0)
(-0.0490892 0.0541262 0)
(-0.0465794 0.0316123 0)
(-0.0433953 0.00683948 0)
(-0.0374324 -0.0222438 0)
(-0.0303575 -0.0553182 0)
(-0.0205823 -0.0918754 0)
(-0.00879622 -0.128801 0)
(0.00438014 -0.161123 0)
(0.0174214 -0.181792 0)
(0.0301926 -0.19017 0)
(0.0419932 -0.187233 0)
(0.0522995 -0.174459 0)
(0.0622827 -0.154115 0)
(0.0708832 -0.132444 0)
(0.0764372 -0.109394 0)
(0.0799232 -0.085853 0)
(0.0825357 -0.063639 0)
(0.0847726 -0.044111 0)
(0.0865898 -0.0279943 0)
(0.0876539 -0.0151926 0)
(0.0877466 -0.00492876 0)
(0.0867213 0.00371346 0)
(0.0847768 0.0114131 0)
(0.0820649 0.0186929 0)
(0.0787699 0.0260577 0)
(0.0751778 0.0340217 0)
(0.071693 0.0431651 0)
(0.0696763 0.0548152 0)
(0.0684731 0.0694013 0)
(0.0813305 0.0886583 0)
(0.0840041 0.0921941 0)
(0.0886858 0.054664 0)
(0.180735 0.0246464 0)
(-0.28199 0.153634 0)
(0.92795 0.517167 0)
(-0.383162 0.234223 0)
(0.0168976 0.133067 0)
(-0.0273618 0.116745 0)
(-0.026597 0.0950122 0)
(-0.0228023 0.0725207 0)
(-0.0177015 0.0501937 0)
(-0.012434 0.0273313 0)
(-0.0054813 0.00192822 0)
(0.00450894 -0.0306919 0)
(0.0142276 -0.0652737 0)
(0.0255144 -0.103243 0)
(0.0371305 -0.140722 0)
(0.0477759 -0.17198 0)
(0.0568387 -0.192196 0)
(0.0643064 -0.199738 0)
(0.0700142 -0.195384 0)
(0.0739676 -0.181241 0)
(0.0766795 -0.160177 0)
(0.0780633 -0.136172 0)
(0.0777316 -0.111122 0)
(0.0762526 -0.0865477 0)
(0.0744493 -0.0639321 0)
(0.0728402 -0.0442839 0)
(0.0715584 -0.027986 0)
(0.0704673 -0.01476 0)
(0.069375 -0.00391415 0)
(0.0679922 0.00532283 0)
(0.0664463 0.0135265 0)
(0.0647173 0.021182 0)
(0.0629002 0.0287198 0)
(0.0611981 0.0365068 0)
(0.0599312 0.044864 0)
(0.059978 0.0543241 0)
(0.0611699 0.0649683 0)
(0.0699546 0.0785409 0)
(0.0791033 0.0825999 0)
(0.077292 0.0624939 0)
(0.238655 0.0520499 0)
(-0.558845 0.230574 0)
(1.0113 0.506846 0)
(-0.137357 0.296375 0)
(0.0410745 0.161575 0)
(0.0405569 0.122165 0)
(0.0130383 0.0920598 0)
(0.00861236 0.06545 0)
(0.0140292 0.0414696 0)
(0.0206485 0.0170469 0)
(0.0324625 -0.0109745 0)
(0.0439294 -0.0421119 0)
(0.055798 -0.0768552 0)
(0.0680607 -0.114532 0)
(0.079171 -0.150935 0)
(0.0876368 -0.180369 0)
(0.0928201 -0.198418 0)
(0.0948392 -0.203653 0)
(0.0941087 -0.197091 0)
(0.0911807 -0.181123 0)
(0.0867329 -0.158771 0)
(0.0812147 -0.133344 0)
(0.074914 -0.107279 0)
(0.0684231 -0.0824142 0)
(0.0624562 -0.0601176 0)
(0.0575226 -0.0411244 0)
(0.0538034 -0.0255286 0)
(0.0511893 -0.0128438 0)
(0.0494125 -0.00230844 0)
(0.0480737 0.00676013 0)
(0.0471654 0.0148551 0)
(0.0464688 0.0224148 0)
(0.0459509 0.0297764 0)
(0.0456855 0.0371677 0)
(0.0458471 0.0447207 0)
(0.0469452 0.0525821 0)
(0.0490398 0.0606299 0)
(0.0553703 0.0697606 0)
(0.0640355 0.0714833 0)
(0.0550553 0.0489224 0)
(0.29402 0.07228 0)
(-0.773896 0.299871 0)
(0.779343 0.395782 0)
(0.00072277 0.319529 0)
(0.0933661 0.218948 0)
(0.110576 0.155218 0)
(0.0771413 0.106881 0)
(0.0597658 0.0676053 0)
(0.0581826 0.0358132 0)
(0.0623463 0.00645112 0)
(0.0737799 -0.0234102 0)
(0.0853539 -0.0550209 0)
(0.0975442 -0.089703 0)
(0.10939 -0.126146 0)
(0.118731 -0.159857 0)
(0.123795 -0.185536 0)
(0.123987 -0.199633 0)
(0.119738 -0.201304 0)
(0.112005 -0.191885 0)
(0.101866 -0.173889 0)
(0.0903621 -0.150321 0)
(0.0783375 -0.124204 0)
(0.0664796 -0.0980749 0)
(0.0555164 -0.0738657 0)
(0.046167 -0.0528383 0)
(0.0388865 -0.0354436 0)
(0.0337574 -0.0214792 0)
(0.0305274 -0.0101831 0)
(0.0287358 -0.000669167 0)
(0.027913 0.00767083 0)
(0.0278115 0.0152728 0)
(0.0281039 0.0225031 0)
(0.0286629 0.0295905 0)
(0.029432 0.0366495 0)
(0.0303962 0.0436911 0)
(0.0316783 0.0506668 0)
(0.0330558 0.0573974 0)
(0.0354079 0.0645672 0)
(0.0270362 0.0686763 0)
(0.0220021 0.0809965 0)
(0.133798 0.160096 0)
(-0.650609 0.30399 0)
(0.617284 0.220924 0)
(0.00460615 0.298155 0)
(0.113034 0.241569 0)
(0.148302 0.177583 0)
(0.130866 0.123544 0)
(0.117843 0.077871 0)
(0.114979 0.0389221 0)
(0.117145 0.00341821 0)
(0.123513 -0.0307057 0)
(0.131741 -0.0649876 0)
(0.141421 -0.100435 0)
(0.150276 -0.135228 0)
(0.155369 -0.165023 0)
(0.154776 -0.185526 0)
(0.148188 -0.194449 0)
(0.136506 -0.191804 0)
(0.121204 -0.179309 0)
(0.103793 -0.159498 0)
(0.0856471 -0.135252 0)
(0.067883 -0.109351 0)
(0.0514522 -0.0842653 0)
(0.0372304 -0.061876 0)
(0.0259569 -0.0432816 0)
(0.0178852 -0.0285355 0)
(0.0127662 -0.0170497 0)
(0.0099403 -0.00770561 0)
(0.00868568 0.000419229 0)
(0.00861895 0.00780496 0)
(0.00925264 0.0147959 0)
(0.010343 0.0216465 0)
(0.0117285 0.0285006 0)
(0.0132462 0.0354294 0)
(0.0146796 0.0424281 0)
(0.0158124 0.0494177 0)
(0.0164323 0.0563179 0)
(0.0159871 0.0648255 0)
(-0.00874797 0.0854717 0)
(-0.00247039 0.119722 0)
(0.12054 0.178092 0)
(-0.558663 0.240387 0)
(0.570768 0.118562 0)
(-0.0203023 0.258667 0)
(0.113748 0.229906 0)
(0.165091 0.176086 0)
(0.166748 0.12622 0)
(0.164401 0.0811355 0)
(0.165381 0.0400008 0)
(0.168304 0.0016441 0)
(0.172274 -0.0353846 0)
(0.177858 -0.0718867 0)
(0.184024 -0.107488 0)
(0.18769 -0.139437 0)
(0.185844 -0.163907 0)
(0.177113 -0.178122 0)
(0.161947 -0.181303 0)
(0.141886 -0.174331 0)
(0.118873 -0.159214 0)
(0.0946766 -0.138353 0)
(0.0708984 -0.114437 0)
(0.0487968 -0.0899597 0)
(0.0295602 -0.0672905 0)
(0.014202 -0.0481829 0)
(0.00330751 -0.033378 0)
(-0.00358308 -0.0220631 0)
(-0.00726357 -0.0134786 0)
(-0.00908407 -0.00608429 0)
(-0.00965857 0.000727003 0)
(-0.00923207 0.0072155 0)
(-0.00815834 0.013592 0)
(-0.00654877 0.0200235 0)
(-0.0045561 0.0266491 0)
(-0.00241172 0.0336115 0)
(-0.000520821 0.0410536 0)
(0.000498745 0.0490654 0)
(0.00037597 0.0581356 0)
(-0.00512009 0.0740521 0)
(-0.0369153 0.110794 0)
(-0.0278762 0.148781 0)
(0.0509734 0.183432 0)
(-0.525406 0.179754 0)
(0.628422 0.0537002 0)
(0.00940756 0.197316 0)
(0.113884 0.196983 0)
(0.175177 0.157982 0)
(0.19141 0.117741 0)
(0.198046 0.0773172 0)
(0.203365 0.0372982 0)
(0.208575 -0.00151278 0)
(0.213104 -0.0396809 0)
(0.217443 -0.0765183 0)
(0.219271 -0.109845 0)
(0.215419 -0.13653 0)
(0.204007 -0.154022 0)
(0.185125 -0.161367 0)
(0.160385 -0.159139 0)
(0.13195 -0.148734 0)
(0.10208 -0.132208 0)
(0.072505 -0.111619 0)
(0.0450288 -0.0894732 0)
(0.020915 -0.0679712 0)
(0.00176486 -0.0494182 0)
(-0.0114813 -0.0353788 0)
(-0.0191285 -0.0256691 0)
(-0.0233996 -0.0180757 0)
(-0.0256015 -0.0115052 0)
(-0.0266209 -0.00535338 0)
(-0.0267739 0.0005557 0)
(-0.0261528 0.00631364 0)
(-0.0248749 0.012064 0)
(-0.022938 0.0179817 0)
(-0.0204531 0.0242863 0)
(-0.0176575 0.0312747 0)
(-0.0150499 0.0393501 0)
(-0.0135463 0.0491314 0)
(-0.0137462 0.0622956 0)
(-0.0187113 0.0866005 0)
(-0.046043 0.133803 0)
(-0.0390821 0.179013 0)
(-0.015948 0.173515 0)
(-0.542012 0.088093 0)
(0.472537 0.0747744 0)
(-0.132011 0.137615 0)
(0.0942709 0.133368 0)
(0.172747 0.116882 0)
(0.20383 0.0954192 0)
(0.218089 0.064445 0)
(0.228064 0.0283984 0)
(0.23716 -0.0090043 0)
(0.243591 -0.0453775 0)
(0.245142 -0.0782767 0)
(0.239181 -0.10503 0)
(0.224353 -0.123614 0)
(0.201176 -0.133226 0)
(0.171551 -0.134348 0)
(0.138051 -0.128252 0)
(0.102966 -0.116209 0)
(0.0686424 -0.100083 0)
(0.0363009 -0.0814661 0)
(0.00842331 -0.0628792 0)
(-0.0140972 -0.0463499 0)
(-0.0279389 -0.0352464 0)
(-0.0361224 -0.0274724 0)
(-0.040547 -0.0213898 0)
(-0.0429039 -0.0158321 0)
(-0.0440793 -0.0104186 0)
(-0.0445414 -0.00505427 0)
(-0.0444172 0.000186017 0)
(-0.0436841 0.00527286 0)
(-0.0423086 0.0103195 0)
(-0.0401404 0.0155584 0)
(-0.0372019 0.0213261 0)
(-0.0336422 0.0280937 0)
(-0.0298587 0.0365387 0)
(-0.0266884 0.0477938 0)
(-0.0242996 0.0642047 0)
(-0.0201313 0.0918493 0)
(-0.027371 0.14118 0)
(-0.0215968 0.203138 0)
(0.106125 0.195325 0)
(-0.490015 0.0343313 0)
(0.724088 0.134428 0)
(0.081831 0.115242 0)
(0.149727 0.0992654 0)
(0.222354 0.0805732 0)
(0.243986 0.0700203 0)
(0.248763 0.0477276 0)
(0.255079 0.017546 0)
(0.261235 -0.014787 0)
(0.26032 -0.0448328 0)
(0.249884 -0.0696112 0)
(0.229678 -0.0874168 0)
(0.201266 -0.0978202 0)
(0.167003 -0.101173 0)
(0.12941 -0.0985043 0)
(0.0909828 -0.0911114 0)
(0.0531595 -0.0796768 0)
(0.0187624 -0.0658926 0)
(-0.0126579 -0.0509346 0)
(-0.0345741 -0.0396456 0)
(-0.0488828 -0.0319717 0)
(-0.0570741 -0.0270121 0)
(-0.0616004 -0.0230006 0)
(-0.0639897 -0.0190225 0)
(-0.0651798 -0.0146667 0)
(-0.0656516 -0.00996425 0)
(-0.0656595 -0.00511094 0)
(-0.0652698 -0.000357955 0)
(-0.0644318 0.0041406 0)
(-0.0630912 0.00844576 0)
(-0.0609236 0.0128374 0)
(-0.0578474 0.0177578 0)
(-0.0538635 0.023826 0)
(-0.0490855 0.0319401 0)
(-0.0437742 0.0434516 0)
(-0.0373772 0.060376 0)
(-0.0254359 0.0860679 0)
(-0.0111228 0.127244 0)
(-0.00115933 0.187559 0)
(0.161179 0.185619 0)
(-0.373673 0.089389 0)
(0.191735 0.0880552 0)
(0.225605 0.0998664 0)
(0.246383 0.0702616 0)
(0.242461 0.0399134 0)
(0.2397 0.012162 0)
(0.234758 -0.0129249 0)
(0.220118 -0.033433 0)
(0.196491 -0.0485156 0)
(0.166187 -0.0581535 0)
(0.13162 -0.0628464 0)
(0.0945589 -0.0629406 0)
(0.0569081 -0.0592021 0)
(0.0206607 -0.0525692 0)
(-0.014918 -0.0432696 0)
(-0.042336 -0.0348643 0)
(-0.0627178 -0.028586 0)
(-0.0759222 -0.025199 0)
(-0.0839115 -0.0233855 0)
(-0.0885245 -0.0220042 0)
(-0.0912075 -0.0200803 0)
(-0.0927156 -0.0173211 0)
(-0.0934507 -0.0137637 0)
(-0.0936508 -0.00962859 0)
(-0.0934813 -0.00521968 0)
(-0.0930139 -0.000869555 0)
(-0.0922509 0.00317027 0)
(-0.091262 0.0068437 0)
(-0.0896809 0.0103911 0)
(-0.0873269 0.0143095 0)
(-0.0839463 0.0192776 0)
(-0.079106 0.0261667 0)
(-0.0722348 0.0360381 0)
(-0.0622558 0.0500629 0)
(-0.045744 0.0694542 0)
(-0.019821 0.0964518 0)
(0.0063645 0.142109 0)
(0.182369 0.157423 0)
(-0.345205 0.147849 0)
(0.450856 0.209882 0)
(0.205865 0.178848 0)
(0.152417 0.11882 0)
(0.139471 0.0639792 0)
(0.12826 0.0257424 0)
(0.11438 0.00160241 0)
(0.0990704 -0.0131101 0)
(0.0780702 -0.0221311 0)
(0.0533371 -0.027499 0)
(0.0259836 -0.0296212 0)
(-0.00430586 -0.0283973 0)
(-0.0340588 -0.0248879 0)
(-0.0606069 -0.0206897 0)
(-0.0827587 -0.0173461 0)
(-0.0988643 -0.0163192 0)
(-0.109621 -0.0170385 0)
(-0.116368 -0.0187158 0)
(-0.120733 -0.0200271 0)
(-0.123725 -0.0202841 0)
(-0.125859 -0.0192203 0)
(-0.127359 -0.0168601 0)
(-0.12834 -0.013383 0)
(-0.128877 -0.00909238 0)
(-0.129031 -0.00440915 0)
(-0.128836 0.000130736 0)
(-0.12835 0.00397188 0)
(-0.127804 0.00703695 0)
(-0.126988 0.00972681 0)
(-0.125652 0.0125216 0)
(-0.123364 0.0159226 0)
(-0.119392 0.0204502 0)
(-0.112859 0.0266351 0)
(-0.102686 0.0347428 0)
(-0.0860357 0.0441948 0)
(-0.057135 0.0541824 0)
(-0.0153794 0.0718721 0)
(0.184635 0.123593 0)
(-0.418618 0.215729 0)
(0.358631 -0.417266 0)
(-0.346466 -0.512908 0)
(-0.2185 -0.0271451 0)
(-0.0934852 0.111064 0)
(-0.0539698 0.0925564 0)
(-0.0315567 0.0544424 0)
(-0.0266507 0.0281928 0)
(-0.031515 0.0114316 0)
(-0.0401605 0.000635887 0)
(-0.0506465 -0.00629385 0)
(-0.0643702 -0.0102915 0)
(-0.0800278 -0.0121926 0)
(-0.0965393 -0.0132863 0)
(-0.112466 -0.0151147 0)
(-0.126592 -0.0181062 0)
(-0.137943 -0.0215206 0)
(-0.145861 -0.0244898 0)
(-0.150832 -0.026722 0)
(-0.154187 -0.0282237 0)
(-0.156878 -0.0289719 0)
(-0.159287 -0.0289339 0)
(-0.161504 -0.0280856 0)
(-0.163515 -0.0264657 0)
(-0.165291 -0.0241735 0)
(-0.166821 -0.0213366 0)
(-0.1681 -0.018042 0)
(-0.169027 -0.0142458 0)
(-0.169343 -0.00972132 0)
(-0.168859 -0.00501919 0)
(-0.167697 -0.000643587 0)
(-0.165879 0.0036006 0)
(-0.163261 0.00799616 0)
(-0.159546 0.0128144 0)
(-0.154687 0.0183196 0)
(-0.149119 0.0246044 0)
(-0.142011 0.031562 0)
(-0.126857 0.0413906 0)
(-0.0898338 0.0672869 0)
(-0.0497372 0.130916 0)
(-0.547502 0.224314 0)
(0.122242 -0.186413 0)
(-0.388792 -0.298192 0)
(-0.343754 -0.0962879 0)
(-0.26536 0.0517961 0)
(-0.211663 0.0835794 0)
(-0.179559 0.0745359 0)
(-0.163336 0.0610443 0)
(-0.157372 0.0511734 0)
(-0.157425 0.0462352 0)
(-0.160652 0.046031 0)
(-0.165165 0.0497097 0)
(-0.169482 0.0560418 0)
(-0.172755 0.0636129 0)
(-0.174814 0.070709 0)
(-0.176059 0.0754024 0)
(-0.177088 0.0754019 0)
(-0.178595 0.0695563 0)
(-0.180809 0.0625125 0)
(-0.183802 0.0561697 0)
(-0.187489 0.0511773 0)
(-0.191669 0.0477424 0)
(-0.196041 0.0459314 0)
(-0.200244 0.0456957 0)
(-0.203902 0.0468359 0)
(-0.206705 0.0489351 0)
(-0.20848 0.0512796 0)
(-0.209198 0.0527938 0)
(-0.20882 0.0520633 0)
(-0.207255 0.0497847 0)
(-0.204482 0.0472602 0)
(-0.200556 0.0447242 0)
(-0.195352 0.0422739 0)
(-0.188593 0.0400618 0)
(-0.180344 0.0382212 0)
(-0.171268 0.0363922 0)
(-0.159746 0.033079 0)
(-0.13387 0.0275375 0)
(-0.067247 0.0294816 0)
(0.113808 0.0744223 0)
(-0.569169 0.137694 0)
(1.14907 -0.0111806 0)
(-0.297808 -0.32371 0)
(-0.3536 -0.233271 0)
(-0.353299 -0.148922 0)
(-0.329597 -0.107691 0)
(-0.298132 -0.0992881 0)
(-0.271133 -0.10165 0)
(-0.25166 -0.10751 0)
(-0.238663 -0.115201 0)
(-0.229941 -0.124553 0)
(-0.223453 -0.135782 0)
(-0.217781 -0.148969 0)
(-0.212287 -0.16359 0)
(-0.207053 -0.178222 0)
(-0.202753 -0.190609 0)
(-0.20052 -0.198322 0)
(-0.201553 -0.199671 0)
(-0.206358 -0.197647 0)
(-0.214193 -0.193235 0)
(-0.224032 -0.187049 0)
(-0.23482 -0.179675 0)
(-0.245569 -0.171768 0)
(-0.255399 -0.163947 0)
(-0.263566 -0.156624 0)
(-0.269479 -0.149891 0)
(-0.272741 -0.143521 0)
(-0.273284 -0.137058 0)
(-0.271478 -0.130015 0)
(-0.2682 -0.123079 0)
(-0.264002 -0.11653 0)
(-0.258926 -0.109857 0)
(-0.252794 -0.102699 0)
(-0.245421 -0.0949712 0)
(-0.237376 -0.0868421 0)
(-0.230529 -0.0787921 0)
(-0.224495 -0.0713542 0)
(-0.205567 -0.0623484 0)
(-0.152721 -0.0394029 0)
(-0.138008 0.0139053 0)
(-0.652957 0.0666554 0)
)
;

boundaryField
{
    floor
    {
        type            noSlip;
    }
    ceiling
    {
        type            noSlip;
    }
    sWall
    {
        type            noSlip;
    }
    nWall
    {
        type            noSlip;
    }
    sideWalls
    {
        type            empty;
    }
    glass1
    {
        type            noSlip;
    }
    glass2
    {
        type            noSlip;
    }
    sun
    {
        type            noSlip;
    }
    Table_master
    {
        type            noSlip;
    }
    Table_slave
    {
        type            noSlip;
    }
    inlet
    {
        type            fixedValue;
        value           uniform (0.5 0 0);
    }
    outlet
    {
        type            zeroGradient;
    }
}


// ************************************************************************* //
