/*--------------------------------*- C++ -*----------------------------------*\
  =========                 |
  \\      /  F ield         | OpenFOAM: The Open Source CFD Toolbox
   \\    /   O peration     | Website:  https://openfoam.org
    \\  /    A nd           | Version:  6
     \\/     M anipulation  |
\*---------------------------------------------------------------------------*/
FoamFile
{
    version     2.0;
    format      ascii;
    class       volScalarField;
    location    "5000";
    object      epsilon;
}
// * * * * * * * * * * * * * * * * * * * * * * * * * * * * * * * * * * * * * //

dimensions      [0 2 -3 0 0 0 0];

internalField   nonuniform List<scalar> 
778
(
0.000253145
0.000306393
0.000303047
0.000344227
0.000385091
0.000424889
0.000464314
0.000504556
0.000547351
0.000595417
0.000643801
0.00069213
0.000742061
0.000798392
0.000860154
8.94012e-05
0.000262779
0.000269151
0.000250043
0.000220158
0.000184093
0.000152324
0.000126521
0.000105921
8.94655e-05
7.63162e-05
6.56609e-05
5.68604e-05
4.93899e-05
4.27776e-05
3.65247e-05
3.18209e-05
2.36023e-05
0.000797069
0.00144336
0.000287016
0.0002596
0.00026169
0.000267651
0.000276534
0.000289948
0.00031018
0.000340356
0.000379538
0.000430629
0.000499004
0.000600224
0.000785414
0.00112911
0.000978529
0.000858326
0.000512524
0.000369848
0.00029449
0.000243066
0.000204155
0.000186936
0.000154672
0.000124966
0.000100668
8.14703e-05
6.65155e-05
5.48174e-05
4.56302e-05
3.87087e-05
3.45214e-05
3.27685e-05
6.58274e-05
4.81162e-05
0.00163081
0.00407971
0.000407462
0.000242933
0.000229098
0.000231003
0.000238212
0.00025047
0.000268359
0.000292609
0.000324717
0.000366775
0.000421174
0.000494929
0.000601398
0.000724714
0.000829709
0.0015844
0.00102797
0.000512637
0.000367989
0.0002945
0.000262259
0.000552
0.000362911
0.000250862
0.000181359
0.000136276
0.000105893
8.47586e-05
6.98091e-05
5.94582e-05
4.51382e-05
3.79914e-05
0.000108258
7.08796e-05
0.0028539
0.00877204
0.000710085
0.000240738
0.000202474
0.0002
0.000203165
0.000209783
0.000220588
0.000237491
0.000263169
0.000299913
0.000349148
0.000412335
0.000488092
0.000560327
0.000612336
0.000824039
0.00156425
0.000729154
0.000459915
0.000358359
0.000301939
0.000291818
0.000814422
0.000612963
0.000482112
0.000388593
0.000319144
0.000264308
0.000218738
0.000179
0.000141841
8.38487e-05
5.49305e-05
0.000148802
9.46872e-05
0.00454669
0.0158304
0.00134687
0.000258382
0.000175732
0.000166779
0.000165781
0.000167751
0.000173906
0.000187402
0.000211638
0.00024832
0.000297759
0.000359354
0.000427873
0.000489286
0.000528556
0.000582314
0.000627092
0.000483016
0.000393383
0.00033097
0.000282266
0.000248617
0.00024784
0.000226778
0.000202918
0.000181
0.000162602
0.000146441
0.000131788
0.000118223
0.000105095
8.45328e-05
6.42531e-05
0.000105353
0.000138982
0.000160572
0.00036916
0.000327703
0.00676472
0.0248827
0.0025546
0.000318168
0.000155546
0.000137059
0.000132114
0.000130677
0.000134443
0.000148532
0.00017668
0.000218058
0.000270818
0.000334207
0.000401863
0.000462787
0.000503046
0.000521615
0.00050461
0.000438109
0.000373724
0.000315593
0.000264717
0.000223384
0.000193298
0.000169636
0.000150808
0.000135602
0.000123254
0.000112701
0.000103251
9.45082e-05
8.60885e-05
7.59299e-05
6.53819e-05
7.76742e-05
9.99112e-05
0.000210279
0.00106964
0.00056147
0.00967383
0.033641
0.00458585
0.000465226
0.000150872
0.000116345
0.000107082
0.000103272
0.000107065
0.000127898
0.000166106
0.00021589
0.000273379
0.000340273
0.000409615
0.000470751
0.000510388
0.000520531
0.000494294
0.000437587
0.000371822
0.000307481
0.000250556
0.000204444
0.000169751
0.000144555
0.000126317
0.000112721
0.000102255
9.36787e-05
8.61898e-05
7.93283e-05
7.28034e-05
6.61451e-05
6.03159e-05
6.38152e-05
7.69539e-05
0.000175004
0.00161081
0.000917205
0.0127611
0.0404084
0.00749293
0.000871975
0.000194406
0.000115412
9.7393e-05
9.1452e-05
9.86496e-05
0.000137672
0.000189241
0.00024627
0.000307208
0.000374208
0.000445359
0.000508682
0.000547886
0.000551237
0.000515855
0.000451658
0.000375612
0.000301053
0.000236545
0.000185995
0.000149323
0.000123979
0.000106702
9.45615e-05
8.57206e-05
7.87797e-05
7.28703e-05
6.75157e-05
6.24725e-05
5.76582e-05
5.38969e-05
5.58679e-05
7.11003e-05
0.000353261
0.00534407
0.00203724
0.0138288
0.0414553
0.0139364
0.00316673
0.000631092
0.000208308
0.000132775
0.000116024
0.000142473
0.000192866
0.000249212
0.000306452
0.000367661
0.000437337
0.000512082
0.000576764
0.000611703
0.000603647
0.000552449
0.000471208
0.000378739
0.000291139
0.000218416
0.000164109
0.000126818
0.000102628
8.72952e-05
7.73528e-05
7.06618e-05
6.56498e-05
6.14361e-05
5.75906e-05
5.3941e-05
5.05433e-05
4.82302e-05
5.26675e-05
0.000104644
0.0010649
0.0133515
0.00309181
0.0130044
0.0283636
0.0144166
0.00572966
0.00210654
0.00083584
0.000414301
0.000277153
0.000279171
0.0003146
0.000356057
0.000401873
0.000459207
0.000532097
0.000611543
0.000675429
0.000699669
0.000671154
0.000594168
0.00048709
0.000373117
0.000271131
0.000191463
0.000135949
0.000100786
7.99471e-05
6.80172e-05
6.12301e-05
5.71298e-05
5.41591e-05
5.15777e-05
4.90843e-05
4.66151e-05
4.43675e-05
4.36625e-05
5.65655e-05
0.000278704
0.00369666
0.0100733
0.00318365
0.0106876
0.0193503
0.0120377
0.0063018
0.00317619
0.001676
0.00098759
0.000679558
0.00056034
0.000517464
0.000510529
0.00053191
0.000584879
0.000664711
0.000749678
0.0008068
0.000808194
0.000744443
0.000628372
0.000486652
0.000348335
0.000234265
0.000152972
0.000102075
7.37401e-05
5.89384e-05
5.14823e-05
4.80237e-05
4.62041e-05
4.48626e-05
4.35296e-05
4.2056e-05
4.05094e-05
3.9314e-05
4.07018e-05
6.6962e-05
0.000566494
0.0035117
0.00777052
0.00306903
0.00806898
0.0137648
0.00969006
0.00593333
0.00357017
0.00222798
0.00149123
0.00109347
0.000869581
0.000743752
0.000686262
0.00069118
0.000752696
0.000847716
0.000934983
0.000969945
0.000926261
0.000805438
0.000635229
0.000453103
0.00029414
0.000178242
0.000107386
6.97263e-05
5.26775e-05
4.45351e-05
4.07045e-05
3.92668e-05
3.86609e-05
3.8199e-05
3.76171e-05
3.68897e-05
3.62867e-05
3.66217e-05
4.10143e-05
7.20103e-05
0.000444493
0.00270243
0.00713716
0.00304827
0.00612133
0.010166
0.00778948
0.00531199
0.0035701
0.00246926
0.00178822
0.00136847
0.00109317
0.000926376
0.000860128
0.0008888
0.000986277
0.00110126
0.00117187
0.00115017
0.00102546
0.000820979
0.000586906
0.000370043
0.000209322
0.000115085
7.22262e-05
5.22852e-05
4.29132e-05
3.82583e-05
3.59717e-05
3.50788e-05
3.47405e-05
3.45242e-05
3.43465e-05
3.44425e-05
3.55309e-05
3.93098e-05
5.0765e-05
9.38798e-05
0.000386506
0.002166
0.00546709
0.00369642
0.00618608
0.00780964
0.00680326
0.00473874
0.00336516
0.0024622
0.00186581
0.00146235
0.0011947
0.0010652
0.00107227
0.00118406
0.00133412
0.00144087
0.00143782
0.00129682
0.00104717
0.000741005
0.000457876
0.000239108
0.000131093
8.12587e-05
5.92705e-05
4.86752e-05
4.29441e-05
3.95232e-05
3.73978e-05
3.61263e-05
3.54919e-05
3.51991e-05
3.54581e-05
3.72631e-05
4.31459e-05
5.89594e-05
9.78251e-05
0.000191459
0.000487618
0.00208083
0.00439651
0.00389836
0.00454803
0.00511517
0.00418557
0.00336182
0.00263949
0.00206971
0.00164853
0.00136138
0.00124483
0.00130189
0.00148194
0.00169217
0.00182823
0.00181492
0.00162962
0.00129345
0.000903716
0.000519131
0.000277907
0.00015348
9.96546e-05
7.65064e-05
6.52776e-05
5.86783e-05
5.42127e-05
5.09296e-05
4.83646e-05
4.62867e-05
4.49274e-05
4.45961e-05
4.59086e-05
5.16463e-05
6.89796e-05
0.000113834
0.000216288
0.000430781
0.000900195
0.00217698
0.00477908
0.00354811
0.00139978
0.00142964
0.00143093
0.00135103
0.00130828
0.00142092
0.0017073
0.00204587
0.00231131
0.00240859
0.00228764
0.0019669
0.00151509
0.000971448
0.000561427
0.000307638
0.00018278
0.00012997
0.000108265
9.77244e-05
9.13291e-05
8.68946e-05
8.37264e-05
8.14342e-05
7.95912e-05
7.77414e-05
7.57084e-05
7.55701e-05
7.84024e-05
8.84942e-05
0.00011718
0.000189658
0.000355127
0.000701802
0.00138917
0.00262224
0.00440138
0.0030784
0.00118822
0.00171123
0.00194692
0.0023018
0.00274955
0.00315575
0.00333938
0.00330845
0.00308481
0.00268921
0.002116
0.001492
0.000957076
0.000558627
0.000329437
0.000222475
0.000180126
0.00016351
0.000155697
0.000151113
0.0001484
0.000147417
0.000148222
0.000150648
0.00015409
0.000157438
0.000159279
0.000158711
0.00016174
0.000172984
0.000203397
0.000277415
0.000443384
0.000791643
0.0014901
0.0028314
0.00518124
0.00298558
0.00742318
0.00812597
0.00481867
0.00339656
0.00372359
0.00413225
0.00414354
0.00393359
0.00358072
0.00312884
0.00262004
0.00207111
0.00151582
0.00102514
0.000663539
0.000449104
0.000350277
0.000312415
0.000298377
0.000291511
0.000286321
0.000281689
0.000278161
0.000276828
0.000278825
0.000285034
0.000295815
0.000310615
0.000327527
0.000343258
0.000355012
0.000376951
0.000420978
0.000503082
0.000662366
0.000977638
0.00161828
0.0030151
0.00498178
0.00415864
0.00650371
0.00514413
0.00435818
0.00461222
0.00452866
0.00426024
0.00368007
0.00303485
0.00245107
0.00196033
0.0015581
0.00122945
0.000963862
0.000762905
0.00062776
0.000552505
0.000517963
0.000505311
0.00050279
0.000504272
0.000506959
0.000510204
0.000514879
0.000522951
0.000537145
0.000560642
0.000596747
0.000648369
0.000717102
0.000801845
0.000897105
0.000991014
0.00109315
0.00123051
0.00144816
0.00181962
0.00247951
0.00395606
0.00506531
0.00485606
0.00535516
0.00337272
0.00332404
0.0036261
0.0038914
0.00356297
0.00296865
0.00235666
0.00182565
0.00139172
0.00104624
0.000782322
0.000597906
0.00048702
0.000434806
0.000417751
0.000419204
0.000428991
0.000442003
0.000455988
0.000470355
0.000485733
0.000503832
0.000527402
0.000560234
0.000607058
0.000673034
0.000762601
0.000877998
0.00101849
0.0011815
0.00136581
0.00157639
0.00181437
0.00209013
0.00242145
0.00282078
0.00331465
0.00393484
0.00366348
)
;

boundaryField
{
    floor
    {
        Cmu             0.09;
        kappa           0.41;
        E               9.8;
        type            epsilonWallFunction;
        value           nonuniform List<scalar> 
36
(
0.000860154
8.94012e-05
0.000262779
0.000269151
0.000250043
0.000220158
0.000184093
0.000152324
0.000126521
0.000105921
8.94655e-05
7.63162e-05
6.56609e-05
5.68604e-05
4.93899e-05
4.27776e-05
3.65247e-05
3.18209e-05
2.36023e-05
2.36023e-05
4.81162e-05
7.08796e-05
9.46872e-05
0.000160572
0.00036916
0.000327703
0.000860154
0.00112911
0.000978529
0.000858326
8.94012e-05
0.000858326
0.000512524
0.0015844
0.00102797
0.00156425
)
;
    }
    ceiling
    {
        Cmu             0.09;
        kappa           0.41;
        E               9.8;
        type            epsilonWallFunction;
        value           nonuniform List<scalar> 
43
(
0.00535516
0.00337272
0.00332404
0.0036261
0.0038914
0.00356297
0.00296865
0.00235666
0.00182565
0.00139172
0.00104624
0.000782322
0.000597906
0.00048702
0.000434806
0.000417751
0.000419204
0.000428991
0.000442003
0.000455988
0.000470355
0.000485733
0.000503832
0.000527402
0.000560234
0.000607058
0.000673034
0.000762601
0.000877998
0.00101849
0.0011815
0.00136581
0.00157639
0.00181437
0.00209013
0.00242145
0.00282078
0.00331465
0.00393484
0.00366348
0.00454803
0.00511517
0.00118822
)
;
    }
    sWall
    {
        Cmu             0.09;
        kappa           0.41;
        E               9.8;
        type            epsilonWallFunction;
        value           nonuniform List<scalar> 9(0.0130044 0.0106876 0.00806898 0.00612133 0.00618608 0.00454803 0.00742318 0.00650371 0.00535516);
    }
    nWall
    {
        Cmu             0.09;
        kappa           0.41;
        E               9.8;
        type            epsilonWallFunction;
        value           nonuniform List<scalar> 
14
(
0.000327703
0.00056147
0.000917205
0.00318365
0.00306903
0.00304827
0.00369642
0.00389836
0.00354811
0.0030784
0.00298558
0.00415864
0.00485606
0.00366348
)
;
    }
    sideWalls
    {
        type            empty;
    }
    glass1
    {
        Cmu             0.09;
        kappa           0.41;
        E               9.8;
        type            epsilonWallFunction;
        value           nonuniform List<scalar> 9(0.000253145 0.000797069 0.00163081 0.0028539 0.00454669 0.00676472 0.00967383 0.0127611 0.0138288);
    }
    glass2
    {
        Cmu             0.09;
        kappa           0.41;
        E               9.8;
        type            epsilonWallFunction;
        value           nonuniform List<scalar> 2(0.00203724 0.00309181);
    }
    sun
    {
        Cmu             0.09;
        kappa           0.41;
        E               9.8;
        type            epsilonWallFunction;
        value           nonuniform List<scalar> 
14
(
0.000253145
0.000306393
0.000303047
0.000344227
0.000385091
0.000424889
0.000464314
0.000504556
0.000547351
0.000595417
0.000643801
0.00069213
0.000742061
0.000798392
)
;
    }
    Table_master
    {
        Cmu             0.09;
        kappa           0.41;
        E               9.8;
        type            epsilonWallFunction;
        value           nonuniform List<scalar> 9(0.000552 0.000362911 0.000250862 0.000181359 0.000136276 0.000105893 8.47586e-05 6.98091e-05 5.94582e-05);
    }
    Table_slave
    {
        Cmu             0.09;
        kappa           0.41;
        E               9.8;
        type            epsilonWallFunction;
        value           nonuniform List<scalar> 9(0.000814422 0.000612963 0.000482112 0.000388593 0.000319144 0.000264308 0.000218738 0.000179 0.000141841);
    }
    inlet
    {
        type            turbulentMixingLengthDissipationRateInlet;
        mixingLength    0.01;
        phi             phi;
        k               k;
        value           uniform 0.000471671;
    }
    outlet
    {
        type            zeroGradient;
    }
}


// ************************************************************************* //
