/*--------------------------------*- C++ -*----------------------------------*\
  =========                 |
  \\      /  F ield         | OpenFOAM: The Open Source CFD Toolbox
   \\    /   O peration     | Website:  https://openfoam.org
    \\  /    A nd           | Version:  6
     \\/     M anipulation  |
\*---------------------------------------------------------------------------*/
FoamFile
{
    version     2.0;
    format      ascii;
    class       volScalarField;
    location    "5000";
    object      k;
}
// * * * * * * * * * * * * * * * * * * * * * * * * * * * * * * * * * * * * * //

dimensions      [0 2 -2 0 0 0 0];

internalField   nonuniform List<scalar> 
662
(
0.00196468
0.00229323
0.00237456
0.00260346
0.00282606
0.00304516
0.00327005
0.00351417
0.00377064
0.00401799
0.00422125
0.00430453
0.00415179
0.00364259
0.00241697
0.000481866
0.000663671
0.000851305
0.00091663
0.000881514
0.000768422
0.000654004
0.000559828
0.000484366
0.000423378
0.000373569
0.000332569
0.00029828
0.000268739
0.000242207
0.000217059
0.00020346
0.000172426
0.00366276
0.00675575
0.00335545
0.00351204
0.00376902
0.00405718
0.0043819
0.0047614
0.00523631
0.00582638
0.00645667
0.00695481
0.00708736
0.00672401
0.00579847
0.003513
0.00238203
0.00157739
0.000477261
0.00103774
0.00137892
0.00153268
0.0015362
0.00130678
0.00105892
0.000859273
0.000707401
0.000591338
0.000501371
0.00042993
0.000371402
0.000322784
0.000287672
0.000267891
0.000512867
0.000302573
0.00564805
0.013243
0.0040383
0.003683
0.00380382
0.0039611
0.0041365
0.00438851
0.00478349
0.00534857
0.00604317
0.00676474
0.00723427
0.00715335
0.00641489
0.00532057
0.00434922
0.002265
0.00117693
0.0015151
0.00171555
0.00183311
0.00181052
0.00140784
0.00107413
0.000831726
0.000658408
0.000533439
0.000441911
0.000373881
0.000323046
0.000285993
0.000264841
0.000267937
0.000816772
0.000425209
0.00812915
0.0229816
0.00549182
0.00368709
0.00360271
0.00362558
0.00364339
0.00377839
0.00413036
0.00464756
0.00533521
0.00622857
0.00694328
0.0069952
0.00649181
0.00581599
0.00511186
0.00390601
0.00305813
0.00273353
0.00256582
0.0025055
0.00243424
0.00227122
0.00178838
0.00148728
0.00129553
0.00116144
0.0010543
0.000955869
0.00086715
0.000778871
0.000682756
0.000518214
0.000416571
0.00120329
0.000562261
0.0110609
0.0331176
0.00961015
0.00423204
0.00366889
0.00354355
0.00345314
0.00358418
0.00400731
0.00446616
0.00510255
0.00611614
0.00689655
0.00686822
0.00628336
0.00553812
0.00486356
0.00428831
0.00409018
0.00375129
0.00349827
0.00328523
0.00303905
0.00273331
0.00240879
0.00218285
0.00203876
0.00192404
0.0018055
0.00166237
0.00148303
0.0012827
0.00107273
0.00084389
0.000650517
0.000953307
0.00113354
0.00101707
0.00112741
0.00132628
0.0149106
0.0452855
0.0191008
0.00792272
0.00538531
0.00448069
0.00410839
0.00424755
0.00459654
0.0048724
0.00542436
0.00643461
0.00723781
0.00701113
0.00615035
0.00514042
0.00438457
0.00406406
0.0040693
0.00409287
0.00398603
0.00372854
0.00336861
0.00297388
0.00264929
0.00246467
0.00236319
0.00228058
0.00218311
0.00204941
0.00185415
0.00161997
0.00137054
0.00112001
0.00092119
0.000909125
0.00107707
0.00110664
0.00170905
0.0014271
0.0131776
0.0261881
0.0254118
0.0170214
0.011025
0.00780257
0.00631757
0.0058632
0.00572229
0.0055588
0.00583893
0.00685195
0.00801195
0.00736978
0.00615242
0.00489073
0.00410856
0.00397187
0.00415111
0.00423088
0.00407695
0.00373848
0.00332113
0.00292466
0.00264484
0.00251376
0.00246748
0.00244714
0.00242507
0.00238229
0.00229072
0.002106
0.00187643
0.00163276
0.00144652
0.00136792
0.00146288
0.00167875
0.00226231
0.00197603
0.00819979
0.0140167
0.0156795
0.0157682
0.014476
0.0121799
0.00997628
0.00830099
0.00700889
0.00643511
0.00702186
0.00830878
0.0088322
0.00763156
0.00598606
0.00456547
0.00391083
0.00388738
0.00399985
0.00395302
0.00369732
0.00332269
0.0029411
0.0026378
0.00246111
0.00240392
0.00242159
0.00248239
0.00257595
0.00270088
0.00285551
0.00300814
0.00307303
0.00311261
0.00327474
0.00382594
0.00494491
0.00651741
0.0133654
0.00459002
0.00160314
0.00646613
0.00848283
0.00890626
0.00838141
0.00754336
0.00707774
0.00774503
0.00932727
0.0103134
0.00908587
0.00715857
0.00510035
0.00402603
0.0036314
0.00354382
0.00347998
0.00330293
0.00301346
0.00268911
0.00241029
0.00222563
0.00214371
0.00214337
0.0021986
0.002296
0.00243346
0.00261375
0.00284035
0.00311405
0.00345129
0.00387888
0.00444598
0.00512689
0.00578309
0.00624378
0.00647613
0.00403394
0.00307328
0.00302225
0.00484177
0.00635617
0.00730975
0.00824056
0.00979302
0.011537
0.0121026
0.0108095
0.00732677
0.00551313
0.00422921
0.00357528
0.00326923
0.00310101
0.00293386
0.00271611
0.0024638
0.00222349
0.00204125
0.00193246
0.00188863
0.00189403
0.00193704
0.0020137
0.00212656
0.00228372
0.00249957
0.00279447
0.00317562
0.0036473
0.00420554
0.00479471
0.00530461
0.00562448
0.00519476
0.00275499
0.0090555
0.0153335
0.00540027
0.00548536
0.00755419
0.00959124
0.0114376
0.0129516
0.01337
0.0123192
0.00995949
0.00681811
0.00398148
0.00353478
0.00323269
0.00305728
0.00293395
0.00280284
0.00263817
0.00244597
0.00224979
0.00207286
0.0019364
0.0018454
0.0017972
0.00178937
0.00182206
0.00189753
0.00201912
0.00219063
0.00242345
0.00272902
0.00311656
0.00359021
0.0041346
0.0047009
0.00526445
0.00621025
0.00366524
0.0029558
0.00536343
0.00887068
0.0101078
0.0123703
0.0135819
0.0136265
0.0126857
0.0107969
0.00832883
0.00595265
0.00392665
0.00246962
0.00143445
0.00135679
0.00128425
0.00121867
0.00115744
0.00109621
0.0010362
0.00098416
0.000947551
0.000931214
0.000932569
0.000949823
0.000981684
0.0010277
0.00108837
0.00116521
0.0012612
0.00138178
0.00152967
0.00170743
0.00191923
0.00216928
0.00246021
0.00279666
0.00299746
0.00246891
0.00216384
0.00278905
0.0174247
0.0314216
0.0217479
0.0137086
0.00912655
0.00687164
0.00596727
0.00580991
0.00563674
0.00561083
0.00627922
0.00743549
0.0128509
0.0154284
0.0158152
0.0153228
0.0133747
0.0110168
0.00909297
0.00759405
0.00659765
0.00657875
0.00765789
0.00878016
0.00476766
0.00771096
0.00885447
0.00872081
0.00796435
0.00721271
0.00724297
0.00850282
0.00999024
0.0102336
0.002308
0.00391865
0.00567504
0.00688358
0.00772536
0.00892416
0.0107294
0.012039
0.0116702
0.00977789
0.0263446
0.0105147
0.00476196
0.00656815
0.00855487
0.0105293
0.0122745
0.0133448
0.0129974
0.0113337
0.00839077
0.00552852
0.0141281
0.00936004
0.0113323
0.0131538
0.0137273
0.013278
0.0118498
0.00959075
0.007103
0.00488606
0.00311258
0.00197425
0.0143478
0.0183477
0.0206366
0.0185755
0.0147338
0.0111183
0.00871
0.00737338
0.00651336
0.00601698
0.0063393
0.00747913
0.00914564
0.0110193
0.0115931
0.0118837
0.0119353
0.0110084
0.00957617
0.00818081
0.00707448
0.00690265
0.00798342
0.00929996
0.00299107
0.00362764
0.0058848
0.00711613
0.00739405
0.00730278
0.00777324
0.00935517
0.0109193
0.0109877
0.00189407
0.00351449
0.00532918
0.00706014
0.00873283
0.0106634
0.0124326
0.0129588
0.0119313
0.00935491
0.00922601
0.0128697
0.00804131
0.00892081
0.0109284
0.0123429
0.0131204
0.0129921
0.0116945
0.00964771
0.0069771
0.00444798
0.00771366
0.00640375
0.00719832
0.0077585
0.00763352
0.00688966
0.00572532
0.00436516
0.00312123
0.00215661
0.00147322
0.00125788
0.0156335
0.0208831
0.0199809
0.0167583
0.0127953
0.00974662
0.00795139
0.00690743
0.00619782
0.00604899
0.00685746
0.00803509
0.00950306
0.0113579
0.0116647
0.0120321
0.0115753
0.0103148
0.00885522
0.00755878
0.00682719
0.00731787
0.00871475
0.00955233
0.00243895
0.0048517
0.00664262
0.00734402
0.007348
0.00739241
0.00846266
0.0102499
0.0111851
0.0103629
0.00229112
0.00443577
0.00620705
0.00788862
0.00965242
0.0116812
0.0128666
0.0126645
0.0107787
0.00797395
0.0234091
0.0104887
0.00806805
0.0100289
0.0116932
0.0128177
0.0131967
0.0124771
0.0107389
0.00838965
0.0055834
0.00382531
0.00608104
0.00684805
0.00750787
0.00779239
0.0073239
0.006349
0.00505047
0.0037115
0.0026052
0.00177254
0.00129472
0.0013179
)
;

boundaryField
{
    floor
    {
        type            kqRWallFunction;
        value           nonuniform List<scalar> 
36
(
0.00241697
0.000481866
0.000663671
0.000851305
0.00091663
0.000881514
0.000768422
0.000654004
0.000559828
0.000484366
0.000423378
0.000373569
0.000332569
0.00029828
0.000268739
0.000242207
0.000217059
0.00020346
0.000172426
0.000172426
0.000302573
0.000425209
0.000562261
0.00101707
0.00112741
0.00132628
0.00241697
0.003513
0.00238203
0.00157739
0.000481866
0.00157739
0.000477261
0.002265
0.00117693
0.00305813
)
;
    }
    ceiling
    {
        type            kqRWallFunction;
        value           nonuniform List<scalar> 
58
(
0.00608104
0.00684805
0.00750787
0.00779239
0.0073239
0.006349
0.00505047
0.0037115
0.0026052
0.00177254
0.00129472
0.0013179
0.00143445
0.00135679
0.00128425
0.00121867
0.00115744
0.00109621
0.0010362
0.00098416
0.000947551
0.000931214
0.000932569
0.000949823
0.000981684
0.0010277
0.00108837
0.00116521
0.0012612
0.00138178
0.00152967
0.00170743
0.00191923
0.00216928
0.00246021
0.00279666
0.00299746
0.00246891
0.00216384
0.00278905
0.00950306
0.0113579
0.00189407
0.00536343
0.00640375
0.00719832
0.0077585
0.00763352
0.00688966
0.00572532
0.00436516
0.00312123
0.00215661
0.00147322
0.00125788
0.00819979
0.0110193
0.00307328
)
;
    }
    sWall
    {
        type            kqRWallFunction;
        value           nonuniform List<scalar> 4(0.00922601 0.00771366 0.0090555 0.00536343);
    }
    nWall
    {
        type            kqRWallFunction;
        value           nonuniform List<scalar> 6(0.00132628 0.0014271 0.00197603 0.00275499 0.0029558 0.00278905);
    }
    sideWalls
    {
        type            empty;
    }
    glass1
    {
        type            kqRWallFunction;
        value           nonuniform List<scalar> 10(0.00196468 0.00366276 0.00564805 0.00812915 0.0110609 0.0149106 0.0143478 0.00914564 0.0131776 0.00819979);
    }
    glass2
    {
        type            kqRWallFunction;
        value           nonuniform List<scalar> 2(0.00459002 0.00403394);
    }
    sun
    {
        type            kqRWallFunction;
        value           nonuniform List<scalar> 
14
(
0.00196468
0.00229323
0.00237456
0.00260346
0.00282606
0.00304516
0.00327005
0.00351417
0.00377064
0.00401799
0.00422125
0.00430453
0.00415179
0.00364259
)
;
    }
    Table_master
    {
        type            kqRWallFunction;
        value           nonuniform List<scalar> 9(0.00140784 0.00107413 0.000831726 0.000658408 0.000533439 0.000441911 0.000373881 0.000323046 0.000285993);
    }
    Table_slave
    {
        type            kqRWallFunction;
        value           nonuniform List<scalar> 9(0.00178838 0.00148728 0.00129553 0.00116144 0.0010543 0.000955869 0.00086715 0.000778871 0.000682756);
    }
    inlet
    {
        type            turbulentIntensityKineticEnergyInlet;
        intensity       0.05;
        value           uniform 0.0009375;
    }
    outlet
    {
        type            zeroGradient;
    }
}


// ************************************************************************* //
