/*--------------------------------*- C++ -*----------------------------------*=========                 |
  \      /  F ield         | OpenFOAM: The Open Source CFD Toolbox
   \    /   O peration     | Website:  https://openfoam.org
    \  /    A nd           | Version:  6
     \/     M anipulation  |
\*---------------------------------------------------------------------------*/
FoamFile
{
    version     2.0;
    format      ascii;
    class       volScalarField;
    location    "240";
    object      PMV;
}
// * * * * * * * * * * * * * * * * * * * * * * * * * * * * * * * * * * * * * //

dimensions      [0 0 0 0 0 0 0];

internalField   nonuniform List<scalar> 
458
(
1.3066553890207628
1.0585242664646386
1.0230518186767494
0.994623485673803
0.9778235606974012
0.972872082475207
0.9799035325454053
1.0013366865292137
1.0409596960917906
1.1030239764013487
1.1839172063583001
1.2307198620527289
1.2417091546127732
1.2488758764266403
1.2593867612765102
1.4127001222921942
1.3969439138409845
1.3921690519660708
1.4007637194107874
1.40840310354839
1.4141324400510136
1.4067212697327298
1.4032424326828934
1.4047563584714784
1.4082346627632205
1.4118792255296115
1.416701172959228
1.4226436915752974
1.4306974800356276
1.4435902191128007
1.4644236010548206
1.4747566369218499
1.4928918657555903
1.2351199444141718
1.072243728445733
1.0577519873233605
1.0304388098140742
1.014923832630657
1.0090972525504673
1.013867488460535
1.0250555699978203
1.0443609773893854
1.076137631257016
1.1274223031365547
1.2102794061026882
1.2431425123093363
1.2512647463132502
1.2090816079301463
1.182677352948512
1.2001163400400252
1.2382608573206022
1.3820539279007007
1.3787988304097496
1.3787988304097496
1.389781577733811
1.3901496828753324
1.3929809504594015
1.3954021434133246
1.398636506585812
1.4015221608354214
1.4040486336544984
1.4067689604040825
1.4102463232832436
1.4140758378076268
1.4199187709910437
1.43116529870272
1.449936710200545
1.460915212801002
1.4573222731450892
1.2604194785893619
1.0652324680180152
1.093155509082462
1.080364417494612
1.0750302511167666
1.0724056611748223
1.073501679353357
1.063523715253914
1.044380857765597
1.037949834001316
1.0688862307534004
1.1479035613120356
1.2341300040887193
1.2632088084453719
1.2471662565707624
1.2319958685642056
1.2347622752928482
1.2375371838447256
1.281780908608353
1.3247622603594151
1.3294263641931412
1.3434089024973592
1.3611115353965186
1.368163224697294
1.393679394824299
1.4135834309168334
1.4203390229617538
1.4232035292508574
1.4260679906008569
1.4298872019312001
1.4332289452220779
1.4370480035695732
1.4435086524816119
1.4504140512148038
1.4487272779167877
1.3869582243673968
1.330257991044354
1.0604986086180825
1.119464714254446
1.1360781293985023
1.1569324896556419
1.1685465282733416
1.163785755726244
1.113759597443009
1.0436829907045506
1.0024480946608947
1.0248695152244356
1.1065878854631523
1.2021263497575627
1.2740129222173222
1.2825724733757942
1.25789523186364
1.2217071707488525
1.1962585921393798
1.1613853902695706
1.2241970176963994
1.2687631561000314
1.3077955806319215
1.352148789012031
1.3991114768830701
1.4352579953591207
1.4388847540763168
1.4427313909423813
1.4502102890063087
1.4594057885590155
1.470920418935182
1.4855183410950596
1.504986149781767
1.5347047354412735
1.52056780432558
1.4924146498508248
1.437916538111353
1.3457279092874364
1.4208728502390058
1.0709194385449698
1.1397620461920963
1.1870973649283723
1.2531732416091428
1.3042371900121086
1.271972425757515
1.155438106631841
1.0377923303264507
0.9731571776591897
0.9947712698649778
1.0808904468578346
1.190402280598712
1.284692518282111
1.315278899342636
1.3036120212711804
1.2625231069590042
1.2352813959841942
1.2409270120245603
1.2651663289585942
1.3078944459543884
1.362185693063867
1.4198622478056329
1.474742822054146
1.519704682792955
1.5409520438026478
1.5534139053569935
1.5635297290099641
1.570745949636569
1.5747409921001256
1.5769744620830664
1.578644813375235
1.5775440658836688
1.5534895763175054
1.51361760016505
1.4320683106225933
1.4210393754825024
1.4475340465989626
1.5418677660459794
1.4230460723937348
1.5164487779990874
1.102310091248552
1.1758606721162788
1.2255379935622133
1.333407433243453
1.3902590748757875
1.3106706940308124
1.1546944013044973
1.0187868015926649
0.9495709008767187
0.9744657009170334
1.0742508854759958
1.2043860075122867
1.3235707363987208
1.3568315885752984
1.3553988639435857
1.3496678719416129
1.330121470928075
1.3408870423070753
1.3734012670661417
1.4222331816418612
1.479485527832919
1.5282016270754022
1.5625486464556622
1.5897323094217164
1.609282820183207
1.623586041367554
1.633597243302486
1.6388408529882557
1.6388408529882557
1.6350273429466802
1.6273999361182023
1.6154810972187414
1.5824132428916668
1.534648308214268
1.4551099069869513
1.4400149797436916
1.4424498768987988
1.47139497238368
1.484621132938394
1.6100465869387166
1.1917305045535138
1.3036906272157318
1.2973660070117359
1.3667670494582413
1.370405259383876
1.2614298359867795
1.1122859266136151
0.9752119292642756
0.9164787622019209
0.9650330004736684
1.0943799690588143
1.2570899366854174
1.3893040794470257
1.4136550020158523
1.4155647468316224
1.4127001222921942
1.4208164437835844
1.4470726361508675
1.4847789956317237
1.5262932095944486
1.5663644403375478
1.6016537280142031
1.6293068358497038
1.649803965049797
1.6636254462346385
1.6722033937348242
1.6774451258675387
1.6783981395162784
1.6750625532290877
1.6664848397839143
1.6560000209864016
1.6417009000782694
1.621679046600814
1.5747867837692093
1.5043702555364353
1.4680347282896495
1.4470629323410849
1.4230260128836552
1.52430956270459
1.7502520046809704
1.5585882384146192
1.505430462084106
1.3992067349322734
1.3741021193017828
1.322010893855511
1.1863210277676937
1.0113587624999045
0.8859891025313904
0.8713154583237589
0.9797510710763234
1.1634614454465422
1.374535746140353
1.4618698312179532
1.4871651777839707
1.4905057714791208
1.4943235045918044
1.5095934790903125
1.5401286506928387
1.5773328174549022
1.6121436038727681
1.643130896006128
1.6674379537526829
1.6850689868810393
1.6965037017344244
1.703173345038407
1.7055552506158556
1.7050788741537157
1.7022205665516839
1.6965037017344244
1.6884042464914526
1.6769686157374863
1.6636254462346385
1.64599083235464
1.6259697404408373
1.6040378714650128
1.5916398142566868
1.566897186255317
1.4925582355200122
1.4051880167394442
1.9592055286901167
1.818981742697007
1.6640380411778637
1.5309536530685173
1.4363565165289192
1.2525805321171501
0.9800532759545708
0.781169622907046
0.7360115878445497
0.844516184498875
1.0749134060452004
1.340821160134402
1.4952779230677915
1.547761407326413
1.565887472191239
1.5714113727149812
1.5844865200492237
1.6040378714650128
1.6312137036497079
1.6598128016247158
1.6836395563030668
1.6961145379906295
1.7005579013502579
1.7016983672237525
1.7001021925350783
1.6959313616308855
1.6895423186406524
1.6811010431177051
1.6695951491178596
1.6563662691517664
1.6411323058375433
1.6237508084336245
1.6068802850523438
1.587117378499521
1.5658389169006275
1.547423445204386
1.536014773988875
1.532252111035616
1.5231387504252993
1.49621449680856
-1.8205926318519448
-1.0520835491628695
-0.632941571821935
-0.41137005989265024
-0.11323274093178096
0.2576878483773106
0.6511872547926106
1.0440893837255873
1.3678154949354064
1.5225957328164341
1.556698052235643
1.5739133048437315
1.5852968441138084
1.5980940202623868
1.6153244886520508
1.6364934806840572
1.6574844090415095
1.675036425694963
1.6857407881760589
1.6901017226849873
1.6897957647142574
1.686305354029924
1.6802737221459554
1.6732708299660133
1.664420261420571
1.655544482748464
1.646303945440798
1.6375468647726599
1.629640222658458
1.622514510289428
1.6171791341847883
1.6118751465383812
1.6084004829192626
1.6079344824669317
1.6188774148857548
1.6575972172806326
1.7381823373374088
1.594424986817995
-1.810460470113276
-0.7659288693471527
-0.10762451101769085
0.28786243688806756
0.6753080615700482
1.0615416700785436
1.3154126088603704
1.4283219730547967
1.513413317553259
1.5621142786018378
1.5884811666354501
1.6057650107898147
1.619482105910833
1.6327520916340352
1.646982400454578
1.6609918398350743
1.6734535106194992
1.682222760765351
1.6864395285807978
1.687885749290358
1.6863691032114947
1.683623073653926
1.6797968696051109
1.6751126784982318
1.6700660357894481
1.6652471640252573
1.660368213055112
1.655868743746635
1.6531601506744655
1.652751723245906
1.6561311554394356
1.6638005366944006
1.6732076594107659
1.6809740259199046
1.691643338385296
1.7301562213452368
1.6763770643932163
1.6317937241015223
-1.0649555284949261
-1.0706411621811063
-0.9474523375601854
-0.05894721162505435
0.618368373029028
1.0846541594125887
1.3386416790362137
1.4569575763241298
1.5273415603121043
1.573660064749235
1.6061302928823853
1.6281970404180763
1.6445428767383048
1.6569509057915264
1.6672263857676701
1.6765900503361344
1.6839245165796723
1.6893197886191131
1.6923230049639877
1.6913650540830119
1.6874393156132907
1.681866744901071
1.6758944530160282
1.6704517882581735
1.6652569130808565
1.661173861006106
1.6573364229330338
1.655025722408648
1.6541736011914001
1.6553651205061486
1.6594532989150834
1.6685158235393487
1.6868817364327184
1.7235941692634678
1.7493716204153293
1.7531807488821949
1.7215245187202977
1.6775098619553666
1.6376107868645315
1.6497073159941824
)
;

boundaryField
{
    ".*"
    {
        type            zeroGradient;
    }
}


// ************************************************************************* //
