/*--------------------------------*- C++ -*----------------------------------*\
  =========                 |
  \\      /  F ield         | OpenFOAM: The Open Source CFD Toolbox
   \\    /   O peration     | Website:  https://openfoam.org
    \\  /    A nd           | Version:  6
     \\/     M anipulation  |
\*---------------------------------------------------------------------------*/
FoamFile
{
    version     2.0;
    format      ascii;
    class       volScalarField;
    location    "240";
    object      T;
}
// * * * * * * * * * * * * * * * * * * * * * * * * * * * * * * * * * * * * * //

dimensions      [0 0 0 1 0 0 0];

internalField   nonuniform List<scalar> 
458
(
301.817
301.527
301.513
301.509
301.505
301.502
301.497
301.491
301.485
301.484
301.495
301.534
301.557
301.572
301.594
301.915
301.882
301.872
301.89
301.906
301.918
301.929
301.939
301.949
301.96
301.97
301.981
301.992
302.003
302.015
302.028
302.045
302.083
302.003
301.555
301.526
301.525
301.524
301.521
301.515
301.499
301.477
301.463
301.478
301.523
301.56
301.577
301.588
301.597
301.608
301.633
301.924
301.844
301.844
301.867
301.892
301.903
301.911
301.918
301.925
301.932
301.939
301.947
301.955
301.965
301.977
301.993
302.016
302.07
302.204
301.6
301.556
301.563
301.573
301.577
301.572
301.539
301.485
301.447
301.46
301.521
301.575
301.602
301.609
301.613
301.617
301.632
301.861
301.82
301.831
301.871
301.914
301.917
301.921
301.925
301.931
301.937
301.943
301.951
301.958
301.966
301.98
301.994
302.015
302.07
302.413
301.661
301.593
301.613
301.644
301.667
301.666
301.604
301.503
301.431
301.442
301.519
301.595
301.638
301.65
301.648
301.643
301.641
301.654
301.688
301.751
301.829
301.908
301.976
302.03
302.067
302.098
302.123
302.144
302.163
302.18
302.194
302.205
302.141
302.082
302.052
302.081
302.622
301.742
301.634
301.659
301.715
301.772
301.78
301.677
301.521
301.415
301.425
301.517
301.622
301.689
301.711
301.706
301.694
301.687
301.708
301.757
301.835
301.925
302.014
302.09
302.154
302.201
302.236
302.263
302.282
302.292
302.294
302.29
302.277
302.23
302.16
302.1
302.094
302.265
302.368
302.363
302.816
301.847
301.696
301.7
301.766
301.868
301.872
301.719
301.521
301.398
301.409
301.524
301.664
301.761
301.798
301.795
301.783
301.783
301.82
301.89
301.978
302.071
302.157
302.229
302.286
302.327
302.357
302.378
302.389
302.389
302.381
302.365
302.34
302.296
302.23
302.161
302.129
302.204
302.249
302.304
302.991
302.022
301.848
301.818
301.863
301.96
301.914
301.71
301.478
301.353
301.392
301.55
301.737
301.866
301.917
301.921
301.915
301.932
301.987
302.066
302.153
302.237
302.311
302.369
302.412
302.441
302.459
302.47
302.472
302.465
302.447
302.425
302.395
302.353
302.297
302.233
302.192
302.206
302.229
302.266
303.242
302.518
302.308
302.185
302.151
302.128
301.915
301.598
301.343
301.264
301.385
301.619
301.864
302.018
302.071
302.078
302.086
302.118
302.182
302.26
302.333
302.398
302.449
302.486
302.51
302.524
302.529
302.528
302.522
302.51
302.493
302.469
302.441
302.404
302.362
302.316
302.29
302.3
302.327
302.49
303.602
303.259
302.98
302.73
302.54
302.175
301.634
301.21
301.047
301.147
301.45
301.79
302.088
302.198
302.236
302.251
302.275
302.316
302.373
302.433
302.483
302.523
302.551
302.568
302.575
302.574
302.568
302.559
302.546
302.533
302.521
302.51
302.503
302.501
302.51
302.533
302.571
302.613
302.644
302.718
296.066
297.695
298.471
298.832
299.338
299.965
300.604
301.206
301.821
302.167
302.315
302.371
302.398
302.421
302.45
302.487
302.527
302.565
302.593
302.61
302.618
302.619
302.614
302.607
302.597
302.588
302.579
302.571
302.564
302.558
302.557
302.56
302.573
302.595
302.628
302.666
302.706
302.749
296.375
297.85
298.732
299.561
300.372
301.18
301.724
302.093
302.323
302.437
302.491
302.522
302.545
302.567
302.591
302.615
302.637
302.653
302.661
302.664
302.661
302.655
302.647
302.638
302.629
302.621
302.613
302.605
302.599
302.594
302.591
302.592
302.6
302.614
302.636
302.669
302.683
302.727
298.254
298.213
298.209
299.692
300.768
301.616
302.1
302.329
302.465
302.549
302.603
302.636
302.659
302.676
302.69
302.703
302.713
302.721
302.727
302.728
302.725
302.719
302.711
302.702
302.692
302.683
302.673
302.664
302.655
302.646
302.638
302.631
302.625
302.622
302.621
302.629
302.641
302.655
302.666
302.714
)
;

boundaryField
{
    floor
    {
        type            wallHeatTransfer;
        Tinf            uniform 305.2;
        alphaWall       uniform 0.24;
        value           nonuniform List<scalar> 
36
(
301.978
302.476
302.39
302.333
302.329
302.347
302.378
302.414
302.449
302.482
302.515
302.546
302.577
302.606
302.635
302.665
302.697
302.729
302.797
302.797
302.698
302.644
302.61
302.675
302.748
302.721
301.978
301.926
301.973
302.047
302.476
302.047
302.492
302.011
302.326
302.007
)
;
    }
    ceiling
    {
        type            wallHeatTransfer;
        Tinf            uniform 303.2;
        alphaWall       uniform 0.24;
        value           nonuniform List<scalar> 
43
(
298.539
298.495
298.487
299.87
300.903
301.718
302.182
302.4
302.531
302.611
302.664
302.697
302.72
302.736
302.75
302.762
302.773
302.782
302.788
302.791
302.791
302.787
302.78
302.772
302.763
302.753
302.744
302.734
302.724
302.714
302.704
302.695
302.687
302.681
302.678
302.681
302.692
302.705
302.718
302.764
303.584
303.256
296.785
)
;
    }
    sWall
    {
        type            wallHeatTransfer;
        Tinf            uniform 315.2;
        alphaWall       uniform 0.36;
        value           uniform 299.683;
    }
    nWall
    {
        type            wallHeatTransfer;
        Tinf            uniform 307.2;
        alphaWall       uniform 0.36;
        value           nonuniform List<scalar> 6(303.226 303.154 303.012 303.369 303.344 303.38);
    }
    sideWalls
    {
        type            empty;
    }
    glass1
    {
        type            wallHeatTransfer;
        Tinf            uniform 315.2;
        alphaWall       uniform 4.3;
        value           nonuniform List<scalar> 9(310.679 310.032 309.627 309.324 309.073 308.842 308.656 308.729 308.978);
    }
    glass2
    {
        type            wallHeatTransfer;
        Tinf            uniform 307.2;
        alphaWall       uniform 4.3;
        value           nonuniform List<scalar> 2(305.312 305.484);
    }
    sun
    {
        type            wallHeatTransfer;
        Tinf            uniform 305.2;
        alphaWall       uniform 0.24;
        value           nonuniform List<scalar> 
14
(
302.143
301.857
301.836
301.819
301.805
301.791
301.777
301.764
301.752
301.75
301.763
301.818
301.865
301.916
)
;
    }
    Table_master
    {
        type            zeroGradient;
    }
    Table_slave
    {
        type            zeroGradient;
    }
    inlet
    {
        type            fixedValue;
        value           uniform 293.15;
    }
    outlet
    {
        type            zeroGradient;
    }
}


// ************************************************************************* //
