/*--------------------------------*- C++ -*----------------------------------*\
  =========                 |
  \\      /  F ield         | OpenFOAM: The Open Source CFD Toolbox
   \\    /   O peration     | Website:  https://openfoam.org
    \\  /    A nd           | Version:  6
     \\/     M anipulation  |
\*---------------------------------------------------------------------------*/
FoamFile
{
    version     2.0;
    format      ascii;
    class       volScalarField;
    location    "200";
    object      epsilon;
}
// * * * * * * * * * * * * * * * * * * * * * * * * * * * * * * * * * * * * * //

dimensions      [0 2 -3 0 0 0 0];

internalField   nonuniform List<scalar> 
458
(
9.0174e-05
9.04593e-05
5.37754e-05
5.67677e-05
6.17349e-05
6.70628e-05
7.27318e-05
7.89022e-05
8.58871e-05
9.33072e-05
0.000100558
0.000107456
0.000114123
0.000121044
0.000127327
7.88433e-06
9.9991e-06
9.48662e-06
6.36352e-06
4.63296e-06
3.75751e-06
3.24289e-06
2.92275e-06
3.0316e-06
3.3865e-06
4.0057e-06
4.78036e-06
6.42962e-06
8.41682e-06
1.19376e-05
2.04382e-05
2.9638e-05
1.77795e-05
0.000594813
0.001438
0.000108934
4.41859e-05
4.27319e-05
4.52918e-05
4.86598e-05
5.27741e-05
5.79477e-05
6.42604e-05
7.16606e-05
8.05032e-05
9.1182e-05
0.000104184
0.000123915
0.000171804
0.000152501
5.95367e-05
1.58026e-05
3.76931e-05
2.96728e-05
2.04259e-05
1.31571e-05
9.62665e-06
6.44261e-06
4.61812e-06
4.0006e-06
4.57063e-06
6.99326e-06
9.71491e-06
1.4873e-05
2.36909e-05
3.2309e-05
4.6184e-05
8.23094e-05
2.78395e-05
0.00177857
0.00539285
0.000446853
7.79111e-05
5.53888e-05
5.58205e-05
5.92444e-05
6.36746e-05
6.89356e-05
7.51588e-05
8.1896e-05
8.93677e-05
9.78394e-05
0.000107342
0.000118562
0.000135205
0.00015967
0.000205868
0.000118734
9.87456e-05
5.20562e-05
3.94681e-05
3.25767e-05
2.72607e-05
1.55037e-05
9.95299e-06
6.62815e-06
6.92653e-06
1.425e-05
2.37714e-05
3.82558e-05
6.52521e-05
6.9145e-05
7.35747e-05
9.23389e-05
8.80153e-05
0.00381788
0.0122099
0.00149636
0.000214678
0.00010326
8.97018e-05
8.90059e-05
9.1552e-05
9.56023e-05
0.000101015
0.000106347
0.000111857
0.000118023
0.000124838
0.000132167
0.000142021
0.000160418
0.000200005
0.0002764
0.000124499
6.84193e-05
5.44804e-05
5.1587e-05
5.61812e-05
7.35103e-05
7.74393e-05
8.25962e-05
8.8961e-05
9.75828e-05
0.000110217
0.000130549
0.000156101
0.000190123
0.000147337
0.000151593
0.000181879
0.000261582
0.00667859
0.0206871
0.00390555
0.000770085
0.000310554
0.000210228
0.000176155
0.000161442
0.000154862
0.000153423
0.000153143
0.000153632
0.00015556
0.00015857
0.000160768
0.000159861
0.000153658
0.00013925
0.000113898
7.92673e-05
6.13359e-05
5.31792e-05
5.04593e-05
5.11209e-05
5.42234e-05
5.84808e-05
6.4824e-05
7.42087e-05
8.79131e-05
0.000107561
0.000134975
0.000172133
0.000221882
0.000263494
0.000311849
0.000347322
0.000362091
0.000628731
0.000489084
0.000342207
0.01024
0.0276458
0.00832514
0.00264802
0.00123388
0.000713977
0.000487456
0.000373002
0.000306594
0.000266868
0.000242061
0.000224532
0.000213651
0.000208898
0.000208195
0.000207352
0.000200875
0.000182111
0.000150852
0.00011812
9.40377e-05
7.94202e-05
7.20857e-05
6.95694e-05
7.04694e-05
7.43744e-05
8.20203e-05
9.48894e-05
0.000115145
0.000145285
0.000187965
0.000245927
0.000321126
0.000411791
0.000522747
0.000662599
0.000771543
0.000781034
0.000561884
0.00047387
0.0137778
0.0293203
0.0150373
0.00785394
0.00448462
0.00258909
0.00158597
0.00104389
0.00073084
0.000536018
0.000424296
0.000351447
0.000303107
0.000273918
0.00026081
0.000256388
0.0002524
0.000238921
0.00021227
0.000179747
0.000150091
0.000127798
0.000113273
0.000105209
0.000102335
0.000104183
0.000111453
0.000126201
0.000151468
0.000190128
0.000244329
0.0003158
0.000405742
0.000513272
0.000633868
0.000752705
0.000827187
0.000827751
0.000529899
0.000488147
0.0136545
0.0285861
0.0242422
0.0184487
0.0119215
0.0071432
0.00429396
0.00265058
0.00169722
0.00113845
0.000792973
0.000580698
0.000449938
0.000369733
0.000323871
0.000302037
0.000294301
0.000288146
0.000272682
0.000249056
0.000222841
0.00019894
0.000179974
0.000166792
0.000159352
0.000157584
0.000162279
0.000176067
0.000203085
0.000245586
0.000300343
0.000358956
0.000413443
0.000460815
0.000505645
0.000547408
0.000587995
0.000634814
0.000681471
0.000598573
0.0117821
0.0176478
0.065439
0.0473839
0.026687
0.0146675
0.00818572
0.00471985
0.00284532
0.00180488
0.00120659
0.0008467
0.000622936
0.000484305
0.000401579
0.000356971
0.000337836
0.000332098
0.000328635
0.00032118
0.000309079
0.000294226
0.000279008
0.000265598
0.000255542
0.000249683
0.000248634
0.000254233
0.000270936
0.000306444
0.000368523
0.000455738
0.00057157
0.00071027
0.000841478
0.000946134
0.00103492
0.00115009
0.00138463
0.000874785
0.216027
0.146557
0.0309124
0.0131627
0.00713086
0.004237
0.00267451
0.00177876
0.00124389
0.000914758
0.000708553
0.000578499
0.000498361
0.000454218
0.000436315
0.000435446
0.000443254
0.000452731
0.000459377
0.000461124
0.00045763
0.00045068
0.000442952
0.000436238
0.000430881
0.000426211
0.000422323
0.000421728
0.000429195
0.000450373
0.000489925
0.00054657
0.00061505
0.000681559
0.000703329
0.000636698
0.000750945
0.000901952
0.14157
0.0658374
0.0166396
0.00736887
0.00440124
0.00292131
0.00207057
0.00155637
0.00124112
0.00105007
0.000939296
0.000881905
0.00086071
0.000863082
0.00087987
0.000904125
0.000929554
0.000951427
0.000967253
0.000976178
0.000977445
0.000972863
0.000966009
0.00095805
0.000945934
0.000922911
0.00088337
0.000825152
0.000745781
0.000664869
0.000601364
0.000560743
0.00053906
0.000514143
0.000470927
0.000403041
0.000550629
0.000731139
0.00319028
0.0145128
0.0524907
0.0245723
0.0092478
0.00429503
0.00293531
0.00220568
0.0017111
0.00136429
0.00112068
0.000950511
0.00083318
0.000754179
0.000703243
0.000673231
0.000658332
0.000653594
0.000654708
0.00065776
0.000659455
0.000657374
0.000651341
0.000642186
0.000629812
0.000615185
0.000599205
0.000582329
0.000565025
0.00055136
0.000545197
0.00053979
0.000529391
0.000507261
0.000468325
0.000427921
0.000376509
0.000309351
0.000313937
0.000560659
)
;

boundaryField
{
    floor
    {
        Cmu             0.09;
        kappa           0.41;
        E               9.8;
        type            epsilonWallFunction;
        value           nonuniform List<scalar> 
36
(
0.000127327
7.88433e-06
9.9991e-06
9.48662e-06
6.36352e-06
4.63296e-06
3.75751e-06
3.24289e-06
2.92275e-06
3.0316e-06
3.3865e-06
4.0057e-06
4.78036e-06
6.42962e-06
8.41682e-06
1.19376e-05
2.04382e-05
2.9638e-05
1.77795e-05
1.77795e-05
2.78395e-05
8.80153e-05
0.000261582
0.000628731
0.000489084
0.000342207
0.000127327
0.000171804
0.000152501
5.95367e-05
7.88433e-06
5.95367e-05
1.58026e-05
0.000205868
0.000118734
0.0002764
)
;
    }
    ceiling
    {
        Cmu             0.09;
        kappa           0.41;
        E               9.8;
        type            epsilonWallFunction;
        value           nonuniform List<scalar> 
43
(
0.00319028
0.0145128
0.0524907
0.0245723
0.0092478
0.00429503
0.00293531
0.00220568
0.0017111
0.00136429
0.00112068
0.000950511
0.00083318
0.000754179
0.000703243
0.000673231
0.000658332
0.000653594
0.000654708
0.00065776
0.000659455
0.000657374
0.000651341
0.000642186
0.000629812
0.000615185
0.000599205
0.000582329
0.000565025
0.00055136
0.000545197
0.00053979
0.000529391
0.000507261
0.000468325
0.000427921
0.000376509
0.000309351
0.000313937
0.000560659
0.0117821
0.0176478
0.14157
)
;
    }
    sWall
    {
        Cmu             0.09;
        kappa           0.41;
        E               9.8;
        type            epsilonWallFunction;
        value           uniform 0.00319028;
    }
    nWall
    {
        Cmu             0.09;
        kappa           0.41;
        E               9.8;
        type            epsilonWallFunction;
        value           nonuniform List<scalar> 6(0.000342207 0.00047387 0.000488147 0.000901952 0.000731139 0.000560659);
    }
    sideWalls
    {
        type            empty;
    }
    glass1
    {
        Cmu             0.09;
        kappa           0.41;
        E               9.8;
        type            epsilonWallFunction;
        value           nonuniform List<scalar> 9(9.0174e-05 0.000594813 0.00177857 0.00381788 0.00667859 0.01024 0.0137778 0.0136545 0.0117821);
    }
    glass2
    {
        Cmu             0.09;
        kappa           0.41;
        E               9.8;
        type            epsilonWallFunction;
        value           nonuniform List<scalar> 2(0.000598573 0.000874785);
    }
    sun
    {
        Cmu             0.09;
        kappa           0.41;
        E               9.8;
        type            epsilonWallFunction;
        value           nonuniform List<scalar> 
14
(
9.0174e-05
9.04593e-05
5.37754e-05
5.67677e-05
6.17349e-05
6.70628e-05
7.27318e-05
7.89022e-05
8.58871e-05
9.33072e-05
0.000100558
0.000107456
0.000114123
0.000121044
)
;
    }
    Table_master
    {
        Cmu             0.09;
        kappa           0.41;
        E               9.8;
        type            epsilonWallFunction;
        value           nonuniform List<scalar> 9(2.72607e-05 1.55037e-05 9.95299e-06 6.62815e-06 6.92653e-06 1.425e-05 2.37714e-05 3.82558e-05 6.52521e-05);
    }
    Table_slave
    {
        Cmu             0.09;
        kappa           0.41;
        E               9.8;
        type            epsilonWallFunction;
        value           nonuniform List<scalar> 9(7.35103e-05 7.74393e-05 8.25962e-05 8.8961e-05 9.75828e-05 0.000110217 0.000130549 0.000156101 0.000190123);
    }
    inlet
    {
        type            turbulentMixingLengthDissipationRateInlet;
        mixingLength    0.01;
        phi             phi;
        k               k;
        value           uniform 3.77337e-06;
    }
    outlet
    {
        type            zeroGradient;
    }
}


// ************************************************************************* //
