/*--------------------------------*- C++ -*----------------------------------*\
  =========                 |
  \\      /  F ield         | OpenFOAM: The Open Source CFD Toolbox
   \\    /   O peration     | Website:  https://openfoam.org
    \\  /    A nd           | Version:  6
     \\/     M anipulation  |
\*---------------------------------------------------------------------------*/
FoamFile
{
    version     2.0;
    format      ascii;
    class       volScalarField;
    location    "200";
    object      epsilon;
}
// * * * * * * * * * * * * * * * * * * * * * * * * * * * * * * * * * * * * * //

dimensions      [0 2 -3 0 0 0 0];

internalField   nonuniform List<scalar> 
458
(
0.000563077
0.000745709
0.000817477
0.000950934
0.00108876
0.00123527
0.00140123
0.00156845
0.00170647
0.00178247
0.00176214
0.00162182
0.00132624
0.000804911
0.000441861
5.61286e-05
9.23847e-05
0.000144826
0.000176072
0.000171523
0.000139401
0.000108904
8.59326e-05
6.90416e-05
5.64392e-05
4.688e-05
3.94821e-05
3.36501e-05
2.89095e-05
2.486e-05
2.11548e-05
1.81141e-05
1.34763e-05
0.00127981
0.00177214
0.000693415
0.00068652
0.000720673
0.000782886
0.00088424
0.00101623
0.00114652
0.00123216
0.00123626
0.00114958
0.000987349
0.000767545
0.000601183
0.000983223
0.000595907
0.000318573
5.20385e-05
0.000101661
0.000139983
0.000149418
0.000148705
0.000152966
0.000118971
8.923e-05
6.7396e-05
5.16807e-05
4.03378e-05
3.20282e-05
2.58301e-05
2.11631e-05
1.81325e-05
1.66215e-05
2.91803e-05
2.23918e-05
0.00220378
0.00400713
0.0007732
0.000618597
0.00064633
0.000726869
0.000856665
0.00102377
0.00118062
0.00128131
0.00129654
0.00122073
0.00106309
0.000865786
0.00068289
0.000564079
0.000494389
0.000578894
0.000168956
0.000190389
0.000190317
0.00018085
0.000176559
0.000349142
0.000225594
0.000149152
0.000102115
7.25132e-05
5.33187e-05
4.04887e-05
3.18342e-05
2.62663e-05
2.00179e-05
1.70043e-05
4.96494e-05
3.15441e-05
0.00342399
0.00809223
0.00110638
0.000589958
0.000597623
0.000700484
0.000880501
0.00110425
0.00128254
0.00138703
0.00140278
0.00131824
0.00114507
0.000935301
0.000736073
0.000588967
0.000503088
0.000513418
0.000849736
0.000538872
0.000371947
0.000286513
0.000237378
0.000217777
0.000523012
0.000390343
0.000308748
0.000252592
0.000209825
0.000175943
0.000146633
0.000119655
9.33735e-05
5.30889e-05
3.14381e-05
8.26443e-05
4.36998e-05
0.00507079
0.0144394
0.00206943
0.000647344
0.000571829
0.000704947
0.00102314
0.00132766
0.00150712
0.00159689
0.00159254
0.00147578
0.00125862
0.000993732
0.000751876
0.000576384
0.000469387
0.000436455
0.000459014
0.000401799
0.000348409
0.000304166
0.00026242
0.000223829
0.000209447
0.000187967
0.000169805
0.000153099
0.000136525
0.000120002
0.000103366
8.70974e-05
7.17023e-05
5.37323e-05
3.82565e-05
6.11186e-05
8.01791e-05
9.6907e-05
0.000125537
0.000163738
0.00736177
0.0217216
0.00464271
0.00113658
0.000749588
0.00088278
0.00149044
0.0017816
0.00189961
0.0019376
0.00189055
0.00171628
0.00141859
0.00106516
0.000753235
0.000537294
0.000420643
0.000385689
0.000390522
0.000384946
0.000363053
0.000325404
0.000277919
0.000229197
0.000192192
0.00016954
0.00015527
0.000142891
0.000129698
0.00011497
9.90179e-05
8.32358e-05
6.87858e-05
5.55119e-05
4.58117e-05
5.08333e-05
7.05958e-05
8.69425e-05
0.000182552
0.000182945
0.0100777
0.0262254
0.00966251
0.00371416
0.00236022
0.00237127
0.00257553
0.00257346
0.00251608
0.00244908
0.00231478
0.00203653
0.00161709
0.00114344
0.000747472
0.000495315
0.000381432
0.000363755
0.000380971
0.000384843
0.000360698
0.000316453
0.000264217
0.000215243
0.000179954
0.000161092
0.000151715
0.000145241
0.00013895
0.000131413
0.000120677
0.000108691
9.68452e-05
8.61421e-05
8.08169e-05
8.62738e-05
0.000111451
0.000161333
0.000295759
0.000315172
0.0107748
0.0288015
0.0159957
0.0102284
0.00722407
0.00556315
0.00441933
0.00373411
0.00336916
0.00314106
0.00286355
0.00241015
0.00180668
0.00116868
0.000689234
0.000427098
0.000346291
0.000345104
0.000357066
0.000348085
0.000314772
0.00026807
0.00022186
0.000185155
0.000162577
0.000153021
0.000151715
0.000155361
0.000163162
0.000175304
0.000191098
0.000205503
0.000221884
0.000250391
0.000301563
0.000433525
0.000725957
0.00121948
0.00360957
0.00115052
0.0100674
0.0172519
0.0131411
0.00993701
0.00764209
0.00605648
0.0050588
0.004528
0.00424451
0.00395662
0.00346848
0.00269634
0.00181007
0.00094766
0.000509272
0.00035105
0.00030621
0.000298485
0.000291356
0.000270062
0.000237525
0.000202354
0.000171769
0.000150491
0.000139847
0.000138311
0.000143774
0.000155551
0.000174515
0.000202542
0.000242191
0.000297728
0.000374791
0.000486127
0.000644152
0.000853913
0.00109518
0.0013209
0.00151169
0.000951221
0.00293668
0.00411481
0.00500803
0.00562253
0.00592691
0.00589
0.00547576
0.0046724
0.00353366
0.00201547
0.00100855
0.000527008
0.000338891
0.00026865
0.000241271
0.000225295
0.000206654
0.000182256
0.00015616
0.000133528
0.000117312
0.000108009
0.000104793
0.00010663
0.000113046
0.000124424
0.000141904
0.000167401
0.000203941
0.000255563
0.00032738
0.00042539
0.000551954
0.000695316
0.000818507
0.000872148
0.000832488
0.000523591
0.00310543
0.011189
0.0116066
0.0101385
0.00817397
0.00616755
0.00432123
0.00274292
0.00158565
0.000845577
0.000485589
0.000318197
0.000244573
0.000209694
0.000189102
0.000172416
0.000155842
0.000139405
0.00012487
0.00011376
0.000106608
0.000103206
0.000103139
0.000106192
0.000112529
0.000122768
0.000138029
0.000160024
0.000191245
0.000235225
0.000296625
0.00038011
0.000486347
0.000607084
0.00069968
0.000796215
0.000732589
0.000552124
0.00379039
0.00415915
0.00450324
0.0063826
0.00547139
0.00394801
0.00275724
0.00202452
0.0015226
0.0011047
0.000780743
0.000561192
0.000429647
0.00035412
0.000307186
0.00027279
0.000242313
0.000212045
0.000181955
0.000154431
0.000132133
0.000116327
0.000106722
0.000102282
0.000102037
0.000105475
0.000112565
0.000123643
0.00013932
0.000160447
0.000188168
0.000224041
0.000270195
0.000329339
0.000403995
0.000505954
0.000546567
0.00050765
0.000414131
0.000332836
)
;

boundaryField
{
    floor
    {
        Cmu             0.09;
        kappa           0.41;
        E               9.8;
        type            epsilonWallFunction;
        value           nonuniform List<scalar> 
36
(
0.000441861
5.61286e-05
9.23847e-05
0.000144826
0.000176072
0.000171523
0.000139401
0.000108904
8.59326e-05
6.90416e-05
5.64392e-05
4.688e-05
3.94821e-05
3.36501e-05
2.89095e-05
2.486e-05
2.11548e-05
1.81141e-05
1.34763e-05
1.34763e-05
2.23918e-05
3.15441e-05
4.36998e-05
9.6907e-05
0.000125537
0.000163738
0.000441861
0.000983223
0.000595907
0.000318573
5.61286e-05
0.000318573
5.20385e-05
0.000578894
0.000168956
0.000849736
)
;
    }
    ceiling
    {
        Cmu             0.09;
        kappa           0.41;
        E               9.8;
        type            epsilonWallFunction;
        value           nonuniform List<scalar> 
43
(
0.00379039
0.00415915
0.00450324
0.0063826
0.00547139
0.00394801
0.00275724
0.00202452
0.0015226
0.0011047
0.000780743
0.000561192
0.000429647
0.00035412
0.000307186
0.00027279
0.000242313
0.000212045
0.000181955
0.000154431
0.000132133
0.000116327
0.000106722
0.000102282
0.000102037
0.000105475
0.000112565
0.000123643
0.00013932
0.000160447
0.000188168
0.000224041
0.000270195
0.000329339
0.000403995
0.000505954
0.000546567
0.00050765
0.000414131
0.000332836
0.0100674
0.0172519
0.00310543
)
;
    }
    sWall
    {
        Cmu             0.09;
        kappa           0.41;
        E               9.8;
        type            epsilonWallFunction;
        value           uniform 0.00379039;
    }
    nWall
    {
        Cmu             0.09;
        kappa           0.41;
        E               9.8;
        type            epsilonWallFunction;
        value           nonuniform List<scalar> 6(0.000163738 0.000182945 0.000315172 0.000523591 0.000552124 0.000332836);
    }
    sideWalls
    {
        type            empty;
    }
    glass1
    {
        Cmu             0.09;
        kappa           0.41;
        E               9.8;
        type            epsilonWallFunction;
        value           nonuniform List<scalar> 9(0.000563077 0.00127981 0.00220378 0.00342399 0.00507079 0.00736177 0.0100777 0.0107748 0.0100674);
    }
    glass2
    {
        Cmu             0.09;
        kappa           0.41;
        E               9.8;
        type            epsilonWallFunction;
        value           nonuniform List<scalar> 2(0.00115052 0.000951221);
    }
    sun
    {
        Cmu             0.09;
        kappa           0.41;
        E               9.8;
        type            epsilonWallFunction;
        value           nonuniform List<scalar> 
14
(
0.000563077
0.000745709
0.000817477
0.000950934
0.00108876
0.00123527
0.00140123
0.00156845
0.00170647
0.00178247
0.00176214
0.00162182
0.00132624
0.000804911
)
;
    }
    Table_master
    {
        Cmu             0.09;
        kappa           0.41;
        E               9.8;
        type            epsilonWallFunction;
        value           nonuniform List<scalar> 9(0.000349142 0.000225594 0.000149152 0.000102115 7.25132e-05 5.33187e-05 4.04887e-05 3.18342e-05 2.62663e-05);
    }
    Table_slave
    {
        Cmu             0.09;
        kappa           0.41;
        E               9.8;
        type            epsilonWallFunction;
        value           nonuniform List<scalar> 9(0.000523012 0.000390343 0.000308748 0.000252592 0.000209825 0.000175943 0.000146633 0.000119655 9.33735e-05);
    }
    inlet
    {
        type            turbulentMixingLengthDissipationRateInlet;
        mixingLength    0.01;
        phi             phi;
        k               k;
        value           uniform 0.000471672;
    }
    outlet
    {
        type            zeroGradient;
    }
}


// ************************************************************************* //
