// -*- C++ -*-
// File generated by PyFoam - sorry for the ugliness

FoamFile
{
 version 2.0;
 format ascii;
 class volScalarField;
 location "200";
 object T;
}

dimensions [ 0 0 0 1 0 0 0 ];

internalField nonuniform List<scalar> 458
(
  302.84
  302.573
  302.559
  302.554
  302.55
  302.546
  302.541
  302.535
  302.526
  302.516
  302.51
  302.512
  302.525
  302.55
  302.577
  302.859
  302.827
  302.811
  302.82
  302.833
  302.844
  302.855
  302.866
  302.877
  302.889
  302.9
  302.912
  302.924
  302.937
  302.951
  302.966
  302.985
  303.023
  303.015
  302.608
  302.583
  302.583
  302.584
  302.582
  302.578
  302.566
  302.545
  302.518
  302.498
  302.496
  302.512
  302.536
  302.555
  302.565
  302.576
  302.599
  302.868
  302.788
  302.78
  302.794
  302.813
  302.823
  302.833
  302.842
  302.851
  302.861
  302.871
  302.881
  302.893
  302.905
  302.92
  302.938
  302.964
  303.013
  303.203
  302.656
  302.616
  302.626
  302.639
  302.647
  302.647
  302.631
  302.588
  302.532
  302.491
  302.482
  302.504
  302.533
  302.554
  302.565
  302.575
  302.593
  302.799
  302.758
  302.761
  302.788
  302.821
  302.826
  302.833
  302.841
  302.85
  302.86
  302.871
  302.882
  302.894
  302.906
  302.922
  302.94
  302.964
  303.014
  303.396
  302.716
  302.653
  302.672
  302.704
  302.732
  302.746
  302.722
  302.649
  302.552
  302.483
  302.468
  302.497
  302.537
  302.568
  302.583
  302.59
  302.597
  302.61
  302.64
  302.687
  302.746
  302.808
  302.862
  302.905
  302.938
  302.964
  302.988
  303.008
  303.027
  303.044
  303.059
  303.072
  303.038
  303.005
  302.992
  303.022
  303.589
  302.794
  302.692
  302.711
  302.759
  302.813
  302.852
  302.818
  302.705
  302.564
  302.472
  302.454
  302.492
  302.549
  302.596
  302.621
  302.63
  302.638
  302.66
  302.701
  302.758
  302.825
  302.892
  302.953
  303.005
  303.045
  303.077
  303.103
  303.123
  303.137
  303.144
  303.145
  303.138
  303.109
  303.065
  303.029
  303.031
  303.16
  303.267
  303.262
  303.765
  302.896
  302.756
  302.752
  302.799
  302.874
  302.936
  302.875
  302.723
  302.559
  302.453
  302.437
  302.492
  302.575
  302.646
  302.688
  302.707
  302.724
  302.759
  302.811
  302.875
  302.943
  303.009
  303.067
  303.115
  303.152
  303.181
  303.204
  303.218
  303.224
  303.222
  303.214
  303.197
  303.167
  303.122
  303.075
  303.057
  303.115
  303.159
  303.207
  303.926
  303.061
  302.909
  302.878
  302.903
  302.977
  302.998
  302.885
  302.689
  302.503
  302.403
  302.413
  302.505
  302.626
  302.728
  302.792
  302.827
  302.855
  302.898
  302.955
  303.018
  303.08
  303.138
  303.186
  303.225
  303.254
  303.276
  303.291
  303.298
  303.297
  303.287
  303.272
  303.25
  303.219
  303.178
  303.132
  303.104
  303.117
  303.139
  303.173
  304.155
  303.51
  303.336
  303.231
  303.188
  303.185
  303.059
  302.814
  302.548
  302.363
  302.313
  302.396
  302.554
  302.727
  302.859
  302.938
  302.978
  303.01
  303.056
  303.113
  303.166
  303.217
  303.26
  303.294
  303.32
  303.338
  303.35
  303.355
  303.355
  303.349
  303.337
  303.319
  303.297
  303.267
  303.234
  303.2
  303.18
  303.187
  303.209
  303.34
  304.485
  304.179
  303.944
  303.728
  303.549
  303.301
  302.862
  302.437
  302.168
  302.103
  302.213
  302.445
  302.692
  302.917
  303.04
  303.099
  303.133
  303.167
  303.21
  303.256
  303.298
  303.332
  303.359
  303.379
  303.392
  303.398
  303.399
  303.396
  303.388
  303.378
  303.368
  303.358
  303.351
  303.348
  303.353
  303.37
  303.399
  303.432
  303.457
  303.519
  297.302
  298.647
  299.411
  299.77
  300.224
  300.763
  301.321
  301.843
  302.31
  302.756
  303.01
  303.141
  303.205
  303.243
  303.273
  303.305
  303.34
  303.373
  303.4
  303.42
  303.433
  303.44
  303.441
  303.439
  303.434
  303.427
  303.42
  303.413
  303.407
  303.401
  303.399
  303.4
  303.409
  303.425
  303.451
  303.483
  303.521
  303.568
  297.714
  298.889
  299.821
  300.565
  301.268
  301.835
  302.304
  302.68
  302.957
  303.144
  303.244
  303.302
  303.338
  303.365
  303.39
  303.415
  303.437
  303.457
  303.47
  303.478
  303.481
  303.479
  303.476
  303.47
  303.464
  303.458
  303.451
  303.445
  303.439
  303.434
  303.431
  303.431
  303.435
  303.446
  303.462
  303.489
  303.505
  303.548
  299.64
  299.6
  299.597
  300.79
  301.632
  302.282
  302.718
  302.973
  303.134
  303.248
  303.329
  303.382
  303.417
  303.441
  303.459
  303.473
  303.486
  303.496
  303.504
  303.509
  303.511
  303.51
  303.508
  303.504
  303.499
  303.494
  303.488
  303.483
  303.477
  303.472
  303.466
  303.461
  303.457
  303.455
  303.454
  303.458
  303.469
  303.481
  303.491
  303.541
)
;

boundaryField
{
  floor
  {
    type wallHeatTransfer;
    Tinf uniform 305.2;
    alphaWall uniform 0.24;
    value nonuniform List<scalar> 36
(
  302.854
  303.265
  303.194
  303.144
  303.136
  303.149
  303.174
  303.204
  303.233
  303.261
  303.289
  303.315
  303.341
  303.366
  303.391
  303.417
  303.445
  303.476
  303.535
  303.535
  303.477
  303.444
  303.421
  303.472
  303.545
  303.524
  302.854
  302.791
  302.833
  302.897
  303.265
  302.897
  303.279
  302.85
  303.12
  302.841
)
;
  }
  ceiling
  {
    type wallHeatTransfer;
    Tinf uniform 303.2;
    alphaWall uniform 0.24;
    value nonuniform List<scalar> 43
(
  299.853
  299.809
  299.802
  300.915
  301.717
  302.336
  302.75
  302.989
  303.139
  303.244
  303.317
  303.364
  303.394
  303.414
  303.429
  303.441
  303.451
  303.459
  303.464
  303.467
  303.467
  303.465
  303.462
  303.458
  303.454
  303.45
  303.446
  303.442
  303.438
  303.435
  303.431
  303.429
  303.427
  303.426
  303.427
  303.432
  303.442
  303.452
  303.46
  303.502
  304.426
  304.14
  298.058
)
;
  }
  sWall
  {
    type wallHeatTransfer;
    Tinf uniform 315.2;
    alphaWall uniform 0.36;
    value uniform 300.996;
  }
  nWall
  {
    type wallHeatTransfer;
    Tinf uniform 307.2;
    alphaWall uniform 0.36;
    value nonuniform List<scalar> 6
(
  304.01
  303.948
  303.832
  304.094
  304.071
  304.132
)
;
  }
  sideWalls
  {
    type empty;
  }
  glass1
  {
    type wallHeatTransfer;
    Tinf uniform 315.2;
    alphaWall uniform 4.3;
    value nonuniform List<scalar> 9
(
  311.11
  310.511
  310.132
  309.843
  309.6
  309.375
  309.198
  309.268
  309.499
)
;
  }
  glass2
  {
    type wallHeatTransfer;
    Tinf uniform 307.2;
    alphaWall uniform 4.3;
    value nonuniform List<scalar> 2
(
  305.731
  305.846
)
;
  }
  sun
  {
    type wallHeatTransfer;
    Tinf uniform 305.2;
    alphaWall uniform 0.24;
    value nonuniform List<scalar> 14
(
  303.075
  302.816
  302.797
  302.784
  302.772
  302.761
  302.75
  302.738
  302.725
  302.714
  302.709
  302.715
  302.738
  302.79
)
;
  }
  Table_master
  {
    type zeroGradient;
  }
  Table_slave
  {
    type zeroGradient;
  }
  inlet
  {
    type fixedValue;
    value uniform 295.15;
  }
  outlet
  {
    type zeroGradient;
  }
} 	// ************************************************************************* //

