/*--------------------------------*- C++ -*----------------------------------*\
  =========                 |
  \\      /  F ield         | OpenFOAM: The Open Source CFD Toolbox
   \\    /   O peration     | Website:  https://openfoam.org
    \\  /    A nd           | Version:  6
     \\/     M anipulation  |
\*---------------------------------------------------------------------------*/
FoamFile
{
    version     2.0;
    format      ascii;
    class       volVectorField;
    location    "4010";
    object      U;
}
// * * * * * * * * * * * * * * * * * * * * * * * * * * * * * * * * * * * * * //

dimensions      [0 1 -1 0 0 0 0];

internalField   nonuniform List<vector> 
458
(
(0.0348255 0.0885226 0)
(-0.172081 0.0265844 0)
(-0.199348 0.0191132 0)
(-0.233224 0.0130811 0)
(-0.258396 0.00641369 0)
(-0.2736 -0.000804989 0)
(-0.276729 -0.00877837 0)
(-0.265481 -0.0177783 0)
(-0.239423 -0.0274273 0)
(-0.199711 -0.0361121 0)
(-0.150445 -0.0420519 0)
(-0.0978284 -0.0436519 0)
(-0.0487283 -0.0390818 0)
(-0.00626972 -0.0236844 0)
(-0.0102617 0.00977195 0)
(-0.010238 0.010513 0)
(-0.0372602 -0.0174869 0)
(-0.0145107 -0.0291033 0)
(0.0136695 -0.0251835 0)
(0.0334405 -0.0178893 0)
(0.048057 -0.00955486 0)
(0.0568163 -0.00517626 0)
(0.060695 -0.00363237 0)
(0.0621304 -0.00308262 0)
(0.0627797 -0.00275979 0)
(0.0630896 -0.00250945 0)
(0.0630289 -0.00224154 0)
(0.0624313 -0.00179742 0)
(0.0608398 -0.000838719 0)
(0.0572379 0.00107461 0)
(0.0505186 0.00317061 0)
(0.0451142 0.00508627 0)
(-0.014147 0.021948 0)
(0.214272 0.181889 0)
(-0.162148 0.0709931 0)
(-0.162941 0.0577625 0)
(-0.198657 0.0457434 0)
(-0.224133 0.0319883 0)
(-0.240109 0.0161755 0)
(-0.244611 -0.00241016 0)
(-0.235116 -0.0239669 0)
(-0.211867 -0.0461702 0)
(-0.176484 -0.0649272 0)
(-0.133354 -0.0764274 0)
(-0.0881256 -0.0781994 0)
(-0.0462591 -0.0687302 0)
(-0.0100259 -0.0460166 0)
(0.0194101 -0.0133798 0)
(0.0442426 0.00784972 0)
(0.0548474 0.0347582 0)
(-0.0118092 0.070683 0)
(0.0670401 0.0439816 0)
(0.010288 -0.0218338 0)
(0.0265182 -0.0378985 0)
(0.0407465 -0.035645 0)
(0.0531356 -0.0273416 0)
(0.0595578 -0.0120936 0)
(0.061178 -0.00275356 0)
(0.0612278 0.000745471 0)
(0.0613925 0.00202317 0)
(0.0617177 0.00272182 0)
(0.0619427 0.0032215 0)
(0.062 0.00367473 0)
(0.061896 0.00440705 0)
(0.0611849 0.00620499 0)
(0.0577884 0.0112234 0)
(0.0490977 0.0155324 0)
(0.0476927 0.0187037 0)
(-0.0584279 0.0475496 0)
(0.379536 0.272955 0)
(-0.180118 0.113733 0)
(-0.123512 0.0941091 0)
(-0.159197 0.0724344 0)
(-0.182599 0.0495028 0)
(-0.19841 0.0236424 0)
(-0.204062 -0.00653529 0)
(-0.195373 -0.0409801 0)
(-0.17359 -0.0757814 0)
(-0.141424 -0.10365 0)
(-0.10384 -0.118953 0)
(-0.0658944 -0.119156 0)
(-0.0318224 -0.104119 0)
(-0.00227657 -0.0743973 0)
(0.0220309 -0.0400726 0)
(0.0375973 -0.0152192 0)
(0.0431789 0.0131635 0)
(-0.0236615 0.0623195 0)
(0.12249 -0.0075322 0)
(0.0725097 -0.0320908 0)
(0.0643118 -0.0419288 0)
(0.0672605 -0.0417568 0)
(0.0718708 -0.038044 0)
(0.0734894 -0.028228 0)
(0.0643661 -0.018329 0)
(0.0574116 -0.013027 0)
(0.0548131 -0.0100785 0)
(0.0541219 -0.00818591 0)
(0.0538879 -0.00689738 0)
(0.0539582 -0.00590244 0)
(0.0547575 -0.00475329 0)
(0.0572083 -0.00139864 0)
(0.056103 0.0149938 0)
(0.0445871 0.0258689 0)
(0.0541328 0.0332461 0)
(-0.0993783 0.0727937 0)
(0.530025 0.346652 0)
(-0.216668 0.151756 0)
(-0.0801995 0.125836 0)
(-0.115538 0.0962967 0)
(-0.133417 0.0672239 0)
(-0.146929 0.0337628 0)
(-0.152515 -0.00711187 0)
(-0.14262 -0.0550547 0)
(-0.121287 -0.102309 0)
(-0.0929777 -0.13784 0)
(-0.0625309 -0.155426 0)
(-0.0335717 -0.153427 0)
(-0.00879746 -0.133437 0)
(0.0128653 -0.0979226 0)
(0.0304329 -0.0589719 0)
(0.044357 -0.0228963 0)
(0.0599551 0.0131494 0)
(0.0588227 0.0534404 0)
(0.100334 0.0615061 0)
(0.0988159 -0.00244075 0)
(0.085151 -0.0293885 0)
(0.0784674 -0.0376903 0)
(0.073616 -0.0383941 0)
(0.0670205 -0.0341077 0)
(0.0666014 -0.0208386 0)
(0.0772773 -0.01383 0)
(0.0862403 -0.010107 0)
(0.0916392 -0.00782413 0)
(0.0948786 -0.00591646 0)
(0.0962849 -0.00385545 0)
(0.0945168 -0.00119014 0)
(0.0882548 0.00248027 0)
(0.0757128 0.00774305 0)
(0.0597988 0.0250979 0)
(0.0440614 0.0405832 0)
(0.0629782 0.0533442 0)
(-0.13139 0.0942777 0)
(0.66268 0.403809 0)
(-0.262352 0.182678 0)
(-0.0350339 0.145257 0)
(-0.068749 0.111319 0)
(-0.0779457 0.079233 0)
(-0.0862933 0.0412494 0)
(-0.0890484 -0.00798825 0)
(-0.0740282 -0.0688152 0)
(-0.0534821 -0.125902 0)
(-0.0315786 -0.165074 0)
(-0.0112749 -0.181842 0)
(0.00616163 -0.17599 0)
(0.0193256 -0.151482 0)
(0.0303435 -0.114537 0)
(0.0401937 -0.072957 0)
(0.0494381 -0.033722 0)
(0.0619365 0.000675544 0)
(0.0760386 0.0197169 0)
(0.0903274 -0.000566858 0)
(0.0896846 -0.0213723 0)
(0.0826179 -0.0300335 0)
(0.0738113 -0.0325494 0)
(0.0655665 -0.0316294 0)
(0.0586223 -0.0266321 0)
(0.0568411 -0.0155119 0)
(0.0603945 -0.00902643 0)
(0.0647359 -0.00637174 0)
(0.0684591 -0.00482948 0)
(0.0717017 -0.00274941 0)
(0.0742085 0.000781172 0)
(0.075058 0.00596808 0)
(0.073164 0.0129864 0)
(0.0682548 0.0224378 0)
(0.0612077 0.0371777 0)
(0.0500555 0.0536294 0)
(0.0748591 0.0727481 0)
(-0.00684759 0.101381 0)
(0.055788 0.150674 0)
(-0.0835198 0.0748408 0)
(-0.277797 0.000488114 0)
(0.761894 0.451324 0)
(-0.308549 0.203338 0)
(0.0024299 0.143886 0)
(-0.020584 0.116259 0)
(-0.0197897 0.0857218 0)
(-0.0214994 0.0472948 0)
(-0.0143131 -0.00693815 0)
(0.010316 -0.085926 0)
(0.0269248 -0.146193 0)
(0.0388266 -0.182424 0)
(0.0460465 -0.194553 0)
(0.0488945 -0.185051 0)
(0.0486298 -0.158119 0)
(0.0472251 -0.119917 0)
(0.0460514 -0.0779381 0)
(0.0464684 -0.0397064 0)
(0.0508205 -0.00999043 0)
(0.0599689 0.00482486 0)
(0.0662453 -0.00105136 0)
(0.0649921 -0.0110136 0)
(0.0586066 -0.0188062 0)
(0.0504358 -0.0229111 0)
(0.0427978 -0.0236611 0)
(0.0368218 -0.0211349 0)
(0.0342705 -0.0157706 0)
(0.0354198 -0.0122939 0)
(0.0383736 -0.0108626 0)
(0.0420298 -0.00977473 0)
(0.0460898 -0.00763878 0)
(0.0502722 -0.00338467 0)
(0.0544828 0.00368359 0)
(0.0569999 0.0131864 0)
(0.0581662 0.0249441 0)
(0.0592911 0.0395784 0)
(0.0583673 0.056 0)
(0.079709 0.0766956 0)
(0.0654478 0.0889841 0)
(0.0997222 0.0967313 0)
(0.117478 0.0571985 0)
(-0.136895 -0.0299281 0)
(0.815611 0.494187 0)
(-0.334124 0.18737 0)
(0.0322411 0.0937999 0)
(0.0390624 0.101054 0)
(0.0459315 0.0830001 0)
(0.0516241 0.03937 0)
(0.0790986 -0.0311723 0)
(0.10311 -0.103705 0)
(0.113286 -0.157016 0)
(0.112861 -0.186331 0)
(0.104581 -0.192432 0)
(0.0907897 -0.178775 0)
(0.0740942 -0.149768 0)
(0.0575009 -0.111562 0)
(0.0429715 -0.070909 0)
(0.0326166 -0.035695 0)
(0.0281007 -0.0107562 0)
(0.0295009 0.000991624 0)
(0.0311366 -0.000280029 0)
(0.0296352 -0.00656867 0)
(0.0249836 -0.0126302 0)
(0.0188642 -0.0163693 0)
(0.0128388 -0.0177428 0)
(0.00803237 -0.0171047 0)
(0.0056712 -0.0151956 0)
(0.0060133 -0.014101 0)
(0.00805241 -0.0139677 0)
(0.0110508 -0.0137419 0)
(0.014846 -0.0123612 0)
(0.019524 -0.00873976 0)
(0.0256927 -0.00163574 0)
(0.0333025 0.00886881 0)
(0.0400693 0.0208902 0)
(0.0478781 0.0341601 0)
(0.0558775 0.0479598 0)
(0.0754521 0.0644569 0)
(0.0882331 0.0697705 0)
(0.11967 0.063209 0)
(0.163391 0.0513053 0)
(-0.0203529 0.0954879 0)
(0.921864 0.497286 0)
(-0.076678 0.167419 0)
(0.110608 0.0261618 0)
(0.163737 0.0227926 0)
(0.1614 0.0155468 0)
(0.162866 -0.0293633 0)
(0.196489 -0.0804105 0)
(0.211271 -0.125543 0)
(0.205359 -0.158278 0)
(0.18509 -0.173982 0)
(0.155584 -0.171674 0)
(0.121084 -0.153973 0)
(0.0852893 -0.124273 0)
(0.052363 -0.0880735 0)
(0.024458 -0.0510588 0)
(0.00511379 -0.0219286 0)
(-0.0046323 -0.00442807 0)
(-0.00655909 0.00175867 0)
(-0.00644008 0.000663479 0)
(-0.00764072 -0.00366297 0)
(-0.0109406 -0.00801317 0)
(-0.0154387 -0.0110774 0)
(-0.0200734 -0.0128478 0)
(-0.0239379 -0.0136844 0)
(-0.0263201 -0.0141354 0)
(-0.0272118 -0.0148864 0)
(-0.0271758 -0.0158704 0)
(-0.0265941 -0.0165841 0)
(-0.0254667 -0.0164986 0)
(-0.0234873 -0.0150362 0)
(-0.0198621 -0.0114657 0)
(-0.0117096 -0.00490989 0)
(-9.40863e-05 0.00445893 0)
(0.0110861 0.0137605 0)
(0.0226896 0.0208656 0)
(0.0398997 0.0277365 0)
(0.0554301 0.0224377 0)
(0.0795689 0.0056482 0)
(0.146409 0.0479778 0)
(-0.428338 0.212666 0)
(1.06591 0.444164 0)
(0.518237 0.2983 0)
(0.529533 0.249857 0)
(0.518391 0.182905 0)
(0.469837 0.122438 0)
(0.433157 0.0601128 0)
(0.392046 -0.00742382 0)
(0.342841 -0.06698 0)
(0.289082 -0.107862 0)
(0.232744 -0.126611 0)
(0.175362 -0.125099 0)
(0.118903 -0.108911 0)
(0.0654553 -0.0822845 0)
(0.020235 -0.0512619 0)
(-0.0161027 -0.0208447 0)
(-0.0329478 -0.00607202 0)
(-0.0401257 0.000442153 0)
(-0.041682 0.00220749 0)
(-0.0420604 0.00100842 0)
(-0.0432023 -0.00163929 0)
(-0.0458302 -0.00451707 0)
(-0.0494793 -0.00704497 0)
(-0.0535048 -0.00913506 0)
(-0.0573696 -0.0108637 0)
(-0.0608173 -0.0123656 0)
(-0.0640104 -0.0137471 0)
(-0.0673528 -0.0148456 0)
(-0.0712204 -0.0153019 0)
(-0.0759667 -0.0146316 0)
(-0.0820651 -0.0121816 0)
(-0.0902076 -0.00711462 0)
(-0.101119 0.00142827 0)
(-0.112753 0.0133221 0)
(-0.127984 0.0284141 0)
(-0.152908 0.0467845 0)
(-0.190233 0.0673933 0)
(-0.241635 0.0862252 0)
(-0.297563 0.0999183 0)
(-0.371647 0.106912 0)
(-0.65067 0.106304 0)
(0.233924 0.0528313 0)
(0.305889 0.115962 0)
(0.321217 0.0913663 0)
(0.299642 0.0395766 0)
(0.275045 -0.0106036 0)
(0.244385 -0.04694 0)
(0.203096 -0.0684129 0)
(0.154001 -0.075415 0)
(0.100436 -0.0686988 0)
(0.0461626 -0.0529166 0)
(-0.00863153 -0.0295138 0)
(-0.0451349 -0.0114972 0)
(-0.0635931 -0.0031393 0)
(-0.0709239 -0.00075771 0)
(-0.0731594 -0.000283783 0)
(-0.0734774 -0.00098232 0)
(-0.073779 -0.00258364 0)
(-0.0749173 -0.00467912 0)
(-0.0771323 -0.00676793 0)
(-0.080388 -0.00854776 0)
(-0.0841841 -0.0100193 0)
(-0.0882912 -0.011141 0)
(-0.0927205 -0.0119155 0)
(-0.0976254 -0.0123095 0)
(-0.103157 -0.0121329 0)
(-0.109347 -0.0110405 0)
(-0.116065 -0.00856334 0)
(-0.122967 -0.00415724 0)
(-0.129429 0.00273884 0)
(-0.134402 0.0123366 0)
(-0.13837 0.0256175 0)
(-0.141807 0.0431792 0)
(-0.146018 0.0642222 0)
(-0.151773 0.0850512 0)
(-0.155359 0.0955471 0)
(-0.141304 0.0734008 0)
(-0.110248 -0.0250095 0)
(-0.286613 -0.213742 0)
(0.120027 0.324335 0)
(0.00839029 0.203592 0)
(0.0392638 0.118449 0)
(0.0584768 0.0604337 0)
(0.0631245 0.0216235 0)
(0.0601105 -0.00478681 0)
(0.0401959 -0.019914 0)
(0.00541641 -0.0189537 0)
(-0.036599 -0.00171797 0)
(-0.0701176 0.0128787 0)
(-0.0912298 0.0208815 0)
(-0.100244 0.0232652 0)
(-0.102468 0.0233931 0)
(-0.102413 0.0234458 0)
(-0.101541 0.02416 0)
(-0.100509 0.0252867 0)
(-0.0997864 0.0264281 0)
(-0.0996588 0.0271781 0)
(-0.100184 0.0271129 0)
(-0.101325 0.0259077 0)
(-0.10312 0.0238738 0)
(-0.105496 0.0216292 0)
(-0.108388 0.0194494 0)
(-0.111705 0.0174801 0)
(-0.115313 0.0158314 0)
(-0.118996 0.0146124 0)
(-0.122445 0.0139596 0)
(-0.125176 0.0140303 0)
(-0.126372 0.0155214 0)
(-0.124865 0.0198897 0)
(-0.119076 0.0282961 0)
(-0.107619 0.0417407 0)
(-0.0903518 0.0602414 0)
(-0.0683171 0.0804254 0)
(-0.0434461 0.0948376 0)
(-0.00758414 0.0857778 0)
(0.146941 0.0093053 0)
(-0.209931 -0.129684 0)
(-0.422117 -0.51603 0)
(-0.637319 -0.143275 0)
(-0.449399 0.177758 0)
(-0.357934 0.0560782 0)
(-0.2139 -0.00554065 0)
(-0.145612 -0.0477892 0)
(-0.117168 -0.0705381 0)
(-0.112988 -0.0713622 0)
(-0.122347 -0.0626877 0)
(-0.134864 -0.0549763 0)
(-0.140348 -0.0505056 0)
(-0.138589 -0.049066 0)
(-0.134127 -0.0499515 0)
(-0.128946 -0.0527743 0)
(-0.124483 -0.0563024 0)
(-0.121038 -0.0599461 0)
(-0.118239 -0.0635886 0)
(-0.115826 -0.0672861 0)
(-0.113758 -0.0708878 0)
(-0.112108 -0.073904 0)
(-0.111008 -0.0756834 0)
(-0.110622 -0.0757903 0)
(-0.111051 -0.0743575 0)
(-0.112257 -0.0719863 0)
(-0.114069 -0.0689145 0)
(-0.11626 -0.0652748 0)
(-0.118548 -0.0610871 0)
(-0.120566 -0.0562777 0)
(-0.121831 -0.050631 0)
(-0.12171 -0.0438007 0)
(-0.119186 -0.0358138 0)
(-0.112353 -0.0266892 0)
(-0.0984056 -0.0158827 0)
(-0.074844 -0.002486 0)
(-0.0415503 0.0143646 0)
(0.00931717 0.0362844 0)
(0.0618665 0.0423469 0)
(0.109599 0.0240441 0)
(0.172058 -0.0159432 0)
(-0.196289 -0.082685 0)
)
;

boundaryField
{
    floor
    {
        type            noSlip;
    }
    ceiling
    {
        type            noSlip;
    }
    sWall
    {
        type            noSlip;
    }
    nWall
    {
        type            noSlip;
    }
    sideWalls
    {
        type            empty;
    }
    glass1
    {
        type            noSlip;
    }
    glass2
    {
        type            noSlip;
    }
    sun
    {
        type            noSlip;
    }
    Table_master
    {
        type            noSlip;
    }
    Table_slave
    {
        type            noSlip;
    }
    inlet
    {
        type            fixedValue;
        value           uniform (0.46194 -0.191342 0);
    }
    outlet
    {
        type            zeroGradient;
    }
}


// ************************************************************************* //
