/*--------------------------------*- C++ -*----------------------------------*\
  =========                 |
  \\      /  F ield         | OpenFOAM: The Open Source CFD Toolbox
   \\    /   O peration     | Website:  https://openfoam.org
    \\  /    A nd           | Version:  6
     \\/     M anipulation  |
\*---------------------------------------------------------------------------*/
FoamFile
{
    version     2.0;
    format      ascii;
    class       volScalarField;
    location    "270";
    object      epsilon;
}
// * * * * * * * * * * * * * * * * * * * * * * * * * * * * * * * * * * * * * //

dimensions      [0 2 -3 0 0 0 0];

internalField   nonuniform List<scalar> 
458
(
0.000592123
0.000780242
0.000853249
0.000992252
0.00113799
0.00129731
0.00148213
0.00165466
0.00178544
0.00183351
0.00175744
0.00145149
0.00101806
0.000638607
0.000398214
5.66672e-05
9.14347e-05
0.000137134
0.000160522
0.000153494
0.000125913
9.97863e-05
7.97412e-05
6.47056e-05
5.32906e-05
4.45004e-05
3.7645e-05
3.21903e-05
2.77028e-05
2.38473e-05
2.03379e-05
1.80498e-05
1.38311e-05
0.00135753
0.00190842
0.000716662
0.000704702
0.000743525
0.000822709
0.000952456
0.0011043
0.00123161
0.00128041
0.00122186
0.00104838
0.000797247
0.000603178
0.000457498
0.000748206
0.000490467
0.000288654
5.27301e-05
9.33854e-05
0.000121371
0.000127107
0.000125683
0.000129865
0.000102693
7.85167e-05
6.03797e-05
4.70315e-05
3.71944e-05
2.98784e-05
2.4349e-05
2.01542e-05
1.75025e-05
1.63671e-05
3.95347e-05
2.77108e-05
0.00233533
0.00431908
0.00079565
0.000639024
0.000675688
0.000777071
0.000935322
0.00111581
0.001255
0.00130917
0.0012605
0.00110129
0.00086879
0.000664329
0.000500241
0.000426674
0.000380192
0.000409927
0.000143402
0.000157793
0.000153018
0.000145016
0.000142622
0.000294961
0.000194292
0.000131058
9.16097e-05
6.64614e-05
4.99491e-05
3.88185e-05
3.12374e-05
2.62473e-05
2.0248e-05
1.79835e-05
8.07762e-05
4.3393e-05
0.00361176
0.00867054
0.00111502
0.000612207
0.000635628
0.000765851
0.000983139
0.00120569
0.00135145
0.00140654
0.00135655
0.00117845
0.000926368
0.000690085
0.000509783
0.000394702
0.000336584
0.000358393
0.000534707
0.000387901
0.000275013
0.000217249
0.00018378
0.000171219
0.000425622
0.000324205
0.000262951
0.00022089
0.000187511
0.000159925
0.00013558
0.000112487
8.91238e-05
5.14507e-05
3.28678e-05
0.000150194
6.23504e-05
0.00530543
0.0154198
0.0020127
0.000644645
0.00060385
0.00078506
0.00116231
0.0014332
0.00157186
0.00161259
0.00153063
0.00130666
0.000991558
0.000697624
0.000490995
0.000367921
0.000304449
0.000303713
0.000354544
0.000313624
0.000273462
0.000240667
0.000208193
0.000177404
0.000167299
0.000153545
0.000142908
0.000132598
0.000120934
0.00010823
9.50048e-05
8.19169e-05
6.93657e-05
5.339e-05
4.0207e-05
9.7113e-05
0.000146553
0.000146971
0.00017228
0.000218672
0.00762995
0.0231937
0.00441496
0.000997531
0.000689289
0.000929434
0.001603
0.00185066
0.00194129
0.00193413
0.00179557
0.00148882
0.00107098
0.00069249
0.000445425
0.000319718
0.000274817
0.000284667
0.000313543
0.000316791
0.000300528
0.000267974
0.000226396
0.00018518
0.00015695
0.000143641
0.000137749
0.000132251
0.000124139
0.000112257
9.75231e-05
8.2635e-05
6.90907e-05
5.65859e-05
4.86851e-05
6.8959e-05
0.000114125
0.00013621
0.000248469
0.00024665
0.0104607
0.0280048
0.00932066
0.0031464
0.00190953
0.00219427
0.00248559
0.00253977
0.00249811
0.00238975
0.00214497
0.00170719
0.00114651
0.000665604
0.000384614
0.000272212
0.000257085
0.000286287
0.000320848
0.000329224
0.000306978
0.000265472
0.000218373
0.00017753
0.000152802
0.000145303
0.000145975
0.000148137
0.000148914
0.000146262
0.000135274
0.000120899
0.000107023
9.5128e-05
9.08907e-05
0.000105453
0.000151045
0.000231344
0.000431008
0.000441173
0.0112528
0.0314608
0.0169045
0.00983097
0.00645343
0.00497481
0.00411016
0.003599
0.003266
0.00297077
0.00254784
0.00191072
0.00115187
0.000568749
0.000312745
0.000251114
0.000257403
0.000287099
0.000309383
0.00030305
0.000269852
0.000226529
0.000187178
0.000160345
0.00014903
0.000150591
0.000159811
0.000173883
0.000192311
0.000215104
0.000241111
0.000259804
0.000279528
0.00031846
0.000392127
0.000594251
0.00106319
0.00188051
0.00561349
0.00156668
0.0105983
0.0185544
0.0143594
0.0107889
0.00822823
0.00647442
0.00534055
0.00460436
0.00406786
0.00356771
0.00287719
0.00193438
0.000894127
0.000417094
0.000274321
0.000245442
0.000251082
0.000262381
0.000261153
0.000241225
0.000210428
0.000178797
0.000155322
0.000143548
0.000142903
0.000150921
0.000165819
0.000187807
0.000218761
0.000261803
0.000321194
0.00040221
0.000512844
0.00067375
0.000901202
0.00119458
0.00151492
0.00179122
0.00201352
0.00120747
0.00419799
0.00566048
0.00632112
0.00639973
0.00602355
0.00532582
0.00454976
0.00373216
0.00251553
0.00120143
0.000550227
0.000325768
0.000258416
0.000241399
0.000239021
0.000236984
0.00022782
0.000210523
0.000189725
0.000170761
0.000157883
0.000152378
0.000153316
0.000159469
0.000170413
0.000186848
0.000210667
0.000245216
0.000295773
0.000368824
0.000471433
0.000611428
0.000788629
0.000977682
0.0011167
0.00113333
0.000982526
0.000626139
0.00355655
0.0117518
0.011142
0.00923132
0.00674258
0.00429518
0.0025492
0.00148203
0.000840059
0.00050493
0.000366593
0.000310466
0.000290983
0.000284711
0.000281715
0.000277305
0.000269742
0.000259729
0.000248717
0.000237585
0.000226812
0.000218841
0.00021435
0.000213778
0.000217992
0.000228353
0.00024678
0.000275976
0.00032042
0.000385308
0.000477091
0.000601659
0.000758593
0.000938258
0.00107554
0.00118797
0.000837294
0.000651286
0.00413112
0.00441393
0.00469567
0.0066289
0.00487342
0.00281624
0.00161962
0.00116223
0.000854446
0.00066149
0.000524172
0.000433856
0.000378292
0.000344281
0.000320911
0.000300576
0.000278587
0.000253372
0.000226697
0.000202414
0.000183869
0.000172533
0.000168472
0.000169006
0.000173478
0.000181696
0.000193934
0.000210952
0.000234164
0.000266171
0.000307497
0.000360622
0.000428239
0.000513761
0.000620349
0.000783001
0.000837768
0.000779659
0.000629041
0.000492668
)
;

boundaryField
{
    floor
    {
        Cmu             0.09;
        kappa           0.41;
        E               9.8;
        type            epsilonWallFunction;
        value           nonuniform List<scalar> 
36
(
0.000398214
5.66672e-05
9.14347e-05
0.000137134
0.000160522
0.000153494
0.000125913
9.97863e-05
7.97412e-05
6.47056e-05
5.32906e-05
4.45004e-05
3.7645e-05
3.21903e-05
2.77028e-05
2.38473e-05
2.03379e-05
1.80498e-05
1.38311e-05
1.38311e-05
2.77108e-05
4.3393e-05
6.23504e-05
0.000146971
0.00017228
0.000218672
0.000398214
0.000748206
0.000490467
0.000288654
5.66672e-05
0.000288654
5.27301e-05
0.000409927
0.000143402
0.000534707
)
;
    }
    ceiling
    {
        Cmu             0.09;
        kappa           0.41;
        E               9.8;
        type            epsilonWallFunction;
        value           nonuniform List<scalar> 
43
(
0.00413112
0.00441393
0.00469567
0.0066289
0.00487342
0.00281624
0.00161962
0.00116223
0.000854446
0.00066149
0.000524172
0.000433856
0.000378292
0.000344281
0.000320911
0.000300576
0.000278587
0.000253372
0.000226697
0.000202414
0.000183869
0.000172533
0.000168472
0.000169006
0.000173478
0.000181696
0.000193934
0.000210952
0.000234164
0.000266171
0.000307497
0.000360622
0.000428239
0.000513761
0.000620349
0.000783001
0.000837768
0.000779659
0.000629041
0.000492668
0.0105983
0.0185544
0.00355655
)
;
    }
    sWall
    {
        Cmu             0.09;
        kappa           0.41;
        E               9.8;
        type            epsilonWallFunction;
        value           uniform 0.00413112;
    }
    nWall
    {
        Cmu             0.09;
        kappa           0.41;
        E               9.8;
        type            epsilonWallFunction;
        value           nonuniform List<scalar> 6(0.000218672 0.00024665 0.000441173 0.000626139 0.000651286 0.000492668);
    }
    sideWalls
    {
        type            empty;
    }
    glass1
    {
        Cmu             0.09;
        kappa           0.41;
        E               9.8;
        type            epsilonWallFunction;
        value           nonuniform List<scalar> 9(0.000592123 0.00135753 0.00233533 0.00361176 0.00530543 0.00762995 0.0104607 0.0112528 0.0105983);
    }
    glass2
    {
        Cmu             0.09;
        kappa           0.41;
        E               9.8;
        type            epsilonWallFunction;
        value           nonuniform List<scalar> 2(0.00156668 0.00120747);
    }
    sun
    {
        Cmu             0.09;
        kappa           0.41;
        E               9.8;
        type            epsilonWallFunction;
        value           nonuniform List<scalar> 
14
(
0.000592123
0.000780242
0.000853249
0.000992252
0.00113799
0.00129731
0.00148213
0.00165466
0.00178544
0.00183351
0.00175744
0.00145149
0.00101806
0.000638607
)
;
    }
    Table_master
    {
        Cmu             0.09;
        kappa           0.41;
        E               9.8;
        type            epsilonWallFunction;
        value           nonuniform List<scalar> 9(0.000294961 0.000194292 0.000131058 9.16097e-05 6.64614e-05 4.99491e-05 3.88185e-05 3.12374e-05 2.62473e-05);
    }
    Table_slave
    {
        Cmu             0.09;
        kappa           0.41;
        E               9.8;
        type            epsilonWallFunction;
        value           nonuniform List<scalar> 9(0.000425622 0.000324205 0.000262951 0.00022089 0.000187511 0.000159925 0.00013558 0.000112487 8.91238e-05);
    }
    inlet
    {
        type            turbulentMixingLengthDissipationRateInlet;
        mixingLength    0.01;
        phi             phi;
        k               k;
        value           uniform 0.000471671;
    }
    outlet
    {
        type            zeroGradient;
    }
}


// ************************************************************************* //
