/*--------------------------------*- C++ -*----------------------------------*\
  =========                 |
  \\      /  F ield         | OpenFOAM: The Open Source CFD Toolbox
   \\    /   O peration     | Website:  https://openfoam.org
    \\  /    A nd           | Version:  6
     \\/     M anipulation  |
\*---------------------------------------------------------------------------*/
FoamFile
{
    version     2.0;
    format      ascii;
    class       surfaceScalarField;
    location    "270";
    object      phi;
}
// * * * * * * * * * * * * * * * * * * * * * * * * * * * * * * * * * * * * * //

dimensions      [1 0 -1 0 0 0 0];

internalField   nonuniform List<scalar> 
850
(
-0.00323697
0.00330024
-0.00448333
0.00124635
-0.00540587
0.000922536
-0.00606
0.000654131
-0.00639652
0.00033651
-0.00636303
-3.34869e-05
-0.00589837
-0.000464673
-0.00497749
-0.000920875
-0.00366177
-0.00131572
-0.00210188
-0.0015599
-0.000527018
-0.00157487
0.000686957
-0.00121399
0.00126641
-0.000579466
0.00118194
8.44645e-05
0.00118489
-0.00103362
0.00103793
-0.000752423
-0.000281211
-1.35133e-05
-0.000738926
0.000687383
-0.000700912
0.00120964
-0.000522269
0.00149675
-0.000287131
0.00161832
-0.000121587
0.00167866
-6.0354e-05
0.00171388
-3.52393e-05
0.0017319
-1.80421e-05
0.00173714
-5.26114e-06
0.00173047
6.65148e-06
0.00170462
2.5839e-05
0.00163711
6.74885e-05
0.00148945
0.000147631
0.00124641
0.000243021
0.000917439
0.000328951
0.000923002
-0.00234281
0.00581447
-0.00354747
0.00245102
-0.00451169
0.00188675
-0.00518875
0.00133119
-0.00555663
0.000704384
-0.00556666
-2.34631e-05
-0.0051676
-0.000863732
-0.00435341
-0.00173507
-0.00321998
-0.00244915
-0.00194692
-0.00283297
-0.000745553
-0.00277624
0.000250595
-0.00221014
0.000960911
-0.00128979
0.00144045
-0.000395088
0.0022618
0.000363538
0.00186461
0.000402153
0.00124466
0.000625481
0.00126045
-4.53773e-06
0.00105559
0.000433526
-0.000719289
0.000862787
-0.0011682
0.0012302
-0.00106834
0.00151916
-0.000811249
0.00158691
-0.000354898
0.00159752
-0.000132217
0.00160956
-7.2408e-05
0.00161947
-4.51721e-05
0.00162525
-2.38381e-05
0.00162791
-7.94126e-06
0.00162741
7.13757e-06
0.00162055
3.26786e-05
0.00157842
0.000109599
0.00140091
0.000325115
0.0010981
0.000545806
0.000724413
0.000702618
0.00166194
-0.00165515
0.00773306
-0.00268888
0.00348474
-0.00357655
0.00277441
-0.00419969
0.00195433
-0.00456523
0.00106992
-0.0046144
2.57003e-05
-0.00426026
-0.00121787
-0.0035214
-0.00247393
-0.00253737
-0.00343318
-0.00148947
-0.00388088
-0.000540339
-0.00372537
0.000234418
-0.00298491
0.000865529
-0.00192091
0.00135762
-0.000887187
0.00173227
-1.11253e-05
0.00159757
0.000536845
0.00110564
0.0011174
0.00238057
0.0015236
-0.000450354
0.00173378
-0.000929475
0.00168891
-0.00112335
0.00174462
-0.00112407
0.00197133
-0.00103797
0.00161657
0.00148449
0.00141222
0.00136718
0.00134348
0.00133567
0.00134294
0.00137576
0.00148549
0.00121659
0.000593994
0.000900987
0.000861383
0.000531095
0.00107248
0.002215
-0.00114727
0.00922292
-0.00195161
0.00428909
-0.00259284
0.00341563
-0.00305737
0.00241886
-0.00335628
0.00136882
-0.00341133
8.07476e-05
-0.00305951
-0.00156969
-0.00238495
-0.00314849
-0.00157342
-0.0042447
-0.000776441
-0.00467786
-9.64892e-05
-0.00440533
0.000458704
-0.00354012
0.000918297
-0.00238052
0.00126823
-0.00123714
0.00152544
-0.000268346
0.00160532
0.000456956
0.00167121
0.00105151
0.0026851
0.00136667
0.00229546
0.000405621
0.00215751
-0.000312408
0.00206572
-0.000837703
0.001947
-0.00100464
0.00180954
-0.000986627
0.00157055
-0.000798994
0.0019326
-0.000362226
0.00210983
-0.000177411
0.00222134
-0.000111679
0.00228958
-6.84273e-05
0.00230503
-1.56262e-05
0.00224986
5.49827e-05
0.0021011
0.000148582
0.00182384
0.000277075
0.00135514
0.000468512
0.00112888
0.000820226
0.000774602
0.00121564
0.000295752
0.00155131
0.002539
-0.000772845
0.0104062
-0.00135215
0.00486839
-0.00157827
0.00364175
-0.00177575
0.00261634
-0.00192141
0.00151448
-0.00190368
6.30155e-05
-0.00148249
-0.00199088
-0.000903435
-0.00372754
-0.000331477
-0.00481665
0.000148733
-0.00515807
0.000510542
-0.00476715
0.000795702
-0.00382529
0.00102068
-0.00260552
0.00119032
-0.00140678
0.0013445
-0.000422547
0.00151088
0.000290564
0.00179687
0.000765508
0.00225894
0.000904598
0.0022859
0.000378646
0.00221629
-0.000242807
0.00200606
-0.000627491
0.00177806
-0.00077665
0.00156037
-0.000768962
0.00139642
-0.000635063
0.00143624
-0.000402076
0.00150081
-0.000242014
0.00155591
-0.000166801
0.00160509
-0.000117638
0.00164091
-5.14825e-05
0.00164364
5.22151e-05
0.00159273
0.000199459
0.00147662
0.000393153
0.00130314
0.000641955
0.00114238
0.000980956
0.000973923
0.00138407
0.000611041
0.00191416
0.000874126
0.00227589
-0.00131704
0.00221601
-0.00197477
0.00068089
-0.00189394
-0.000631731
0.0115058
-0.000980486
0.00521714
-0.000609248
0.00327051
-0.000418039
0.00242513
-0.000310781
0.00140721
-1.19843e-05
-0.000235793
0.00045944
-0.0024623
0.000859915
-0.004128
0.00111047
-0.00506719
0.00120791
-0.0052555
0.00120201
-0.00476126
0.00114187
-0.00376517
0.00105667
-0.00252035
0.000979471
-0.0013296
0.000968368
-0.000411462
0.00106002
0.000198898
0.00127626
0.000549256
0.00158492
0.000595923
0.00170756
0.000255985
0.00161088
-0.000146136
0.00140318
-0.000419815
0.00117177
-0.00054526
0.000957919
-0.000555142
0.00080262
-0.000479794
0.00075509
-0.000354579
0.000777173
-0.000264131
0.000831972
-0.000221636
0.000906702
-0.000192406
0.00099444
-0.00013926
0.00107741
-3.07981e-05
0.0011352
0.000141634
0.00116788
0.000360433
0.00118619
0.000623614
0.00123116
0.000935944
0.00135765
0.00125754
0.00159674
0.00167505
0.00201753
0.00185507
0.00239062
0.00184289
0.00188136
0.00119011
5.8281e-05
-0.000715685
0.01274
-0.000517539
0.00501899
0.000623972
0.00212899
0.00115099
0.00189811
0.00162575
0.000932447
0.00225845
-0.000868505
0.00265996
-0.00286381
0.00279212
-0.00426014
0.00265147
-0.00492652
0.00230207
-0.0049061
0.00183754
-0.00429674
0.00134659
-0.00327424
0.000887049
-0.00206083
0.000530049
-0.000972624
0.00034969
-0.000231126
0.00035935
0.000189219
0.000517186
0.000391401
0.00072575
0.00038734
0.000803842
0.000177872
0.000724706
-6.70254e-05
0.000554798
-0.000249935
0.000355172
-0.000345665
0.000169048
-0.000369053
3.39821e-05
-0.000344765
-1.95251e-05
-0.000301111
-5.34256e-06
-0.000278355
5.05439e-05
-0.000277565
0.000135881
-0.000277786
0.000250941
-0.000254363
0.000400521
-0.000180422
0.00056603
-2.39181e-05
0.000732573
0.000193848
0.000914626
0.00044152
0.00114106
0.000709476
0.00144387
0.000954696
0.00188432
0.00123456
0.00248317
0.00125618
0.00335768
0.000968348
0.00360756
0.000940194
0.00373914
0.00300109
0.0103173
0.00374621
0.00427386
0.00366785
0.00220735
0.00386153
0.00170441
0.00446377
0.000330201
0.00508367
-0.00148841
0.0052004
-0.00298052
0.00483332
-0.00389304
0.00410033
-0.00419351
0.0031527
-0.00395847
0.00212869
-0.00327275
0.00116061
-0.00230619
0.000323717
-0.00122397
-0.000217258
-0.000431683
-0.000447571
-8.41795e-07
-0.000458371
0.000199991
-0.00034881
0.000281814
-0.000221099
0.000259601
-0.000182967
0.000139709
-0.000249576
-4.50503e-07
-0.000384492
-0.000115057
-0.000541511
-0.000188685
-0.000684511
-0.000226096
-0.000787364
-0.000241956
-0.000836402
-0.000252118
-0.000843725
-0.000271078
-0.000825437
-0.000295899
-0.00078827
-0.000315001
-0.000726939
-0.000315741
-0.000622888
-0.000284519
-0.00044328
-0.000203571
-0.000205688
-4.37899e-05
6.40297e-05
0.00017176
0.000369047
0.000404417
0.00068889
0.000634813
0.00105853
0.000864882
0.00144427
0.000870411
0.00178263
0.000629945
0.00101579
0.001707
0.0050697
0.0109604
0.0152344
0.0127641
0.00467761
0.0115519
0.00291666
0.0106099
0.0012722
0.00946424
-0.000342759
0.00804873
-0.00156496
0.00646476
-0.00230904
0.00478958
-0.00251832
0.00312958
-0.00229847
0.00156402
-0.00170723
0.000204206
-0.000946413
-0.000726129
-0.000293684
-0.00116807
1.02181e-05
-0.00130705
0.000138104
-0.00129814
0.000191046
-0.00122833
0.000211963
-0.00116126
0.000192501
-0.0011517
0.000130108
-0.00120429
5.20931e-05
-0.00130012
-1.92709e-05
-0.00141365
-7.51966e-05
-0.00152197
-0.000117832
-0.0016126
-0.000151373
-0.00168506
-0.000179705
-0.00175138
-0.000204812
-0.00182548
-0.000221849
-0.00191923
-0.000221298
-0.00204405
-0.00019097
-0.00221294
-0.00011567
-0.0024395
2.29476e-05
-0.00271524
0.000231904
-0.00307377
0.000530244
-0.00360887
0.000939475
-0.00442486
0.00145076
-0.00557598
0.00201596
-0.00717044
0.00246483
-0.00899738
0.00245685
-0.00835915
0.00106873
-0.00294149
0.00925035
0.00699699
0.00734295
0.00482413
0.00673788
0.00187738
0.00613565
0.000259561
0.00516785
-0.000597112
0.00389422
-0.00103541
0.00238754
-0.00101167
0.000807403
-0.000718379
-0.000593215
-0.000306682
-0.00154468
4.9971e-06
-0.00197
0.000131584
-0.00211372
0.000153893
-0.00212991
0.00015426
-0.00209426
0.000155343
-0.00203842
0.000156086
-0.0019914
0.000145435
-0.00197896
0.000117611
-0.00200628
7.93684e-05
-0.00206478
3.91806e-05
-0.00214114
1.1108e-06
-0.00222046
-3.85722e-05
-0.00230146
-7.04283e-05
-0.00238902
-9.21926e-05
-0.00249013
-0.000103756
-0.00260859
-0.000103439
-0.00274291
-8.70246e-05
-0.00288538
-4.85502e-05
-0.00301803
1.69377e-05
-0.00313043
0.000135296
-0.00322799
0.00032942
-0.00332266
0.000624876
-0.00342721
0.00104399
-0.00354908
0.00157259
-0.00363452
0.00210135
-0.00357874
0.00240901
-0.00316368
0.00204175
-0.00177314
-0.00032185
-0.00462538
-0.000687923
0.00775062
0.000830335
0.00330593
0.00112819
0.00157956
0.000912075
0.000475655
0.000371219
-5.63246e-05
-0.000512169
-0.000152135
-0.00149755
-2.63593e-05
-0.00229771
8.17192e-05
-0.00275502
0.000150567
-0.00291941
0.000169325
-0.00293047
0.000142595
-0.00289456
0.00011793
-0.00284302
0.000102675
-0.0027844
9.66692e-05
-0.00272182
9.34534e-05
-0.00266193
8.54918e-05
-0.00261354
6.91644e-05
-0.00258097
4.67372e-05
-0.00256432
2.24828e-05
-0.0025629
-3.72221e-07
-0.00257265
-2.88729e-05
-0.00259366
-4.94806e-05
-0.00262562
-6.02854e-05
-0.00266737
-6.20585e-05
-0.00271624
-5.46201e-05
-0.00276713
-3.61875e-05
-0.00281323
-2.49003e-06
-0.00284144
4.50949e-05
-0.00282385
0.000117658
-0.00273196
0.000237483
-0.00252882
0.000421696
-0.00218428
0.0006994
-0.00170477
0.00109304
-0.00107828
0.00147482
-5.46806e-05
0.00138537
0.00130576
0.000681268
0.00162952
-0.000645657
-0.00289767
-0.0132145
-0.0171127
-0.00931065
-0.00597049
-0.00436367
-0.00386627
-0.00390456
-0.00404076
-0.00405236
-0.00395642
-0.00379183
-0.0036085
-0.00345187
-0.00331992
-0.00320325
-0.00309259
-0.00298509
-0.00288539
-0.00280174
-0.00274016
-0.00270244
-0.00268725
-0.00270033
-0.00273387
-0.00277815
-0.00282422
-0.00286293
-0.00288338
-0.00287037
-0.00281011
-0.00267768
-0.00242588
-0.00199038
-0.00127774
-0.000172051
0.00131455
0.00271128
0.00340389
0.00277005
)
;

boundaryField
{
    floor
    {
        type            calculated;
        value           nonuniform List<scalar> 
36
(
0
0
0
0
0
0
0
0
0
0
0
0
0
0
0
0
0
0
0
-5.58717e-06
-1.45529e-05
-2.19863e-05
-2.82769e-05
-2.48811e-05
-2.31934e-05
-2.19096e-05
-2.95874e-06
-4.97172e-06
-5.53343e-06
-6.29041e-06
-4.32289e-06
-9.5127e-06
-1.31405e-05
-1.44899e-05
-1.76775e-05
-1.59947e-05
)
;
    }
    ceiling
    {
        type            calculated;
        value           nonuniform List<scalar> 
43
(
-5.32017e-05
-5.22689e-05
-5.14159e-05
-3.42914e-05
-2.73388e-05
-2.18369e-05
-1.81159e-05
-1.60079e-05
-1.48201e-05
-1.4278e-05
-1.40836e-05
-1.40655e-05
-1.40886e-05
-1.40815e-05
-1.40541e-05
-1.40467e-05
-1.41054e-05
-1.42681e-05
-1.45468e-05
-1.49102e-05
-1.52925e-05
-1.56231e-05
-1.58512e-05
-1.59961e-05
-1.606e-05
-1.60464e-05
-1.59572e-05
-1.57922e-05
-1.55488e-05
-1.5217e-05
-1.48196e-05
-1.43614e-05
-1.38506e-05
-1.32931e-05
-1.26931e-05
-1.18256e-05
-1.14057e-05
-1.13907e-05
-1.18561e-05
-1.17577e-05
1.96845e-06
-1.45539e-07
-6.56685e-05
)
;
    }
    sWall
    {
        type            calculated;
        value           uniform -0.000248102;
    }
    nWall
    {
        type            calculated;
        value           nonuniform List<scalar> 6(-5.89574e-05 -7.08928e-05 -7.33286e-05 -8.92996e-05 -9.82364e-05 -0.000115911);
    }
    sideWalls
    {
        type            empty;
        value           nonuniform 0();
    }
    glass1
    {
        type            calculated;
        value           nonuniform List<scalar> 9(-6.32716e-05 -0.000171422 -0.00026344 -0.000342596 -0.000410434 -0.000467847 -0.000518497 -0.000578428 -0.000645037);
    }
    glass2
    {
        type            calculated;
        value           nonuniform List<scalar> 2(-0.000314811 -0.000347999);
    }
    sun
    {
        type            calculated;
        value           uniform 0;
    }
    Table_master
    {
        type            calculated;
        value           nonuniform List<scalar> 9(-1.54276e-07 -1.5445e-07 -1.54505e-07 -1.54537e-07 -1.54556e-07 -1.54567e-07 -1.54569e-07 -1.54558e-07 -1.54519e-07);
    }
    Table_slave
    {
        type            calculated;
        value           nonuniform List<scalar> 9(1.54094e-07 1.54078e-07 1.54026e-07 1.5399e-07 1.53976e-07 1.53971e-07 1.53988e-07 1.5404e-07 1.54139e-07);
    }
    inlet
    {
        type            calculated;
        value           uniform -0.0115697;
    }
    outlet
    {
        type            calculated;
        value           nonuniform List<scalar> 2(0.0135158 0.00395038);
    }
}


// ************************************************************************* //
