/*--------------------------------*- C++ -*----------------------------------*=========                 |
  \      /  F ield         | OpenFOAM: The Open Source CFD Toolbox
   \    /   O peration     | Website:  https://openfoam.org
    \  /    A nd           | Version:  6
     \/     M anipulation  |
\*---------------------------------------------------------------------------*/
FoamFile
{
    version     2.0;
    format      ascii;
    class       volScalarField;
    location    "270";
    object      PMV;
}
// * * * * * * * * * * * * * * * * * * * * * * * * * * * * * * * * * * * * * //

dimensions      [0 0 0 0 0 0 0];

internalField   nonuniform List<scalar> 
458
(
1.3168670952983796
1.0695566610583964
1.0344310726073465
1.0058805701920088
0.9890667958209434
0.9825337879964463
0.9884786638624434
1.0075306586951172
1.0433610510642914
1.1008068336509984
1.1808555365633784
1.231988001190095
1.244407735376816
1.2520504000279784
1.2635140287818178
1.4053329613416563
1.3910119922207336
1.3867154973612486
1.395308393695943
1.4024688524172308
1.4072423433748
1.4012559871475179
1.397746449384187
1.3991543789541254
1.4020344252628414
1.405550639351809
1.409794939723777
1.4151318382731566
1.4225426504133478
1.434288954542291
1.4516298499129812
1.4583108637085713
1.4745350593968132
1.2465197837938757
1.082595072751577
1.0687393562012908
1.040581317291933
1.024990852260934
1.0180999144674965
1.0219638246698552
1.0319380105688485
1.049556577207594
1.0789537854929514
1.1268683167223632
1.2021705836959002
1.2448854075510363
1.2539610358344817
1.2255697188219716
1.1956049287246426
1.2084524453136953
1.2425070507998346
1.36960000144044
1.3743028861690276
1.374780308235049
1.3848059143913587
1.3872602229706503
1.3888978763565354
1.3903357353915693
1.393149338830492
1.395610576035347
1.3972375139252093
1.3995167505825639
1.4016614264653975
1.4045975123850245
1.4090631169395968
1.419423375570641
1.4339716277977492
1.4430395884755203
1.434602369144066
1.2737936227408495
1.0751165912987555
1.1028733735873344
1.089261470677839
1.0832934410042272
1.0803033045350532
1.0816313589968076
1.0738310726360558
1.0563561102710566
1.047181316315522
1.0716537822551637
1.1403087732034152
1.2319622024947894
1.2639916701793932
1.2625951128732853
1.2462278822752724
1.2464749833112114
1.245179863223108
1.2732969120712665
1.3232141895710665
1.3298489815657972
1.3427159629579435
1.3590031055132261
1.3652130012155763
1.3897650000474704
1.408684097836629
1.4120157140596052
1.413925028324873
1.4158343230136066
1.4182209136992538
1.420130163990704
1.4225166988759657
1.42758141673174
1.4330170784111773
1.429887530472863
1.36326209654426
1.3447997661097228
1.0700450485709323
1.128109361076064
1.1429779019188786
1.1627707326511896
1.174370194089142
1.173417367763198
1.1313322301285715
1.0640448379470782
1.0171652935857292
1.0277433914753962
1.0993776075753432
1.1951154528101011
1.2753335274576145
1.2869174994024284
1.2715167388864541
1.2335718034586418
1.2086096764092207
1.1702128980373183
1.2338796035485438
1.2762333226279363
1.3119127772313406
1.3522895265180472
1.3958528882581454
1.428615682954696
1.4303434477794732
1.4312912878426434
1.436731529117798
1.4433714259291537
1.4523090080292993
1.4646268157926028
1.4820665058499138
1.5092996473058578
1.4998224184645952
1.4726264145043315
1.4163687171626136
1.321083434896688
1.4364205794332092
1.0791802317732202
1.1475186145545733
1.191548257571413
1.2541243323844775
1.3021781918640958
1.2894032973518286
1.1840774903445788
1.0664368033931968
0.9911069983606401
0.9975369889784608
1.072607150239857
1.1790946590141822
1.2775824730754148
1.3127066936264975
1.312229139852719
1.2725780535527675
1.2452625225719405
1.2492730536757701
1.272287433401458
1.3113791668296724
1.3620171172892512
1.4147778974923597
1.4655640692234915
1.5067893674303197
1.5243765032508494
1.5334947554718696
1.540685940151083
1.545156207503735
1.546905790857579
1.547857342156581
1.5487232761017673
1.5472153528933106
1.5256646921962198
1.4889210871996892
1.4082001482323567
1.3996408470214432
1.4160363418017983
1.5057401684354283
1.386485554318127
1.5322980691085357
1.11041317772108
1.1820159001049628
1.2274375949032728
1.3264455718368233
1.3900572236183053
1.3444494183151485
1.1911501493273793
1.0516541376501574
0.9687044628041157
0.9761310014520703
1.0626726062384342
1.186829785459451
1.3076115177238283
1.3499529299322024
1.351385356344769
1.3466105656100753
1.3364461618196346
1.3453484336633932
1.3745458764341814
1.4190516582690582
1.4713212325434466
1.5103178285826173
1.5413225593635327
1.5651676150300449
1.5828087571287583
1.5952047492069081
1.6037858543619343
1.6080761771947534
1.6075994822877762
1.6037858543619343
1.5961582353353452
1.5851926979849171
1.550618505722215
1.5056667942318862
1.4277170360101439
1.4151088071859892
1.4130830301319275
1.4397677804041502
1.450894969040941
1.6262589157463445
1.1990108546411369
1.3067896756181197
1.2954411118399187
1.3617037656112945
1.393927609374387
1.2951184011554508
1.1528881117401355
1.011485400319836
0.9357585352818236
0.9624661855881173
1.0752383621149055
1.2294936378778736
1.372870613361068
1.401036781897683
1.4062876547577459
1.4048556128376521
1.4120157140596052
1.4358807111144865
1.469763404775711
1.5069784601258753
1.5432303191242482
1.5747044279780444
1.5994953779019332
1.6171330145800913
1.6295254376371084
1.6366742991025636
1.6404868387134162
1.640963396970028
1.638104016750971
1.6304786453377471
1.6199929228164025
1.606646086739792
1.5885301385701982
1.5411770679021293
1.4735578669753329
1.4386822670960366
1.4168154636314207
1.3908419372345977
1.4936404730285262
1.7660189016077734
1.5674724260874129
1.512080889477519
1.4031343316007416
1.380113957983549
1.344579770603549
1.2291754341349501
1.0597885860001877
0.9224280606818736
0.8843032121245443
0.9654306679298081
1.1310594809685859
1.33125368042557
1.4368352450201074
1.4664231628810955
1.4735807397851126
1.4773979840880322
1.491234721284255
1.5179503857009147
1.5503841802896912
1.5818551680783175
1.6095062504244881
1.6314318450147047
1.6471584670206478
1.6566886572474115
1.661929901913071
1.6638357450050334
1.6633592874495513
1.660024024578735
1.655259182303711
1.6481115236873025
1.6376274462367328
1.6252359041172564
1.6095062504244881
1.5913907303501946
1.5718434582760725
1.5603989458069345
1.534791469734905
1.4586192344797972
1.3701159626856714
1.975227232738044
1.8322010259022798
1.6753656156432088
1.5397352861446356
1.4466581657460185
1.3094122673622952
1.0529373675556568
0.837653179505638
0.7618588286867272
0.8356785677997595
1.033282194967882
1.2831765106419024
1.4544931740533138
1.515565254486232
1.5379839160858766
1.546091908832378
1.5561069957550853
1.5732739511218716
1.5971117139992514
1.6223761257294151
1.6433461574628927
1.6585811982827265
1.6613023184684275
1.660625566921513
1.6579813586878387
1.6530619509546078
1.645834707765423
1.637047373668563
1.626731078588886
1.6138908617507877
1.599157574827587
1.5830536917376206
1.5668145285925779
1.548028982464885
1.527394383005929
1.5084347616136027
1.496996157817133
1.4924024023707687
1.4830959066867329
1.454482324014464
-1.7679657026138687
-0.9509803989090377
-0.4813747674139635
-0.28770254868780787
-0.051175902722807934
0.25953188355799334
0.6124972265035984
0.9736056441590679
1.2955141847218448
1.480737997796064
1.526405610430846
1.5429144513555275
1.5537145901826628
1.5648631168234826
1.5803368093743577
1.5989707546104932
1.6179026657001514
1.6323382295127549
1.6408398518925755
1.6438712453497295
1.6431561707188251
1.6393335533210804
1.633173619506808
1.6262210317272485
1.617745733571839
1.6087242362498722
1.599914163727533
1.5917899480256412
1.584777669281319
1.5789064801167132
1.5738792523431973
1.5698364329100567
1.5664931201293355
1.5665923476399417
1.5767629494597204
1.6142237952471936
1.691289370498139
1.541972221685203
-1.7677355446685716
-0.7125609250499435
-0.07734862601162865
0.250199831294828
0.5739745772715671
0.9433732618628963
1.2415416867459144
1.387119161560082
1.4668658369386607
1.517500189083535
1.5444485419059633
1.561697032607736
1.5744731021390455
1.5863826848096227
1.598266058831587
1.6104058218739308
1.6209803701181902
1.6278450268822657
1.6316529352014357
1.6323200857681266
1.6313958644623952
1.6292404785416739
1.6261997116513895
1.6222871997176789
1.6180694421011694
1.6136746118944685
1.6098026425292724
1.6069363006452484
1.604982130138611
1.6059143054906504
1.6102685629586622
1.619534320002863
1.6295786856406769
1.6382530328895242
1.648313452975458
1.6854255365207307
1.631187424146299
1.5816076806652115
-1.0933213097175245
-1.09707071940465
-0.9732026303298357
-0.11627678464255518
0.5296617926499101
0.9901959627601804
1.2611298243921205
1.38841716202242
1.4659123743338784
1.513326404678945
1.5464649083262771
1.5693375144402828
1.5848223672864448
1.5957379229037556
1.6049274980298818
1.612012393115046
1.617277733703222
1.6202805159754603
1.6207528078173343
1.6180120783777736
1.613431679388326
1.6084874465574153
1.6037629937972193
1.5997205170800732
1.595875092199992
1.5927970938195808
1.5911461512249225
1.5901984863217518
1.5914347014219747
1.5950190658771455
1.6015570241543158
1.6125546305524887
1.6332648376212566
1.6712563875816058
1.707184122860871
1.7119465267434464
1.6805077221090123
1.6314428253160462
1.5878831867555419
1.6009155007197644
)
;

boundaryField
{
    ".*"
    {
        type            zeroGradient;
    }
}


// ************************************************************************* //
