/*--------------------------------*- C++ -*----------------------------------*=========                 |
  \      /  F ield         | OpenFOAM: The Open Source CFD Toolbox
   \    /   O peration     | Website:  https://openfoam.org
    \  /    A nd           | Version:  6
     \/     M anipulation  |
\*---------------------------------------------------------------------------*/
FoamFile
{
    version     2.0;
    format      ascii;
    class       volScalarField;
    location    "270";
    object      PPD;
}
// * * * * * * * * * * * * * * * * * * * * * * * * * * * * * * * * * * * * * //

dimensions      [0 0 0 0 0 0 0];

internalField   nonuniform List<scalar> 
458
(
41.13388983125664
29.135405569834546
27.58916489754219
26.36564995766969
25.659437398213015
25.387947422088132
25.634929580209715
26.435534107298054
27.9780370122555
30.54774351725105
34.31338357570192
36.82077454452477
37.44073097045533
37.824240148522385
38.402282021812425
45.789901699279234
45.02719454179719
44.798973464503774
45.25569358259594
45.637125004633646
45.891816097942495
45.57246403155101
45.38548203122745
45.46047239292716
45.61396213488365
45.801517800288494
46.02814193087091
46.313456305281534
46.710269446004126
47.34063948888548
48.2741455737041
48.63464108807626
49.51179068607153
37.54656232991116
29.720549583774286
29.098925309944093
27.85667624248424
27.18125716964488
26.88558611880687
27.051158410920493
27.481121607805576
28.249538535767755
29.556534911838
31.751013686873236
35.349543375875385
37.46465618447956
37.920350879725575
36.502011695760146
35.028959545499404
35.6574292578788
37.345590289568726
43.89276995582838
44.14128966700426
44.16653938211389
44.697632821674304
44.82789229492474
44.91486123919199
44.99125422422294
45.14083184181183
45.271775272928416
45.35838186328352
45.47977805309492
45.59407668404401
45.7506603917668
45.98904843675472
46.54316050914463
47.32358824295884
47.81129937089875
47.357481672424626
38.92340155608931
29.384197436235254
30.642324694977944
30.02201824844073
29.752058999612913
29.617267431361782
29.677096009218133
29.326577229453278
28.54910527920491
28.14528493155983
29.22911815017757
32.38031502338421
36.819491027324155
38.42643820523559
38.35582482993947
37.53192869752816
37.544316244365504
37.47940758100929
38.89816171026127
41.46306689232938
41.808053524375005
42.47960110145149
43.33418254775379
43.661282953409874
44.96092742008975
45.96880439218742
46.146819220996676
46.24890576196477
46.35104014746126
46.478774500105835
46.58101434859617
46.70887863164465
46.98047073705449
47.27230356212478
47.104239275250094
43.55844764554317
42.58866091453894
29.157215930439946
31.808874980199718
32.50598128068337
33.444893677236706
34.00079374945112
33.954975058745646
31.959370003284008
28.88984463622242
26.84562027214136
27.299853453989982
30.482415728200905
35.00510975006466
39.00168810594762
39.59241237239384
38.8077531365145
36.89960493107412
35.6651498594225
33.8010837056996
36.91493283663122
39.04745883292562
40.877535992138846
42.981328413215266
45.284671751719685
47.03597155257193
47.128715858414516
47.17961000693282
47.47192797774437
47.82916430974436
48.31077150039783
48.97583084970845
49.91971998182089
51.39798077526668
50.8830339048512
49.40848319162799
46.379635306027666
41.35246664854082
47.45521059737677
29.566721252186497
32.7202868829354
34.831508735686384
37.92856951135249
40.375378203327806
39.7195860651614
34.46914901701409
28.996278392988444
25.744556430596987
26.013860170737516
29.27177191907424
34.228385117301954
39.116123736109905
40.91858077753127
40.89389004335401
38.861644225102
37.483548986990165
37.68469818349208
38.84688449078858
40.849956404977966
43.49285771112983
46.29452250213887
49.02649266073578
51.26153827778509
52.218056738544036
52.71442970845485
53.10605478860849
53.34955363770947
53.44486336852859
53.49670150288334
53.54387639171741
53.4617274060772
52.28816640519405
50.29135397395958
45.94295872766941
45.486389839186884
46.36184962573351
51.20452012110063
44.78676745940993
52.6492714368998
30.98863000149875
34.36944567300539
36.59466411862221
41.6309756080419
44.97645449279603
42.57031900249773
34.812157515572906
28.341773019657055
24.81867301904981
25.12346187238728
28.828877136578228
34.602453503783266
40.65540092003105
42.85871459816103
42.93386974150057
42.68349962262509
42.15196395621181
42.61739023559385
44.154140368198036
46.523254842623906
49.337856078911194
51.45333135610175
53.14072977316432
54.439834064711995
55.4008557440175
56.075772561292275
56.54269064224816
56.77602473340986
56.75010321030255
56.54269064224816
56.12766736715174
55.53068413419686
53.64712881820704
51.20053285311734
46.98774759753719
46.312224223364915
46.2038800385583
47.63522171299802
48.234519876907115
57.76387279326382
35.195106504466864
40.613003246645036
40.02907331747302
43.476353538021066
45.1822277454159
40.01251072373323
32.9745519111264
26.603441474877272
23.4925709369395
24.56430759068695
29.38965852258356
36.69675986013301
44.065563029014
45.560779902857064
45.840852620944396
45.7644309697865
46.146819220996676
47.426188654825026
49.2535762868417
51.27181502180161
53.24464487865669
54.95941387439186
56.309270635307854
57.268301404981656
57.941131086675796
58.32880862649751
58.53540606420982
58.56122233566854
58.406296516610126
57.992843600524566
57.42365849073081
56.69825673412948
55.71241662512098
53.132805166166804
49.45889535531495
47.57682935660086
46.40354337626332
45.01815614581757
50.547411187086674
65.24132936157918
54.56541043552996
51.54918693171136
45.672612409636294
44.448879393242414
42.57714312032908
36.680951504451194
28.70096045289627
22.968222840327627
21.508122057302373
24.684995099688862
31.946620599306414
41.8812076034201
47.47750423294257
49.07293653210908
49.46013336936219
49.6668046740273
50.41686533166728
51.86840543192041
53.634362527559595
55.34892019499441
56.85378231337686
58.044549450251225
58.89665658713545
59.412025791867485
59.695098552813555
59.79796338413159
59.77225078826847
59.59219559951062
59.33477599619302
58.94823176638661
58.380469044999664
57.70834463045789
56.85378231337686
55.86815951648948
54.80355314320927
54.18000972524237
52.78503860006787
48.65129071481121
43.92001718156052
75.6190479442975
68.66055595126387
60.419456704889804
53.05427660694527
48.006174723754725
40.74835045124432
28.398277785115567
19.802569434739596
17.225887003910998
19.732370037685385
27.539346932171952
39.401294280883896
48.42859151730281
51.738669636088524
52.95889156409305
53.40052606128096
53.94615997909219
54.88148519569248
56.179558618986654
57.553083563969835
58.69027490567286
59.5142701949394
59.661217767986024
59.62467820970121
59.48186761111711
59.215999085320526
58.82500782345443
58.34903002001898
57.789499107508995
57.09212527618094
56.290889659250844
55.41419536365004
54.52956555521939
53.50605215892059
52.38231351191625
51.35096765757613
50.729565291678924
50.480223782131844
49.97550940106627
48.428006118551004
65.34331346996817
24.09995577804453
9.83999183943638
6.719490146600805
5.054220401025617
6.39836439383545
12.86868867474361
25.01958009159219
40.03282399046342
49.84773175553507
52.32849340158623
53.22743921568995
53.81581120967208
54.42324344765242
55.266221629339
56.280723972548955
57.310115249052636
58.09370997760704
58.55452978266884
58.71870800062499
58.67998671998354
58.4729225496467
58.139014781302286
57.76181660180165
57.30158966001704
56.811262935033966
56.33205754818943
55.88989274396057
55.508082787916216
55.1883136170682
54.91446076235064
54.69420840744821
54.51205384444088
54.51746019091986
55.071551834060415
57.11021921103843
61.27528549365565
53.17611595906893
65.33126056563208
15.681333085975226
5.123880231390373
6.299354052311813
11.901588582514933
23.795268451579503
37.29730428938491
44.82040306784497
49.09687069049874
51.843915817125634
53.311004347761234
54.25073729092787
54.946812022557594
55.595485310921646
56.242377293322306
56.902689854595685
57.47728807134545
57.849952140287606
58.056541480105764
58.09272595276915
58.0425978169536
57.92567056137083
57.760659430181065
57.548254850399395
57.319175492562096
57.08037243677819
56.869896871544654
56.71403925437838
56.60775959357195
56.65845905919503
56.895227669549634
57.39874922592005
57.94402000930352
58.41437200826507
58.95915827846301
60.96049083676601
58.03129155851646
55.33544091908603
30.206364800870645
30.37711810934195
25.00302476913531
5.2800449549327055
10.868723192801838
25.706527566220544
38.281788500217594
44.8893281783138
49.04532176081946
51.61691285038742
53.420845593142
54.66702624749129
55.51051694052551
56.10479166263811
56.6047881265904
56.990025433629086
57.27616400178369
57.43927864843772
57.46492936691186
57.31605918618176
57.067169147926336
56.79838772644528
56.54144712977149
56.321520958320825
56.11225723378402
55.94471913759918
55.85484450476796
55.80325148155154
55.87055330500309
56.06566612942562
56.42144207118668
57.01949935203588
58.14396141483186
60.198122204614876
62.1262904817172
62.38057476815593
60.69615470689711
58.04514503469545
55.67719063139031
56.38653941150453
)
;

boundaryField
{
    ".*"
    {
        type            zeroGradient;
    }
}


// ************************************************************************* //
