/*--------------------------------*- C++ -*----------------------------------*\
  =========                 |
  \\      /  F ield         | OpenFOAM: The Open Source CFD Toolbox
   \\    /   O peration     | Website:  https://openfoam.org
    \\  /    A nd           | Version:  6
     \\/     M anipulation  |
\*---------------------------------------------------------------------------*/
FoamFile
{
    version     2.0;
    format      ascii;
    class       volVectorField;
    location    "270";
    object      U;
}
// * * * * * * * * * * * * * * * * * * * * * * * * * * * * * * * * * * * * * //

dimensions      [0 1 -1 0 0 0 0];

internalField   nonuniform List<vector> 
458
(
(0.0265354 0.093471 0)
(-0.183298 0.0291554 0)
(-0.215649 0.0183074 0)
(-0.249886 0.00963055 0)
(-0.271424 0.000156946 0)
(-0.277737 -0.0102492 0)
(-0.265353 -0.0219654 0)
(-0.233722 -0.0350159 0)
(-0.184354 -0.0472921 0)
(-0.123555 -0.0561657 0)
(-0.060868 -0.0585817 0)
(0.00479338 -0.0462879 0)
(0.0435164 -0.0235364 0)
(0.056814 -0.000713075 0)
(0.0414559 0.0372227 0)
(-0.0134015 0.0115019 0)
(-0.0408864 -0.0201347 0)
(-0.0150493 -0.0341077 0)
(0.0187366 -0.0290999 0)
(0.0407368 -0.0205122 0)
(0.0574504 -0.0111231 0)
(0.0673724 -0.00619593 0)
(0.0716734 -0.00438738 0)
(0.0732682 -0.00368083 0)
(0.0740354 -0.0032363 0)
(0.0744406 -0.00288446 0)
(0.0744288 -0.0025283 0)
(0.0737937 -0.00197281 0)
(0.0719897 -0.000835721 0)
(0.0678075 0.00140072 0)
(0.0599164 0.00396331 0)
(0.0518583 0.00687193 0)
(-0.00956825 0.0255398 0)
(0.206294 0.192523 0)
(-0.168682 0.0801749 0)
(-0.175521 0.0613412 0)
(-0.211872 0.044127 0)
(-0.23455 0.0241265 0)
(-0.242751 0.000550995 0)
(-0.23279 -0.0271885 0)
(-0.205126 -0.0563211 0)
(-0.162062 -0.0811928 0)
(-0.110111 -0.09594 0)
(-0.0577492 -0.0959823 0)
(-0.00998827 -0.0763927 0)
(0.0282445 -0.0404157 0)
(0.0549965 -0.00466597 0)
(0.0748423 0.0342888 0)
(0.0938266 0.0437171 0)
(0.0808182 0.0563763 0)
(-0.00152311 0.0852376 0)
(0.0685839 0.0493217 0)
(0.00985828 -0.0272812 0)
(0.0287845 -0.0447386 0)
(0.0452113 -0.0413788 0)
(0.0594033 -0.0309709 0)
(0.0669393 -0.0136363 0)
(0.0689486 -0.00324266 0)
(0.069005 0.000605217 0)
(0.0691506 0.00198211 0)
(0.0694975 0.00271724 0)
(0.0697487 0.00322124 0)
(0.0698202 0.00370433 0)
(0.0696876 0.00455768 0)
(0.0688535 0.00668522 0)
(0.0649281 0.0125483 0)
(0.0550863 0.0178083 0)
(0.0516208 0.0225135 0)
(-0.0580029 0.054358 0)
(0.372252 0.288468 0)
(-0.18204 0.126804 0)
(-0.133354 0.09917 0)
(-0.169881 0.069244 0)
(-0.192003 0.0361061 0)
(-0.201589 -0.00233951 0)
(-0.192853 -0.0464348 0)
(-0.167249 -0.0917083 0)
(-0.128952 -0.127749 0)
(-0.0850337 -0.145807 0)
(-0.0429395 -0.141253 0)
(-0.0059938 -0.112891 0)
(0.0244926 -0.069743 0)
(0.0479187 -0.0285683 0)
(0.0671428 0.0063024 0)
(0.0748701 0.0187157 0)
(0.0687114 0.037009 0)
(-0.0119956 0.082306 0)
(0.134567 -0.00525611 0)
(0.0769666 -0.0371223 0)
(0.0684028 -0.0497298 0)
(0.0724212 -0.0489492 0)
(0.077926 -0.0431949 0)
(0.079719 -0.0315746 0)
(0.0692702 -0.0200169 0)
(0.0613449 -0.0138756 0)
(0.0583969 -0.0104893 0)
(0.0575981 -0.0083244 0)
(0.0572872 -0.00686078 0)
(0.0572949 -0.00573209 0)
(0.0581599 -0.0043948 0)
(0.0610401 -0.000625479 0)
(0.0595056 0.0172488 0)
(0.0465436 0.0292084 0)
(0.0561304 0.037846 0)
(-0.104679 0.081831 0)
(0.525169 0.365924 0)
(-0.21479 0.16767 0)
(-0.0872123 0.133234 0)
(-0.123212 0.093453 0)
(-0.141758 0.0508051 0)
(-0.150856 -0.00054397 0)
(-0.140624 -0.0617407 0)
(-0.115555 -0.122891 0)
(-0.082735 -0.167874 0)
(-0.0484832 -0.18725 0)
(-0.0180694 -0.178006 0)
(0.00812356 -0.142304 0)
(0.0292206 -0.0944213 0)
(0.0465523 -0.0473627 0)
(0.0603007 -0.00781756 0)
(0.0691054 0.0201212 0)
(0.07986 0.0462649 0)
(0.0713724 0.0820163 0)
(0.114485 0.087216 0)
(0.106402 0.00481499 0)
(0.0911079 -0.0330474 0)
(0.0846519 -0.04529 0)
(0.0796684 -0.0458794 0)
(0.0728123 -0.0394367 0)
(0.0728634 -0.0235894 0)
(0.0844528 -0.0151072 0)
(0.0932894 -0.0105191 0)
(0.0975835 -0.00766559 0)
(0.0992123 -0.00532187 0)
(0.0983615 -0.00286121 0)
(0.0942588 7.84289e-05 0)
(0.0855977 0.00396675 0)
(0.0699127 0.00959607 0)
(0.0531242 0.0288417 0)
(0.0375795 0.0447563 0)
(0.0629798 0.057155 0)
(-0.150616 0.102916 0)
(0.662498 0.425433 0)
(-0.258793 0.199814 0)
(-0.0388533 0.154926 0)
(-0.0724518 0.109417 0)
(-0.084189 0.0612482 0)
(-0.089992 0.000101335 0)
(-0.0715804 -0.077212 0)
(-0.0474396 -0.150309 0)
(-0.0230351 -0.198691 0)
(-0.00154429 -0.215609 0)
(0.0149295 -0.200354 0)
(0.0274667 -0.161318 0)
(0.0378249 -0.110069 0)
(0.0464213 -0.0593771 0)
(0.0539437 -0.0168331 0)
(0.0611476 0.0154291 0)
(0.0719853 0.0398515 0)
(0.0840064 0.0495655 0)
(0.100171 0.0144553 0)
(0.0992015 -0.0198593 0)
(0.0912496 -0.0347729 0)
(0.0810946 -0.0395379 0)
(0.0711066 -0.038172 0)
(0.0624905 -0.0310262 0)
(0.0595524 -0.0169496 0)
(0.0622825 -0.00850756 0)
(0.0655625 -0.00473675 0)
(0.0679441 -0.00245977 0)
(0.0697378 0.00025855 0)
(0.0708064 0.0041226 0)
(0.0700116 0.00934772 0)
(0.0667738 0.0162637 0)
(0.060643 0.0256168 0)
(0.0528932 0.0407234 0)
(0.0407234 0.057228 0)
(0.0737112 0.0761957 0)
(-0.0211718 0.108027 0)
(0.0498983 0.162258 0)
(-0.0939525 0.0809082 0)
(-0.286159 0.00111955 0)
(0.76857 0.473905 0)
(-0.306129 0.219951 0)
(0.00226464 0.155292 0)
(-0.0197848 0.115844 0)
(-0.0224468 0.0696104 0)
(-0.0178767 0.00429154 0)
(0.0155756 -0.0986776 0)
(0.0344978 -0.173524 0)
(0.0465351 -0.216712 0)
(0.0520169 -0.22739 0)
(0.051981 -0.208214 0)
(0.0491081 -0.166577 0)
(0.0452701 -0.113519 0)
(0.0419748 -0.0618611 0)
(0.040663 -0.0202066 0)
(0.0426065 0.00941767 0)
(0.0498767 0.0278557 0)
(0.0619953 0.0299798 0)
(0.072058 0.00987293 0)
(0.0724524 -0.00935695 0)
(0.0654572 -0.0219617 0)
(0.0553525 -0.0277752 0)
(0.045262 -0.0279895 0)
(0.0369067 -0.0235508 0)
(0.032483 -0.0157448 0)
(0.0323191 -0.0105393 0)
(0.0342595 -0.00812343 0)
(0.0370999 -0.0064204 0)
(0.0405113 -0.00373483 0)
(0.0444822 0.00106381 0)
(0.0478133 0.00813724 0)
(0.0498697 0.0172959 0)
(0.0510163 0.0287192 0)
(0.0525084 0.0430256 0)
(0.0510756 0.0588638 0)
(0.0781457 0.0797158 0)
(0.0601069 0.092225 0)
(0.0998996 0.100032 0)
(0.122248 0.0561385 0)
(-0.144849 -0.0371912 0)
(0.832746 0.517381 0)
(-0.333785 0.201813 0)
(0.0370061 0.104944 0)
(0.0445205 0.0974897 0)
(0.050525 0.0575684 0)
(0.081365 -0.0272498 0)
(0.112256 -0.119553 0)
(0.124074 -0.185286 0)
(0.121298 -0.218848 0)
(0.108219 -0.221828 0)
(0.0884146 -0.197947 0)
(0.0663498 -0.15462 0)
(0.0451642 -0.10177 0)
(0.0279881 -0.0520981 0)
(0.0171247 -0.0148973 0)
(0.0136194 0.0082188 0)
(0.0184977 0.019858 0)
(0.027676 0.0198213 0)
(0.0339314 0.00812173 0)
(0.0337315 -0.00483022 0)
(0.0280877 -0.0142155 0)
(0.0196191 -0.0188522 0)
(0.0108799 -0.0194898 0)
(0.00364193 -0.0172532 0)
(-0.000435866 -0.0135764 0)
(-0.00100608 -0.0113341 0)
(0.000666987 -0.0106209 0)
(0.00369321 -0.0101216 0)
(0.00781519 -0.00848937 0)
(0.0131052 -0.00442812 0)
(0.0208445 0.00318028 0)
(0.0280965 0.0129599 0)
(0.0354523 0.0241548 0)
(0.0444234 0.0367298 0)
(0.0528311 0.0495431 0)
(0.0753883 0.0658577 0)
(0.088738 0.0699323 0)
(0.124256 0.0604024 0)
(0.171284 0.046948 0)
(-0.0107452 0.0947963 0)
(0.94327 0.516288 0)
(-0.06164 0.182059 0)
(0.12027 0.0432243 0)
(0.173418 0.0178669 0)
(0.175119 -0.0266015 0)
(0.211365 -0.0887162 0)
(0.22943 -0.145046 0)
(0.221834 -0.184398 0)
(0.195146 -0.200721 0)
(0.156422 -0.193786 0)
(0.111728 -0.165812 0)
(0.0676293 -0.122937 0)
(0.0280355 -0.0733094 0)
(-0.001379 -0.029741 0)
(-0.0168187 -0.00351886 0)
(-0.0209068 0.00892978 0)
(-0.0174783 0.014229 0)
(-0.0114022 0.0133014 0)
(-0.0077522 0.00638784 0)
(-0.0085469 -0.00163531 0)
(-0.0131711 -0.00768489 0)
(-0.0198851 -0.010987 0)
(-0.0266566 -0.0120941 0)
(-0.0321038 -0.0119372 0)
(-0.0353115 -0.0115124 0)
(-0.0363481 -0.0117986 0)
(-0.0360087 -0.0126797 0)
(-0.034834 -0.0135173 0)
(-0.032887 -0.013639 0)
(-0.029812 -0.0123501 0)
(-0.0245239 -0.00881694 0)
(-0.0137079 -0.0023355 0)
(-0.00278229 0.00580228 0)
(0.00990801 0.0138879 0)
(0.0215925 0.0200632 0)
(0.0390955 0.0272897 0)
(0.0534954 0.022086 0)
(0.0768895 0.00455951 0)
(0.144617 0.0519165 0)
(-0.468997 0.224555 0)
(1.0942 0.452421 0)
(0.539248 0.302282 0)
(0.542979 0.239969 0)
(0.52715 0.154861 0)
(0.489018 0.0779392 0)
(0.438332 -0.0024375 0)
(0.376703 -0.0744857 0)
(0.310956 -0.122698 0)
(0.241041 -0.141955 0)
(0.168764 -0.136216 0)
(0.0976538 -0.110588 0)
(0.0346827 -0.0726662 0)
(-0.0183066 -0.029794 0)
(-0.044352 -0.00635364 0)
(-0.0552641 0.00402731 0)
(-0.0566235 0.00848269 0)
(-0.0542015 0.0101015 0)
(-0.0506832 0.00904725 0)
(-0.0489535 0.00545479 0)
(-0.0501843 0.00120061 0)
(-0.0533901 -0.00241594 0)
(-0.0582362 -0.00500559 0)
(-0.0632122 -0.00681657 0)
(-0.0675275 -0.00819765 0)
(-0.0709268 -0.00947375 0)
(-0.0737577 -0.0108242 0)
(-0.0766599 -0.012017 0)
(-0.0801813 -0.0126071 0)
(-0.0847764 -0.0120497 0)
(-0.0909619 -0.00965729 0)
(-0.0994366 -0.00452844 0)
(-0.110541 0.00410332 0)
(-0.122629 0.0160671 0)
(-0.140433 0.0315504 0)
(-0.169062 0.0503279 0)
(-0.210906 0.0704104 0)
(-0.267589 0.0865488 0)
(-0.328214 0.0946214 0)
(-0.402874 0.0939157 0)
(-0.679832 0.08424 0)
(0.239381 0.151543 0)
(0.300337 0.139613 0)
(0.308229 0.0638388 0)
(0.278285 -0.00797907 0)
(0.241652 -0.0541977 0)
(0.194051 -0.0768394 0)
(0.135419 -0.0794145 0)
(0.0700681 -0.0669641 0)
(0.000484604 -0.0409171 0)
(-0.052723 -0.014529 0)
(-0.0794067 -0.00125301 0)
(-0.0895909 0.00277387 0)
(-0.0918014 0.00380693 0)
(-0.0909356 0.00397836 0)
(-0.0886231 0.00365624 0)
(-0.0861201 0.00230247 0)
(-0.0847811 -0.000385732 0)
(-0.085252 -0.00384664 0)
(-0.087246 -0.00732801 0)
(-0.0902067 -0.0102826 0)
(-0.0936652 -0.0123995 0)
(-0.0970953 -0.0139446 0)
(-0.100636 -0.0149789 0)
(-0.104626 -0.0154969 0)
(-0.109345 -0.0153067 0)
(-0.114861 -0.0140111 0)
(-0.120958 -0.0110445 0)
(-0.127078 -0.00575158 0)
(-0.132468 0.00238632 0)
(-0.136566 0.0133816 0)
(-0.139992 0.0282081 0)
(-0.143298 0.0474048 0)
(-0.147955 0.0699322 0)
(-0.154663 0.0913412 0)
(-0.159107 0.100735 0)
(-0.142215 0.075774 0)
(-0.0921757 -0.0295695 0)
(-0.289788 -0.233243 0)
(0.148411 0.366816 0)
(0.00889181 0.199007 0)
(0.0259062 0.0871667 0)
(0.0274008 0.0264272 0)
(0.0285046 -0.00179631 0)
(3.66178e-05 -0.00911299 0)
(-0.0440045 0.00350263 0)
(-0.0845332 0.0185068 0)
(-0.111817 0.0286911 0)
(-0.124107 0.0324079 0)
(-0.126334 0.0320797 0)
(-0.125458 0.0313594 0)
(-0.123383 0.0314196 0)
(-0.120901 0.0325369 0)
(-0.11816 0.0345625 0)
(-0.11541 0.0371868 0)
(-0.113062 0.0401451 0)
(-0.111385 0.0432103 0)
(-0.110412 0.045917 0)
(-0.110082 0.0475001 0)
(-0.110236 0.0470016 0)
(-0.110876 0.0459938 0)
(-0.112013 0.0447877 0)
(-0.113617 0.0433894 0)
(-0.115608 0.0417577 0)
(-0.117853 0.0398367 0)
(-0.12014 0.0375265 0)
(-0.122005 0.0345343 0)
(-0.122471 0.0327931 0)
(-0.120044 0.0341628 0)
(-0.113037 0.0400608 0)
(-0.100242 0.0518011 0)
(-0.0821503 0.0694188 0)
(-0.0599997 0.0882417 0)
(-0.0363832 0.100422 0)
(0.00542352 0.0871325 0)
(0.144748 0.00857409 0)
(-0.205311 -0.148741 0)
(-0.495386 -0.562537 0)
(-0.695603 -0.157103 0)
(-0.469568 0.19766 0)
(-0.375553 0.0331595 0)
(-0.227833 -0.0457889 0)
(-0.179663 -0.0816078 0)
(-0.169276 -0.0873126 0)
(-0.171469 -0.0807766 0)
(-0.17513 -0.0756317 0)
(-0.172559 -0.0725957 0)
(-0.166607 -0.0719273 0)
(-0.158933 -0.0736345 0)
(-0.151582 -0.076927 0)
(-0.145433 -0.0804865 0)
(-0.140124 -0.0840879 0)
(-0.135217 -0.0881291 0)
(-0.130462 -0.0933881 0)
(-0.125946 -0.100476 0)
(-0.121979 -0.109324 0)
(-0.118847 -0.118946 0)
(-0.116682 -0.127767 0)
(-0.115543 -0.134225 0)
(-0.115558 -0.137334 0)
(-0.116654 -0.138263 0)
(-0.11842 -0.137295 0)
(-0.120464 -0.134589 0)
(-0.122399 -0.130138 0)
(-0.123789 -0.123751 0)
(-0.124154 -0.115027 0)
(-0.122969 -0.103338 0)
(-0.119256 -0.0900426 0)
(-0.11084 -0.0752314 0)
(-0.094612 -0.0587099 0)
(-0.0682995 -0.0396276 0)
(-0.0334611 -0.0172124 0)
(0.0275731 0.012044 0)
(0.0793465 0.0135273 0)
(0.129707 -0.00948449 0)
(0.182465 -0.0555482 0)
(-0.163086 -0.127737 0)
)
;

boundaryField
{
    floor
    {
        type            noSlip;
    }
    ceiling
    {
        type            noSlip;
    }
    sWall
    {
        type            noSlip;
    }
    nWall
    {
        type            noSlip;
    }
    sideWalls
    {
        type            empty;
    }
    glass1
    {
        type            noSlip;
    }
    glass2
    {
        type            noSlip;
    }
    sun
    {
        type            noSlip;
    }
    Table_master
    {
        type            noSlip;
    }
    Table_slave
    {
        type            noSlip;
    }
    inlet
    {
        type            fixedValue;
        value           uniform (0.5 0 0);
    }
    outlet
    {
        type            zeroGradient;
    }
}


// ************************************************************************* //
