/*--------------------------------*- C++ -*----------------------------------*\
  =========                 |
  \\      /  F ield         | OpenFOAM: The Open Source CFD Toolbox
   \\    /   O peration     | Website:  https://openfoam.org
    \\  /    A nd           | Version:  6
     \\/     M anipulation  |
\*---------------------------------------------------------------------------*/
FoamFile
{
    version     2.0;
    format      ascii;
    class       volScalarField;
    location    "44400.0000000583459";
    object      nut;
}
// * * * * * * * * * * * * * * * * * * * * * * * * * * * * * * * * * * * * * //

dimensions      [0 2 -1 0 0 0 0];

internalField   nonuniform List<scalar> 
778
(
0.000894293
0.000953045
0.000949584
0.00099081
0.0010286
0.00106292
0.00109488
0.00112569
0.0011567
0.00118965
0.00122107
0.0012509
0.00128027
0.00131185
0.00134479
0.000632397
0.000905121
0.000912436
0.000890343
0.00085341
0.000804103
0.000754963
0.000709669
0.000668815
0.000632179
0.000599538
0.000570223
0.000543523
0.000518605
0.000494355
0.000468999
0.000447955
0.000405501
0.00131076
0.00258102
0.00226498
0.00261424
0.0028677
0.00313646
0.0034046
0.00365175
0.00385071
0.00396653
0.00403456
0.00400637
0.00380629
0.00331105
0.00241806
0.00147225
0.00140368
0.0013436
0.00113084
0.00192627
0.00266961
0.00310851
0.00312889
0.00246981
0.00211217
0.00186441
0.00167648
0.001527
0.00139942
0.00128661
0.00118164
0.00107895
0.000986793
0.000907321
0.00102216
0.000514019
0.00166399
0.00360418
0.00267231
0.00382218
0.00427083
0.00465061
0.00499562
0.00529934
0.00555667
0.00575839
0.0059537
0.00615893
0.00634711
0.00645839
0.00638244
0.00584256
0.00427255
0.00164792
0.00142692
0.00305314
0.00425996
0.00483008
0.00439162
0.00115888
0.00100766
0.000891062
0.000799857
0.000727281
0.000668696
0.0006209
0.000582013
0.000551689
0.000606647
0.000713656
0.0011304
0.000584684
0.0020052
0.00485801
0.00255736
0.00429824
0.00496248
0.0053181
0.00557973
0.00577341
0.00591808
0.00603536
0.00620183
0.00648268
0.00689204
0.00740634
0.00792289
0.00817628
0.00767572
0.00572445
0.00164148
0.00380411
0.00565839
0.00659889
0.00682972
0.00582914
0.00131994
0.00120047
0.00110802
0.00103119
0.00096572
0.000906931
0.000851501
0.00079644
0.000736956
0.000688664
0.000714059
0.00122432
0.000643575
0.00234191
0.00643253
0.00258018
0.0040867
0.00510799
0.00541132
0.00552172
0.00552641
0.00547201
0.00542388
0.00549379
0.00576675
0.00626705
0.00697504
0.00779611
0.0085525
0.00903258
0.009027
0.00810222
0.00824552
0.00843502
0.00846108
0.0082882
0.00775666
0.00617186
0.00533081
0.0047549
0.00428647
0.00382766
0.00338347
0.00294894
0.00251493
0.002069
0.00158916
0.00121253
0.0012121
0.000958663
0.000767629
0.00101983
0.000971623
0.00267352
0.00819565
0.00303756
0.00344672
0.00489477
0.00523125
0.00520473
0.00501785
0.00475052
0.00453007
0.00452544
0.00481137
0.00538129
0.00620193
0.00716272
0.00812282
0.00894101
0.00946437
0.00956031
0.00946507
0.00929741
0.00905901
0.00875234
0.00836215
0.0077931
0.0072452
0.00674795
0.00626675
0.00574774
0.00519387
0.00460241
0.00396823
0.00328735
0.00256491
0.0019106
0.00143455
0.00111344
0.00125803
0.0021951
0.00116003
0.00301205
0.00982719
0.00404802
0.00282385
0.00439873
0.00494872
0.00488785
0.004585
0.00414558
0.00375907
0.00374823
0.00410918
0.00476125
0.005678
0.00672186
0.00775571
0.00864646
0.00928535
0.00957996
0.00955808
0.00934853
0.00903056
0.00866623
0.00830267
0.00795104
0.00762848
0.00732555
0.00700174
0.00661101
0.00614097
0.00558457
0.00493916
0.0042074
0.00340804
0.00262632
0.00189671
0.00139601
0.00125509
0.00223185
0.00137106
0.0033034
0.0110643
0.00552032
0.00268848
0.00348534
0.00438799
0.00451349
0.00426421
0.00374566
0.00321891
0.00333871
0.003816
0.00454491
0.00548942
0.00657292
0.00765489
0.00857884
0.00922177
0.00951464
0.0094776
0.0092071
0.00880752
0.00837753
0.00799608
0.00770198
0.00749188
0.00732804
0.00714957
0.00690139
0.00655411
0.006094
0.00551844
0.00483331
0.00405932
0.00325427
0.00243649
0.00170041
0.0011364
0.00330277
0.00181143
0.00339323
0.0104837
0.00683653
0.0034761
0.00236249
0.00289712
0.00338987
0.00343071
0.00302955
0.0029448
0.00325098
0.00381191
0.00459962
0.0056009
0.00673623
0.00785134
0.00877182
0.00936491
0.00957393
0.00943168
0.00903921
0.00852416
0.00801316
0.00760546
0.00734662
0.00721956
0.00716206
0.00709358
0.00695105
0.00670033
0.00632787
0.00583243
0.00522094
0.00451036
0.00373005
0.00285131
0.00165937
0.00141144
0.00521721
0.00203189
0.0033246
0.00845851
0.00706622
0.00477484
0.00315157
0.00244028
0.00231238
0.00242189
0.00262536
0.00294973
0.00340937
0.00404025
0.00489664
0.00597622
0.00717358
0.00830455
0.00917673
0.00965726
0.00970745
0.00938471
0.00881685
0.00816372
0.00758112
0.00718197
0.00699895
0.00697762
0.00701758
0.00701704
0.00692512
0.00672237
0.00640234
0.00596504
0.00541485
0.00475614
0.00396463
0.00285352
0.00132684
0.00235018
0.00517211
0.00208751
0.00311442
0.00723196
0.00683544
0.00546763
0.0042055
0.00338461
0.0029792
0.00288804
0.00305675
0.00336669
0.00381576
0.00448115
0.00542686
0.00661115
0.00787032
0.00897776
0.0097289
0.0100072
0.00980865
0.00923245
0.00845166
0.00767101
0.00707835
0.00678053
0.00674587
0.00684404
0.00694364
0.00694533
0.00684862
0.0066523
0.00635248
0.00594589
0.00542754
0.00476818
0.00383275
0.00242039
0.00140449
0.00273615
0.00562642
0.00210925
0.0028362
0.0065219
0.00659595
0.00579053
0.00492372
0.00427189
0.00388841
0.0037511
0.00378636
0.00397339
0.00438486
0.00512772
0.00622179
0.00753511
0.00882261
0.00981945
0.0103309
0.0102841
0.00973506
0.00884575
0.00785748
0.00703278
0.00656483
0.00646976
0.00655206
0.00668439
0.00677086
0.00674719
0.00663457
0.00643476
0.00614186
0.00574611
0.00521826
0.00444846
0.0031528
0.00172611
0.00169642
0.00323943
0.00562742
0.00211719
0.00258666
0.00583519
0.0063
0.00591804
0.00536104
0.00489365
0.00458304
0.00443159
0.0043864
0.00454463
0.00506583
0.00603694
0.0073628
0.0087872
0.00999328
0.0107152
0.0108134
0.010296
0.0093114
0.00810807
0.00702333
0.00632405
0.00601174
0.00597174
0.0060659
0.00619407
0.00627532
0.00625225
0.00613797
0.00593326
0.00563125
0.00521088
0.00458886
0.0035085
0.00203213
0.00152252
0.00217254
0.00351379
0.00499926
0.00202481
0.00259445
0.00579214
0.00643714
0.00599052
0.00553955
0.00517047
0.00490445
0.00473198
0.00472284
0.00510645
0.00602663
0.00740488
0.00896348
0.0103433
0.0112243
0.0114159
0.0108962
0.00978834
0.00837834
0.00701429
0.00602104
0.00542706
0.00514443
0.00508246
0.0051544
0.00527319
0.00535587
0.00533296
0.00520511
0.00497457
0.004641
0.00418811
0.00353442
0.0025477
0.00165679
0.00167955
0.00250467
0.00360271
0.00434173
0.00194507
0.00234177
0.00243586
0.00359187
0.0042186
0.00441179
0.00441412
0.0043707
0.00444937
0.00498403
0.00612867
0.00774337
0.00949136
0.0109927
0.0119273
0.0121024
0.011477
0.010205
0.00853523
0.00694101
0.00568599
0.00483373
0.00433951
0.00411324
0.00405228
0.00407976
0.00413259
0.00414615
0.00406347
0.00387232
0.00359217
0.00325184
0.00288076
0.00248346
0.002044
0.00170468
0.0018569
0.00265429
0.00375636
0.00487793
0.0019697
0.000807073
0.00146463
0.00226146
0.00290385
0.00364626
0.00489836
0.0067415
0.00879119
0.0106642
0.0120734
0.0128202
0.0127703
0.0119197
0.0103553
0.00848583
0.00670768
0.00528689
0.00432657
0.00379281
0.00352928
0.00340138
0.00333625
0.00329383
0.00324062
0.00314302
0.00298211
0.00276729
0.00253903
0.00233982
0.00219483
0.00210353
0.00205406
0.00206605
0.00227107
0.0029273
0.0042443
0.00506753
0.00211328
0.00149734
0.00207875
0.00303675
0.00474604
0.00706336
0.00938827
0.0111928
0.0125032
0.013308
0.0135511
0.0131296
0.0119359
0.0101488
0.00810822
0.0062176
0.00478275
0.00392267
0.00349329
0.00328778
0.00318398
0.00312776
0.00309117
0.00305254
0.00299183
0.00289658
0.00277322
0.00264885
0.00255339
0.00250536
0.00250675
0.00254964
0.00263219
0.00277775
0.00305705
0.00364367
0.00512066
0.00547923
0.00216023
0.00275674
0.00667041
0.0061319
0.0054857
0.00698149
0.00931847
0.0112949
0.0126344
0.0133483
0.0135366
0.0132868
0.012559
0.0113058
0.00957045
0.00757912
0.00573062
0.00444019
0.00374664
0.00341846
0.00326516
0.00320041
0.00318765
0.00320408
0.00322831
0.00324038
0.0032273
0.00318984
0.00314331
0.00310882
0.00309825
0.00311574
0.00316079
0.00323363
0.00334469
0.003526
0.00384337
0.00443628
0.00590283
0.00615182
0.00218423
0.00263874
0.00510013
0.00658469
0.00841014
0.00934591
0.010317
0.0108873
0.0110315
0.0108286
0.0103372
0.00958126
0.00856786
0.007338
0.00602841
0.00486511
0.00399871
0.00345986
0.00315299
0.00298998
0.00292496
0.00293431
0.00299876
0.00309611
0.0032012
0.00329079
0.00335119
0.00338409
0.00340473
0.00343164
0.00347283
0.00352995
0.00360159
0.00368933
0.00380469
0.00396919
0.00420558
0.00456302
0.00542573
0.00644578
0.0021759
0.00247436
0.00212003
0.00210987
0.00217164
0.00222303
0.00215798
0.00203086
0.00188297
0.00173566
0.00159631
0.00146568
0.00134419
0.00123606
0.00114966
0.00109321
0.00106782
0.00106071
0.00106555
0.00107844
0.00109647
0.00111723
0.00113881
0.00115994
0.00118002
0.00119911
0.00121785
0.00123728
0.00125861
0.0012829
0.00131108
0.00134427
0.00138447
0.0014353
0.00150232
0.00159189
0.00170813
0.00184984
0.00201003
0.00217404
0.00202555
)
;

boundaryField
{
    floor
    {
        type            nutkWallFunction;
        Cmu             0.09;
        kappa           0.41;
        E               9.8;
        value           nonuniform List<scalar> 
36
(
0.000160568
7.63857e-05
0.000109492
0.000110362
0.000107732
0.000103318
9.739e-05
9.14392e-05
8.59132e-05
8.08928e-05
7.63592e-05
7.22933e-05
6.86187e-05
6.52517e-05
6.20909e-05
5.89968e-05
5.57413e-05
5.30225e-05
4.74875e-05
4.74874e-05
6.15066e-05
7.04335e-05
7.77722e-05
9.2976e-05
0.000123033
0.000117364
0.000160568
0.000174993
0.00016725
0.000160432
7.63857e-05
0.000160432
0.000135996
0.000194652
0.000169877
0.000193934
)
;
    }
    ceiling
    {
        type            nutkWallFunction;
        Cmu             0.09;
        kappa           0.41;
        E               9.8;
        value           nonuniform List<scalar> 
43
(
0.000284391
0.000246363
0.000245266
0.000251948
0.000257495
0.000250494
0.000236727
0.000220586
0.000204367
0.000188888
0.000174245
0.000160502
0.000148158
0.000138205
0.000131647
0.000128682
0.000127845
0.000128403
0.000129903
0.000132004
0.000134424
0.000136937
0.000139396
0.000141728
0.000143941
0.000146108
0.000148348
0.000150798
0.000153581
0.000156797
0.000160567
0.000165108
0.000170811
0.000178281
0.000188216
0.000201051
0.00021662
0.000234105
0.000251875
0.000235835
0.000270432
0.000280486
0.000177608
)
;
    }
    sWall
    {
        type            nutkWallFunction;
        Cmu             0.09;
        kappa           0.41;
        E               9.8;
        value           nonuniform List<scalar> 9(0.000373885 0.00035208 0.000322984 0.000296637 0.00029746 0.000270521 0.000314315 0.000301889 0.000284492);
    }
    nWall
    {
        type            nutkWallFunction;
        Cmu             0.09;
        kappa           0.41;
        E               9.8;
        value           nonuniform List<scalar> 
14
(
0.000117372
0.000139387
0.000163558
0.000242933
0.000245244
0.000245767
0.000235878
0.000227321
0.000230301
0.000245739
0.000250785
0.000253103
0.000252018
0.000235871
)
;
    }
    sideWalls
    {
        type            empty;
    }
    glass1
    {
        type            nutkWallFunction;
        Cmu             0.09;
        kappa           0.41;
        E               9.8;
        value           nonuniform List<scalar> 9(0.000108246 0.000156879 0.000196732 0.000234343 0.000270783 0.000306131 0.000341745 0.000372065 0.000381367);
    }
    glass2
    {
        type            nutkWallFunction;
        Cmu             0.09;
        kappa           0.41;
        E               9.8;
        value           nonuniform List<scalar> 2(0.000212847 0.000236997);
    }
    sun
    {
        type            nutkWallFunction;
        Cmu             0.09;
        kappa           0.41;
        E               9.8;
        value           nonuniform List<scalar> 
14
(
0.000108205
0.000115179
0.000114769
0.000119636
0.000124076
0.000128093
0.00013182
0.000135401
0.000138994
0.000142801
0.000146419
0.000149844
0.000153208
0.000156815
)
;
    }
    Table_master
    {
        type            nutkWallFunction;
        Cmu             0.09;
        kappa           0.41;
        E               9.8;
        value           nonuniform List<scalar> 9(0.000139237 0.000121612 0.000107815 9.68769e-05 8.80684e-05 8.08818e-05 7.49628e-05 7.01065e-05 6.62922e-05);
    }
    Table_slave
    {
        type            nutkWallFunction;
        Cmu             0.09;
        kappa           0.41;
        E               9.8;
        value           nonuniform List<scalar> 9(0.000157726 0.000144037 0.00013334 0.000124373 0.000116671 0.000109704 0.000103087 9.64644e-05 8.92485e-05);
    }
    inlet
    {
        type            calculated;
        value           uniform 0.000167705;
    }
    outlet
    {
        type            calculated;
        value           nonuniform List<scalar> 2(0.00275674 0.00667041);
    }
}


// ************************************************************************* //
