/*--------------------------------*- C++ -*----------------------------------*\
  =========                 |
  \\      /  F ield         | OpenFOAM: The Open Source CFD Toolbox
   \\    /   O peration     | Website:  https://openfoam.org
    \\  /    A nd           | Version:  6
     \\/     M anipulation  |
\*---------------------------------------------------------------------------*/
FoamFile
{
    version     2.0;
    format      ascii;
    class       volScalarField;
    location    "440";
    object      k;
}
// * * * * * * * * * * * * * * * * * * * * * * * * * * * * * * * * * * * * * //

dimensions      [0 2 -2 0 0 0 0];

internalField   nonuniform List<scalar> 
458
(
0.00232548
0.00276161
0.00289405
0.00318078
0.00345761
0.00373136
0.00401702
0.00431519
0.00456565
0.00472431
0.00473781
0.00455879
0.00414069
0.00329284
0.00193348
0.000470927
0.000647937
0.000838192
0.000917451
0.0008907
0.000778795
0.000663826
0.000568927
0.000492809
0.000431245
0.00038094
0.000339492
0.000304815
0.000274914
0.000248015
0.000222402
0.000206933
0.000174071
0.00419947
0.00769021
0.0042895
0.00452935
0.00489255
0.00533644
0.00586089
0.006456
0.00708701
0.0076154
0.00789092
0.00781566
0.00737628
0.00653727
0.00524822
0.0033682
0.00232569
0.00154194
0.000460733
0.00100087
0.00135791
0.00152789
0.00154605
0.00131947
0.00107064
0.000869709
0.000716789
0.000599854
0.000509161
0.00043714
0.000378027
0.000328737
0.000293127
0.000272783
0.000493876
0.000294357
0.00618458
0.0138397
0.00507408
0.00489089
0.00512666
0.0054961
0.00599213
0.0066192
0.00730326
0.00788185
0.0082354
0.00828692
0.0080049
0.00731828
0.00625824
0.00507745
0.0040662
0.00217959
0.00108137
0.00143825
0.00166937
0.0018158
0.00181427
0.00141388
0.00107945
0.000835942
0.000661735
0.000536114
0.000444105
0.000375713
0.000324682
0.000287721
0.000268143
0.000271383
0.000774747
0.000407487
0.00845579
0.0224708
0.00611651
0.00487118
0.00492346
0.00521792
0.00571275
0.00645192
0.00720231
0.00779542
0.00818811
0.0083116
0.00807558
0.00743339
0.00654147
0.00566039
0.00482071
0.00362496
0.00287882
0.00258677
0.00246574
0.002448
0.00241257
0.00227601
0.00180665
0.00151351
0.00132633
0.00119451
0.00108787
0.000988882
0.000899057
0.000808973
0.000710158
0.000538677
0.000427608
0.00112252
0.000538055
0.0111434
0.0342274
0.00868153
0.00492722
0.00466062
0.00491492
0.00557138
0.00667349
0.00750653
0.00807894
0.00846348
0.0085693
0.0082385
0.00747362
0.00646981
0.00553851
0.00478616
0.0041529
0.00395123
0.00364228
0.0034235
0.00324812
0.00303603
0.00275629
0.00244802
0.00223088
0.00209279
0.00198206
0.00186526
0.00172129
0.00153977
0.00133484
0.00111782
0.00087876
0.000671207
0.000921219
0.00104726
0.00095902
0.00107941
0.00127724
0.0144342
0.0469875
0.0153431
0.00618397
0.00497278
0.0050466
0.00613882
0.00765362
0.00838559
0.00884046
0.00913494
0.00914799
0.00867639
0.00766941
0.00636845
0.00518904
0.00439847
0.00405248
0.00403153
0.00404997
0.00396404
0.00373794
0.00340478
0.00302692
0.00271099
0.00253174
0.00243513
0.00235596
0.00225918
0.00212305
0.00192313
0.00168311
0.00142551
0.00116397
0.000947272
0.000906844
0.00102699
0.00104977
0.00164561
0.00137528
0.0180649
0.0553386
0.0275236
0.0128343
0.00877319
0.00793093
0.00905403
0.00965288
0.00988172
0.0100566
0.0101789
0.0100331
0.00933109
0.00800208
0.00634324
0.0049161
0.004114
0.00397807
0.00415538
0.00425002
0.00411822
0.00380025
0.00339513
0.00300275
0.00272325
0.00259358
0.00255086
0.00253366
0.00251185
0.00246524
0.00236388
0.00217111
0.0019332
0.00168003
0.00147726
0.00138298
0.00146643
0.00169548
0.00224538
0.00195369
0.0190122
0.0568054
0.0384637
0.0275287
0.0202809
0.0165435
0.0142287
0.0127009
0.0119446
0.0116806
0.0115411
0.0111301
0.0100581
0.0082764
0.006184
0.00459942
0.00391323
0.00390819
0.0040443
0.00401762
0.0037704
0.00339801
0.00301415
0.00270722
0.0025296
0.00247606
0.0025002
0.00256717
0.00266439
0.00278924
0.00293911
0.00307509
0.00312153
0.00315724
0.00331644
0.00389857
0.00514904
0.00683725
0.0127969
0.00466237
0.018256
0.0264833
0.0243614
0.0217141
0.0189356
0.0165576
0.0148174
0.0138683
0.0135128
0.0133525
0.0130283
0.0121986
0.0104594
0.00796873
0.00529072
0.00403758
0.00360038
0.00351989
0.00346593
0.0032969
0.00301079
0.00268675
0.00240788
0.00222617
0.00215313
0.00216708
0.00223888
0.00235179
0.00250104
0.00268707
0.00291073
0.00316983
0.0034884
0.00389984
0.00444328
0.00508574
0.00567643
0.00604315
0.00622151
0.00406782
0.00705782
0.0109384
0.0134922
0.0149273
0.0158165
0.0163123
0.0161609
0.015356
0.0140481
0.0121221
0.00883691
0.00581607
0.00403457
0.00327043
0.00295065
0.00277662
0.00259918
0.00237538
0.00213341
0.0019133
0.00175801
0.00168394
0.00167981
0.00172574
0.00180714
0.00191794
0.00205876
0.00223551
0.00245999
0.00275556
0.00312222
0.0035586
0.00404196
0.00448049
0.0047035
0.00456966
0.00411188
0.00263652
0.00804945
0.01988
0.0223853
0.0224879
0.0218243
0.0194792
0.0162698
0.0126739
0.00927546
0.00637216
0.00431957
0.00318565
0.00261411
0.00229697
0.00208642
0.00190158
0.0017128
0.00152982
0.00137997
0.00128239
0.00123709
0.00123813
0.00127874
0.00135291
0.00145879
0.00159779
0.00177341
0.00199028
0.00225979
0.00259057
0.00299196
0.00346493
0.00398295
0.00447881
0.00477843
0.00505665
0.00430318
0.00270719
0.00893743
0.00939622
0.00981973
0.012174
0.0108685
0.00853409
0.00617667
0.00459245
0.00367804
0.00286765
0.00221368
0.00176101
0.0014081
0.00117773
0.00103422
0.000935276
0.000858743
0.000795313
0.000744944
0.000712321
0.000700951
0.000710428
0.000738337
0.000780605
0.000834651
0.000900237
0.000978113
0.00107001
0.00117904
0.00131066
0.00146784
0.00165297
0.00187051
0.00212562
0.00242304
0.00280554
0.00297499
0.00285095
0.00246759
0.00211084
)
;

boundaryField
{
    floor
    {
        type            kqRWallFunction;
        value           nonuniform List<scalar> 
36
(
0.00193348
0.000470927
0.000647937
0.000838192
0.000917451
0.0008907
0.000778795
0.000663826
0.000568927
0.000492809
0.000431245
0.00038094
0.000339492
0.000304815
0.000274914
0.000248015
0.000222402
0.000206933
0.000174071
0.000174071
0.000294357
0.000407487
0.000538055
0.00095902
0.00107941
0.00127724
0.00193348
0.0033682
0.00232569
0.00154194
0.000470927
0.00154194
0.000460733
0.00217959
0.00108137
0.00287882
)
;
    }
    ceiling
    {
        type            kqRWallFunction;
        value           nonuniform List<scalar> 
43
(
0.00893743
0.00939622
0.00981973
0.012174
0.0108685
0.00853409
0.00617667
0.00459245
0.00367804
0.00286765
0.00221368
0.00176101
0.0014081
0.00117773
0.00103422
0.000935276
0.000858743
0.000795313
0.000744944
0.000712321
0.000700951
0.000710428
0.000738337
0.000780605
0.000834651
0.000900237
0.000978113
0.00107001
0.00117904
0.00131066
0.00146784
0.00165297
0.00187051
0.00212562
0.00242304
0.00280554
0.00297499
0.00285095
0.00246759
0.00211084
0.018256
0.0264833
0.00804945
)
;
    }
    sWall
    {
        type            kqRWallFunction;
        value           uniform 0.00893743;
    }
    nWall
    {
        type            kqRWallFunction;
        value           nonuniform List<scalar> 6(0.00127724 0.00137528 0.00195369 0.00263652 0.00270719 0.00211084);
    }
    sideWalls
    {
        type            empty;
    }
    glass1
    {
        type            kqRWallFunction;
        value           nonuniform List<scalar> 9(0.00232548 0.00419947 0.00618458 0.00845579 0.0111434 0.0144342 0.0180649 0.0190122 0.018256);
    }
    glass2
    {
        type            kqRWallFunction;
        value           nonuniform List<scalar> 2(0.00466237 0.00406782);
    }
    sun
    {
        type            kqRWallFunction;
        value           nonuniform List<scalar> 
14
(
0.00232548
0.00276161
0.00289405
0.00318078
0.00345761
0.00373136
0.00401702
0.00431519
0.00456565
0.00472431
0.00473781
0.00455879
0.00414069
0.00329284
)
;
    }
    Table_master
    {
        type            kqRWallFunction;
        value           nonuniform List<scalar> 9(0.00141388 0.00107945 0.000835942 0.000661735 0.000536114 0.000444105 0.000375713 0.000324682 0.000287721);
    }
    Table_slave
    {
        type            kqRWallFunction;
        value           nonuniform List<scalar> 9(0.00180665 0.00151351 0.00132633 0.00119451 0.00108787 0.000988882 0.000899057 0.000808973 0.000710158);
    }
    inlet
    {
        type            turbulentIntensityKineticEnergyInlet;
        intensity       0.05;
        value           uniform 0.000937501;
    }
    outlet
    {
        type            zeroGradient;
    }
}


// ************************************************************************* //
