/*--------------------------------*- C++ -*----------------------------------*\
  =========                 |
  \\      /  F ield         | OpenFOAM: The Open Source CFD Toolbox
   \\    /   O peration     | Website:  https://openfoam.org
    \\  /    A nd           | Version:  6
     \\/     M anipulation  |
\*---------------------------------------------------------------------------*/
FoamFile
{
    version     2.0;
    format      ascii;
    class       volScalarField;
    location    "440";
    object      T;
}
// * * * * * * * * * * * * * * * * * * * * * * * * * * * * * * * * * * * * * //

dimensions      [0 0 0 1 0 0 0];

internalField   nonuniform List<scalar> 
458
(
302.755
302.477
302.464
302.461
302.457
302.454
302.45
302.445
302.438
302.429
302.421
302.417
302.422
302.438
302.478
302.633
302.61
302.602
302.608
302.615
302.621
302.628
302.634
302.639
302.645
302.651
302.657
302.663
302.669
302.675
302.681
302.69
302.715
302.939
302.511
302.485
302.486
302.488
302.488
302.486
302.48
302.465
302.442
302.418
302.404
302.406
302.422
302.443
302.453
302.463
302.485
302.639
302.587
302.583
302.591
302.602
302.606
302.609
302.612
302.615
302.617
302.62
302.622
302.626
302.63
302.635
302.644
302.657
302.698
303.135
302.556
302.516
302.525
302.538
302.548
302.552
302.547
302.52
302.474
302.426
302.396
302.396
302.416
302.437
302.449
302.458
302.477
302.594
302.573
302.575
302.591
302.611
302.612
302.613
302.614
302.615
302.617
302.618
302.62
302.622
302.624
302.63
302.637
302.649
302.693
303.334
302.614
302.548
302.567
302.596
302.624
302.643
302.641
302.598
302.519
302.437
302.387
302.385
302.414
302.442
302.46
302.466
302.475
302.485
302.504
302.534
302.57
302.607
302.64
302.666
302.684
302.7
302.713
302.723
302.731
302.738
302.743
302.746
302.717
302.687
302.67
302.695
303.53
302.69
302.583
302.6
302.643
302.693
302.737
302.744
302.678
302.559
302.444
302.377
302.376
302.412
302.455
302.482
302.492
302.499
302.514
302.541
302.577
302.619
302.661
302.698
302.73
302.753
302.771
302.786
302.795
302.801
302.801
302.797
302.788
302.765
302.73
302.697
302.698
302.791
302.873
302.874
303.709
302.789
302.639
302.63
302.67
302.73
302.807
302.824
302.727
302.575
302.437
302.364
302.366
302.416
302.478
302.522
302.544
302.555
302.577
302.61
302.651
302.694
302.735
302.77
302.799
302.82
302.836
302.847
302.853
302.854
302.849
302.839
302.824
302.8
302.767
302.73
302.714
302.754
302.784
302.826
303.865
302.952
302.784
302.734
302.744
302.79
302.869
302.858
302.729
302.549
302.4
302.333
302.354
302.431
302.519
302.583
302.619
302.641
302.667
302.701
302.74
302.779
302.814
302.843
302.866
302.881
302.892
302.898
302.899
302.896
302.887
302.872
302.854
302.83
302.8
302.767
302.745
302.752
302.766
302.797
304.096
303.414
303.218
303.08
303.009
303.002
303
302.875
302.657
302.441
302.305
302.279
302.351
302.472
302.593
302.672
302.715
302.74
302.766
302.797
302.829
302.86
302.886
302.906
302.92
302.928
302.932
302.933
302.93
302.924
302.915
302.901
302.882
302.861
302.839
302.815
302.802
302.808
302.828
302.977
304.425
304.109
303.863
303.625
303.436
303.297
303.063
302.704
302.375
302.181
302.141
302.226
302.394
302.569
302.718
302.781
302.813
302.834
302.857
302.881
302.905
302.925
302.941
302.951
302.957
302.959
302.959
302.956
302.952
302.947
302.942
302.94
302.939
302.944
302.956
302.979
303.014
303.05
303.078
303.144
297.601
299.277
300.306
300.732
300.914
301.126
301.387
301.695
302.005
302.296
302.592
302.76
302.84
302.875
302.896
302.913
302.93
302.947
302.961
302.971
302.978
302.982
302.983
302.983
302.982
302.981
302.98
302.979
302.979
302.98
302.984
302.991
303.004
303.025
303.052
303.08
303.105
303.13
297.963
299.356
300.202
300.659
301.017
301.394
301.785
302.203
302.511
302.712
302.836
302.899
302.929
302.947
302.96
302.972
302.982
302.991
302.997
303
303.002
303.003
303.003
303.003
303.002
303.002
303.002
303.002
303.003
303.004
303.006
303.012
303.021
303.035
303.053
303.075
303.076
303.111
299.488
299.447
299.444
300.494
301.158
301.709
302.186
302.504
302.69
302.819
302.898
302.943
302.972
302.99
303.001
303.009
303.016
303.02
303.024
303.026
303.027
303.027
303.027
303.026
303.025
303.024
303.023
303.022
303.021
303.02
303.02
303.02
303.021
303.023
303.027
303.036
303.047
303.056
303.059
303.101
)
;

boundaryField
{
    floor
    {
        type            wallHeatTransfer;
        Tinf            uniform 305.2;
        alphaWall       uniform 0.24;
        value           nonuniform List<scalar> 
36
(
302.785
303.11
303.042
302.998
302.991
303.002
303.025
303.053
303.081
303.108
303.134
303.159
303.183
303.205
303.228
303.251
303.275
303.295
303.345
303.345
303.239
303.181
303.141
303.142
303.198
303.18
302.785
302.703
302.751
302.818
303.11
302.818
303.118
302.771
302.958
302.748
)
;
    }
    ceiling
    {
        type            wallHeatTransfer;
        Tinf            uniform 303.2;
        alphaWall       uniform 0.24;
        value           nonuniform List<scalar> 
43
(
299.716
299.673
299.667
300.641
301.274
301.803
302.258
302.56
302.735
302.856
302.93
302.973
303.001
303.018
303.03
303.037
303.044
303.048
303.052
303.054
303.055
303.055
303.054
303.053
303.052
303.05
303.048
303.047
303.045
303.044
303.042
303.041
303.041
303.042
303.045
303.052
303.062
303.07
303.074
303.112
304.369
304.073
298.297
)
;
    }
    sWall
    {
        type            wallHeatTransfer;
        Tinf            uniform 315.2;
        alphaWall       uniform 0.36;
        value           uniform 300.897;
    }
    nWall
    {
        type            wallHeatTransfer;
        Tinf            uniform 307.2;
        alphaWall       uniform 0.36;
        value           nonuniform List<scalar> 6(303.675 303.616 303.501 303.714 303.692 303.738);
    }
    sideWalls
    {
        type            empty;
    }
    glass1
    {
        type            wallHeatTransfer;
        Tinf            uniform 315.2;
        alphaWall       uniform 4.3;
        value           nonuniform List<scalar> 9(311.256 310.614 310.207 309.895 309.634 309.394 309.195 309.256 309.482);
    }
    glass2
    {
        type            wallHeatTransfer;
        Tinf            uniform 307.2;
        alphaWall       uniform 4.3;
        value           nonuniform List<scalar> 2(305.562 305.683);
    }
    sun
    {
        type            wallHeatTransfer;
        Tinf            uniform 305.2;
        alphaWall       uniform 0.24;
        value           nonuniform List<scalar> 
14
(
303.012
302.746
302.729
302.716
302.705
302.694
302.684
302.673
302.662
302.651
302.643
302.643
302.656
302.692
)
;
    }
    Table_master
    {
        type            zeroGradient;
    }
    Table_slave
    {
        type            zeroGradient;
    }
    inlet
    {
        type            fixedValue;
        value           uniform 295.15;
    }
    outlet
    {
        type            zeroGradient;
    }
}


// ************************************************************************* //
