/*--------------------------------*- C++ -*----------------------------------*\
  =========                 |
  \\      /  F ield         | OpenFOAM: The Open Source CFD Toolbox
   \\    /   O peration     | Website:  https://openfoam.org
    \\  /    A nd           | Version:  6
     \\/     M anipulation  |
\*---------------------------------------------------------------------------*/
FoamFile
{
    version     2.0;
    format      ascii;
    class       volVectorField;
    location    "440";
    object      U;
}
// * * * * * * * * * * * * * * * * * * * * * * * * * * * * * * * * * * * * * //

dimensions      [0 1 -1 0 0 0 0];

internalField   nonuniform List<vector> 
458
(
(0.0333281 0.0888562 0)
(-0.172782 0.0270079 0)
(-0.200719 0.0191842 0)
(-0.234699 0.0129731 0)
(-0.259743 0.00615493 0)
(-0.274571 -0.00121222 0)
(-0.277026 -0.00933812 0)
(-0.264893 -0.0185015 0)
(-0.237826 -0.0282339 0)
(-0.197168 -0.036883 0)
(-0.147214 -0.0426534 0)
(-0.0943507 -0.0439422 0)
(-0.0455642 -0.038887 0)
(-0.00327118 -0.0219632 0)
(-0.00825874 0.0107379 0)
(-0.0112362 0.0107565 0)
(-0.0376114 -0.0171582 0)
(-0.0148773 -0.0289683 0)
(0.0131966 -0.0254298 0)
(0.0333626 -0.0181559 0)
(0.0481859 -0.00972596 0)
(0.0571358 -0.00528669 0)
(0.0611627 -0.00371521 0)
(0.0627079 -0.00315345 0)
(0.0634461 -0.00281532 0)
(0.0638306 -0.00254979 0)
(0.0638372 -0.00227859 0)
(0.0633013 -0.00183029 0)
(0.0617574 -0.000861389 0)
(0.0581679 0.00107529 0)
(0.0513929 0.00324658 0)
(0.0454586 0.0053967 0)
(-0.0125536 0.0221848 0)
(0.211889 0.182395 0)
(-0.162023 0.0719394 0)
(-0.163602 0.058077 0)
(-0.199274 0.045716 0)
(-0.224577 0.03163 0)
(-0.240173 0.0154587 0)
(-0.244015 -0.00351705 0)
(-0.233687 -0.0253948 0)
(-0.209526 -0.0476878 0)
(-0.173358 -0.066244 0)
(-0.12973 -0.0772793 0)
(-0.0844089 -0.0783641 0)
(-0.0428406 -0.0680685 0)
(-0.00661478 -0.0441094 0)
(0.0218262 -0.0115899 0)
(0.0464631 0.00871934 0)
(0.0557176 0.0347454 0)
(-0.0103764 0.0700617 0)
(0.0646126 0.044316 0)
(0.0100734 -0.0221095 0)
(0.0266018 -0.038185 0)
(0.0408696 -0.0360319 0)
(0.0533805 -0.0277552 0)
(0.0598441 -0.0123743 0)
(0.0615012 -0.00293122 0)
(0.0615751 0.000606438 0)
(0.0617531 0.00188588 0)
(0.0620872 0.00259228 0)
(0.06232 0.00309346 0)
(0.0623908 0.00355646 0)
(0.062292 0.00430397 0)
(0.0615789 0.00613406 0)
(0.0581695 0.0112046 0)
(0.0494667 0.015669 0)
(0.0474363 0.0192468 0)
(-0.0563179 0.0478914 0)
(0.37646 0.273531 0)
(-0.179105 0.114874 0)
(-0.123715 0.0943838 0)
(-0.159118 0.072244 0)
(-0.182308 0.0488266 0)
(-0.197734 0.022431 0)
(-0.202672 -0.00832936 0)
(-0.1931 -0.0432541 0)
(-0.170452 -0.0780798 0)
(-0.137655 -0.105488 0)
(-0.0997754 -0.119981 0)
(-0.0619128 -0.119124 0)
(-0.0281605 -0.10299 0)
(0.00131036 -0.0721908 0)
(0.0251602 -0.0382533 0)
(0.0403856 -0.0136339 0)
(0.045298 0.014757 0)
(-0.0195127 0.0635829 0)
(0.121058 -0.00687798 0)
(0.072819 -0.0322244 0)
(0.0650482 -0.0424268 0)
(0.068039 -0.0423254 0)
(0.0726712 -0.0385717 0)
(0.0741286 -0.0286687 0)
(0.064778 -0.0185891 0)
(0.0576532 -0.0131766 0)
(0.0549432 -0.0101695 0)
(0.0541624 -0.00823342 0)
(0.0538469 -0.0069204 0)
(0.0538334 -0.00592108 0)
(0.0545617 -0.00476309 0)
(0.056967 -0.00137801 0)
(0.0558519 0.0150204 0)
(0.0444427 0.0260217 0)
(0.0533165 0.0338222 0)
(-0.0970634 0.0732057 0)
(0.526528 0.347168 0)
(-0.214905 0.152842 0)
(-0.0801557 0.125955 0)
(-0.114865 0.095878 0)
(-0.132499 0.0661925 0)
(-0.145612 0.0320225 0)
(-0.15031 -0.00969792 0)
(-0.139361 -0.0582844 0)
(-0.117291 -0.105381 0)
(-0.0885885 -0.140119 0)
(-0.0581037 -0.156554 0)
(-0.0294159 -0.153157 0)
(-0.00482201 -0.13172 0)
(0.0164209 -0.0957751 0)
(0.0338819 -0.056828 0)
(0.0476098 -0.0209543 0)
(0.0628524 0.0148758 0)
(0.0625796 0.0550902 0)
(0.103731 0.0610574 0)
(0.101786 -0.00203433 0)
(0.0879062 -0.029286 0)
(0.0807424 -0.0379735 0)
(0.0753864 -0.038763 0)
(0.0683981 -0.0343813 0)
(0.0676733 -0.0208832 0)
(0.078124 -0.0137442 0)
(0.0868065 -0.00995171 0)
(0.091842 -0.0076358 0)
(0.0947055 -0.00572076 0)
(0.095742 -0.00367232 0)
(0.0937079 -0.00104168 0)
(0.087284 0.00258307 0)
(0.0746376 0.00779884 0)
(0.0587996 0.0251138 0)
(0.0433352 0.0406039 0)
(0.0618648 0.0535409 0)
(-0.129017 0.0946457 0)
(0.658892 0.404151 0)
(-0.260074 0.183507 0)
(-0.0350226 0.145117 0)
(-0.0676461 0.110596 0)
(-0.0765743 0.077834 0)
(-0.0845158 0.0391065 0)
(-0.0858609 -0.0111847 0)
(-0.0696649 -0.0730237 0)
(-0.0487845 -0.129491 0)
(-0.0268021 -0.167469 0)
(-0.0067426 -0.182783 0)
(0.0102751 -0.175231 0)
(0.0230493 -0.149658 0)
(0.0338634 -0.112141 0)
(0.0435278 -0.070565 0)
(0.0526002 -0.0315927 0)
(0.0649339 0.00252605 0)
(0.0790077 0.0213231 0)
(0.0931827 0.000694825 0)
(0.0923738 -0.0205332 0)
(0.0850365 -0.0296154 0)
(0.0758889 -0.0323896 0)
(0.0672131 -0.0315238 0)
(0.0598147 -0.0264388 0)
(0.0575878 -0.0151314 0)
(0.0607215 -0.00850782 0)
(0.0646439 -0.00578294 0)
(0.067946 -0.00423009 0)
(0.0708049 -0.00219296 0)
(0.0730462 0.00122771 0)
(0.0736551 0.00625663 0)
(0.0716817 0.0131148 0)
(0.0668095 0.0224244 0)
(0.0598904 0.0370391 0)
(0.0490263 0.0533949 0)
(0.0737887 0.0724583 0)
(-0.00666911 0.101469 0)
(0.0559388 0.149638 0)
(-0.0825804 0.0739795 0)
(-0.276653 0.000317516 0)
(0.757937 0.451396 0)
(-0.305932 0.203777 0)
(0.00213253 0.143391 0)
(-0.0192558 0.115084 0)
(-0.0180246 0.0839269 0)
(-0.0193455 0.0445951 0)
(-0.00927217 -0.0124847 0)
(0.0155348 -0.0912813 0)
(0.0318758 -0.149703 0)
(0.0435546 -0.184346 0)
(0.0502399 -0.194901 0)
(0.0525393 -0.183964 0)
(0.0518738 -0.155947 0)
(0.0501552 -0.117247 0)
(0.0487439 -0.0753181 0)
(0.0489834 -0.0374344 0)
(0.053209 -0.00814464 0)
(0.0621775 0.00637859 0)
(0.0683661 9.9851e-05 0)
(0.0670321 -0.0101932 0)
(0.0604333 -0.0181897 0)
(0.0519589 -0.0223947 0)
(0.0439317 -0.0231287 0)
(0.0375207 -0.0204947 0)
(0.0345297 -0.0149635 0)
(0.0352666 -0.01135 0)
(0.0378407 -0.00985614 0)
(0.0411538 -0.00879447 0)
(0.0449232 -0.00676673 0)
(0.0488799 -0.00268795 0)
(0.0529108 0.00411117 0)
(0.0554042 0.0133179 0)
(0.0566748 0.0248292 0)
(0.057963 0.0392666 0)
(0.0572786 0.0555312 0)
(0.0786898 0.0760808 0)
(0.0648357 0.0886081 0)
(0.0993139 0.0960886 0)
(0.116947 0.0569389 0)
(-0.135958 -0.0292471 0)
(0.812683 0.494038 0)
(-0.331198 0.187558 0)
(0.0320705 0.0928801 0)
(0.040619 0.0987022 0)
(0.0483927 0.0799967 0)
(0.0553089 0.0350546 0)
(0.0851323 -0.0372528 0)
(0.108717 -0.108766 0)
(0.118274 -0.160321 0)
(0.117168 -0.187729 0)
(0.108028 -0.19214 0)
(0.0934477 -0.177126 0)
(0.0761814 -0.147145 0)
(0.0591828 -0.108561 0)
(0.0444214 -0.0680631 0)
(0.0339601 -0.0332996 0)
(0.0294205 -0.00883662 0)
(0.0307933 0.00259101 0)
(0.0324182 0.00096125 0)
(0.0308523 -0.00558486 0)
(0.0260287 -0.0117649 0)
(0.0196554 -0.0155286 0)
(0.0133207 -0.0168414 0)
(0.00818438 -0.0160853 0)
(0.00551189 -0.0140265 0)
(0.00559168 -0.0128187 0)
(0.00742471 -0.0126551 0)
(0.0102629 -0.012503 0)
(0.0139368 -0.0112771 0)
(0.0185212 -0.00787759 0)
(0.0246851 -0.00108836 0)
(0.0321229 0.00898275 0)
(0.0389296 0.0206514 0)
(0.0468552 0.0336747 0)
(0.0549963 0.0472983 0)
(0.0746006 0.0636483 0)
(0.0875287 0.06907 0)
(0.119029 0.0625572 0)
(0.162542 0.0510256 0)
(-0.0203348 0.0950825 0)
(0.919103 0.496487 0)
(-0.0740471 0.167509 0)
(0.111583 0.024778 0)
(0.166052 0.0188632 0)
(0.165344 0.0097368 0)
(0.170278 -0.0360772 0)
(0.203911 -0.0858743 0)
(0.217179 -0.129633 0)
(0.209859 -0.160537 0)
(0.188196 -0.174236 0)
(0.157314 -0.170331 0)
(0.121765 -0.151541 0)
(0.0853355 -0.121081 0)
(0.0520425 -0.0847158 0)
(0.0240343 -0.0480424 0)
(0.00482026 -0.0195567 0)
(-0.00467541 -0.00265683 0)
(-0.00637634 0.003239 0)
(-0.00617629 0.00186388 0)
(-0.0073936 -0.00261644 0)
(-0.0107767 -0.00700678 0)
(-0.0154201 -0.0100429 0)
(-0.0202107 -0.0117265 0)
(-0.0242133 -0.0124499 0)
(-0.0266864 -0.0127905 0)
(-0.0276058 -0.0134876 0)
(-0.0275464 -0.0144996 0)
(-0.0269176 -0.0153257 0)
(-0.0257407 -0.015411 0)
(-0.0237202 -0.0141686 0)
(-0.0200587 -0.0108674 0)
(-0.0119745 -0.00464726 0)
(-0.000662496 0.00425689 0)
(0.0105376 0.0132769 0)
(0.0221221 0.0202249 0)
(0.0392317 0.0270014 0)
(0.0547469 0.0218157 0)
(0.0788336 0.00525759 0)
(0.145218 0.0476952 0)
(-0.425865 0.211605 0)
(1.06387 0.442987 0)
(0.516867 0.297347 0)
(0.528779 0.247241 0)
(0.52021 0.178887 0)
(0.474686 0.117459 0)
(0.43947 0.0550263 0)
(0.396657 -0.0122115 0)
(0.346155 -0.0702674 0)
(0.290934 -0.10901 0)
(0.232858 -0.12549 0)
(0.173754 -0.12251 0)
(0.116236 -0.105614 0)
(0.0624069 -0.0784759 0)
(0.0172402 -0.0475433 0)
(-0.0187487 -0.0178911 0)
(-0.034734 -0.0041377 0)
(-0.0416703 0.00195135 0)
(-0.042724 0.00348033 0)
(-0.042925 0.00213722 0)
(-0.0440045 -0.000553336 0)
(-0.0465289 -0.00339469 0)
(-0.0501433 -0.00583608 0)
(-0.0541352 -0.00782111 0)
(-0.0579401 -0.0094747 0)
(-0.061272 -0.0109517 0)
(-0.0642934 -0.0123694 0)
(-0.067434 -0.013564 0)
(-0.0711019 -0.0141707 0)
(-0.0756752 -0.0136917 0)
(-0.0816398 -0.0114734 0)
(-0.0896854 -0.0066755 0)
(-0.100543 0.00156632 0)
(-0.112203 0.0131318 0)
(-0.127497 0.027948 0)
(-0.152339 0.0460914 0)
(-0.18942 0.0665176 0)
(-0.240387 0.0852569 0)
(-0.295839 0.098952 0)
(-0.369389 0.106082 0)
(-0.647097 0.105871 0)
(0.236112 0.0478573 0)
(0.305991 0.108256 0)
(0.32086 0.0825783 0)
(0.298514 0.0314695 0)
(0.273833 -0.0161298 0)
(0.241416 -0.0494229 0)
(0.198565 -0.0683335 0)
(0.147865 -0.0729093 0)
(0.0932236 -0.0651688 0)
(0.0387511 -0.0490819 0)
(-0.0160574 -0.0250147 0)
(-0.0499735 -0.00840255 0)
(-0.0674582 -0.00077904 0)
(-0.0739334 0.00127875 0)
(-0.0756135 0.00169766 0)
(-0.075655 0.00105322 0)
(-0.0757516 -0.000455033 0)
(-0.0767683 -0.00249599 0)
(-0.0787644 -0.00460578 0)
(-0.0818187 -0.00645428 0)
(-0.0854819 -0.0079743 0)
(-0.0894134 -0.00917098 0)
(-0.0935848 -0.0100319 0)
(-0.0981625 -0.0105185 0)
(-0.103324 -0.0104495 0)
(-0.10913 -0.00949236 0)
(-0.115478 -0.00719561 0)
(-0.122058 -0.00304592 0)
(-0.128281 0.00349112 0)
(-0.133117 0.0126614 0)
(-0.137092 0.0255296 0)
(-0.140575 0.0427025 0)
(-0.144805 0.0633957 0)
(-0.150491 0.0839674 0)
(-0.153919 0.0944461 0)
(-0.139587 0.072708 0)
(-0.107842 -0.0246714 0)
(-0.285555 -0.212128 0)
(0.122258 0.320286 0)
(0.00623382 0.197713 0)
(0.034604 0.111286 0)
(0.0513168 0.0536919 0)
(0.0537579 0.0169857 0)
(0.0500405 -0.00690657 0)
(0.0291154 -0.0192602 0)
(-0.00792718 -0.0151028 0)
(-0.046833 -0.000171113 0)
(-0.078552 0.0119864 0)
(-0.0974222 0.0184786 0)
(-0.104691 0.019784 0)
(-0.106149 0.0194797 0)
(-0.105711 0.0191632 0)
(-0.10461 0.0195129 0)
(-0.103416 0.020284 0)
(-0.102544 0.021096 0)
(-0.102275 0.0216389 0)
(-0.102657 0.0216442 0)
(-0.103585 0.0208418 0)
(-0.105054 0.0192031 0)
(-0.10706 0.0171833 0)
(-0.109555 0.0152209 0)
(-0.112471 0.0134803 0)
(-0.115685 0.0120755 0)
(-0.118989 0.0111316 0)
(-0.122073 0.0108103 0)
(-0.124456 0.0113106 0)
(-0.125359 0.0133246 0)
(-0.123663 0.0181393 0)
(-0.117818 0.0268485 0)
(-0.106439 0.040446 0)
(-0.0893372 0.0589328 0)
(-0.0674724 0.078916 0)
(-0.042813 0.0930839 0)
(-0.00681501 0.0838476 0)
(0.14655 0.00796963 0)
(-0.209712 -0.127533 0)
(-0.417611 -0.512921 0)
(-0.634142 -0.143862 0)
(-0.448774 0.172663 0)
(-0.360558 0.0517878 0)
(-0.22088 -0.00752344 0)
(-0.156936 -0.0446972 0)
(-0.131261 -0.0611847 0)
(-0.127726 -0.0593236 0)
(-0.135595 -0.0506932 0)
(-0.145035 -0.0431055 0)
(-0.148128 -0.0387678 0)
(-0.145065 -0.0368937 0)
(-0.139915 -0.0373696 0)
(-0.134172 -0.0395216 0)
(-0.129234 -0.0420581 0)
(-0.125249 -0.0447494 0)
(-0.121852 -0.0475166 0)
(-0.118806 -0.0504559 0)
(-0.116094 -0.0535135 0)
(-0.11382 -0.0563137 0)
(-0.112119 -0.0583145 0)
(-0.111134 -0.0590993 0)
(-0.110964 -0.0584978 0)
(-0.11161 -0.0568648 0)
(-0.112936 -0.0545957 0)
(-0.114718 -0.0518102 0)
(-0.116675 -0.0485335 0)
(-0.118443 -0.0446883 0)
(-0.119542 -0.0400822 0)
(-0.119335 -0.0343864 0)
(-0.116782 -0.0276069 0)
(-0.109986 -0.0196252 0)
(-0.0961942 -0.00986555 0)
(-0.0729883 0.00257326 0)
(-0.0403104 0.0185217 0)
(0.0099401 0.0394517 0)
(0.0613143 0.0450615 0)
(0.108306 0.0273619 0)
(0.170913 -0.0111953 0)
(-0.199298 -0.0764561 0)
)
;

boundaryField
{
    floor
    {
        type            noSlip;
    }
    ceiling
    {
        type            noSlip;
    }
    sWall
    {
        type            noSlip;
    }
    nWall
    {
        type            noSlip;
    }
    sideWalls
    {
        type            empty;
    }
    glass1
    {
        type            noSlip;
    }
    glass2
    {
        type            noSlip;
    }
    sun
    {
        type            noSlip;
    }
    Table_master
    {
        type            noSlip;
    }
    Table_slave
    {
        type            noSlip;
    }
    inlet
    {
        type            fixedValue;
        value           uniform (0.46194 -0.191342 0);
    }
    outlet
    {
        type            zeroGradient;
    }
}


// ************************************************************************* //
