/*--------------------------------*- C++ -*----------------------------------*\
  =========                 |
  \\      /  F ield         | OpenFOAM: The Open Source CFD Toolbox
   \\    /   O peration     | Website:  https://openfoam.org
    \\  /    A nd           | Version:  6
     \\/     M anipulation  |
\*---------------------------------------------------------------------------*/
FoamFile
{
    version     2.0;
    format      ascii;
    class       volScalarField;
    location    "4750";
    object      alphat;
}
// * * * * * * * * * * * * * * * * * * * * * * * * * * * * * * * * * * * * * //

dimensions      [1 -1 -1 0 0 0 0];

internalField   nonuniform List<scalar> 
458
(
0.00124408
0.00135521
0.00138589
0.00145221
0.00151329
0.00157114
0.00162904
0.00168779
0.00173583
0.00176604
0.00176949
0.00173741
0.00165873
0.00149213
0.00113177
0.000559117
0.000655506
0.000743201
0.000774907
0.000762762
0.000713779
0.000659587
0.000611098
0.000569088
0.000532608
0.000500754
0.000472862
0.000448143
0.00042563
0.000404276
0.000382833
0.000370089
0.000340107
0.00167648
0.00377514
0.00348202
0.00398971
0.00449589
0.00501652
0.00548334
0.00584465
0.00621595
0.00656363
0.00684263
0.00701236
0.00702828
0.00678357
0.00551379
0.00149401
0.00123944
0.00101118
0.000554583
0.00131635
0.00191865
0.002385
0.00253231
0.00184541
0.00155793
0.00136223
0.00121784
0.00110721
0.00101951
0.000943901
0.000872771
0.000801771
0.000738347
0.000685016
0.000837931
0.000447134
0.00203693
0.00507236
0.00418653
0.00510448
0.00549038
0.00576112
0.00596921
0.00616159
0.00642924
0.00675512
0.00711136
0.00746018
0.00773526
0.00783181
0.00737934
0.00601441
0.00455809
0.00119421
0.000854348
0.00147432
0.00214561
0.00281346
0.00300409
0.000959295
0.000839852
0.000740452
0.000659951
0.000594989
0.000542344
0.00049955
0.000464944
0.000438025
0.00048543
0.00056218
0.000983077
0.000528393
0.00238391
0.00647864
0.00407213
0.00528806
0.00549903
0.00547785
0.00545827
0.00555064
0.00576833
0.00609101
0.00650092
0.00695768
0.00735731
0.00760849
0.00755133
0.00716097
0.00614558
0.00337401
0.00137574
0.00175201
0.00240865
0.00321274
0.00390903
0.00394313
0.00108034
0.000990234
0.000928857
0.000883556
0.00084525
0.000807252
0.000771122
0.00073295
0.000688336
0.000648493
0.000639018
0.00117166
0.000608541
0.00273782
0.00836908
0.00427094
0.00501942
0.00532102
0.00514092
0.00499411
0.00507779
0.00530776
0.00564419
0.00608657
0.00658762
0.00697923
0.00717369
0.00716844
0.00703185
0.00662636
0.00547935
0.00496579
0.00500207
0.00529348
0.00564057
0.0058533
0.00575703
0.00491177
0.00447705
0.00423687
0.00406508
0.00389126
0.00366732
0.00328719
0.00279773
0.00224097
0.00170481
0.00127874
0.00119125
0.00103414
0.000813341
0.000860759
0.000935587
0.00311664
0.0104979
0.00584876
0.00464685
0.00506438
0.00505367
0.0048666
0.00493579
0.00517115
0.00550776
0.00595659
0.00643742
0.00680011
0.00691475
0.00680421
0.0066473
0.00657643
0.00648214
0.00667719
0.00701536
0.00725231
0.00729381
0.00713321
0.00679863
0.00633173
0.0059523
0.00565625
0.0053958
0.00514067
0.00487007
0.00451981
0.00403973
0.00343251
0.00274559
0.00210981
0.00152979
0.00125747
0.00109686
0.00138114
0.000970513
0.00348958
0.0121014
0.00872425
0.00570917
0.00496839
0.00503969
0.00510382
0.00514036
0.00527415
0.00557153
0.00601368
0.00649034
0.00682282
0.00685874
0.00664922
0.00649808
0.00674758
0.00730055
0.00786388
0.00818155
0.00818219
0.00790947
0.00744676
0.00688464
0.00632531
0.00587506
0.00553414
0.00525776
0.00501609
0.00479909
0.00460164
0.00434335
0.00391876
0.00335234
0.0027636
0.00219755
0.00182802
0.00167466
0.00159619
0.00115309
0.00357907
0.0112159
0.00952739
0.00799794
0.00682819
0.00631005
0.00582362
0.00549403
0.00549021
0.00577449
0.00623199
0.0067028
0.00698216
0.00691647
0.00665987
0.0067237
0.00743705
0.00802211
0.00832635
0.0083119
0.00798111
0.00740939
0.0067048
0.00599541
0.00540642
0.00499371
0.0047154
0.00451543
0.00436776
0.00426812
0.00422394
0.00422569
0.00411257
0.0037757
0.00344724
0.00326435
0.0033441
0.00353026
0.00419298
0.00178523
0.00350478
0.00423043
0.0046753
0.00492486
0.00496213
0.00488889
0.00489243
0.00510073
0.00552063
0.00605441
0.00659987
0.00702884
0.00716571
0.00691736
0.00684653
0.00720805
0.00762642
0.00776986
0.00766589
0.00730215
0.00669399
0.00594207
0.00519269
0.00457761
0.0041523
0.00388144
0.00369973
0.00356168
0.00344396
0.00333333
0.00321982
0.00309517
0.00298217
0.00288464
0.00281984
0.0027831
0.00271362
0.00257059
0.00239683
0.00166668
0.00157959
0.00276082
0.00377686
0.00457249
0.00530141
0.00601051
0.00657208
0.00694754
0.00719113
0.00722468
0.00698543
0.0066967
0.00669705
0.00681711
0.00672527
0.00645433
0.0060272
0.00545218
0.00479026
0.00414417
0.00363003
0.00328388
0.00307169
0.00294169
0.00285518
0.00279217
0.00274382
0.0027081
0.00268803
0.00269431
0.00271003
0.00272406
0.00272477
0.0026815
0.0025485
0.00231428
0.00202415
0.0013411
0.00238088
0.00465375
0.00595089
0.00679139
0.00744501
0.00749503
0.00710379
0.00671017
0.00637245
0.00573413
0.00528014
0.00517384
0.00510184
0.00490203
0.00460091
0.00422779
0.00379002
0.00332992
0.0029153
0.00259282
0.00237063
0.00224257
0.00218263
0.0021698
0.00219126
0.0022385
0.0023045
0.0023808
0.00246997
0.00257268
0.0026825
0.00279038
0.00287817
0.00292203
0.0028812
0.00284548
0.00261976
0.00135854
0.00249155
0.00255345
0.00260944
0.00289324
0.00272908
0.00241447
0.00203374
0.00172835
0.00154177
0.00136496
0.00120949
0.00108793
0.000985013
0.000907001
0.000852744
0.000813143
0.000781289
0.000753879
0.000731249
0.000715982
0.000710289
0.000714567
0.000727252
0.0007459
0.000769463
0.000797387
0.000829483
0.000866023
0.000907563
0.000955392
0.00100978
0.00107035
0.00113741
0.00121129
0.001292
0.00138871
0.00143101
0.00140168
0.00130373
0.00120559
)
;

boundaryField
{
    floor
    {
        type            compressible::alphatWallFunction;
        Prt             0.85;
        value           nonuniform List<scalar> 
36
(
0.000160683
7.82027e-05
9.26116e-05
0.000105497
0.00011011
0.000108346
0.000101196
9.32165e-05
8.60086e-05
7.9707e-05
7.41882e-05
6.93307e-05
6.50456e-05
6.12213e-05
5.77149e-05
5.4367e-05
5.09824e-05
4.89594e-05
4.41639e-05
4.41633e-05
6.10653e-05
7.35487e-05
8.56283e-05
0.000115681
0.000122504
0.000133176
0.000160681
0.000210146
0.000175549
0.000143834
7.82018e-05
0.000143833
7.75171e-05
0.000169321
0.000121569
0.000194165
)
;
    }
    ceiling
    {
        type            compressible::alphatWallFunction;
        Prt             0.85;
        value           nonuniform List<scalar> 
43
(
0.000340267
0.000348131
0.000355228
0.000391035
0.000370452
0.000330584
0.000281569
0.00024153
0.000216689
0.000192834
0.000171568
0.000154722
0.000140288
0.000129229
0.000121472
0.000115774
0.000111166
0.000107183
0.000103882
0.000101647
0.000100813
0.00010144
0.000103297
0.000106021
0.00010945
0.000113498
0.00011813
0.000123377
0.000129311
0.000136104
0.00014378
0.000152272
0.00016161
0.000171823
0.000182901
0.000196074
0.000201802
0.000197832
0.000184507
0.000171043
0.000467119
0.000555339
0.000326058
)
;
    }
    sWall
    {
        type            compressible::alphatWallFunction;
        Prt             0.85;
        value           uniform 0.000339025;
    }
    nWall
    {
        type            compressible::alphatWallFunction;
        Prt             0.85;
        value           nonuniform List<scalar> 6(0.000132957 0.000137898 0.000163425 0.000189263 0.000191633 0.000170702);
    }
    sideWalls
    {
        type            empty;
    }
    glass1
    {
        type            compressible::alphatWallFunction;
        Prt             0.85;
        value           nonuniform List<scalar> 9(0.000171655 0.00022917 0.000275988 0.000320305 0.000364869 0.000411952 0.000457767 0.000468822 0.000459996);
    }
    glass2
    {
        type            compressible::alphatWallFunction;
        Prt             0.85;
        value           nonuniform List<scalar> 2(0.000247083 0.000231539);
    }
    sun
    {
        type            compressible::alphatWallFunction;
        Prt             0.85;
        value           nonuniform List<scalar> 
14
(
0.000176205
0.000191374
0.000195541
0.000204514
0.000212738
0.000220493
0.000228222
0.000236034
0.0002424
0.000246392
0.000246847
0.000242607
0.000232172
0.000209891
)
;
    }
    Table_master
    {
        type            compressible::alphatWallFunction;
        Prt             0.85;
        value           nonuniform List<scalar> 9(0.00013667 0.000119635 0.000105239 9.34091e-05 8.37343e-05 7.57982e-05 6.92763e-05 6.39508e-05 5.97736e-05);
    }
    Table_slave
    {
        type            compressible::alphatWallFunction;
        Prt             0.85;
        value           nonuniform List<scalar> 9(0.000153684 0.000141044 0.000132357 0.000125902 0.000120414 0.00011494 0.000109707 0.000104146 9.76016e-05);
    }
    inlet
    {
        type            fixedValue;
        value           uniform 1.94e-05;
    }
    outlet
    {
        type            zeroGradient;
    }
}


// ************************************************************************* //
