/*--------------------------------*- C++ -*----------------------------------*\
  =========                 |
  \\      /  F ield         | OpenFOAM: The Open Source CFD Toolbox
   \\    /   O peration     | Website:  https://openfoam.org
    \\  /    A nd           | Version:  6
     \\/     M anipulation  |
\*---------------------------------------------------------------------------*/
FoamFile
{
    version     2.0;
    format      ascii;
    class       surfaceScalarField;
    location    "49000.0000009954892";
    object      phi;
}
// * * * * * * * * * * * * * * * * * * * * * * * * * * * * * * * * * * * * * //

dimensions      [1 0 -1 0 0 0 0];

internalField   nonuniform List<scalar> 
1482
(
-0.00279978
0.00286381
-0.00348397
0.000684191
-0.00414458
0.000660611
-0.00475857
0.000613989
-0.00527985
0.000521284
-0.0056917
0.000411851
-0.00598291
0.000291207
-0.00614042
0.000157513
-0.0061469
6.48062e-06
-0.00597635
-0.000170545
-0.00559879
-0.000377566
-0.00498309
-0.000615699
-0.00405899
-0.000924096
-0.00258019
-0.0014788
-0.00257727
-6.4456e-05
6.93104e-05
0.000780294
-0.00084475
0.00143391
-0.000653612
0.00183447
-0.000400565
0.0020571
-0.000222625
0.00216187
-0.000104776
0.00220911
-4.72387e-05
0.00223178
-2.26699e-05
0.00224149
-9.70957e-06
0.00224241
-9.21624e-07
0.00223538
7.02847e-06
0.00221637
1.90145e-05
0.00217203
4.43411e-05
0.00206912
0.000102905
0.00185218
0.000216941
0.00149413
0.000358052
0.00102165
0.000472477
0.00102809
-0.00204037
0.00507449
-0.00290845
0.00155228
-0.00369419
0.00144635
-0.0043451
0.0012649
-0.00488223
0.00105841
-0.0053109
0.000840514
-0.00562934
0.000609649
-0.00583078
0.000358955
-0.00590455
8.02524e-05
-0.00584279
-0.000232309
-0.00563963
-0.000580725
-0.0052837
-0.000971626
-0.00477379
-0.00143401
-0.00428792
-0.00196467
-0.00470399
-0.0021612
-0.00311778
-0.00158077
-0.00163464
-0.00147745
-0.00161979
0.00131771
-0.00123819
0.0016622
-0.00118924
0.00191463
-0.00090604
0.0021068
-0.000592737
0.0022151
-0.000330926
0.0022243
-0.000113973
0.00222631
-4.92446e-05
0.00222788
-2.4249e-05
0.00222878
-1.06043e-05
0.00222873
-8.74334e-07
0.00222734
8.41584e-06
0.00222314
2.32213e-05
0.00221049
5.69904e-05
0.00214849
0.000164903
0.00189866
0.000466776
0.00146871
0.000787997
0.000904084
0.0010371
0.00194906
-0.00148825
0.00682067
-0.00235912
0.00242315
-0.00312901
0.00221624
-0.00371311
0.001849
-0.00418364
0.00152894
-0.00455496
0.00121183
-0.0048289
0.000883595
-0.00500226
0.000532317
-0.00506865
0.000146635
-0.00501896
-0.000281999
-0.0048424
-0.000757283
-0.00453148
-0.00128255
-0.00411694
-0.00184855
-0.00371947
-0.00236214
-0.00329904
-0.00258163
-0.00236763
-0.00251218
-0.00127372
-0.00257136
-0.00288069
0.0011508
-0.00237453
0.00165431
-0.00169275
0.00195291
-0.00120464
0.00214627
-0.000786098
0.00217763
-0.00036228
0.00206381
0.00201472
0.00199062
0.00198017
0.00197945
0.00198802
0.0020114
0.00206854
0.0022336
0.00187537
0.000825009
0.00142741
0.00123595
0.000806803
0.00165771
0.00278188
-0.00110607
0.00825794
-0.00192798
0.00324505
-0.00256994
0.0028582
-0.00303017
0.00230923
-0.00339757
0.00189634
-0.0036862
0.00150047
-0.0038991
0.00109649
-0.00403445
0.000667669
-0.00408477
0.000196947
-0.00403684
-0.000329921
-0.00387836
-0.000915768
-0.00360513
-0.00155579
-0.00323967
-0.00221401
-0.00281779
-0.00278401
-0.00227843
-0.00312099
-0.00155883
-0.00323179
-0.000870721
-0.00325946
-0.000691183
-0.00306023
0.00144542
-0.00212115
0.00137741
-0.00230653
0.00169294
-0.00200829
0.00200544
-0.00151713
0.0022716
-0.00105226
0.00254709
-0.00063777
0.00286287
-0.000315939
0.0030314
-0.00016868
0.00309729
-6.60434e-05
0.00308111
1.60277e-05
0.00299169
8.92647e-05
0.0028301
0.000161439
0.00258859
0.000241352
0.00224429
0.000344144
0.00173991
0.000504228
0.00160395
0.000960969
0.0012772
0.0015627
0.000750825
0.00218409
0.003567
-0.000803787
0.00945491
-0.00157995
0.00402122
-0.00204854
0.00332679
-0.00236417
0.00262486
-0.0026084
0.00214057
-0.00279377
0.00168583
-0.00292529
0.00122802
-0.00300373
0.000746109
-0.00302256
0.000215779
-0.0029652
-0.000387283
-0.00281838
-0.0010626
-0.00257506
-0.0017991
-0.00224178
-0.0025473
-0.0018256
-0.00320018
-0.00132053
-0.00362606
-0.000744168
-0.00380816
-0.000212977
-0.00379066
0.000264271
-0.00353748
0.00112545
-0.00298233
0.00149144
-0.00267252
0.00175023
-0.00226708
0.00200259
-0.00176949
0.00223246
-0.00128213
0.00244697
-0.000852282
0.00264915
-0.000518119
0.00276058
-0.000280116
0.00279812
-0.000103578
0.00277341
4.0742e-05
0.00269281
0.000169862
0.00255884
0.000295407
0.00237042
0.000429775
0.00212538
0.000589179
0.00183213
0.00079748
0.00162813
0.00116497
0.00148976
0.00170107
0.00131583
0.00235802
0.00231031
0.00257252
0.00133892
0.0010063
0.00187355
-0.000505824
0.00199238
-0.000575884
0.0104772
-0.00132482
0.00477015
-0.00158439
0.00358637
-0.00175024
0.00279071
-0.00186411
0.00225444
-0.00193543
0.00175716
-0.0019707
0.00126329
-0.00197424
0.000749642
-0.00194283
0.000184371
-0.00185487
-0.000475246
-0.00170056
-0.0012169
-0.00146992
-0.00202974
-0.00116583
-0.00285139
-0.00079407
-0.00357194
-0.000374775
-0.00404536
6.52595e-05
-0.00424819
0.00047044
-0.00419584
0.000844932
-0.00391197
0.00129602
-0.00343342
0.00159491
-0.00297142
0.00179819
-0.00247036
0.0019697
-0.00194101
0.00212166
-0.00143408
0.0022568
-0.000987421
0.00236277
-0.000624084
0.00242235
-0.0003397
0.00243487
-0.000116102
0.00240536
7.02588e-05
0.0023385
0.00023672
0.0022381
0.000395811
0.00210831
0.000559559
0.00195651
0.000740985
0.00179772
0.000956266
0.00170896
0.00125373
0.00177047
0.00163956
0.00198918
0.00213932
0.00224106
0.00232063
0.00175522
0.00149214
0.000831075
0.000418324
0.00292086
-0.000543536
0.0115129
-0.00124378
0.00547039
-0.00119206
0.00353465
-0.00120033
0.00279898
-0.00119255
0.00224666
-0.0011589
0.00172351
-0.00110157
0.00120596
-0.00102633
0.000674402
-0.000927515
8.55569e-05
-0.000778407
-0.000624354
-0.000589206
-0.00140611
-0.000349434
-0.00226951
-6.62365e-05
-0.00313459
0.000237803
-0.00387597
0.000547113
-0.00435466
0.000841857
-0.00454293
0.00110471
-0.00445869
0.00133814
-0.0041454
0.00157003
-0.00366531
0.00172982
-0.0031312
0.00182984
-0.00257038
0.00190014
-0.00201132
0.00195655
-0.00149049
0.00200426
-0.00103514
0.00203799
-0.00065781
0.00205178
-0.000353498
0.00204191
-0.000106232
0.00200885
0.000103323
0.00195547
0.000290096
0.00188546
0.000465826
0.00180405
0.000640973
0.00172006
0.000824972
0.00164928
0.00102705
0.00163634
0.00126667
0.00172825
0.00154765
0.00194922
0.00191835
0.00221785
0.002052
0.00223735
0.00147264
0.0016584
0.000997268
0.00468217
-0.000483742
0.0125321
-0.00105171
0.00603836
-0.00069762
0.00318056
-0.000636695
0.00273805
-0.000568174
0.00217814
-0.000463235
0.00161857
-0.000333859
0.00107658
-0.000182187
0.00052273
7.52383e-06
-0.000104154
0.000225969
-0.000842799
0.000465775
-0.00164591
0.000723152
-0.00252689
0.00097935
-0.00339078
0.00120698
-0.0041036
0.00140552
-0.00455319
0.00156619
-0.0047036
0.00168381
-0.00457629
0.00176306
-0.00422465
0.00181629
-0.00371855
0.00182661
-0.00314152
0.00180226
-0.00254603
0.00176232
-0.00197138
0.00172179
-0.00144995
0.00168816
-0.00100152
0.00166134
-0.000630986
0.00163712
-0.000329281
0.00161033
-7.94416e-05
0.0015784
0.000135258
0.00154125
0.000327242
0.00150001
0.000507071
0.00145771
0.000683271
0.00142069
0.000861988
0.0014006
0.00104714
0.00142285
0.00124441
0.0015201
0.0014504
0.00175001
0.00168845
0.00207698
0.00172503
0.0022225
0.00132711
0.00172127
0.0014985
0.0067713
0.00297808
0.0101412
0.0020227
0.00699374
0.000869428
0.00433383
0.000370921
0.00323656
0.000214013
0.00233505
0.000270633
0.00156195
0.000424979
0.000922238
0.000639419
0.00030829
0.000899213
-0.000363948
0.00116462
-0.00110821
0.00144329
-0.00192458
0.00170996
-0.00279356
0.00193524
-0.00361605
0.00209504
-0.00426339
0.00218383
-0.00464198
0.00220449
-0.00472426
0.00216596
-0.00453776
0.0020819
-0.00414058
0.00196747
-0.00360412
0.00182827
-0.00300232
0.00167651
-0.00239427
0.00152921
-0.00182407
0.00140111
-0.00132186
0.00130051
-0.000900913
0.00122845
-0.000558929
0.00117976
-0.000280589
0.00114674
-4.64191e-05
0.00112364
0.000158353
0.00110657
0.00034432
0.0010929
0.000520736
0.00108222
0.000693953
0.00107672
0.00086749
0.00108213
0.00104174
0.00111213
0.00121441
0.00119066
0.00137187
0.00138339
0.00149571
0.00173404
0.00137438
0.00187493
0.0011862
0.000548714
0.00282468
0.007705
0.0040327
0.00624875
0.00366919
0.00735726
0.00254358
0.00545944
0.00189017
0.00388997
0.00153358
0.00269163
0.00138885
0.00170668
0.00142297
0.000888116
0.00159795
0.000133315
0.00185063
-0.000616634
0.00212829
-0.00138587
0.00240812
-0.00220441
0.00265262
-0.00303806
0.00282015
-0.00378358
0.00288396
-0.00432719
0.0028411
-0.00459911
0.00270567
-0.00458882
0.0025001
-0.00433217
0.0022487
-0.00388918
0.0019742
-0.00332962
0.00169377
-0.00272189
0.00142475
-0.00212525
0.00118534
-0.00158466
0.000990446
-0.00112697
0.00084659
-0.000757057
0.000752311
-0.00046465
0.000698147
-0.000226425
0.000672532
-2.08043e-05
0.000666047
0.000164838
0.000671256
0.000339112
0.000682808
0.000509183
0.000697327
0.000679435
0.000712148
0.000852669
0.00072431
0.00102957
0.000729626
0.00120909
0.000717235
0.00138426
0.000648194
0.00156476
0.000135495
0.00188708
-0.00140663
0.00272815
-0.0026656
0.0040835
0.00514399
0.0024105
0.00400278
0.0033061
0.00646165
0.00325004
0.0055155
0.00303914
0.00410087
0.0028482
0.00288258
0.00272519
0.00182969
0.00271173
0.000901576
0.00280137
4.36789e-05
0.0029641
-0.000779363
0.00317529
-0.00159706
0.00339283
-0.00242195
0.00355652
-0.00320175
0.00361168
-0.00383873
0.00353189
-0.0042474
0.00332292
-0.00439012
0.00301112
-0.00427701
0.00263099
-0.00395203
0.00221591
-0.0034741
0.0017955
-0.0029092
0.00139353
-0.00231992
0.0010319
-0.00176361
0.00073097
-0.00128373
0.000504955
-0.000900956
0.00035292
-0.000605022
0.000265377
-0.000377106
0.000224963
-0.00018601
0.000216568
-1.24094e-05
0.000228972
0.000152434
0.000254171
0.000313913
0.000286832
0.000476523
0.000322595
0.000643672
0.000355323
0.000819941
0.000375019
0.00100988
0.000362683
0.00122143
0.000279236
0.00146771
3.05386e-05
0.00181347
-0.000711856
0.00262965
-0.00188789
0.00390419
-0.00220277
0.00439829
0.00305862
0.00145739
0.00273966
0.00274895
0.00517009
0.00343293
0.00483152
0.00371896
0.00381484
0.00381761
0.00278393
0.00384619
0.00180111
0.00388326
0.000864508
0.0039536
-2.66609e-05
0.00406462
-0.000890383
0.00420536
-0.00173781
0.00432415
-0.00254074
0.00435022
-0.00322782
0.00423216
-0.00372067
0.00395805
-0.00397329
0.00355057
-0.00398264
0.00304965
-0.00377608
0.00249912
-0.0034015
0.00193765
-0.00291263
0.00139938
-0.00237092
0.000911548
-0.00183209
0.000501763
-0.00135383
0.000190282
-0.000972248
-1.66509e-05
-0.000694024
-0.000135694
-0.000485978
-0.000192828
-0.000319972
-0.000210593
-0.000168245
-0.000202439
-2.05628e-05
-0.000176605
0.000126601
-0.000138051
0.00027536
-8.98603e-05
0.000428332
-3.5109e-05
0.00058892
2.06439e-05
0.000764188
6.62133e-05
0.000964308
7.90794e-05
0.00120856
1.30026e-05
0.00153378
-0.000206934
0.00203346
-0.000626837
0.00304994
-0.00141376
0.00469147
-0.00173132
0.00471609
0.00145813
0.00217318
0.000792461
0.00294288
0.0044004
0.00359272
0.00418167
0.00416296
0.00324461
0.00449093
0.00245596
0.00466585
0.00162618
0.00478375
0.000746617
0.00489007
-0.00013298
0.004998
-0.000998326
0.00507701
-0.00181683
0.00506134
-0.00252509
0.004891
-0.00305749
0.0045438
-0.00337348
0.00403884
-0.00346834
0.00342109
-0.00336489
0.00274124
-0.00309622
0.00204758
-0.00270783
0.00137797
-0.00224301
0.000771329
-0.00176428
0.000255353
-0.00131611
-0.000130113
-0.000968363
-0.000378978
-0.000723385
-0.000518832
-0.00055417
-0.000587526
-0.000417284
-0.000614494
-0.000293003
-0.000614178
-0.000168559
-0.000594915
-3.9824e-05
-0.000561421
9.31081e-05
-0.000515431
0.00022937
-0.000457311
0.000370213
-0.000387563
0.000519172
-0.000307486
0.000684111
-0.000222392
0.000879213
-0.000146274
0.00113243
-0.000108869
0.00149636
-0.000134142
0.00205873
-6.77719e-05
0.00298381
0.000150877
0.00447322
0.000280443
0.00458691
0.00187813
-0.00158217
0.00261975
0.00111566
0.00170257
0.0033483
0.00194904
0.00435088
0.00224203
0.00485499
0.00195185
0.00517042
0.00131076
0.00540008
0.000516952
0.00557989
-0.000312794
0.0056806
-0.00109904
0.00563992
-0.00177618
0.00540714
-0.00229233
0.00497081
-0.00262117
0.00435905
-0.00276173
0.00362473
-0.00273402
0.00282758
-0.00256774
0.00201712
-0.00228576
0.00124099
-0.00193171
0.000529695
-0.00153171
-6.70892e-05
-0.0011675
-0.000503575
-0.00087963
-0.000774523
-0.000697421
-0.000926513
-0.000571399
-0.00100624
-0.000474442
-0.00103978
-0.000383747
-0.00104405
-0.000288722
-0.00102836
-0.000184245
-0.000998916
-6.92642e-05
-0.000959582
5.37762e-05
-0.000910297
0.000180086
-0.000848607
0.000308523
-0.00077204
0.000442605
-0.000677746
0.000589817
-0.000564794
0.000766259
-0.000438927
0.00100655
-0.00031048
0.00136784
-0.000145334
0.00189343
0.000226811
0.00261159
0.000960471
0.00373978
0.00138986
0.00415777
0.00341538
0.00288148
0.00456886
0.00486896
0.00164894
0.00535512
0.00175587
0.00559152
0.00171546
0.00582355
0.00107872
0.00601208
0.000328422
0.0060792
-0.000379926
0.00595367
-0.000973541
0.0056025
-0.00142505
0.00503864
-0.0017285
0.00430919
-0.00189174
0.00347245
-0.00192501
0.00258649
-0.00184808
0.00170524
-0.0016865
0.000860675
-0.0014412
9.36562e-05
-0.00116469
-0.000534751
-0.000903308
-0.000979334
-0.000722931
-0.00125486
-0.000604115
-0.00141875
-0.000533545
-0.00150875
-0.000481413
-0.00155223
-0.000430951
-0.00156338
-0.000372586
-0.00155063
-0.000301457
-0.00152012
-0.00021474
-0.00147802
-0.000111354
-0.00143116
6.92256e-06
-0.00138168
0.000130606
-0.00132632
0.000253157
-0.00126196
0.000378241
-0.00118574
0.000513612
-0.00109545
0.000675979
-0.000986318
0.000897387
-0.000839825
0.0012212
-0.000594624
0.00164789
-7.24947e-05
0.00208901
0.00100244
0.00266464
0.00160844
0.00355161
0.00518017
0.00793213
0.00536527
0.00581176
0.00387627
0.00556303
0.00196423
0.00563495
0.00100685
0.00559944
0.000363957
0.00535521
-0.000135692
0.00489199
-0.000510335
0.00425108
-0.000784165
0.00348637
-0.000963807
0.0026505
-0.0010559
0.00178438
-0.00105891
0.00092363
-0.000987348
0.000101255
-0.000864133
-0.00062541
-0.000714545
-0.00119754
-0.000592582
-0.00159988
-0.000500988
-0.00186819
-0.000454652
-0.00203616
-0.000436182
-0.00214102
-0.000428705
-0.00220353
-0.000418907
-0.00223417
-0.000400288
-0.00223791
-0.000368799
-0.00221823
-0.000321091
-0.00217902
-0.000253895
-0.00212599
-0.00016436
-0.00206723
-5.18482e-05
-0.00201335
7.67179e-05
-0.0019674
0.000207183
-0.00192722
0.000338057
-0.00189235
0.00047877
-0.00186103
0.000644745
-0.00182075
0.000857198
-0.00173348
0.00113392
-0.00153828
0.00145242
-0.00113672
0.00168688
-0.000306474
0.00183365
0.000120911
0.0031235
0.00547144
0.0041062
0.00150565
0.0045071
0.00347539
0.00373608
0.00273529
0.0032332
0.00150976
0.00288755
0.000709621
0.00252023
0.000231616
0.0020728
-6.29117e-05
0.0015357
-0.000247064
0.000927378
-0.00035549
0.000264312
-0.000392836
-0.000417997
-0.000376603
-0.00106397
-0.000341382
-0.00162435
-0.000303762
-0.00206593
-0.000272995
-0.00239255
-0.000266004
-0.00261773
-0.000275859
-0.00277482
-0.000297627
-0.00288873
-0.000322305
-0.00297343
-0.000344021
-0.00303338
-0.000358931
-0.00306913
-0.00036447
-0.00308006
-0.000357777
-0.00306599
-0.000335047
-0.00302824
-0.000291553
-0.00297011
-0.000222456
-0.00289773
-0.000124252
-0.00282361
2.51429e-06
-0.00276133
0.000144807
-0.00271416
0.000290817
-0.00267721
0.000441827
-0.00264909
0.000616752
-0.00262841
0.000836764
-0.0026053
0.0011111
-0.00260287
0.00145021
-0.00285215
0.0019362
-0.00366665
0.00264796
-0.00368172
0.00313813
0.00197319
-0.00260478
-0.00677146
-0.00742138
-0.00746658
-0.00375246
-0.00216333
-0.00167465
0.00139758
-0.000761329
0.001822
-0.000563291
0.00131175
-0.000643375
0.000789723
-0.000826879
0.000415138
-0.00106242
0.000172646
-0.00134466
3.51921e-05
-0.00167558
-2.454e-05
-0.00203323
-3.51661e-05
-0.00239008
-1.97533e-05
-0.00272541
-6.06517e-06
-0.00301513
-1.4081e-05
-0.00323939
-4.88014e-05
-0.00340602
-9.94531e-05
-0.00353504
-0.000146928
-0.00364478
-0.000187949
-0.00374284
-0.00022427
-0.00382926
-0.000257578
-0.00390027
-0.000287838
-0.00395112
-0.000313482
-0.00397768
-0.000331047
-0.00397773
-0.000334823
-0.00395177
-0.000317371
-0.0039029
-0.000271271
-0.00383579
-0.000191415
-0.00375559
-7.78505e-05
-0.00367294
6.19274e-05
-0.00358567
0.000203332
-0.00348161
0.000337623
-0.00334896
0.000484091
-0.00317451
0.000662472
-0.00294182
0.000878712
-0.0026157
0.00112447
-0.00215499
0.00147585
-0.00173919
0.00223246
-0.00150235
0.00290158
0.000661285
-0.00735399
0.00103621
-0.00812784
-0.00669276
-0.00717953
-0.00311166
-0.00565805
-0.000123913
-0.0045657
0.000729672
-0.00397552
0.000721607
-0.00371827
0.000532527
-0.00365298
0.000349907
-0.00369474
0.000214474
-0.00378678
0.000127288
-0.00388792
7.66457e-05
-0.00397537
5.23102e-05
-0.00403827
4.31432e-05
-0.00408094
3.656e-05
-0.00411772
2.26218e-05
-0.0041614
-5.22607e-06
-0.00421723
-4.37252e-05
-0.00428264
-8.1602e-05
-0.00435471
-0.000115923
-0.00443055
-0.000148409
-0.00450733
-0.000180713
-0.00458231
-0.000212714
-0.00465297
-0.000242611
-0.00471694
-0.000266839
-0.00477149
-0.000280053
-0.00481279
-0.000275907
-0.0048353
-0.000248712
-0.0048316
-0.000195197
-0.00479441
-0.000115278
-0.00471905
-1.37898e-05
-0.00460168
8.55758e-05
-0.0044337
0.000169327
-0.00419337
0.000243537
-0.00385504
0.000324074
-0.00339291
0.000416666
-0.00275621
0.000487953
-0.00171833
0.000438232
0.000292177
0.000222209
0.00208779
0.00110625
0.00293438
0.00157809
-0.00504981
-0.00809801
-0.00816218
-0.00737784
-0.00660936
-0.00603665
-0.00565138
-0.00540467
-0.0052469
-0.00514047
-0.00505827
-0.0049846
-0.00491671
-0.00486212
-0.00483499
-0.00484615
-0.00489509
-0.00497837
-0.0050943
-0.00524289
-0.00542406
-0.00563597
-0.00587316
-0.00612477
-0.00637345
-0.00659603
-0.00676597
-0.00685662
-0.00684617
-0.00673662
-0.00654351
-0.00627648
-0.00592941
-0.0054905
-0.00498131
-0.00452307
-0.00428216
-0.0031585
)
;

boundaryField
{
    floor
    {
        type            calculated;
        value           nonuniform List<scalar> 
36
(
0
0
0
0
0
0
0
0
0
0
0
0
0
0
0
0
0
0
0
-6.4387e-06
-1.68819e-05
-2.60257e-05
-3.42907e-05
-3.49111e-05
-2.88048e-05
-2.86252e-05
-2.92019e-06
-5.44131e-06
-5.68761e-06
-5.90767e-06
-4.85448e-06
-8.93828e-06
-1.02098e-05
-1.28316e-05
-1.4457e-05
-1.54459e-05
)
;
    }
    ceiling
    {
        type            calculated;
        value           nonuniform List<scalar> 
43
(
-5.78972e-05
-6.48872e-05
-6.3469e-05
-5.97127e-05
-5.46152e-05
-4.68035e-05
-4.00835e-05
-3.52561e-05
-3.21416e-05
-3.04005e-05
-2.97337e-05
-2.9889e-05
-3.05685e-05
-3.13955e-05
-3.20552e-05
-3.24528e-05
-3.26482e-05
-3.27143e-05
-3.26526e-05
-3.24323e-05
-3.20139e-05
-3.13673e-05
-3.04905e-05
-2.94264e-05
-2.82678e-05
-2.71401e-05
-2.61624e-05
-2.54078e-05
-2.48866e-05
-2.45556e-05
-2.43297e-05
-2.4091e-05
-2.37213e-05
-2.31374e-05
-2.22957e-05
-2.12015e-05
-1.99254e-05
-1.85763e-05
-1.72228e-05
-1.61345e-05
1.93314e-05
1.51859e-05
-0.000246582
)
;
    }
    sWall
    {
        type            calculated;
        value           nonuniform List<scalar> 9(-0.000140236 -0.000164529 -0.00019427 -0.000225987 -0.000245124 -0.000281059 -0.000423634 -0.00045373 -0.000484009);
    }
    nWall
    {
        type            calculated;
        value           nonuniform List<scalar> 
14
(
-9.01933e-05
-9.73994e-05
-0.000102912
-0.000104599
-0.000117421
-0.00013077
-0.000139193
-0.000147295
-0.000156597
-0.000170752
-0.000183932
-0.000190155
-0.000185094
-0.000207764
)
;
    }
    sideWalls
    {
        type            empty;
        value           nonuniform 0();
    }
    glass1
    {
        type            calculated;
        value           nonuniform List<scalar> 9(-6.4034e-05 -0.00017032 -0.00025792 -0.000331202 -0.000393184 -0.000446387 -0.000492197 -0.000535478 -0.000587163);
    }
    glass2
    {
        type            calculated;
        value           nonuniform List<scalar> 2(-0.000367847 -0.000384969);
    }
    sun
    {
        type            calculated;
        value           uniform 0;
    }
    Table_master
    {
        type            calculated;
        value           nonuniform List<scalar> 9(-1.53992e-07 -1.54109e-07 -1.54141e-07 -1.54161e-07 -1.54174e-07 -1.54179e-07 -1.54177e-07 -1.54163e-07 -1.5411e-07);
    }
    Table_slave
    {
        type            calculated;
        value           nonuniform List<scalar> 9(1.53661e-07 1.53717e-07 1.53716e-07 1.53733e-07 1.53753e-07 1.53797e-07 1.53864e-07 1.53957e-07 1.54085e-07);
    }
    inlet
    {
        type            calculated;
        value           uniform -0.0116484;
    }
    outlet
    {
        type            calculated;
        value           nonuniform List<scalar> 2(0.00979982 0.0122831);
    }
}


// ************************************************************************* //
