/*--------------------------------*- C++ -*----------------------------------*\
  =========                 |
  \\      /  F ield         | OpenFOAM: The Open Source CFD Toolbox
   \\    /   O peration     | Website:  https://openfoam.org
    \\  /    A nd           | Version:  6
     \\/     M anipulation  |
\*---------------------------------------------------------------------------*/
FoamFile
{
    version     2.0;
    format      ascii;
    class       volScalarField;
    location    "3970";
    object      nut;
}
// * * * * * * * * * * * * * * * * * * * * * * * * * * * * * * * * * * * * * //

dimensions      [0 2 -1 0 0 0 0];

internalField   nonuniform List<scalar> 
458
(
0.0010694
0.00116385
0.00119015
0.00124709
0.00129953
0.00134918
0.00139888
0.0014493
0.00149053
0.00151642
0.00151935
0.00149178
0.00142424
0.00128123
0.00097197
0.000480391
0.000563165
0.000638488
0.000665741
0.000655322
0.000613251
0.000566701
0.00052505
0.000488965
0.000457628
0.000430265
0.000406311
0.000385078
0.000365739
0.000347395
0.000328976
0.000318032
0.00029229
0.00144199
0.00324237
0.00299041
0.00342642
0.00386115
0.00430835
0.00470928
0.0050195
0.00533813
0.0056363
0.00587544
0.00602087
0.00603453
0.00582468
0.00473461
0.00128297
0.0010644
0.000868435
0.00047652
0.00113086
0.00164829
0.00204894
0.00217557
0.00158548
0.00133849
0.00117036
0.00104633
0.000951285
0.000875926
0.000810948
0.000749835
0.000688835
0.00063435
0.000588569
0.000719998
0.000384252
0.00175321
0.00435751
0.00359596
0.00438459
0.00471619
0.00494891
0.00512784
0.00529299
0.0055225
0.00580158
0.0061065
0.0064054
0.00664156
0.00672482
0.0063368
0.00516477
0.00391435
0.00102564
0.000734004
0.00126657
0.00184321
0.00241696
0.00258086
0.00082421
0.000721588
0.000636189
0.000567025
0.000511212
0.000465981
0.000429214
0.000399482
0.000376355
0.000417089
0.00048304
0.000844722
0.00045409
0.00205325
0.00556667
0.00349818
0.00454302
0.00472463
0.00470688
0.00469036
0.00476971
0.00495625
0.00523214
0.00558272
0.00597399
0.00631699
0.00653319
0.00648474
0.00614976
0.00527797
0.0028977
0.0011816
0.00150487
0.00206904
0.00275999
0.00335861
0.00338829
0.00092841
0.000851026
0.000798317
0.000759413
0.000726513
0.000693856
0.000662811
0.000630007
0.000591661
0.000557348
0.00054916
0.00100685
0.000522986
0.00235968
0.00719301
0.00366947
0.00431271
0.00457246
0.00441837
0.00429286
0.00436495
0.00456181
0.00484894
0.00522704
0.00565597
0.00599219
0.00615987
0.00615626
0.0060393
0.0056913
0.00470623
0.00426545
0.00429683
0.00454765
0.00484643
0.0050298
0.00494758
0.00422155
0.00384816
0.00364204
0.00349453
0.00334522
0.00315281
0.00282603
0.0024052
0.00192649
0.00146544
0.00109907
0.00102379
0.000888768
0.000699213
0.000740174
0.000804525
0.00268783
0.00902586
0.00502609
0.00399308
0.00435243
0.00434408
0.00418426
0.00424413
0.00444519
0.00473223
0.00511551
0.00552698
0.00583822
0.00593773
0.00584398
0.00570989
0.00564949
0.00556865
0.00573659
0.00602771
0.00623211
0.00626862
0.00613147
0.00584448
0.00544356
0.00511767
0.00486351
0.00463975
0.00442037
0.00418757
0.00388627
0.00347338
0.00295114
0.0023604
0.00181364
0.00131491
0.00108078
0.000942861
0.00118734
0.000834447
0.00301104
0.0104106
0.00750072
0.00490787
0.00427117
0.00433308
0.00438923
0.00442087
0.00453409
0.00478693
0.00516419
0.00557211
0.00585775
0.00589003
0.00571161
0.00558304
0.00579817
0.00627369
0.00675808
0.0070318
0.00703315
0.00679947
0.00640266
0.00591986
0.00543926
0.00505233
0.0047593
0.0045217
0.00431389
0.00412722
0.0039573
0.00373512
0.00336981
0.00288243
0.00237587
0.00188904
0.00157134
0.00143955
0.00137216
0.000991352
0.00309068
0.00966354
0.00820314
0.00688318
0.00587497
0.00542892
0.00501057
0.00472535
0.00471885
0.00495964
0.00535001
0.00575344
0.00599438
0.00594033
0.00572214
0.00577849
0.00639231
0.00689569
0.00715779
0.00714602
0.00686228
0.00637125
0.00576601
0.00515637
0.00464999
0.00429513
0.00405579
0.00388381
0.0037567
0.00367092
0.0036328
0.0036342
0.00353671
0.00324684
0.00296421
0.00280661
0.00287509
0.00303517
0.00360528
0.00153578
0.0030299
0.00365339
0.0040343
0.00424626
0.0042757
0.00421072
0.0042109
0.00438514
0.00474096
0.00519577
0.00566279
0.00603215
0.00615262
0.00594294
0.00588503
0.00619707
0.00655728
0.00668088
0.00659197
0.00627987
0.00575716
0.00511091
0.00446655
0.0039376
0.00357182
0.00333884
0.00318253
0.00306375
0.00296245
0.00286726
0.0027696
0.00266237
0.00256519
0.0024813
0.00242567
0.0023943
0.00233475
0.00221199
0.00206269
0.00143461
0.00133526
0.0023471
0.00322221
0.00390677
0.00453191
0.00514116
0.00562564
0.0059523
0.00616681
0.0062013
0.00600177
0.00575698
0.00575898
0.00586274
0.00578415
0.00555142
0.00518431
0.00468994
0.00412083
0.00356518
0.00312293
0.00282516
0.00264262
0.00253071
0.00245629
0.00240208
0.00236047
0.00232975
0.00231248
0.00231791
0.00233146
0.00234359
0.00234432
0.00230727
0.00219304
0.00199166
0.00174211
0.00115433
0.00201499
0.00395732
0.00507485
0.00580012
0.00636507
0.00641525
0.00608735
0.00575725
0.00547365
0.00492872
0.0045404
0.00445009
0.00438874
0.00421704
0.0039582
0.00363735
0.00326092
0.00286515
0.00250843
0.00223094
0.00203973
0.00192952
0.00187793
0.00186687
0.00188529
0.00192593
0.00198272
0.00204841
0.00212516
0.00221356
0.00230807
0.00240093
0.00247651
0.00251437
0.00247936
0.00244881
0.00225457
0.00116929
0.00211914
0.0021715
0.00221907
0.00246888
0.00233372
0.00206825
0.00174486
0.00148453
0.00132511
0.00117365
0.00104026
0.00093583
0.000847376
0.000780314
0.000733674
0.000699613
0.000672217
0.000648643
0.000629178
0.000616045
0.000611149
0.000614834
0.000625749
0.000641795
0.00066207
0.000686096
0.000713713
0.000745146
0.000780885
0.000822034
0.000868833
0.000920954
0.000978665
0.00104224
0.0011117
0.00119496
0.00123141
0.0012062
0.00112192
0.00103762
)
;

boundaryField
{
    floor
    {
        type            nutkWallFunction;
        Cmu             0.09;
        kappa           0.41;
        E               9.8;
        value           nonuniform List<scalar> 
36
(
0.000117415
5.7204e-05
6.77284e-05
7.71407e-05
8.05122e-05
7.92251e-05
7.40029e-05
6.81735e-05
6.29078e-05
5.8304e-05
5.42715e-05
5.07221e-05
4.75915e-05
4.47967e-05
4.22341e-05
3.97871e-05
3.73132e-05
3.58347e-05
3.233e-05
3.23299e-05
4.46869e-05
5.38133e-05
6.26447e-05
8.463e-05
8.96381e-05
9.74411e-05
0.000117415
0.00015352
0.000128266
0.000105117
5.7204e-05
0.000105117
5.67064e-05
0.000123731
8.88863e-05
0.000141875
)
;
    }
    ceiling
    {
        type            nutkWallFunction;
        Cmu             0.09;
        kappa           0.41;
        E               9.8;
        value           nonuniform List<scalar> 
43
(
0.000246188
0.000251842
0.000256969
0.000283773
0.000269378
0.000240786
0.000205395
0.000176377
0.000158332
0.000140959
0.000125446
0.000113142
0.000102596
9.45143e-05
8.88459e-05
8.46792e-05
8.13104e-05
7.83983e-05
7.59843e-05
7.43504e-05
7.37402e-05
7.41995e-05
7.55581e-05
7.755e-05
8.00584e-05
8.3019e-05
8.64069e-05
9.02439e-05
9.45835e-05
9.95511e-05
0.000105165
0.000111377
0.000118208
0.000125679
0.000133783
0.000143422
0.000147617
0.000144717
0.000134971
0.000125139
0.000343193
0.000407608
0.000234819
)
;
    }
    sWall
    {
        type            nutkWallFunction;
        Cmu             0.09;
        kappa           0.41;
        E               9.8;
        value           uniform 0.000246254;
    }
    nWall
    {
        type            nutkWallFunction;
        Cmu             0.09;
        kappa           0.41;
        E               9.8;
        value           nonuniform List<scalar> 6(9.74417e-05 0.000101045 0.000119707 0.000138739 0.00014047 0.000125146);
    }
    sideWalls
    {
        type            empty;
    }
    glass1
    {
        type            nutkWallFunction;
        Cmu             0.09;
        kappa           0.41;
        E               9.8;
        value           nonuniform List<scalar> 9(0.000128958 0.000171811 0.000206643 0.000239583 0.000272694 0.000307648 0.000341643 0.00034997 0.000343641);
    }
    glass2
    {
        type            nutkWallFunction;
        Cmu             0.09;
        kappa           0.41;
        E               9.8;
        value           nonuniform List<scalar> 2(0.000182232 0.00017084);
    }
    sun
    {
        type            nutkWallFunction;
        Cmu             0.09;
        kappa           0.41;
        E               9.8;
        value           nonuniform List<scalar> 
14
(
0.000128854
0.000139823
0.00014286
0.000149409
0.000155412
0.00016107
0.000166711
0.000172411
0.000177054
0.000179964
0.000180292
0.000177195
0.000169579
0.00015332
)
;
    }
    Table_master
    {
        type            nutkWallFunction;
        Cmu             0.09;
        kappa           0.41;
        E               9.8;
        value           nonuniform List<scalar> 9(9.98119e-05 8.73713e-05 7.6858e-05 6.82187e-05 6.11532e-05 5.53575e-05 5.05945e-05 4.67054e-05 4.36549e-05);
    }
    Table_slave
    {
        type            nutkWallFunction;
        Cmu             0.09;
        kappa           0.41;
        E               9.8;
        value           nonuniform List<scalar> 9(0.000112259 0.000103032 9.66912e-05 9.19796e-05 8.79728e-05 8.39741e-05 8.0152e-05 7.60899e-05 7.13088e-05);
    }
    inlet
    {
        type            calculated;
        value           uniform 0.000167705;
    }
    outlet
    {
        type            calculated;
        value           nonuniform List<scalar> 2(0.00211914 0.0021715);
    }
}


// ************************************************************************* //
