/*--------------------------------*- C++ -*----------------------------------*\
  =========                 |
  \\      /  F ield         | OpenFOAM: The Open Source CFD Toolbox
   \\    /   O peration     | Website:  https://openfoam.org
    \\  /    A nd           | Version:  6
     \\/     M anipulation  |
\*---------------------------------------------------------------------------*/
FoamFile
{
    version     2.0;
    format      ascii;
    class       volScalarField;
    location    "33699.999997878469";
    object      alphat;
}
// * * * * * * * * * * * * * * * * * * * * * * * * * * * * * * * * * * * * * //

dimensions      [1 -1 -1 0 0 0 0];

internalField   nonuniform List<scalar> 
778
(
0.00104102
0.00111058
0.00110658
0.0011546
0.0011986
0.00123856
0.00127576
0.00131162
0.00134773
0.0013861
0.00142271
0.00145751
0.00149181
0.0015287
0.00156721
0.00073668
0.00105575
0.00106427
0.00103848
0.000995343
0.000937701
0.000880294
0.000827456
0.000779845
0.000737155
0.000699101
0.000664912
0.000633761
0.000604682
0.000576383
0.000546794
0.000522214
0.000472657
0.0015247
0.00300743
0.00263941
0.00304654
0.00334196
0.00365509
0.0039674
0.00425515
0.00448675
0.00462158
0.00470091
0.00466843
0.00443593
0.00385951
0.00281901
0.00171617
0.00163629
0.00156635
0.00131898
0.00224678
0.00311444
0.0036269
0.00365082
0.0028807
0.00246374
0.00217458
0.00195503
0.00178046
0.00163172
0.00150023
0.00137786
0.00125812
0.00115067
0.00105801
0.00119154
0.000599352
0.0019342
0.00419901
0.00311343
0.00445343
0.00497619
0.00541843
0.00581994
0.00617319
0.00647238
0.006707
0.00693447
0.00717417
0.00739493
0.00752718
0.00744204
0.00681575
0.0049858
0.00192153
0.00166356
0.00355825
0.00496674
0.00563396
0.00512503
0.00135231
0.0011759
0.00103973
0.000933157
0.000848352
0.00077992
0.000724128
0.000678763
0.000643396
0.00070723
0.000831886
0.00131697
0.000681963
0.00232918
0.00565877
0.0029791
0.00500687
0.00578072
0.00619454
0.0064986
0.00672334
0.00689091
0.00702671
0.00722013
0.00754747
0.00802569
0.00862771
0.0092337
0.00953395
0.0089558
0.00668625
0.00191346
0.00442641
0.0065878
0.00768845
0.0079619
0.00679916
0.00153942
0.00140031
0.00129262
0.00120299
0.00112658
0.00105796
0.000993289
0.000929078
0.000859748
0.000803073
0.000832251
0.00142541
0.000751095
0.00271847
0.007491
0.00300572
0.00475913
0.00594883
0.00630158
0.00642931
0.00643376
0.00636931
0.00631222
0.00639289
0.00671067
0.00729454
0.0081221
0.00908239
0.00996766
0.0105294
0.0105234
0.00944392
0.00960768
0.00982837
0.00986071
0.00966188
0.00904525
0.00719978
0.00621992
0.00554856
0.00500364
0.00446848
0.00394973
0.0034421
0.00293518
0.0024146
0.00185483
0.00141554
0.0014133
0.00111857
0.000895572
0.00117931
0.00113435
0.00310143
0.00954127
0.00353878
0.00401289
0.00569923
0.00609064
0.00605889
0.00584028
0.005528
0.00527044
0.00526441
0.00559733
0.00626255
0.0072221
0.00834523
0.00946773
0.0104219
0.0110314
0.0111422
0.0110302
0.0108349
0.0105581
0.0102024
0.0097496
0.00908815
0.00845048
0.00787129
0.00731185
0.00670714
0.006061
0.00537075
0.00463074
0.00383635
0.00299366
0.00223116
0.00167534
0.00130133
0.00145377
0.00252125
0.00135788
0.00349222
0.0114364
0.00471582
0.00328758
0.00512043
0.00576078
0.00568934
0.00533596
0.00482362
0.00437309
0.00435992
0.00478034
0.00554199
0.00661521
0.00783568
0.00904372
0.0100826
0.010826
0.0111676
0.0111408
0.0108961
0.0105259
0.0101021
0.00967934
0.00927043
0.008895
0.00854215
0.00816586
0.00771088
0.00716302
0.00651444
0.00576215
0.00490897
0.00397654
0.0030655
0.0022182
0.00163469
0.00145523
0.00256637
0.0015982
0.00382796
0.0128689
0.00642871
0.00313097
0.00405551
0.0051064
0.00525303
0.00496285
0.00435707
0.00374498
0.00388349
0.00443979
0.00529222
0.00639861
0.00766732
0.00893213
0.0100096
0.0107571
0.0110959
0.0110507
0.0107343
0.0102681
0.00976678
0.00932219
0.00897954
0.00873472
0.00854369
0.00833622
0.00804706
0.00764234
0.00710639
0.00643603
0.00563736
0.00473387
0.00379477
0.00285114
0.00199919
0.00134328
0.0036316
0.00207997
0.00392911
0.012173
0.00795132
0.00404872
0.0027497
0.00336781
0.00394216
0.00399128
0.00352398
0.00342487
0.00378048
0.00443516
0.00535794
0.00653254
0.0078632
0.0091671
0.0102401
0.0109289
0.0111695
0.0110015
0.0105428
0.00994144
0.00934462
0.0088684
0.00856626
0.00841806
0.00835078
0.00827092
0.00810419
0.00781143
0.00737723
0.00679982
0.00608607
0.00525496
0.00434377
0.00332376
0.00194065
0.00170526
0.00546834
0.00239006
0.00384953
0.00980958
0.00820771
0.00555494
0.00366993
0.00284098
0.00268975
0.00281596
0.00305255
0.00342898
0.00396379
0.00470155
0.00570668
0.0069746
0.0083784
0.00970027
0.0107158
0.0112727
0.0113285
0.0109511
0.0102886
0.009526
0.00884463
0.00837765
0.00816401
0.00813943
0.00818573
0.00818472
0.00807593
0.00783801
0.00746385
0.0069526
0.00630773
0.00553556
0.00460999
0.0031837
0.00141964
0.00337472
0.00516026
0.0024128
0.0036057
0.00838224
0.00793313
0.00635387
0.00489185
0.00393871
0.00346673
0.0033595
0.0035542
0.00391335
0.00443686
0.00521712
0.00632893
0.0077202
0.00919519
0.0104872
0.0113594
0.0116801
0.0114477
0.0107774
0.00986813
0.00895654
0.00826243
0.00791445
0.00787554
0.00799056
0.0081051
0.00810721
0.00799167
0.00776076
0.00741017
0.00693319
0.00632394
0.00556703
0.00455586
0.0027363
0.00161137
0.00377271
0.0049358
0.00237725
0.00328281
0.00755726
0.00765112
0.00672362
0.0057215
0.00496639
0.00452147
0.00436235
0.00440179
0.00461902
0.00510133
0.00597524
0.00726229
0.00880319
0.0103071
0.0114649
0.0120545
0.0119971
0.0113601
0.010329
0.0091783
0.00821474
0.00766906
0.00756186
0.00766117
0.00781242
0.00790963
0.00788134
0.00774674
0.00751402
0.00717457
0.00670581
0.00608736
0.00528029
0.00418185
0.00254219
0.00176029
0.00386929
0.00541701
0.00235502
0.00299326
0.00676022
0.0073052
0.00686786
0.0062252
0.00568485
0.00532533
0.00514942
0.0050976
0.00528511
0.00590012
0.00704423
0.00860181
0.0102667
0.0116661
0.0124948
0.0126
0.0119982
0.0108599
0.00946562
0.0081992
0.00738919
0.00704122
0.00701066
0.00711904
0.00724905
0.00732503
0.00729771
0.00716072
0.00692648
0.00657853
0.0060775
0.00536861
0.00441599
0.00328473
0.00222641
0.00200344
0.00399461
0.00552268
0.00250455
0.00300432
0.00670977
0.00746436
0.00695033
0.00643007
0.00600391
0.0056966
0.00549735
0.00549153
0.00594759
0.00703381
0.00865481
0.0104774
0.0120754
0.0130795
0.0132806
0.0126669
0.0113854
0.00975408
0.00817229
0.00702904
0.00637278
0.00608314
0.00602655
0.00608635
0.00617108
0.00622071
0.00619793
0.00605126
0.00579496
0.00539126
0.00476514
0.00387243
0.00287349
0.00216427
0.00199368
0.00247784
0.00448303
0.00556667
0.00255647
0.00271024
0.0028202
0.00416557
0.00489763
0.00512489
0.00512948
0.00508086
0.0051785
0.00581295
0.00716392
0.00906365
0.0111075
0.0128415
0.0138929
0.0140539
0.0132995
0.011818
0.00988714
0.00804725
0.00661806
0.00567988
0.00516055
0.00493286
0.00485834
0.00483758
0.00481363
0.00476077
0.00466742
0.00449284
0.00420871
0.00378762
0.00318156
0.00248585
0.00201221
0.00197839
0.0023591
0.00318552
0.00493641
0.0059888
0.0025356
0.00096443
0.00173853
0.00266606
0.00340884
0.00427306
0.00574689
0.00791536
0.0103211
0.0125037
0.0141182
0.0149321
0.014804
0.0137576
0.0119174
0.0097501
0.00771394
0.00612014
0.00507543
0.00451937
0.00425835
0.00412331
0.00402012
0.00390666
0.00377014
0.00361456
0.00345045
0.00328269
0.00307715
0.00282539
0.00251545
0.00221977
0.0021266
0.0023744
0.0029445
0.00375761
0.00467283
0.00514636
0.00241171
0.00178744
0.00246699
0.00358632
0.00558825
0.00830917
0.0110323
0.0131414
0.0146574
0.0155595
0.0157777
0.0151954
0.0137101
0.0115646
0.00918242
0.00703923
0.00547734
0.00459558
0.00419879
0.00403083
0.00393895
0.00385799
0.00376545
0.00365892
0.00354538
0.00343402
0.00333054
0.00323307
0.00312891
0.00301169
0.00288675
0.00278387
0.00279409
0.00304014
0.00356803
0.0042891
0.00493894
0.00511287
0.00235558
0.00323889
0.0078678
0.0072558
0.00648286
0.00822092
0.0109485
0.0132469
0.0147969
0.0156122
0.0158047
0.015455
0.0145172
0.0129511
0.0108307
0.0084886
0.00645188
0.00514523
0.00453528
0.00430873
0.00422292
0.00416626
0.00409839
0.00401013
0.00390605
0.00379705
0.00369661
0.00361824
0.00357286
0.00356537
0.00358926
0.00362296
0.00365886
0.00372315
0.00386229
0.00414399
0.00464028
0.0053925
0.0063607
0.00662904
0.00259712
0.00309553
0.00597833
0.00771437
0.00987297
0.0109498
0.0120594
0.0127031
0.012856
0.0126076
0.0120138
0.0110843
0.00980654
0.00824128
0.00662187
0.00530071
0.00450202
0.00414396
0.00402292
0.00399368
0.00398286
0.00395837
0.00390971
0.003838
0.00375095
0.00366091
0.00358492
0.00354439
0.00356216
0.00365672
0.00383385
0.00407318
0.00431267
0.00452392
0.00477372
0.00513591
0.00567539
0.00644249
0.00759897
0.00726036
0.00277954
0.00289432
0.00248094
0.00246839
0.00254008
0.002599
0.00252032
0.00236822
0.00218987
0.00200865
0.00183286
0.00166538
0.00151179
0.00138377
0.00129428
0.00124713
0.00123141
0.00123274
0.00124154
0.00125294
0.00126503
0.00127762
0.00129166
0.00130897
0.00133203
0.00136355
0.00140578
0.00145963
0.00152399
0.00159591
0.00167185
0.0017493
0.00182824
0.00190913
0.00199295
0.00208424
0.00218643
0.00229895
0.00242406
0.00256772
0.0025287
)
;

boundaryField
{
    floor
    {
        type            compressible::alphatWallFunction;
        Prt             0.85;
        value           nonuniform List<scalar> 
36
(
0.000219867
0.000104461
0.000149989
0.000151179
0.000147569
0.000141508
0.00013336
0.000125187
0.000117609
0.000110731
0.000104522
9.89503e-05
9.39135e-05
8.92969e-05
8.49625e-05
8.07198e-05
7.62561e-05
7.25256e-05
6.49371e-05
6.49363e-05
8.41664e-05
9.64306e-05
0.000106555
0.000127372
0.00016719
0.000160964
0.000219864
0.000239693
0.000229082
0.000219747
0.00010446
0.000219745
0.000186334
0.000266719
0.000232704
0.000265662
)
;
    }
    ceiling
    {
        type            compressible::alphatWallFunction;
        Prt             0.85;
        value           nonuniform List<scalar> 
43
(
0.000391125
0.000338937
0.000337346
0.000346472
0.000353962
0.000344015
0.000324657
0.000301775
0.000278313
0.000255325
0.000233191
0.000212664
0.000195366
0.000183163
0.000176699
0.000174534
0.000174719
0.000175934
0.000177507
0.000179173
0.000180901
0.000182818
0.00018517
0.000188291
0.000192545
0.000198236
0.000205483
0.00021413
0.000223773
0.000233926
0.000244243
0.000254705
0.000265385
0.000276385
0.000288287
0.000301527
0.000316027
0.000332063
0.000350346
0.000345245
0.000368317
0.000382139
0.000248625
)
;
    }
    sWall
    {
        type            compressible::alphatWallFunction;
        Prt             0.85;
        value           nonuniform List<scalar> 9(0.000507612 0.000477866 0.000438161 0.000402221 0.000403591 0.000366742 0.000432094 0.000414367 0.000389374);
    }
    nWall
    {
        type            compressible::alphatWallFunction;
        Prt             0.85;
        value           nonuniform List<scalar> 
14
(
0.000160516
0.000191188
0.000223546
0.00032977
0.000325269
0.000322538
0.000341697
0.000348236
0.000345242
0.000329462
0.000322478
0.000353632
0.00037626
0.000344551
)
;
    }
    sideWalls
    {
        type            empty;
    }
    glass1
    {
        type            compressible::alphatWallFunction;
        Prt             0.85;
        value           nonuniform List<scalar> 9(0.000143932 0.00020914 0.000262698 0.00031331 0.000362385 0.00041001 0.000458023 0.000498881 0.000511237);
    }
    glass2
    {
        type            compressible::alphatWallFunction;
        Prt             0.85;
        value           nonuniform List<scalar> 2(0.000284721 0.000324506);
    }
    sun
    {
        type            compressible::alphatWallFunction;
        Prt             0.85;
        value           nonuniform List<scalar> 
14
(
0.000147966
0.000157652
0.000157093
0.000163759
0.00016984
0.000175339
0.000180441
0.000185343
0.000190263
0.000195476
0.000200434
0.000205133
0.000209752
0.000214708
)
;
    }
    Table_master
    {
        type            compressible::alphatWallFunction;
        Prt             0.85;
        value           nonuniform List<scalar> 9(0.000191141 0.000166954 0.000147999 0.000132964 0.000120856 0.000110981 0.000102853 9.61881e-05 9.09548e-05);
    }
    Table_slave
    {
        type            compressible::alphatWallFunction;
        Prt             0.85;
        value           nonuniform List<scalar> 9(0.000216414 0.000197664 0.000183004 0.000170696 0.000160122 0.000150556 0.000141474 0.000132388 0.000122494);
    }
    inlet
    {
        type            fixedValue;
        value           uniform 1.94e-05;
    }
    outlet
    {
        type            zeroGradient;
    }
}


// ************************************************************************* //
