/*--------------------------------*- C++ -*----------------------------------*\
  =========                 |
  \\      /  F ield         | OpenFOAM: The Open Source CFD Toolbox
   \\    /   O peration     | Website:  https://openfoam.org
    \\  /    A nd           | Version:  6
     \\/     M anipulation  |
\*---------------------------------------------------------------------------*/
FoamFile
{
    version     2.0;
    format      ascii;
    class       volScalarField;
    location    "33699.999997878469";
    object      nut;
}
// * * * * * * * * * * * * * * * * * * * * * * * * * * * * * * * * * * * * * //

dimensions      [0 2 -1 0 0 0 0];

internalField   nonuniform List<scalar> 
778
(
0.000894339
0.000953097
0.000949608
0.000990803
0.00102855
0.00106282
0.00109473
0.00112548
0.00115644
0.00118936
0.00122075
0.00125057
0.00127996
0.00131157
0.00134456
0.000632167
0.000905585
0.000912865
0.000890745
0.000853749
0.000804317
0.000755087
0.000709775
0.000668946
0.000632337
0.000599704
0.000570385
0.000543672
0.000518735
0.000494468
0.000469094
0.000448019
0.000405546
0.00131083
0.00258128
0.00226516
0.00261457
0.0028681
0.00313685
0.00340486
0.00365179
0.00385051
0.00396615
0.00403412
0.00400606
0.0038063
0.00331141
0.00241845
0.00147222
0.00140363
0.00134362
0.00113135
0.00192705
0.00267117
0.00311067
0.00313117
0.00247068
0.00211308
0.00186509
0.0016768
0.00152708
0.00139951
0.00128675
0.0011818
0.00107912
0.000986973
0.000907527
0.00102212
0.000514222
0.0016641
0.00360466
0.00267228
0.00382249
0.00427134
0.00465109
0.00499588
0.00529921
0.00555609
0.00575745
0.00595254
0.0061579
0.00634674
0.00645936
0.00638534
0.0058472
0.00427685
0.00164819
0.00142679
0.00305173
0.0042597
0.00483193
0.00439547
0.00115981
0.00100852
0.000891734
0.000800333
0.000727601
0.000668912
0.000621064
0.000582158
0.00055183
0.000606589
0.000713529
0.00112967
0.000585088
0.00200536
0.00485889
0.0025573
0.00429814
0.0049628
0.00531845
0.00557988
0.00577317
0.00591729
0.00603398
0.00619992
0.00648048
0.00689009
0.00740544
0.00792383
0.00817983
0.00768255
0.00573501
0.00164115
0.00379634
0.00565
0.00659396
0.00682851
0.00583131
0.00132029
0.00120098
0.00110862
0.00103175
0.000966218
0.00090737
0.000851902
0.000796831
0.00073737
0.000688777
0.000713825
0.00122265
0.000644395
0.00234213
0.00643385
0.00258048
0.00408601
0.00510798
0.00541148
0.00552178
0.00552617
0.00547126
0.00542247
0.00549169
0.00576413
0.00626442
0.00697315
0.00779521
0.00855264
0.00903267
0.00902632
0.0080998
0.00824005
0.00842929
0.00845708
0.00828663
0.00775783
0.00617507
0.0053347
0.0047589
0.00429154
0.00383255
0.00338763
0.00295223
0.00251745
0.00207096
0.00159086
0.00121411
0.00121225
0.000959612
0.000768337
0.00101181
0.000973544
0.0026738
0.00819728
0.00303857
0.00344572
0.00489434
0.00523121
0.00520472
0.00501766
0.00474998
0.00452906
0.00452394
0.00480955
0.00537983
0.00620182
0.00716341
0.00812411
0.00894055
0.00946198
0.00955638
0.0094601
0.00929258
0.00905537
0.00875046
0.0083622
0.00779495
0.00724807
0.00675131
0.00627148
0.00575281
0.0051986
0.00460656
0.00397183
0.00329045
0.00256767
0.00191369
0.00143701
0.00111632
0.00124714
0.00216301
0.00116546
0.00301239
0.00982877
0.00404997
0.00282321
0.00439773
0.00494845
0.00488789
0.00458506
0.00414549
0.0037588
0.00374769
0.00410869
0.00476192
0.00568146
0.00672644
0.00776038
0.00864942
0.00928567
0.00957797
0.00955489
0.00934524
0.00902796
0.0086647
0.00830228
0.00795164
0.00762967
0.00732704
0.00700427
0.00661399
0.00614405
0.0055877
0.00494241
0.00421057
0.00341078
0.00262936
0.00190265
0.00140223
0.00124835
0.00220165
0.00137167
0.00330375
0.0110654
0.0055229
0.00268909
0.0034834
0.00438664
0.00451328
0.00426464
0.00374471
0.00321927
0.00333867
0.00381653
0.00454774
0.00549571
0.00658192
0.00766433
0.00858636
0.00922616
0.00951624
0.00947763
0.00920668
0.00880723
0.00837751
0.00799635
0.00770254
0.00749258
0.00732871
0.00715071
0.00690263
0.00655542
0.00609564
0.00552058
0.00483547
0.00406047
0.00325495
0.00244558
0.00171488
0.0011523
0.00311567
0.00178623
0.00339344
0.0104828
0.00683851
0.00347916
0.00236222
0.00289334
0.00338717
0.00342984
0.00302885
0.00294433
0.00325042
0.00381279
0.0046042
0.00561037
0.00674935
0.00786504
0.00878324
0.00937287
0.00957912
0.00943556
0.00904275
0.00852747
0.00801589
0.00760757
0.00734846
0.00722133
0.00716357
0.007095
0.0069519
0.00670069
0.00632816
0.0058328
0.0052205
0.00450755
0.00372594
0.00285102
0.00166468
0.0014629
0.00469237
0.00205358
0.00332463
0.00845616
0.00706662
0.00477792
0.00315474
0.00244161
0.00231157
0.00242023
0.00262417
0.00294845
0.00340847
0.00404183
0.0049033
0.00598882
0.00718996
0.00832085
0.00918999
0.00966704
0.00971535
0.00939262
0.00882526
0.00817172
0.00758755
0.00718708
0.00700379
0.00698265
0.00702227
0.0070213
0.00692788
0.00672368
0.00640264
0.005964
0.00541076
0.00474835
0.00395438
0.00273095
0.00121785
0.00289674
0.00443109
0.00207321
0.00311415
0.00722912
0.00683471
0.00546942
0.0042084
0.00338732
0.00298104
0.00288892
0.00305684
0.00336606
0.00381572
0.00448454
0.00543636
0.00662662
0.0078882
0.00899355
0.00974045
0.0100159
0.0098178
0.00924433
0.00846537
0.00768393
0.00708867
0.00679014
0.00675666
0.00685521
0.00695333
0.00695501
0.00685577
0.00665757
0.00635673
0.00594749
0.00542479
0.00477546
0.00390804
0.00234725
0.00138252
0.00323903
0.00423941
0.00204283
0.00283564
0.00651965
0.00659489
0.0057914
0.00492571
0.00427429
0.00389083
0.00375389
0.00378788
0.00397409
0.00438677
0.00513416
0.00623459
0.00755198
0.00883814
0.00982923
0.0103352
0.0102877
0.00974357
0.00886079
0.00787458
0.00704827
0.00658011
0.00648799
0.006573
0.00670258
0.00678581
0.0067614
0.0066458
0.00644605
0.00615476
0.00575256
0.00522197
0.0045296
0.00358732
0.00218081
0.00151034
0.00332192
0.00465285
0.00202386
0.00258615
0.00583446
0.00629976
0.00591905
0.00536285
0.00489596
0.00458563
0.00443374
0.00438786
0.0045463
0.0050704
0.0060472
0.00737784
0.00880105
0.00999878
0.01071
0.0108027
0.0102899
0.00931609
0.00812151
0.00703556
0.00634058
0.00604181
0.00601534
0.0061081
0.00621944
0.00628445
0.00626087
0.00614323
0.00594218
0.0056436
0.00521371
0.00460554
0.00378831
0.00281788
0.00191006
0.00171906
0.00342931
0.00474315
0.00215207
0.00259521
0.00579128
0.00643817
0.00599201
0.00554138
0.00517257
0.00490656
0.0047329
0.0047236
0.00510945
0.0060349
0.00741843
0.0089759
0.0103439
0.0112064
0.0113831
0.0108618
0.00976664
0.00836952
0.00701324
0.00603226
0.00546889
0.00522008
0.00517124
0.00522233
0.00529482
0.00533724
0.00531756
0.00519162
0.00497165
0.00462525
0.00408806
0.0033222
0.00246524
0.00185688
0.00171069
0.0021265
0.00384878
0.00478074
0.00219655
0.00234231
0.00243579
0.00359222
0.00421905
0.00441187
0.0044134
0.0043688
0.00444728
0.00498435
0.0061347
0.00775565
0.00950302
0.0109897
0.011896
0.0120418
0.0114027
0.0101377
0.00848457
0.00690686
0.00568043
0.00487504
0.00442906
0.00423339
0.00416922
0.0041512
0.00413049
0.00408499
0.00400478
0.0038549
0.00361106
0.00324973
0.00272974
0.00213287
0.00172659
0.00169779
0.00202486
0.00273475
0.00423897
0.00514403
0.00217886
0.000807119
0.00146385
0.00225765
0.00289537
0.00363359
0.00488996
0.00674075
0.00879918
0.0106732
0.0120666
0.0127775
0.0126811
0.0117948
0.0102242
0.00836818
0.00662191
0.00525404
0.00435711
0.00387956
0.0036553
0.00353919
0.00345044
0.00335293
0.00323565
0.00310204
0.00296113
0.00281709
0.00264066
0.00242459
0.00215862
0.00190494
0.00182515
0.00203816
0.00252814
0.00322718
0.00401428
0.00442197
0.0020728
0.00149735
0.00207237
0.00302176
0.00472218
0.00703969
0.00936951
0.0111863
0.0125024
0.013295
0.0135012
0.0130191
0.0117574
0.00992363
0.0078826
0.00604399
0.00470324
0.00394609
0.00360525
0.00346088
0.00338185
0.00331221
0.00323267
0.00314116
0.00304366
0.00294804
0.00285919
0.00277547
0.00268597
0.00258528
0.00247798
0.00238967
0.00239857
0.00261013
0.00306401
0.00368422
0.00424361
0.00439406
0.00202491
0.00275786
0.00667526
0.00612764
0.0054645
0.00694709
0.00928323
0.0112661
0.0126151
0.0133357
0.01352
0.0132366
0.0124454
0.0111111
0.00929695
0.00728893
0.00554103
0.00441913
0.00389527
0.0037006
0.00362678
0.00357801
0.00351963
0.00344378
0.0033544
0.00326083
0.00317464
0.0031074
0.00306849
0.00306207
0.00308252
0.00311131
0.00314199
0.00319708
0.00331654
0.00355859
0.00398523
0.00463208
0.00546488
0.00569658
0.00223231
0.00263898
0.00509437
0.00656086
0.00838198
0.0093086
0.0102766
0.0108489
0.0109984
0.0107998
0.0103009
0.00951041
0.00841832
0.00707715
0.00568776
0.00455351
0.00386759
0.00356
0.00345595
0.00343074
0.00342136
0.00340027
0.00335845
0.00329687
0.00322216
0.00314492
0.00307978
0.00304509
0.00306047
0.00314178
0.00329396
0.00349947
0.00370501
0.00388627
0.00410068
0.00441174
0.00487529
0.00553463
0.00652884
0.00623881
0.00238899
0.00247343
0.00212008
0.00210973
0.00217162
0.00222312
0.00215827
0.00203018
0.00187882
0.00172433
0.00157404
0.00143059
0.00129888
0.00118902
0.00111219
0.00107169
0.00105817
0.00105931
0.00106684
0.00107662
0.001087
0.00109782
0.00110989
0.00112479
0.00114464
0.00117177
0.00120812
0.00125446
0.00130982
0.00137165
0.00143691
0.00150345
0.00157124
0.0016407
0.00171268
0.00179111
0.00187895
0.00197574
0.00208337
0.00220697
0.00217372
)
;

boundaryField
{
    floor
    {
        type            nutkWallFunction;
        Cmu             0.09;
        kappa           0.41;
        E               9.8;
        value           nonuniform List<scalar> 
36
(
0.000160541
7.63569e-05
0.000109547
0.000110413
0.000107779
0.000103358
9.7415e-05
9.14535e-05
8.59258e-05
8.09085e-05
7.63786e-05
7.23137e-05
6.86387e-05
6.52701e-05
6.21072e-05
5.90109e-05
5.57532e-05
5.30307e-05
4.74932e-05
4.74932e-05
6.15324e-05
7.04843e-05
7.78739e-05
9.30635e-05
0.00012212
0.000117609
0.000160541
0.000174989
0.000167244
0.000160433
7.63569e-05
0.000160433
0.000136057
0.000194681
0.000169863
0.000193897
)
;
    }
    ceiling
    {
        type            nutkWallFunction;
        Cmu             0.09;
        kappa           0.41;
        E               9.8;
        value           nonuniform List<scalar> 
43
(
0.000284291
0.000246369
0.000245252
0.000251949
0.000257511
0.000250537
0.000236674
0.000220161
0.000203154
0.000186444
0.000170325
0.000155359
0.000142738
0.000133831
0.000129111
0.000127529
0.000127663
0.000128548
0.000129695
0.000130911
0.000132173
0.000133574
0.000135295
0.000137579
0.000140691
0.000144854
0.000150155
0.000156477
0.000163524
0.000170941
0.000178475
0.000186114
0.000193909
0.000201939
0.000210631
0.000220306
0.000230907
0.000242634
0.000256004
0.000252308
0.000270491
0.000280481
0.000177609
)
;
    }
    sWall
    {
        type            nutkWallFunction;
        Cmu             0.09;
        kappa           0.41;
        E               9.8;
        value           nonuniform List<scalar> 9(0.000373887 0.000352052 0.000322925 0.000296583 0.000297541 0.00027058 0.000314431 0.000301914 0.000284392);
    }
    nWall
    {
        type            nutkWallFunction;
        Cmu             0.09;
        kappa           0.41;
        E               9.8;
        value           nonuniform List<scalar> 
14
(
0.000117616
0.000140028
0.000163655
0.000241446
0.000238174
0.000236192
0.000250165
0.00025493
0.000252768
0.000241278
0.000236209
0.00025896
0.000275487
0.000252346
)
;
    }
    sideWalls
    {
        type            empty;
    }
    glass1
    {
        type            nutkWallFunction;
        Cmu             0.09;
        kappa           0.41;
        E               9.8;
        value           nonuniform List<scalar> 9(0.000108251 0.000156887 0.000196744 0.000234361 0.000270807 0.000306161 0.000341781 0.000372102 0.000381388);
    }
    glass2
    {
        type            nutkWallFunction;
        Cmu             0.09;
        kappa           0.41;
        E               9.8;
        value           nonuniform List<scalar> 2(0.000210149 0.000239436);
    }
    sun
    {
        type            nutkWallFunction;
        Cmu             0.09;
        kappa           0.41;
        E               9.8;
        value           nonuniform List<scalar> 
14
(
0.00010821
0.000115185
0.000114772
0.000119635
0.00012407
0.000128082
0.000131802
0.000135377
0.000138965
0.000142767
0.000146382
0.000149806
0.000153172
0.000156783
)
;
    }
    Table_master
    {
        type            nutkWallFunction;
        Cmu             0.09;
        kappa           0.41;
        E               9.8;
        value           nonuniform List<scalar> 9(0.000139344 0.000121712 0.000107894 9.69334e-05 8.81066e-05 8.09078e-05 7.49826e-05 7.01243e-05 6.63096e-05);
    }
    Table_slave
    {
        type            nutkWallFunction;
        Cmu             0.09;
        kappa           0.41;
        E               9.8;
        value           nonuniform List<scalar> 9(0.000157765 0.000144096 0.00013341 0.000124438 0.000116729 0.000109756 0.000103135 9.65107e-05 8.92981e-05);
    }
    inlet
    {
        type            calculated;
        value           uniform 0.000167705;
    }
    outlet
    {
        type            calculated;
        value           nonuniform List<scalar> 2(0.00275786 0.00667526);
    }
}


// ************************************************************************* //
