/*--------------------------------*- C++ -*----------------------------------*\
  =========                 |
  \\      /  F ield         | OpenFOAM: The Open Source CFD Toolbox
   \\    /   O peration     | Website:  https://openfoam.org
    \\  /    A nd           | Version:  6
     \\/     M anipulation  |
\*---------------------------------------------------------------------------*/
FoamFile
{
    version     2.0;
    format      ascii;
    class       volScalarField;
    location    "13500";
    object      k;
}
// * * * * * * * * * * * * * * * * * * * * * * * * * * * * * * * * * * * * * //

dimensions      [0 2 -2 0 0 0 0];

internalField   nonuniform List<scalar> 
778
(
0.00158591
0.00180118
0.00178814
0.00194678
0.0020981
0.00224043
0.00237712
0.00251271
0.002653
0.00280623
0.00295628
0.00310236
0.00324965
0.00341185
0.00358532
0.000792816
0.00162459
0.00165077
0.00157166
0.00144388
0.00128181
0.00112997
0.000998511
0.000886907
0.000792426
0.000712711
0.000644714
0.000585744
0.000533262
0.000484555
0.000436122
0.00039787
0.000326039
0.00340691
0.0064335
0.00268771
0.00274638
0.00288813
0.00305477
0.00323516
0.00343092
0.00364407
0.00387424
0.00412604
0.00437941
0.00459472
0.00469954
0.00459362
0.00429716
0.00390612
0.00357903
0.00253695
0.00281215
0.0029536
0.00289528
0.00266211
0.00226328
0.00190437
0.00160847
0.00136903
0.00117543
0.00101675
0.000885031
0.000773814
0.000681025
0.000615026
0.000574488
0.000864447
0.000523979
0.00549062
0.0127813
0.00347818
0.00321242
0.0032978
0.00345568
0.00363708
0.00384123
0.00407145
0.00432785
0.00463563
0.00501053
0.0054501
0.00595899
0.00652955
0.00685803
0.006276
0.00538475
0.00403795
0.00416952
0.0041722
0.003974
0.00357566
0.00266344
0.0020135
0.0015743
0.0012684
0.00104863
0.000886492
0.000764318
0.000671603
0.000603462
0.000551317
0.000548553
0.00116643
0.000678093
0.00797324
0.0217588
0.00449141
0.00339103
0.00334184
0.00343841
0.00354977
0.0036692
0.00380933
0.00399148
0.00425909
0.00464809
0.00517034
0.00582383
0.00655308
0.00713307
0.0072272
0.00724413
0.00534229
0.00554891
0.00537585
0.00512542
0.0047866
0.00434752
0.00345511
0.00285796
0.00243462
0.0021085
0.00184916
0.00163081
0.00143754
0.00125763
0.00107678
0.000799896
0.000659214
0.00142401
0.000821741
0.0108759
0.0336355
0.00621304
0.00342524
0.00315855
0.00316722
0.0031898
0.00321003
0.00325224
0.00336113
0.00359462
0.00398878
0.00455252
0.00527524
0.00608509
0.00681568
0.00728147
0.00764231
0.00751507
0.00665269
0.00607256
0.00557875
0.00509889
0.00462905
0.00412254
0.00366476
0.00327394
0.00293617
0.00262992
0.0023465
0.00207802
0.00181737
0.00155396
0.00122083
0.000928917
0.00119073
0.00121606
0.00116966
0.00207608
0.00188445
0.0141741
0.0476002
0.00928414
0.00349019
0.00290875
0.00282291
0.00276451
0.00269959
0.00266422
0.00273455
0.00298075
0.00341395
0.00402263
0.00479607
0.00565125
0.00645843
0.00706575
0.00740433
0.00732097
0.00678799
0.006214
0.00563669
0.00507406
0.00455574
0.00409095
0.00369521
0.00336256
0.00307306
0.00280603
0.00255064
0.00229799
0.00204122
0.001773
0.00147053
0.00117664
0.00111138
0.00111036
0.00173395
0.00518408
0.00268369
0.0179911
0.0606082
0.0143603
0.00381954
0.00271531
0.00252947
0.00241181
0.00229397
0.00222094
0.00231157
0.00263043
0.00313931
0.0038014
0.00462976
0.00552596
0.00636351
0.00699742
0.00732478
0.00725164
0.00681611
0.00621427
0.00555428
0.00491163
0.00434258
0.00387232
0.00350033
0.00320668
0.00296174
0.00274119
0.0025287
0.00231279
0.00208631
0.00184446
0.0015823
0.00132567
0.00115702
0.00109062
0.00158225
0.00643366
0.00375522
0.02164
0.0704842
0.0214371
0.0051016
0.0027426
0.0023717
0.00220997
0.00208168
0.00202603
0.0022194
0.00265002
0.00323124
0.00393707
0.0047736
0.00569724
0.00657101
0.00722067
0.00751091
0.00738169
0.00689442
0.00619725
0.00542659
0.00469146
0.00406451
0.00357456
0.00321274
0.00294807
0.0027415
0.00256466
0.00239599
0.00222177
0.00203462
0.00183124
0.00161224
0.0013952
0.00122353
0.00115166
0.00219624
0.0147463
0.00659734
0.0228321
0.0694933
0.0325356
0.0110545
0.00406531
0.0025866
0.00223499
0.0021025
0.00218939
0.0025121
0.00300056
0.0036024
0.00433282
0.00521268
0.00618467
0.00708639
0.00771513
0.00792042
0.00766203
0.00702371
0.00616449
0.00524859
0.00440805
0.00372307
0.00321733
0.00286969
0.00263655
0.0024702
0.00233738
0.00221215
0.00207962
0.00193273
0.00176932
0.00159163
0.00141231
0.00127107
0.00132663
0.0043827
0.0305741
0.00838704
0.021917
0.0516349
0.0336434
0.0174302
0.00858252
0.00475507
0.00325856
0.00272842
0.00285164
0.00320984
0.0036719
0.00424641
0.00499594
0.00593958
0.00697566
0.00788838
0.008441
0.00848157
0.00800068
0.0071216
0.00604066
0.00495483
0.00401311
0.00329249
0.00279951
0.00249023
0.00230392
0.00218615
0.00209823
0.00201328
0.0019178
0.00180623
0.00167758
0.00153475
0.00138834
0.00128402
0.00163238
0.0100113
0.0260852
0.00873106
0.0192324
0.0394384
0.030238
0.0195633
0.0121777
0.00793389
0.00571279
0.00466542
0.00435878
0.00439693
0.00465044
0.00514423
0.00593556
0.00698345
0.00809238
0.00896759
0.00934412
0.00909441
0.0082695
0.00705753
0.00571102
0.00446176
0.00346491
0.00277169
0.00235078
0.00211722
0.00199297
0.00192588
0.00187638
0.0018228
0.00175529
0.00167029
0.00156817
0.00145369
0.00133997
0.001294
0.00189225
0.00898125
0.0262851
0.00897896
0.0159491
0.0315894
0.0266523
0.0195379
0.0139734
0.0102806
0.0080233
0.00674658
0.00604448
0.00572694
0.00577954
0.00627259
0.00721059
0.00842247
0.00957387
0.0102895
0.0103133
0.0095911
0.00828067
0.00666067
0.00505547
0.00372355
0.00279634
0.00223675
0.00195679
0.0018172
0.00174876
0.00171551
0.00168835
0.00165303
0.00160269
0.00153495
0.00145133
0.00136241
0.00129154
0.0013803
0.00246745
0.00904658
0.0234259
0.00993273
0.0132668
0.025679
0.0233563
0.0186917
0.0145835
0.0115868
0.00954119
0.00820674
0.00729686
0.00683685
0.00695527
0.00771883
0.00898205
0.0103735
0.0114174
0.0117149
0.0111087
0.00968872
0.00777873
0.00575573
0.0040309
0.00283684
0.00219481
0.00186206
0.0016988
0.00161891
0.00157964
0.00155889
0.00153787
0.00150737
0.00146277
0.00140349
0.00133549
0.00128008
0.00132742
0.00188952
0.00386858
0.00982369
0.0222966
0.00932028
0.0133511
0.0224294
0.0220667
0.0177649
0.0143951
0.0118951
0.0100838
0.00876835
0.00791681
0.00777195
0.00847105
0.00987007
0.0115342
0.0128872
0.01342
0.0128535
0.0112745
0.00897024
0.00651113
0.00430278
0.00295825
0.00221856
0.00184798
0.00166191
0.00156553
0.00151247
0.00148031
0.00145672
0.00143012
0.00139461
0.00134788
0.00129231
0.00124292
0.00125933
0.00157045
0.00276596
0.00559156
0.0108717
0.0180035
0.0082488
0.0108762
0.0117674
0.0129253
0.0125538
0.011376
0.0100767
0.00894917
0.00820489
0.00830154
0.00941243
0.0112904
0.013367
0.0149695
0.0155552
0.0148596
0.0128839
0.0101369
0.00700459
0.00462403
0.00312271
0.00233319
0.00194303
0.00174408
0.00163009
0.00155629
0.00150342
0.0014617
0.00142486
0.00138707
0.00134506
0.00130013
0.0012598
0.00124951
0.00135223
0.00181338
0.00317198
0.00608359
0.010916
0.016559
0.00764334
0.00353953
0.00481885
0.00599345
0.0066039
0.00728618
0.00879568
0.0113061
0.0141342
0.0165575
0.0180069
0.0181126
0.0167893
0.0142466
0.0106074
0.00729758
0.00480468
0.00330309
0.0025345
0.00217139
0.00198513
0.00186895
0.00178136
0.00170816
0.00164496
0.00159091
0.00154669
0.00151566
0.00149888
0.00149905
0.00152154
0.00158457
0.00175108
0.00219594
0.00331645
0.00577186
0.0102258
0.0170737
0.0085491
0.00444555
0.00629159
0.00811339
0.011028
0.0146984
0.0181544
0.0203881
0.0214548
0.0213931
0.0201874
0.017652
0.0141685
0.0104862
0.00717139
0.00483286
0.00348759
0.00284154
0.00255083
0.00240651
0.00231719
0.00224937
0.00219167
0.00214202
0.00210345
0.00208234
0.00208632
0.00212009
0.00218907
0.00228949
0.00241713
0.00257973
0.00281977
0.00325369
0.00414087
0.006085
0.0113347
0.0161134
0.00941584
0.0150687
0.0244878
0.0181222
0.0144038
0.017016
0.0207036
0.0228229
0.0235166
0.0230607
0.021709
0.0197042
0.017069
0.0138869
0.0105289
0.00752357
0.00534212
0.0041148
0.00354972
0.00331436
0.00321725
0.00317629
0.00315483
0.00313416
0.0031068
0.00307615
0.00305465
0.0030586
0.00310172
0.00319184
0.00333158
0.00352485
0.00377868
0.00411187
0.00457633
0.00529188
0.00646276
0.00864774
0.0150883
0.0177226
0.0100502
0.0138049
0.0170542
0.0178491
0.0207625
0.0217046
0.0221258
0.0211308
0.0193196
0.017203
0.0150319
0.0129052
0.0108647
0.00895181
0.00725865
0.00589177
0.00493235
0.00436693
0.00407741
0.00396202
0.00395826
0.00402399
0.00412514
0.00423366
0.00433074
0.00441045
0.0044804
0.00455813
0.00466513
0.0048224
0.00504987
0.00537044
0.00581569
0.00643232
0.0072843
0.00845345
0.0100739
0.0123665
0.0168477
0.0210688
0.0105544
0.0121387
0.00891504
0.00883027
0.00935833
0.00981084
0.0092548
0.00820712
0.0070639
0.00600432
0.00507201
0.00425867
0.00355718
0.00298378
0.00257018
0.00233527
0.00223655
0.00221858
0.00224931
0.00230819
0.00238198
0.00246171
0.0025416
0.00261877
0.00269312
0.00276723
0.00284581
0.00293497
0.00304188
0.00317559
0.00334939
0.00358382
0.00390804
0.00435629
0.00495783
0.0057268
0.00666348
0.00776655
0.0090361
0.0103982
0.00910599
)
;

boundaryField
{
    floor
    {
        type            kqRWallFunction;
        value           nonuniform List<scalar> 
36
(
0.00358532
0.000792816
0.00162459
0.00165077
0.00157166
0.00144388
0.00128181
0.00112997
0.000998511
0.000886907
0.000792426
0.000712711
0.000644714
0.000585744
0.000533262
0.000484555
0.000436122
0.00039787
0.000326039
0.000326039
0.000523979
0.000678093
0.000821741
0.00116966
0.00207608
0.00188445
0.00358532
0.00429716
0.00390612
0.00357903
0.000792816
0.00357903
0.00253695
0.00538475
0.00403795
0.00534229
)
;
    }
    ceiling
    {
        type            kqRWallFunction;
        value           nonuniform List<scalar> 
43
(
0.0121387
0.00891504
0.00883027
0.00935833
0.00981084
0.0092548
0.00820712
0.0070639
0.00600432
0.00507201
0.00425867
0.00355718
0.00298378
0.00257018
0.00233527
0.00223655
0.00221858
0.00224931
0.00230819
0.00238198
0.00246171
0.0025416
0.00261877
0.00269312
0.00276723
0.00284581
0.00293497
0.00304188
0.00317559
0.00334939
0.00358382
0.00390804
0.00435629
0.00495783
0.0057268
0.00666348
0.00776655
0.0090361
0.0103982
0.00910599
0.0108762
0.0117674
0.00444555
)
;
    }
    sWall
    {
        type            kqRWallFunction;
        value           nonuniform List<scalar> 9(0.021917 0.0192324 0.0159491 0.0132668 0.0133511 0.0108762 0.0150687 0.0138049 0.0121387);
    }
    nWall
    {
        type            kqRWallFunction;
        value           nonuniform List<scalar> 
14
(
0.00188445
0.00268369
0.00375522
0.00873106
0.00897896
0.00993273
0.00932028
0.0082488
0.00764334
0.0085491
0.00941584
0.0100502
0.0105544
0.00910599
)
;
    }
    sideWalls
    {
        type            empty;
    }
    glass1
    {
        type            kqRWallFunction;
        value           nonuniform List<scalar> 9(0.00158591 0.00340691 0.00549062 0.00797324 0.0108759 0.0141741 0.0179911 0.02164 0.0228321);
    }
    glass2
    {
        type            kqRWallFunction;
        value           nonuniform List<scalar> 2(0.00659734 0.00838704);
    }
    sun
    {
        type            kqRWallFunction;
        value           nonuniform List<scalar> 
14
(
0.00158591
0.00180118
0.00178814
0.00194678
0.0020981
0.00224043
0.00237712
0.00251271
0.002653
0.00280623
0.00295628
0.00310236
0.00324965
0.00341185
)
;
    }
    Table_master
    {
        type            kqRWallFunction;
        value           nonuniform List<scalar> 9(0.00266344 0.0020135 0.0015743 0.0012684 0.00104863 0.000886492 0.000764318 0.000671603 0.000603462);
    }
    Table_slave
    {
        type            kqRWallFunction;
        value           nonuniform List<scalar> 9(0.00345511 0.00285796 0.00243462 0.0021085 0.00184916 0.00163081 0.00143754 0.00125763 0.00107678);
    }
    inlet
    {
        type            turbulentIntensityKineticEnergyInlet;
        intensity       0.05;
        value           uniform 0.0009375;
    }
    outlet
    {
        type            zeroGradient;
    }
}


// ************************************************************************* //
