/*--------------------------------*- C++ -*----------------------------------*\
  =========                 |
  \\      /  F ield         | OpenFOAM: The Open Source CFD Toolbox
   \\    /   O peration     | Website:  https://openfoam.org
    \\  /    A nd           | Version:  6
     \\/     M anipulation  |
\*---------------------------------------------------------------------------*/
FoamFile
{
    version     2.0;
    format      ascii;
    class       volScalarField;
    location    "12200";
    object      k;
}
// * * * * * * * * * * * * * * * * * * * * * * * * * * * * * * * * * * * * * //

dimensions      [0 2 -2 0 0 0 0];

internalField   nonuniform List<scalar> 
778
(
0.00158604
0.00180131
0.00178818
0.00194671
0.00209789
0.00224005
0.00237656
0.00251197
0.00265207
0.00280514
0.00295511
0.00310119
0.00324858
0.00341095
0.00358465
0.000792432
0.00162597
0.00165213
0.00157296
0.00144499
0.00128253
0.00113039
0.000998841
0.000887247
0.000792792
0.00071307
0.000645047
0.000586039
0.000533514
0.000484766
0.000436294
0.000397985
0.00032611
0.0034072
0.00643404
0.00268772
0.00274621
0.00288786
0.00305435
0.00323455
0.00343008
0.00364298
0.00387293
0.00412464
0.00437814
0.00459384
0.00469926
0.00459389
0.00429749
0.00390637
0.00357954
0.00253836
0.00281408
0.00295627
0.0028982
0.00266479
0.00226511
0.00190547
0.00160911
0.00136941
0.00117567
0.00101697
0.000885255
0.000774035
0.000681241
0.000615259
0.000574799
0.000864669
0.00052431
0.00549121
0.0127828
0.00347829
0.00321216
0.00329743
0.00345519
0.00363643
0.00384036
0.00407034
0.00432658
0.00463431
0.00500946
0.00544971
0.00595973
0.00653174
0.00686141
0.00627892
0.00538649
0.00403705
0.00416943
0.00417345
0.00397626
0.00357869
0.00266689
0.00201638
0.00157638
0.00126978
0.00104951
0.000887064
0.000764724
0.000671933
0.000603755
0.000551542
0.000548802
0.00116587
0.000678803
0.0079743
0.021762
0.00449187
0.00339074
0.00334141
0.00343789
0.00354914
0.00366842
0.00380837
0.00399035
0.00425787
0.00464706
0.00516995
0.00582455
0.00655506
0.00713598
0.00722963
0.00724659
0.0053408
0.00554577
0.00537346
0.00512422
0.00478642
0.00434827
0.00345644
0.00285987
0.00243678
0.00211046
0.00185084
0.00163224
0.00143878
0.00125877
0.00107789
0.000800978
0.000660016
0.00142225
0.000823346
0.0108775
0.0336404
0.00621433
0.00342502
0.00315815
0.00316674
0.00318926
0.00320943
0.00325151
0.00336024
0.00359362
0.00398794
0.00455237
0.00527631
0.00608725
0.00681842
0.00728302
0.00764185
0.00751226
0.00665
0.00607002
0.00557693
0.00509808
0.0046293
0.00412361
0.00366621
0.00327543
0.00293762
0.00263118
0.00234757
0.00207897
0.00181829
0.00155492
0.00122222
0.000930808
0.00119131
0.00121728
0.00117096
0.00204275
0.0018852
0.0141764
0.0476062
0.00928701
0.00349021
0.00290843
0.00282252
0.0027641
0.00269917
0.00266376
0.00273398
0.00298011
0.00341358
0.00402327
0.00479853
0.00565499
0.00646272
0.00706852
0.00740489
0.00731958
0.00678595
0.00621191
0.00563512
0.00507332
0.00455582
0.00409161
0.00369606
0.00336334
0.00307381
0.00280669
0.00255124
0.00229866
0.00204203
0.00177391
0.00147163
0.00117876
0.00111336
0.00111296
0.00170954
0.00508392
0.00269849
0.0179942
0.0606127
0.0143654
0.00382019
0.00271521
0.00252924
0.00241156
0.00229371
0.00222068
0.00231118
0.00262999
0.00313936
0.00380301
0.00463422
0.00553225
0.00637028
0.00700283
0.00732775
0.0072524
0.00681567
0.0062135
0.00555372
0.00491147
0.00434277
0.00387269
0.00350063
0.0032068
0.00296181
0.0027412
0.00252875
0.00231308
0.00208699
0.00184537
0.00158309
0.00132708
0.00116082
0.00109436
0.0015598
0.00629881
0.0037448
0.0216435
0.0704854
0.0214433
0.00510423
0.00274309
0.00237179
0.00220998
0.00208166
0.00202596
0.0022191
0.00264959
0.00323161
0.00393978
0.00477974
0.0057063
0.00658086
0.00722898
0.00751649
0.00738484
0.00689618
0.00619849
0.00542768
0.00469237
0.00406516
0.0035749
0.00321275
0.00294775
0.00274108
0.0025641
0.00239542
0.00222149
0.0020349
0.00183192
0.00161268
0.00139568
0.00123075
0.001162
0.0021322
0.013684
0.00638459
0.0228344
0.0694871
0.0325416
0.0110641
0.00406975
0.00258783
0.00223544
0.00210276
0.00218969
0.00251188
0.00300011
0.00360315
0.00433677
0.00522101
0.00619644
0.00709886
0.00772567
0.00792806
0.00766744
0.00702808
0.00616845
0.00525203
0.00441057
0.00372455
0.00321796
0.00286971
0.00263611
0.00246957
0.00233642
0.00221093
0.00207844
0.00193191
0.00176879
0.00159086
0.00141236
0.00128923
0.00138435
0.00420125
0.0267018
0.00842891
0.0219177
0.051623
0.0336447
0.0174404
0.00859251
0.00476142
0.00326181
0.00272992
0.00285289
0.00321023
0.00367205
0.00424824
0.00500178
0.00595034
0.00698959
0.00790214
0.00845212
0.00849001
0.00800801
0.00712912
0.00604828
0.00496145
0.00401768
0.00329503
0.0028007
0.00249069
0.00230392
0.00218585
0.00209732
0.00201175
0.00191577
0.00180374
0.00167428
0.00153004
0.00138481
0.00131019
0.00191928
0.0110437
0.0223628
0.00859682
0.0192303
0.0394245
0.0302352
0.0195694
0.0121862
0.00794155
0.00571873
0.00466983
0.00436197
0.0043988
0.00465211
0.00514814
0.00594405
0.00699644
0.00810679
0.00897974
0.00935276
0.00910172
0.00827852
0.00706923
0.00572344
0.00447206
0.00347119
0.00277522
0.00235299
0.00211896
0.0019946
0.00192673
0.0018764
0.00182209
0.00175386
0.00166764
0.00156326
0.00144485
0.00133052
0.00133318
0.0028068
0.0112729
0.0195589
0.00840574
0.0159447
0.0315781
0.0266474
0.0195398
0.013978
0.0102859
0.00802853
0.00675259
0.0060489
0.00573011
0.00578317
0.00627936
0.00722182
0.00843583
0.00958446
0.0102944
0.0103145
0.00959499
0.00829176
0.00667786
0.00507246
0.003736
0.00280198
0.00224188
0.00196142
0.00182132
0.00175214
0.00171787
0.00168998
0.00165444
0.00160433
0.0015361
0.00145152
0.001357
0.00127559
0.00132828
0.00261376
0.00988435
0.0197888
0.00841369
0.0132629
0.0256737
0.0233519
0.0186916
0.0145854
0.0115897
0.00954486
0.0082102
0.00729984
0.00684012
0.0069609
0.00772861
0.00899415
0.0103815
0.0114149
0.0117029
0.0110961
0.00968778
0.00779278
0.00577716
0.00404469
0.00284682
0.00220126
0.00186881
0.00170642
0.00162628
0.00158538
0.00156264
0.00154035
0.00151006
0.00146768
0.00141237
0.00134683
0.00127969
0.00124405
0.00140309
0.00271839
0.00912076
0.0171939
0.00956969
0.0133562
0.02242
0.0220625
0.0177631
0.0143947
0.0118959
0.0100855
0.00876918
0.0079181
0.00777591
0.00847967
0.0098816
0.0115403
0.0128764
0.0133881
0.0128123
0.0112432
0.00896574
0.0065236
0.00431484
0.0029626
0.00222017
0.00185224
0.00167117
0.00157844
0.00152568
0.00149039
0.00146195
0.00143151
0.00139477
0.00135012
0.00130062
0.00125773
0.0012575
0.00140892
0.00194496
0.00351299
0.00960209
0.0156992
0.00989556
0.0108798
0.0117667
0.0129253
0.0125536
0.0113748
0.0100743
0.00894551
0.00820162
0.00830211
0.00941955
0.0113022
0.0133728
0.0149517
0.0155012
0.014777
0.0128066
0.0100889
0.00699327
0.0046152
0.00310909
0.00231948
0.00193628
0.0017488
0.00164666
0.00158109
0.00153014
0.00148346
0.00143644
0.001388
0.00133858
0.00129006
0.00125624
0.00128016
0.0014706
0.00202599
0.00319233
0.00542183
0.0101254
0.0167597
0.00914163
0.00354273
0.0048213
0.00599007
0.00659199
0.00726762
0.00878513
0.0113062
0.014143
0.0165614
0.0179824
0.018039
0.016665
0.0141029
0.0105086
0.00722292
0.00475292
0.00326037
0.00250125
0.00215267
0.00198493
0.00188898
0.00182077
0.00176331
0.00170926
0.00165485
0.00159804
0.00153898
0.00149114
0.00145989
0.00146781
0.00158032
0.00194153
0.00279135
0.00441851
0.00711565
0.0108678
0.0144879
0.00834899
0.0044464
0.00627718
0.00808555
0.0109903
0.0146648
0.0181256
0.0203737
0.0214427
0.0213589
0.0201046
0.0175177
0.0139804
0.0102845
0.00699769
0.00469886
0.00339931
0.00279633
0.0025439
0.00243199
0.00236986
0.00232627
0.00229241
0.00226717
0.00225093
0.00224217
0.00223557
0.0022218
0.00219077
0.0021757
0.00220615
0.00234125
0.00270874
0.00352656
0.0050986
0.00776334
0.011754
0.0169303
0.00826275
0.015082
0.0245562
0.0181195
0.0143644
0.0169554
0.0206447
0.0227718
0.0234781
0.0230341
0.0216851
0.0196438
0.0169412
0.0136945
0.0102941
0.00731895
0.00523354
0.00411371
0.00364059
0.00346874
0.00340078
0.00335707
0.0033125
0.0032649
0.00322143
0.00319211
0.00318621
0.00321009
0.00326543
0.00334703
0.00344075
0.00352603
0.00365283
0.00389278
0.00432126
0.00510752
0.00653835
0.00910805
0.0139006
0.0180581
0.0103112
0.0138093
0.0170646
0.0178221
0.020725
0.0216428
0.0220556
0.0210613
0.0192571
0.0171497
0.0149813
0.0128387
0.0107374
0.00871949
0.00694333
0.00560807
0.00482161
0.00446231
0.00434062
0.00432438
0.00434331
0.00436361
0.00437283
0.00437226
0.0043718
0.00438637
0.00443384
0.0045345
0.00471037
0.0049821
0.00536177
0.0058406
0.00636595
0.0069068
0.00755026
0.00849051
0.00999057
0.0124256
0.0171449
0.0191642
0.01136
0.0121317
0.00891386
0.00882812
0.00935558
0.0098071
0.00924844
0.00819081
0.00702484
0.00592825
0.00494983
0.00409418
0.00337287
0.00281763
0.00245509
0.00227464
0.00221353
0.00221853
0.00225365
0.00230021
0.00234977
0.0023998
0.00245192
0.00251118
0.00258576
0.00268666
0.00282709
0.00302049
0.00327686
0.00359838
0.00397788
0.00440281
0.00486405
0.00536701
0.00591266
0.00651147
0.00719099
0.00796603
0.00887393
0.00994506
0.00942669
)
;

boundaryField
{
    floor
    {
        type            kqRWallFunction;
        value           nonuniform List<scalar> 
36
(
0.00358465
0.000792432
0.00162597
0.00165213
0.00157296
0.00144499
0.00128253
0.00113039
0.000998841
0.000887247
0.000792792
0.00071307
0.000645047
0.000586039
0.000533514
0.000484766
0.000436294
0.000397985
0.00032611
0.00032611
0.00052431
0.000678803
0.000823346
0.00117096
0.00204275
0.0018852
0.00358465
0.00429749
0.00390637
0.00357954
0.000792432
0.00357954
0.00253836
0.00538649
0.00403705
0.0053408
)
;
    }
    ceiling
    {
        type            kqRWallFunction;
        value           nonuniform List<scalar> 
43
(
0.0121317
0.00891386
0.00882812
0.00935558
0.0098071
0.00924844
0.00819081
0.00702484
0.00592825
0.00494983
0.00409418
0.00337287
0.00281763
0.00245509
0.00227464
0.00221353
0.00221853
0.00225365
0.00230021
0.00234977
0.0023998
0.00245192
0.00251118
0.00258576
0.00268666
0.00282709
0.00302049
0.00327686
0.00359838
0.00397788
0.00440281
0.00486405
0.00536701
0.00591266
0.00651147
0.00719099
0.00796603
0.00887393
0.00994506
0.00942669
0.0108798
0.0117667
0.0044464
)
;
    }
    sWall
    {
        type            kqRWallFunction;
        value           nonuniform List<scalar> 9(0.0219177 0.0192303 0.0159447 0.0132629 0.0133562 0.0108798 0.015082 0.0138093 0.0121317);
    }
    nWall
    {
        type            kqRWallFunction;
        value           nonuniform List<scalar> 
14
(
0.0018852
0.00269849
0.0037448
0.00859682
0.00840574
0.00841369
0.00956969
0.00989556
0.00914163
0.00834899
0.00826275
0.0103112
0.01136
0.00942669
)
;
    }
    sideWalls
    {
        type            empty;
    }
    glass1
    {
        type            kqRWallFunction;
        value           nonuniform List<scalar> 9(0.00158604 0.0034072 0.00549121 0.0079743 0.0108775 0.0141764 0.0179942 0.0216435 0.0228344);
    }
    glass2
    {
        type            kqRWallFunction;
        value           nonuniform List<scalar> 2(0.00638459 0.00842891);
    }
    sun
    {
        type            kqRWallFunction;
        value           nonuniform List<scalar> 
14
(
0.00158604
0.00180131
0.00178818
0.00194671
0.00209789
0.00224005
0.00237656
0.00251197
0.00265207
0.00280514
0.00295511
0.00310119
0.00324858
0.00341095
)
;
    }
    Table_master
    {
        type            kqRWallFunction;
        value           nonuniform List<scalar> 9(0.00266689 0.00201638 0.00157638 0.00126978 0.00104951 0.000887064 0.000764724 0.000671933 0.000603755);
    }
    Table_slave
    {
        type            kqRWallFunction;
        value           nonuniform List<scalar> 9(0.00345644 0.00285987 0.00243678 0.00211046 0.00185084 0.00163224 0.00143878 0.00125877 0.00107789);
    }
    inlet
    {
        type            turbulentIntensityKineticEnergyInlet;
        intensity       0.05;
        value           uniform 0.0009375;
    }
    outlet
    {
        type            zeroGradient;
    }
}


// ************************************************************************* //
