/*--------------------------------*- C++ -*----------------------------------*\
  =========                 |
  \\      /  F ield         | OpenFOAM: The Open Source CFD Toolbox
   \\    /   O peration     | Website:  https://openfoam.org
    \\  /    A nd           | Version:  6
     \\/     M anipulation  |
\*---------------------------------------------------------------------------*/
FoamFile
{
    version     2.0;
    format      ascii;
    class       volVectorField;
    location    "12200";
    object      U;
}
// * * * * * * * * * * * * * * * * * * * * * * * * * * * * * * * * * * * * * //

dimensions      [0 1 -1 0 0 0 0];

internalField   nonuniform List<vector> 
778
(
(0.0656004 0.0794064 0)
(-0.155175 0.0157631 0)
(-0.164297 0.0146211 0)
(-0.192408 0.0122705 0)
(-0.216837 0.00872011 0)
(-0.236889 0.00473955 0)
(-0.252008 0.000413647 0)
(-0.261772 -0.00437016 0)
(-0.265668 -0.0098106 0)
(-0.262693 -0.0161884 0)
(-0.250893 -0.0242594 0)
(-0.226202 -0.0348759 0)
(-0.186089 -0.0503946 0)
(-0.14416 -0.0751605 0)
(-0.150037 -0.108546 0)
(0.0546828 0.0354967 0)
(0.0158139 -0.0268962 0)
(0.0450345 -0.023281 0)
(0.0694764 -0.0161762 0)
(0.0845708 -0.0103658 0)
(0.0917991 -0.00641806 0)
(0.0946371 -0.00433724 0)
(0.095669 -0.00331605 0)
(0.0961248 -0.00273019 0)
(0.0963006 -0.00231696 0)
(0.0961793 -0.00195178 0)
(0.0956531 -0.00151022 0)
(0.0943928 -0.000754921 0)
(0.0915394 0.000851514 0)
(0.0853219 0.00407941 0)
(0.0737557 0.00779544 0)
(0.0600489 0.0116502 0)
(-0.00785628 0.030029 0)
(0.258401 0.167392 0)
(-0.161234 0.0483888 0)
(-0.141598 0.0459733 0)
(-0.173996 0.0416047 0)
(-0.199351 0.0356555 0)
(-0.220062 0.029116 0)
(-0.236083 0.0220459 0)
(-0.247327 0.0142187 0)
(-0.253498 0.00529085 0)
(-0.253815 -0.00515383 0)
(-0.247664 -0.0170799 0)
(-0.233966 -0.0308456 0)
(-0.214066 -0.0480707 0)
(-0.197495 -0.0699525 0)
(-0.193986 -0.0826276 0)
(-0.16639 -0.0425294 0)
(-0.105356 -0.0363465 0)
(-0.0983203 -0.0444518 0)
(0.109355 -0.0421646 0)
(0.0644914 -0.0412406 0)
(0.0719785 -0.03234 0)
(0.0860087 -0.0207852 0)
(0.0939624 -0.0105256 0)
(0.0962283 -0.00365075 0)
(0.0959925 -0.000191507 0)
(0.0955969 0.00124814 0)
(0.0955554 0.00188967 0)
(0.0956346 0.0022624 0)
(0.0956424 0.00258718 0)
(0.0955433 0.00313315 0)
(0.0952529 0.0044185 0)
(0.0939944 0.00774059 0)
(0.0883905 0.0167893 0)
(0.0746107 0.0254001 0)
(0.0632217 0.0330546 0)
(-0.0518506 0.0636983 0)
(0.429982 0.253952 0)
(-0.194235 0.0847542 0)
(-0.112773 0.07842 0)
(-0.148233 0.0669375 0)
(-0.170657 0.0554778 0)
(-0.188742 0.0437039 0)
(-0.202569 0.0313233 0)
(-0.212253 0.0179929 0)
(-0.217599 0.00339314 0)
(-0.217954 -0.012629 0)
(-0.212699 -0.0303151 0)
(-0.201596 -0.0498982 0)
(-0.185955 -0.0715615 0)
(-0.169412 -0.0932083 0)
(-0.151033 -0.104557 0)
(-0.120193 -0.0931255 0)
(-0.0795011 -0.0949112 0)
(-0.071396 -0.10756 0)
(0.0921808 -0.0882304 0)
(0.0626153 -0.0658441 0)
(0.0744364 -0.0462329 0)
(0.0881069 -0.0293668 0)
(0.0950057 -0.0150389 0)
(0.0921524 -0.0120666 0)
(0.0879112 -0.00795514 0)
(0.0855363 -0.00577746 0)
(0.0848424 -0.00455811 0)
(0.084815 -0.00379951 0)
(0.085066 -0.00322854 0)
(0.0857172 -0.00260017 0)
(0.0874818 -0.00143786 0)
(0.0921758 0.00292727 0)
(0.090344 0.0251383 0)
(0.073533 0.0424425 0)
(0.0702297 0.0576284 0)
(-0.0898037 0.101152 0)
(0.578549 0.325837 0)
(-0.240106 0.121803 0)
(-0.0808282 0.109205 0)
(-0.121564 0.0898293 0)
(-0.138991 0.0740397 0)
(-0.153044 0.0586042 0)
(-0.163795 0.0427236 0)
(-0.171382 0.0257867 0)
(-0.175586 0.00718546 0)
(-0.175647 -0.0135325 0)
(-0.170957 -0.0364625 0)
(-0.161388 -0.0614453 0)
(-0.147514 -0.087366 0)
(-0.130522 -0.1103 0)
(-0.109547 -0.123197 0)
(-0.0820545 -0.124525 0)
(-0.0524307 -0.126339 0)
(-0.0332916 -0.123163 0)
(0.0164915 -0.0568114 0)
(0.0609211 -0.0930634 0)
(0.0685563 -0.079264 0)
(0.0791624 -0.0589275 0)
(0.0916491 -0.0397083 0)
(0.102976 -0.0210601 0)
(0.115732 -0.0132856 0)
(0.126958 -0.00885945 0)
(0.132621 -0.00563086 0)
(0.133652 -0.00311724 0)
(0.131165 -0.0008908 0)
(0.125733 0.00128032 0)
(0.117227 0.00366397 0)
(0.104878 0.00672353 0)
(0.0856278 0.011161 0)
(0.0717364 0.0368607 0)
(0.0604463 0.0606506 0)
(0.0765015 0.0835672 0)
(-0.117344 0.137609 0)
(0.705728 0.383675 0)
(-0.287684 0.156997 0)
(-0.0476909 0.13376 0)
(-0.0962822 0.106891 0)
(-0.107728 0.0875623 0)
(-0.116755 0.0691385 0)
(-0.123538 0.0504147 0)
(-0.128191 0.0305615 0)
(-0.130543 0.00870774 0)
(-0.129731 -0.0158244 0)
(-0.125227 -0.0430725 0)
(-0.116596 -0.0726772 0)
(-0.10386 -0.102825 0)
(-0.0873622 -0.129097 0)
(-0.0673877 -0.145789 0)
(-0.0440218 -0.152253 0)
(-0.0201483 -0.152338 0)
(0.000404767 -0.143681 0)
(0.0309218 -0.114997 0)
(0.0570788 -0.109381 0)
(0.0706432 -0.0924948 0)
(0.0807616 -0.0713499 0)
(0.0908112 -0.0509173 0)
(0.100366 -0.0328848 0)
(0.1095 -0.0194822 0)
(0.116574 -0.0100892 0)
(0.120055 -0.00338634 0)
(0.120307 0.00187512 0)
(0.117938 0.00643025 0)
(0.113319 0.0107939 0)
(0.106476 0.0154768 0)
(0.0973415 0.0211804 0)
(0.0854216 0.0292048 0)
(0.0738746 0.0472382 0)
(0.0634098 0.0713367 0)
(0.0950983 0.0995578 0)
(0.017371 0.138785 0)
(0.0969803 0.182766 0)
(0.140363 0.145713 0)
(-0.22028 0.201551 0)
(0.810432 0.431968 0)
(-0.331322 0.190665 0)
(-0.017312 0.150223 0)
(-0.0733581 0.117491 0)
(-0.078579 0.0954767 0)
(-0.0821952 0.0749078 0)
(-0.0844444 0.0543066 0)
(-0.0854768 0.0326894 0)
(-0.0852159 0.0088399 0)
(-0.0825347 -0.0184171 0)
(-0.0773616 -0.0490202 0)
(-0.0687213 -0.0824961 0)
(-0.0567013 -0.116512 0)
(-0.0416055 -0.146336 0)
(-0.0245846 -0.166021 0)
(-0.00616234 -0.174501 0)
(0.0122347 -0.172722 0)
(0.0281571 -0.160968 0)
(0.0463101 -0.139298 0)
(0.0627387 -0.122344 0)
(0.0733835 -0.102532 0)
(0.0810363 -0.0805178 0)
(0.0877793 -0.059207 0)
(0.0939613 -0.0403527 0)
(0.0993172 -0.0251817 0)
(0.103053 -0.0138246 0)
(0.104714 -0.00512885 0)
(0.104344 0.0020699 0)
(0.10224 0.0085493 0)
(0.0986468 0.0148281 0)
(0.0937186 0.0214323 0)
(0.0876854 0.0289926 0)
(0.0808143 0.0384193 0)
(0.0750626 0.0528551 0)
(0.0698523 0.0728641 0)
(0.0920667 0.0986136 0)
(0.0742215 0.10748 0)
(0.091261 0.0479569 0)
(0.14654 -0.0354745 0)
(-0.322977 0.107117 0)
(0.879893 0.47468 0)
(-0.368641 0.220946 0)
(0.00371732 0.155528 0)
(-0.0526526 0.121537 0)
(-0.0521941 0.0978136 0)
(-0.0510076 0.0757809 0)
(-0.0489976 0.0540052 0)
(-0.0464767 0.0315038 0)
(-0.0432839 0.00675196 0)
(-0.0373185 -0.0223056 0)
(-0.0302362 -0.0553639 0)
(-0.0204347 -0.0919425 0)
(-0.00859815 -0.128919 0)
(0.00465351 -0.161297 0)
(0.0177427 -0.181923 0)
(0.0305596 -0.190229 0)
(0.0423846 -0.187205 0)
(0.0526932 -0.174369 0)
(0.062647 -0.154009 0)
(0.0711937 -0.132369 0)
(0.0766841 -0.109386 0)
(0.0801126 -0.0859279 0)
(0.0826908 -0.0637949 0)
(0.0849262 -0.0443324 0)
(0.0867804 -0.028258 0)
(0.0879177 -0.0154785 0)
(0.0881064 -0.00521671 0)
(0.0871932 0.00344473 0)
(0.08535 0.0111893 0)
(0.082719 0.0185397 0)
(0.0794689 0.0259937 0)
(0.0758744 0.0340477 0)
(0.0723404 0.0432477 0)
(0.0702572 0.0548701 0)
(0.0690471 0.0692927 0)
(0.0821933 0.0882483 0)
(0.0856455 0.0914755 0)
(0.0915867 0.0541932 0)
(0.181713 0.0272955 0)
(-0.278125 0.156825 0)
(0.927928 0.51714 0)
(-0.383154 0.234139 0)
(0.0168891 0.132924 0)
(-0.0273134 0.116608 0)
(-0.0265341 0.0948746 0)
(-0.0227181 0.0723796 0)
(-0.0175969 0.0500569 0)
(-0.0123148 0.0272108 0)
(-0.00533507 0.00182246 0)
(0.00463996 -0.0307533 0)
(0.014375 -0.0653362 0)
(0.0256941 -0.103353 0)
(0.0373613 -0.140899 0)
(0.0480606 -0.172194 0)
(0.0571715 -0.192378 0)
(0.0646785 -0.199833 0)
(0.0704056 -0.195367 0)
(0.074353 -0.181133 0)
(0.0770303 -0.160026 0)
(0.0783563 -0.136034 0)
(0.0779561 -0.111051 0)
(0.076414 -0.0865754 0)
(0.0745697 -0.0640697 0)
(0.0729555 -0.0445249 0)
(0.0717135 -0.0283108 0)
(0.0707077 -0.0151419 0)
(0.0697341 -0.00431915 0)
(0.0684992 0.00493295 0)
(0.0670918 0.0131971 0)
(0.0654771 0.0209591 0)
(0.0637231 0.028642 0)
(0.0620036 0.0365904 0)
(0.0606131 0.045074 0)
(0.0604295 0.0545221 0)
(0.0613647 0.0648339 0)
(0.0702655 0.0775239 0)
(0.0807756 0.0802208 0)
(0.0825736 0.0604437 0)
(0.239127 0.056948 0)
(-0.543089 0.23534 0)
(1.01129 0.50679 0)
(-0.137114 0.296322 0)
(0.0410971 0.161475 0)
(0.0406475 0.122017 0)
(0.0131285 0.0918994 0)
(0.00870774 0.065287 0)
(0.0141441 0.041314 0)
(0.020784 0.0169098 0)
(0.0326076 -0.0110776 0)
(0.0440881 -0.0421867 0)
(0.0559817 -0.0769396 0)
(0.0682806 -0.114677 0)
(0.0794369 -0.151159 0)
(0.0879484 -0.180631 0)
(0.0931706 -0.198641 0)
(0.0952171 -0.203771 0)
(0.0944955 -0.197076 0)
(0.0915522 -0.18099 0)
(0.0870631 -0.158569 0)
(0.08148 -0.133139 0)
(0.0751006 -0.107137 0)
(0.0685327 -0.0823853 0)
(0.0625082 -0.0602287 0)
(0.0575572 -0.0413835 0)
(0.0538787 -0.0259238 0)
(0.0513694 -0.0133454 0)
(0.0497504 -0.00286873 0)
(0.0486178 0.00620206 0)
(0.0479108 0.0143722 0)
(0.0473906 0.0220837 0)
(0.0469842 0.0296731 0)
(0.0467106 0.0373572 0)
(0.0466641 0.0452219 0)
(0.0472469 0.0532773 0)
(0.0484467 0.0610145 0)
(0.0540523 0.068335 0)
(0.0650508 0.0647461 0)
(0.0631205 0.0347033 0)
(0.287347 0.0704006 0)
(-0.746771 0.308946 0)
(0.779312 0.395623 0)
(0.000982939 0.319443 0)
(0.0934476 0.218869 0)
(0.110684 0.155098 0)
(0.0772564 0.106728 0)
(0.0598729 0.0674339 0)
(0.0582975 0.0356425 0)
(0.0624813 0.00629803 0)
(0.0739347 -0.0235343 0)
(0.0855314 -0.055122 0)
(0.0977533 -0.0898194 0)
(0.109641 -0.12633 0)
(0.119027 -0.160122 0)
(0.124131 -0.185834 0)
(0.124353 -0.199883 0)
(0.120122 -0.201434 0)
(0.11239 -0.19186 0)
(0.102227 -0.173721 0)
(0.090675 -0.150059 0)
(0.0785727 -0.123917 0)
(0.0666141 -0.0978444 0)
(0.0555416 -0.0737586 0)
(0.0460958 -0.0529027 0)
(0.0387678 -0.0357127 0)
(0.0336775 -0.0219582 0)
(0.0305851 -0.0108435 0)
(0.0290159 -0.00144705 0)
(0.0284878 0.00686799 0)
(0.0286863 0.0145534 0)
(0.0292607 0.0219817 0)
(0.0300405 0.0293958 0)
(0.0308985 0.0369393 0)
(0.0316754 0.0446533 0)
(0.0321626 0.0524896 0)
(0.0313695 0.0600336 0)
(0.029479 0.0668443 0)
(0.013647 0.0674449 0)
(0.00342902 0.100748 0)
(0.0206553 0.178463 0)
(-0.634483 0.303037 0)
(0.617233 0.22062 0)
(0.00478829 0.298019 0)
(0.113081 0.241488 0)
(0.148365 0.177472 0)
(0.130943 0.123392 0)
(0.117926 0.0776935 0)
(0.115075 0.0387377 0)
(0.117264 0.00323978 0)
(0.123658 -0.0308639 0)
(0.131915 -0.065125 0)
(0.141629 -0.100593 0)
(0.150531 -0.135458 0)
(0.155672 -0.165332 0)
(0.15512 -0.185858 0)
(0.148562 -0.194719 0)
(0.1369 -0.19194 0)
(0.121602 -0.179269 0)
(0.104168 -0.159288 0)
(0.0859673 -0.134918 0)
(0.0681022 -0.108959 0)
(0.0515224 -0.0839084 0)
(0.0371184 -0.0616428 0)
(0.0256654 -0.0432528 0)
(0.0174906 -0.0287928 0)
(0.0124145 -0.0176344 0)
(0.00978836 -0.00859285 0)
(0.00887828 -0.000671982 0)
(0.009215 0.00664954 0)
(0.0102832 0.0137182 0)
(0.0118043 0.0207937 0)
(0.0135983 0.0280371 0)
(0.0154777 0.0355966 0)
(0.017146 0.0436393 0)
(0.0180906 0.0524458 0)
(0.0169933 0.0624238 0)
(0.0129928 0.0750621 0)
(-0.0149704 0.0998898 0)
(-0.014827 0.153827 0)
(0.00290379 0.185301 0)
(-0.541988 0.171531 0)
(0.570785 0.118207 0)
(-0.0202596 0.258515 0)
(0.113713 0.22983 0)
(0.165066 0.175972 0)
(0.166745 0.126054 0)
(0.164426 0.0809371 0)
(0.165439 0.0397896 0)
(0.168414 0.00143651 0)
(0.172398 -0.0355691 0)
(0.178002 -0.072055 0)
(0.1842 -0.107689 0)
(0.187914 -0.13972 0)
(0.18612 -0.164266 0)
(0.17744 -0.178495 0)
(0.162322 -0.181604 0)
(0.142307 -0.174484 0)
(0.119325 -0.159167 0)
(0.0951223 -0.138099 0)
(0.0712874 -0.114013 0)
(0.049036 -0.0894145 0)
(0.0295446 -0.0667272 0)
(0.0138481 -0.0477117 0)
(0.00262391 -0.0331377 0)
(-0.00441552 -0.0222885 0)
(-0.00801781 -0.0142309 0)
(-0.00953018 -0.00731736 0)
(-0.00963351 -0.000822508 0)
(-0.00861908 0.00555166 0)
(-0.00696337 0.0119915 0)
(-0.00477769 0.0186419 0)
(-0.00219737 0.0256201 0)
(0.000680401 0.0331924 0)
(0.00361016 0.0416161 0)
(0.00621838 0.0515742 0)
(0.0076324 0.0644362 0)
(0.00847725 0.0834078 0)
(-0.00814021 0.119399 0)
(-0.0122156 0.188379 0)
(0.108488 0.200706 0)
(-0.492256 0.0662577 0)
(0.6285 0.0534337 0)
(0.00912055 0.197231 0)
(0.113714 0.196907 0)
(0.175037 0.15784 0)
(0.191311 0.117542 0)
(0.198 0.0770797 0)
(0.203373 0.0370448 0)
(0.208624 -0.00175548 0)
(0.213173 -0.0398863 0)
(0.217522 -0.0767104 0)
(0.219373 -0.110088 0)
(0.215565 -0.136868 0)
(0.204214 -0.154443 0)
(0.185411 -0.161806 0)
(0.160771 -0.159508 0)
(0.132452 -0.148948 0)
(0.102676 -0.132189 0)
(0.0731407 -0.111335 0)
(0.0456016 -0.0889318 0)
(0.0212141 -0.0671654 0)
(0.00158707 -0.0484546 0)
(-0.012256 -0.0344646 0)
(-0.0203455 -0.0251668 0)
(-0.0248088 -0.0182692 0)
(-0.0268828 -0.0125032 0)
(-0.027455 -0.00706884 0)
(-0.0269514 -0.00162242 0)
(-0.0255023 0.00398198 0)
(-0.0234878 0.00982141 0)
(-0.0208922 0.0159738 0)
(-0.0178014 0.0225284 0)
(-0.0142336 0.0296997 0)
(-0.0101879 0.0378874 0)
(-0.00571915 0.0479396 0)
(-0.00127851 0.0619643 0)
(0.00439284 0.0848429 0)
(0.00356245 0.121983 0)
(-0.0039342 0.186123 0)
(0.167524 0.203201 0)
(-0.365063 0.109004 0)
(0.472189 0.0747868 0)
(-0.132242 0.137525 0)
(0.0941136 0.133215 0)
(0.172575 0.11667 0)
(0.203698 0.0951567 0)
(0.218011 0.0641473 0)
(0.228039 0.0280958 0)
(0.23716 -0.00926737 0)
(0.24358 -0.0455823 0)
(0.245113 -0.0784762 0)
(0.239158 -0.105305 0)
(0.224369 -0.12401 0)
(0.201278 -0.133732 0)
(0.171802 -0.134904 0)
(0.13851 -0.128761 0)
(0.103677 -0.116567 0)
(0.0695622 -0.100164 0)
(0.0373419 -0.0811813 0)
(0.00934563 -0.0621514 0)
(-0.0137986 -0.0449861 0)
(-0.0283913 -0.033586 0)
(-0.0373542 -0.025951 0)
(-0.0423689 -0.0205114 0)
(-0.0449917 -0.0159861 0)
(-0.0460101 -0.0117586 0)
(-0.045877 -0.0074484 0)
(-0.0448408 -0.00287057 0)
(-0.0429605 0.00207146 0)
(-0.0406641 0.00735222 0)
(-0.037851 0.0129913 0)
(-0.0345959 0.0190611 0)
(-0.0309274 0.0257001 0)
(-0.0267912 0.0332377 0)
(-0.022194 0.0426729 0)
(-0.0178039 0.0570407 0)
(-0.0130399 0.0803482 0)
(-0.00634485 0.109535 0)
(-0.00387917 0.151838 0)
(0.186247 0.180669 0)
(-0.328435 0.173458 0)
(0.723914 0.134491 0)
(0.0819331 0.115245 0)
(0.149701 0.0991511 0)
(0.222293 0.0803572 0)
(0.243942 0.0697166 0)
(0.248751 0.0473769 0)
(0.255085 0.0172148 0)
(0.2612 -0.0150298 0)
(0.260221 -0.0449961 0)
(0.249721 -0.0697856 0)
(0.229487 -0.0877078 0)
(0.201121 -0.0982881 0)
(0.167015 -0.101823 0)
(0.129714 -0.0992857 0)
(0.091685 -0.0919038 0)
(0.0543504 -0.0803404 0)
(0.0202931 -0.066205 0)
(-0.0109104 -0.0506323 0)
(-0.0333938 -0.038362 0)
(-0.0485144 -0.0298644 0)
(-0.0577052 -0.0245387 0)
(-0.0632215 -0.0207842 0)
(-0.06639 -0.0177272 0)
(-0.0679845 -0.0148109 0)
(-0.0683508 -0.0117752 0)
(-0.0676791 -0.00843235 0)
(-0.0661137 -0.00462861 0)
(-0.0637635 -0.000245349 0)
(-0.0609572 0.00466043 0)
(-0.058025 0.00999549 0)
(-0.0549598 0.0158281 0)
(-0.0520342 0.0223006 0)
(-0.0495205 0.0298345 0)
(-0.0476024 0.0397742 0)
(-0.046833 0.0548879 0)
(-0.0474945 0.0757275 0)
(-0.0436214 0.0942802 0)
(-0.0259189 0.108079 0)
(0.150369 0.156158 0)
(-0.434159 0.234089 0)
(0.192074 0.0879581 0)
(0.225868 0.0996925 0)
(0.246595 0.0699453 0)
(0.242642 0.0395156 0)
(0.239784 0.0118311 0)
(0.234699 -0.0131017 0)
(0.219911 -0.0335138 0)
(0.196158 -0.0486455 0)
(0.165824 -0.0584836 0)
(0.131382 -0.0634705 0)
(0.0946428 -0.0639042 0)
(0.0575405 -0.0604805 0)
(0.0219777 -0.0540137 0)
(-0.0126922 -0.0445956 0)
(-0.0398913 -0.0354519 0)
(-0.0604375 -0.0280107 0)
(-0.0743665 -0.0232643 0)
(-0.0834331 -0.0203655 0)
(-0.0893049 -0.0185302 0)
(-0.0932174 -0.0169812 0)
(-0.0957371 -0.0154355 0)
(-0.0971012 -0.0137484 0)
(-0.0973878 -0.0118056 0)
(-0.0966239 -0.00946482 0)
(-0.0948423 -0.00654393 0)
(-0.0921106 -0.00283674 0)
(-0.0884741 0.00177831 0)
(-0.0849178 0.0071401 0)
(-0.081583 0.0132592 0)
(-0.0788803 0.0204399 0)
(-0.0773091 0.0292887 0)
(-0.0768965 0.0411251 0)
(-0.0782904 0.0578588 0)
(-0.0850064 0.0794893 0)
(-0.0944218 0.099552 0)
(-0.0848316 0.114092 0)
(-0.0700195 0.153929 0)
(-0.532519 0.21375 0)
(0.45152 0.209287 0)
(0.207192 0.178598 0)
(0.153396 0.118723 0)
(0.14002 0.0639431 0)
(0.128409 0.0258032 0)
(0.114143 0.00175504 0)
(0.0986636 -0.012973 0)
(0.0775735 -0.0221805 0)
(0.0529236 -0.027952 0)
(0.0258813 -0.0306391 0)
(-0.00372949 -0.0301324 0)
(-0.0325418 -0.0273137 0)
(-0.0581101 -0.0234122 0)
(-0.0795155 -0.0195041 0)
(-0.0954771 -0.0168244 0)
(-0.106776 -0.0151561 0)
(-0.114645 -0.0143041 0)
(-0.120481 -0.0136668 0)
(-0.125069 -0.0130476 0)
(-0.128717 -0.0124015 0)
(-0.131483 -0.0117519 0)
(-0.133334 -0.0110925 0)
(-0.134189 -0.0103686 0)
(-0.133933 -0.0094485 0)
(-0.132437 -0.00808657 0)
(-0.129614 -0.00590075 0)
(-0.125459 -0.00243354 0)
(-0.119976 0.00261767 0)
(-0.114659 0.00906376 0)
(-0.110022 0.0170157 0)
(-0.106096 0.0271033 0)
(-0.102223 0.0404722 0)
(-0.0974457 0.0586019 0)
(-0.0942693 0.0826549 0)
(-0.0936046 0.112001 0)
(-0.0643 0.139029 0)
(-0.0314896 0.133136 0)
(-0.585351 0.0438643 0)
(0.363521 -0.412977 0)
(-0.345585 -0.512715 0)
(-0.218691 -0.0286079 0)
(-0.0923502 0.110789 0)
(-0.0532709 0.0926807 0)
(-0.0311028 0.0547674 0)
(-0.0264323 0.0286732 0)
(-0.0315787 0.0119483 0)
(-0.0405177 0.00104122 0)
(-0.050991 -0.00623836 0)
(-0.0645377 -0.0107915 0)
(-0.079718 -0.0133817 0)
(-0.0953406 -0.015128 0)
(-0.110256 -0.0171091 0)
(-0.123344 -0.0195558 0)
(-0.133674 -0.0222359 0)
(-0.141245 -0.0247886 0)
(-0.147061 -0.0266835 0)
(-0.1521 -0.0279554 0)
(-0.156867 -0.0287253 0)
(-0.161413 -0.0290864 0)
(-0.165593 -0.0290684 0)
(-0.169222 -0.028673 0)
(-0.172103 -0.0278819 0)
(-0.174013 -0.0266589 0)
(-0.174691 -0.0249391 0)
(-0.173873 -0.0225983 0)
(-0.171375 -0.0194017 0)
(-0.167174 -0.0149578 0)
(-0.161396 -0.00876192 0)
(-0.154055 -0.000442659 0)
(-0.146388 0.0098432 0)
(-0.138739 0.0216316 0)
(-0.129458 0.0351629 0)
(-0.116152 0.0513238 0)
(-0.0969927 0.0707485 0)
(-0.0714502 0.0956275 0)
(-0.0277275 0.130475 0)
(0.133768 0.137561 0)
(-0.418944 0.0424536 0)
(0.125275 -0.184288 0)
(-0.387136 -0.297148 0)
(-0.342802 -0.0967744 0)
(-0.264485 0.0513737 0)
(-0.210832 0.0836252 0)
(-0.178734 0.0747589 0)
(-0.162483 0.0612815 0)
(-0.156507 0.0512663 0)
(-0.156582 0.0459906 0)
(-0.159831 0.0452231 0)
(-0.164239 0.0480767 0)
(-0.168392 0.0534251 0)
(-0.171684 0.060013 0)
(-0.173952 0.0659053 0)
(-0.175723 0.0692515 0)
(-0.177599 0.070488 0)
(-0.180043 0.070573 0)
(-0.183043 0.0704075 0)
(-0.186368 0.0701229 0)
(-0.189807 0.0694654 0)
(-0.193198 0.0681755 0)
(-0.196417 0.0661016 0)
(-0.199365 0.063145 0)
(-0.201948 0.0592059 0)
(-0.204072 0.0542005 0)
(-0.205641 0.04818 0)
(-0.206556 0.0414925 0)
(-0.206707 0.0348501 0)
(-0.205934 0.0291944 0)
(-0.203979 0.0254147 0)
(-0.200326 0.0240499 0)
(-0.193796 0.0248145 0)
(-0.184536 0.0264908 0)
(-0.1724 0.0288541 0)
(-0.154754 0.0322601 0)
(-0.128329 0.0350072 0)
(-0.0882364 0.0346961 0)
(-0.0268883 0.0377696 0)
(0.171278 0.0723162 0)
(-0.373736 0.106094 0)
(1.1463 -0.0111336 0)
(-0.29418 -0.322495 0)
(-0.352521 -0.233681 0)
(-0.351837 -0.14932 0)
(-0.328132 -0.107873 0)
(-0.29638 -0.0992022 0)
(-0.268903 -0.101333 0)
(-0.248835 -0.107033 0)
(-0.235303 -0.114812 0)
(-0.226408 -0.124755 0)
(-0.220494 -0.137211 0)
(-0.216428 -0.151985 0)
(-0.213532 -0.167522 0)
(-0.211587 -0.181075 0)
(-0.210756 -0.190011 0)
(-0.211279 -0.194602 0)
(-0.212951 -0.195996 0)
(-0.21537 -0.19566 0)
(-0.218176 -0.194496 0)
(-0.221232 -0.192827 0)
(-0.22461 -0.190643 0)
(-0.228485 -0.18777 0)
(-0.233067 -0.183971 0)
(-0.238574 -0.17899 0)
(-0.245241 -0.172592 0)
(-0.253292 -0.164584 0)
(-0.262825 -0.154838 0)
(-0.273607 -0.143324 0)
(-0.284883 -0.130159 0)
(-0.295306 -0.115605 0)
(-0.303101 -0.0999816 0)
(-0.306345 -0.0836163 0)
(-0.302986 -0.0669677 0)
(-0.293162 -0.0516947 0)
(-0.27865 -0.0386281 0)
(-0.259463 -0.0272646 0)
(-0.229535 -0.0155543 0)
(-0.179675 0.00688574 0)
(-0.161285 0.0546541 0)
(-0.567666 0.11144 0)
)
;

boundaryField
{
    floor
    {
        type            noSlip;
    }
    ceiling
    {
        type            noSlip;
    }
    sWall
    {
        type            noSlip;
    }
    nWall
    {
        type            noSlip;
    }
    sideWalls
    {
        type            empty;
    }
    glass1
    {
        type            noSlip;
    }
    glass2
    {
        type            noSlip;
    }
    sun
    {
        type            noSlip;
    }
    Table_master
    {
        type            noSlip;
    }
    Table_slave
    {
        type            noSlip;
    }
    inlet
    {
        type            fixedValue;
        value           uniform (0.5 0 0);
    }
    outlet
    {
        type            zeroGradient;
    }
}


// ************************************************************************* //
