/*--------------------------------*- C++ -*----------------------------------*\
  =========                 |
  \\      /  F ield         | OpenFOAM: The Open Source CFD Toolbox
   \\    /   O peration     | Website:  https://openfoam.org
    \\  /    A nd           | Version:  6
     \\/     M anipulation  |
\*---------------------------------------------------------------------------*/
FoamFile
{
    version     2.0;
    format      ascii;
    class       volScalarField;
    location    "31199.9999979395907";
    object      k;
}
// * * * * * * * * * * * * * * * * * * * * * * * * * * * * * * * * * * * * * //

dimensions      [0 2 -2 0 0 0 0];

internalField   nonuniform List<scalar> 
778
(
0.00158589
0.00180105
0.00178791
0.00194646
0.00209771
0.00224001
0.00237672
0.00251238
0.00265276
0.00280615
0.00295646
0.00310285
0.00325046
0.00341297
0.00358671
0.000793063
0.00162509
0.00165169
0.00157288
0.00144521
0.00128298
0.00113083
0.000999104
0.00088733
0.000792771
0.000713028
0.000645016
0.000586031
0.000533527
0.000484793
0.000436328
0.000398013
0.00032612
0.00340693
0.00643321
0.00268747
0.00274606
0.00288775
0.00305433
0.00323471
0.00343051
0.00364381
0.00387424
0.00412645
0.00438033
0.00459619
0.00470142
0.00459559
0.00429924
0.00390809
0.00358063
0.00253537
0.00281161
0.00295398
0.0028966
0.00266402
0.00226522
0.00190601
0.00160974
0.00136997
0.00117608
0.0010172
0.000885367
0.000774089
0.000681267
0.000615245
0.000574725
0.00086418
0.000524028
0.00549069
0.0127805
0.00347787
0.00321213
0.00329746
0.0034553
0.00363671
0.00384093
0.00407133
0.00432809
0.0046363
0.00501177
0.00545198
0.00596141
0.00653217
0.00686049
0.0062782
0.00538623
0.00403698
0.00416831
0.00417142
0.00397407
0.00357651
0.00266457
0.00201492
0.00157573
0.00126967
0.00104964
0.000887265
0.000764886
0.000672028
0.000603796
0.000551575
0.000548752
0.00116498
0.000677982
0.00797337
0.0217571
0.00449092
0.00339075
0.00334153
0.00343812
0.00354953
0.00366906
0.00380937
0.00399181
0.00425978
0.00464931
0.0051722
0.00582622
0.00655552
0.00713493
0.00722832
0.0072424
0.00534348
0.00555063
0.00537577
0.00512481
0.00478623
0.00434755
0.00345526
0.00285849
0.00243554
0.00210971
0.00185046
0.00163208
0.0014387
0.00125869
0.00107777
0.000800669
0.000659777
0.00142038
0.000821606
0.0108761
0.033632
0.00621212
0.00342496
0.00315828
0.003167
0.00318967
0.00321003
0.00325237
0.00336145
0.00359523
0.00398989
0.00455437
0.00527781
0.00608802
0.00681838
0.00728416
0.00764502
0.00751875
0.00665478
0.00607339
0.00557881
0.00509878
0.00462912
0.0041228
0.00366533
0.00327483
0.00293727
0.00263117
0.00234782
0.00207929
0.00181848
0.0015548
0.00122175
0.00093032
0.00118959
0.00121566
0.00116757
0.0020291
0.00185627
0.0141742
0.0475946
0.00928227
0.00348986
0.00290848
0.00282273
0.00276446
0.00269969
0.00266442
0.00273477
0.00298108
0.00341467
0.00402412
0.0047984
0.00565439
0.00646151
0.00706941
0.00740806
0.00732463
0.00679049
0.00621529
0.00563716
0.00507424
0.00455594
0.00409126
0.00369562
0.00336308
0.00307369
0.00280686
0.00255168
0.00229913
0.00204221
0.00177362
0.00147119
0.00117861
0.00111251
0.00111076
0.00171336
0.00509989
0.00265585
0.0179909
0.0606014
0.0143565
0.00381908
0.00271507
0.00252933
0.00241183
0.00229418
0.00222126
0.00231169
0.00263039
0.00313936
0.00380204
0.00463091
0.00552826
0.00636644
0.00700079
0.00732838
0.00725503
0.0068186
0.00621565
0.00555486
0.00491188
0.00434278
0.00387251
0.00350044
0.00320675
0.00296186
0.00274158
0.00252946
0.00231382
0.00208731
0.00184506
0.00158284
0.00132807
0.00116055
0.00109191
0.00155825
0.00627062
0.00369018
0.0216396
0.0704777
0.0214309
0.00510078
0.00274244
0.00237167
0.00221014
0.00208209
0.00202658
0.00221976
0.00264997
0.00323086
0.00393668
0.00477343
0.00569744
0.00657188
0.0072225
0.00751358
0.00738453
0.0068966
0.00619834
0.00542681
0.00469128
0.00406426
0.00357427
0.00321232
0.00294753
0.00274095
0.00256445
0.00239632
0.00222263
0.00203572
0.00183216
0.00161326
0.00139879
0.0012315
0.00115362
0.00210335
0.0142391
0.00632488
0.0228324
0.069497
0.0325274
0.01105
0.00406457
0.00258674
0.00223542
0.00210322
0.00219046
0.0025132
0.00300115
0.00360212
0.00433142
0.00521008
0.0061814
0.00708374
0.00771431
0.00792161
0.0076642
0.00702545
0.0061649
0.00524777
0.00440666
0.00372167
0.00321603
0.00286835
0.00263512
0.00246872
0.00233624
0.00221162
0.00207981
0.00193354
0.00177054
0.00159391
0.00141924
0.00128878
0.001326
0.00391095
0.0280799
0.00809757
0.0219182
0.0516418
0.033641
0.0174269
0.00858203
0.00475644
0.00326047
0.00273043
0.0028542
0.00321243
0.00367364
0.00424632
0.00499291
0.00593318
0.00696717
0.0078807
0.00843677
0.00848131
0.00800253
0.00712299
0.00603988
0.00495206
0.00400952
0.00328914
0.00279669
0.00248766
0.00230136
0.00218351
0.00209579
0.00201127
0.00191634
0.00180535
0.00167752
0.00153725
0.00139908
0.00131582
0.00165547
0.00767587
0.0262712
0.00850504
0.0192343
0.0394426
0.030238
0.0195626
0.0121784
0.0079361
0.00571607
0.00466954
0.00436338
0.00440119
0.0046532
0.00514356
0.00592917
0.00697069
0.00807618
0.00895351
0.00933665
0.00909392
0.00827225
0.00705895
0.00570831
0.00445594
0.00345845
0.0027664
0.00234675
0.00211367
0.00198915
0.00192214
0.00187261
0.00181907
0.00175139
0.00166585
0.0015634
0.00145139
0.00135129
0.00138085
0.00240497
0.00895777
0.0235035
0.00846043
0.0159506
0.0315893
0.0266512
0.0195375
0.0139742
0.0102825
0.00802619
0.0067506
0.00604927
0.00573146
0.00578188
0.00626896
0.00719708
0.0083991
0.00954691
0.0102687
0.0103049
0.00959372
0.00828652
0.00666245
0.00504957
0.00371467
0.00278934
0.00223212
0.00195304
0.00181313
0.00174423
0.00171072
0.00168367
0.0016484
0.0015974
0.00152765
0.00144131
0.0013516
0.00130818
0.00168727
0.00391815
0.0097808
0.0196826
0.00801185
0.0132662
0.0256687
0.0233485
0.0186882
0.0145823
0.0115869
0.00954242
0.00820907
0.00730001
0.00683998
0.00695467
0.00770756
0.00895495
0.0103337
0.0113774
0.0116901
0.0111058
0.00970046
0.00778945
0.00575761
0.00402217
0.00283188
0.00219321
0.00186194
0.00169756
0.00161535
0.00157435
0.00155307
0.00153286
0.00150379
0.00146015
0.00139977
0.00132708
0.00126635
0.00133272
0.00212651
0.00494534
0.0101227
0.0162253
0.00744306
0.0133454
0.0224123
0.0220527
0.0177572
0.0143904
0.0118925
0.0100828
0.00876856
0.00791862
0.00777334
0.00846376
0.00984319
0.0114844
0.0128258
0.0133697
0.0128352
0.0112898
0.00899721
0.00652293
0.00430995
0.002963
0.00222716
0.00185895
0.00167135
0.00156988
0.00151056
0.00147388
0.00144913
0.00142436
0.00139286
0.00135092
0.00129843
0.0012433
0.00121929
0.00136106
0.00219655
0.00482606
0.00961556
0.0167904
0.00737029
0.010873
0.0117616
0.0129227
0.0125528
0.0113754
0.0100762
0.00894878
0.00820611
0.00830564
0.00941154
0.0112685
0.0133126
0.0148889
0.015475
0.014814
0.0128924
0.010184
0.00704002
0.00465364
0.00314854
0.00236209
0.00197627
0.00177762
0.00165792
0.001573
0.00150682
0.00145437
0.00141367
0.00137682
0.00133987
0.00130354
0.00127438
0.00126733
0.0013172
0.00152699
0.00223242
0.00432259
0.00914814
0.0154007
0.00849882
0.00354658
0.00482923
0.00600468
0.0066121
0.00729168
0.00880693
0.0113161
0.0141229
0.0165065
0.0179158
0.0180068
0.0167106
0.0142307
0.0106475
0.00736461
0.00486704
0.00336302
0.0025979
0.00224004
0.00205597
0.00193628
0.00183817
0.0017472
0.00166119
0.00158475
0.0015264
0.00148698
0.00147
0.0014874
0.00155418
0.00168258
0.00188965
0.00223929
0.00294018
0.00460715
0.0100718
0.0141022
0.00878727
0.00444532
0.00629997
0.00812282
0.0110427
0.0147217
0.0181695
0.0203843
0.0214164
0.0213131
0.0200792
0.0175519
0.0141029
0.0104766
0.00721852
0.00492135
0.00359972
0.00296449
0.00267379
0.00252158
0.00242002
0.00233771
0.00226224
0.00218834
0.00211645
0.00205409
0.00201595
0.00201498
0.00206816
0.0021962
0.00241546
0.00273459
0.00316641
0.00376434
0.00469359
0.00642641
0.0114031
0.0149156
0.00908876
0.0150757
0.0244175
0.0180836
0.0144066
0.0170437
0.0207516
0.0228844
0.0235749
0.0230956
0.0217171
0.0196848
0.0170397
0.0138863
0.0106083
0.00771492
0.00559488
0.00436394
0.00376459
0.00347292
0.00330668
0.00319979
0.00313172
0.00309233
0.00307036
0.00305341
0.00303365
0.00301565
0.00301847
0.00306471
0.0031802
0.00338669
0.00370316
0.00414486
0.00473023
0.00550242
0.00657423
0.00822815
0.0111118
0.0146099
0.0082708
0.0138103
0.0170469
0.0178939
0.0207991
0.0217422
0.0221646
0.0211679
0.0193516
0.0172257
0.0150409
0.0129011
0.0108614
0.00898648
0.00739114
0.00618695
0.00536454
0.00480284
0.00442558
0.00416702
0.0040004
0.00391971
0.00392196
0.00399812
0.00413013
0.00429184
0.0044535
0.00458923
0.00469166
0.00480413
0.00496244
0.00519376
0.00552068
0.00596722
0.00657029
0.00740084
0.00857862
0.0102462
0.0130273
0.0168023
0.00788743
0.0121391
0.00890804
0.00882001
0.00933905
0.00977944
0.00920133
0.00812903
0.00696394
0.0058933
0.00496901
0.00418706
0.00353669
0.0030192
0.00264265
0.00240448
0.00228619
0.00225063
0.002257
0.00229673
0.00236652
0.00246215
0.00257683
0.00270239
0.00283133
0.00295862
0.00308281
0.00320666
0.00333519
0.00347302
0.00363026
0.00381513
0.00403315
0.00428759
0.00458054
0.00491559
0.00531095
0.00586002
0.0066842
0.00781175
0.00730729
)
;

boundaryField
{
    floor
    {
        type            kqRWallFunction;
        value           nonuniform List<scalar> 
36
(
0.00358671
0.000793063
0.00162509
0.00165169
0.00157288
0.00144521
0.00128298
0.00113083
0.000999104
0.00088733
0.000792771
0.000713028
0.000645016
0.000586031
0.000533527
0.000484793
0.000436328
0.000398013
0.00032612
0.00032612
0.000524028
0.000677982
0.000821606
0.00116757
0.0020291
0.00185627
0.00358671
0.00429924
0.00390809
0.00358063
0.000793063
0.00358063
0.00253537
0.00538623
0.00403698
0.00534348
)
;
    }
    ceiling
    {
        type            kqRWallFunction;
        value           nonuniform List<scalar> 
43
(
0.0121391
0.00890804
0.00882001
0.00933905
0.00977944
0.00920133
0.00812903
0.00696394
0.0058933
0.00496901
0.00418706
0.00353669
0.0030192
0.00264265
0.00240448
0.00228619
0.00225063
0.002257
0.00229673
0.00236652
0.00246215
0.00257683
0.00270239
0.00283133
0.00295862
0.00308281
0.00320666
0.00333519
0.00347302
0.00363026
0.00381513
0.00403315
0.00428759
0.00458054
0.00491559
0.00531095
0.00586002
0.0066842
0.00781175
0.00730729
0.010873
0.0117616
0.00444532
)
;
    }
    sWall
    {
        type            kqRWallFunction;
        value           nonuniform List<scalar> 9(0.0219182 0.0192343 0.0159506 0.0132662 0.0133454 0.010873 0.0150757 0.0138103 0.0121391);
    }
    nWall
    {
        type            kqRWallFunction;
        value           nonuniform List<scalar> 
14
(
0.00185627
0.00265585
0.00369018
0.00850504
0.00846043
0.00801185
0.00744306
0.00737029
0.00849882
0.00878727
0.00908876
0.0082708
0.00788743
0.00730729
)
;
    }
    sideWalls
    {
        type            empty;
    }
    glass1
    {
        type            kqRWallFunction;
        value           nonuniform List<scalar> 9(0.00158589 0.00340693 0.00549069 0.00797337 0.0108761 0.0141742 0.0179909 0.0216396 0.0228324);
    }
    glass2
    {
        type            kqRWallFunction;
        value           nonuniform List<scalar> 2(0.00632488 0.00809757);
    }
    sun
    {
        type            kqRWallFunction;
        value           nonuniform List<scalar> 
14
(
0.00158589
0.00180105
0.00178791
0.00194646
0.00209771
0.00224001
0.00237672
0.00251238
0.00265276
0.00280615
0.00295646
0.00310285
0.00325046
0.00341297
)
;
    }
    Table_master
    {
        type            kqRWallFunction;
        value           nonuniform List<scalar> 9(0.00266457 0.00201492 0.00157573 0.00126967 0.00104964 0.000887265 0.000764886 0.000672028 0.000603796);
    }
    Table_slave
    {
        type            kqRWallFunction;
        value           nonuniform List<scalar> 9(0.00345526 0.00285849 0.00243554 0.00210971 0.00185046 0.00163208 0.0014387 0.00125869 0.00107777);
    }
    inlet
    {
        type            turbulentIntensityKineticEnergyInlet;
        intensity       0.05;
        value           uniform 0.0009375;
    }
    outlet
    {
        type            zeroGradient;
    }
}


// ************************************************************************* //
