/*--------------------------------*- C++ -*----------------------------------*\
  =========                 |
  \\      /  F ield         | OpenFOAM: The Open Source CFD Toolbox
   \\    /   O peration     | Website:  https://openfoam.org
    \\  /    A nd           | Version:  6
     \\/     M anipulation  |
\*---------------------------------------------------------------------------*/
FoamFile
{
    version     2.0;
    format      ascii;
    class       surfaceScalarField;
    location    "33399.999997817351";
    object      phi;
}
// * * * * * * * * * * * * * * * * * * * * * * * * * * * * * * * * * * * * * //

dimensions      [1 0 -1 0 0 0 0];

internalField   nonuniform List<scalar> 
1482
(
-0.00279983
0.00286386
-0.00348413
0.000684306
-0.00414493
0.000660801
-0.00475917
0.000614233
-0.00528073
0.000521562
-0.00569286
0.000412133
-0.00598432
0.000291458
-0.00614201
0.000157697
-0.00614858
6.56863e-06
-0.00597802
-0.000170566
-0.00560032
-0.000377696
-0.00498441
-0.000615911
-0.00406005
-0.000924359
-0.00258088
-0.00147917
-0.00257796
-6.52261e-05
7.00797e-05
0.000778428
-0.000843654
0.00143113
-0.0006527
0.00183084
-0.000399713
0.00205279
-0.000221947
0.00215736
-0.00010457
0.00220464
-4.72845e-05
0.0022273
-2.26526e-05
0.0022369
-9.60137e-06
0.0022377
-8.01828e-07
0.0022306
7.09506e-06
0.0022116
1.9002e-05
0.00216736
4.42378e-05
0.00206469
0.000102673
0.00184822
0.000216469
0.00149106
0.000357163
0.00101998
0.000471079
0.00102642
-0.00204043
0.00507461
-0.00290862
0.0015525
-0.00369455
0.00144672
-0.00434571
0.00126539
-0.00488313
0.00105899
-0.00531211
0.000841115
-0.00563086
0.000610203
-0.00583255
0.000359382
-0.00590647
8.04877e-05
-0.00584474
-0.000232295
-0.00564152
-0.000580912
-0.00528548
-0.00097195
-0.00477543
-0.00143441
-0.00428946
-0.00196515
-0.00470559
-0.00216183
-0.00311866
-0.00158149
-0.00163465
-0.00147832
-0.00161981
0.00131728
-0.00123699
0.00166088
-0.00118725
0.00191215
-0.000903973
0.00210314
-0.000590701
0.00221039
-0.000329196
0.00221936
-0.000113547
0.00222146
-4.93788e-05
0.00222313
-2.43233e-05
0.00222407
-1.05471e-05
0.00222403
-7.52894e-07
0.00222261
8.51379e-06
0.00221837
2.32353e-05
0.00220573
5.68859e-05
0.0021438
0.000164599
0.00189428
0.000465992
0.00146512
0.000786324
0.000901979
0.00103422
0.00194528
-0.00148832
0.00682085
-0.0023593
0.00242349
-0.00312937
0.00221679
-0.00371369
0.00184972
-0.00418449
0.00152978
-0.0045561
0.00121273
-0.00483033
0.000884431
-0.00500393
0.00053298
-0.00507047
0.000147028
-0.00502085
-0.000281915
-0.0048443
-0.000757464
-0.00453337
-0.00128287
-0.00411891
-0.00184887
-0.00372164
-0.00236242
-0.00330143
-0.00258204
-0.00236999
-0.00251293
-0.00127566
-0.00257266
-0.00288264
0.0011496
-0.00237214
0.00165264
-0.00169029
0.00195061
-0.00120194
0.00214296
-0.00078305
0.0021723
-0.000358534
0.0020589
0.00200968
0.00198551
0.00197512
0.00197452
0.00198319
0.00200657
0.00206361
0.00222837
0.00187011
0.000824248
0.00142264
0.0012338
0.000803509
0.00165335
0.00277482
-0.00110614
0.0082582
-0.00192816
0.00324551
-0.0025703
0.00285892
-0.00303073
0.00231015
-0.00339836
0.00189741
-0.00368724
0.00150161
-0.0039004
0.00109758
-0.00403598
0.000668559
-0.00408646
0.000197511
-0.00403864
-0.000329735
-0.00388022
-0.000915886
-0.0036071
-0.00155599
-0.00324192
-0.00221406
-0.00282053
-0.00278381
-0.00228167
-0.0031209
-0.00156247
-0.00323212
-0.00087469
-0.00326044
-0.000696153
-0.00306117
0.00144058
-0.00212129
0.00137422
-0.00230578
0.00169039
-0.00200646
0.00200314
-0.0015147
0.00226947
-0.00104938
0.00254582
-0.000634882
0.00285981
-0.000314142
0.00302712
-0.000167466
0.00309204
-6.5072e-05
0.00307509
1.67952e-05
0.00298509
8.98452e-05
0.00282311
0.000161828
0.00258141
0.000241542
0.00223714
0.000344121
0.00173307
0.000503919
0.00159718
0.000960132
0.00127047
0.00156051
0.000744862
0.00217895
0.00355399
-0.000803854
0.00945524
-0.00158013
0.00402178
-0.00204891
0.00332771
-0.00236472
0.00262596
-0.00260916
0.00214185
-0.00279474
0.00168719
-0.00292648
0.00122933
-0.00300513
0.000747205
-0.00302413
0.000216517
-0.00296689
-0.000386976
-0.00282017
-0.00106261
-0.00257707
-0.00179909
-0.00224422
-0.00254691
-0.00182873
-0.0031993
-0.00132429
-0.00362533
-0.000748449
-0.00380797
-0.000217658
-0.00379123
0.00025963
-0.00353846
0.00112124
-0.0029829
0.0014879
-0.00267244
0.00174742
-0.00226598
0.00200023
-0.0017675
0.00223032
-0.00127947
0.00244477
-0.000849331
0.00264604
-0.000515415
0.00275634
-0.000277762
0.00279279
-0.00010153
0.00276714
4.24505e-05
0.00268582
0.000171159
0.00255142
0.000296232
0.00236284
0.000430121
0.00211784
0.000589125
0.00182457
0.00079719
0.00162008
0.00116462
0.00148027
0.00170032
0.00130338
0.00235584
0.00229098
0.0025664
0.00132508
0.00100083
0.00187539
-0.000521463
0.00199453
-0.000575928
0.0104776
-0.00132496
0.00477082
-0.00158475
0.0035875
-0.0017508
0.00279201
-0.00186487
0.00225592
-0.00193641
0.00175872
-0.00197188
0.00126479
-0.00197559
0.000750917
-0.00194435
0.000185282
-0.00185651
-0.000474816
-0.00170235
-0.00121677
-0.00147203
-0.00202941
-0.00116849
-0.00285045
-0.000797524
-0.00357026
-0.000378887
-0.00404397
6.0715e-05
-0.00424756
0.000465732
-0.00419624
0.000840295
-0.00391302
0.00129186
-0.00343446
0.00159139
-0.00297197
0.00179536
-0.00246995
0.00196735
-0.00193949
0.00211944
-0.00143156
0.00225429
-0.000984191
0.00235945
-0.000620574
0.00241791
-0.000336217
0.00242925
-0.000112876
0.00239868
7.30227e-05
0.00233102
0.000238817
0.00223018
0.000397081
0.00210033
0.000559972
0.00194871
0.000740738
0.00179002
0.000955885
0.00170054
0.0012541
0.00175929
0.00164157
0.00197196
0.00214317
0.00221439
0.00232396
0.00172344
0.00149178
0.000805159
0.000396818
0.00289737
-0.000543482
0.0115133
-0.00124381
0.00547115
-0.00119235
0.00353604
-0.00120089
0.00280055
-0.00119336
0.00224839
-0.00115996
0.00172532
-0.00110286
0.00120769
-0.00102779
0.000675848
-0.000929215
8.67027e-05
-0.000780231
-0.0006238
-0.000591234
-0.00140577
-0.000351885
-0.00226876
-6.93265e-05
-0.003133
0.000234116
-0.0038737
0.000542945
-0.00435279
0.000837371
-0.00454199
0.00110008
-0.00445895
0.00133367
-0.00414661
0.00156607
-0.00366686
0.00172653
-0.00313242
0.00182722
-0.00257065
0.00189798
-0.00201025
0.00195445
-0.00148803
0.00200177
-0.0010315
0.00203459
-0.000653393
0.00204711
-0.000348745
0.00203585
-0.000101615
0.0020015
0.000107372
0.00194716
0.000293157
0.00187669
0.000467557
0.00179543
0.000641231
0.00171218
0.000823992
0.00164235
0.00102571
0.00162957
0.00126687
0.00171873
0.00155241
0.00193087
0.00193103
0.00218291
0.00207193
0.00219165
0.00148304
0.00164552
0.000942948
0.0046461
-0.000483637
0.0125324
-0.00105173
0.00603924
-0.000697872
0.00318217
-0.000637264
0.00273994
-0.000569047
0.00218018
-0.000464437
0.00162071
-0.000335401
0.00107866
-0.000184098
0.000524545
5.35895e-06
-0.000102755
0.000223636
-0.000842077
0.000463145
-0.00164527
0.000720095
-0.00252571
0.000975811
-0.00338872
0.00120312
-0.004101
0.0014013
-0.00455097
0.00156178
-0.00470247
0.00167941
-0.00457657
0.00175894
-0.00422614
0.00181274
-0.00372065
0.00182379
-0.00314347
0.00180014
-0.002547
0.00176068
-0.00197078
0.0017202
-0.00144755
0.00168606
-0.000997369
0.00165812
-0.000625455
0.00163232
-0.000322936
0.00160371
-7.30108e-05
0.00157005
0.000141034
0.00153159
0.000331618
0.00148976
0.000509388
0.0014479
0.000683088
0.00141259
0.000859296
0.00139545
0.00104286
0.00142099
0.00124133
0.00151841
0.00145499
0.0017368
0.00171264
0.00202672
0.00178201
0.00213791
0.00137185
0.00166298
0.00141788
0.00667715
0.00297668
0.0101429
0.00202124
0.00699468
0.000868335
0.00433508
0.000369918
0.00323836
0.000212912
0.00233718
0.000269263
0.00156436
0.000423246
0.000924675
0.000637315
0.000310476
0.000896771
-0.00036221
0.00116171
-0.00110702
0.00143996
-0.00192353
0.00170624
-0.00279199
0.00193119
-0.00361367
0.0020908
-0.00426061
0.00217948
-0.00463965
0.00220017
-0.00472315
0.00216185
-0.00453824
0.00207824
-0.00414253
0.00196451
-0.00360692
0.00182617
-0.00300512
0.00167526
-0.00239609
0.00152857
-0.0018241
0.00140061
-0.00131959
0.0012994
-0.000896156
0.00122589
-0.000551951
0.00117504
-0.000272082
0.00113946
-3.7431e-05
0.00111385
0.000166638
0.00109477
0.000350701
0.00108007
0.000524088
0.00106989
0.000693272
0.00106722
0.00086196
0.00107882
0.00103126
0.0011191
0.00120105
0.00120913
0.00136496
0.00139577
0.001526
0.00166558
0.00151219
0.00178364
0.00125377
0.000449948
0.00275158
0.00751302
0.00403127
0.00625184
0.00366732
0.00735862
0.00254189
0.00546051
0.00188868
0.00389156
0.00153211
0.00269375
0.00138726
0.00170921
0.00142112
0.000890817
0.00159566
0.000135932
0.00184782
-0.000614371
0.00212493
-0.00138412
0.00240425
-0.00220285
0.00264834
-0.00303609
0.00281563
-0.00378096
0.00287937
-0.00432435
0.00283659
-0.00459688
0.00270137
-0.00458793
0.00249619
-0.00433306
0.00224543
-0.00389176
0.00197185
-0.00333333
0.00169259
-0.00272586
0.00142481
-0.00212832
0.00118643
-0.00158571
0.000992001
-0.00112516
0.00084747
-0.000751625
0.0007512
-0.000455682
0.000693911
-0.000214792
0.000664529
-8.04886e-06
0.000654272
0.000176895
0.000656271
0.000348702
0.000665692
0.000514667
0.00067987
0.000679093
0.000697636
0.000844194
0.000718924
0.00100997
0.000745848
0.00117413
0.000778717
0.00133209
0.000796015
0.00150871
0.0004668
0.00184138
-0.000764886
0.00248517
-0.00199071
0.00397728
0.00562707
0.00240973
0.00400663
0.00330485
0.0064635
0.00324885
0.00551651
0.00303804
0.00410236
0.00284701
0.00288478
0.0027238
0.00183242
0.00271002
0.000904593
0.00279915
4.68072e-05
0.00296124
-0.000776461
0.00317181
-0.00159469
0.00338878
-0.00241982
0.003552
-0.00319932
0.00360689
-0.00383585
0.00352705
-0.00424452
0.00331817
-0.004388
0.00300661
-0.00427637
0.00262694
-0.00395339
0.00221268
-0.0034775
0.00179354
-0.00291418
0.00139339
-0.00232571
0.00103394
-0.00176886
0.00073502
-0.00128679
0.000510214
-0.000900353
0.000357368
-0.000598779
0.00026684
-0.000365153
0.000221641
-0.000169593
0.000207638
5.95481e-06
0.000214523
0.000170009
0.000234791
0.000328435
0.000263415
0.000486043
0.000296237
0.000646271
0.000328276
0.000812155
0.000352149
0.000986096
0.000358099
0.00116818
0.00032804
0.00136215
0.000179127
0.00165763
-0.000352173
0.00237254
-0.00111698
0.00324969
-0.00133287
0.00419293
0.00441131
0.00145717
0.00274371
0.0027488
0.00517187
0.00343297
0.00483234
0.00371894
0.00381639
0.00381736
0.00278636
0.00384554
0.00180424
0.00388196
0.000868168
0.00395159
-2.28279e-05
0.00406203
-0.0008869
0.00420219
-0.00173485
0.00432037
-0.002538
0.00434588
-0.00322484
0.00422741
-0.00371739
0.00395301
-0.00397013
0.00354533
-0.00398033
0.00304433
-0.00377539
0.00249412
-0.00340318
0.00193363
-0.00291701
0.00139723
-0.00237779
0.000912623
-0.0018411
0.000507036
-0.00136327
0.000199555
-0.000979312
-5.44542e-06
-0.000695352
-0.000125858
-0.000478366
-0.000187677
-0.000303333
-0.000212575
-0.000144695
-0.000212544
5.92404e-06
-0.000194449
0.000151914
-0.000162611
0.000296597
-0.000120338
0.000443769
-7.18765e-05
0.000597809
-2.44752e-05
0.000764753
8.72465e-06
0.000952895
3.82665e-06
0.00117308
-8.57914e-05
0.00145178
-0.000352878
0.00192479
-0.00093989
0.00295966
-0.00177566
0.00408538
-0.00183528
0.0042524
0.00270728
0.00217413
0.000795556
0.00294498
0.00440102
0.00359466
0.00418266
0.00416447
0.00324658
0.00449202
0.00245881
0.00466637
0.00162989
0.00478356
0.000750983
0.00488911
-0.000128384
0.0049964
-0.000994181
0.0050748
-0.00181326
0.00505845
-0.00252165
0.00488737
-0.00305376
0.00453935
-0.00336939
0.00403343
-0.00346423
0.00341463
-0.00336154
0.00273387
-0.00309463
0.00204005
-0.00270936
0.00137163
-0.00224859
0.000768248
-0.0017744
0.000258535
-0.00133139
-0.000119431
-0.000985306
-0.000362163
-0.000736579
-0.000499681
-0.000557832
-0.000570558
-0.000407486
-0.000604487
-0.000269403
-0.000614656
-0.000134525
-0.000607052
-1.67926e-06
-0.000583899
0.000128761
-0.000545818
0.000258515
-0.000493743
0.000391694
-0.000430592
0.000534658
-0.000363086
0.000697246
-0.000304502
0.00089431
-0.000281243
0.00114982
-0.000340695
0.00151125
-0.000526066
0.00211034
-0.00081398
0.00324801
-0.00152133
0.00479309
-0.00188003
0.00461141
0.000972352
-0.00157885
0.00261957
0.00111866
0.00170351
0.00335077
0.00195055
0.00435313
0.00224422
0.00485695
0.00195499
0.00517182
0.00131502
0.00540075
0.000522048
0.00558003
-0.000307651
0.00568042
-0.00109456
0.00563934
-0.00177217
0.00540584
-0.00228816
0.00496837
-0.0026163
0.00435487
-0.00275591
0.00361815
-0.00272753
0.00281827
-0.00256167
0.00200531
-0.00228168
0.00122826
-0.00193231
0.000518894
-0.00153923
-7.09093e-05
-0.0011846
-0.00049682
-0.00090548
-0.000757059
-0.000725067
-0.000900921
-0.000592713
-0.000977333
-0.000481414
-0.00101374
-0.00037107
-0.00102753
-0.000255609
-0.00102674
-0.000135312
-0.00101408
-1.43432e-05
-0.000988511
0.000103192
-0.000947348
0.00021735
-0.000888436
0.000332781
-0.000811712
0.000457933
-0.000720416
0.000605949
-0.000623058
0.000796946
-0.000535413
0.00106216
-0.000474271
0.00145009
-0.000412317
0.00204847
-0.000178728
0.00301481
0.000208641
0.0044061
0.000533423
0.00428707
0.00165797
0.00288133
0.00456965
0.0048701
0.00165011
0.0053565
0.00175782
0.00559293
0.00171856
0.00582468
0.00108327
0.00601304
0.000333697
0.00608054
-0.000375124
0.00595545
-0.00096944
0.00560426
-0.00142096
0.00503948
-0.00172337
0.0043079
-0.00188472
0.00346751
-0.00191553
0.00257652
-0.00183656
0.00168985
-0.00167502
0.000840557
-0.00143239
7.24371e-05
-0.0011642
-0.000550497
-0.000916298
-0.000983311
-0.000751797
-0.00124493
-0.000643863
-0.00139497
-0.000575018
-0.00147415
-0.000513522
-0.00151241
-0.000443134
-0.00152598
-0.000357481
-0.00152444
-0.000257139
-0.00151336
-0.00014639
-0.00149538
-3.2338e-05
-0.00146916
7.69735e-05
-0.00142994
0.000178119
-0.00137268
0.000275516
-0.00129413
0.000379393
-0.00119319
0.000505001
-0.00107014
0.000673885
-0.00092278
0.000914731
-0.000732372
0.00125956
-0.000426084
0.00174205
0.000144877
0.0024439
0.00100317
0.00354807
0.00143511
0.00385545
0.00325438
0.00793025
0.00536812
0.0058097
0.00387839
0.00556163
0.00196666
0.00563424
0.00101071
0.00560016
0.000367839
0.00535797
-0.000132886
0.00489635
-0.000507796
0.00425554
-0.000780143
0.00348872
-0.000956559
0.00264844
-0.00104446
0.00177529
-0.00104241
0.000905385
-0.000966671
7.37693e-05
-0.000843421
-0.000657679
-0.000700958
-0.00122704
-0.000594865
-0.00161943
-0.000523922
-0.00187279
-0.000498446
-0.00202306
-0.000493579
-0.00211036
-0.000487697
-0.0021584
-0.00046544
-0.00218055
-0.000420931
-0.00218452
-0.00035348
-0.00217587
-0.000265768
-0.00215927
-0.000163006
-0.00213863
-5.30149e-05
-0.00211556
5.38812e-05
-0.00208692
0.000149451
-0.00204736
0.000235953
-0.00199125
0.000323302
-0.00191123
0.00042501
-0.00179461
0.000557273
-0.00161883
0.000738868
-0.00134719
0.000987698
-0.000911619
0.00130613
-0.000156018
0.00168794
0.00106681
0.00232515
0.0016603
0.00326193
0.00508476
0.00409278
0.00152194
0.0044943
0.00347689
0.00372684
0.00273416
0.00322905
0.00150855
0.00288872
0.000708236
0.00252534
0.00023053
0.00207984
-6.22848e-05
0.00154147
-0.000241779
0.000928069
-0.000343172
0.000256015
-0.000372428
-0.000438308
-0.0003481
-0.00109673
-0.000308276
-0.00166556
-0.000274624
-0.00210841
-0.000258142
-0.00242843
-0.000274877
-0.00263899
-0.000313388
-0.00277618
-0.00036124
-0.00286762
-0.000402092
-0.00293007
-0.000425174
-0.00297109
-0.00042433
-0.00299465
-0.000397288
-0.00300363
-0.000344441
-0.00300075
-0.000268641
-0.00298865
-0.000175154
-0.00297029
-7.1469e-05
-0.00294984
3.33215e-05
-0.00293009
0.000129634
-0.00290753
0.000213375
-0.00287635
0.000292183
-0.00282811
0.000376882
-0.00274826
0.000477561
-0.00261074
0.000601405
-0.00237105
0.000747907
-0.00196078
0.000895529
-0.00127466
0.00100129
-0.000164952
0.00121483
0.000303667
0.00279279
0.00557248
-0.00262929
-0.00680297
-0.00743356
-0.00747854
-0.0037578
-0.00215384
-0.00168284
0.00140197
-0.000768607
0.00181998
-0.000567032
0.00130704
-0.000642929
0.000784176
-0.000823112
0.000410742
-0.00105767
0.000172292
-0.00134204
4.25947e-05
-0.00167971
-5.51749e-06
-0.00204988
-2.28636e-06
-0.00242156
2.35514e-05
-0.00276933
3.94536e-05
-0.0030681
2.40866e-05
-0.00329751
-2.87801e-05
-0.00345556
-0.000116861
-0.00356315
-0.000205782
-0.00364415
-0.000280189
-0.00371061
-0.000335525
-0.00376648
-0.000369159
-0.00381226
-0.000378414
-0.00384792
-0.000361511
-0.00387395
-0.00031836
-0.00389142
-0.000251191
-0.00390162
-0.000165078
-0.00390487
-6.84091e-05
-0.00389799
2.623e-05
-0.00387516
0.00010663
-0.00383622
0.000174349
-0.0037815
0.000237489
-0.00370938
0.000304897
-0.00361733
0.000385745
-0.00350207
0.000486408
-0.00335469
0.000600759
-0.00317882
0.000719793
-0.00314302
0.0009655
-0.00368621
0.00175783
-0.00366023
0.0027664
0.00210924
-0.00737612
0.00102694
-0.00814545
-0.00670917
-0.00719231
-0.00310692
-0.00566833
-0.000121963
-0.00457581
0.000727529
-0.00398559
0.000716877
-0.00372805
0.000526689
-0.00366228
0.000345015
-0.00370386
0.000213886
-0.00379667
0.000135402
-0.00390002
9.78107e-05
-0.00398898
8.66241e-05
-0.00405018
8.46713e-05
-0.00408674
7.59374e-05
-0.00411396
5.12403e-05
-0.00414638
3.59403e-06
-0.00419155
-7.16809e-05
-0.00425073
-0.000146541
-0.00432321
-0.000207594
-0.00440694
-0.000251631
-0.00449843
-0.000277492
-0.00459262
-0.000284054
-0.00468299
-0.000271033
-0.00476202
-0.000239314
-0.00482243
-0.00019087
-0.00485866
-0.000129045
-0.00486812
-5.92337e-05
-0.00485171
9.51205e-06
-0.00480361
5.82631e-05
-0.00472281
9.33669e-05
-0.00460856
0.000123163
-0.00445798
0.000154355
-0.00426441
0.000192327
-0.00401863
0.000240873
-0.00371287
0.00029528
-0.00332122
0.00032842
-0.00264391
0.000288429
-0.00106323
0.000177303
0.000567502
0.00113562
0.00287828
0.00156893
-0.00507537
-0.00811895
-0.00818139
-0.00739949
-0.00663609
-0.00606962
-0.00568964
-0.00544386
-0.00527823
-0.0051508
-0.00503436
-0.00491916
-0.0048118
-0.00472836
-0.0046921
-0.00473098
-0.00484485
-0.00502016
-0.00524013
-0.00548679
-0.00574097
-0.00598306
-0.00619424
-0.00635759
-0.00645951
-0.00649182
-0.00645548
-0.00637045
-0.00625044
-0.00610092
-0.0059207
-0.00570325
-0.0054382
-0.00511989
-0.00476971
-0.00446085
-0.00426448
-0.00311133
)
;

boundaryField
{
    floor
    {
        type            calculated;
        value           nonuniform List<scalar> 
36
(
0
0
0
0
0
0
0
0
0
0
0
0
0
0
0
0
0
0
0
-6.43866e-06
-1.68834e-05
-2.60311e-05
-3.43035e-05
-3.49317e-05
-2.88437e-05
-2.87044e-05
-2.91991e-06
-5.44108e-06
-5.68734e-06
-5.90756e-06
-4.8539e-06
-8.93813e-06
-1.02117e-05
-1.28326e-05
-1.44575e-05
-1.54454e-05
)
;
    }
    ceiling
    {
        type            calculated;
        value           nonuniform List<scalar> 
43
(
-5.79435e-05
-6.4828e-05
-6.32608e-05
-5.94293e-05
-5.42747e-05
-4.643e-05
-3.97094e-05
-3.49223e-05
-3.18902e-05
-3.02548e-05
-2.96845e-05
-2.99026e-05
-3.06225e-05
-3.15079e-05
-3.22481e-05
-3.26855e-05
-3.27689e-05
-3.25845e-05
-3.2154e-05
-3.14959e-05
-3.06657e-05
-2.97618e-05
-2.89028e-05
-2.8189e-05
-2.7673e-05
-2.73525e-05
-2.71836e-05
-2.70963e-05
-2.70033e-05
-2.68134e-05
-2.64511e-05
-2.58736e-05
-2.50682e-05
-2.40483e-05
-2.28511e-05
-2.15379e-05
-2.01821e-05
-1.88063e-05
-1.73037e-05
-1.57557e-05
1.93362e-05
1.51882e-05
-0.000246593
)
;
    }
    sWall
    {
        type            calculated;
        value           nonuniform List<scalar> 9(-0.000140236 -0.000164522 -0.000194255 -0.000225975 -0.000245161 -0.000281094 -0.000423777 -0.000453774 -0.000484039);
    }
    nWall
    {
        type            calculated;
        value           nonuniform List<scalar> 
14
(
-9.04328e-05
-9.76704e-05
-0.0001032
-0.000104719
-0.000117097
-0.00013129
-0.000144929
-0.000151775
-0.000161122
-0.000170161
-0.00018434
-0.000197396
-0.000201374
-0.000217034
)
;
    }
    sideWalls
    {
        type            empty;
        value           nonuniform 0();
    }
    glass1
    {
        type            calculated;
        value           nonuniform List<scalar> 9(-6.40345e-05 -0.000170321 -0.000257923 -0.000331206 -0.00039319 -0.000446395 -0.000492207 -0.000535489 -0.00058717);
    }
    glass2
    {
        type            calculated;
        value           nonuniform List<scalar> 2(-0.000368049 -0.000385836);
    }
    sun
    {
        type            calculated;
        value           uniform 0;
    }
    Table_master
    {
        type            calculated;
        value           nonuniform List<scalar> 9(-1.53993e-07 -1.5411e-07 -1.54142e-07 -1.54163e-07 -1.54175e-07 -1.5418e-07 -1.54179e-07 -1.54164e-07 -1.54111e-07);
    }
    Table_slave
    {
        type            calculated;
        value           nonuniform List<scalar> 9(1.53662e-07 1.53719e-07 1.53718e-07 1.53734e-07 1.53755e-07 1.53799e-07 1.53866e-07 1.5396e-07 1.54087e-07);
    }
    inlet
    {
        type            calculated;
        value           uniform -0.0116483;
    }
    outlet
    {
        type            calculated;
        value           nonuniform List<scalar> 2(0.00985603 0.0122828);
    }
}


// ************************************************************************* //
