/*--------------------------------*- C++ -*----------------------------------*\
  =========                 |
  \\      /  F ield         | OpenFOAM: The Open Source CFD Toolbox
   \\    /   O peration     | Website:  https://openfoam.org
    \\  /    A nd           | Version:  6
     \\/     M anipulation  |
\*---------------------------------------------------------------------------*/
FoamFile
{
    version     2.0;
    format      ascii;
    class       volVectorField;
    location    "33399.999997817351";
    object      U;
}
// * * * * * * * * * * * * * * * * * * * * * * * * * * * * * * * * * * * * * //

dimensions      [0 1 -1 0 0 0 0];

internalField   nonuniform List<vector> 
778
(
(0.0655954 0.079409 0)
(-0.15518 0.0157678 0)
(-0.164312 0.0146282 0)
(-0.192435 0.0122797 0)
(-0.21688 0.00873075 0)
(-0.236951 0.00475044 0)
(-0.25209 0.00042334 0)
(-0.261873 -0.0043632 0)
(-0.265784 -0.00980777 0)
(-0.26282 -0.0161907 0)
(-0.251023 -0.0242678 0)
(-0.226322 -0.0348916 0)
(-0.18619 -0.0504198 0)
(-0.144241 -0.0752005 0)
(-0.150132 -0.108609 0)
(0.0546186 0.0354986 0)
(0.0157049 -0.0268754 0)
(0.0448832 -0.023269 0)
(0.0692791 -0.0161654 0)
(0.0843393 -0.0103572 0)
(0.0915515 -0.00641584 0)
(0.0943875 -0.00433473 0)
(0.095416 -0.00331141 0)
(0.0958613 -0.00272558 0)
(0.096026 -0.00231402 0)
(0.0958989 -0.00195104 0)
(0.0953728 -0.00151176 0)
(0.0941174 -0.000758678 0)
(0.0912741 0.000844508 0)
(0.0850764 0.00406576 0)
(0.0735482 0.00777168 0)
(0.0598986 0.0116168 0)
(-0.00792872 0.0299744 0)
(0.258392 0.167398 0)
(-0.161239 0.0483992 0)
(-0.141613 0.0459883 0)
(-0.174022 0.0416252 0)
(-0.199393 0.0356814 0)
(-0.220124 0.0291457 0)
(-0.236166 0.0220767 0)
(-0.247433 0.0142472 0)
(-0.253625 0.00531345 0)
(-0.253958 -0.00514009 0)
(-0.247814 -0.0170778 0)
(-0.234116 -0.0308558 0)
(-0.214213 -0.0480933 0)
(-0.197642 -0.0699902 0)
(-0.194136 -0.0826837 0)
(-0.166514 -0.0425937 0)
(-0.105416 -0.0364239 0)
(-0.0983365 -0.0445248 0)
(0.109332 -0.0420108 0)
(0.0644262 -0.0411281 0)
(0.0718433 -0.0322558 0)
(0.0858115 -0.0207171 0)
(0.0937074 -0.0104722 0)
(0.0959452 -0.00364353 0)
(0.095711 -0.00018785 0)
(0.0953237 0.00126332 0)
(0.0952854 0.00190852 0)
(0.0953635 0.00227635 0)
(0.0953683 0.0025927 0)
(0.0952667 0.00313122 0)
(0.0949755 0.00441052 0)
(0.0937193 0.00772403 0)
(0.0881266 0.0167512 0)
(0.0743803 0.025328 0)
(0.0630441 0.0329439 0)
(-0.0519688 0.0635275 0)
(0.429967 0.253963 0)
(-0.194236 0.0847722 0)
(-0.112791 0.0784451 0)
(-0.148261 0.0669718 0)
(-0.170699 0.0555214 0)
(-0.188801 0.0437544 0)
(-0.202648 0.0313763 0)
(-0.212352 0.0180421 0)
(-0.217716 0.00343179 0)
(-0.218087 -0.0126062 0)
(-0.212841 -0.0303096 0)
(-0.201743 -0.049909 0)
(-0.186108 -0.0715861 0)
(-0.169578 -0.0932457 0)
(-0.151212 -0.104609 0)
(-0.120367 -0.0931942 0)
(-0.0796541 -0.0950125 0)
(-0.0715438 -0.107688 0)
(0.0920978 -0.0880608 0)
(0.0625312 -0.0656867 0)
(0.0743148 -0.0460914 0)
(0.0879341 -0.0292316 0)
(0.0947548 -0.014897 0)
(0.0918384 -0.0120542 0)
(0.0876046 -0.00798643 0)
(0.0852314 -0.00580016 0)
(0.0845402 -0.00456331 0)
(0.0845239 -0.00379474 0)
(0.0847851 -0.00322235 0)
(0.0854389 -0.00259769 0)
(0.0871991 -0.00144026 0)
(0.0918804 0.00291872 0)
(0.090041 0.025092 0)
(0.0732556 0.042333 0)
(0.069993 0.0574405 0)
(-0.0899884 0.100832 0)
(0.578528 0.325852 0)
(-0.240104 0.121829 0)
(-0.0808493 0.109241 0)
(-0.121595 0.0898754 0)
(-0.139034 0.0740974 0)
(-0.153102 0.0586711 0)
(-0.163869 0.0427944 0)
(-0.171472 0.0258538 0)
(-0.175692 0.00724058 0)
(-0.175768 -0.0134962 0)
(-0.171088 -0.036447 0)
(-0.161529 -0.0614463 0)
(-0.147673 -0.0873763 0)
(-0.13071 -0.110316 0)
(-0.109768 -0.123227 0)
(-0.082304 -0.124582 0)
(-0.052708 -0.126432 0)
(-0.0335974 -0.123245 0)
(0.0160876 -0.0568284 0)
(0.0606536 -0.0929764 0)
(0.068367 -0.0791284 0)
(0.0790158 -0.0587822 0)
(0.0915187 -0.0395543 0)
(0.102868 -0.0208956 0)
(0.115616 -0.0132217 0)
(0.12677 -0.00883927 0)
(0.132371 -0.00562253 0)
(0.133351 -0.00310803 0)
(0.130818 -0.000878027 0)
(0.125345 0.00129389 0)
(0.116811 0.00367296 0)
(0.104454 0.00672205 0)
(0.0852202 0.0111425 0)
(0.0713669 0.0367973 0)
(0.060112 0.0605028 0)
(0.0761635 0.0833057 0)
(-0.117562 0.137057 0)
(0.705701 0.383696 0)
(-0.287677 0.157031 0)
(-0.0477148 0.133807 0)
(-0.0963172 0.106948 0)
(-0.107773 0.0876323 0)
(-0.116812 0.0692187 0)
(-0.123607 0.0505 0)
(-0.128272 0.0306439 0)
(-0.130637 0.00877757 0)
(-0.129836 -0.0157755 0)
(-0.125341 -0.0430449 0)
(-0.116725 -0.0726613 0)
(-0.104017 -0.102808 0)
(-0.0875676 -0.129072 0)
(-0.0676415 -0.145778 0)
(-0.044321 -0.152276 0)
(-0.0204728 -0.152407 0)
(5.40616e-05 -0.143779 0)
(0.0306034 -0.115025 0)
(0.0568094 -0.109354 0)
(0.0704348 -0.0924168 0)
(0.0806073 -0.0712393 0)
(0.0906872 -0.0507848 0)
(0.100254 -0.0327457 0)
(0.109367 -0.0193746 0)
(0.116389 -0.00999409 0)
(0.119806 -0.00329421 0)
(0.119992 0.0019608 0)
(0.117564 0.00650305 0)
(0.112899 0.0108457 0)
(0.106027 0.0155003 0)
(0.096886 0.021171 0)
(0.0849791 0.0291615 0)
(0.0734513 0.047155 0)
(0.0630002 0.0711898 0)
(0.0945361 0.0993142 0)
(0.016758 0.138259 0)
(0.0960479 0.182805 0)
(0.140905 0.147719 0)
(-0.225016 0.203333 0)
(0.810405 0.431995 0)
(-0.331312 0.190708 0)
(-0.0173353 0.150284 0)
(-0.0733971 0.117561 0)
(-0.0786285 0.0955581 0)
(-0.0822559 0.0749984 0)
(-0.0845146 0.0544018 0)
(-0.0855546 0.0327815 0)
(-0.0852995 0.00892021 0)
(-0.082623 -0.018357 0)
(-0.0774568 -0.0489781 0)
(-0.0688356 -0.0824541 0)
(-0.056856 -0.116452 0)
(-0.0418263 -0.14625 0)
(-0.0248628 -0.165956 0)
(-0.00649987 -0.174487 0)
(0.0118845 -0.172775 0)
(0.0278005 -0.161057 0)
(0.0459832 -0.139374 0)
(0.0624643 -0.122382 0)
(0.0731718 -0.102515 0)
(0.0808815 -0.0804488 0)
(0.0876594 -0.0590953 0)
(0.0938501 -0.0402128 0)
(0.099184 -0.0250335 0)
(0.102868 -0.0136719 0)
(0.104461 -0.00497541 0)
(0.104014 0.00221589 0)
(0.101839 0.00867457 0)
(0.0981876 0.0149167 0)
(0.0932234 0.02147 0)
(0.0871828 0.0289731 0)
(0.080331 0.038351 0)
(0.0746061 0.0527622 0)
(0.0694043 0.0727722 0)
(0.0914245 0.0985349 0)
(0.0732817 0.107388 0)
(0.0897728 0.0482035 0)
(0.146244 -0.0364487 0)
(-0.328081 0.105674 0)
(0.879882 0.474709 0)
(-0.36863 0.220998 0)
(0.00370351 0.155608 0)
(-0.0526943 0.121622 0)
(-0.0522483 0.0979078 0)
(-0.0510748 0.0758818 0)
(-0.0490748 0.0541078 0)
(-0.0465598 0.0316003 0)
(-0.0433691 0.00683545 0)
(-0.0374 -0.0222393 0)
(-0.0303214 -0.0553074 0)
(-0.0205439 -0.0918657 0)
(-0.00875847 -0.128799 0)
(0.00441532 -0.161134 0)
(0.0174487 -0.181803 0)
(0.0302165 -0.190182 0)
(0.0420166 -0.187245 0)
(0.0523254 -0.174472 0)
(0.0623121 -0.154131 0)
(0.0709159 -0.132469 0)
(0.0764734 -0.109431 0)
(0.0799635 -0.085906 0)
(0.0825829 -0.0637059 0)
(0.0848305 -0.0441863 0)
(0.0866629 -0.0280695 0)
(0.0877455 -0.0152603 0)
(0.0878559 -0.00498388 0)
(0.0868457 0.00367331 0)
(0.084909 0.0113881 0)
(0.082198 0.01868 0)
(0.0788976 0.0260502 0)
(0.0752971 0.034008 0)
(0.0718088 0.0431279 0)
(0.069809 0.0547326 0)
(0.0686763 0.069257 0)
(0.0816675 0.0884649 0)
(0.0846048 0.0920704 0)
(0.0895655 0.0548901 0)
(0.180829 0.0255795 0)
(-0.280653 0.154098 0)
(0.927937 0.517166 0)
(-0.383156 0.234213 0)
(0.0168902 0.133045 0)
(-0.027358 0.116721 0)
(-0.0265923 0.094986 0)
(-0.0227925 0.0724937 0)
(-0.0176846 0.0501689 0)
(-0.0124099 0.0273119 0)
(-0.00544094 0.00190918 0)
(0.00455107 -0.0306932 0)
(0.0142776 -0.0652666 0)
(0.0255672 -0.103233 0)
(0.0371799 -0.140715 0)
(0.0478156 -0.171978 0)
(0.0568666 -0.192199 0)
(0.0643252 -0.199745 0)
(0.0700278 -0.195394 0)
(0.0739799 -0.181254 0)
(0.0766934 -0.160196 0)
(0.0780804 -0.1362 0)
(0.0777533 -0.111165 0)
(0.0762815 -0.0866084 0)
(0.0744893 -0.0640105 0)
(0.0728966 -0.0443753 0)
(0.0716363 -0.0280811 0)
(0.0705692 -0.014848 0)
(0.0694986 -0.00398619 0)
(0.0681337 0.00527209 0)
(0.0665948 0.0134993 0)
(0.0648614 0.0211761 0)
(0.0630276 0.0287271 0)
(0.0612977 0.0365103 0)
(0.0599983 0.0448335 0)
(0.060027 0.0542107 0)
(0.0612658 0.0647062 0)
(0.0702476 0.0780752 0)
(0.0798801 0.0820609 0)
(0.0789673 0.0625423 0)
(0.238607 0.0537298 0)
(-0.556234 0.231838 0)
(1.01129 0.506841 0)
(-0.137314 0.296371 0)
(0.0410764 0.161562 0)
(0.0405716 0.122141 0)
(0.0130519 0.092029 0)
(0.00862605 0.0654149 0)
(0.0140501 0.0414346 0)
(0.0206789 0.017016 0)
(0.0325055 -0.0109977 0)
(0.0439825 -0.042123 0)
(0.0558606 -0.0768533 0)
(0.0681262 -0.11452 0)
(0.0792309 -0.150919 0)
(0.0876834 -0.180354 0)
(0.0928504 -0.198408 0)
(0.0948547 -0.20365 0)
(0.0941135 -0.197095 0)
(0.0911793 -0.181135 0)
(0.0867293 -0.158791 0)
(0.081212 -0.133377 0)
(0.074915 -0.107329 0)
(0.0684325 -0.0824862 0)
(0.0624808 -0.060213 0)
(0.0575707 -0.041239 0)
(0.0538825 -0.0256509 0)
(0.0513025 -0.0129587 0)
(0.0495562 -0.00240236 0)
(0.0482421 0.00669684 0)
(0.0473423 0.0148285 0)
(0.0466367 0.0224252 0)
(0.0460887 0.0298175 0)
(0.045767 0.0372219 0)
(0.0458432 0.0447483 0)
(0.0468361 0.052499 0)
(0.0488615 0.0602729 0)
(0.0553839 0.0688497 0)
(0.0650047 0.0697579 0)
(0.0584469 0.0465129 0)
(0.293483 0.0723655 0)
(-0.763794 0.301971 0)
(0.779333 0.395761 0)
(0.000771709 0.319519 0)
(0.0933828 0.218937 0)
(0.110599 0.155199 0)
(0.0771687 0.106853 0)
(0.0597927 0.0675687 0)
(0.0582128 0.0357707 0)
(0.0623847 0.00640841 0)
(0.0738326 -0.0234468 0)
(0.0854187 -0.0550443 0)
(0.0976184 -0.0897075 0)
(0.109466 -0.126131 0)
(0.1188 -0.159829 0)
(0.123849 -0.185503 0)
(0.124021 -0.199605 0)
(0.119753 -0.201285 0)
(0.112005 -0.191878 0)
(0.101853 -0.173894 0)
(0.0903414 -0.150338 0)
(0.0783116 -0.124237 0)
(0.0664523 -0.0981297 0)
(0.0554955 -0.073951 0)
(0.0461641 -0.0529567 0)
(0.0389165 -0.0355915 0)
(0.0338342 -0.0216413 0)
(0.0306557 -0.010337 0)
(0.0289107 -0.000794821 0)
(0.0281237 0.00758915 0)
(0.0280364 0.0152468 0)
(0.0283194 0.0225377 0)
(0.028839 0.0296871 0)
(0.0295238 0.0368033 0)
(0.0303306 0.0438777 0)
(0.0313393 0.0508041 0)
(0.0322829 0.0572598 0)
(0.0342181 0.0635889 0)
(0.0246866 0.0661107 0)
(0.0226417 0.081364 0)
(0.120058 0.162905 0)
(-0.643913 0.307904 0)
(0.617271 0.220877 0)
(0.00464542 0.298134 0)
(0.113048 0.241555 0)
(0.148321 0.177564 0)
(0.130892 0.123516 0)
(0.117873 0.0778322 0)
(0.115014 0.0388752 0)
(0.117191 0.00336635 0)
(0.123573 -0.0307561 0)
(0.131815 -0.0650235 0)
(0.141504 -0.100446 0)
(0.150361 -0.13521 0)
(0.155446 -0.164982 0)
(0.154838 -0.185474 0)
(0.14823 -0.194399 0)
(0.136527 -0.191766 0)
(0.121206 -0.179286 0)
(0.103776 -0.159489 0)
(0.0856119 -0.135258 0)
(0.0678302 -0.109376 0)
(0.0513851 -0.0843194 0)
(0.0371619 -0.0619738 0)
(0.0259082 -0.0434292 0)
(0.0178856 -0.0287325 0)
(0.01284 -0.0172737 0)
(0.010094 -0.00792199 0)
(0.00892285 0.000245115 0)
(0.00889568 0.00769692 0)
(0.00955259 0.014766 0)
(0.0106407 0.0217046 0)
(0.0119944 0.0286604 0)
(0.013433 0.0357166 0)
(0.0146879 0.042879 0)
(0.0154291 0.0500617 0)
(0.0152369 0.0570872 0)
(0.013454 0.0653227 0)
(-0.0148856 0.0876619 0)
(-0.00621715 0.125044 0)
(0.0841401 0.181531 0)
(-0.553589 0.236715 0)
(0.570771 0.118504 0)
(-0.0202765 0.258643 0)
(0.113749 0.229891 0)
(0.165097 0.176064 0)
(0.166759 0.126186 0)
(0.164418 0.0810887 0)
(0.165407 0.0399422 0)
(0.168353 0.00157724 0)
(0.172336 -0.0354499 0)
(0.177936 -0.071935 0)
(0.184113 -0.107505 0)
(0.187781 -0.139416 0)
(0.185929 -0.163854 0)
(0.177187 -0.178053 0)
(0.162005 -0.181232 0)
(0.141926 -0.174271 0)
(0.118892 -0.159168 0)
(0.0946671 -0.138319 0)
(0.0708527 -0.114416 0)
(0.0487094 -0.0899598 0)
(0.029432 -0.0673283 0)
(0.0140582 -0.0482872 0)
(0.00318833 -0.0335628 0)
(-0.00361803 -0.0223425 0)
(-0.00718765 -0.0138032 0)
(-0.00889021 -0.00639762 0)
(-0.00936395 0.000481078 0)
(-0.00886625 0.00706561 0)
(-0.00775997 0.0135447 0)
(-0.00614007 0.0200858 0)
(-0.00414956 0.0268392 0)
(-0.0020147 0.0339855 0)
(-0.000162723 0.0417396 0)
(0.000659219 0.0502391 0)
(-9.3134e-05 0.0600973 0)
(-0.00612527 0.0769063 0)
(-0.0392341 0.116644 0)
(-0.0317861 0.158917 0)
(0.0172581 0.18213 0)
(-0.523753 0.154149 0)
(0.628459 0.0536098 0)
(0.0094535 0.197289 0)
(0.11387 0.196974 0)
(0.175162 0.15796 0)
(0.191397 0.117703 0)
(0.198039 0.0772614 0)
(0.203368 0.0372245 0)
(0.208597 -0.00160136 0)
(0.213151 -0.0397692 0)
(0.217514 -0.0765851 0)
(0.219357 -0.109871 0)
(0.215512 -0.13651 0)
(0.204101 -0.153964 0)
(0.185219 -0.161288 0)
(0.160475 -0.159055 0)
(0.132031 -0.148654 0)
(0.102137 -0.132132 0)
(0.0725184 -0.111544 0)
(0.0449721 -0.0893987 0)
(0.0207709 -0.0679109 0)
(0.00153272 -0.0494049 0)
(-0.0117311 -0.0354947 0)
(-0.0193287 -0.0259337 0)
(-0.0234804 -0.0184726 0)
(-0.0255204 -0.0119682 0)
(-0.0263695 -0.00579507 0)
(-0.0263918 0.000214799 0)
(-0.0256664 0.00610918 0)
(-0.0243575 0.0119928 0)
(-0.0224107 0.0180287 0)
(-0.0199019 0.0244419 0)
(-0.0170143 0.031571 0)
(-0.0141712 0.0399017 0)
(-0.0122668 0.0501734 0)
(-0.0120047 0.0640575 0)
(-0.0141389 0.088333 0)
(-0.0379185 0.137029 0)
(-0.0289198 0.190987 0)
(0.0162944 0.179288 0)
(-0.536388 0.0518255 0)
(0.472321 0.0747441 0)
(-0.132002 0.137612 0)
(0.0942343 0.13337 0)
(0.172703 0.116865 0)
(0.203791 0.0953785 0)
(0.218056 0.0643789 0)
(0.228045 0.0283058 0)
(0.237167 -0.00912001 0)
(0.243626 -0.0454932 0)
(0.245199 -0.0783651 0)
(0.239256 -0.105071 0)
(0.224443 -0.123603 0)
(0.201285 -0.133177 0)
(0.171682 -0.134276 0)
(0.138202 -0.128169 0)
(0.103121 -0.116116 0)
(0.0687654 -0.0999692 0)
(0.0363479 -0.0813205 0)
(0.00833052 -0.0626965 0)
(-0.0143518 -0.0461754 0)
(-0.028302 -0.0351829 0)
(-0.0365098 -0.0276093 0)
(-0.0408611 -0.0217594 0)
(-0.0430528 -0.0163998 0)
(-0.0440002 -0.0110841 0)
(-0.0442207 -0.00568135 0)
(-0.0439108 -0.000283335 0)
(-0.043046 0.00500928 0)
(-0.041664 0.010238 0)
(-0.0395313 0.015596 0)
(-0.0366101 0.0214046 0)
(-0.0329542 0.0281544 0)
(-0.0288191 0.0365799 0)
(-0.0248844 0.0478951 0)
(-0.0215327 0.0643585 0)
(-0.0151005 0.0909188 0)
(-0.0166312 0.138055 0)
(-0.0105867 0.205072 0)
(0.126952 0.197957 0)
(-0.421299 0.0531917 0)
(0.724032 0.134407 0)
(0.0818227 0.115226 0)
(0.149683 0.0992608 0)
(0.2223 0.0805547 0)
(0.243933 0.069975 0)
(0.248718 0.0476491 0)
(0.255054 0.017432 0)
(0.261225 -0.0149266 0)
(0.260326 -0.0449714 0)
(0.249907 -0.0697211 0)
(0.229726 -0.0874803 0)
(0.20135 -0.0978363 0)
(0.167141 -0.101158 0)
(0.129609 -0.0984694 0)
(0.0912323 -0.0910535 0)
(0.0534297 -0.0795812 0)
(0.018967 -0.0657214 0)
(-0.0126097 -0.050655 0)
(-0.0347666 -0.0392868 0)
(-0.0492836 -0.0316606 0)
(-0.0576096 -0.0268937 0)
(-0.0621638 -0.0231839 0)
(-0.0644601 -0.0195419 0)
(-0.0654408 -0.0154682 0)
(-0.065615 -0.0109073 0)
(-0.0652969 -0.00599688 0)
(-0.064633 -0.000997555 0)
(-0.0636131 0.00382996 0)
(-0.0622984 0.00841483 0)
(-0.0602717 0.0129577 0)
(-0.0573847 0.0178586 0)
(-0.0535567 0.023726 0)
(-0.0487888 0.0315021 0)
(-0.0431963 0.0426366 0)
(-0.0363904 0.0590597 0)
(-0.0243037 0.0832213 0)
(-0.00707638 0.120667 0)
(0.00507577 0.178544 0)
(0.168574 0.181205 0)
(-0.349375 0.111279 0)
(0.191789 0.0880626 0)
(0.225618 0.0998633 0)
(0.246368 0.0702201 0)
(0.242444 0.039821 0)
(0.239689 0.0120279 0)
(0.234729 -0.0130754 0)
(0.220082 -0.0335824 0)
(0.19647 -0.0486489 0)
(0.166212 -0.0582581 0)
(0.131722 -0.0629213 0)
(0.0947676 -0.0630022 0)
(0.0572239 -0.0592465 0)
(0.0210502 -0.0525637 0)
(-0.014509 -0.0431447 0)
(-0.0421199 -0.034524 0)
(-0.0627568 -0.0280535 0)
(-0.0762573 -0.0245797 0)
(-0.0845025 -0.0228608 0)
(-0.0892811 -0.0217622 0)
(-0.0920028 -0.0202581 0)
(-0.0934062 -0.0179609 0)
(-0.0938963 -0.0147927 0)
(-0.0937363 -0.0108615 0)
(-0.0931506 -0.0063893 0)
(-0.0922954 -0.00170092 0)
(-0.0912103 0.00282746 0)
(-0.0901656 0.00696513 0)
(-0.0887711 0.0108111 0)
(-0.0868097 0.0147954 0)
(-0.084043 0.019573 0)
(-0.0800122 0.0260365 0)
(-0.0740349 0.0352727 0)
(-0.0650943 0.048293 0)
(-0.0502284 0.0655653 0)
(-0.0252817 0.0878053 0)
(0.0043168 0.125445 0)
(0.184775 0.149943 0)
(-0.34181 0.172544 0)
(0.450957 0.209848 0)
(0.206015 0.178848 0)
(0.15252 0.118818 0)
(0.139525 0.0639352 0)
(0.128263 0.0256544 0)
(0.114369 0.00148952 0)
(0.0990212 -0.0132455 0)
(0.0780479 -0.0223008 0)
(0.0533978 -0.0276932 0)
(0.0261755 -0.0298275 0)
(-0.00392077 -0.0286107 0)
(-0.0335714 -0.0250319 0)
(-0.0601013 -0.0206362 0)
(-0.0823648 -0.0169282 0)
(-0.0987215 -0.015451 0)
(-0.109816 -0.0158234 0)
(-0.11692 -0.0173993 0)
(-0.12159 -0.0189335 0)
(-0.124773 -0.0197154 0)
(-0.12694 -0.0193861 0)
(-0.128295 -0.0178353 0)
(-0.128963 -0.0150854 0)
(-0.129058 -0.0112751 0)
(-0.128705 -0.00666939 0)
(-0.12801 -0.00169956 0)
(-0.127006 0.00300294 0)
(-0.126116 0.00690398 0)
(-0.125282 0.0102495 0)
(-0.124255 0.0135255 0)
(-0.122723 0.0172818 0)
(-0.120092 0.0220653 0)
(-0.115607 0.028359 0)
(-0.108584 0.0362602 0)
(-0.0968947 0.0447261 0)
(-0.0730758 0.052436 0)
(-0.0280093 0.0674901 0)
(0.142404 0.129209 0)
(-0.471003 0.237173 0)
(0.35945 -0.41674 0)
(-0.346473 -0.513042 0)
(-0.218625 -0.0273058 0)
(-0.0933689 0.111058 0)
(-0.0539151 0.0925633 0)
(-0.0315414 0.0544151 0)
(-0.0266728 0.0281312 0)
(-0.0315573 0.0113303 0)
(-0.0401567 0.000462619 0)
(-0.0505611 -0.0065633 0)
(-0.0641971 -0.0106415 0)
(-0.0796448 -0.0126426 0)
(-0.0959409 -0.0137716 0)
(-0.111789 -0.0154848 0)
(-0.125936 -0.0183098 0)
(-0.137425 -0.0216308 0)
(-0.145686 -0.0245525 0)
(-0.151156 -0.0267461 0)
(-0.155013 -0.028259 0)
(-0.158095 -0.0291124 0)
(-0.160706 -0.0292788 0)
(-0.162899 -0.0286938 0)
(-0.164659 -0.0273201 0)
(-0.165987 -0.0251677 0)
(-0.16691 -0.0222979 0)
(-0.167495 -0.0187987 0)
(-0.167789 -0.0147187 0)
(-0.167673 -0.00995725 0)
(-0.166971 -0.00449686 0)
(-0.165674 0.000714228 0)
(-0.163748 0.00568745 0)
(-0.161095 0.0107848 0)
(-0.157466 0.0163846 0)
(-0.152911 0.0227255 0)
(-0.148462 0.0296756 0)
(-0.144324 0.0368715 0)
(-0.133211 0.0466702 0)
(-0.10416 0.0718899 0)
(-0.10554 0.129843 0)
(-0.575823 0.198187 0)
(0.122728 -0.186125 0)
(-0.388611 -0.298085 0)
(-0.343707 -0.096326 0)
(-0.265287 0.0518491 0)
(-0.211601 0.0836598 0)
(-0.179513 0.074598 0)
(-0.163314 0.0610686 0)
(-0.15738 0.051146 0)
(-0.157455 0.0461506 0)
(-0.160679 0.045898 0)
(-0.165124 0.0495528 0)
(-0.169463 0.0560096 0)
(-0.172814 0.0638243 0)
(-0.174937 0.0711761 0)
(-0.176284 0.076276 0)
(-0.177442 0.0772305 0)
(-0.179019 0.0727591 0)
(-0.181212 0.0664729 0)
(-0.184037 0.0602109 0)
(-0.187429 0.0545727 0)
(-0.191254 0.0498371 0)
(-0.195325 0.0462549 0)
(-0.199384 0.0440467 0)
(-0.203115 0.0433338 0)
(-0.206179 0.0440501 0)
(-0.208289 0.0458435 0)
(-0.209286 0.0479695 0)
(-0.209078 0.0491367 0)
(-0.207656 0.047881 0)
(-0.204934 0.0458078 0)
(-0.20082 0.0436703 0)
(-0.19517 0.0417379 0)
(-0.187689 0.0402548 0)
(-0.178406 0.0394226 0)
(-0.168066 0.0390386 0)
(-0.15527 0.0384102 0)
(-0.128175 0.0383747 0)
(-0.0636172 0.0465384 0)
(0.0934212 0.0839789 0)
(-0.477825 0.0860493 0)
(1.14859 -0.0112431 0)
(-0.297244 -0.323747 0)
(-0.353514 -0.233628 0)
(-0.353122 -0.149253 0)
(-0.329399 -0.107966 0)
(-0.297904 -0.0995552 0)
(-0.270893 -0.101951 0)
(-0.251456 -0.107908 0)
(-0.238587 -0.115787 0)
(-0.230132 -0.125422 0)
(-0.224058 -0.13697 0)
(-0.218872 -0.150367 0)
(-0.213803 -0.164899 0)
(-0.208822 -0.179083 0)
(-0.204491 -0.190877 0)
(-0.201792 -0.198494 0)
(-0.201806 -0.20048 0)
(-0.205156 -0.19919 0)
(-0.211472 -0.195698 0)
(-0.220098 -0.190365 0)
(-0.230296 -0.183458 0)
(-0.241263 -0.175375 0)
(-0.252149 -0.166685 0)
(-0.262108 -0.157985 0)
(-0.270341 -0.149698 0)
(-0.27615 -0.141933 0)
(-0.279033 -0.134459 0)
(-0.278857 -0.126793 0)
(-0.276001 -0.118603 0)
(-0.271517 -0.111104 0)
(-0.265763 -0.104105 0)
(-0.258655 -0.0969639 0)
(-0.249944 -0.0892518 0)
(-0.239911 -0.0808939 0)
(-0.229753 -0.0722187 0)
(-0.218128 -0.0636015 0)
(-0.191796 -0.0534433 0)
(-0.13268 -0.0331871 0)
(-0.113033 0.0111741 0)
(-0.61741 0.0481096 0)
)
;

boundaryField
{
    floor
    {
        type            noSlip;
    }
    ceiling
    {
        type            noSlip;
    }
    sWall
    {
        type            noSlip;
    }
    nWall
    {
        type            noSlip;
    }
    sideWalls
    {
        type            empty;
    }
    glass1
    {
        type            noSlip;
    }
    glass2
    {
        type            noSlip;
    }
    sun
    {
        type            noSlip;
    }
    Table_master
    {
        type            noSlip;
    }
    Table_slave
    {
        type            noSlip;
    }
    inlet
    {
        type            fixedValue;
        value           uniform (0.5 0 0);
    }
    outlet
    {
        type            zeroGradient;
    }
}


// ************************************************************************* //
