/*--------------------------------*- C++ -*----------------------------------*\
  =========                 |
  \\      /  F ield         | OpenFOAM: The Open Source CFD Toolbox
   \\    /   O peration     | Website:  https://openfoam.org
    \\  /    A nd           | Version:  6
     \\/     M anipulation  |
\*---------------------------------------------------------------------------*/
FoamFile
{
    version     2.0;
    format      ascii;
    class       volScalarField;
    location    "28999.999998291747";
    object      alphat;
}
// * * * * * * * * * * * * * * * * * * * * * * * * * * * * * * * * * * * * * //

dimensions      [1 -1 -1 0 0 0 0];

internalField   nonuniform List<scalar> 
778
(
0.00104097
0.00111052
0.00110655
0.00115461
0.00119866
0.00123868
0.00127594
0.00131186
0.00134802
0.00138645
0.00142309
0.00145789
0.00149217
0.00152902
0.00156747
0.000736946
0.00105521
0.00106376
0.00103801
0.000994942
0.000937445
0.000880145
0.000827329
0.000779689
0.000736968
0.000698905
0.000664721
0.000633586
0.000604528
0.00057625
0.000546682
0.000522137
0.000472604
0.00152462
0.00300713
0.00263919
0.00304616
0.00334149
0.00365465
0.0039671
0.00425511
0.004487
0.00462203
0.00470143
0.0046688
0.00443592
0.00385909
0.00281855
0.0017162
0.00163634
0.00156632
0.00131838
0.00224587
0.00311261
0.00362436
0.00364813
0.00287967
0.00246267
0.00217378
0.00195465
0.00178036
0.0016316
0.00150006
0.00137767
0.00125792
0.00115045
0.00105776
0.00119159
0.000599115
0.00193407
0.00419845
0.00311347
0.00445307
0.0049756
0.00541787
0.00581965
0.00617335
0.00647308
0.0067081
0.00693582
0.00717536
0.00739534
0.00752602
0.00743865
0.00681033
0.00498081
0.00192121
0.00166372
0.0035599
0.00496705
0.0056318
0.00512054
0.00135122
0.0011749
0.00103894
0.000932595
0.000847972
0.000779663
0.000723933
0.00067859
0.00064323
0.000707296
0.000832034
0.00131785
0.000681493
0.00232898
0.00565776
0.00297918
0.00500699
0.00578034
0.00619413
0.00649843
0.00672363
0.00689184
0.00702832
0.00722236
0.00755003
0.00802794
0.00862872
0.00923257
0.00952978
0.00894788
0.00667411
0.00191384
0.00443537
0.00659754
0.00769421
0.00796333
0.00679665
0.00153902
0.00139971
0.00129192
0.00120233
0.00112599
0.00105745
0.000992816
0.000928617
0.00085926
0.000802936
0.000832522
0.00142739
0.00075014
0.00271821
0.00748948
0.00300536
0.00475992
0.00594883
0.0063014
0.00642925
0.00643405
0.0063702
0.00631388
0.00639533
0.00671371
0.00729756
0.00812424
0.00908338
0.00996743
0.0105292
0.0105242
0.00944669
0.009614
0.00983502
0.00986538
0.00966372
0.00904388
0.00719605
0.00621539
0.00554389
0.00499772
0.00446277
0.00394487
0.00343823
0.00293221
0.00241229
0.00185282
0.00141367
0.00141312
0.00111746
0.00089476
0.00118886
0.00113225
0.0031011
0.0095394
0.00353761
0.00401405
0.00569973
0.00609068
0.00605891
0.0058405
0.00552862
0.00527161
0.00526614
0.00559942
0.00626421
0.00722216
0.00834432
0.00946613
0.0104223
0.0110341
0.0111467
0.011036
0.0108405
0.0105623
0.0102046
0.00974956
0.009086
0.00844714
0.00786736
0.00730631
0.0067012
0.00605544
0.00536587
0.0046265
0.00383267
0.00299039
0.00222749
0.00167243
0.00129794
0.00146655
0.00255904
0.00135167
0.00349182
0.0114346
0.00471356
0.00328832
0.00512159
0.00576108
0.0056893
0.00533589
0.00482371
0.0043734
0.00436054
0.0047809
0.00554118
0.00661112
0.00783025
0.00903818
0.010079
0.0108255
0.0111698
0.0111444
0.0108999
0.0105289
0.0101039
0.00967981
0.00926973
0.00889362
0.00854041
0.0081629
0.00770738
0.00715939
0.00651074
0.00575831
0.00490521
0.00397327
0.00306185
0.00221114
0.00162733
0.00146308
0.00260217
0.0015977
0.00382756
0.0128677
0.00642575
0.00313026
0.00405778
0.00510797
0.00525327
0.00496235
0.00435817
0.00374456
0.00388353
0.00443917
0.00528893
0.00639127
0.0076568
0.00892106
0.0100008
0.0107519
0.0110939
0.0110506
0.0107348
0.0102685
0.00976681
0.00932189
0.00897891
0.00873393
0.00854293
0.00833491
0.00804561
0.00764079
0.00710444
0.00643348
0.00563478
0.00473243
0.00379381
0.00284024
0.00198188
0.00132488
0.00385139
0.00210997
0.00392887
0.012174
0.00794906
0.00404517
0.00275
0.00337219
0.00394531
0.0039923
0.00352481
0.00342541
0.00378113
0.00443416
0.00535264
0.00652156
0.00784796
0.00915115
0.0102268
0.0109195
0.0111633
0.0109969
0.0105386
0.00993758
0.00934147
0.00886598
0.00856415
0.00841604
0.00834906
0.00826931
0.00810323
0.00781102
0.00737688
0.00679937
0.00608654
0.00525813
0.00434833
0.0033236
0.00193301
0.00164688
0.00608573
0.00236536
0.0038495
0.00981229
0.00820727
0.00555138
0.00366623
0.00283943
0.00269068
0.00281788
0.00305392
0.00343044
0.00396482
0.00469975
0.00569901
0.00696006
0.00835946
0.0096814
0.0107004
0.0112613
0.0113192
0.0109418
0.0102788
0.00951671
0.00883718
0.00837177
0.00815843
0.00813365
0.00818034
0.00817983
0.00807279
0.00783654
0.00746356
0.00695386
0.00631253
0.00554462
0.004622
0.0033271
0.00154426
0.00274651
0.00602099
0.00242974
0.00360601
0.00838554
0.007934
0.00635181
0.00488848
0.00393555
0.00346456
0.00335845
0.00355406
0.00391406
0.0044369
0.00521324
0.00631802
0.00770244
0.00917466
0.010469
0.0113461
0.01167
0.0114369
0.0107635
0.00985218
0.00894156
0.00825048
0.00790333
0.00786306
0.00797767
0.00809395
0.00809607
0.00798347
0.00775473
0.00740536
0.0069315
0.00632731
0.00555871
0.00446961
0.00282684
0.00163609
0.0031868
0.006561
0.00245567
0.00328346
0.00755988
0.00765237
0.00672263
0.0057192
0.00496359
0.00451865
0.00435908
0.00439997
0.00461817
0.00509911
0.00596786
0.00724765
0.00878395
0.0102895
0.0114538
0.0120497
0.0119928
0.0113502
0.0103115
0.00915843
0.00819678
0.00765131
0.00754069
0.00763693
0.00779144
0.00789243
0.00786498
0.00773381
0.00750102
0.00715974
0.00669856
0.006083
0.00518542
0.00367879
0.00201889
0.00197277
0.00377582
0.00656477
0.0024702
0.00299385
0.00676112
0.00730552
0.00686672
0.00622313
0.00568217
0.00532232
0.00514689
0.00509587
0.00528313
0.00589484
0.00703249
0.00858473
0.0102512
0.0116604
0.0125014
0.0126126
0.0120053
0.0108543
0.0094499
0.00818492
0.00736984
0.00700612
0.00696
0.00707029
0.00722002
0.00731484
0.00728795
0.00715475
0.00691619
0.00656426
0.00607408
0.00534756
0.00408617
0.00236865
0.0017749
0.00252737
0.00409736
0.00585292
0.00236035
0.00300346
0.00671084
0.00746323
0.00694864
0.00642796
0.00600148
0.00569414
0.00549623
0.00549056
0.00594404
0.00702427
0.00863941
0.0104636
0.0120756
0.0131012
0.0133193
0.012707
0.0114104
0.00976411
0.00817318
0.00701549
0.00632359
0.00599493
0.00592362
0.00600823
0.00614699
0.00624315
0.00621623
0.00606702
0.00579837
0.00540979
0.00488134
0.00411576
0.00296037
0.00192661
0.0019596
0.00292032
0.0041988
0.00505887
0.00226515
0.00270962
0.00282028
0.00416515
0.00489708
0.00512477
0.00513026
0.00508301
0.00518078
0.00581238
0.00715679
0.00904952
0.0110946
0.0128461
0.0139305
0.0141254
0.0133863
0.011896
0.00994549
0.00808613
0.00662339
0.00563066
0.00505557
0.00479298
0.00472305
0.00475589
0.00481761
0.00483285
0.00473596
0.00451296
0.00418693
0.00379122
0.00335906
0.00289398
0.00237759
0.00198281
0.00216696
0.00309773
0.00437594
0.00566978
0.00228949
0.000964334
0.00173937
0.0026704
0.00341859
0.00428764
0.00575637
0.00791593
0.0103118
0.0124937
0.0141272
0.0149832
0.0149092
0.0139037
0.0120698
0.009886
0.00781207
0.00615629
0.00503791
0.00441691
0.00411092
0.00396301
0.00388808
0.00383918
0.003777
0.00366257
0.00347456
0.00322444
0.00295944
0.00272841
0.00255986
0.00245261
0.00239287
0.00240486
0.00264489
0.00341194
0.00493613
0.00590233
0.00245947
0.00178743
0.00247449
0.00360389
0.00561599
0.00833642
0.0110538
0.0131488
0.0146587
0.0155755
0.0158372
0.0153255
0.0139189
0.0118266
0.00944347
0.00723851
0.00556656
0.00456524
0.0040661
0.00382798
0.00370836
0.00364397
0.003602
0.00355707
0.00348589
0.00337442
0.00323075
0.00308656
0.00297634
0.00292101
0.00292242
0.00297134
0.00306597
0.00323402
0.00355844
0.00424183
0.00595928
0.00638209
0.00251478
0.00323758
0.00786228
0.00726117
0.00650777
0.00826097
0.0109891
0.0132799
0.0148188
0.0156267
0.0158244
0.0155143
0.0146506
0.0131785
0.0111485
0.00882312
0.00666752
0.00516453
0.004358
0.00397762
0.00380122
0.00372789
0.0037147
0.00373471
0.00376291
0.0037762
0.00375998
0.00371578
0.00366167
0.0036217
0.00360956
0.00362981
0.00368186
0.00376627
0.00389579
0.00410831
0.00448096
0.00517699
0.00690228
0.00717619
0.00254658
0.00309519
0.00598484
0.00774179
0.00990542
0.0109927
0.0121058
0.0127471
0.0128938
0.0126407
0.0120562
0.0111672
0.00998095
0.00854436
0.00701589
0.00565828
0.00464792
0.00402124
0.00366594
0.00347881
0.00340598
0.0034194
0.00349615
0.00361004
0.00373174
0.00383459
0.00390337
0.00394075
0.00396453
0.00399568
0.00404318
0.00410871
0.00419071
0.00429159
0.00442558
0.00461868
0.00489819
0.00532229
0.00634135
0.00752076
0.00253958
0.00289541
0.0024808
0.00246841
0.00253995
0.00259875
0.00251991
0.00236903
0.00219486
0.0020221
0.00185908
0.00170647
0.00156462
0.00143841
0.00133762
0.00127193
0.00124242
0.0012342
0.00123991
0.00125496
0.00127593
0.00130001
0.001325
0.00134945
0.00137267
0.00139476
0.00141646
0.001439
0.00146377
0.00149201
0.0015248
0.00156353
0.00161064
0.00167048
0.0017496
0.00185525
0.00199183
0.00215763
0.00234456
0.00253564
0.00236201
)
;

boundaryField
{
    floor
    {
        type            compressible::alphatWallFunction;
        Prt             0.85;
        value           nonuniform List<scalar> 
36
(
0.000219902
0.0001045
0.000149914
0.00015111
0.000147504
0.000141452
0.000133325
0.000125166
0.000117591
0.000110709
0.000104495
9.8922e-05
9.38858e-05
8.92714e-05
8.49399e-05
8.07001e-05
7.62395e-05
7.25142e-05
6.49291e-05
6.49283e-05
8.41311e-05
9.63612e-05
0.000106416
0.000127254
0.000168469
0.000160648
0.0002199
0.000239698
0.00022909
0.000219744
0.000104499
0.000219742
0.000186252
0.000266678
0.000232725
0.000265713
)
;
    }
    ceiling
    {
        type            compressible::alphatWallFunction;
        Prt             0.85;
        value           nonuniform List<scalar> 
43
(
0.000391262
0.000338919
0.000337347
0.000346451
0.000353921
0.000343946
0.000324733
0.000302378
0.000280009
0.000258712
0.000238593
0.000219719
0.000202771
0.000189114
0.000180136
0.000176082
0.000174945
0.00017572
0.00017778
0.000180656
0.000183957
0.000187382
0.000190727
0.0001939
0.000196912
0.000199863
0.000202919
0.000206266
0.000210071
0.000214475
0.00021965
0.000225909
0.000233807
0.000244181
0.000257966
0.000275709
0.000297139
0.000321139
0.000345491
0.000323423
0.000368237
0.000382147
0.000248623
)
;
    }
    sWall
    {
        type            compressible::alphatWallFunction;
        Prt             0.85;
        value           nonuniform List<scalar> 9(0.000507608 0.000477905 0.000438242 0.000402293 0.000403482 0.000366662 0.000431934 0.000414327 0.000389511);
    }
    nWall
    {
        type            compressible::alphatWallFunction;
        Prt             0.85;
        value           nonuniform List<scalar> 
14
(
0.0001602
0.000190325
0.000223442
0.000331845
0.000335089
0.000336473
0.000322639
0.000310625
0.000314142
0.000335647
0.000342634
0.000346316
0.000345168
0.000322736
)
;
    }
    sideWalls
    {
        type            empty;
    }
    glass1
    {
        type            compressible::alphatWallFunction;
        Prt             0.85;
        value           nonuniform List<scalar> 9(0.000143924 0.000209129 0.000262682 0.000313285 0.000362353 0.00040997 0.000457974 0.000498831 0.000511207);
    }
    glass2
    {
        type            compressible::alphatWallFunction;
        Prt             0.85;
        value           nonuniform List<scalar> 2(0.000288482 0.000321266);
    }
    sun
    {
        type            compressible::alphatWallFunction;
        Prt             0.85;
        value           nonuniform List<scalar> 
14
(
0.000147958
0.000157643
0.000157089
0.000163761
0.000169848
0.000175355
0.000180465
0.000185375
0.000190303
0.000195523
0.000200485
0.000205185
0.000209801
0.000214752
)
;
    }
    Table_master
    {
        type            compressible::alphatWallFunction;
        Prt             0.85;
        value           nonuniform List<scalar> 9(0.000190994 0.000166816 0.00014789 0.000132886 0.000120802 0.000110944 0.000102825 9.61633e-05 9.09306e-05);
    }
    Table_slave
    {
        type            compressible::alphatWallFunction;
        Prt             0.85;
        value           nonuniform List<scalar> 9(0.000216361 0.000197583 0.000182908 0.000170607 0.000160042 0.000150485 0.000141408 0.000132323 0.000122425);
    }
    inlet
    {
        type            fixedValue;
        value           uniform 1.94e-05;
    }
    outlet
    {
        type            zeroGradient;
    }
}


// ************************************************************************* //
