/*--------------------------------*- C++ -*----------------------------------*\
  =========                 |
  \\      /  F ield         | OpenFOAM: The Open Source CFD Toolbox
   \\    /   O peration     | Website:  https://openfoam.org
    \\  /    A nd           | Version:  6
     \\/     M anipulation  |
\*---------------------------------------------------------------------------*/
FoamFile
{
    version     2.0;
    format      ascii;
    class       volScalarField;
    location    "1700";
    object      nut;
}
// * * * * * * * * * * * * * * * * * * * * * * * * * * * * * * * * * * * * * //

dimensions      [0 2 -1 0 0 0 0];

internalField   nonuniform List<scalar> 
778
(
0.000860818
0.000914046
0.00125034
0.000915221
0.00226537
0.00158461
0.000953376
0.00191362
0.00315519
0.00191382
0.000987286
0.00215162
0.00224288
0.0043187
0.00224559
0.0010174
0.0023165
0.0030733
0.00213845
0.00585257
0.00257808
0.00104486
0.0024934
0.00336687
0.00348292
0.00214904
0.00763328
0.00292191
0.00107079
0.00266884
0.00363062
0.00389512
0.00337791
0.0025794
0.00932971
0.00323048
0.00109638
0.0028286
0.00386984
0.00413621
0.00401952
0.0028908
0.00358608
0.0106512
0.00333402
0.00112301
0.00295524
0.00407622
0.00430923
0.00420432
0.00390003
0.00236065
0.00512201
0.0102696
0.00328307
0.0011497
0.00302841
0.0042443
0.00442197
0.00426056
0.00408693
0.00358615
0.00226914
0.00655423
0.00833838
0.00309373
0.00117628
0.00306423
0.00436636
0.00448587
0.00422725
0.00404615
0.00392388
0.00290402
0.00313024
0.00687953
0.00713514
0.00283004
0.00120428
0.00304075
0.00446508
0.00451835
0.00413433
0.0038855
0.00386467
0.00356996
0.00196913
0.00451941
0.00669348
0.0064124
0.0025832
0.00123643
0.00291562
0.0045773
0.00456538
0.00403243
0.00365063
0.00364976
0.00365744
0.00233329
0.0028732
0.0052813
0.00646492
0.00571414
0.0025814
0.00127222
0.00260761
0.00469926
0.00469954
0.00399968
0.00342945
0.00332649
0.00350927
0.00275786
0.00213869
0.00399568
0.0056414
0.00616421
0.00567667
0.00233327
0.00203111
0.00480454
0.00494633
0.0041079
0.00334828
0.0029861
0.0031744
0.00284994
0.00196524
0.0031618
0.00476231
0.00578002
0.00625204
0.00242187
0.00138948
0.00481949
0.0053102
0.00438193
0.00346083
0.0028911
0.002673
0.00257431
0.00203633
0.00274157
0.00410228
0.00522047
0.00579336
0.00238958
0.00134901
0.00451503
0.00573751
0.00483192
0.00375515
0.00305871
0.00267904
0.00246743
0.00223517
0.00263239
0.00371012
0.00474872
0.00533421
0.00297341
0.00019271
0.00131905
0.00343312
0.0060387
0.00543426
0.00423175
0.00339249
0.00293566
0.00266712
0.00252831
0.00277678
0.00355792
0.00442946
0.00495313
0.00331569
9.9784e-05
0.00271082
0.00157235
0.00581667
0.00610975
0.00487452
0.00389899
0.00331002
0.00298912
0.00285653
0.00300859
0.00355268
0.00425126
0.00465962
0.00342424
0.000124096
0.000417733
0.00257746
0.00450859
0.00673993
0.00565108
0.00456308
0.00381177
0.00338406
0.00319018
0.0032422
0.00358688
0.00408616
0.00437291
0.00337051
0.000217133
0.000277754
0.00103512
0.00400629
0.0045623
0.00159644
0.00718294
0.00650659
0.00537088
0.00448737
0.00390675
0.00358374
0.00349507
0.00364085
0.00391583
0.00400321
0.00306584
0.000281211
0.00043752
0.0024881
0.00554628
0.00243738
0.00394589
0.00183789
0.00382264
0.00695199
0.00725495
0.00623339
0.00531984
0.00461846
0.00414139
0.00387815
0.00381116
0.00385019
0.00372978
0.00282675
0.000539442
0.0015989
0.00583889
0.00672523
0.00188522
0.0023768
0.00191612
0.00142323
0.00549747
0.00717872
0.00768563
0.00701595
0.00620537
0.00549512
0.00492219
0.00450909
0.00425162
0.0040862
0.00382109
0.00305992
0.00157714
0.00431144
0.00857319
0.00819003
0.00193549
0.00232316
0.00117279
0.00316264
0.00628847
0.00741955
0.00781847
0.00755411
0.00699036
0.00640994
0.00586755
0.00540374
0.00504259
0.00476377
0.00447027
0.00399621
0.00356614
0.00721396
0.0102764
0.00909081
0.00191628
0.00084003
0.00205826
0.00433711
0.00648011
0.00751233
0.00783907
0.0077825
0.00752867
0.00718788
0.00681057
0.00643438
0.00610177
0.0058385
0.00564133
0.00553353
0.00597535
0.00931285
0.0111316
0.00940762
0.0018318
0.000903096
0.00281213
0.00483543
0.00561993
0.00743267
0.00775929
0.0077938
0.00775905
0.00768286
0.00755242
0.00737899
0.00720224
0.00707403
0.00705678
0.00727646
0.00815472
0.0105363
0.0114324
0.00929504
0.00171665
0.000916647
0.00321
0.00438967
0.00134097
0.00706449
0.00759152
0.00765494
0.00772537
0.00783959
0.00794817
0.0080202
0.00806951
0.00814529
0.00832647
0.00874749
0.00965251
0.0110528
0.0112491
0.00888063
0.00159884
0.000902372
0.00320338
0.0011873
0.00122806
0.00579465
0.00734406
0.00743176
0.00751107
0.00770172
0.0079599
0.00823046
0.00849299
0.0087686
0.00910979
0.00959366
0.0102548
0.0109023
0.0105947
0.0082252
0.00149036
0.000871063
0.00255263
0.0010396
0.00114032
0.00507767
0.00695518
0.00718684
0.00721633
0.00737536
0.00765823
0.00801197
0.00839606
0.00879525
0.00921706
0.00965021
0.00999904
0.00999568
0.00950498
0.00737651
0.00139275
0.000826237
0.00219605
0.000924712
0.00106671
0.00457121
0.00656584
0.00695237
0.00693503
0.00699265
0.00718847
0.00748962
0.0078555
0.00825248
0.00863871
0.00895425
0.0090096
0.00862478
0.00809987
0.00642303
0.00130726
0.000780419
0.001948
0.000834146
0.00100356
0.00415586
0.00620283
0.00674873
0.00672586
0.00667299
0.00672377
0.00687268
0.00708916
0.00734243
0.0075837
0.00771399
0.00760343
0.0071194
0.00664461
0.00552077
0.00123761
0.000737586
0.00175889
0.000761595
0.000946472
0.00373025
0.00584146
0.00656715
0.00660018
0.00648417
0.00640827
0.00639091
0.00640773
0.00644003
0.00646919
0.00641779
0.00621686
0.00575003
0.00542392
0.00482588
0.00118728
0.000698548
0.00160705
0.00070271
0.000892274
0.00330961
0.00542187
0.00636982
0.00652816
0.00642402
0.00629769
0.00619345
0.00608532
0.00591427
0.00567586
0.00541031
0.00509484
0.00469954
0.00459584
0.00436732
0.00115566
0.000663306
0.00147653
0.000654468
0.000838013
0.00289485
0.00494729
0.00610244
0.00645412
0.00643646
0.00634199
0.00624951
0.00610865
0.00575241
0.00525105
0.00473025
0.00430656
0.00404399
0.00412802
0.00405235
0.00113868
0.000631617
0.00136048
0.00061514
0.000778817
0.00247974
0.00441765
0.00574271
0.00631677
0.0064448
0.00643552
0.00640393
0.00624925
0.0057931
0.00506105
0.00431628
0.0038368
0.00368416
0.00385668
0.00381495
0.00113352
0.000602888
0.00125133
0.00058454
0.000727547
0.00205236
0.00383153
0.00527763
0.00607581
0.00638275
0.00647605
0.00651989
0.00638377
0.00589243
0.00501594
0.00410054
0.00357116
0.00347214
0.00366372
0.00361426
0.00113385
0.000576479
0.00114322
0.000645009
0.000751432
0.00158944
0.00318856
0.00470291
0.00570852
0.00621164
0.00642252
0.00651239
0.00644247
0.00598215
0.00505506
0.00400694
0.00340458
0.00332111
0.00350364
0.00343613
0.00113847
0.000551588
0.001046
0.000760383
0.00124845
0.00122569
0.0024974
0.0040231
0.00520686
0.00591197
0.00626241
0.00641293
0.00638326
0.00601597
0.00512355
0.0039828
0.00328429
0.00319959
0.00336915
0.00328506
0.00114821
0.000527102
0.000962216
0.00117055
0.000664922
0.00124501
0.0018709
0.00326259
0.00457539
0.00547662
0.00598658
0.00622884
0.0062512
0.00595605
0.00516606
0.00399321
0.00319006
0.00309919
0.00326587
0.00317328
0.0011641
0.000501114
0.00106329
0.000607194
0.000965776
0.00145141
0.00251657
0.00383923
0.004909
0.00558861
0.00595057
0.00605085
0.00582358
0.00512604
0.00399764
0.00311157
0.00301669
0.0031996
0.00311348
0.00118651
0.000477693
0.000538128
0.000775077
0.00112927
0.00185921
0.00307027
0.00422907
0.00506835
0.00556678
0.00576973
0.00561966
0.0049953
0.00393624
0.00303283
0.00294646
0.00317043
0.003114
0.00121471
0.000431727
0.00100139
0.00123891
0.00139475
0.00232486
0.00348415
0.00443585
0.00507059
0.00539188
0.00533136
0.00477317
0.00377126
0.00292294
0.00287671
0.00317015
0.00317494
0.00124696
0.000966618
0.00214029
0.00126449
0.00168155
0.00269419
0.00369498
0.0044536
0.0049009
0.00494207
0.00444776
0.00350359
0.00274798
0.00278792
0.00318155
0.00328489
0.00128114
0.00116171
0.00218602
0.00115422
0.00169923
0.00269074
0.00362007
0.00424512
0.00442912
0.00401451
0.0031398
0.00251536
0.00266793
0.00317962
0.00341853
0.00131543
0.00136571
0.00310655
0.00136256
0.00134311
0.00219882
0.00309793
0.00370594
0.00348214
0.0027237
0.00226063
0.00253195
0.00315152
0.003536
0.00134883
0.00177435
0.00468914
0.00229683
0.00139027
0.0015515
0.00250012
0.00285162
0.00233087
0.00204954
0.00241236
0.00312225
0.00360192
0.0013815
0.00202385
0.00485212
0.00290294
0.00176547
0.00147448
0.00210258
0.002028
0.00194181
0.00235404
0.00311437
0.00364966
0.00141437
0.00206621
0.00466275
0.00320704
0.00198736
0.00156994
0.0018433
0.00195886
0.00239319
0.00314857
0.00370986
0.00144772
0.00205023
0.00434233
0.00337405
0.00207397
0.00183215
0.00209969
0.00253947
0.00324109
0.00380112
0.00148399
0.00199226
0.0043652
0.00353815
0.00234633
0.00239774
0.00278734
0.00339562
0.00393318
0.00152557
0.00195046
0.00479158
0.00399159
0.00302713
0.00315256
0.00359864
0.00410887
0.00157411
0.00203094
0.00480358
0.00468745
0.00371539
0.00382384
0.0043258
0.0016303
0.00211661
0.00507656
0.00477348
0.00403577
0.00457507
0.00169329
0.0021458
0.00536656
0.00417883
0.00483194
0.00175984
0.00209578
0.00413757
0.00505466
0.00182544
0.00202371
0.00469522
0.00189679
0.00207462
0.00200475
0.00200782
)
;

boundaryField
{
    floor
    {
        type            nutkWallFunction;
        Cmu             0.09;
        kappa           0.41;
        E               9.8;
        value           nonuniform List<scalar> 
36
(
0.000152284
0.000101713
0.000109251
0.000110863
0.000109165
0.000105431
0.000100056
9.45277e-05
8.93246e-05
8.45511e-05
8.02143e-05
7.6291e-05
7.27136e-05
6.94066e-05
6.62728e-05
6.31729e-05
5.98633e-05
5.68622e-05
5.09173e-05
5.09173e-05
6.45703e-05
7.32504e-05
8.04135e-05
9.38804e-05
0.000120871
0.000116783
0.000152284
0.000165638
0.000161043
0.000157632
0.000101713
0.000157632
0.000140851
0.000186219
0.000169456
0.000188909
)
;
    }
    ceiling
    {
        type            nutkWallFunction;
        Cmu             0.09;
        kappa           0.41;
        E               9.8;
        value           nonuniform List<scalar> 
43
(
0.000268258
0.000224196
0.00021562
0.000220817
0.000226323
0.000224232
0.000214974
0.000202269
0.000189167
0.000177004
0.000165974
0.000156245
0.000148273
0.000142489
0.00013885
0.000136899
0.000136308
0.000136351
0.000136885
0.000138005
0.000139832
0.00014241
0.000145655
0.000149366
0.000153296
0.000157234
0.000161061
0.000164792
0.000168537
0.000172321
0.000176416
0.000181093
0.000186538
0.000192821
0.000199846
0.000207249
0.000214519
0.000222338
0.000234032
0.0002345
0.000269518
0.000278989
0.000308996
)
;
    }
    sWall
    {
        type            nutkWallFunction;
        Cmu             0.09;
        kappa           0.41;
        E               9.8;
        value           nonuniform List<scalar> 9(0.00036958 0.000349919 0.00032233 0.000296265 0.000296071 0.000269607 0.000280506 0.000274062 0.000268355);
    }
    nWall
    {
        type            nutkWallFunction;
        Cmu             0.09;
        kappa           0.41;
        E               9.8;
        value           nonuniform List<scalar> 
14
(
0.00011679
0.000139589
0.000162962
0.000240627
0.000238861
0.000232544
0.000228061
0.00023711
0.000246167
0.000249312
0.000243607
0.000235979
0.000241931
0.000234536
)
;
    }
    sideWalls
    {
        type            empty;
    }
    glass1
    {
        type            nutkWallFunction;
        Cmu             0.09;
        kappa           0.41;
        E               9.8;
        value           nonuniform List<scalar> 9(0.000104235 0.000149949 0.000187865 0.000224343 0.000260419 0.000296006 0.000332302 0.0003645 0.000375242);
    }
    glass2
    {
        type            nutkWallFunction;
        Cmu             0.09;
        kappa           0.41;
        E               9.8;
        value           nonuniform List<scalar> 2(0.000208782 0.000236177);
    }
    sun
    {
        type            nutkWallFunction;
        Cmu             0.09;
        kappa           0.41;
        E               9.8;
        value           nonuniform List<scalar> 
14
(
0.000104206
0.000110554
0.000110694
0.000115217
0.00011922
0.000122762
0.00012598
0.00012901
0.000131993
0.000135088
0.000138182
0.000141255
0.000144485
0.000148181
)
;
    }
    Table_master
    {
        type            nutkWallFunction;
        Cmu             0.09;
        kappa           0.41;
        E               9.8;
        value           nonuniform List<scalar> 9(0.000142518 0.000125357 0.000111817 0.000101006 9.22461e-05 8.50641e-05 7.91269e-05 7.42478e-05 7.04254e-05);
    }
    Table_slave
    {
        type            nutkWallFunction;
        Cmu             0.09;
        kappa           0.41;
        E               9.8;
        value           nonuniform List<scalar> 9(0.000160117 0.000147209 0.000137087 0.000128526 0.000121128 0.000114395 0.000107959 0.00010147 9.43341e-05);
    }
    inlet
    {
        type            calculated;
        value           uniform 0.000528271;
    }
    outlet
    {
        type            calculated;
        value           nonuniform List<scalar> 2(0.00243738 0.00400629);
    }
}


// ************************************************************************* //
