/*--------------------------------*- C++ -*----------------------------------*\
  =========                 |
  \\      /  F ield         | OpenFOAM: The Open Source CFD Toolbox
   \\    /   O peration     | Website:  https://openfoam.org
    \\  /    A nd           | Version:  6
     \\/     M anipulation  |
\*---------------------------------------------------------------------------*/
FoamFile
{
    version     2.0;
    format      ascii;
    class       surfaceScalarField;
    location    "1700";
    object      phi;
}
// * * * * * * * * * * * * * * * * * * * * * * * * * * * * * * * * * * * * * //

dimensions      [1 0 -1 0 0 0 0];

internalField   nonuniform List<scalar> 
1482
(
-0.00277709
0.00284155
-0.00341883
0.000641755
-0.00405063
0.000631812
-0.00464363
0.000593012
-0.00514934
0.000505732
-0.00555018
0.000400851
-0.0058346
0.000284437
-0.00598959
0.000155003
-0.00599812
8.53831e-06
-0.00583484
-0.000163261
-0.00547035
-0.000364477
-0.00487403
-0.000596308
-0.00397622
-0.000897797
-0.00253219
-0.00144401
-0.00252917
-1.25103e-05
1.75319e-05
0.000791286
-0.000803783
0.00140027
-0.000608976
0.00177035
-0.000370063
0.00197354
-0.000203178
0.00206592
-9.2367e-05
0.00210453
-3.85976e-05
0.00212027
-1.57252e-05
0.00212413
-3.85414e-06
0.00212025
3.88895e-06
0.00210954
1.07299e-05
0.00208841
2.11338e-05
0.00204474
4.36822e-05
0.00194793
9.68298e-05
0.00174713
0.000200808
0.00141991
0.000327232
0.000995682
0.000424238
0.00100237
-0.00202558
0.00503825
-0.00287116
0.00148734
-0.00363615
0.00139682
-0.00426994
0.00122681
-0.00479438
0.00103019
-0.00521431
0.000820797
-0.00552768
0.000597819
-0.0057277
0.000355036
-0.005804
8.4843e-05
-0.005749
-0.000218248
-0.00555712
-0.00055634
-0.00521673
-0.000936688
-0.00472496
-0.00138955
-0.00425436
-0.00191459
-0.00466658
-0.00211694
-0.00309643
-0.00156454
-0.00160939
-0.00148119
-0.00159417
0.00128911
-0.00126123
0.00160055
-0.00111521
0.00182278
-0.000831196
0.00199444
-0.000541713
0.00209231
-0.000301036
0.00209945
-9.94922e-05
0.00210018
-3.93194e-05
0.00210068
-1.62103e-05
0.0021006
-3.76527e-06
0.00209968
4.82023e-06
0.00209771
1.27202e-05
0.00209337
2.54828e-05
0.00208152
5.55398e-05
0.00202388
0.000154484
0.00179097
0.000433729
0.00139015
0.00072806
0.000867621
0.000946782
0.00188738
-0.00148126
0.00677829
-0.00234355
0.00234965
-0.0030995
0.00215278
-0.00367184
0.00179917
-0.00413402
0.00149238
-0.00450011
0.0011869
-0.00477176
0.000869481
-0.0049459
0.000529193
-0.00501658
0.00015553
-0.00497537
-0.000259446
-0.00481195
-0.000719747
-0.00451909
-0.00122954
-0.00412661
-0.00178202
-0.00375136
-0.00228982
-0.00334761
-0.00252068
-0.00243393
-0.00247821
-0.00134198
-0.00257312
-0.00292296
0.000999682
-0.00224619
0.0014809
-0.00159642
0.00177762
-0.0011279
0.0019694
-0.000733484
0.00200609
-0.000337711
0.00190676
0.00186761
0.00185156
0.00184796
0.00185295
0.00186584
0.00189148
0.00194719
0.00210184
0.00176372
0.000771863
0.00133905
0.00115274
0.000755912
0.00152993
0.00266996
-0.00110435
0.0082146
-0.00192756
0.00317288
-0.0025627
0.00278793
-0.00301771
0.00225419
-0.00338196
0.00185665
-0.00366944
0.00147438
-0.00388311
0.00108317
-0.00402143
0.00066752
-0.00407765
0.000211764
-0.00403963
-0.000297453
-0.00389546
-0.0008639
-0.0036418
-0.00148319
-0.00330127
-0.00212253
-0.00290847
-0.00268261
-0.00239708
-0.00303205
-0.00170757
-0.0031677
-0.00105576
-0.00322492
-0.000954805
-0.0030239
0.00113344
-0.00207249
0.00112963
-0.00224237
0.00146148
-0.00192826
0.00178313
-0.00144953
0.00205323
-0.00100357
0.00232584
-0.000610311
0.00263368
-0.000307986
0.00280215
-0.000168611
0.00287277
-7.0768e-05
0.00286512
7.50802e-06
0.00278792
7.70563e-05
0.00264218
0.000145603
0.00242041
0.000221621
0.0021008
0.000319471
0.00162939
0.000471261
0.0014998
0.000901462
0.00118293
0.00146962
0.000665582
0.00204729
0.00337056
-0.000805193
0.00941361
-0.00158904
0.00395674
-0.00205877
0.00325767
-0.00237576
0.00257119
-0.00262219
0.00210309
-0.00281094
0.00166315
-0.00294704
0.00121928
-0.00303133
0.000751823
-0.00305827
0.000238717
-0.00301307
-0.000342647
-0.00288164
-0.00099531
-0.00265827
-0.00170655
-0.00234961
-0.00243117
-0.0019636
-0.0030686
-0.00148519
-0.00351044
-0.000938649
-0.00371422
-0.000441982
-0.00372157
1.63317e-05
-0.0034822
0.000865588
-0.00292173
0.00123733
-0.0026141
0.00151263
-0.00220355
0.00177736
-0.00171426
0.00201548
-0.00124167
0.0022339
-0.000828729
0.00243637
-0.000510445
0.00255128
-0.000283507
0.00259551
-0.000114984
0.00258058
2.24477e-05
0.00251265
0.000144996
0.00239418
0.000264084
0.00222395
0.000391859
0.00199941
0.000544022
0.00172722
0.000743454
0.00153488
0.00109382
0.00139868
0.00160584
0.00120197
0.00224401
0.00215393
0.00241862
0.0013017
0.000887441
0.00191405
-0.000583489
0.00203334
-0.000579319
0.0104399
-0.0013402
0.00471764
-0.00160852
0.003526
-0.00178086
0.00274354
-0.00190105
0.0022233
-0.00197961
0.00174172
-0.0020229
0.00126258
-0.00203491
0.00076385
-0.00201394
0.000217757
-0.00194308
-0.000413501
-0.00180637
-0.001132
-0.00159657
-0.00191633
-0.00131463
-0.0027131
-0.00096924
-0.00341397
-0.000569935
-0.00390972
-0.000150307
-0.00413383
0.000237482
-0.00410934
0.000600319
-0.00384502
0.00105193
-0.00337333
0.00135696
-0.00291912
0.00157516
-0.00242174
0.00176108
-0.00190017
0.0019243
-0.00140488
0.00206722
-0.000971644
0.00217848
-0.000621697
0.00224383
-0.000348847
0.00226395
-0.000135091
0.00224423
4.21749e-05
0.00218931
0.000199925
0.00210284
0.000350566
0.00198868
0.00050603
0.00185346
0.000679247
0.00171072
0.000886209
0.00163217
0.00117238
0.00169533
0.00154268
0.00190802
0.00203133
0.00214116
0.00218549
0.0016754
0.00135322
0.00078313
0.000308789
0.00291453
-0.000550577
0.0114833
-0.00126527
0.00543235
-0.00122749
0.00348823
-0.00124521
0.00276127
-0.00124591
0.00222401
-0.00122183
0.00171765
-0.00117479
0.00121555
-0.00110907
0.000698146
-0.00102223
0.000130922
-0.000897809
-0.000537908
-0.000728356
-0.00130144
-0.000511156
-0.00213352
-0.000249693
-0.00297455
4.04962e-05
-0.00370414
0.000338554
-0.00420776
0.000624852
-0.00442011
0.000879828
-0.0043643
0.00111014
-0.00407531
0.00134847
-0.00361164
0.00151944
-0.00309007
0.0016353
-0.00253758
0.0017215
-0.00198636
0.00179119
-0.00147456
0.001849
-0.00102944
0.0018903
-0.000662993
0.00191096
-0.000369494
0.00190873
-0.000132854
0.00188469
6.62265e-05
0.00184176
0.000242861
0.0017836
0.000408734
0.00171535
0.000574289
0.00164545
0.000749153
0.0015887
0.000942975
0.00158638
0.00117471
0.00168159
0.00144748
0.0018993
0.00181362
0.00214994
0.00193486
0.00215534
0.00134783
0.00162496
0.000839182
0.00464305
-0.000492658
0.0125122
-0.00107778
0.00601748
-0.000741384
0.00315185
-0.000691881
0.00271178
-0.000632757
0.0021649
-0.00053954
0.00162445
-0.000424432
0.00110045
-0.000291197
0.000564923
-0.000119816
-4.04481e-05
8.33063e-05
-0.00074102
0.000303333
-0.00152146
0.000540012
-0.00237019
0.000780607
-0.00321513
0.0010044
-0.00392792
0.00119626
-0.0043996
0.00135593
-0.00457976
0.00147617
-0.00448452
0.00156254
-0.00416165
0.0016286
-0.00367768
0.00165513
-0.00311658
0.00164897
-0.00253142
0.00162634
-0.00196372
0.00160019
-0.0014484
0.00157749
-0.00100673
0.00155862
-0.000644113
0.00154081
-0.000351674
0.00152035
-0.000112387
0.00149533
9.12514e-05
0.00146597
0.000272228
0.00143374
0.000440978
0.00140204
0.000605995
0.00137748
0.000773722
0.00137145
0.000949008
0.00140711
0.00113905
0.00151089
0.00134371
0.00173059
0.00159394
0.00200654
0.00165892
0.00210096
0.00125343
0.00165064
0.00128952
0.00666341
0.00298061
0.0101198
0.00201273
0.00698537
0.000833239
0.00433135
0.00030935
0.00323568
0.000135582
0.00233868
0.000180082
0.00157996
0.00032017
0.000960374
0.000516781
0.000368324
0.000755632
-0.00027929
0.0010079
-0.00099328
0.00126554
-0.00177909
0.00151576
-0.0026204
0.00173194
-0.00343129
0.00189151
-0.00408748
0.00198428
-0.00449235
0.00201384
-0.00460931
0.00198809
-0.00445875
0.00192024
-0.00409378
0.00182515
-0.00358258
0.00170682
-0.00299824
0.00157588
-0.00240047
0.001447
-0.00183483
0.00133343
-0.00133482
0.00124316
-0.000916455
0.00117761
-0.000578553
0.001133
-0.000307062
0.00110318
-8.2555e-05
0.00108321
0.000111229
0.00106988
0.000285564
0.00106139
0.000449472
0.00105825
0.000609145
0.00106391
0.000768073
0.00108551
0.000927418
0.00113674
0.00108782
0.00123508
0.00124538
0.0014181
0.00141092
0.00164686
0.00143016
0.001711
0.00118929
0.000345681
0.00265488
0.00739738
0.00402981
0.00623036
0.0036548
0.00736039
0.00251009
0.00547607
0.00183225
0.00391353
0.00145028
0.00272066
0.00128398
0.00174627
0.00129942
0.000944943
0.00145608
0.00021167
0.00169138
-0.000514579
0.00195314
-0.00125503
0.00221725
-0.00204318
0.00245232
-0.00285545
0.00261969
-0.00359865
0.00269235
-0.00416013
0.00266443
-0.00446442
0.00254821
-0.00449307
0.00236464
-0.00427517
0.00213715
-0.00386627
0.00188763
-0.00333305
0.00163189
-0.00274248
0.00138583
-0.0021544
0.001165
-0.00161399
0.000983368
-0.00115318
0.000847721
-0.0007808
0.000756497
-0.000487322
0.000702125
-0.000252684
0.000674722
-5.5145e-05
0.000666083
0.000119873
0.000669877
0.000281777
0.000681744
0.000437611
0.000699538
0.000591359
0.000723043
0.000744574
0.000753964
0.000896505
0.000795933
0.00104586
0.000849308
0.00119201
0.00088432
0.00137592
0.000577557
0.00173689
-0.000665757
0.0024324
-0.00192614
0.00391524
0.00557611
0.00239621
0.00399896
0.00328329
0.00647332
0.0032157
0.00554368
0.00298714
0.0041421
0.00277273
0.00293507
0.00262458
0.00189444
0.00258823
0.000981294
0.00265795
0.000141957
0.00280158
-0.000658194
0.00299517
-0.00144862
0.00320063
-0.00224863
0.00336272
-0.00301752
0.00342813
-0.00366405
0.00336806
-0.00410005
0.0031844
-0.00428075
0.00290077
-0.00420944
0.00254988
-0.00392427
0.0021643
-0.00348069
0.00177274
-0.00294148
0.00139765
-0.00236738
0.00105998
-0.00181672
0.000775771
-0.00132977
0.000559459
-0.000936862
0.000411504
-0.000632838
0.000321502
-0.000397313
0.000275181
-0.000206357
0.000259113
-3.90701e-05
0.000263653
0.000115339
0.000281943
0.000263493
0.00030923
0.00041033
0.000341714
0.000558881
0.000375388
0.000710907
0.000406382
0.000865517
0.000429915
0.00102234
0.000437794
0.00118415
0.00034342
0.0014703
-7.33392e-05
0.00215341
-0.000592384
0.00295108
-0.000780519
0.00410313
0.00491242
0.0014416
0.00275202
0.00272623
0.0051887
0.00340451
0.00486541
0.00367881
0.00386781
0.00375882
0.00285507
0.00376491
0.00188836
0.00377936
0.000966852
0.00382715
9.41704e-05
0.00391515
-0.00074618
0.00403713
-0.00157059
0.00414857
-0.00236005
0.0041825
-0.00305143
0.00408571
-0.00356724
0.0038412
-0.00385553
0.00346677
-0.00390631
0.00299961
-0.00374228
0.00248209
-0.00340674
0.00195262
-0.00295122
0.00144452
-0.00243337
0.000983116
-0.00190597
0.000595766
-0.00142936
0.000295894
-0.00102989
9.27689e-05
-0.000733729
-2.96087e-05
-0.000510453
-9.51321e-05
-0.000331783
-0.000124201
-0.000177282
-0.000128929
-3.43359e-05
-0.000115729
0.000102145
-8.86342e-05
0.000236404
-5.10208e-05
0.000372722
-7.39331e-06
0.000515259
3.50681e-05
0.000668452
6.50026e-05
0.000835589
6.34719e-05
0.00102388
-9.43173e-06
0.00125706
-0.00025797
0.00171886
-0.000769783
0.0026651
-0.00129642
0.00347741
-0.00125978
0.00406621
0.00378338
0.00214465
0.00083382
0.00292019
0.00441317
0.00357649
0.00420912
0.00414187
0.00330244
0.00445579
0.00254116
0.00461101
0.00173315
0.0047055
0.000872369
0.0047851
1.45774e-05
0.00486922
-0.000830287
0.00493513
-0.00163647
0.00492345
-0.00234835
0.00477365
-0.0029016
0.00445796
-0.00325153
0.00398886
-0.00338642
0.00340677
-0.00332422
0.00276113
-0.00309664
0.00209943
-0.00274504
0.00146067
-0.00231244
0.000882138
-0.00185484
0.000389964
-0.00141379
1.62612e-05
-0.00105565
-0.00022998
-0.000783641
-0.000371678
-0.000592021
-0.000447685
-0.000434437
-0.000486199
-0.000293262
-0.00050227
-0.000161205
-0.000501108
-3.54928e-05
-0.000484235
8.52761e-05
-0.000452348
0.000204522
-0.000407124
0.000327503
-0.000352974
0.000461115
-0.000298599
0.000614082
-0.000261293
0.000798288
-0.000273325
0.00103592
-0.000395592
0.00137938
-0.000690133
0.00201363
-0.00124166
0.00321693
-0.00229195
0.00452783
-0.00261155
0.00438584
0.00131754
-0.00156284
0.00264232
0.00112918
0.00172116
0.00336238
0.00197593
0.00435944
0.0023054
0.00485027
0.00205034
0.00514545
0.00143797
0.00534902
0.000668818
0.00549979
-0.000136175
0.00558361
-0.000914065
0.00554608
-0.00159888
0.0053348
-0.00213702
0.00493109
-0.00249785
0.00435591
-0.00267633
0.00365651
-0.00268702
0.00289033
-0.00255804
0.0021088
-0.00231511
0.00135827
-0.00199451
0.000673827
-0.001628
9.56198e-05
-0.00127663
-0.000332663
-0.000985503
-0.000602754
-0.000785554
-0.00075094
-0.00063544
-0.000831918
-0.000511028
-0.000874779
-0.000391563
-0.000896142
-0.000271891
-0.000903552
-0.000153791
-0.000898344
-4.06992e-05
-0.000878829
6.57647e-05
-0.000842865
0.000168562
-0.000789837
0.000274479
-0.000722444
0.000393728
-0.0006484
0.000540043
-0.000582829
0.000732719
-0.000549419
0.00100251
-0.00057755
0.00140756
-0.000641736
0.00207807
-0.000612495
0.00318819
-0.000656665
0.00457243
-0.000637595
0.0043672
0.0008382
0.00290555
0.00461238
0.00490768
0.00168065
0.00538055
0.00183253
0.00559671
0.00183419
0.00580268
0.00123202
0.00596461
0.000506916
0.00602473
-0.000196232
0.00591251
-0.000801763
0.00558994
-0.00127623
0.00506152
-0.00160854
0.004367
-0.00180329
0.0035618
-0.00187113
0.00270129
-0.00182652
0.00183912
-0.00169587
0.00101393
-0.00148992
0.000263595
-0.00124418
-0.000356865
-0.00100754
-0.000801933
-0.000831555
-0.00107472
-0.0007127
-0.00123146
-0.000628792
-0.0013156
-0.000551273
-0.00136087
-0.000465726
-0.00138449
-0.000367925
-0.00139486
-0.000261521
-0.00139543
-0.000153229
-0.0013863
-4.98341e-05
-0.00136516
4.46151e-05
-0.00132812
0.000131524
-0.00127202
0.00021838
-0.00119651
0.000318233
-0.00110455
0.000448086
-0.00100119
0.000629337
-0.000888169
0.000889436
-0.000747887
0.00126721
-0.000501478
0.00183172
-1.18707e-06
0.00268821
0.000699383
0.00387227
0.00120282
0.00386419
0.00220482
0.0079028
0.0054221
0.00577328
0.00396205
0.00551855
0.00208894
0.00558108
0.00116955
0.00555685
0.000531221
0.00535178
8.92472e-06
0.00493257
-0.000382478
0.00433329
-0.000676895
0.00360404
-0.000879271
0.00279534
-0.000994587
0.00195021
-0.001026
0.00110224
-0.000978554
0.000288014
-0.000881657
-0.000439621
-0.000762292
-0.00102051
-0.000663297
-0.00142881
-0.000599231
-0.00169067
-0.000569674
-0.00184652
-0.000556808
-0.00193808
-0.000537185
-0.00199277
-0.000496531
-0.00202619
-0.000432258
-0.00204592
-0.000348183
-0.00205579
-0.000251668
-0.00205767
-0.00015138
-0.00205212
-5.54254e-05
-0.00203828
3.07444e-05
-0.00201249
0.000105728
-0.00197031
0.000176214
-0.0019065
0.000254449
-0.00181358
0.000355184
-0.0016798
0.000495528
-0.00148621
0.000695717
-0.00119695
0.000977738
-0.000729255
0.0013638
5.47018e-05
0.00190417
0.00113962
0.00278751
0.00162825
0.00337579
0.00400623
0.00400553
0.0016635
0.00440807
0.00355953
0.00366671
0.00283033
0.00320214
0.00163419
0.00289356
0.000839895
0.00256717
0.000335387
0.0021699
1.4834e-05
0.00167644
-0.000183417
0.00110327
-0.000306115
0.000467126
-0.000358463
-0.000205346
-0.000353546
-0.000859981
-0.000323946
-0.00143602
-0.000305644
-0.00189517
-0.000303157
-0.00222704
-0.000331436
-0.00244551
-0.000380735
-0.00258322
-0.00043191
-0.00267375
-0.00046619
-0.00273896
-0.00047188
-0.0027895
-0.000445917
-0.00283007
-0.000391642
-0.00286226
-0.000315995
-0.00288619
-0.000227799
-0.00290153
-0.000136141
-0.00290843
-4.86328e-05
-0.0029085
3.07428e-05
-0.00290035
9.7566e-05
-0.00287952
0.000155434
-0.00283778
0.000212798
-0.00276106
0.000278573
-0.00262794
0.000362449
-0.00240819
0.000475887
-0.00205936
0.000628663
-0.00151472
0.000818768
-0.00063477
0.00102379
0.000792341
0.00136014
0.00143896
0.002729
0.00562625
-0.00267665
-0.00689694
-0.00744491
-0.00752297
-0.00371076
-0.00207063
-0.00166574
0.00151454
-0.000744407
0.00190906
-0.000508818
0.00139866
-0.000541978
0.000873103
-0.0006901
0.000483535
-0.000898054
0.000222795
-0.00115197
7.04895e-05
-0.00146277
4.66631e-06
-0.00181636
-4.91396e-06
-0.0021834
1.34521e-05
-0.00253499
2.75938e-05
-0.00284842
7.75856e-06
-0.00309314
-5.84518e-05
-0.00325417
-0.000170371
-0.0033554
-0.000279427
-0.00342673
-0.000360468
-0.00348773
-0.000405053
-0.00354687
-0.000412616
-0.00360623
-0.000386485
-0.0036653
-0.000332554
-0.00372282
-0.000258543
-0.00377702
-0.000173729
-0.00382487
-8.84751e-05
-0.00386001
-1.36871e-05
-0.00387205
4.2646e-05
-0.00386306
8.85291e-05
-0.00383653
0.00012895
-0.00379238
0.000168796
-0.0037259
0.000212307
-0.00362774
0.0002645
-0.00348273
0.000331036
-0.0032626
0.000408561
-0.00292003
0.000476071
-0.00249262
0.000596057
-0.00232945
0.00119653
-0.00189705
0.00229615
0.00392658
-0.00745775
0.00101864
-0.00820797
-0.0067727
-0.00719172
-0.00308682
-0.00562243
-5.4687e-05
-0.00449885
0.000785534
-0.00386509
0.000764953
-0.00356119
0.000569228
-0.00345687
0.00037923
-0.00347179
0.000237696
-0.00355069
0.000149355
-0.00365124
0.000105174
-0.00374512
8.89004e-05
-0.00381691
8.51721e-05
-0.0038625
7.31398e-05
-0.00389602
4.12497e-05
-0.00393259
-2.18497e-05
-0.0039846
-0.000118272
-0.00405483
-0.000209072
-0.00414377
-0.000271369
-0.00424798
-0.000300685
-0.00436025
-0.000300232
-0.00447107
-0.000275622
-0.00457078
-0.000232892
-0.00465172
-0.000177746
-0.00470958
-0.00011609
-0.00474328
-5.5031e-05
-0.00475432
-2.89666e-06
-0.00473913
2.72637e-05
-0.00469481
4.41105e-05
-0.00462523
5.9378e-05
-0.00453176
7.54249e-05
-0.00441123
9.19749e-05
-0.0042547
0.000108209
-0.00404688
0.000123487
-0.00376652
0.000128439
-0.00336606
7.57945e-05
-0.00264746
-0.000122418
-0.00114217
-0.000308735
-6.6896e-05
0.0012207
0.0040698
0.00156619
-0.00513871
-0.00815915
-0.0081513
-0.00730842
-0.00649413
-0.00588246
-0.00546581
-0.00519397
-0.00501231
-0.00487557
-0.00475502
-0.00463753
-0.00453112
-0.00445572
-0.00444286
-0.00452631
-0.00470079
-0.00493807
-0.00520539
-0.00547303
-0.0057168
-0.00591842
-0.00606528
-0.0061507
-0.00617515
-0.00614752
-0.00608981
-0.00601544
-0.00592619
-0.00582149
-0.00570104
-0.00556537
-0.00541559
-0.00526215
-0.00516274
-0.00526305
-0.00555136
-0.00431199
)
;

boundaryField
{
    floor
    {
        type            calculated;
        value           nonuniform List<scalar> 
36
(
0
0
0
0
0
0
0
0
0
0
0
0
0
0
0
0
0
0
0
-6.67729e-06
-1.73746e-05
-2.66617e-05
-3.50079e-05
-3.51994e-05
-2.88565e-05
-2.89384e-05
-3.00539e-06
-5.60015e-06
-5.8408e-06
-6.05244e-06
-4.99877e-06
-9.15545e-06
-1.03369e-05
-1.31681e-05
-1.4712e-05
-1.5735e-05
)
;
    }
    ceiling
    {
        type            calculated;
        value           nonuniform List<scalar> 
43
(
-6.03055e-05
-6.7753e-05
-6.63034e-05
-6.24674e-05
-5.72633e-05
-4.92798e-05
-4.2407e-05
-3.74202e-05
-3.41822e-05
-3.23702e-05
-3.16466e-05
-3.17391e-05
-3.23892e-05
-3.33035e-05
-3.41499e-05
-3.46635e-05
-3.47231e-05
-3.44589e-05
-3.39373e-05
-3.32528e-05
-3.25277e-05
-3.18795e-05
-3.13844e-05
-3.10621e-05
-3.08847e-05
-3.07958e-05
-3.07246e-05
-3.05915e-05
-3.0327e-05
-2.98738e-05
-2.92061e-05
-2.83264e-05
-2.72566e-05
-2.60308e-05
-2.4688e-05
-2.32658e-05
-2.17712e-05
-2.01605e-05
-1.85215e-05
-1.76183e-05
1.8485e-05
1.43441e-05
-0.000246924
)
;
    }
    sWall
    {
        type            calculated;
        value           nonuniform List<scalar> 9(-0.000140387 -0.000164796 -0.000194647 -0.000226433 -0.00024565 -0.000281704 -0.000428384 -0.000457797 -0.000487244);
    }
    nWall
    {
        type            calculated;
        value           nonuniform List<scalar> 
14
(
-9.03418e-05
-9.80439e-05
-0.000103538
-0.000104787
-0.000116788
-0.000130766
-0.000145699
-0.000157716
-0.000163491
-0.000173045
-0.000181243
-0.000197643
-0.000210377
-0.000224648
)
;
    }
    sideWalls
    {
        type            empty;
        value           nonuniform 0();
    }
    glass1
    {
        type            calculated;
        value           nonuniform List<scalar> 9(-6.4448e-05 -0.000171102 -0.000258767 -0.000331948 -0.000393803 -0.00044695 -0.000492808 -0.000536242 -0.000588163);
    }
    glass2
    {
        type            calculated;
        value           nonuniform List<scalar> 2(-0.000369693 -0.000388189);
    }
    sun
    {
        type            calculated;
        value           uniform 0;
    }
    Table_master
    {
        type            calculated;
        value           nonuniform List<scalar> 9(-1.54087e-07 -1.54202e-07 -1.54233e-07 -1.54252e-07 -1.54263e-07 -1.54268e-07 -1.54267e-07 -1.54255e-07 -1.54206e-07);
    }
    Table_slave
    {
        type            calculated;
        value           nonuniform List<scalar> 9(1.53776e-07 1.53834e-07 1.53832e-07 1.5385e-07 1.53869e-07 1.5391e-07 1.53972e-07 1.5406e-07 1.54181e-07);
    }
    inlet
    {
        type            calculated;
        value           uniform -0.0116442;
    }
    outlet
    {
        type            calculated;
        value           nonuniform List<scalar> 2(0.010002 0.0122913);
    }
}


// ************************************************************************* //
