/*--------------------------------*- C++ -*----------------------------------*\
  =========                 |
  \\      /  F ield         | OpenFOAM: The Open Source CFD Toolbox
   \\    /   O peration     | Website:  https://openfoam.org
    \\  /    A nd           | Version:  6
     \\/     M anipulation  |
\*---------------------------------------------------------------------------*/
FoamFile
{
    version     2.0;
    format      ascii;
    class       surfaceScalarField;
    location    "1700";
    object      phi;
}
// * * * * * * * * * * * * * * * * * * * * * * * * * * * * * * * * * * * * * //

dimensions      [1 0 -1 0 0 0 0];

internalField   nonuniform List<scalar> 
1482
(
0.000329557
-0.000329491
-0.000204549
0.000534457
0.00020158
-0.000538969
-0.00014217
-6.20899e-05
-4.15445e-05
0.000777867
0.000137405
-0.00069699
2.35715e-05
-0.000165473
-0.000201897
9.8532e-05
-5.98049e-05
0.000975365
7.91938e-05
-0.000814532
0.00013525
-0.000111423
-0.000188508
-0.000178598
-0.000271313
0.000310316
-0.000109282
0.00116413
2.28221e-05
-0.000899605
0.000188112
-5.26182e-05
-0.000143205
-0.000156465
-0.00035838
-9.12601e-05
-0.000387308
0.000588629
-0.000132359
0.00131958
-1.16959e-05
-0.000981711
0.000200811
-1.24652e-05
-9.14759e-05
-0.000104093
-0.000357349
-0.000157227
-0.000540502
6.22155e-05
-0.000469562
0.000926122
-6.36063e-05
0.00137174
-4.06871e-05
-0.00107639
0.000185253
1.57896e-05
-3.06982e-05
-7.29942e-05
-0.000299603
-0.000161573
-0.00056298
-0.000134466
-0.000688399
0.000281347
-0.00038577
0.00124856
0.000279439
0.00105185
-1.01785e-05
-0.00125931
0.000146663
3.8817e-05
3.89204e-05
-5.35867e-05
-0.000200834
-0.000171499
-0.000495751
-0.00022852
-0.000741336
-8.12316e-05
-0.000692045
0.000587917
0.000133415
0.00139482
0.00111899
-7.714e-05
0.000822054
-0.00234724
8.8941e-05
5.79442e-05
0.000112283
-3.43072e-05
-7.56426e-05
-0.000178516
-0.000367388
-0.00029958
-0.000673145
-0.00029641
-0.000834029
6.10617e-05
-0.000323908
0.0010455
0.0011382
0.00137582
0.00191372
-0.00116844
0.00306137
-0.00546842
1.44402e-05
7.47163e-05
0.000182327
-1.18634e-05
6.11491e-05
-0.000170839
-0.000207734
-0.00033789
-0.000529695
-0.000442729
-0.00079832
-0.000331801
-0.000719733
0.000457198
0.000539555
0.00164441
0.0021299
0.00115995
0.00360885
-0.00171533
0.00243487
-0.00796135
-7.24511e-05
8.70917e-05
0.000243172
1.41071e-05
0.000197672
-0.000148128
-4.00046e-05
-0.000338287
-0.000358802
-0.000508481
-0.000669636
-0.000571091
-0.000817087
-0.000234113
-0.00021373
0.00121077
0.00151861
0.00225602
0.0033589
0.00141039
0.00381551
-0.0030953
0.00165975
-0.00967779
-0.000130175
5.79245e-05
0.000280982
4.95159e-05
0.000328492
-0.000116455
0.000121676
-0.000309529
-0.00019172
-0.000505068
-0.000520263
-0.000657531
-0.000761282
-0.000626557
-0.000669829
0.000222319
0.000576128
0.00215359
0.00241474
0.00320062
0.0035439
0.00168261
0.00317886
-0.00461374
0.000756399
-0.0104896
-3.97803e-06
-0.000125992
0.000242548
9.65953e-05
0.000457293
-7.9028e-05
0.000272209
-0.000266708
-4.13166e-05
-0.000459631
-0.00038724
-0.000637769
-0.000681223
-0.000737247
-0.000777339
-0.00051869
-0.000276025
0.00107481
0.0012129
0.00335583
0.0023879
0.00435714
0.00279284
0.00206928
0.00189167
-0.00574832
-0.00163763
-0.0089054
-1.50261e-05
1.03213e-05
0.000106467
0.0005969
-4.27529e-05
0.000416282
-0.000222821
8.97458e-05
-0.00039747
-0.000281088
-0.00056546
-0.000622561
-0.000696088
-0.000831549
-0.000682677
-0.000703423
-9.09222e-05
0.000134994
0.0021531
0.00108316
0.00466104
0.00140215
0.00574842
0.00152839
0.00243323
-0.000360422
-0.00702484
-0.00908556
-0.000243873
0.000239394
0.000741258
-3.76306e-05
0.000561204
-0.000187395
0.000203513
-0.000336287
-0.000200547
-0.000477689
-0.000592478
-0.0005952
-0.00089289
-0.000634385
-0.000973067
-0.000412654
-0.000616303
0.000660744
5.83999e-05
0.00317829
0.000235178
0.00582851
-0.000265547
0.00754297
4.44987e-05
0.00202898
-0.0162157
-0.000130527
-0.000133563
0.00102447
-4.35585e-05
0.000697125
-0.000173272
0.000302218
-0.000285799
-0.000141837
-0.000394675
-0.000587135
-0.00048269
-0.000969574
-0.000518154
-0.00119781
-0.000409261
-0.00114747
0.000118908
-0.000809783
0.00152933
-0.000563465
0.00397738
-0.00109193
0.0066554
-0.00250221
0.0100903
-0.00937988
-0.0048062
0.000112717
-0.000262255
0.00105044
-0.00015927
0.000826935
-0.000173088
0.000380121
-0.000250873
-0.000102758
-0.000324557
-0.000601553
-0.000379915
-0.00105916
-0.000392747
-0.00140344
-0.000312147
-0.00155219
-4.14814e-06
-0.00147507
0.000784607
-0.00130893
0.00227522
-0.00153626
0.00442215
-0.00272664
0.00688033
-0.00622252
0.00693349
-0.0144889
0.00613451
6.26214e-05
0.000960605
-0.00017217
0.000873674
-0.00020573
0.00043463
-0.000227297
-8.48035e-05
-0.000268506
-0.000632435
-0.000293333
-0.00115813
-0.000280573
-0.00159738
-0.00019842
-0.00188602
2.20895e-05
-0.00198231
0.000503515
-0.00192378
0.00139988
-0.00200846
0.00274786
-0.00267223
0.0043682
-0.00459961
0.00525791
-0.00925699
0.00170215
-0.00428212
0.0103085
0.000980869
0.000914291
-0.000212513
0.000442998
-0.000213797
-8.89499e-05
-0.000222829
-0.000678637
-0.000221961
-0.00126353
-0.000187579
-0.00178229
-9.52776e-05
-0.00217397
8.99311e-05
-0.00238259
0.000422786
-0.00241379
0.000993969
-0.00244385
0.00183572
-0.00276125
0.00283734
-0.00375942
0.00352847
-0.00585875
0.00186016
-0.00423177
0.00165237
0.0010435
0.000719957
0.00854579
0.00138755
0.000507876
0.000401948
-0.000171164
-0.000119751
-0.000182675
-0.000738724
-0.000162399
-0.00137329
-0.000111834
-0.00195913
-1.03552e-05
-0.00242601
0.000157168
-0.00270836
0.000416119
-0.00280343
0.00081286
-0.00281186
0.00136243
-0.00291808
0.00199301
-0.00334772
0.0024261
-0.00416142
0.00183163
-0.0035782
0.00120712
0.00125947
0.00143704
0.000314124
0.0207709
0.0099387
-0.00780787
0.00641569
0.00126631
7.10487e-05
0.000783606
0.000126515
-0.000162365
-0.000128227
-0.000810387
-0.000110667
-0.00148512
-5.01977e-05
-0.00212576
5.51817e-05
-0.00264575
0.000209793
-0.00297833
0.000427569
-0.00311433
0.000727465
-0.00310842
0.00110988
-0.00307603
0.00152085
-0.00314513
0.00179089
-0.0032845
0.00154967
-0.00256646
0.000820413
0.00144211
0.00102508
0.00982012
0.00155635
-0.000113346
4.78939e-05
0.0129158
0.0181822
-0.0120038
-0.000123692
0.0015179
-0.000127645
0.000878224
-2.32687e-05
-3.01657e-05
-5.35947e-06
-0.000881168
-5.71006e-05
-0.00159634
9.11035e-07
-0.00227869
0.000103119
-0.00283606
0.000245907
-0.00320357
0.000435467
-0.00336195
0.000675636
-0.00333809
0.000957597
-0.00320199
0.00123631
-0.00302216
0.00139837
-0.00272946
0.00123635
-0.00169092
0.00067465
0.0018007
0.000462407
0.010191
0.000654943
0.0194939
-0.000207116
0.000662297
9.56554e-06
-0.000172665
0.000604178
0.00117507
-0.000261091
0.000789299
-3.84222e-05
-4.41569e-05
-8.95251e-06
-0.000894104
7.92217e-06
-0.00169803
4.49661e-05
-0.0024153
0.000137918
-0.00300123
0.000268704
-0.00339154
0.000434317
-0.0035576
0.000631571
-0.00350863
0.000846642
-0.00328392
0.00104002
-0.00291417
0.00112881
-0.00230668
0.000976097
-0.000956938
0.000502896
0.00245012
2.58138e-05
0.0102476
0.00040646
0.0198968
0.000127858
-0.000143327
-0.000144502
0.000576203
0.000209982
0.00116435
-0.000199016
0.000645385
-0.000116879
-7.45717e-05
-7.68181e-06
-0.000933636
3.09265e-05
-0.00177304
8.33028e-05
-0.00253442
0.000164487
-0.00314464
0.000281748
-0.0035475
0.000425101
-0.00370997
0.000587146
-0.00362917
0.000752589
-0.00332311
0.000886316
-0.00279669
0.000923029
-0.00194306
0.000765701
-0.000322191
0.000341887
0.00314481
-0.000191206
0.0102019
7.21307e-05
0.0200448
0.000117611
-0.000450332
0.000162645
-0.000114367
0.000900733
4.5768e-05
0.00121155
-9.27178e-05
0.000560902
-0.000114237
-0.000150044
-4.10815e-05
-0.000980673
3.97029e-05
-0.00184697
0.000105234
-0.00263704
0.000186315
-0.0032688
0.000289071
-0.00367576
0.000410452
-0.0038257
0.000541295
-0.0037083
0.000666749
-0.00332638
0.000756354
-0.00266628
0.000756415
-0.00161319
0.000593673
0.000229861
0.000214192
0.00373588
-0.000248587
0.0101191
-0.000107693
0.0198525
-0.00033259
-0.000226912
0.000275331
-7.48437e-05
0.00102153
-2.69694e-05
0.00129021
-5.14396e-05
0.000534508
-6.60288e-05
-0.000232015
-3.19406e-05
-0.00106186
4.04548e-05
-0.00192764
0.000120747
-0.00273403
0.000202632
-0.00337604
0.000293984
-0.00377968
0.000393445
-0.00391004
0.00049527
-0.00375311
0.000586598
-0.00330097
0.000641831
-0.00252649
0.000617071
-0.00131089
0.000454646
0.000700411
0.000123672
0.00421106
-0.000260402
0.0100385
-0.000167338
0.0194757
-0.000559365
-9.7822e-05
0.000298452
-0.000104812
0.00109955
0.00131
-1.96703e-05
0.00050263
-1.92666e-05
-0.000302829
5.10857e-06
-0.00115467
6.12193e-05
-0.00202365
0.000136843
-0.00283086
0.000217991
-0.00347117
0.000298204
-0.003862
0.00037677
-0.0039671
0.000450978
-0.00376936
0.000512006
-0.00325281
0.000538941
-0.00238111
0.000496963
-0.0010342
0.000340906
0.00109987
5.57417e-05
0.00459139
-0.000256064
0.00995602
-0.000177254
0.0190363
-0.000657045
-7.46388e-05
0.000268425
-6.61142e-05
0.00116598
0.00130628
3.83673e-06
0.000452783
3.04731e-05
-0.000374746
5.2973e-05
-0.001247
9.77927e-05
-0.00212537
0.000163328
-0.00293002
0.00023641
-0.00355714
0.000304406
-0.00392577
0.000362436
-0.00400012
0.00041027
-0.0037615
0.00044361
-0.00318668
0.000446387
-0.0022325
0.000390851
-0.000781243
0.000244545
0.00144642
-5.08877e-06
0.0048936
-0.000245868
0.00987321
-0.000172607
0.0185854
-0.000731539
-1.06679e-05
0.000213126
-2.85029e-05
0.00119479
0.00126338
4.30264e-05
0.000385524
7.13948e-05
-0.000447935
0.000103987
-0.00133703
0.000143358
-0.00222705
0.000199849
-0.00302785
0.000261583
-0.00363508
0.000314792
-0.0039733
0.000352408
-0.00401204
0.000374841
-0.00373285
0.000382129
-0.0031063
0.000363743
-0.00208239
0.000296802
-0.000548814
0.000158962
0.00174895
-5.74199e-05
0.00512559
-0.000236482
0.00979178
-0.000163791
0.0181388
-0.000742061
3.31118e-05
0.000151662
1.3386e-05
0.00118171
0.00118404
7.94736e-05
0.000315096
0.000113755
-0.000525186
0.000148973
-0.00142479
0.000192102
-0.00232587
0.000242567
-0.00312079
0.000293203
-0.0037038
0.000330758
-0.0040061
0.000348069
-0.00400541
0.000346272
-0.00368608
0.000328575
-0.00301403
0.00029038
-0.00193227
0.000214152
-0.000333885
8.2416e-05
0.00200915
-0.000100675
0.00530084
-0.000232071
0.00971012
-0.000154171
0.0177013
-0.000708805
6.4204e-05
0.000100999
4.14299e-05
0.00114059
0.00107074
0.000113434
0.000240918
0.000153954
-0.000600933
0.000189829
-0.0015113
0.000235835
-0.00241924
0.000285862
-0.00320593
0.000328139
-0.00376161
0.000351466
-0.00402466
0.000349796
-0.00398228
0.000325436
-0.00362353
0.000284235
-0.00291127
0.000226332
-0.00178281
0.000141457
-0.000131331
1.21456e-05
0.00222963
-0.000137495
0.00543153
-0.000230768
0.00962435
-0.000145661
0.0172742
-0.000644457
7.19282e-05
7.06587e-05
6.2722e-05
0.00107818
0.000922398
0.000148474
0.0001651
0.000189554
-0.000670181
0.000223527
-0.00159211
0.000270996
-0.00250558
0.000322565
-0.00328065
0.000361014
-0.00380675
0.00037375
-0.00402889
0.000356189
-0.00394399
0.000312012
-0.00354713
0.000249547
-0.00279941
0.000172899
-0.00163372
7.77742e-05
5.9497e-05
-4.88204e-05
0.00241148
-0.000169127
0.00552645
-0.000231811
0.0095328
-0.000138574
0.0168565
-0.000572386
7.72956e-05
5.62441e-05
8.54407e-05
0.000993057
0.000734805
0.000187733
9.43708e-05
0.000219506
-0.000726422
0.000246121
-0.001661
0.000292779
-0.00258064
0.000346459
-0.00334246
0.000384815
-0.00383745
0.000392181
-0.00401834
0.000363694
-0.00389131
0.000304012
-0.00345815
0.000223552
-0.00267969
0.000130357
-0.00148441
2.4128e-05
0.000233921
-9.60967e-05
0.00255833
-0.000195104
0.00559174
-0.000233812
0.00943423
-0.000132611
0.0164468
-0.000494948
8.56079e-05
5.62383e-05
0.000116708
0.000876674
0.000499945
0.000235
4.0304e-05
0.000242102
-0.000760377
0.000253787
-0.00171013
0.000295603
-0.0026382
0.000350739
-0.00338749
0.000391936
-0.00385163
0.000399481
-0.00399217
0.000366506
-0.00382449
0.000297394
-0.00335735
0.000203728
-0.00255285
9.72356e-05
-0.00133472
-1.87883e-05
0.000389821
-0.000131216
0.00267845
-0.000215635
0.00563274
-0.00023551
0.0093282
-0.000127146
0.0160436
-0.000409198
9.68795e-05
7.62315e-05
0.000171145
0.000705856
0.000257305
0.000242789
2.2827e-05
0.000252777
-0.000761367
0.000243418
-0.00173005
0.000274078
-0.00267038
0.000328196
-0.0034104
0.000374102
-0.00384641
0.000387202
-0.00394907
0.000356891
-0.0037434
0.00028593
-0.00324505
0.000185618
-0.00241915
7.05674e-05
-0.0011858
-5.11489e-05
0.000528977
-0.000157387
0.00277844
-0.000230638
0.00565401
-0.000236301
0.00921492
-0.000121592
0.0156462
-0.000312175
0.00011022
0.000137325
0.000260451
0.000445734
-6.11811e-05
0.000289702
2.90741e-05
3.73767e-05
0.000228532
-0.00072214
0.000213873
-0.00171056
0.000224299
-0.00266789
0.000272012
-0.00340452
0.000322779
-0.00381796
0.000346149
-0.00388721
0.000325859
-0.00364742
0.000261433
-0.00312138
0.000162795
-0.00227832
4.53153e-05
-0.00103822
-7.64648e-05
0.000655708
-0.000177321
0.00286271
-0.00024108
0.00565977
-0.000235797
0.00909487
-0.000115624
0.0152545
-0.000201807
0.000122371
0.000275574
3.10962e-05
0.000353648
-0.000108476
0.000357206
4.12477e-05
-0.000109645
0.000176367
-0.000660509
0.000167221
-0.00164202
0.000145701
-0.00262019
0.000177038
-0.00336198
0.00022995
-0.00376167
0.000266998
-0.00380434
0.000263796
-0.00353565
0.000214622
-0.00298629
0.000126873
-0.00212936
1.4372e-05
-0.00089179
-0.000100569
0.000773969
-0.000194167
0.0029346
-0.000248633
0.00565344
-0.000234149
0.00896886
-0.00010915
0.0148685
-7.92833e-05
0.000118459
0.000188381
-0.000160814
0.000406194
-0.000147386
0.000472428
3.24223e-05
-0.000302283
0.000234146
-0.000613294
0.000129465
-0.00151966
4.52442e-05
-0.00251532
4.12672e-05
-0.00327331
8.88617e-05
-0.00367235
0.000141146
-0.00369801
0.0001612
-0.00340719
0.000135868
-0.0028394
6.82682e-05
-0.00197285
-2.90919e-05
-0.0007477
-0.00012917
0.000885476
-0.000211517
0.00299645
-0.000255443
0.00563749
-0.000232089
0.00883767
-0.000102339
0.0144886
3.9331e-05
-1.62001e-06
2.93699e-05
-0.000196824
0.000455848
-0.000254066
0.000674059
-0.000728383
0.000458769
-0.000545385
0.000166544
-0.00133132
-5.84861e-05
-0.00233508
-0.000134531
-0.00312629
-0.000105259
-0.00354439
-3.85806e-05
-0.0035656
9.27777e-06
-0.00326119
1.57427e-05
-0.00268167
-2.13249e-05
-0.0018134
-9.06374e-05
-0.00060823
-0.000168013
0.000990386
-0.000233521
0.00304954
-0.000264029
0.00561347
-0.000230822
0.00870186
-9.56442e-05
0.0141149
3.78642e-05
-0.00030297
0.00013571
0.000163502
-0.000931226
0.000877159
-0.000398155
0.00031183
-0.00104268
-0.000121702
-0.00205499
-0.000338113
-0.00291043
-0.000349876
-0.00337639
-0.000272716
-0.00340988
-0.000193762
-0.00310282
-0.000148546
-0.00252025
-0.000145131
-0.00165825
-0.000175935
-0.000475284
-0.000223033
0.00108771
-0.00026478
0.00309397
-0.000277373
0.00558198
-0.000231945
0.00856144
-8.97823e-05
0.0137473
-0.000264929
0.000274595
-0.00120088
0.000206385
-0.000142008
0.000621303
-0.000666787
-6.36813e-05
-0.00163912
-0.000537097
-0.00261451
-0.000633508
-0.00316995
-0.000555778
-0.00323625
-0.000445792
-0.00293859
-0.00035744
-0.00236182
-0.000306431
-0.00151137
-0.000291455
-0.000350722
-0.000299945
0.00117557
-0.000310326
0.00312873
-0.000298963
0.00554268
-0.000237467
0.00841582
-8.57024e-05
0.0133847
-0.00125069
-1.42396e-05
-0.000541147
0.000605922
-0.000308367
0.000263265
-0.00102602
-0.000676311
-0.00221039
-0.000940691
-0.00292344
-0.000879465
-0.00304629
-0.000745183
-0.00276943
-0.000614402
-0.00220666
-0.000512046
-0.00137303
-0.000444223
-0.000236796
-0.000404827
0.00125158
-0.000375392
0.00315178
-0.000332794
0.00549415
-0.000249846
0.00826356
-8.45874e-05
0.0130253
-0.0013912
-0.000979836
0.00042491
-0.000286962
0.000584946
-0.000105113
-0.000657177
-0.00163745
-0.00124872
-0.00263081
-0.00123278
-0.00283987
-0.00108533
-0.00259504
-0.000919007
-0.00205461
-0.00076589
-0.00124437
-0.000640155
-0.000136185
-0.000544278
0.0013129
-0.000465583
0.00316027
-0.000383307
0.00543397
-0.000272012
0.0081022
-8.78645e-05
0.0126663
-0.00244945
-0.00012599
0.00026441
0.000953718
-0.000473411
-0.000793199
-0.0015009
-0.00227456
-0.00160441
-0.0026165
-0.00145558
-0.00241378
-0.00126603
-0.00190465
-0.00106841
-0.001126
-0.0008837
-5.15138e-05
-0.000724267
0.00135609
-0.000586906
0.00315071
-0.000455445
0.00535862
-0.000307365
0.00792801
-9.72157e-05
0.0123032
-0.00265371
0.00177598
-0.000557357
0.000357476
-0.00162355
-0.00180823
-0.00196667
-0.00236972
-0.00185062
-0.0022232
-0.00164559
-0.00175428
-0.00141584
-0.00101713
-0.00117671
1.51634e-05
-0.000949815
0.00137765
-0.000745264
0.00311903
-0.000554656
0.00526357
-0.000359802
0.00773585
-0.000114582
0.01193
-0.0012983
0.00182503
-0.00202436
-0.00124812
-0.0021831
-0.00206603
-0.00226979
-0.00202049
-0.00205276
-0.00159965
-0.00179965
-0.000915793
-0.00151661
6.29911e-05
-0.00122397
0.00137441
-0.000945999
0.00306099
-0.000686641
0.0051432
-0.000433698
0.00751882
-0.000142166
0.0115385
4.52099e-05
-0.0014188
-0.00185312
-0.00165435
-0.00259419
-0.00178375
-0.00250596
-0.00144076
-0.00221107
-0.000817703
-0.00189717
9.28378e-05
-0.00154588
0.00134394
-0.00119294
0.00297243
-0.000856869
0.00499088
-0.00053373
0.00726815
-0.000182418
0.0111188
-0.00151384
-0.00109649
-0.0024104
-0.00140677
-0.00297059
-0.00127458
-0.00267155
-0.000722021
-0.00230618
0.000107423
-0.00191118
0.00128537
-0.00148673
0.00284962
-0.00106954
0.00479906
-0.000664454
0.006973
-0.000237964
0.0106579
-0.0027692
-0.000741961
-0.00307463
-0.00100437
-0.00324022
-0.000640834
-0.00275216
0.000110229
-0.0023084
0.00119747
-0.00182271
0.002689
-0.00132554
0.00455954
-0.000829426
0.00662062
-0.000311471
0.0101406
-0.00367972
-0.000432633
-0.00364578
-0.000538833
-0.00334164
9.62471e-05
-0.00273759
0.00107659
-0.00218694
0.00248567
-0.00161879
0.00426409
-0.00102949
0.00619724
-0.000405431
0.0095488
-0.00429221
-0.000156484
-0.00402753
3.26907e-05
-0.00327749
0.000906847
-0.00256726
0.00222985
-0.00193053
0.00390555
-0.00125965
0.00569017
-0.000521819
0.00886197
-0.00464111
8.34078e-05
-0.00407766
0.000654716
-0.00302477
0.00189644
-0.00223326
0.00347888
-0.00150326
0.0050925
-0.000661371
0.00805751
-0.0047615
0.000390709
-0.00381306
0.00143305
-0.00256079
0.00297316
-0.00172695
0.00441214
-0.000822292
0.00711204
-0.00458259
0.000785958
-0.00316537
0.00234067
-0.00192769
0.00369191
-0.00100611
0.00600389
-0.00401292
0.00134793
-0.00217202
0.00302639
-0.00126156
0.00470978
-0.00288211
0.00210568
-0.0012507
0.00315824
-0.000994754
0.0016071
)
;

boundaryField
{
    floor
    {
        type            calculated;
        value           nonuniform List<scalar> 
36
(
0
0
0
0
0
0
0
0
0
0
0
0
0
0
0
0
0
0
0
9.84919e-06
2.48192e-05
3.84964e-05
5.26886e-05
6.3671e-05
6.45165e-05
6.25859e-05
1.12386e-05
2.0444e-05
1.9238e-05
2.01491e-05
1.03734e-05
3.01512e-05
2.51693e-05
4.26009e-05
3.95928e-05
5.04532e-05
)
;
    }
    ceiling
    {
        type            calculated;
        value           nonuniform List<scalar> 
43
(
0.000320176
0.00025047
0.000237948
0.000245372
0.000252806
0.00025918
0.000265142
0.000269771
0.000272787
0.000274348
0.000274756
0.00027439
0.000273608
0.000272702
0.000271876
0.000271257
0.000270906
0.000270833
0.00027102
0.000271426
0.000272003
0.0002727
0.000273472
0.000274279
0.000275094
0.000275899
0.00027669
0.000277474
0.000278266
0.00027909
0.000279973
0.000280943
0.000282032
0.000283273
0.000284723
0.000286483
0.000288614
0.000290599
0.000301049
0.000326031
0.000129685
0.00010603
0.000108892
)
;
    }
    sWall
    {
        type            calculated;
        value           nonuniform List<scalar> 9(6.04705e-05 5.87288e-05 5.73817e-05 5.60475e-05 5.41621e-05 5.11705e-05 0.000139841 0.000142383 0.000135723);
    }
    nWall
    {
        type            calculated;
        value           nonuniform List<scalar> 
14
(
7.841e-05
7.89048e-05
7.87946e-05
0.000140828
0.000159456
0.000169157
0.000180453
0.000193009
0.000204398
0.000212397
0.000216894
0.00021773
0.000218928
0.000286938
)
;
    }
    sideWalls
    {
        type            empty;
        value           nonuniform 0();
    }
    glass1
    {
        type            calculated;
        value           nonuniform List<scalar> 9(2.8953e-07 8.14549e-06 2.08374e-05 3.85519e-05 6.24299e-05 9.39485e-05 0.000135522 0.000193341 0.000266403);
    }
    glass2
    {
        type            calculated;
        value           nonuniform List<scalar> 2(0.000421105 0.000482086);
    }
    sun
    {
        type            calculated;
        value           uniform 0;
    }
    Table_master
    {
        type            calculated;
        value           nonuniform List<scalar> 9(-1.42917e-07 -1.43068e-07 -1.43173e-07 -1.43271e-07 -1.4337e-07 -1.43471e-07 -1.43579e-07 -1.43696e-07 -1.43806e-07);
    }
    Table_slave
    {
        type            calculated;
        value           nonuniform List<scalar> 9(1.41782e-07 1.41784e-07 1.41756e-07 1.41748e-07 1.41759e-07 1.41787e-07 1.41833e-07 1.419e-07 1.42022e-07);
    }
    inlet
    {
        type            calculated;
        value           uniform 0.00354907;
    }
    outlet
    {
        type            calculated;
        value           nonuniform List<scalar> 2(0.00028835 -0.0203643);
    }
}


// ************************************************************************* //
