/*--------------------------------*- C++ -*----------------------------------*\
  =========                 |
  \\      /  F ield         | OpenFOAM: The Open Source CFD Toolbox
   \\    /   O peration     | Website:  https://openfoam.org
    \\  /    A nd           | Version:  6
     \\/     M anipulation  |
\*---------------------------------------------------------------------------*/
FoamFile
{
    version     2.0;
    format      ascii;
    class       volScalarField;
    location    "1700";
    object      T;
}
// * * * * * * * * * * * * * * * * * * * * * * * * * * * * * * * * * * * * * //

dimensions      [0 0 0 1 0 0 0];

internalField   nonuniform List<scalar> 
778
(
315.253
314.678
315.747
314.309
314.957
316.114
314.38
314.726
315.218
316.514
314.407
314.749
314.991
315.505
316.999
314.412
314.788
314.998
315.251
315.86
317.607
314.415
314.819
315.052
315.248
315.547
316.343
318.365
314.422
314.842
315.1
315.309
315.519
315.931
317.01
319.282
314.426
314.852
315.134
315.368
315.57
315.827
316.511
317.952
320.121
314.417
314.846
315.153
315.41
315.633
315.844
316.265
317.366
319.371
320.337
314.389
314.827
315.155
315.43
315.675
315.894
316.177
316.958
318.508
320.134
320.404
314.335
314.797
315.141
315.431
315.69
315.925
316.16
316.663
317.852
319.558
320.317
320.44
314.278
314.758
315.115
315.416
315.685
315.928
316.159
316.468
317.332
318.791
320.003
320.379
320.467
314.279
314.724
315.081
315.393
315.668
315.916
316.143
316.386
316.92
318.045
319.349
320.153
320.426
320.492
314.073
314.698
315.048
315.367
315.645
315.896
316.123
316.338
316.622
317.394
318.505
319.581
320.171
320.478
320.522
314.66
315.023
315.345
315.621
315.874
316.104
316.312
316.519
316.873
317.651
318.644
319.551
320.129
320.554
314.773
314.99
315.331
315.602
315.855
316.089
316.299
316.488
316.692
317.02
317.628
318.42
319.159
320.577
314.8
315.027
315.322
315.589
315.84
316.078
316.296
316.488
316.66
316.849
317.095
317.535
318.132
318.734
323.684
314.6
315.023
315.313
315.582
315.832
316.074
316.301
316.504
316.679
316.835
316.972
317.155
317.467
317.876
318.661
321.687
314.938
315.276
315.571
315.829
316.076
316.313
316.529
316.718
316.874
316.99
317.092
317.232
317.458
317.785
318.851
321.506
315.13
315.538
315.826
316.085
316.333
316.564
316.768
316.932
317.052
317.141
317.227
317.355
317.583
318.183
320.001
321.243
321.346
315.134
315.425
315.816
316.098
316.36
316.606
316.824
316.998
317.129
317.225
317.306
317.404
317.59
318.05
319.323
321.079
320.998
321.229
321.253
315.044
315.45
315.788
316.113
316.393
316.655
316.883
317.067
317.209
317.317
317.407
317.508
317.683
318.085
319.078
320.785
321.227
321.024
321.216
314.29
315.026
315.46
315.811
316.131
316.431
316.707
316.945
317.138
317.289
317.408
317.51
317.624
317.805
318.187
319.023
320.572
321.191
321.15
313.366
314.343
315.012
315.479
315.834
316.16
316.472
316.761
317.01
317.211
317.368
317.493
317.606
317.733
317.929
318.306
319.074
320.424
321.151
312.847
313.3
314.266
314.98
315.487
315.855
316.192
316.516
316.818
317.078
317.285
317.445
317.575
317.695
317.833
318.04
318.421
319.136
320.305
321.115
312.725
313.263
314.194
314.95
315.478
315.869
316.223
316.564
316.879
317.148
317.36
317.521
317.652
317.776
317.922
318.138
318.519
319.19
320.211
321.074
312.553
313.269
314.106
315.024
315.478
315.879
316.255
316.615
316.944
317.222
317.435
317.595
317.725
317.851
318.002
318.224
318.599
319.233
320.135
321.028
312.482
313.236
313.934
315.082
315.522
315.9
316.29
316.669
317.014
317.299
317.512
317.668
317.794
317.919
318.074
318.3
318.667
319.265
320.074
320.978
312.438
313.147
313.803
315.128
315.56
315.936
316.331
316.729
317.089
317.38
317.59
317.739
317.859
317.983
318.139
318.367
318.727
319.288
320.023
320.923
312.409
313.059
313.702
315.164
315.586
315.973
316.382
316.796
317.17
317.464
317.669
317.809
317.921
318.042
318.199
318.426
318.779
319.304
319.979
320.865
312.414
312.99
313.611
315.191
315.605
316.01
316.442
316.874
317.257
317.551
317.749
317.878
317.981
318.096
318.252
318.479
318.824
319.315
319.941
320.806
312.414
312.957
313.526
315.21
315.62
316.048
316.509
316.963
317.353
317.644
317.831
317.948
318.039
318.146
318.3
318.527
318.861
319.322
319.907
320.745
312.407
312.94
313.446
315.221
315.633
316.092
316.587
317.063
317.458
317.74
317.914
318.017
318.095
318.193
318.343
318.569
318.89
319.326
319.875
320.684
312.406
312.932
313.366
315.221
315.643
316.142
316.676
317.174
317.572
317.842
318
318.087
318.151
318.238
318.382
318.604
318.914
319.328
319.846
320.623
312.412
312.935
313.284
315.149
315.649
316.199
316.777
317.298
317.693
317.948
318.088
318.157
318.207
318.282
318.417
318.633
318.932
319.327
319.817
320.562
312.424
312.948
313.213
314.736
315.653
316.267
316.889
317.431
317.82
318.057
318.177
318.229
318.264
318.325
318.45
318.656
318.945
319.324
319.789
320.503
312.439
312.959
313.415
314.537
315.674
316.35
317.011
317.571
317.951
318.166
318.266
318.301
318.321
318.369
318.482
318.676
318.955
319.318
319.761
320.444
312.451
312.907
313.451
314.519
315.755
316.452
317.138
317.715
318.081
318.274
318.353
318.373
318.379
318.414
318.514
318.695
318.962
319.311
319.733
320.386
312.435
312.891
313.496
314.604
316.051
316.567
317.265
317.858
318.206
318.376
318.437
318.443
318.438
318.461
318.546
318.713
318.967
319.301
319.705
320.33
312.368
312.89
313.533
316.528
316.752
317.375
317.982
318.316
318.469
318.517
318.512
318.498
318.509
318.58
318.732
318.972
319.291
319.677
320.275
312.526
313
317.983
317.126
317.48
318.081
318.41
318.551
318.589
318.578
318.557
318.559
318.615
318.752
318.976
319.281
319.648
320.22
312.636
318.422
317.97
317.679
318.162
318.491
318.625
318.657
318.642
318.616
318.61
318.654
318.775
318.982
319.27
319.621
320.168
318.595
318.411
318.119
318.231
318.564
318.694
318.722
318.705
318.677
318.664
318.696
318.8
318.99
319.26
319.593
320.116
318.714
318.457
318.398
318.632
318.758
318.785
318.768
318.738
318.72
318.741
318.83
319
319.252
319.567
320.065
318.852
318.614
318.717
318.819
318.846
318.83
318.8
318.779
318.791
318.863
319.014
319.246
319.542
320.016
319.036
318.839
318.878
318.904
318.891
318.863
318.84
318.845
318.901
319.032
319.243
319.519
319.967
319.203
318.941
318.958
318.95
318.925
318.902
318.901
318.944
319.055
319.244
319.498
319.921
319.023
319.009
319.007
318.986
318.963
318.958
318.989
319.082
319.248
319.48
319.875
319.082
319.06
319.045
319.024
319.015
319.037
319.112
319.256
319.465
319.831
319.141
319.101
319.083
319.07
319.085
319.145
319.267
319.453
319.789
319.19
319.14
319.124
319.131
319.179
319.281
319.444
319.749
319.231
319.179
319.176
319.211
319.297
319.438
319.71
319.268
319.223
319.242
319.312
319.433
319.672
319.303
319.275
319.325
319.429
319.636
319.342
319.34
319.424
319.6
319.389
319.422
319.564
319.455
319.539
319.619
)
;

boundaryField
{
    floor
    {
        type            wallHeatTransfer;
        Tinf            uniform 305.2;
        alphaWall       uniform 0.36;
        value           nonuniform List<scalar> 
36
(
312.484
311.391
311.333
310.832
310.552
310.379
310.235
310.18
310.109
309.996
309.871
309.747
309.637
309.582
309.675
310.067
310.53
311.153
311.253
311.253
311.834
312.443
313.53
316.824
317.244
317.452
312.484
313.322
313.433
313.172
311.391
313.172
312.181
313.719
313.164
313.932
)
;
    }
    ceiling
    {
        type            wallHeatTransfer;
        Tinf            uniform 301.2;
        alphaWall       uniform 0.36;
        value           nonuniform List<scalar> 
43
(
319.957
320.252
320.325
320.267
320.203
320.138
320.079
320.021
319.965
319.909
319.854
319.799
319.744
319.688
319.632
319.574
319.516
319.458
319.4
319.342
319.285
319.228
319.172
319.117
319.064
319.011
318.96
318.91
318.861
318.814
318.768
318.724
318.681
318.64
318.599
318.559
318.518
318.478
318.419
318.414
319.862
320.004
321.178
)
;
    }
    sWall
    {
        type            wallHeatTransfer;
        Tinf            uniform 315.2;
        alphaWall       uniform 0.54;
        value           nonuniform List<scalar> 9(319.858 319.981 320.06 320.125 320.185 320.253 320.402 320.449 320.631);
    }
    nWall
    {
        type            wallHeatTransfer;
        Tinf            uniform 308.2;
        alphaWall       uniform 0.54;
        value           nonuniform List<scalar> 
14
(
317.319
317.657
317.956
317.931
317.96
318.052
318.118
318.169
318.22
318.283
318.363
318.463
318.576
318.533
)
;
    }
    sideWalls
    {
        type            empty;
    }
    glass1
    {
        type            wallHeatTransfer;
        Tinf            uniform 315.2;
        alphaWall       uniform 4.3;
        value           nonuniform List<scalar> 9(315.212 315.355 315.512 315.716 315.992 316.363 316.842 317.391 317.811);
    }
    glass2
    {
        type            wallHeatTransfer;
        Tinf            uniform 308.2;
        alphaWall       uniform 4.3;
        value           nonuniform List<scalar> 2(314.961 315.095);
    }
    sun
    {
        type            wallHeatTransfer;
        Tinf            uniform 305.2;
        alphaWall       uniform 0.36;
        value           nonuniform List<scalar> 
14
(
312.954
312.306
312.142
312.231
312.219
312.211
312.216
312.23
312.237
312.221
312.182
312.125
312.122
312.357
)
;
    }
    Table_master
    {
        type            zeroGradient;
    }
    Table_slave
    {
        type            zeroGradient;
    }
    inlet
    {
        type            fixedValue;
        value           uniform 298.15;
    }
    outlet
    {
        type            zeroGradient;
    }
}


// ************************************************************************* //
