/*--------------------------------*- C++ -*----------------------------------*\
  =========                 |
  \\      /  F ield         | OpenFOAM: The Open Source CFD Toolbox
   \\    /   O peration     | Website:  https://openfoam.org
    \\  /    A nd           | Version:  6
     \\/     M anipulation  |
\*---------------------------------------------------------------------------*/
FoamFile
{
    version     2.0;
    format      ascii;
    class       volScalarField;
    location    "43799.9999999361098";
    object      alphat;
}
// * * * * * * * * * * * * * * * * * * * * * * * * * * * * * * * * * * * * * //

dimensions      [1 -1 -1 0 0 0 0];

internalField   nonuniform List<scalar> 
778
(
0.00104101
0.00111055
0.00110653
0.00115454
0.00119853
0.0012385
0.0012757
0.00131158
0.00134771
0.00138612
0.00142278
0.00145762
0.00149196
0.00152889
0.00156742
0.000736781
0.00105578
0.00106439
0.00103867
0.000995578
0.000937931
0.000880477
0.000827582
0.000779929
0.000737222
0.000699166
0.000664979
0.000633831
0.000604752
0.00057645
0.000546856
0.000522258
0.000472684
0.00152469
0.00300733
0.00263934
0.00304642
0.00334173
0.00365475
0.00396696
0.00425469
0.00448635
0.00462135
0.00470083
0.00466852
0.00443614
0.00385975
0.00281921
0.00171641
0.00163651
0.00156651
0.00131865
0.00224654
0.00311447
0.00362739
0.0036516
0.00288121
0.00246417
0.00217506
0.00195551
0.00178084
0.00163194
0.00150038
0.00137797
0.00125822
0.00115075
0.00105808
0.00119136
0.000599331
0.00193419
0.00419885
0.00311335
0.00445338
0.00497599
0.00541806
0.00581946
0.0061727
0.00647203
0.00670693
0.00693466
0.00717467
0.00739571
0.00752806
0.00744265
0.00681579
0.00498535
0.00192161
0.00166346
0.00355801
0.00496624
0.00563357
0.00512466
0.00135235
0.00117603
0.00103992
0.000933368
0.000848554
0.000780092
0.000724263
0.000678867
0.00064348
0.000707321
0.000831921
0.00131646
0.000681856
0.00232916
0.00565851
0.002979
0.00500689
0.00578062
0.00619427
0.00649822
0.00672293
0.00689061
0.00702669
0.0072204
0.00754815
0.00802684
0.00862917
0.00923503
0.00953449
0.00895466
0.00668184
0.00191362
0.00442974
0.00658981
0.00768871
0.00796147
0.00679852
0.0015394
0.00140033
0.00129269
0.00120312
0.00112675
0.00105815
0.000993473
0.000929249
0.000859911
0.000803252
0.000832309
0.00142427
0.000750914
0.00271845
0.00749061
0.00300555
0.0047592
0.00594883
0.00630146
0.00642911
0.00643355
0.0063692
0.00631235
0.00639331
0.00671159
0.00729615
0.00812434
0.00908493
0.00996996
0.0105315
0.0105254
0.009446
0.00961006
0.00982968
0.00986091
0.00966154
0.00904483
0.00719942
0.00621978
0.00554863
0.00500357
0.00446853
0.00395005
0.00344272
0.00293599
0.00241538
0.00185551
0.00141628
0.00141309
0.0011185
0.000894981
0.00117179
0.00112875
0.0031014
0.00954077
0.00353844
0.00401297
0.00569929
0.00609064
0.00605889
0.00584035
0.0055282
0.00527076
0.00526491
0.00559828
0.0062643
0.00722463
0.00834842
0.00947083
0.0104255
0.0110349
0.0111455
0.0110327
0.0108363
0.0105585
0.0102023
0.0097493
0.00908793
0.00845048
0.00787153
0.00731206
0.00670763
0.00606194
0.00537212
0.00463231
0.00383784
0.00299507
0.00223303
0.00167687
0.00130203
0.00145124
0.00250899
0.00135244
0.00349217
0.0114359
0.00471519
0.00328763
0.00512049
0.00576081
0.00568946
0.00533625
0.00482409
0.00437348
0.00436015
0.00478078
0.00554309
0.00661681
0.00783825
0.00904684
0.0100862
0.0108298
0.0111711
0.0111435
0.0108978
0.0105265
0.0101021
0.00967903
0.00927005
0.00889469
0.00854203
0.00816583
0.0077113
0.00716406
0.00651602
0.00576399
0.00491082
0.00397869
0.00306905
0.00222266
0.00163794
0.00145638
0.00254589
0.0015897
0.0038279
0.0128686
0.00642785
0.00313087
0.00405564
0.00510629
0.00525297
0.00496299
0.0043573
0.00374503
0.00388332
0.00443958
0.0052922
0.00639887
0.00766798
0.00893342
0.0100117
0.01076
0.0110989
0.0110533
0.0107359
0.0102687
0.00976657
0.00932157
0.00897872
0.00873378
0.00854278
0.0083354
0.00804679
0.00764284
0.00710758
0.00643763
0.00563924
0.00473684
0.00380113
0.00286181
0.0020146
0.00133919
0.0035895
0.00206203
0.00392909
0.0121736
0.00795072
0.00404816
0.00275014
0.00336826
0.00394186
0.00399085
0.00352353
0.00342471
0.00378027
0.00443459
0.00535671
0.00653054
0.00786085
0.00916532
0.0102398
0.0109301
0.0111716
0.0110035
0.0105438
0.00994125
0.00934357
0.00886693
0.00856456
0.00841609
0.00834863
0.00826873
0.00810253
0.00781061
0.00737723
0.00680041
0.00608739
0.00525866
0.00435297
0.00334206
0.00199457
0.00165073
0.00533277
0.00236776
0.00384958
0.00981061
0.00820769
0.0055544
0.00366984
0.00284148
0.00269034
0.00281624
0.00305294
0.00342953
0.00396405
0.00470074
0.00570387
0.00696951
0.008372
0.00969449
0.0107124
0.011272
0.0113295
0.0109522
0.0102884
0.0095243
0.00884205
0.00837486
0.00816105
0.00813595
0.00818172
0.00818037
0.00807198
0.00783478
0.00746124
0.00695035
0.0063064
0.00553702
0.00460837
0.00318644
0.00150625
0.00309647
0.00527753
0.00239578
0.00360582
0.00838309
0.00793333
0.00635367
0.00489188
0.00393925
0.00346774
0.00336089
0.00355585
0.00391494
0.00443766
0.00521568
0.00632361
0.00771075
0.00918362
0.0104769
0.011353
0.011678
0.0114481
0.0107777
0.00986637
0.00895291
0.00825855
0.00791081
0.00787122
0.00798472
0.00809829
0.00809991
0.00798488
0.00775443
0.0074036
0.00692589
0.00631703
0.00556108
0.00449148
0.00252137
0.00178173
0.00362692
0.00487102
0.0023541
0.00328296
0.00755738
0.00765095
0.00672335
0.00572149
0.00496678
0.00452232
0.00436372
0.00440363
0.0046209
0.00510192
0.0059719
0.00725261
0.00878755
0.0102893
0.0114503
0.0120466
0.0119956
0.0113615
0.0103292
0.00917551
0.00821114
0.00766716
0.00755867
0.00765388
0.00780173
0.00789892
0.00787091
0.00773765
0.00750548
0.00716484
0.00669739
0.00608492
0.0052996
0.00408588
0.00200768
0.00207282
0.00382486
0.00479899
0.00228611
0.00299326
0.00675812
0.00730329
0.00686665
0.00622456
0.0056847
0.00532567
0.00515033
0.00509907
0.00528666
0.00589929
0.00703674
0.00858503
0.0102429
0.0116421
0.0124782
0.0125944
0.012001
0.0108644
0.00946799
0.00820101
0.00739332
0.00704443
0.00700404
0.00709954
0.00722356
0.00730404
0.00728231
0.00715163
0.00692058
0.00657281
0.00607958
0.00541505
0.00456347
0.00343735
0.00202964
0.00213605
0.00392799
0.0053894
0.00230539
0.00300378
0.00670668
0.00746143
0.00694847
0.00642891
0.00600334
0.00569661
0.00549799
0.00549307
0.00594877
0.00702978
0.00863986
0.0104505
0.0120428
0.0130521
0.0132677
0.0126703
0.0113977
0.00976567
0.00818691
0.00704964
0.00639316
0.00608729
0.0060029
0.00603822
0.00611708
0.006183
0.00617859
0.00604746
0.00579499
0.00538798
0.00478915
0.00401437
0.00318597
0.00249418
0.00204745
0.00234437
0.00418277
0.00533464
0.00244141
0.00270987
0.00281962
0.00416553
0.00489787
0.00512535
0.00513023
0.00508194
0.0051806
0.00581644
0.00716446
0.00905318
0.0110812
0.0128032
0.0138551
0.0140313
0.0133005
0.0118401
0.00991779
0.00808663
0.00666759
0.00572883
0.00518986
0.00492714
0.00481319
0.0047647
0.00474033
0.00471874
0.00466808
0.00450076
0.0042021
0.00374036
0.00313523
0.00253971
0.00215877
0.00207378
0.00226602
0.00290279
0.00481332
0.00550951
0.00246778
0.000964984
0.00174003
0.00266889
0.00341245
0.00427728
0.00575369
0.0079212
0.010317
0.0124818
0.0140791
0.0148872
0.0147719
0.0137533
0.0119441
0.0098064
0.00779181
0.00621074
0.00516007
0.00458062
0.00428486
0.00411098
0.00397557
0.00384757
0.00371999
0.00359343
0.00346308
0.003295
0.00304926
0.00272921
0.00239537
0.00218636
0.00220768
0.00246016
0.00292016
0.00368245
0.0052049
0.00599088
0.00245529
0.00178715
0.00246886
0.00359017
0.00559515
0.00831878
0.0110388
0.0131415
0.0146432
0.0155267
0.0157338
0.0151592
0.0137059
0.011605
0.00926955
0.0071665
0.00562116
0.0047278
0.0042992
0.00408724
0.00394747
0.00382452
0.00370444
0.00358882
0.00348247
0.00338676
0.0032953
0.00318922
0.0030515
0.00289246
0.00275195
0.00270986
0.00284128
0.00315568
0.00360685
0.00414305
0.00467433
0.00487296
0.0023531
0.00323895
0.00785863
0.00724687
0.00648374
0.00822967
0.0109634
0.0132651
0.014811
0.0156135
0.0157907
0.015429
0.0145011
0.0129778
0.0109295
0.00867058
0.00668252
0.00537147
0.00471765
0.00442181
0.00425284
0.00411142
0.00396963
0.0038292
0.00370287
0.00360535
0.00354749
0.00353181
0.00354934
0.00357627
0.00358192
0.00357872
0.00359637
0.00367294
0.00385068
0.00415398
0.0045666
0.0050272
0.00535631
0.00534933
0.00236173
0.00309578
0.00598001
0.00772559
0.00988357
0.0109632
0.012077
0.012723
0.0128744
0.012619
0.0120142
0.0110767
0.0098092
0.00829437
0.00676935
0.00554862
0.00479731
0.00440536
0.004204
0.00406844
0.00394217
0.00380899
0.00367265
0.00354714
0.0034517
0.0034066
0.0034282
0.00352338
0.00368369
0.00387809
0.00404427
0.00416383
0.00428532
0.00445066
0.00469358
0.00503856
0.00549665
0.00606154
0.00672528
0.00606331
0.0026643
0.0028945
0.00248043
0.00246747
0.00253833
0.00259617
0.00251542
0.00236068
0.00217955
0.00199643
0.00182106
0.00165769
0.00151197
0.00139285
0.00130888
0.00126118
0.00124134
0.00123915
0.00124377
0.00125148
0.00126189
0.00127628
0.00129669
0.00132502
0.00136214
0.00140733
0.00145836
0.00151231
0.00156662
0.00162001
0.00167306
0.00172631
0.00178144
0.00184244
0.00191315
0.00199595
0.00209056
0.00219319
0.00230157
0.0024288
0.00245263
)
;

boundaryField
{
    floor
    {
        type            compressible::alphatWallFunction;
        Prt             0.85;
        value           nonuniform List<scalar> 
36
(
0.000219895
0.000104476
0.000149993
0.000151197
0.000147597
0.000141541
0.000133393
0.000125213
0.000117627
0.000110744
0.000104532
9.896e-05
9.39237e-05
8.93075e-05
8.49732e-05
8.073e-05
7.62656e-05
7.25323e-05
6.49413e-05
6.49405e-05
8.41635e-05
9.64153e-05
0.00010653
0.000127288
0.000166138
0.000160186
0.000219893
0.000239725
0.000229113
0.000219769
0.000104475
0.000219767
0.000186289
0.000266729
0.00023269
0.000265683
)
;
    }
    ceiling
    {
        type            compressible::alphatWallFunction;
        Prt             0.85;
        value           nonuniform List<scalar> 
43
(
0.000391147
0.000338873
0.000337227
0.000346249
0.000353603
0.000343391
0.00032369
0.000300437
0.000276704
0.000253743
0.000232123
0.000212633
0.000196543
0.000185114
0.000178595
0.000175887
0.000175599
0.000176243
0.000177307
0.000178733
0.000180695
0.000183468
0.000187311
0.000192344
0.000198468
0.000205375
0.000212664
0.000219984
0.000227158
0.000234257
0.000241358
0.000248671
0.000256721
0.000266005
0.000276829
0.000289141
0.000302439
0.000316442
0.000332798
0.000335719
0.00036827
0.000382066
0.000248586
)
;
    }
    sWall
    {
        type            compressible::alphatWallFunction;
        Prt             0.85;
        value           nonuniform List<scalar> 9(0.000507617 0.000477881 0.00043818 0.00040222 0.000403523 0.000366695 0.000432101 0.000414398 0.000389396);
    }
    nWall
    {
        type            compressible::alphatWallFunction;
        Prt             0.85;
        value           nonuniform List<scalar> 
14
(
0.000159738
0.00019045
0.000222407
0.000327562
0.000322225
0.000313572
0.000316308
0.000333517
0.000336872
0.000334954
0.000321998
0.000323437
0.000362073
0.000335029
)
;
    }
    sideWalls
    {
        type            empty;
    }
    glass1
    {
        type            compressible::alphatWallFunction;
        Prt             0.85;
        value           nonuniform List<scalar> 9(0.000143931 0.000209139 0.000262697 0.000313308 0.000362383 0.000410007 0.000458017 0.000498873 0.000511235);
    }
    glass2
    {
        type            compressible::alphatWallFunction;
        Prt             0.85;
        value           nonuniform List<scalar> 2(0.000282378 0.000321658);
    }
    sun
    {
        type            compressible::alphatWallFunction;
        Prt             0.85;
        value           nonuniform List<scalar> 
14
(
0.000147965
0.000157648
0.000157086
0.000163751
0.00016983
0.00017533
0.000180433
0.000185337
0.00019026
0.000195478
0.000200442
0.000205147
0.000209773
0.000214734
)
;
    }
    Table_master
    {
        type            compressible::alphatWallFunction;
        Prt             0.85;
        value           nonuniform List<scalar> 9(0.000191148 0.000166972 0.000148026 0.000132994 0.000120885 0.000111006 0.000102873 9.62036e-05 9.09674e-05);
    }
    Table_slave
    {
        type            compressible::alphatWallFunction;
        Prt             0.85;
        value           nonuniform List<scalar> 9(0.000216411 0.000197666 0.000183014 0.000170715 0.000160147 0.000150583 0.0001415 0.000132412 0.000122518);
    }
    inlet
    {
        type            fixedValue;
        value           uniform 1.94e-05;
    }
    outlet
    {
        type            zeroGradient;
    }
}


// ************************************************************************* //
