/*--------------------------------*- C++ -*----------------------------------*\
  =========                 |
  \\      /  F ield         | OpenFOAM: The Open Source CFD Toolbox
   \\    /   O peration     | Website:  https://openfoam.org
    \\  /    A nd           | Version:  6
     \\/     M anipulation  |
\*---------------------------------------------------------------------------*/
FoamFile
{
    version     2.0;
    format      ascii;
    class       volScalarField;
    location    "14500";
    object      alphat;
}
// * * * * * * * * * * * * * * * * * * * * * * * * * * * * * * * * * * * * * //

dimensions      [1 -1 -1 0 0 0 0];

internalField   nonuniform List<scalar> 
778
(
0.00104098
0.00111055
0.00110658
0.00115465
0.0011987
0.0012387
0.00127595
0.00131185
0.00134798
0.00138638
0.00142299
0.00145775
0.001492
0.00152883
0.00156727
0.000736816
0.00105527
0.00106375
0.00103794
0.00099484
0.000937326
0.000880043
0.000827262
0.000779654
0.000736948
0.000698888
0.000664702
0.000633563
0.000604502
0.000576223
0.000546655
0.000522116
0.000472592
0.00152464
0.00300728
0.00263927
0.00304629
0.00334172
0.00365497
0.00396746
0.00425545
0.00448723
0.00462211
0.00470141
0.0046687
0.00443582
0.00385905
0.00281853
0.00171599
0.00163612
0.00156615
0.00131877
0.00224618
0.00311283
0.00362433
0.00364793
0.00287946
0.00246255
0.00217357
0.00195437
0.00178011
0.00163146
0.00149998
0.00137761
0.00125788
0.00115043
0.00105775
0.00119175
0.000599165
0.0019341
0.00419873
0.0031135
0.00445314
0.00497582
0.00541821
0.00582003
0.00617367
0.00647321
0.00670796
0.00693545
0.00717478
0.00739467
0.00752554
0.00743878
0.00681135
0.00498225
0.0019212
0.00166382
0.00355981
0.00496737
0.00563242
0.00512163
0.00135138
0.00117497
0.00103893
0.000932532
0.000847889
0.000779583
0.000723869
0.000678544
0.000643198
0.000707216
0.000831992
0.00131818
0.000681644
0.00232903
0.00565825
0.00297923
0.00500691
0.00578044
0.00619436
0.00649871
0.00672386
0.0068919
0.00702806
0.0072218
0.00754912
0.00802674
0.00862752
0.00923189
0.00953042
0.00895094
0.00668139
0.00191369
0.00443055
0.00659407
0.00769309
0.0079635
0.0067977
0.00153912
0.00139982
0.001292
0.00120234
0.00112597
0.0010574
0.000992762
0.000928567
0.000859215
0.000802797
0.000832427
0.00142806
0.000750421
0.00271827
0.00749022
0.00300558
0.00475968
0.0059488
0.00630149
0.00642938
0.00643415
0.00637014
0.00631353
0.00639465
0.00671258
0.00729595
0.00812237
0.00908154
0.00996609
0.0105281
0.0105231
0.00944504
0.00961125
0.00983305
0.00986459
0.00966375
0.00904451
0.00719715
0.00621637
0.00554463
0.00499874
0.00446356
0.00394526
0.00343825
0.00293198
0.00241202
0.00185256
0.00141335
0.00141328
0.00111769
0.000895331
0.00119288
0.00113667
0.00310119
0.00954036
0.00353814
0.00401373
0.00569958
0.00609067
0.00605891
0.00584043
0.00552841
0.00527121
0.00526551
0.00559842
0.00626274
0.00722047
0.00834233
0.00946442
0.0104199
0.0110313
0.0111438
0.0110333
0.0108387
0.0105615
0.0102045
0.00974984
0.00908657
0.00844771
0.00786779
0.00730699
0.00670164
0.00605545
0.00536547
0.00462587
0.00383205
0.00298975
0.00222656
0.00167165
0.00129788
0.00146661
0.0025639
0.00135647
0.00349195
0.0114356
0.00471461
0.00328811
0.00512133
0.00576101
0.00568924
0.00533574
0.00482342
0.0043731
0.00436027
0.00478048
0.00554052
0.00661076
0.00782936
0.00903695
0.0100772
0.0108231
0.011167
0.011142
0.0108983
0.0105281
0.0101037
0.00968002
0.00927014
0.00889405
0.00854073
0.00816333
0.00770751
0.00715908
0.00651004
0.00575744
0.00490432
0.00397208
0.00305965
0.00220874
0.0016259
0.0014613
0.00261303
0.00160454
0.0038277
0.0128685
0.00642724
0.00313044
0.00405728
0.0051078
0.0052533
0.0049624
0.00435779
0.00374464
0.00388364
0.00443938
0.00528941
0.0063922
0.00765796
0.00892188
0.0100007
0.0107507
0.0110921
0.0110489
0.0107337
0.0102681
0.00976704
0.00932242
0.0089796
0.00873468
0.00854363
0.0083356
0.00804592
0.00764055
0.00710376
0.00643259
0.0056337
0.0047304
0.00378923
0.00283366
0.00197209
0.00133234
0.00384903
0.00212491
0.00392892
0.0121732
0.00795017
0.00404628
0.0027495
0.00337099
0.00394496
0.00399244
0.00352498
0.00342545
0.00378115
0.00443464
0.00535421
0.00652452
0.00785182
0.00915477
0.0102291
0.0109201
0.0111629
0.0109964
0.0105387
0.00993841
0.00934274
0.00886738
0.00856563
0.00841764
0.0083507
0.00827093
0.00810439
0.00781154
0.00737683
0.00679891
0.00608546
0.00525503
0.00434097
0.00330901
0.001891
0.00170843
0.00610113
0.00240179
0.00384946
0.00981091
0.00820747
0.00555247
0.00366693
0.00283932
0.00269011
0.00281738
0.00305345
0.00342984
0.00396446
0.0047005
0.00570194
0.00696558
0.00836658
0.00968814
0.0107051
0.0112635
0.01132
0.0109426
0.0102806
0.00951941
0.00884014
0.00837458
0.00816124
0.00813676
0.00818371
0.0081833
0.00807578
0.00783888
0.00746539
0.00695528
0.00631287
0.00554256
0.00462192
0.00331723
0.00144404
0.00312888
0.00574312
0.00244461
0.00360584
0.00838441
0.00793381
0.00635236
0.00488905
0.00393575
0.00346428
0.00335771
0.00355299
0.00391288
0.00443633
0.00521471
0.00632309
0.00771132
0.00918547
0.0104787
0.0113525
0.0116729
0.0114384
0.0107657
0.00985603
0.00894645
0.008255
0.00790749
0.00786777
0.00798335
0.00810015
0.00810233
0.00798899
0.00775983
0.00741071
0.00693734
0.00633185
0.00556523
0.00452633
0.00298218
0.0015746
0.00331702
0.00638826
0.00247588
0.00328322
0.00755958
0.00765245
0.00672306
0.00571965
0.00496387
0.0045186
0.00435875
0.00439902
0.00461705
0.00509905
0.00597114
0.00725616
0.00879717
0.010304
0.0114653
0.0120557
0.0119945
0.011351
0.0103144
0.00916365
0.00820213
0.00765553
0.00754627
0.00764542
0.00780125
0.00790244
0.00787363
0.00774124
0.00750854
0.00716915
0.00670815
0.00608291
0.00519341
0.00383988
0.00229237
0.00185346
0.00374376
0.0064797
0.00261632
0.00299374
0.00676252
0.00730687
0.00686781
0.00622398
0.00568279
0.00532261
0.00514664
0.00509511
0.00528244
0.00589626
0.00703919
0.00859829
0.0102693
0.0116773
0.0125116
0.0126144
0.0120024
0.0108525
0.00945099
0.00818619
0.00737058
0.00701029
0.00697286
0.00709039
0.00724002
0.00732935
0.00729812
0.00716071
0.00692151
0.00657069
0.00607175
0.00531016
0.00406507
0.00250523
0.00181427
0.00234519
0.00429186
0.00663535
0.00259063
0.00300396
0.00671279
0.00746548
0.00695029
0.00642921
0.00600234
0.00569454
0.00549595
0.00548979
0.00594406
0.00702859
0.00865156
0.0104833
0.0120971
0.0131162
0.013322
0.0126982
0.0113981
0.00975468
0.00816315
0.00700459
0.00631967
0.00600799
0.00595593
0.00605061
0.00618283
0.0062604
0.00622375
0.00606621
0.00579906
0.00541155
0.00484508
0.00394774
0.00269923
0.00185039
0.00200969
0.00294184
0.0044334
0.00578049
0.00242047
0.00270994
0.00282054
0.00416496
0.00489665
0.00512411
0.00512935
0.00508186
0.00517925
0.00581072
0.00715815
0.00905872
0.0111135
0.0128703
0.0139497
0.0141295
0.0133718
0.0118682
0.00991461
0.00805257
0.0065901
0.00560875
0.00505597
0.00482062
0.00477401
0.00481443
0.00486021
0.00484513
0.0047323
0.00450535
0.00419765
0.00382455
0.00337406
0.00280107
0.00217474
0.00189779
0.00230603
0.00329043
0.0044802
0.005188
0.00230214
0.000963483
0.00173686
0.00266599
0.00341348
0.00428243
0.00575104
0.0079129
0.0103162
0.0125086
0.0141501
0.0150045
0.0149149
0.0138841
0.0120268
0.00982388
0.00774134
0.00608956
0.00499021
0.00439668
0.00412083
0.00400011
0.00394132
0.00388921
0.00380337
0.00365938
0.00345958
0.00322727
0.00299755
0.00279629
0.00262492
0.00246721
0.00232508
0.00230924
0.00266941
0.00355427
0.00478516
0.00601221
0.00237513
0.00178739
0.00247144
0.00359794
0.00560687
0.00832583
0.0110462
0.013147
0.0146657
0.0155912
0.0158552
0.0153318
0.0138935
0.0117588
0.00933905
0.00711605
0.00545448
0.00448517
0.00402775
0.00383243
0.00374901
0.00370676
0.0036676
0.00360683
0.00351192
0.00338764
0.0032552
0.00313958
0.00305722
0.00301108
0.00299294
0.00299722
0.00303594
0.00315796
0.00347672
0.00420359
0.00574133
0.00645958
0.00253959
0.0032376
0.00787229
0.00726946
0.00650352
0.00824811
0.0109722
0.0132622
0.0148056
0.0156223
0.0158288
0.0155241
0.0146532
0.0131494
0.0110524
0.00865142
0.00647623
0.00500955
0.00426891
0.0039644
0.00386152
0.00384675
0.00386588
0.00388652
0.00388778
0.00386106
0.00381128
0.00375327
0.00370336
0.00367209
0.00366318
0.00367764
0.00372064
0.0038033
0.00394835
0.00419843
0.00463642
0.00543324
0.00727417
0.00737328
0.00262792
0.00309494
0.00598238
0.00772693
0.00989146
0.010976
0.0120861
0.0127265
0.012875
0.012626
0.0120453
0.0111532
0.00994573
0.00846003
0.00686102
0.00542912
0.00442453
0.00386667
0.00360841
0.00352382
0.00354119
0.00361644
0.00371537
0.00380979
0.0038806
0.00392145
0.00393822
0.00394315
0.00394705
0.00395542
0.00397127
0.00400236
0.00406661
0.00419354
0.00441816
0.00477508
0.00530359
0.00604311
0.00738621
0.0077616
0.0027019
0.00289506
0.00248118
0.0024689
0.00254102
0.00260054
0.00252319
0.00237382
0.00220061
0.00202747
0.00186194
0.00170436
0.00155576
0.00142335
0.00132075
0.00126021
0.00123417
0.00123017
0.00123925
0.00125539
0.00127479
0.00129508
0.00131488
0.00133367
0.00135164
0.00136961
0.00138888
0.00141099
0.00143777
0.00147155
0.00151557
0.00157413
0.0016518
0.00175153
0.00187279
0.00201177
0.00216426
0.00232869
0.00250344
0.00267791
0.00251095
)
;

boundaryField
{
    floor
    {
        type            compressible::alphatWallFunction;
        Prt             0.85;
        value           nonuniform List<scalar> 
36
(
0.000219875
0.000104482
0.000149922
0.000151107
0.000147495
0.000141437
0.000133307
0.000125151
0.000117581
0.000110704
0.000104492
9.89193e-05
9.38827e-05
8.92677e-05
8.49358e-05
8.06958e-05
7.62352e-05
7.25107e-05
6.49272e-05
6.49264e-05
8.41383e-05
9.6383e-05
0.000106456
0.000127335
0.000169042
0.000161266
0.000219873
0.00023967
0.000229061
0.000219721
0.000104481
0.000219718
0.000186304
0.000266675
0.000232738
0.000265693
)
;
    }
    ceiling
    {
        type            compressible::alphatWallFunction;
        Prt             0.85;
        value           nonuniform List<scalar> 
43
(
0.00039122
0.000338968
0.00033741
0.000346588
0.00035415
0.000344366
0.000325352
0.000303132
0.000280728
0.000259116
0.00023835
0.000218572
0.000200767
0.00018683
0.000178533
0.000174947
0.000174386
0.000175628
0.000177844
0.000180509
0.000183295
0.000186012
0.000188586
0.000191041
0.00019349
0.000196105
0.000199095
0.000202701
0.000207227
0.000213097
0.000220869
0.000231135
0.000244274
0.000260193
0.000278361
0.000298184
0.000319391
0.000341771
0.000363967
0.000342762
0.000368277
0.00038218
0.000248617
)
;
    }
    sWall
    {
        type            compressible::alphatWallFunction;
        Prt             0.85;
        value           nonuniform List<scalar> 9(0.000507603 0.000477883 0.000438212 0.00040228 0.000403544 0.000366702 0.000431934 0.000414296 0.000389469);
    }
    nWall
    {
        type            compressible::alphatWallFunction;
        Prt             0.85;
        value           nonuniform List<scalar> 
14
(
0.000160818
0.000190976
0.000224363
0.000333754
0.000337781
0.000355511
0.000351666
0.000330179
0.000315334
0.000325295
0.000345816
0.000356971
0.000366237
0.000342068
)
;
    }
    sideWalls
    {
        type            empty;
    }
    glass1
    {
        type            compressible::alphatWallFunction;
        Prt             0.85;
        value           nonuniform List<scalar> 9(0.000143926 0.000209131 0.000262685 0.000313291 0.00036236 0.000409981 0.00045799 0.000498849 0.000511214);
    }
    glass2
    {
        type            compressible::alphatWallFunction;
        Prt             0.85;
        value           nonuniform List<scalar> 2(0.000290461 0.000325872);
    }
    sun
    {
        type            compressible::alphatWallFunction;
        Prt             0.85;
        value           nonuniform List<scalar> 
14
(
0.00014796
0.000157647
0.000157094
0.000163766
0.000169852
0.000175358
0.000180466
0.000185373
0.000190297
0.000195514
0.000200471
0.000205166
0.000209779
0.000214726
)
;
    }
    Table_master
    {
        type            compressible::alphatWallFunction;
        Prt             0.85;
        value           nonuniform List<scalar> 9(0.000191015 0.000166825 0.000147888 0.000132876 0.00012079 0.000110932 0.000102815 9.61562e-05 9.09255e-05);
    }
    Table_slave
    {
        type            compressible::alphatWallFunction;
        Prt             0.85;
        value           nonuniform List<scalar> 9(0.000216374 0.000197597 0.000182918 0.000170608 0.000160038 0.000150478 0.0001414 0.000132316 0.000122418);
    }
    inlet
    {
        type            fixedValue;
        value           uniform 1.94e-05;
    }
    outlet
    {
        type            zeroGradient;
    }
}


// ************************************************************************* //
