/*--------------------------------*- C++ -*----------------------------------*\
  =========                 |
  \\      /  F ield         | OpenFOAM: The Open Source CFD Toolbox
   \\    /   O peration     | Website:  https://openfoam.org
    \\  /    A nd           | Version:  6
     \\/     M anipulation  |
\*---------------------------------------------------------------------------*/
FoamFile
{
    version     2.0;
    format      ascii;
    class       volScalarField;
    location    "2510";
    object      nut;
}
// * * * * * * * * * * * * * * * * * * * * * * * * * * * * * * * * * * * * * //

dimensions      [0 2 -1 0 0 0 0];

internalField   nonuniform List<scalar> 
458
(
0.0010694
0.00116385
0.00119015
0.00124709
0.00129953
0.00134918
0.00139885
0.00144928
0.0014905
0.0015164
0.00151932
0.00149174
0.00142419
0.00128118
0.00097197
0.000480384
0.000563152
0.000638471
0.000665725
0.000655305
0.000613235
0.000566688
0.000525038
0.000488958
0.00045762
0.000430257
0.000406311
0.000385078
0.000365739
0.000347395
0.000328976
0.000318032
0.00029229
0.00144196
0.00324213
0.00299025
0.00342623
0.00386091
0.00430804
0.00470919
0.00501942
0.00533804
0.00563622
0.00587538
0.0060207
0.00603431
0.00582455
0.00473409
0.00128297
0.0010644
0.000868435
0.00047652
0.00113084
0.00164828
0.00204888
0.00217553
0.00158549
0.00133846
0.00117037
0.00104634
0.000951289
0.000875898
0.00081089
0.000749769
0.000688762
0.000634272
0.000588569
0.00071999
0.000384242
0.00175321
0.00435767
0.00359597
0.00438456
0.00471603
0.00494881
0.00512775
0.00529281
0.00552248
0.00580152
0.0061064
0.00640532
0.00664158
0.00672466
0.0063367
0.00516455
0.00391417
0.00102568
0.000733987
0.00126657
0.00184309
0.00241665
0.00258052
0.00082421
0.000721588
0.000636194
0.000567032
0.000511219
0.000465989
0.000429222
0.000399491
0.000376365
0.000417094
0.00048304
0.000844728
0.00045409
0.00205318
0.00556651
0.00349819
0.00454283
0.00472449
0.00470674
0.00469023
0.00476952
0.0049562
0.00523209
0.00558273
0.00597399
0.00631707
0.00653319
0.00648478
0.00614959
0.005278
0.00289761
0.00118163
0.0015049
0.00206905
0.00275989
0.00335869
0.00338834
0.000928448
0.000851068
0.000798361
0.00075946
0.000726562
0.00069388
0.000662832
0.000630024
0.000591673
0.000557315
0.00054916
0.00100685
0.000522993
0.00235968
0.00719301
0.00366947
0.00431258
0.0045723
0.0044181
0.00429265
0.00436473
0.00456181
0.00484881
0.00522679
0.00565579
0.00599204
0.00615977
0.00615605
0.00603891
0.00569106
0.00470602
0.00426545
0.0042966
0.00454735
0.00484604
0.00502932
0.00494701
0.00422103
0.00384764
0.00364178
0.00349432
0.00334506
0.00315275
0.00282603
0.0024052
0.00192648
0.0014654
0.00109902
0.0010238
0.00088883
0.000699208
0.000740174
0.000804525
0.00268783
0.00902586
0.00502594
0.00399298
0.0043523
0.00434395
0.00418404
0.00424392
0.00444492
0.00473198
0.00511531
0.00552671
0.00583785
0.00593768
0.00584394
0.0057096
0.0056493
0.0055684
0.0057363
0.00602738
0.00623171
0.00626841
0.00613143
0.00584439
0.00544345
0.00511756
0.00486369
0.00464
0.00442042
0.00418731
0.00388607
0.00347325
0.002951
0.00236034
0.00181363
0.00131492
0.00108077
0.000942861
0.00118734
0.000834447
0.00301092
0.0104109
0.00750081
0.00490838
0.00427134
0.0043332
0.00438912
0.00442087
0.0045342
0.00478698
0.00516421
0.00557207
0.00585763
0.00589002
0.00571168
0.00558294
0.00579799
0.00627375
0.00675798
0.00703139
0.00703262
0.00679886
0.0064025
0.00591976
0.00543916
0.00505225
0.00475926
0.00452169
0.0043139
0.00412725
0.00395733
0.0037353
0.00337006
0.00288234
0.00237571
0.00188893
0.00157133
0.00143951
0.00137215
0.000991352
0.00309062
0.00966328
0.00820301
0.00688315
0.00587483
0.00542874
0.00501037
0.00472519
0.00471875
0.00495951
0.0053498
0.00575312
0.00599399
0.00594026
0.00572198
0.00577832
0.00639184
0.00689514
0.00715723
0.00714546
0.00686169
0.00637062
0.00576592
0.00515637
0.00464999
0.00429513
0.00405579
0.00388387
0.00375661
0.00367082
0.0036327
0.0036342
0.00353671
0.0032468
0.00296408
0.00280649
0.00287504
0.00303505
0.00360536
0.00153578
0.0030299
0.00365338
0.0040343
0.00424626
0.0042757
0.00421072
0.00421082
0.00438498
0.00474076
0.00519551
0.00566247
0.00603173
0.00615204
0.00594282
0.00588506
0.00619711
0.00655724
0.00668077
0.0065917
0.00627979
0.00575704
0.00511115
0.00446655
0.00393761
0.00357182
0.00333884
0.00318253
0.00306375
0.00296245
0.00286732
0.00276967
0.00266245
0.00256527
0.00248123
0.00242561
0.00239433
0.00233475
0.00221199
0.00206279
0.00143461
0.00133538
0.002347
0.00322212
0.00390663
0.00453165
0.00514082
0.00562522
0.00595203
0.00616687
0.00620086
0.00600196
0.00575713
0.00575929
0.00586275
0.00578415
0.00555142
0.00518431
0.00468994
0.00412102
0.0035654
0.00312315
0.00282534
0.00264277
0.00253071
0.00245629
0.00240208
0.00236047
0.00232975
0.00231248
0.00231791
0.00233146
0.00234357
0.0023443
0.00230733
0.0021931
0.00199169
0.00174211
0.00115434
0.00201498
0.00395719
0.00507492
0.00580018
0.00636513
0.00641547
0.00608727
0.0057569
0.00547358
0.00492875
0.00454052
0.00445048
0.0043892
0.00421752
0.0039587
0.00363785
0.00326157
0.00286576
0.00250894
0.0022313
0.00203998
0.00192972
0.00187808
0.00186696
0.00188529
0.00192593
0.00198272
0.00204842
0.00212533
0.00221368
0.00230819
0.00240102
0.00247657
0.00251443
0.00247939
0.00244884
0.00225463
0.00116932
0.00211916
0.00217152
0.00221907
0.00246888
0.00233372
0.00206819
0.00174478
0.00148453
0.00132511
0.00117365
0.00104026
0.000935793
0.000847335
0.000780269
0.00073365
0.000699588
0.000672191
0.000648616
0.00062915
0.000616017
0.00061112
0.000614811
0.000625727
0.000641773
0.000662048
0.000686075
0.000713713
0.000745132
0.00078085
0.000821991
0.000868792
0.000920916
0.000978629
0.0010422
0.00111167
0.00119494
0.00123138
0.00120617
0.0011219
0.00103762
)
;

boundaryField
{
    floor
    {
        type            nutkWallFunction;
        Cmu             0.09;
        kappa           0.41;
        E               9.8;
        value           nonuniform List<scalar> 
36
(
0.000117415
5.72031e-05
6.77269e-05
7.71386e-05
8.05103e-05
7.92231e-05
7.40009e-05
6.81719e-05
6.29062e-05
5.8303e-05
5.42705e-05
5.0721e-05
4.75915e-05
4.47967e-05
4.22341e-05
3.97871e-05
3.73132e-05
3.58347e-05
3.233e-05
3.23299e-05
4.46856e-05
5.38133e-05
6.26456e-05
8.46294e-05
8.96381e-05
9.74411e-05
0.000117415
0.00015352
0.000128266
0.000105117
5.7203e-05
0.000105117
5.67064e-05
0.000123735
8.88842e-05
0.000141878
)
;
    }
    ceiling
    {
        type            nutkWallFunction;
        Cmu             0.09;
        kappa           0.41;
        E               9.8;
        value           nonuniform List<scalar> 
43
(
0.000246191
0.000251844
0.000256969
0.000283773
0.000269378
0.000240779
0.000205386
0.000176377
0.000158332
0.000140959
0.000125446
0.000113138
0.000102591
9.45089e-05
8.88429e-05
8.46761e-05
8.13072e-05
7.83949e-05
7.59808e-05
7.43469e-05
7.37366e-05
7.41966e-05
7.55553e-05
7.75473e-05
8.00557e-05
8.30164e-05
8.64069e-05
9.02423e-05
9.45792e-05
9.9546e-05
0.000105161
0.000111373
0.000118204
0.000125675
0.00013378
0.000143419
0.000147614
0.000144714
0.000134969
0.000125139
0.000343193
0.000407607
0.000234817
)
;
    }
    sWall
    {
        type            nutkWallFunction;
        Cmu             0.09;
        kappa           0.41;
        E               9.8;
        value           uniform 0.000246257;
    }
    nWall
    {
        type            nutkWallFunction;
        Cmu             0.09;
        kappa           0.41;
        E               9.8;
        value           nonuniform List<scalar> 6(9.74417e-05 0.000101045 0.000119707 0.000138739 0.000140473 0.000125146);
    }
    sideWalls
    {
        type            empty;
    }
    glass1
    {
        type            nutkWallFunction;
        Cmu             0.09;
        kappa           0.41;
        E               9.8;
        value           nonuniform List<scalar> 9(0.000128958 0.000171808 0.000206643 0.000239575 0.000272694 0.000307648 0.000341631 0.000349964 0.000343641);
    }
    glass2
    {
        type            nutkWallFunction;
        Cmu             0.09;
        kappa           0.41;
        E               9.8;
        value           nonuniform List<scalar> 2(0.000182232 0.00017084);
    }
    sun
    {
        type            nutkWallFunction;
        Cmu             0.09;
        kappa           0.41;
        E               9.8;
        value           nonuniform List<scalar> 
14
(
0.000128854
0.000139823
0.00014286
0.000149409
0.000155412
0.00016107
0.000166708
0.000172408
0.000177052
0.000179962
0.000180289
0.000177191
0.000169574
0.000153314
)
;
    }
    Table_master
    {
        type            nutkWallFunction;
        Cmu             0.09;
        kappa           0.41;
        E               9.8;
        value           nonuniform List<scalar> 9(9.98119e-05 8.73713e-05 7.68587e-05 6.82195e-05 6.11541e-05 5.53585e-05 5.05956e-05 4.67066e-05 4.36561e-05);
    }
    Table_slave
    {
        type            nutkWallFunction;
        Cmu             0.09;
        kappa           0.41;
        E               9.8;
        value           nonuniform List<scalar> 9(0.000112264 0.000103037 9.66966e-05 9.19852e-05 8.79787e-05 8.3977e-05 8.01546e-05 7.60919e-05 7.13103e-05);
    }
    inlet
    {
        type            calculated;
        value           uniform 0.000167705;
    }
    outlet
    {
        type            calculated;
        value           nonuniform List<scalar> 2(0.00211916 0.00217152);
    }
}


// ************************************************************************* //
