/*--------------------------------*- C++ -*----------------------------------*\
  =========                 |
  \\      /  F ield         | OpenFOAM: The Open Source CFD Toolbox
   \\    /   O peration     | Website:  https://openfoam.org
    \\  /    A nd           | Version:  6
     \\/     M anipulation  |
\*---------------------------------------------------------------------------*/
FoamFile
{
    version     2.0;
    format      ascii;
    class       volVectorField;
    location    "4520";
    object      U;
}
// * * * * * * * * * * * * * * * * * * * * * * * * * * * * * * * * * * * * * //

dimensions      [0 1 -1 0 0 0 0];

internalField   nonuniform List<vector> 
458
(
(0.034826 0.0885224 0)
(-0.17208 0.0265843 0)
(-0.199347 0.0191131 0)
(-0.233222 0.0130811 0)
(-0.258395 0.00641371 0)
(-0.273599 -0.000804923 0)
(-0.276728 -0.00877824 0)
(-0.26548 -0.0177781 0)
(-0.239422 -0.0274271 0)
(-0.199711 -0.0361118 0)
(-0.150445 -0.0420515 0)
(-0.0978285 -0.0436514 0)
(-0.0487287 -0.0390813 0)
(-0.00627075 -0.0236845 0)
(-0.0102624 0.00977135 0)
(-0.0102377 0.0105128 0)
(-0.0372597 -0.0174873 0)
(-0.0145102 -0.0291038 0)
(0.0136703 -0.0251834 0)
(0.0334412 -0.0178893 0)
(0.0480577 -0.00955483 0)
(0.0568169 -0.00517626 0)
(0.0606955 -0.00363243 0)
(0.062131 -0.00308273 0)
(0.0627803 -0.00275987 0)
(0.0630901 -0.00250943 0)
(0.0630293 -0.00224146 0)
(0.0624315 -0.00179741 0)
(0.06084 -0.000838806 0)
(0.0572382 0.00107452 0)
(0.0505189 0.00317065 0)
(0.0451143 0.00508647 0)
(-0.0141471 0.0219481 0)
(0.214272 0.181889 0)
(-0.162147 0.0709925 0)
(-0.162941 0.0577621 0)
(-0.198656 0.0457431 0)
(-0.224132 0.0319882 0)
(-0.240108 0.0161755 0)
(-0.244611 -0.00241002 0)
(-0.235115 -0.0239667 0)
(-0.211866 -0.0461698 0)
(-0.176484 -0.0649268 0)
(-0.133355 -0.0764268 0)
(-0.088126 -0.0781988 0)
(-0.0462596 -0.0687297 0)
(-0.0100267 -0.0460165 0)
(0.0194092 -0.0133804 0)
(0.0442416 0.00784909 0)
(0.0548467 0.0347579 0)
(-0.0118099 0.0706829 0)
(0.0670404 0.0439812 0)
(0.0102887 -0.0218338 0)
(0.0265185 -0.0378985 0)
(0.0407468 -0.035645 0)
(0.0531358 -0.0273415 0)
(0.059558 -0.0120936 0)
(0.0611782 -0.00275346 0)
(0.0612279 0.000745558 0)
(0.0613926 0.00202314 0)
(0.0617178 0.00272181 0)
(0.0619428 0.00322163 0)
(0.0620002 0.00367492 0)
(0.0618963 0.00440716 0)
(0.0611851 0.006205 0)
(0.0577886 0.0112234 0)
(0.0490978 0.0155325 0)
(0.0476926 0.0187039 0)
(-0.0584275 0.0475496 0)
(0.379536 0.272955 0)
(-0.180118 0.113732 0)
(-0.123512 0.0941086 0)
(-0.159197 0.0724341 0)
(-0.182599 0.0495027 0)
(-0.198409 0.0236425 0)
(-0.204062 -0.00653499 0)
(-0.195373 -0.0409797 0)
(-0.17359 -0.0757808 0)
(-0.141424 -0.103649 0)
(-0.10384 -0.118953 0)
(-0.0658949 -0.119155 0)
(-0.031823 -0.104118 0)
(-0.00227729 -0.0743971 0)
(0.0220301 -0.0400727 0)
(0.0375964 -0.0152195 0)
(0.043178 0.0131629 0)
(-0.0236629 0.0623188 0)
(0.12249 -0.00753322 0)
(0.0725096 -0.0320912 0)
(0.0643116 -0.0419288 0)
(0.0672602 -0.0417566 0)
(0.0718703 -0.0380438 0)
(0.073489 -0.0282279 0)
(0.0643658 -0.0183289 0)
(0.0574114 -0.0130268 0)
(0.0548129 -0.0100784 0)
(0.0541217 -0.00818585 0)
(0.0538876 -0.0068973 0)
(0.053958 -0.00590235 0)
(0.0547575 -0.00475328 0)
(0.0572083 -0.00139863 0)
(0.0561029 0.0149938 0)
(0.0445871 0.0258691 0)
(0.0541325 0.0332464 0)
(-0.0993776 0.0727937 0)
(0.530025 0.346651 0)
(-0.216668 0.151755 0)
(-0.0801994 0.125835 0)
(-0.115538 0.0962965 0)
(-0.133417 0.0672239 0)
(-0.146929 0.033763 0)
(-0.152515 -0.00711148 0)
(-0.14262 -0.0550541 0)
(-0.121287 -0.102309 0)
(-0.0929783 -0.137839 0)
(-0.0625315 -0.155425 0)
(-0.0335724 -0.153426 0)
(-0.00879816 -0.133437 0)
(0.0128646 -0.0979223 0)
(0.0304321 -0.058972 0)
(0.0443561 -0.0228967 0)
(0.0599541 0.0131487 0)
(0.0588216 0.0534394 0)
(0.100333 0.0615057 0)
(0.0988153 -0.00244129 0)
(0.0851502 -0.0293887 0)
(0.0784665 -0.0376901 0)
(0.0736151 -0.0383937 0)
(0.0670195 -0.0341075 0)
(0.0666003 -0.0208385 0)
(0.0772763 -0.01383 0)
(0.0862395 -0.0101071 0)
(0.0916387 -0.00782432 0)
(0.0948784 -0.00591661 0)
(0.0962849 -0.00385551 0)
(0.0945169 -0.00119013 0)
(0.0882549 0.00248031 0)
(0.0757127 0.00774308 0)
(0.0597988 0.0250979 0)
(0.0440616 0.0405832 0)
(0.0629779 0.0533444 0)
(-0.131389 0.0942778 0)
(0.66268 0.403808 0)
(-0.262352 0.182677 0)
(-0.035034 0.145257 0)
(-0.0687492 0.111319 0)
(-0.0779461 0.0792332 0)
(-0.0862938 0.0412497 0)
(-0.0890489 -0.0079878 0)
(-0.074029 -0.0688145 0)
(-0.0534829 -0.125901 0)
(-0.0315794 -0.165073 0)
(-0.0112757 -0.181841 0)
(0.00616079 -0.175989 0)
(0.0193249 -0.151481 0)
(0.0303427 -0.114537 0)
(0.0401929 -0.072957 0)
(0.0494372 -0.0337223 0)
(0.0619356 0.000674881 0)
(0.0760375 0.019716 0)
(0.0903263 -0.000567762 0)
(0.0896834 -0.0213728 0)
(0.0826167 -0.0300337 0)
(0.0738101 -0.0325492 0)
(0.0655654 -0.031629 0)
(0.0586212 -0.0266318 0)
(0.0568402 -0.0155119 0)
(0.0603938 -0.00902678 0)
(0.0647353 -0.00637217 0)
(0.0684587 -0.00482989 0)
(0.0717015 -0.00274972 0)
(0.0742084 0.000781006 0)
(0.075058 0.00596805 0)
(0.073164 0.0129864 0)
(0.0682548 0.0224378 0)
(0.0612078 0.0371776 0)
(0.0500558 0.0536292 0)
(0.074859 0.0727481 0)
(-0.00684653 0.101381 0)
(0.055788 0.150674 0)
(-0.0835198 0.0748403 0)
(-0.277797 0.00048785 0)
(0.761894 0.451323 0)
(-0.308549 0.203337 0)
(0.00242973 0.143886 0)
(-0.0205844 0.116259 0)
(-0.0197904 0.0857221 0)
(-0.0215002 0.0472951 0)
(-0.014314 -0.00693787 0)
(0.0103147 -0.085925 0)
(0.0269238 -0.146192 0)
(0.0388255 -0.182423 0)
(0.0460455 -0.194553 0)
(0.0488936 -0.18505 0)
(0.048629 -0.158119 0)
(0.0472243 -0.119917 0)
(0.0460507 -0.0779381 0)
(0.0464677 -0.0397066 0)
(0.0508198 -0.0099909 0)
(0.059968 0.00482419 0)
(0.0662443 -0.00105195 0)
(0.064991 -0.011014 0)
(0.0586056 -0.0188063 0)
(0.0504348 -0.0229109 0)
(0.042797 -0.0236609 0)
(0.0368212 -0.0211349 0)
(0.03427 -0.0157709 0)
(0.0354195 -0.0122944 0)
(0.0383734 -0.0108631 0)
(0.0420297 -0.00977526 0)
(0.0460897 -0.00763925 0)
(0.0502722 -0.00338496 0)
(0.0544829 0.00368352 0)
(0.057 0.0131865 0)
(0.0581662 0.0249441 0)
(0.059291 0.0395783 0)
(0.0583674 0.0559998 0)
(0.079709 0.0766955 0)
(0.0654483 0.0889844 0)
(0.0997223 0.0967317 0)
(0.117478 0.0571989 0)
(-0.136895 -0.0299281 0)
(0.815611 0.494186 0)
(-0.334125 0.18737 0)
(0.0322407 0.0937999 0)
(0.0390616 0.101055 0)
(0.0459307 0.0830006 0)
(0.0516232 0.0393706 0)
(0.0790974 -0.0311716 0)
(0.103109 -0.103704 0)
(0.113285 -0.157016 0)
(0.11286 -0.18633 0)
(0.10458 -0.192431 0)
(0.0907889 -0.178774 0)
(0.0740935 -0.149768 0)
(0.0575005 -0.111561 0)
(0.0429712 -0.0709091 0)
(0.0326164 -0.0356953 0)
(0.0281004 -0.0107565 0)
(0.0295005 0.000991076 0)
(0.031136 -0.000280598 0)
(0.0296345 -0.0065691 0)
(0.0249829 -0.0126305 0)
(0.0188637 -0.0163693 0)
(0.0128385 -0.0177427 0)
(0.00803219 -0.0171049 0)
(0.00567112 -0.015196 0)
(0.00601324 -0.0141016 0)
(0.00805232 -0.0139683 0)
(0.0110506 -0.0137425 0)
(0.0148459 -0.0123617 0)
(0.0195239 -0.00874005 0)
(0.0256926 -0.00163577 0)
(0.0333025 0.00886889 0)
(0.0400693 0.0208902 0)
(0.0478781 0.03416 0)
(0.0558774 0.0479596 0)
(0.075452 0.0644568 0)
(0.0882331 0.0697708 0)
(0.11967 0.0632095 0)
(0.163391 0.0513057 0)
(-0.0203526 0.0954881 0)
(0.921863 0.497285 0)
(-0.0766789 0.167419 0)
(0.110608 0.0261621 0)
(0.163737 0.0227931 0)
(0.161399 0.0155477 0)
(0.162865 -0.0293621 0)
(0.196488 -0.0804094 0)
(0.21127 -0.125542 0)
(0.205358 -0.158277 0)
(0.185089 -0.173982 0)
(0.155583 -0.171673 0)
(0.121084 -0.153972 0)
(0.0852891 -0.124273 0)
(0.0523632 -0.0880736 0)
(0.0244584 -0.0510591 0)
(0.00511435 -0.021929 0)
(-0.00463182 -0.00442841 0)
(-0.00655882 0.00175828 0)
(-0.00643993 0.000663066 0)
(-0.0076406 -0.00366338 0)
(-0.0109405 -0.0080135 0)
(-0.0154385 -0.0110775 0)
(-0.0200731 -0.0128479 0)
(-0.0239376 -0.0136846 0)
(-0.0263198 -0.0141357 0)
(-0.0272116 -0.0148868 0)
(-0.0271757 -0.0158709 0)
(-0.0265941 -0.0165847 0)
(-0.0254668 -0.016499 0)
(-0.0234875 -0.0150365 0)
(-0.0198623 -0.0114657 0)
(-0.0117097 -0.00490984 0)
(-9.41391e-05 0.00445891 0)
(0.0110861 0.0137604 0)
(0.0226896 0.0208654 0)
(0.0398996 0.0277363 0)
(0.0554301 0.0224378 0)
(0.079569 0.00564843 0)
(0.146409 0.0479777 0)
(-0.428337 0.212666 0)
(1.06591 0.444164 0)
(0.518237 0.2983 0)
(0.529532 0.249857 0)
(0.51839 0.182905 0)
(0.469836 0.122439 0)
(0.433155 0.0601134 0)
(0.392044 -0.00742318 0)
(0.342839 -0.0669795 0)
(0.28908 -0.107862 0)
(0.232742 -0.126611 0)
(0.175361 -0.125099 0)
(0.118902 -0.108911 0)
(0.0654559 -0.0822849 0)
(0.0202362 -0.0512624 0)
(-0.0161012 -0.0208453 0)
(-0.0329465 -0.00607231 0)
(-0.0401245 0.000441898 0)
(-0.0416809 0.00220723 0)
(-0.0420594 0.00100818 0)
(-0.0432016 -0.00163959 0)
(-0.0458296 -0.00451739 0)
(-0.0494787 -0.00704517 0)
(-0.0535042 -0.00913521 0)
(-0.057369 -0.0108639 0)
(-0.0608167 -0.0123659 0)
(-0.06401 -0.0137474 0)
(-0.0673527 -0.0148459 0)
(-0.0712204 -0.0153023 0)
(-0.0759669 -0.0146319 0)
(-0.0820653 -0.0121817 0)
(-0.0902078 -0.00711474 0)
(-0.101118 0.00142812 0)
(-0.112753 0.0133219 0)
(-0.127984 0.0284139 0)
(-0.152908 0.0467844 0)
(-0.190233 0.0673933 0)
(-0.241634 0.0862253 0)
(-0.297562 0.0999186 0)
(-0.371647 0.106912 0)
(-0.65067 0.106305 0)
(0.233924 0.0528318 0)
(0.305889 0.115963 0)
(0.321217 0.0913678 0)
(0.299642 0.0395781 0)
(0.275045 -0.0106024 0)
(0.244385 -0.0469392 0)
(0.203096 -0.0684126 0)
(0.154002 -0.0754151 0)
(0.100437 -0.0686992 0)
(0.0461645 -0.0529172 0)
(-0.00862891 -0.029515 0)
(-0.0451331 -0.011498 0)
(-0.0635914 -0.00313984 0)
(-0.0709223 -0.000758073 0)
(-0.0731578 -0.000284035 0)
(-0.0734759 -0.00098253 0)
(-0.0737778 -0.00258385 0)
(-0.0749165 -0.00467936 0)
(-0.0771317 -0.00676816 0)
(-0.0803874 -0.0085479 0)
(-0.0841835 -0.0100194 0)
(-0.0882905 -0.0111411 0)
(-0.0927198 -0.0119156 0)
(-0.097625 -0.0123096 0)
(-0.103157 -0.012133 0)
(-0.109347 -0.0110407 0)
(-0.116066 -0.00856354 0)
(-0.122967 -0.00415749 0)
(-0.129429 0.00273856 0)
(-0.134403 0.0123364 0)
(-0.13837 0.0256172 0)
(-0.141807 0.043179 0)
(-0.146019 0.064222 0)
(-0.151773 0.0850511 0)
(-0.155359 0.0955471 0)
(-0.141304 0.0734008 0)
(-0.110249 -0.0250098 0)
(-0.286614 -0.213742 0)
(0.120027 0.324335 0)
(0.00839063 0.203593 0)
(0.0392648 0.11845 0)
(0.0584782 0.0604348 0)
(0.0631265 0.0216244 0)
(0.0601127 -0.00478653 0)
(0.0401982 -0.0199146 0)
(0.00541968 -0.0189549 0)
(-0.036596 -0.00171897 0)
(-0.0701153 0.0128784 0)
(-0.0912283 0.020882 0)
(-0.100243 0.023266 0)
(-0.102467 0.023394 0)
(-0.102412 0.0234466 0)
(-0.10154 0.0241608 0)
(-0.100508 0.0252876 0)
(-0.0997857 0.0264289 0)
(-0.0996583 0.0271787 0)
(-0.100183 0.0271132 0)
(-0.101325 0.0259075 0)
(-0.103119 0.0238735 0)
(-0.105495 0.021629 0)
(-0.108387 0.0194495 0)
(-0.111705 0.0174801 0)
(-0.115313 0.0158314 0)
(-0.118996 0.0146123 0)
(-0.122445 0.0139595 0)
(-0.125176 0.0140301 0)
(-0.126372 0.0155212 0)
(-0.124865 0.0198895 0)
(-0.119076 0.028296 0)
(-0.107619 0.0417406 0)
(-0.090352 0.0602412 0)
(-0.0683174 0.0804254 0)
(-0.0434463 0.0948378 0)
(-0.0075846 0.0857781 0)
(0.146942 0.00930586 0)
(-0.209932 -0.129684 0)
(-0.422116 -0.51603 0)
(-0.637319 -0.143275 0)
(-0.449399 0.177759 0)
(-0.357934 0.0560792 0)
(-0.213899 -0.00553957 0)
(-0.14561 -0.0477884 0)
(-0.117165 -0.0705381 0)
(-0.112985 -0.0713631 0)
(-0.122344 -0.0626886 0)
(-0.134862 -0.0549772 0)
(-0.140347 -0.0505065 0)
(-0.138588 -0.049067 0)
(-0.134127 -0.049953 0)
(-0.128945 -0.0527763 0)
(-0.124482 -0.0563047 0)
(-0.121038 -0.059948 0)
(-0.118239 -0.0635899 0)
(-0.115826 -0.0672867 0)
(-0.113757 -0.0708882 0)
(-0.112107 -0.0739045 0)
(-0.111008 -0.0756843 0)
(-0.110621 -0.075791 0)
(-0.111051 -0.0743578 0)
(-0.112257 -0.071986 0)
(-0.114069 -0.0689139 0)
(-0.116259 -0.0652741 0)
(-0.118548 -0.0610865 0)
(-0.120565 -0.0562772 0)
(-0.12183 -0.0506307 0)
(-0.121709 -0.0438008 0)
(-0.119186 -0.0358141 0)
(-0.112353 -0.0266896 0)
(-0.0984058 -0.0158831 0)
(-0.0748443 -0.00248635 0)
(-0.0415506 0.0143644 0)
(0.00931646 0.0362845 0)
(0.0618661 0.0423474 0)
(0.109598 0.0240446 0)
(0.172057 -0.0159427 0)
(-0.196289 -0.0826848 0)
)
;

boundaryField
{
    floor
    {
        type            noSlip;
    }
    ceiling
    {
        type            noSlip;
    }
    sWall
    {
        type            noSlip;
    }
    nWall
    {
        type            noSlip;
    }
    sideWalls
    {
        type            empty;
    }
    glass1
    {
        type            noSlip;
    }
    glass2
    {
        type            noSlip;
    }
    sun
    {
        type            noSlip;
    }
    Table_master
    {
        type            noSlip;
    }
    Table_slave
    {
        type            noSlip;
    }
    inlet
    {
        type            fixedValue;
        value           uniform (0.46194 -0.191342 0);
    }
    outlet
    {
        type            zeroGradient;
    }
}


// ************************************************************************* //
