/*--------------------------------*- C++ -*----------------------------------*\
  =========                 |
  \\      /  F ield         | OpenFOAM: The Open Source CFD Toolbox
   \\    /   O peration     | Website:  https://openfoam.org
    \\  /    A nd           | Version:  6
     \\/     M anipulation  |
\*---------------------------------------------------------------------------*/
FoamFile
{
    version     2.0;
    format      ascii;
    class       volScalarField;
    location    "4500";
    object      k;
}
// * * * * * * * * * * * * * * * * * * * * * * * * * * * * * * * * * * * * * //

dimensions      [0 2 -2 0 0 0 0];

internalField   nonuniform List<scalar> 
662
(
0.00194673
0.00227029
0.0023487
0.00257467
0.00279445
0.0030107
0.00323251
0.00347304
0.00372603
0.00397028
0.00417171
0.00425602
0.00410789
0.00360741
0.00239444
0.000474953
0.000653967
0.000836885
0.000898343
0.000862982
0.00075264
0.000641033
0.00054907
0.00047529
0.000415592
0.000366785
0.000326608
0.000292966
0.000263952
0.000237875
0.00021315
0.000200141
0.000169898
0.00364152
0.00671901
0.00331636
0.00346856
0.00372086
0.00400442
0.00432441
0.00469874
0.00516656
0.00574817
0.00637047
0.00686469
0.006999
0.00664501
0.00573359
0.00346556
0.00234908
0.00155789
0.000471427
0.00102314
0.00135284
0.0015001
0.00150178
0.00127819
0.00103667
0.000841971
0.000693718
0.000580302
0.000492296
0.000422263
0.000364864
0.000317235
0.000282936
0.000263696
0.000510672
0.000300741
0.00562533
0.0131932
0.00399449
0.00363889
0.00375599
0.00390979
0.00408199
0.00432992
0.00471829
0.00527455
0.00595777
0.00666881
0.00713262
0.00706045
0.00632768
0.00523983
0.00428104
0.00222523
0.00116688
0.00149453
0.00168401
0.0017934
0.00176818
0.00137649
0.00105166
0.00081542
0.000646328
0.000524297
0.000434853
0.000368351
0.00031861
0.000282294
0.000261533
0.000264631
0.000814914
0.000423954
0.00810561
0.0229141
0.00543611
0.00364365
0.00355818
0.00357862
0.00359418
0.00372458
0.00407057
0.00458195
0.00525643
0.0061348
0.00683922
0.00689702
0.00639571
0.00572338
0.00502746
0.00384438
0.00300589
0.00269247
0.00252033
0.00245297
0.00237673
0.00221381
0.00174346
0.00145136
0.00126609
0.00113704
0.00103406
0.000938693
0.000852722
0.000767015
0.000673417
0.000512089
0.000412285
0.0012013
0.000561187
0.0110354
0.033027
0.00952155
0.00417703
0.00361992
0.00349324
0.00339936
0.00351944
0.00393945
0.00440103
0.00502141
0.00601896
0.00679132
0.00676546
0.00618544
0.00544427
0.00477531
0.00421039
0.0040181
0.00367593
0.00341875
0.00320297
0.00295768
0.00265735
0.0023422
0.00212554
0.00198931
0.00188151
0.00176927
0.00163245
0.00145828
0.00126308
0.00105813
0.000834008
0.000643871
0.00094845
0.00113476
0.00101676
0.00112632
0.00132465
0.0148916
0.0451996
0.018994
0.00781927
0.00530187
0.00440321
0.00402623
0.00415029
0.0045116
0.00479885
0.00533955
0.00632439
0.00711724
0.00689906
0.00604806
0.00504314
0.00428965
0.00396962
0.00397034
0.00398815
0.00387846
0.00362291
0.00327001
0.00288635
0.00257449
0.00240127
0.00230937
0.00223521
0.00214537
0.00201835
0.00182863
0.00159907
0.00135386
0.00110722
0.000911286
0.000901714
0.00107311
0.00110378
0.00170594
0.00142484
0.0131632
0.0261517
0.0253509
0.0169393
0.0109211
0.00768873
0.00619756
0.00574235
0.00562632
0.00548353
0.00575058
0.00672494
0.00786241
0.007243
0.00604299
0.00478605
0.00400026
0.00385657
0.00402859
0.00410508
0.00395351
0.00362313
0.00321837
0.002837
0.00257218
0.00245377
0.00241781
0.00240631
0.002392
0.00235576
0.00226974
0.00208726
0.00185915
0.00161717
0.00143249
0.00135556
0.00145221
0.00166884
0.00225255
0.00196907
0.0081926
0.0140016
0.0156631
0.015759
0.0144584
0.0121377
0.00991144
0.00823676
0.00695691
0.00636901
0.00689858
0.00812859
0.0086557
0.0074998
0.00587764
0.00445732
0.00379219
0.00376269
0.00387178
0.0038261
0.00357796
0.00321594
0.00285007
0.00256319
0.00240116
0.00235564
0.00238242
0.00245056
0.00255007
0.00267966
0.00283761
0.00299284
0.0030571
0.00309547
0.00325717
0.00380766
0.00492652
0.00649786
0.0133404
0.00458247
0.00161168
0.00649115
0.00851784
0.00894018
0.00840538
0.00755155
0.00704392
0.00761489
0.00910332
0.0100677
0.00891842
0.00706916
0.0050102
0.00392265
0.00352065
0.00343099
0.00336825
0.00319632
0.00291741
0.00260748
0.00234472
0.00217493
0.00210477
0.00211292
0.00217427
0.00227624
0.00241716
0.00260005
0.00282857
0.00310371
0.00344135
0.00386855
0.00443567
0.00511671
0.00577279
0.00623292
0.00646507
0.0040285
0.00304336
0.00303532
0.00487083
0.00638655
0.00730976
0.00815268
0.00956804
0.0112287
0.011824
0.01061
0.00725431
0.00546736
0.00416854
0.0035031
0.00319173
0.00302165
0.00285737
0.00264696
0.00240482
0.00217783
0.00200845
0.00190956
0.0018724
0.00188207
0.00192788
0.00200641
0.00212044
0.00227822
0.00249418
0.00278874
0.00316954
0.00364058
0.0041982
0.004787
0.00529695
0.00561745
0.00518852
0.00275313
0.00901753
0.015159
0.0053352
0.00543222
0.00748135
0.00945962
0.0112175
0.0126629
0.0131059
0.012138
0.00989499
0.0067566
0.00392311
0.00349443
0.00319705
0.00302294
0.00290047
0.00277145
0.00261002
0.00242189
0.00222961
0.00205715
0.00192474
0.00183625
0.00178944
0.00178246
0.00181585
0.00189199
0.00201426
0.00218641
0.0024193
0.00272493
0.0031123
0.00358546
0.00412912
0.00469475
0.00525796
0.00620334
0.00366195
0.00295362
0.00535413
0.00881064
0.0100489
0.0122953
0.0135007
0.013555
0.0126439
0.0107939
0.00834678
0.00597467
0.00393398
0.00244613
0.00141201
0.00133652
0.00126603
0.00120134
0.0011415
0.00108224
0.0010248
0.000975582
0.000941733
0.000927099
0.000929319
0.000947097
0.000979298
0.00102556
0.00108642
0.00116339
0.0012594
0.00137988
0.00152791
0.00170571
0.0019175
0.0021674
0.00245803
0.00279416
0.00299435
0.0024669
0.00216281
0.00278833
0.0174039
0.0313774
0.0216799
0.0136145
0.00901675
0.00675515
0.00584372
0.0056993
0.00555392
0.00553404
0.0061721
0.00729413
0.0128368
0.0154116
0.0158028
0.0153123
0.0133457
0.0109619
0.00902306
0.00753686
0.00654417
0.00648801
0.00750201
0.00859052
0.00478525
0.0077421
0.00889043
0.00875033
0.00798227
0.00720615
0.00716647
0.00831944
0.00974533
0.010005
0.00231378
0.00394023
0.00570777
0.00690386
0.00769075
0.00877241
0.0104486
0.0117337
0.0114298
0.00961498
0.0261852
0.0103872
0.00471025
0.00650886
0.00846701
0.0103563
0.0120116
0.0130561
0.0127684
0.0112208
0.0083336
0.00546402
0.0140387
0.0093008
0.011265
0.0130738
0.0136493
0.0132191
0.0118279
0.00960145
0.00712413
0.00490697
0.00310239
0.00194946
0.0143307
0.0183243
0.0206058
0.0185368
0.0146687
0.0110235
0.00859672
0.00726483
0.00643214
0.00594743
0.00623934
0.00732982
0.00913275
0.0110106
0.0115866
0.0118882
0.0119478
0.0110129
0.00956574
0.00816493
0.00704694
0.00682269
0.00781863
0.00908379
0.00300037
0.00365247
0.00592606
0.00716045
0.0074262
0.00730243
0.00767905
0.00913385
0.0106418
0.0107418
0.00189134
0.0035076
0.00532686
0.00703561
0.00862913
0.0104202
0.0121043
0.0126606
0.0117337
0.00924468
0.00918616
0.012738
0.00794981
0.00881327
0.0107916
0.012167
0.0129204
0.012815
0.0115859
0.00961479
0.00697574
0.00439617
0.00768389
0.00639011
0.00718077
0.00773829
0.00761701
0.00688244
0.00572707
0.00436966
0.00312432
0.00215748
0.00146173
0.00123738
0.015616
0.0208563
0.0199482
0.0167083
0.0127143
0.00964055
0.00783488
0.006812
0.00612679
0.00596945
0.00673169
0.00787233
0.00949433
0.0113501
0.0116623
0.0120424
0.0115855
0.0103116
0.00883987
0.0075401
0.00677996
0.00719577
0.00851642
0.00933851
0.00245434
0.00488591
0.00668739
0.00738406
0.00736784
0.00735438
0.00830226
0.00998741
0.0109155
0.0101524
0.0022926
0.00443293
0.00619896
0.00783319
0.00948298
0.0113756
0.012542
0.0124126
0.0106265
0.00787251
0.0232522
0.0103729
0.00797034
0.00990809
0.0115404
0.0126264
0.0130005
0.0123316
0.0106692
0.00838275
0.00556039
0.00375958
0.0060673
0.0068322
0.00748918
0.00777299
0.00731175
0.00634676
0.00505451
0.00371536
0.0026077
0.00176878
0.00127623
0.00129678
)
;

boundaryField
{
    floor
    {
        type            kqRWallFunction;
        value           nonuniform List<scalar> 
36
(
0.00239444
0.000474953
0.000653967
0.000836885
0.000898343
0.000862982
0.00075264
0.000641033
0.00054907
0.00047529
0.000415592
0.000366785
0.000326608
0.000292966
0.000263952
0.000237875
0.00021315
0.000200141
0.000169898
0.000169898
0.000300741
0.000423954
0.000561187
0.00101676
0.00112632
0.00132465
0.00239444
0.00346556
0.00234908
0.00155789
0.000474953
0.00155789
0.000471427
0.00222523
0.00116688
0.00300589
)
;
    }
    ceiling
    {
        type            kqRWallFunction;
        value           nonuniform List<scalar> 
58
(
0.0060673
0.0068322
0.00748918
0.00777299
0.00731175
0.00634676
0.00505451
0.00371536
0.0026077
0.00176878
0.00127623
0.00129678
0.00141201
0.00133652
0.00126603
0.00120134
0.0011415
0.00108224
0.0010248
0.000975582
0.000941733
0.000927099
0.000929319
0.000947097
0.000979298
0.00102556
0.00108642
0.00116339
0.0012594
0.00137988
0.00152791
0.00170571
0.0019175
0.0021674
0.00245803
0.00279416
0.00299435
0.0024669
0.00216281
0.00278833
0.00949433
0.0113501
0.00189134
0.00535413
0.00639011
0.00718077
0.00773829
0.00761701
0.00688244
0.00572707
0.00436966
0.00312432
0.00215748
0.00146173
0.00123738
0.0081926
0.0110106
0.00304336
)
;
    }
    sWall
    {
        type            kqRWallFunction;
        value           nonuniform List<scalar> 4(0.00918616 0.00768389 0.00901753 0.00535413);
    }
    nWall
    {
        type            kqRWallFunction;
        value           nonuniform List<scalar> 6(0.00132465 0.00142484 0.00196907 0.00275313 0.00295362 0.00278833);
    }
    sideWalls
    {
        type            empty;
    }
    glass1
    {
        type            kqRWallFunction;
        value           nonuniform List<scalar> 10(0.00194673 0.00364152 0.00562533 0.00810561 0.0110354 0.0148916 0.0143307 0.00913275 0.0131632 0.0081926);
    }
    glass2
    {
        type            kqRWallFunction;
        value           nonuniform List<scalar> 2(0.00458247 0.0040285);
    }
    sun
    {
        type            kqRWallFunction;
        value           nonuniform List<scalar> 
14
(
0.00194673
0.00227029
0.0023487
0.00257467
0.00279445
0.0030107
0.00323251
0.00347304
0.00372603
0.00397028
0.00417171
0.00425602
0.00410789
0.00360741
)
;
    }
    Table_master
    {
        type            kqRWallFunction;
        value           nonuniform List<scalar> 9(0.00137649 0.00105166 0.00081542 0.000646328 0.000524297 0.000434853 0.000368351 0.00031861 0.000282294);
    }
    Table_slave
    {
        type            kqRWallFunction;
        value           nonuniform List<scalar> 9(0.00174346 0.00145136 0.00126609 0.00113704 0.00103406 0.000938693 0.000852722 0.000767015 0.000673417);
    }
    inlet
    {
        type            turbulentIntensityKineticEnergyInlet;
        intensity       0.05;
        value           uniform 0.0009375;
    }
    outlet
    {
        type            zeroGradient;
    }
}


// ************************************************************************* //
