/*--------------------------------*- C++ -*----------------------------------*\
  =========                 |
  \\      /  F ield         | OpenFOAM: The Open Source CFD Toolbox
   \\    /   O peration     | Website:  https://openfoam.org
    \\  /    A nd           | Version:  6
     \\/     M anipulation  |
\*---------------------------------------------------------------------------*/
FoamFile
{
    version     2.0;
    format      ascii;
    class       volVectorField;
    location    "4500";
    object      U;
}
// * * * * * * * * * * * * * * * * * * * * * * * * * * * * * * * * * * * * * //

dimensions      [0 1 -1 0 0 0 0];

internalField   nonuniform List<vector> 
662
(
(0.0424222 0.0861046 0)
(-0.168094 0.0225266 0)
(-0.188506 0.0167084 0)
(-0.218755 0.0120045 0)
(-0.242603 0.00692911 0)
(-0.259668 0.00154258 0)
(-0.26883 -0.00443606 0)
(-0.267846 -0.0113886 0)
(-0.254275 -0.0198872 0)
(-0.226195 -0.0297054 0)
(-0.183733 -0.0392245 0)
(-0.131218 -0.0452605 0)
(-0.0768972 -0.0438028 0)
(-0.0304649 -0.03241 0)
(-0.0164401 -0.00340671 0)
(-0.0097417 0.0106347 0)
(-0.0378579 -0.0181666 0)
(-0.0145699 -0.0298602 0)
(0.0140157 -0.0252675 0)
(0.033592 -0.0177342 0)
(0.0481168 -0.00949222 0)
(0.0568091 -0.00518159 0)
(0.0606798 -0.00364721 0)
(0.0621506 -0.0030885 0)
(0.0628392 -0.00274994 0)
(0.0631728 -0.00248596 0)
(0.0631258 -0.00221476 0)
(0.0625449 -0.00177371 0)
(0.0609821 -0.000826805 0)
(0.0574323 0.00105987 0)
(0.0508001 0.00309599 0)
(0.0460114 0.00484671 0)
(-0.0159593 0.0223377 0)
(0.234818 0.177672 0)
(-0.159103 0.060902 0)
(-0.147454 0.0505305 0)
(-0.178434 0.04152 0)
(-0.201331 0.031847 0)
(-0.218042 0.0211216 0)
(-0.227733 0.00840957 0)
(-0.228285 -0.00736558 0)
(-0.217302 -0.0268273 0)
(-0.193318 -0.0488763 0)
(-0.15648 -0.069585 0)
(-0.111191 -0.0818501 0)
(-0.0652804 -0.0786921 0)
(-0.0249393 -0.0602485 0)
(0.00842083 -0.0299648 0)
(0.0363328 -0.00117082 0)
(0.0526175 0.032164 0)
(-0.014458 0.0719574 0)
(0.0703235 0.0447739 0)
(0.0114637 -0.0218905 0)
(0.0272841 -0.0382649 0)
(0.0414292 -0.0356073 0)
(0.0535417 -0.0269251 0)
(0.0597721 -0.0119297 0)
(0.0613456 -0.00280256 0)
(0.0613983 0.000633735 0)
(0.061564 0.00190221 0)
(0.061885 0.00261766 0)
(0.0621088 0.00313281 0)
(0.0621701 0.00359586 0)
(0.0620688 0.00432987 0)
(0.061365 0.00611974 0)
(0.057988 0.0111141 0)
(0.0493087 0.015361 0)
(0.0489357 0.0182803 0)
(-0.0622007 0.0484816 0)
(0.412186 0.265281 0)
(-0.183948 0.0968678 0)
(-0.103817 0.0804348 0)
(-0.133843 0.0636992 0)
(-0.152529 0.0476871 0)
(-0.166965 0.0304611 0)
(-0.176467 0.0102465 0)
(-0.17853 -0.0143775 0)
(-0.16982 -0.0443386 0)
(-0.149245 -0.078159 0)
(-0.117233 -0.109178 0)
(-0.0788489 -0.125803 0)
(-0.0420795 -0.118646 0)
(-0.0102838 -0.0919952 0)
(0.0157406 -0.0551326 0)
(0.0329309 -0.0243919 0)
(0.0402646 0.00865678 0)
(-0.027644 0.0623069 0)
(0.126207 -0.00920088 0)
(0.0748039 -0.0331013 0)
(0.0659837 -0.0422193 0)
(0.0684561 -0.0413745 0)
(0.0725581 -0.0371362 0)
(0.073814 -0.0276016 0)
(0.0647776 -0.0179651 0)
(0.0579318 -0.0127937 0)
(0.0553315 -0.0099136 0)
(0.0545973 -0.00805556 0)
(0.0543321 -0.00679313 0)
(0.0543838 -0.00582118 0)
(0.055165 -0.00469942 0)
(0.0575906 -0.00140786 0)
(0.0563766 0.0148288 0)
(0.0446212 0.0256269 0)
(0.055979 0.0326279 0)
(-0.104923 0.0740035 0)
(0.566825 0.335617 0)
(-0.229272 0.128726 0)
(-0.0583009 0.103925 0)
(-0.0873419 0.0810535 0)
(-0.0984481 0.0616542 0)
(-0.107644 0.0410856 0)
(-0.115017 0.0159379 0)
(-0.117465 -0.0162471 0)
(-0.109915 -0.0563693 0)
(-0.0918745 -0.101886 0)
(-0.0652015 -0.142742 0)
(-0.0356031 -0.162568 0)
(-0.0103563 -0.15071 0)
(0.011697 -0.116453 0)
(0.028875 -0.0749902 0)
(0.0428166 -0.0339293 0)
(0.0592408 0.00708246 0)
(0.0591052 0.0512016 0)
(0.102639 0.06046 0)
(0.101839 -0.00366387 0)
(0.0872351 -0.0298079 0)
(0.0797346 -0.0372707 0)
(0.0743906 -0.0374016 0)
(0.0675724 -0.0327498 0)
(0.0667576 -0.0198465 0)
(0.0765939 -0.0131411 0)
(0.0848446 -0.00960333 0)
(0.0897307 -0.00745575 0)
(0.0926268 -0.00566383 0)
(0.0938169 -0.00370489 0)
(0.0919799 -0.00113641 0)
(0.0857794 0.00243286 0)
(0.0733344 0.00757494 0)
(0.0579716 0.0249609 0)
(0.0423245 0.0403864 0)
(0.0646217 0.0527983 0)
(-0.141542 0.095211 0)
(0.686955 0.393085 0)
(-0.280753 0.145937 0)
(-0.0161925 0.114596 0)
(-0.0404975 0.0888962 0)
(-0.0428261 0.0686093 0)
(-0.0450698 0.0474786 0)
(-0.0484479 0.0206388 0)
(-0.0485889 -0.0162343 0)
(-0.0398033 -0.0653226 0)
(-0.0230719 -0.120739 0)
(-0.00308644 -0.168006 0)
(0.0150365 -0.187085 0)
(0.0263021 -0.169088 0)
(0.035364 -0.132347 0)
(0.0431327 -0.088048 0)
(0.0507884 -0.0446357 0)
(0.0625731 -0.00650663 0)
(0.0772614 0.0156533 0)
(0.0916151 -0.00299151 0)
(0.0906124 -0.0223905 0)
(0.0829453 -0.0299573 0)
(0.0735928 -0.0316527 0)
(0.0649875 -0.0302641 0)
(0.0578039 -0.0251203 0)
(0.0556555 -0.0142447 0)
(0.0587336 -0.00802507 0)
(0.0626365 -0.00559389 0)
(0.0660315 -0.00425908 0)
(0.0690726 -0.00238694 0)
(0.0715209 0.000937767 0)
(0.0724177 0.00593664 0)
(0.0706648 0.0127746 0)
(0.0659373 0.0220137 0)
(0.0591796 0.036608 0)
(0.0478776 0.0530962 0)
(0.0758407 0.0725044 0)
(-0.011682 0.101904 0)
(0.054065 0.154757 0)
(-0.0871947 0.077799 0)
(-0.281435 0.00116103 0)
(0.744495 0.450872 0)
(-0.297744 0.0451703 0)
(0.0378994 0.0749691 0)
(0.0164909 0.0714688 0)
(0.0192515 0.0631076 0)
(0.0206592 0.0463205 0)
(0.0199072 0.0197854 0)
(0.0243989 -0.0210129 0)
(0.0359399 -0.0766451 0)
(0.0507199 -0.135797 0)
(0.0621683 -0.181175 0)
(0.066646 -0.196426 0)
(0.0633279 -0.173587 0)
(0.0576109 -0.134582 0)
(0.0521875 -0.0901035 0)
(0.0493799 -0.0484872 0)
(0.0517003 -0.0154877 0)
(0.0599765 0.00173025 0)
(0.0655443 -0.0022941 0)
(0.063871 -0.0111505 0)
(0.0571821 -0.0181661 0)
(0.048819 -0.0216844 0)
(0.0410807 -0.0220838 0)
(0.0350362 -0.0194468 0)
(0.0323547 -0.0142056 0)
(0.0332985 -0.010965 0)
(0.0360288 -0.00979738 0)
(0.0395026 -0.00899886 0)
(0.0434582 -0.00718295 0)
(0.0476361 -0.00325631 0)
(0.0519975 0.00353629 0)
(0.054741 0.0128036 0)
(0.0561663 0.0242976 0)
(0.0576572 0.0386811 0)
(0.0568537 0.0550221 0)
(0.0803332 0.0762981 0)
(0.0649187 0.0889209 0)
(0.10046 0.0978117 0)
(0.119524 0.057039 0)
(-0.13981 -0.0322674 0)
(0.811464 0.230974 0)
(0.249485 0.234238 0)
(0.20372 0.101203 0)
(0.143767 0.0782833 0)
(0.111272 0.0675315 0)
(0.0935391 0.0514646 0)
(0.0876429 0.02478 0)
(0.0937772 -0.0154902 0)
(0.10747 -0.0695098 0)
(0.120091 -0.128102 0)
(0.124702 -0.174623 0)
(0.117134 -0.192404 0)
(0.0934584 -0.158291 0)
(0.0697353 -0.120149 0)
(0.0488325 -0.0783059 0)
(0.0342419 -0.0410953 0)
(0.0273658 -0.0141852 0)
(0.0274825 -0.000892324 0)
(0.0287855 -0.00100254 0)
(0.0272082 -0.00647552 0)
(0.022571 -0.0118974 0)
(0.0165277 -0.0151366 0)
(0.0106067 -0.0161819 0)
(0.00589151 -0.0154055 0)
(0.00356766 -0.0135385 0)
(0.003876 -0.012628 0)
(0.00583039 -0.0127543 0)
(0.00872988 -0.0128571 0)
(0.0124474 -0.0118691 0)
(0.0171049 -0.00869495 0)
(0.0232991 -0.00205225 0)
(0.0313283 0.00821857 0)
(0.0385162 0.0199523 0)
(0.0468301 0.0328518 0)
(0.0553466 0.0463078 0)
(0.0764627 0.0630944 0)
(0.0900791 0.0687569 0)
(0.122359 0.062823 0)
(0.167018 0.0500774 0)
(-0.0189181 0.0944875 0)
(0.587793 0.00245395 0)
(0.28923 0.197135 0)
(0.405829 0.148346 0)
(0.375382 0.139246 0)
(0.314813 0.117552 0)
(0.265608 0.0820129 0)
(0.23422 0.037656 0)
(0.218345 -0.0164751 0)
(0.211275 -0.0750704 0)
(0.202803 -0.127867 0)
(0.183493 -0.161521 0)
(0.150794 -0.166129 0)
(0.0931792 -0.122817 0)
(0.056187 -0.0895204 0)
(0.024242 -0.0537478 0)
(0.00274196 -0.0244696 0)
(-0.00737012 -0.00674751 0)
(-0.00941468 0.00021516 0)
(-0.00930921 -4.27513e-05 0)
(-0.0104613 -0.00362515 0)
(-0.0135885 -0.00735903 0)
(-0.0178661 -0.00994344 0)
(-0.0222678 -0.0113779 0)
(-0.0259284 -0.0120405 0)
(-0.0281668 -0.0124726 0)
(-0.0289885 -0.0133328 0)
(-0.0289479 -0.0145237 0)
(-0.0284102 -0.0155396 0)
(-0.0273558 -0.0158351 0)
(-0.0254493 -0.0148266 0)
(-0.021897 -0.011784 0)
(-0.0141662 -0.00585809 0)
(-0.00139484 0.0030044 0)
(0.0105207 0.0121804 0)
(0.0228936 0.0188755 0)
(0.0416709 0.0258355 0)
(0.0588393 0.022039 0)
(0.0830178 0.00978138 0)
(0.150089 0.0561084 0)
(-0.459462 0.213275 0)
(0.404013 0.137691 0)
(0.407558 0.165028 0)
(0.374901 0.162044 0)
(0.345587 0.122408 0)
(0.318592 0.0659533 0)
(0.296576 0.00424386 0)
(0.270912 -0.0546225 0)
(0.236 -0.099448 0)
(0.189483 -0.121346 0)
(0.135503 -0.117991 0)
(0.0549014 -0.0769255 0)
(0.0121367 -0.0506643 0)
(-0.0211676 -0.024125 0)
(-0.0364848 -0.00976443 0)
(-0.0428671 -0.00238157 0)
(-0.0444502 0.0004607 0)
(-0.0446953 0.00015146 0)
(-0.0457382 -0.00180691 0)
(-0.0481617 -0.00412727 0)
(-0.0515224 -0.0061998 0)
(-0.0552158 -0.00793793 0)
(-0.0587616 -0.00944756 0)
(-0.0619425 -0.0108649 0)
(-0.0649442 -0.0122784 0)
(-0.0681772 -0.013507 0)
(-0.0720089 -0.0141879 0)
(-0.0767649 -0.0138475 0)
(-0.0828553 -0.0118836 0)
(-0.0908807 -0.00751974 0)
(-0.101463 5.13301e-05 0)
(-0.113111 0.010909 0)
(-0.127245 0.0246838 0)
(-0.150534 0.0413387 0)
(-0.185391 0.0600318 0)
(-0.234283 0.0772333 0)
(-0.291003 0.090243 0)
(-0.372418 0.0973549 0)
(-0.658045 0.0931851 0)
(0.173799 -0.115989 0)
(0.250159 0.222711 0)
(0.239743 0.181787 0)
(0.241618 0.138005 0)
(0.238497 0.0825412 0)
(0.22584 0.0250607 0)
(0.201769 -0.0220232 0)
(0.162485 -0.0531725 0)
(0.113012 -0.0667719 0)
(0.0602796 -0.0628174 0)
(-0.0178699 -0.0318125 0)
(-0.0474832 -0.0185159 0)
(-0.0637413 -0.010329 0)
(-0.0712808 -0.0065249 0)
(-0.0743184 -0.00472476 0)
(-0.0750094 -0.00449048 0)
(-0.0753301 -0.00550784 0)
(-0.0763047 -0.0072315 0)
(-0.0782708 -0.0090737 0)
(-0.0810612 -0.010717 0)
(-0.0843184 -0.0120784 0)
(-0.0878935 -0.0131086 0)
(-0.0918205 -0.0138121 0)
(-0.0962677 -0.014169 0)
(-0.101396 -0.014014 0)
(-0.107236 -0.0130157 0)
(-0.113635 -0.0106989 0)
(-0.120204 -0.00650063 0)
(-0.126313 0.000185682 0)
(-0.131076 0.00949445 0)
(-0.134692 0.0221266 0)
(-0.137507 0.0387804 0)
(-0.140615 0.0590871 0)
(-0.144306 0.0805129 0)
(-0.144265 0.0956388 0)
(-0.124907 0.0900399 0)
(-0.0707924 0.0347568 0)
(-0.20642 -0.180961 0)
(0.402594 -0.329112 0)
(-0.0863039 -0.487649 0)
(-0.286437 -0.0199174 0)
(-0.119591 0.169358 0)
(-0.0314603 0.151378 0)
(0.0185311 0.117458 0)
(0.04659 0.0760428 0)
(0.0560399 0.0336859 0)
(0.0481465 0.00130002 0)
(0.0267888 -0.0161602 0)
(-0.00764013 -0.0225748 0)
(-0.0418617 -0.020678 0)
(-0.0769368 0.0163201 0)
(-0.0915519 0.0246271 0)
(-0.097949 0.0281239 0)
(-0.10042 0.0303753 0)
(-0.100937 0.0324518 0)
(-0.100552 0.0345788 0)
(-0.100017 0.0366816 0)
(-0.0997587 0.0384264 0)
(-0.0999307 0.0392802 0)
(-0.100586 0.0389344 0)
(-0.101739 0.0378462 0)
(-0.103391 0.0362395 0)
(-0.105523 0.0343205 0)
(-0.108096 0.0322406 0)
(-0.111028 0.030118 0)
(-0.114169 0.0280546 0)
(-0.117283 0.0261318 0)
(-0.119968 0.0243593 0)
(-0.121449 0.0234921 0)
(-0.120556 0.0251814 0)
(-0.11576 0.0306414 0)
(-0.105678 0.0408152 0)
(-0.0902056 0.0558585 0)
(-0.0706797 0.0730298 0)
(-0.0467561 0.0832057 0)
(0.0192076 0.0515327 0)
(0.150775 -0.0547985 0)
(-0.052105 -0.0615748 0)
(0.289706 -0.235898 0)
(-0.274641 -0.136267 0)
(-0.409637 -0.0185741 0)
(-0.370051 0.0707025 0)
(-0.278368 0.0861654 0)
(-0.194873 0.0752673 0)
(-0.132255 0.0556752 0)
(-0.0959324 0.0357709 0)
(-0.0846735 0.0227414 0)
(-0.0891215 0.01915 0)
(-0.0981267 0.0175287 0)
(-0.105351 -0.00189709 0)
(-0.119276 -0.0824785 0)
(-0.118806 -0.0854049 0)
(-0.117775 -0.0878936 0)
(-0.116331 -0.0913844 0)
(-0.114941 -0.095206 0)
(-0.113624 -0.0994078 0)
(-0.112417 -0.103859 0)
(-0.111426 -0.107971 0)
(-0.110817 -0.110928 0)
(-0.110777 -0.112152 0)
(-0.111391 -0.11186 0)
(-0.112584 -0.110154 0)
(-0.11422 -0.10721 0)
(-0.116117 -0.103174 0)
(-0.118039 -0.0981026 0)
(-0.119667 -0.0919379 0)
(-0.12058 -0.0844716 0)
(-0.12025 -0.0753138 0)
(-0.117874 -0.064771 0)
(-0.111828 -0.0532212 0)
(-0.0995314 -0.0404523 0)
(-0.0784153 -0.0258901 0)
(-0.0480988 -0.00887574 0)
(-0.00840744 0.01066 0)
(0.036354 0.0102064 0)
(0.105599 -0.0483359 0)
(0.123653 -0.0929449 0)
(-0.521619 0.00657162 0)
(0.474091 0.385667 0)
(0.195499 0.133406 0)
(0.172895 0.08713 0)
(0.124221 0.0727687 0)
(0.0999156 0.0616238 0)
(0.0883598 0.0407591 0)
(0.0880519 0.00686989 0)
(0.100446 -0.040982 0)
(0.114358 -0.0987754 0)
(0.12361 -0.153638 0)
(0.122101 -0.187604 0)
(0.109095 -0.188397 0)
(0.285671 0.0903427 0)
(0.369674 0.172724 0)
(0.400036 0.141263 0)
(0.344842 0.131264 0)
(0.28804 0.100911 0)
(0.2476 0.0610993 0)
(0.225024 0.0117779 0)
(0.214279 -0.0456883 0)
(0.207906 -0.102878 0)
(0.194862 -0.147802 0)
(0.168614 -0.167642 0)
(0.131451 -0.15725 0)
(0.38351 0.141038 0)
(0.392264 0.169994 0)
(0.360071 0.145276 0)
(0.331493 0.0954635 0)
(0.307098 0.0352055 0)
(0.284601 -0.026199 0)
(0.254913 -0.0794857 0)
(0.214054 -0.113562 0)
(0.163023 -0.122726 0)
(0.10861 -0.108043 0)
(0.299602 0.241387 0)
(0.240464 0.200648 0)
(0.240804 0.161622 0)
(0.241051 0.111275 0)
(0.233573 0.0532342 0)
(0.215632 -0.000303816 0)
(0.18378 -0.039711 0)
(0.138614 -0.0622379 0)
(0.0866503 -0.0668717 0)
(0.0354663 -0.0550691 0)
(0.0254574 -0.42728 0)
(-0.255061 -0.365413 0)
(-0.165878 0.133105 0)
(-0.0678359 0.165227 0)
(-0.00349025 0.135642 0)
(0.0348589 0.0975084 0)
(0.0536197 0.0543116 0)
(0.0539111 0.0155683 0)
(0.0396272 -0.0090948 0)
(0.010999 -0.020505 0)
(-0.0258879 -0.0228571 0)
(-0.0539322 -0.0114041 0)
(-0.23907 -0.167556 0)
(-0.366948 -0.0830327 0)
(-0.405555 0.0372704 0)
(-0.324581 0.0841356 0)
(-0.234552 0.0823906 0)
(-0.160498 0.0660318 0)
(-0.1107 0.0452539 0)
(-0.0875758 0.0280723 0)
(-0.0857068 0.0199446 0)
(-0.0935264 0.0189725 0)
(-0.102388 0.0122623 0)
(-0.108586 -0.0310622 0)
(0.762703 0.465685 0)
(0.317163 0.263897 0)
(0.350001 0.154422 0)
(0.278029 0.113256 0)
(0.219259 0.0896254 0)
(0.179297 0.0628771 0)
(0.158599 0.0278827 0)
(0.154097 -0.019494 0)
(0.15958 -0.0754671 0)
(0.163903 -0.131172 0)
(0.158198 -0.171292 0)
(0.138439 -0.182224 0)
(0.787801 -0.173181 0)
(0.153601 0.238601 0)
(0.398662 0.166314 0)
(0.42822 0.166333 0)
(0.37508 0.147284 0)
(0.328867 0.104923 0)
(0.294547 0.0521254 0)
(0.271906 -0.0074525 0)
(0.252972 -0.0677421 0)
(0.230075 -0.117261 0)
(0.195905 -0.144684 0)
(0.150965 -0.144312 0)
(0.308454 0.092509 0)
(0.358389 0.191227 0)
(0.32869 0.172714 0)
(0.314383 0.133316 0)
(0.298727 0.0763343 0)
(0.280519 0.0153772 0)
(0.254001 -0.038521 0)
(0.212998 -0.0768144 0)
(0.160929 -0.0941134 0)
(0.105038 -0.0897405 0)
(0.440754 0.220219 0)
(0.0666673 0.21581 0)
(0.111609 0.175546 0)
(0.13706 0.133164 0)
(0.148346 0.0829334 0)
(0.144349 0.0317292 0)
(0.12718 -0.00810199 0)
(0.0960632 -0.0323244 0)
(0.054114 -0.0425217 0)
(0.0102745 -0.0397292 0)
(0.499498 -0.255435 0)
(-0.191256 -0.256729 0)
(-0.350383 -0.0678346 0)
(-0.264923 0.0985671 0)
(-0.16864 0.11076 0)
(-0.0987485 0.0917762 0)
(-0.0509689 0.0621009 0)
(-0.0260977 0.0304983 0)
(-0.0239787 0.00673514 0)
(-0.0374597 -0.00407836 0)
(-0.061164 -0.00688186 0)
(-0.0810975 -0.00615164 0)
(0.330172 -0.249291 0)
(-0.347768 -0.157641 0)
(-0.475083 -0.101619 0)
(-0.453063 -0.0530535 0)
(-0.364882 -0.0375993 0)
(-0.273254 -0.039093 0)
(-0.20113 -0.0463111 0)
(-0.155096 -0.052896 0)
(-0.1306 -0.0563094 0)
(-0.11688 -0.0593626 0)
(-0.106357 -0.0664519 0)
(-0.109848 -0.0722133 0)
(0.343969 0.290702 0)
(0.354248 0.201477 0)
(0.314451 0.128042 0)
(0.246325 0.101481 0)
(0.196507 0.0772174 0)
(0.166452 0.0470559 0)
(0.154371 0.00601143 0)
(0.156385 -0.0462828 0)
(0.162512 -0.103589 0)
(0.162673 -0.153673 0)
(0.149963 -0.180616 0)
(0.124879 -0.175604 0)
(-0.224519 0.189899 0)
(0.296772 0.192118 0)
(0.435486 0.15986 0)
(0.402289 0.161765 0)
(0.350648 0.127716 0)
(0.310013 0.0795987 0)
(0.282414 0.0230453 0)
(0.262338 -0.0381533 0)
(0.24261 -0.0946039 0)
(0.214573 -0.134268 0)
(0.174432 -0.14799 0)
(0.126633 -0.134094 0)
(0.37663 0.192704 0)
(0.340152 0.183111 0)
(0.321343 0.156101 0)
(0.306808 0.106144 0)
(0.290097 0.0455267 0)
(0.269216 -0.0130526 0)
(0.235196 -0.0600695 0)
(0.187956 -0.0882302 0)
(0.132919 -0.0945303 0)
(0.077048 -0.0802608 0)
(0.0754961 0.21388 0)
(0.0910392 0.196223 0)
(0.126236 0.155212 0)
(0.144531 0.108831 0)
(0.148298 0.056711 0)
(0.136573 0.00983545 0)
(0.113364 -0.0220019 0)
(0.076063 -0.0391826 0)
(0.0316977 -0.0426409 0)
(-0.0113437 -0.0329923 0)
(-0.172662 -0.282274 0)
(-0.307831 -0.188376 0)
(-0.318924 0.0406614 0)
(-0.212594 0.112489 0)
(-0.1309 0.103092 0)
(-0.072127 0.0778079 0)
(-0.0355891 0.0459136 0)
(-0.0224297 0.017069 0)
(-0.0291169 -0.00012709 0)
(-0.0485377 -0.00601529 0)
(-0.0732612 -0.00714915 0)
(-0.0824305 -0.0015187 0)
(-0.287315 -0.181457 0)
(-0.431909 -0.130037 0)
(-0.479061 -0.0744438 0)
(-0.411962 -0.0419591 0)
(-0.317539 -0.0371565 0)
(-0.234057 -0.0424277 0)
(-0.174909 -0.049975 0)
(-0.140776 -0.0549299 0)
(-0.123062 -0.0575464 0)
(-0.111267 -0.0624117 0)
(-0.104397 -0.0699565 0)
(-0.120335 -0.0775862 0)
)
;

boundaryField
{
    floor
    {
        type            noSlip;
    }
    ceiling
    {
        type            noSlip;
    }
    sWall
    {
        type            noSlip;
    }
    nWall
    {
        type            noSlip;
    }
    sideWalls
    {
        type            empty;
    }
    glass1
    {
        type            noSlip;
    }
    glass2
    {
        type            noSlip;
    }
    sun
    {
        type            noSlip;
    }
    Table_master
    {
        type            noSlip;
    }
    Table_slave
    {
        type            noSlip;
    }
    inlet
    {
        type            fixedValue;
        value           uniform (0.5 0 0);
    }
    outlet
    {
        type            zeroGradient;
    }
}


// ************************************************************************* //
