/*--------------------------------*- C++ -*----------------------------------*\
  =========                 |
  \\      /  F ield         | OpenFOAM: The Open Source CFD Toolbox
   \\    /   O peration     | Website:  https://openfoam.org
    \\  /    A nd           | Version:  6
     \\/     M anipulation  |
\*---------------------------------------------------------------------------*/
FoamFile
{
    version     2.0;
    format      ascii;
    class       volScalarField;
    location    "6200";
    object      epsilon;
}
// * * * * * * * * * * * * * * * * * * * * * * * * * * * * * * * * * * * * * //

dimensions      [0 2 -3 0 0 0 0];

internalField   nonuniform List<scalar> 
778
(
0.000253128
0.000306381
0.000303056
0.00034426
0.000385154
0.000424985
0.000464445
0.00050472
0.000547544
0.000595633
0.000644014
0.000692317
0.000742197
0.000798462
0.000860148
8.94232e-05
0.000262556
0.000268898
0.000249786
0.000219933
0.00018394
0.000152233
0.00012646
0.00010587
8.94172e-05
7.62714e-05
6.56208e-05
5.68258e-05
4.9361e-05
4.27541e-05
3.65061e-05
3.18089e-05
2.35959e-05
0.000797013
0.0014433
0.000287036
0.000259645
0.000261747
0.000267719
0.000276612
0.000290037
0.000310282
0.000340468
0.000379645
0.000430709
0.00049903
0.000600168
0.000785246
0.00112879
0.000978259
0.00085806
0.000512465
0.000369682
0.000294271
0.000242838
0.000203947
0.00018673
0.000154549
0.000124898
0.000100627
8.14421e-05
6.64935e-05
5.47985e-05
4.56132e-05
3.8693e-05
3.45052e-05
3.27472e-05
6.58164e-05
4.80904e-05
0.00163066
0.00407948
0.000407461
0.000242976
0.000229151
0.00023106
0.000238272
0.000250535
0.000268429
0.000292679
0.000324775
0.0003668
0.000421141
0.000494817
0.0006012
0.000724454
0.00082948
0.0015839
0.00102833
0.000512635
0.000367894
0.000294365
0.00026208
0.000551322
0.000362381
0.000250494
0.000181121
0.000136127
0.0001058
8.46975e-05
6.97643e-05
5.9422e-05
4.51087e-05
3.79633e-05
0.000108337
7.08267e-05
0.0028536
0.00877154
0.000710032
0.000240772
0.000202519
0.000200048
0.000203212
0.000209829
0.000220633
0.000237533
0.000263199
0.000299912
0.000349089
0.000412199
0.000487894
0.000560123
0.000612244
0.000824089
0.00156457
0.000729263
0.00045995
0.000358371
0.000301936
0.000291796
0.000814156
0.000612582
0.000481687
0.000388202
0.000318809
0.000264032
0.000218512
0.000178809
0.000141671
8.37099e-05
5.4829e-05
0.00014906
9.45494e-05
0.00454616
0.0158297
0.00134671
0.000258396
0.000175767
0.000166817
0.000165815
0.000167781
0.000173934
0.000187428
0.000211654
0.000248304
0.000297676
0.000359175
0.000427617
0.000489009
0.000528369
0.000582271
0.000627178
0.000483088
0.000393457
0.00033103
0.000282298
0.000248617
0.000247815
0.000226736
0.000202871
0.000180968
0.00016258
0.000146423
0.00013177
0.000118201
0.000105067
8.44666e-05
6.41276e-05
0.000105362
0.000138922
0.000160552
0.000378056
0.000329715
0.0067639
0.0248821
0.00255428
0.000318148
0.000155568
0.000137086
0.000132138
0.000130696
0.000134459
0.00014855
0.000176693
0.000218037
0.000270711
0.000333965
0.000401513
0.000462401
0.000502736
0.00052144
0.000504558
0.00043812
0.000373767
0.000315633
0.000264735
0.000223377
0.000193278
0.000169617
0.000150799
0.000135605
0.000123265
0.000112712
0.000103256
9.45066e-05
8.60883e-05
7.59192e-05
6.5289e-05
7.75933e-05
9.97998e-05
0.000213935
0.00109365
0.000561544
0.00967273
0.0336413
0.00458541
0.000465134
0.000150872
0.000116358
0.000107096
0.000103284
0.000107075
0.000127922
0.000166132
0.000215878
0.000273256
0.000339965
0.000409157
0.000470241
0.000509947
0.00052023
0.000494131
0.000437517
0.0003718
0.000307472
0.000250543
0.000204425
0.000169734
0.000144549
0.000126325
0.000112739
0.000102277
9.36964e-05
8.61955e-05
7.93219e-05
7.27982e-05
6.61517e-05
6.02723e-05
6.36577e-05
7.68776e-05
0.000178955
0.00165521
0.000926613
0.0127599
0.04041
0.00749267
0.000871668
0.000194326
0.000115389
9.73854e-05
9.14489e-05
9.86313e-05
0.000137691
0.000189274
0.00024626
0.000307056
0.000373843
0.000444804
0.000508061
0.000547337
0.000550833
0.000515593
0.000451494
0.000375507
0.000300981
0.000236495
0.000185965
0.000149313
0.000123988
0.000106728
9.45947e-05
8.57565e-05
7.88101e-05
7.28852e-05
6.75109e-05
6.24591e-05
5.76562e-05
5.38647e-05
5.5521e-05
7.09982e-05
0.000375601
0.0056748
0.00213192
0.0138278
0.0414577
0.0139368
0.00316566
0.000630471
0.000208084
0.000132672
0.000115963
0.000142387
0.000192822
0.000249204
0.000306403
0.000367453
0.000436897
0.000511452
0.000576083
0.000611102
0.000603177
0.000552092
0.000470929
0.000378524
0.000290987
0.000218327
0.000164073
0.00012682
0.000102654
8.73381e-05
7.74012e-05
7.07154e-05
6.5703e-05
6.14788e-05
5.7614e-05
5.39472e-05
5.05392e-05
4.81217e-05
5.15321e-05
0.000101824
0.00118267
0.0149722
0.00316902
0.0130039
0.0283667
0.014417
0.00572818
0.00210494
0.000834767
0.000413679
0.000276787
0.000278847
0.000314381
0.000355919
0.000401715
0.0004589
0.000531588
0.000610907
0.000674798
0.000699123
0.000670672
0.000593702
0.000486642
0.000372742
0.000270877
0.000191343
0.000135922
0.000100805
7.99866e-05
6.80665e-05
6.12857e-05
5.71965e-05
5.42359e-05
5.166e-05
4.9168e-05
4.67033e-05
4.44564e-05
4.35134e-05
5.28601e-05
0.00022426
0.003881
0.0111095
0.00328917
0.0106881
0.019354
0.0120385
0.00630073
0.00317467
0.00167467
0.000986559
0.00067875
0.000559694
0.000517003
0.0005102
0.000531591
0.000584466
0.000664216
0.000749216
0.000806445
0.000807879
0.000744001
0.000627735
0.000485934
0.000347744
0.000233913
0.000152861
0.00010207
7.37631e-05
5.89608e-05
5.15034e-05
4.80654e-05
4.62642e-05
4.49396e-05
4.36257e-05
4.21826e-05
4.06975e-05
3.9641e-05
4.09375e-05
5.76844e-05
0.000273185
0.00322414
0.0097068
0.00333605
0.00807054
0.0137682
0.00969148
0.00593305
0.00356936
0.00222713
0.00149043
0.00109259
0.00086886
0.000743193
0.000685803
0.000690745
0.000752302
0.000847519
0.00093512
0.000970279
0.000926417
0.000805029
0.000634275
0.000451995
0.000293382
0.000177894
0.000107381
6.96898e-05
5.26364e-05
4.44936e-05
4.0681e-05
3.92813e-05
3.86938e-05
3.82413e-05
3.76622e-05
3.69451e-05
3.6445e-05
3.73441e-05
4.35307e-05
7.41451e-05
0.000303838
0.00240954
0.0079159
0.00388954
0.00612308
0.0101687
0.0077915
0.00531254
0.00357011
0.00246908
0.00178791
0.00136811
0.00109279
0.000925958
0.000859674
0.000888432
0.000986311
0.00110206
0.00117344
0.00115181
0.00102628
0.000820418
0.000585463
0.000368648
0.0002089
0.000114881
7.21906e-05
5.22156e-05
4.27772e-05
3.80941e-05
3.58456e-05
3.50403e-05
3.47419e-05
3.45253e-05
3.42848e-05
3.42769e-05
3.55883e-05
4.15874e-05
6.33859e-05
0.000140714
0.000441979
0.00226132
0.00635162
0.00428591
0.00618523
0.00781458
0.00680617
0.00474022
0.00336605
0.00246272
0.00186603
0.00146248
0.00119463
0.00106487
0.00107188
0.0011842
0.00133557
0.00144407
0.0014421
0.0013003
0.00104846
0.000739895
0.000456433
0.000238305
0.000131083
8.14737e-05
5.93692e-05
4.85111e-05
4.25396e-05
3.90158e-05
3.69821e-05
3.59597e-05
3.54938e-05
3.52397e-05
3.52986e-05
3.65839e-05
4.24338e-05
6.38508e-05
0.000133853
0.000332676
0.000858947
0.00243161
0.00625543
0.0036398
0.00454736
0.00511665
0.00418637
0.00336237
0.00264006
0.00207031
0.00164913
0.00136178
0.00124468
0.00130134
0.00148189
0.00169407
0.0018332
0.00182267
0.00163776
0.0012982
0.000904592
0.000518128
0.000277718
0.000154216
0.000100638
7.71778e-05
6.53076e-05
5.79577e-05
5.28662e-05
4.93063e-05
4.69569e-05
4.55393e-05
4.5034e-05
4.51085e-05
4.60223e-05
4.95504e-05
6.18115e-05
0.000101646
0.000220582
0.000537343
0.00129091
0.00284174
0.00517538
0.00306012
0.00139848
0.00142847
0.0014304
0.00135154
0.00130963
0.00142109
0.00170652
0.0020454
0.00231341
0.0024153
0.00229898
0.00198049
0.00152621
0.000975374
0.00056354
0.000309371
0.000184941
0.000132101
0.000109723
9.79933e-05
9.00612e-05
8.39833e-05
7.94124e-05
7.63897e-05
7.49202e-05
7.48347e-05
7.57629e-05
7.83074e-05
8.21595e-05
8.90294e-05
0.000105096
0.000148341
0.000265682
0.000566344
0.00126766
0.00274262
0.00544706
0.00284241
0.00118819
0.00171265
0.00194981
0.0023051
0.00275164
0.00315797
0.00334128
0.00331203
0.00309258
0.00270236
0.00213106
0.00150867
0.000971119
0.00056841
0.000336362
0.000227274
0.000183166
0.000164728
0.000154848
0.000147866
0.000142438
0.000138614
0.000136889
0.000137799
0.000141653
0.000148334
0.000157181
0.000166946
0.000178072
0.000192092
0.000212885
0.000254252
0.000349486
0.000576255
0.00111737
0.00243913
0.00491733
0.00367451
0.00741854
0.00811265
0.00482081
0.00340182
0.00372961
0.00413681
0.0041467
0.00393522
0.00358165
0.00313029
0.00262696
0.00208296
0.00152921
0.00103695
0.000670186
0.000450056
0.00034693
0.000306202
0.000290732
0.000283611
0.000278616
0.000273729
0.000268843
0.000264918
0.000263433
0.000265905
0.000273565
0.000287294
0.000307711
0.000335107
0.000368909
0.000408048
0.000456319
0.000535223
0.00066787
0.000912348
0.00143863
0.00315504
0.00457157
0.00417355
0.00650164
0.00514068
0.00435629
0.00461307
0.00453416
0.00426789
0.0036881
0.00304183
0.00245621
0.00196382
0.00156143
0.00123808
0.000980406
0.000783196
0.000641142
0.000551929
0.000503812
0.000482218
0.000476433
0.00047955
0.000486983
0.000495843
0.000504797
0.000514009
0.000524969
0.000540254
0.00056333
0.000598471
0.000650773
0.000726153
0.000831092
0.000971566
0.00115024
0.00136223
0.00163512
0.00202934
0.00265807
0.00406605
0.00554949
0.00460233
0.00535744
0.00337377
0.00332592
0.00362977
0.00389757
0.00357346
0.00298541
0.00238222
0.0018613
0.00143586
0.00109358
0.000824705
0.000628028
0.000503339
0.000441685
0.000418203
0.000416918
0.000427387
0.000443687
0.000462498
0.000481929
0.000501085
0.000519959
0.000539403
0.000561068
0.00058738
0.000621724
0.000668928
0.000735922
0.000831944
0.000967491
0.00115175
0.00139019
0.00168612
0.00205001
0.00249498
0.00301399
0.0036294
0.00431005
0.0036497
)
;

boundaryField
{
    floor
    {
        Cmu             0.09;
        kappa           0.41;
        E               9.8;
        type            epsilonWallFunction;
        value           nonuniform List<scalar> 
36
(
0.000860148
8.94232e-05
0.000262556
0.000268898
0.000249786
0.000219933
0.00018394
0.000152233
0.00012646
0.00010587
8.94172e-05
7.62714e-05
6.56208e-05
5.68258e-05
4.9361e-05
4.27541e-05
3.65061e-05
3.18089e-05
2.35959e-05
2.35959e-05
4.80904e-05
7.08267e-05
9.45494e-05
0.000160552
0.000378056
0.000329715
0.000860148
0.00112879
0.000978259
0.00085806
8.94232e-05
0.00085806
0.000512465
0.0015839
0.00102833
0.00156457
)
;
    }
    ceiling
    {
        Cmu             0.09;
        kappa           0.41;
        E               9.8;
        type            epsilonWallFunction;
        value           nonuniform List<scalar> 
43
(
0.00535744
0.00337377
0.00332592
0.00362977
0.00389757
0.00357346
0.00298541
0.00238222
0.0018613
0.00143586
0.00109358
0.000824705
0.000628028
0.000503339
0.000441685
0.000418203
0.000416918
0.000427387
0.000443687
0.000462498
0.000481929
0.000501085
0.000519959
0.000539403
0.000561068
0.00058738
0.000621724
0.000668928
0.000735922
0.000831944
0.000967491
0.00115175
0.00139019
0.00168612
0.00205001
0.00249498
0.00301399
0.0036294
0.00431005
0.0036497
0.00454736
0.00511665
0.00118819
)
;
    }
    sWall
    {
        Cmu             0.09;
        kappa           0.41;
        E               9.8;
        type            epsilonWallFunction;
        value           nonuniform List<scalar> 9(0.0130039 0.0106881 0.00807054 0.00612308 0.00618523 0.00454736 0.00741854 0.00650164 0.00535744);
    }
    nWall
    {
        Cmu             0.09;
        kappa           0.41;
        E               9.8;
        type            epsilonWallFunction;
        value           nonuniform List<scalar> 
14
(
0.000329715
0.000561544
0.000926613
0.00328917
0.00333605
0.00388954
0.00428591
0.0036398
0.00306012
0.00284241
0.00367451
0.00417355
0.00460233
0.0036497
)
;
    }
    sideWalls
    {
        type            empty;
    }
    glass1
    {
        Cmu             0.09;
        kappa           0.41;
        E               9.8;
        type            epsilonWallFunction;
        value           nonuniform List<scalar> 9(0.000253128 0.000797013 0.00163066 0.0028536 0.00454616 0.0067639 0.00967273 0.0127599 0.0138278);
    }
    glass2
    {
        Cmu             0.09;
        kappa           0.41;
        E               9.8;
        type            epsilonWallFunction;
        value           nonuniform List<scalar> 2(0.00213192 0.00316902);
    }
    sun
    {
        Cmu             0.09;
        kappa           0.41;
        E               9.8;
        type            epsilonWallFunction;
        value           nonuniform List<scalar> 
14
(
0.000253128
0.000306381
0.000303056
0.00034426
0.000385154
0.000424985
0.000464445
0.00050472
0.000547544
0.000595633
0.000644014
0.000692317
0.000742197
0.000798462
)
;
    }
    Table_master
    {
        Cmu             0.09;
        kappa           0.41;
        E               9.8;
        type            epsilonWallFunction;
        value           nonuniform List<scalar> 9(0.000551322 0.000362381 0.000250494 0.000181121 0.000136127 0.0001058 8.46975e-05 6.97643e-05 5.9422e-05);
    }
    Table_slave
    {
        Cmu             0.09;
        kappa           0.41;
        E               9.8;
        type            epsilonWallFunction;
        value           nonuniform List<scalar> 9(0.000814156 0.000612582 0.000481687 0.000388202 0.000318809 0.000264032 0.000218512 0.000178809 0.000141671);
    }
    inlet
    {
        type            turbulentMixingLengthDissipationRateInlet;
        mixingLength    0.01;
        phi             phi;
        k               k;
        value           uniform 0.000471671;
    }
    outlet
    {
        type            zeroGradient;
    }
}


// ************************************************************************* //
