/*--------------------------------*- C++ -*----------------------------------*\
  =========                 |
  \\      /  F ield         | OpenFOAM: The Open Source CFD Toolbox
   \\    /   O peration     | Website:  https://openfoam.org
    \\  /    A nd           | Version:  6
     \\/     M anipulation  |
\*---------------------------------------------------------------------------*/
FoamFile
{
    version     2.0;
    format      ascii;
    class       volScalarField;
    location    "6200";
    object      k;
}
// * * * * * * * * * * * * * * * * * * * * * * * * * * * * * * * * * * * * * //

dimensions      [0 2 -2 0 0 0 0];

internalField   nonuniform List<scalar> 
662
(
0.00197454
0.00230401
0.0023845
0.00261378
0.00283687
0.00305653
0.00328213
0.00352726
0.00378399
0.00403077
0.00423157
0.00430907
0.00414595
0.00362379
0.00238739
0.000485046
0.000668017
0.000854487
0.000917618
0.000881313
0.000768264
0.000654036
0.000559966
0.000484565
0.000423627
0.000373879
0.000332957
0.000298762
0.000269344
0.000242971
0.000218053
0.00020525
0.000174624
0.00368165
0.0067903
0.00337059
0.00352615
0.00378353
0.00407297
0.00439993
0.00478227
0.00526135
0.00585444
0.00648383
0.00697433
0.00708932
0.00670258
0.00576377
0.00348805
0.00236454
0.00156835
0.000482323
0.00104571
0.00138156
0.00153342
0.00153545
0.00130677
0.00106021
0.000861241
0.000709566
0.000593456
0.000503325
0.000431717
0.000373124
0.000324547
0.000289385
0.000269717
0.000522579
0.000307842
0.0056765
0.013307
0.00405789
0.00369814
0.00381738
0.00397456
0.00415202
0.0044082
0.00480919
0.00538044
0.00607979
0.00680181
0.00725695
0.00714993
0.00638392
0.00527806
0.00430702
0.00223817
0.00119061
0.00152484
0.0017201
0.00183493
0.00181103
0.00140797
0.00107503
0.000833606
0.000661045
0.000536542
0.000445226
0.000377202
0.000326203
0.000288864
0.000267474
0.000271146
0.00083993
0.000434439
0.00816661
0.0230747
0.00551614
0.00370251
0.00361395
0.00363428
0.00365273
0.00379217
0.00415004
0.00467452
0.00537148
0.00627435
0.00697859
0.00700646
0.00647558
0.00577829
0.0050573
0.0038753
0.00302914
0.00273081
0.00256664
0.00250538
0.0024327
0.00226968
0.00178731
0.00148804
0.00129843
0.00116639
0.00106091
0.000962939
0.000874424
0.000785978
0.000689276
0.000523588
0.000422835
0.00124639
0.00057526
0.0111059
0.0332302
0.00963973
0.00424736
0.0036769
0.00354623
0.00345404
0.00358808
0.00401578
0.00448264
0.00513059
0.00616037
0.0069324
0.00688202
0.00627661
0.00551842
0.00483577
0.00426303
0.00407847
0.00374044
0.00348698
0.00327327
0.00302866
0.00272758
0.00240946
0.00218942
0.00205014
0.0019393
0.00182355
0.00168225
0.0015017
0.00129918
0.00108666
0.000855311
0.00066109
0.000979472
0.00117564
0.00104056
0.00114437
0.00134644
0.0149623
0.0454233
0.0191469
0.00793685
0.00538492
0.00447266
0.00409489
0.00423294
0.00458993
0.00487757
0.00544787
0.00647019
0.00726268
0.00701611
0.00613991
0.00512632
0.00437508
0.00405795
0.00406317
0.00408026
0.00396738
0.00370878
0.00335346
0.00296729
0.00265222
0.00247559
0.00238025
0.00230248
0.0022088
0.00207757
0.0018825
0.00164624
0.0013939
0.00114005
0.000939265
0.000930716
0.00111012
0.00113804
0.00174056
0.00145168
0.0132197
0.0262765
0.025491
0.0170563
0.0110205
0.00777859
0.00628632
0.00583334
0.00570344
0.005555
0.00585401
0.00687769
0.00801549
0.00735815
0.00613162
0.00487418
0.00410531
0.00397236
0.00414305
0.0042132
0.00405507
0.00371912
0.00330944
0.00292323
0.00265343
0.0025301
0.00248934
0.00247345
0.00245572
0.00241757
0.00233199
0.00214825
0.00191747
0.00167138
0.00148365
0.00140695
0.00150939
0.00173342
0.00233064
0.00202893
0.00822139
0.0140599
0.0157379
0.0158438
0.0145373
0.0122066
0.00997556
0.0082928
0.00700756
0.00644397
0.00703382
0.00830891
0.00880454
0.00760121
0.00595982
0.00455399
0.00391739
0.00389211
0.00399566
0.00394206
0.00368605
0.00331666
0.00294357
0.00264917
0.00247934
0.00242635
0.00244678
0.00251039
0.0026079
0.00273866
0.00290159
0.00306876
0.00314591
0.00319357
0.00337053
0.00394953
0.00511478
0.00673476
0.013728
0.00467002
0.00161851
0.00652969
0.00856583
0.00898637
0.0084466
0.00759398
0.00711232
0.00775036
0.0092964
0.0102563
0.00903462
0.00713114
0.0051083
0.00404972
0.00365941
0.0035694
0.00350143
0.00332198
0.00303441
0.00271471
0.002441
0.0022596
0.00217841
0.00217731
0.00223182
0.00232976
0.00246992
0.00265578
0.00289128
0.00317736
0.00352875
0.00396912
0.00454895
0.00523908
0.00589732
0.00635285
0.00658117
0.00409769
0.00304363
0.00305682
0.00490976
0.0064377
0.00737766
0.00826459
0.00974634
0.0114345
0.0119943
0.0107206
0.00732768
0.00556585
0.00430368
0.00365512
0.00335096
0.00318287
0.00301762
0.00280325
0.0025535
0.00231579
0.00213312
0.00202035
0.00197049
0.00196944
0.00200669
0.00207892
0.00218922
0.0023463
0.00256528
0.00286646
0.00325764
0.00374125
0.00431184
0.00491138
0.00542902
0.00575955
0.00530201
0.00281127
0.0090754
0.0151839
0.00537718
0.00549016
0.00756453
0.00957696
0.0113708
0.0128314
0.013239
0.0122231
0.00992762
0.00682292
0.00406547
0.00365707
0.00337466
0.00321184
0.00309932
0.00297876
0.00282312
0.00263614
0.00243881
0.00225722
0.00211215
0.00200875
0.00194603
0.0019232
0.00194179
0.00200507
0.00211711
0.00228208
0.00251189
0.00281913
0.00321269
0.00369567
0.0042511
0.00482933
0.00540583
0.00636805
0.00375713
0.00302205
0.00538002
0.00887576
0.0101243
0.0123852
0.013593
0.013639
0.0127069
0.0108348
0.00839152
0.00605148
0.00404495
0.00256246
0.00149025
0.0014173
0.00134787
0.0012837
0.00122303
0.00116131
0.00109979
0.00104531
0.0010059
0.000985057
0.000981394
0.0009939
0.00102156
0.00106409
0.00112208
0.00119714
0.00129236
0.00141345
0.00156341
0.00174461
0.00196138
0.00221777
0.0025158
0.00285889
0.0030616
0.00253023
0.00221103
0.00282972
0.017483
0.0315286
0.0218115
0.0137229
0.0091103
0.00684267
0.00593464
0.00578463
0.00562447
0.00561608
0.00630178
0.00745838
0.0128872
0.0154792
0.0158846
0.0153955
0.0134192
0.0110277
0.00908557
0.00758823
0.00660162
0.0065907
0.00766587
0.00877019
0.00481346
0.00778717
0.00893844
0.00879397
0.00802213
0.0072563
0.00726485
0.00848965
0.00994434
0.0101707
0.00232603
0.00397107
0.00575318
0.00696166
0.00777567
0.00891601
0.0106491
0.0119281
0.01157
0.00970436
0.0263644
0.0104344
0.0047493
0.00658023
0.00856154
0.0104916
0.012178
0.0132126
0.0128784
0.0112769
0.00837773
0.00556402
0.0141108
0.00936849
0.0113477
0.0131668
0.0137386
0.0132939
0.0118785
0.00963969
0.00718291
0.0050006
0.00322201
0.00205416
0.0143958
0.0184089
0.0207143
0.0186439
0.0147607
0.0111066
0.0086791
0.00734289
0.00649646
0.00601686
0.00635413
0.00749536
0.00917364
0.0110516
0.0116348
0.0119474
0.0120093
0.0110677
0.00961344
0.00820597
0.0070957
0.00691831
0.00798268
0.00927502
0.00301553
0.00367809
0.00596615
0.00720481
0.00747236
0.00736185
0.00779262
0.00931785
0.010844
0.010903
0.00189243
0.00353776
0.00537873
0.00711166
0.00874558
0.0105979
0.0123044
0.0128247
0.0118349
0.00930145
0.00924397
0.0128169
0.00802304
0.00890112
0.0108974
0.012289
0.013043
0.0129106
0.0116408
0.00964709
0.00702298
0.00449204
0.00772415
0.00642734
0.00722456
0.00778654
0.00766164
0.0069201
0.00575865
0.00440258
0.00316763
0.00221194
0.00151964
0.00129722
0.0156836
0.0209577
0.0200598
0.0168079
0.0128007
0.00972256
0.00791784
0.00688299
0.00618911
0.00605716
0.00687546
0.0080446
0.00952864
0.0113947
0.0117163
0.0121044
0.0116442
0.0103625
0.00888476
0.0075814
0.00684662
0.00732678
0.00870224
0.00951699
0.00246958
0.00492026
0.00673052
0.00742898
0.00741776
0.00743502
0.00845378
0.0101895
0.0111022
0.0102838
0.00230751
0.00447427
0.00626187
0.00792641
0.00962927
0.011576
0.0127287
0.0125468
0.0107025
0.00794172
0.0233523
0.0104332
0.00804741
0.0100061
0.0116533
0.0127513
0.0131133
0.0124059
0.0107094
0.00841834
0.0056318
0.00387705
0.00610118
0.00687281
0.00753629
0.00782015
0.00735306
0.00638087
0.00508549
0.00375268
0.00265717
0.00182613
0.00133377
0.0013637
)
;

boundaryField
{
    floor
    {
        type            kqRWallFunction;
        value           nonuniform List<scalar> 
36
(
0.00238739
0.000485046
0.000668017
0.000854487
0.000917618
0.000881313
0.000768264
0.000654036
0.000559966
0.000484565
0.000423627
0.000373879
0.000332957
0.000298762
0.000269344
0.000242971
0.000218053
0.00020525
0.000174624
0.000174624
0.000307842
0.000434439
0.00057526
0.00104056
0.00114437
0.00134644
0.00238739
0.00348805
0.00236454
0.00156835
0.000485046
0.00156835
0.000482323
0.00223817
0.00119061
0.00302914
)
;
    }
    ceiling
    {
        type            kqRWallFunction;
        value           nonuniform List<scalar> 
58
(
0.00610118
0.00687281
0.00753629
0.00782015
0.00735306
0.00638087
0.00508549
0.00375268
0.00265717
0.00182613
0.00133377
0.0013637
0.00149025
0.0014173
0.00134787
0.0012837
0.00122303
0.00116131
0.00109979
0.00104531
0.0010059
0.000985057
0.000981394
0.0009939
0.00102156
0.00106409
0.00112208
0.00119714
0.00129236
0.00141345
0.00156341
0.00174461
0.00196138
0.00221777
0.0025158
0.00285889
0.0030616
0.00253023
0.00221103
0.00282972
0.00952864
0.0113947
0.00189243
0.00538002
0.00642734
0.00722456
0.00778654
0.00766164
0.0069201
0.00575865
0.00440258
0.00316763
0.00221194
0.00151964
0.00129722
0.00822139
0.0110516
0.00304363
)
;
    }
    sWall
    {
        type            kqRWallFunction;
        value           nonuniform List<scalar> 4(0.00924397 0.00772415 0.0090754 0.00538002);
    }
    nWall
    {
        type            kqRWallFunction;
        value           nonuniform List<scalar> 6(0.00134644 0.00145168 0.00202893 0.00281127 0.00302205 0.00282972);
    }
    sideWalls
    {
        type            empty;
    }
    glass1
    {
        type            kqRWallFunction;
        value           nonuniform List<scalar> 10(0.00197454 0.00368165 0.0056765 0.00816661 0.0111059 0.0149623 0.0143958 0.00917364 0.0132197 0.00822139);
    }
    glass2
    {
        type            kqRWallFunction;
        value           nonuniform List<scalar> 2(0.00467002 0.00409769);
    }
    sun
    {
        type            kqRWallFunction;
        value           nonuniform List<scalar> 
14
(
0.00197454
0.00230401
0.0023845
0.00261378
0.00283687
0.00305653
0.00328213
0.00352726
0.00378399
0.00403077
0.00423157
0.00430907
0.00414595
0.00362379
)
;
    }
    Table_master
    {
        type            kqRWallFunction;
        value           nonuniform List<scalar> 9(0.00140797 0.00107503 0.000833606 0.000661045 0.000536542 0.000445226 0.000377202 0.000326203 0.000288864);
    }
    Table_slave
    {
        type            kqRWallFunction;
        value           nonuniform List<scalar> 9(0.00178731 0.00148804 0.00129843 0.00116639 0.00106091 0.000962939 0.000874424 0.000785978 0.000689276);
    }
    inlet
    {
        type            turbulentIntensityKineticEnergyInlet;
        intensity       0.05;
        value           uniform 0.0009375;
    }
    outlet
    {
        type            zeroGradient;
    }
}


// ************************************************************************* //
