/*--------------------------------*- C++ -*----------------------------------*\
  =========                 |
  \\      /  F ield         | OpenFOAM: The Open Source CFD Toolbox
   \\    /   O peration     | Website:  https://openfoam.org
    \\  /    A nd           | Version:  6
     \\/     M anipulation  |
\*---------------------------------------------------------------------------*/
FoamFile
{
    version     2.0;
    format      ascii;
    class       volScalarField;
    location    "6200";
    object      nut;
}
// * * * * * * * * * * * * * * * * * * * * * * * * * * * * * * * * * * * * * //

dimensions      [0 2 -1 0 0 0 0];

internalField   nonuniform List<scalar> 
778
(
0.000839121
0.00088841
0.00123265
0.000886903
0.00218197
0.001571
0.000923902
0.00182815
0.00306425
0.00190511
0.00095691
0.00206124
0.00212132
0.00424198
0.0022415
0.000986242
0.00221281
0.00295248
0.00202053
0.005791
0.00257737
0.00101295
0.00237603
0.00323006
0.00335663
0.0020515
0.00757743
0.00292317
0.00103814
0.00253811
0.00347935
0.00376305
0.00325389
0.00249508
0.0092655
0.00323287
0.00106292
0.00268582
0.00370726
0.00399985
0.00390331
0.00277461
0.00349659
0.0105767
0.00333477
0.00108861
0.00280316
0.00390539
0.0041747
0.00409339
0.00379713
0.00225782
0.00501612
0.010218
0.00328235
0.00111447
0.0028717
0.00406769
0.00429429
0.0041618
0.00399322
0.00349444
0.00217246
0.00648464
0.00830001
0.0030914
0.00114026
0.00290423
0.00418602
0.0043675
0.00414622
0.00396729
0.00383872
0.00283292
0.00304443
0.00682606
0.00710971
0.00282697
0.00116746
0.00288024
0.00427605
0.00440859
0.0040724
0.00382631
0.00378893
0.00351035
0.00189659
0.00444783
0.00664944
0.00639992
0.00258089
0.00119874
0.0027611
0.00437264
0.00445386
0.00398482
0.00361097
0.00358759
0.00359497
0.00232774
0.002784
0.0052188
0.00643117
0.00571084
0.00258047
0.00123366
0.00247181
0.00447072
0.00457618
0.00395201
0.00340051
0.00328012
0.00344995
0.0027603
0.00204863
0.00391334
0.00558816
0.00614218
0.0056753
0.00233236
0.00193589
0.00454179
0.00479954
0.00404997
0.00331307
0.00295162
0.00315053
0.00284382
0.00188702
0.00306299
0.00468996
0.00573848
0.0062342
0.00242308
0.00134883
0.00451443
0.00512494
0.00430622
0.00340842
0.002838
0.00263146
0.00260266
0.00196584
0.00262869
0.00401109
0.00516166
0.00576376
0.00239133
0.00131559
0.00419056
0.00549478
0.00473245
0.00368178
0.00298177
0.00259558
0.00240351
0.00213864
0.00250378
0.00360036
0.00467316
0.00529384
0.00297431
0.000192694
0.00129187
0.00318461
0.00571542
0.00531253
0.00413261
0.00329438
0.00283004
0.00256215
0.00240764
0.00263562
0.00343145
0.00433829
0.00490244
0.00331695
0.000100119
0.00271083
0.00153734
0.00539607
0.00596617
0.00476628
0.0037654
0.0031881
0.00286715
0.0027274
0.00286933
0.00342556
0.00415037
0.00460267
0.0034281
0.000127739
0.000412422
0.00249533
0.00404611
0.00658518
0.0055385
0.00442444
0.00366958
0.00324744
0.00305734
0.00311158
0.00347177
0.00400323
0.0043458
0.00338364
0.000233324
0.000268153
0.00091875
0.00392922
0.00447078
0.00159231
0.00706019
0.00639228
0.0052315
0.00432373
0.00374718
0.00343692
0.00336371
0.00353433
0.00385027
0.00400279
0.00312755
0.000320311
0.000390363
0.00217565
0.00540149
0.00242345
0.00388733
0.00184731
0.00430243
0.00695882
0.00721311
0.00611369
0.00514758
0.00443232
0.0039657
0.00372395
0.00368856
0.00377314
0.00371508
0.00286102
0.000509626
0.0013297
0.0053965
0.00655091
0.0018981
0.00236685
0.00192025
0.0014298
0.00599102
0.007342
0.00770268
0.00694154
0.00604766
0.00529501
0.00471471
0.00431532
0.00408483
0.00395724
0.00373529
0.00298511
0.00137028
0.00387187
0.00817203
0.00804944
0.00195425
0.00232042
0.00117902
0.00344163
0.00669891
0.00763894
0.00789155
0.00753247
0.00687179
0.00622151
0.00564516
0.00517522
0.00482487
0.00456511
0.00428587
0.00378268
0.00319054
0.00679177
0.0100258
0.00903541
0.00194523
0.000878064
0.00216882
0.00471322
0.00679113
0.00773301
0.00795195
0.00780772
0.00746325
0.00703866
0.0066037
0.00619796
0.00585612
0.00559224
0.00538735
0.00523395
0.00556416
0.00904198
0.0110704
0.00946534
0.00187453
0.000904608
0.00299607
0.00517866
0.00576629
0.00762483
0.00788541
0.00785405
0.00774581
0.00759072
0.00739193
0.00717177
0.00696981
0.0068302
0.00680204
0.00699622
0.00784881
0.0104492
0.0115256
0.00947101
0.00177267
0.000910798
0.00341149
0.00459308
0.00132467
0.00719487
0.00770926
0.00773006
0.00775136
0.00780645
0.00785371
0.00787509
0.00789249
0.00795612
0.00814105
0.00858039
0.00955165
0.0111609
0.0115184
0.00917062
0.00166517
0.000896544
0.00337097
0.00117616
0.0012054
0.00582666
0.0074342
0.00750163
0.00755443
0.00771334
0.00793296
0.00816551
0.00840191
0.00867201
0.00903685
0.00958358
0.0103823
0.0112511
0.0110471
0.00862365
0.00156252
0.000866464
0.00262848
0.00102102
0.00111434
0.0050763
0.00699891
0.00723359
0.00725216
0.00740447
0.00767988
0.00802346
0.00840154
0.00881096
0.00927097
0.00979605
0.0103101
0.0105562
0.010103
0.00785021
0.00146416
0.000821582
0.0022429
0.000902228
0.00103846
0.00455206
0.00656683
0.00696175
0.00694013
0.00700492
0.00722022
0.00754689
0.0079404
0.00837396
0.00881897
0.00922274
0.00943635
0.00925351
0.00872186
0.00688581
0.00136861
0.000775155
0.00197947
0.000809888
0.00097402
0.00413488
0.00617049
0.00671568
0.00668375
0.0066352
0.00671485
0.00691379
0.00719654
0.00752025
0.00784423
0.00806047
0.00803781
0.00765091
0.00709946
0.00583531
0.00127929
0.000731602
0.0017804
0.000736849
0.000916339
0.00371038
0.00579616
0.0064961
0.00650592
0.00637531
0.00631037
0.00633622
0.00642662
0.00655531
0.0066661
0.00669834
0.00653565
0.00607329
0.00556959
0.00486827
0.00120486
0.000691847
0.00161764
0.000678168
0.000862015
0.0032885
0.0053695
0.0062766
0.00638916
0.00624357
0.00609013
0.00598399
0.00590372
0.00583036
0.00569432
0.00551712
0.00523448
0.00479197
0.00447485
0.00412364
0.00115527
0.000656132
0.00147893
0.000630497
0.000808014
0.00287211
0.0048943
0.00599845
0.00628841
0.00620331
0.00604436
0.00590287
0.0057565
0.00547827
0.00507952
0.00466313
0.00428727
0.00396488
0.00386554
0.00364884
0.00113086
0.000623916
0.00135656
0.000591962
0.000749542
0.00245618
0.00436989
0.00564056
0.00614356
0.00618954
0.00609353
0.00599371
0.00583846
0.00541976
0.00477487
0.00413892
0.00372537
0.0035321
0.0035789
0.00338658
0.00112276
0.000594658
0.00124223
0.000562429
0.000702824
0.00202988
0.00379349
0.00518879
0.00591318
0.00613412
0.00614052
0.00611455
0.00597888
0.00551229
0.00469682
0.00388744
0.0034399
0.00332491
0.00346041
0.0032694
0.00112638
0.00056775
0.00112914
0.000624924
0.000732322
0.00157119
0.00316299
0.00463598
0.00557094
0.00598996
0.00611993
0.00615562
0.00607839
0.00563923
0.00475947
0.00381258
0.00329983
0.00322245
0.00342484
0.0032508
0.00113768
0.000542406
0.00102705
0.000740133
0.0012484
0.00121177
0.00248494
0.00398274
0.00510444
0.00573042
0.00600528
0.00610662
0.00607056
0.00571951
0.00486909
0.00382983
0.00322423
0.00316381
0.00342745
0.00329717
0.00115334
0.000517541
0.000939576
0.00115787
0.00065618
0.00123135
0.00186625
0.00324813
0.0045134
0.00534346
0.0057823
0.00597451
0.00598368
0.00570162
0.00494207
0.00386834
0.00316651
0.00311636
0.00343891
0.00337846
0.00117081
0.000491335
0.00104452
0.000596916
0.000968404
0.00143106
0.00251821
0.00381634
0.00482819
0.00544232
0.00575226
0.00582896
0.00560449
0.00492368
0.00386679
0.00309199
0.0030581
0.00343786
0.00346637
0.00118836
0.000468303
0.000527639
0.000777295
0.00111819
0.00184445
0.00307354
0.00419797
0.00498227
0.00542919
0.00559835
0.00543674
0.00481432
0.0037869
0.0029767
0.00297527
0.00341265
0.00353829
0.00120508
0.000423477
0.00102804
0.00125602
0.00137622
0.00231852
0.00348679
0.00440518
0.00499479
0.00527618
0.00518934
0.00462434
0.00362109
0.00281901
0.00286764
0.00336439
0.00358267
0.0012208
0.000981013
0.00219433
0.00125417
0.00164706
0.0026867
0.00370456
0.00442872
0.00483131
0.0048329
0.00434533
0.0033933
0.00263521
0.00275096
0.00330564
0.00360153
0.00123606
0.00116979
0.00223274
0.00113132
0.00159782
0.00272541
0.00365336
0.00418344
0.00428242
0.00393448
0.00311503
0.00245587
0.00264761
0.00325293
0.00360677
0.00125187
0.00138097
0.00328078
0.00141019
0.00123691
0.00246151
0.00315746
0.00334725
0.00327649
0.0027789
0.00230051
0.00257618
0.00321788
0.00361183
0.00126949
0.00182584
0.00521883
0.00251214
0.00131835
0.00187749
0.00208206
0.00230481
0.00235068
0.00217225
0.00254035
0.00320489
0.00362472
0.00129029
0.00205868
0.00502869
0.00273223
0.00154137
0.00147937
0.00155032
0.00185638
0.00206052
0.0025347
0.00321632
0.00364718
0.00131575
0.00210405
0.00559228
0.0031887
0.00197525
0.00163774
0.00158363
0.00196437
0.00255352
0.00325323
0.003681
0.00134784
0.00213507
0.00566351
0.00361987
0.00246969
0.00187863
0.00195574
0.00260415
0.00332248
0.00373372
0.00138949
0.00223672
0.0057416
0.00376667
0.00274849
0.00223565
0.00272407
0.0034431
0.00382288
0.00144461
0.00216444
0.00486569
0.00386661
0.00300347
0.00300545
0.00365447
0.003975
0.00151734
0.00204733
0.00464353
0.0041853
0.00364187
0.00402776
0.0042243
0.00161024
0.00198302
0.00524868
0.0050775
0.00471576
0.00460392
0.0017229
0.00209558
0.0056056
0.00635869
0.00516248
0.00185248
0.00220317
0.0063712
0.00626161
0.00199582
0.00227321
0.00670784
0.00215008
0.00232004
0.00230421
0.0021531
)
;

boundaryField
{
    floor
    {
        type            nutkWallFunction;
        Cmu             0.09;
        kappa           0.41;
        E               9.8;
        value           nonuniform List<scalar> 
36
(
0.000147864
0.000106266
0.00010943
0.000110166
0.00010847
0.00010488
9.94959e-05
9.38897e-05
8.85942e-05
8.37277e-05
7.93273e-05
7.53332e-05
7.16841e-05
6.83086e-05
6.51115e-05
6.19569e-05
5.86116e-05
5.56532e-05
4.98415e-05
4.98414e-05
6.32397e-05
7.19657e-05
7.93323e-05
9.41476e-05
0.000124002
0.000118473
0.000147864
0.000161024
0.000157239
0.000154531
0.000106266
0.000154531
0.000141569
0.000182301
0.000170198
0.000188449
)
;
    }
    ceiling
    {
        type            nutkWallFunction;
        Cmu             0.09;
        kappa           0.41;
        E               9.8;
        value           nonuniform List<scalar> 
43
(
0.000267961
0.00022464
0.000216647
0.000222219
0.000228362
0.000227386
0.000219654
0.000208454
0.000196556
0.00018512
0.000174088
0.000163296
0.000153131
0.000144593
0.000138858
0.000136023
0.000135072
0.000135484
0.000136791
0.000138607
0.000140633
0.000142669
0.000144607
0.000146426
0.000148187
0.000150003
0.000152022
0.000154395
0.000157287
0.000160916
0.000165601
0.000171773
0.000179883
0.00019021
0.000202688
0.000216976
0.000232686
0.000249471
0.000266116
0.000249809
0.00026942
0.00027912
0.000308998
)
;
    }
    sWall
    {
        type            nutkWallFunction;
        Cmu             0.09;
        kappa           0.41;
        E               9.8;
        value           nonuniform List<scalar> 9(0.000369508 0.000349679 0.000322011 0.000296022 0.000295972 0.000269509 0.000279014 0.000272992 0.000268057);
    }
    nWall
    {
        type            nutkWallFunction;
        Cmu             0.09;
        kappa           0.41;
        E               9.8;
        value           nonuniform List<scalar> 
14
(
0.000118481
0.000140511
0.000164684
0.000244721
0.000248087
0.000258904
0.000250735
0.000238273
0.000231511
0.000244144
0.000255435
0.000262922
0.000267834
0.000249846
)
;
    }
    sideWalls
    {
        type            empty;
    }
    glass1
    {
        type            nutkWallFunction;
        Cmu             0.09;
        kappa           0.41;
        E               9.8;
        value           nonuniform List<scalar> 9(0.000101625 0.000147914 0.00018634 0.000223388 0.000259979 0.000295932 0.000332436 0.00036475 0.000375321);
    }
    glass2
    {
        type            nutkWallFunction;
        Cmu             0.09;
        kappa           0.41;
        E               9.8;
        value           nonuniform List<scalar> 2(0.000214459 0.000239882);
    }
    sun
    {
        type            nutkWallFunction;
        Cmu             0.09;
        kappa           0.41;
        E               9.8;
        value           nonuniform List<scalar> 
14
(
0.000101605
0.000107502
0.000107322
0.000111724
0.000115635
0.000119097
0.000122239
0.000125193
0.000128091
0.000131088
0.000134097
0.000137089
0.000140237
0.000143847
)
;
    }
    Table_master
    {
        type            nutkWallFunction;
        Cmu             0.09;
        kappa           0.41;
        E               9.8;
        value           nonuniform List<scalar> 9(0.000141231 0.000123177 0.000109143 9.80862e-05 8.92354e-05 8.20492e-05 7.61564e-05 7.13538e-05 6.76474e-05);
    }
    Table_slave
    {
        type            nutkWallFunction;
        Cmu             0.09;
        kappa           0.41;
        E               9.8;
        value           nonuniform List<scalar> 9(0.00015826 0.000144602 0.000134072 0.000125223 0.000117649 0.000110821 0.000104345 9.78602e-05 9.07806e-05);
    }
    inlet
    {
        type            calculated;
        value           uniform 0.000528271;
    }
    outlet
    {
        type            calculated;
        value           nonuniform List<scalar> 2(0.00242345 0.00392922);
    }
}


// ************************************************************************* //
