/*--------------------------------*- C++ -*----------------------------------*\
  =========                 |
  \\      /  F ield         | OpenFOAM: The Open Source CFD Toolbox
   \\    /   O peration     | Website:  https://openfoam.org
    \\  /    A nd           | Version:  6
     \\/     M anipulation  |
\*---------------------------------------------------------------------------*/
FoamFile
{
    version     2.0;
    format      ascii;
    class       volScalarField;
    location    "47800.0000007510171";
    object      epsilon;
}
// * * * * * * * * * * * * * * * * * * * * * * * * * * * * * * * * * * * * * //

dimensions      [0 2 -3 0 0 0 0];

internalField   nonuniform List<scalar> 
778
(
0.000253129
0.000306347
0.00030298
0.000344139
0.000384992
0.000424795
0.000464241
0.000504522
0.000547375
0.000595518
0.000644008
0.000692453
0.000742497
0.00079893
0.00086077
8.94692e-05
0.000262764
0.000269252
0.000250226
0.00022038
0.000184297
0.000152473
0.000126612
0.000105973
8.94994e-05
7.63448e-05
6.56878e-05
5.68864e-05
4.94141e-05
4.2799e-05
3.65425e-05
3.18326e-05
2.3608e-05
0.000797031
0.00144324
0.000286974
0.000259563
0.000261661
0.000267635
0.000276536
0.000289974
0.000310241
0.000340467
0.000379723
0.000430904
0.000499379
0.000600702
0.000786
0.00112987
0.000979193
0.000858756
0.000511864
0.000369544
0.000294349
0.000243058
0.000204242
0.000187104
0.000154844
0.000125094
0.000100751
8.15217e-05
6.65486e-05
5.48394e-05
4.56467e-05
3.87226e-05
3.45334e-05
3.27797e-05
6.57887e-05
4.81028e-05
0.00163072
0.00407928
0.000407394
0.000242904
0.00022908
0.000230998
0.000238221
0.000250498
0.000268416
0.000292707
0.000324865
0.000366978
0.000421427
0.000495213
0.000601683
0.000725014
0.000830172
0.00158465
0.00102776
0.000512349
0.000367792
0.000294405
0.000262258
0.000551944
0.000362996
0.000251017
0.000181522
0.000136414
0.000105996
8.48298e-05
6.98568e-05
5.94917e-05
4.51575e-05
3.80022e-05
0.000108085
7.08118e-05
0.00285374
0.00877085
0.000709922
0.000240707
0.000202458
0.000199999
0.00020318
0.000209816
0.000220644
0.000237576
0.00026329
0.000300075
0.000349343
0.000412539
0.000488266
0.000560465
0.000612612
0.000824599
0.00156505
0.000728853
0.000459745
0.000358271
0.000301905
0.000291828
0.000814313
0.000612918
0.000482152
0.000388732
0.000319328
0.000264494
0.000218903
0.000179135
0.000141949
8.38852e-05
5.49566e-05
0.00014834
9.4541e-05
0.00454638
0.0158279
0.00134646
0.000258335
0.000175714
0.000166777
0.000165795
0.000167781
0.000173953
0.000187467
0.000211727
0.000248441
0.00029791
0.000359518
0.000428029
0.000489413
0.000528769
0.000582634
0.000627679
0.000483252
0.000393499
0.000331021
0.000282289
0.00024863
0.000247853
0.000226805
0.000202972
0.000181097
0.00016272
0.000146559
0.000131888
0.000118287
0.000105118
8.45371e-05
6.42907e-05
0.00010511
0.000138809
0.000160011
0.000359209
0.000319806
0.00676416
0.0248787
0.00255362
0.00031808
0.000155523
0.000137053
0.000132123
0.0001307
0.000134474
0.000148562
0.000176717
0.000218108
0.000270883
0.000334269
0.000401943
0.000462854
0.000503225
0.000521896
0.000504977
0.000438373
0.000373886
0.000315679
0.000264762
0.000223409
0.000193315
0.000169651
0.000150829
0.000135637
0.000123305
0.00011276
0.000103305
9.45339e-05
8.60703e-05
7.58981e-05
6.54233e-05
7.76131e-05
9.97376e-05
0.000207802
0.00105565
0.000550005
0.00967274
0.0336369
0.00458384
0.000465033
0.00015084
0.000116337
0.00010709
0.000103293
0.000107091
0.000127909
0.000166101
0.00021586
0.000273322
0.000340146
0.000409504
0.000470676
0.000510411
0.000520679
0.000494519
0.00043778
0.000371939
0.000307537
0.000250585
0.000204466
0.000169767
0.000144565
0.000126324
0.000112731
0.00010228
9.37202e-05
8.62356e-05
7.93535e-05
7.27845e-05
6.61071e-05
6.03758e-05
6.38606e-05
7.67348e-05
0.000171312
0.00156955
0.000894047
0.0127596
0.0404056
0.00748987
0.000871448
0.000194332
0.000115405
9.74103e-05
9.14895e-05
9.87006e-05
0.000137734
0.000189264
0.000246206
0.00030702
0.000373879
0.000444927
0.000508276
0.000547642
0.000551196
0.000515937
0.000451739
0.000375628
0.000301018
0.000236504
0.000185971
0.000149311
0.000123967
0.000106687
9.45454e-05
8.57231e-05
7.88093e-05
7.29193e-05
6.7561e-05
6.24873e-05
5.76614e-05
5.40287e-05
5.60593e-05
7.01159e-05
0.000335668
0.0053495
0.00196128
0.0138282
0.0414593
0.0139313
0.00316349
0.000630229
0.000208185
0.000132813
0.000116117
0.00014264
0.000193074
0.000249354
0.000306414
0.000367333
0.000436667
0.000511175
0.00057589
0.000611117
0.000603406
0.000552405
0.000471166
0.000378601
0.00029094
0.00021823
0.000163979
0.000126734
0.000102563
8.72386e-05
7.72975e-05
7.06293e-05
6.56523e-05
6.14739e-05
5.76518e-05
5.40112e-05
5.06567e-05
4.85787e-05
5.31316e-05
9.70548e-05
0.000939434
0.0129219
0.00294504
0.0130051
0.0283705
0.0144149
0.00572651
0.00210489
0.000835379
0.000414366
0.000277419
0.000279565
0.00031503
0.000356356
0.000401841
0.000458625
0.000530886
0.000609949
0.000673957
0.000698736
0.000670794
0.000594075
0.000486933
0.000372757
0.000270668
0.000191048
0.000135658
0.000100599
7.9815e-05
6.79057e-05
6.11248e-05
5.70449e-05
5.41057e-05
5.15615e-05
4.91084e-05
4.66955e-05
4.46128e-05
4.45368e-05
5.84147e-05
0.000221425
0.00265344
0.0109185
0.00308376
0.0106896
0.0193561
0.0120382
0.00630046
0.00317523
0.0016757
0.000987749
0.000680007
0.00056094
0.000518065
0.00051091
0.000531725
0.000583755
0.000662596
0.00074711
0.000804668
0.00080708
0.000744217
0.000628398
0.000486392
0.000347641
0.000233431
0.000152296
0.000101649
7.34917e-05
5.8762e-05
5.13202e-05
4.78682e-05
4.60575e-05
4.47303e-05
4.34083e-05
4.19403e-05
4.04104e-05
3.94458e-05
4.28078e-05
8.61408e-05
0.000632092
0.00297452
0.00798604
0.00295288
0.00807133
0.0137678
0.00969086
0.00593314
0.00357002
0.00222804
0.00149147
0.00109384
0.000870121
0.000744295
0.000686477
0.00069045
0.000750454
0.000844119
0.000931167
0.000967352
0.000925509
0.000805879
0.0006356
0.000452689
0.000292957
0.000177079
0.000106729
6.93713e-05
5.2468e-05
4.43463e-05
4.04931e-05
3.90563e-05
3.84558e-05
3.80015e-05
3.74039e-05
3.65953e-05
3.5763e-05
3.60185e-05
4.59875e-05
0.000163394
0.000895559
0.00286556
0.00602687
0.00266817
0.00612177
0.010163
0.00778777
0.00531137
0.00356991
0.00246923
0.00178827
0.00136864
0.00109345
0.00092665
0.000859789
0.000886769
0.000981934
0.00109547
0.00116687
0.00114799
0.00102627
0.00082286
0.000587645
0.000369335
0.000207833
0.000114308
7.19762e-05
5.22959e-05
4.29461e-05
3.81724e-05
3.57418e-05
3.4811e-05
3.44806e-05
3.43187e-05
3.41698e-05
3.40726e-05
3.43581e-05
3.66679e-05
5.24753e-05
0.000175185
0.00081085
0.00249593
0.00568382
0.00254638
0.00618014
0.00780394
0.00679904
0.0047369
0.00336416
0.00246157
0.00186539
0.00146217
0.00119478
0.00106517
0.00107072
0.00117937
0.00132634
0.0014326
0.00143284
0.00129721
0.00105141
0.000744669
0.000458191
0.000238823
0.000130846
8.16237e-05
6.00757e-05
4.95928e-05
4.36292e-05
3.97364e-05
3.71279e-05
3.56866e-05
3.50842e-05
3.50348e-05
3.55927e-05
3.70787e-05
4.01489e-05
4.67591e-05
6.66221e-05
0.00015825
0.000600294
0.00201936
0.00467785
0.00309178
0.00454466
0.00511031
0.00418304
0.00336055
0.0026388
0.00206936
0.00164841
0.00136165
0.00124554
0.00130149
0.00147767
0.00168276
0.00181621
0.00180579
0.00162821
0.0012996
0.000912401
0.000522444
0.000279717
0.000154843
0.000101592
7.92658e-05
6.85418e-05
6.18414e-05
5.65496e-05
5.1851e-05
4.77672e-05
4.49027e-05
4.3801e-05
4.4403e-05
4.73598e-05
5.39646e-05
6.5994e-05
8.61411e-05
0.000122354
0.000210711
0.000530217
0.00189242
0.00362874
0.0032408
0.00140119
0.00143121
0.00143303
0.00135336
0.00131077
0.00142424
0.00170989
0.0020436
0.00230148
0.00239324
0.00227371
0.00196168
0.00152118
0.000981008
0.000570472
0.000312992
0.000187068
0.000135011
0.000114755
0.000105503
9.96484e-05
9.45457e-05
8.91753e-05
8.31956e-05
7.69715e-05
7.19264e-05
7.04522e-05
7.34861e-05
8.3194e-05
0.000103217
0.000137981
0.000192517
0.000276696
0.000423555
0.000754888
0.00206222
0.00343252
0.00336261
0.00118734
0.00171564
0.00195198
0.00230831
0.00275772
0.00316183
0.0033398
0.00330079
0.00306996
0.00267239
0.00210464
0.00148864
0.000960622
0.000565574
0.000337915
0.000232045
0.000191297
0.000176402
0.00017
0.000166149
0.000163013
0.000159746
0.000155622
0.000150071
0.000143257
0.000136961
0.000135707
0.000142571
0.000161712
0.000200025
0.000266846
0.000374054
0.000539849
0.000803223
0.0012621
0.00221009
0.00405095
0.00299251
0.00742158
0.00807846
0.00480657
0.00340048
0.00373588
0.00414951
0.0041638
0.00395271
0.00359349
0.00313453
0.00262159
0.00207698
0.00153023
0.00104826
0.000691967
0.000475507
0.000371785
0.000329396
0.000311342
0.000301203
0.000294076
0.000289109
0.000286348
0.000285484
0.000285456
0.00028469
0.0002821
0.000278928
0.000280973
0.000292885
0.000319271
0.000368223
0.000452156
0.000589321
0.000808284
0.00116047
0.00174475
0.00269021
0.00404928
0.00280206
0.00650495
0.00513422
0.00437135
0.00462412
0.0045424
0.00427352
0.00369196
0.00304505
0.00245908
0.00196539
0.00155996
0.00123135
0.000974822
0.000790827
0.000674155
0.000608767
0.000569993
0.000544279
0.000525157
0.000510648
0.000501332
0.00049883
0.000504694
0.000519601
0.000542844
0.000572222
0.000604415
0.000635821
0.000663521
0.000693077
0.000733631
0.000795861
0.000892194
0.00103963
0.00126495
0.00161276
0.00215239
0.00299201
0.00369568
0.00342758
0.00535729
0.00336909
0.00331788
0.00361402
0.00387112
0.00353002
0.00292464
0.00230718
0.00177972
0.00135986
0.00103654
0.000796424
0.00062863
0.000522235
0.000463454
0.000436426
0.000429848
0.000432007
0.000439393
0.00045253
0.000473245
0.000503395
0.000543888
0.000594131
0.000652111
0.00071511
0.000780759
0.000848114
0.000918615
0.000993157
0.00107575
0.00117382
0.00129547
0.00144865
0.00163958
0.00186819
0.00212294
0.0024009
0.00280595
0.0029566
)
;

boundaryField
{
    floor
    {
        Cmu             0.09;
        kappa           0.41;
        E               9.8;
        type            epsilonWallFunction;
        value           nonuniform List<scalar> 
36
(
0.00086077
8.94692e-05
0.000262764
0.000269252
0.000250226
0.00022038
0.000184297
0.000152473
0.000126612
0.000105973
8.94994e-05
7.63448e-05
6.56878e-05
5.68864e-05
4.94141e-05
4.2799e-05
3.65425e-05
3.18326e-05
2.3608e-05
2.3608e-05
4.81028e-05
7.08118e-05
9.4541e-05
0.000160011
0.000359209
0.000319806
0.00086077
0.00112987
0.000979193
0.000858756
8.94692e-05
0.000858756
0.000511864
0.00158465
0.00102776
0.00156505
)
;
    }
    ceiling
    {
        Cmu             0.09;
        kappa           0.41;
        E               9.8;
        type            epsilonWallFunction;
        value           nonuniform List<scalar> 
43
(
0.00535729
0.00336909
0.00331788
0.00361402
0.00387112
0.00353002
0.00292464
0.00230718
0.00177972
0.00135986
0.00103654
0.000796424
0.00062863
0.000522235
0.000463454
0.000436426
0.000429848
0.000432007
0.000439393
0.00045253
0.000473245
0.000503395
0.000543888
0.000594131
0.000652111
0.00071511
0.000780759
0.000848114
0.000918615
0.000993157
0.00107575
0.00117382
0.00129547
0.00144865
0.00163958
0.00186819
0.00212294
0.0024009
0.00280595
0.0029566
0.00454466
0.00511031
0.00118734
)
;
    }
    sWall
    {
        Cmu             0.09;
        kappa           0.41;
        E               9.8;
        type            epsilonWallFunction;
        value           nonuniform List<scalar> 9(0.0130051 0.0106896 0.00807133 0.00612177 0.00618014 0.00454466 0.00742158 0.00650495 0.00535729);
    }
    nWall
    {
        Cmu             0.09;
        kappa           0.41;
        E               9.8;
        type            epsilonWallFunction;
        value           nonuniform List<scalar> 
14
(
0.000319806
0.000550005
0.000894047
0.00308376
0.00295288
0.00266817
0.00254638
0.00309178
0.0032408
0.00336261
0.00299251
0.00280206
0.00342758
0.0029566
)
;
    }
    sideWalls
    {
        type            empty;
    }
    glass1
    {
        Cmu             0.09;
        kappa           0.41;
        E               9.8;
        type            epsilonWallFunction;
        value           nonuniform List<scalar> 9(0.000253129 0.000797031 0.00163072 0.00285374 0.00454638 0.00676416 0.00967274 0.0127596 0.0138282);
    }
    glass2
    {
        Cmu             0.09;
        kappa           0.41;
        E               9.8;
        type            epsilonWallFunction;
        value           nonuniform List<scalar> 2(0.00196128 0.00294504);
    }
    sun
    {
        Cmu             0.09;
        kappa           0.41;
        E               9.8;
        type            epsilonWallFunction;
        value           nonuniform List<scalar> 
14
(
0.000253129
0.000306347
0.00030298
0.000344139
0.000384992
0.000424795
0.000464241
0.000504522
0.000547375
0.000595518
0.000644008
0.000692453
0.000742497
0.00079893
)
;
    }
    Table_master
    {
        Cmu             0.09;
        kappa           0.41;
        E               9.8;
        type            epsilonWallFunction;
        value           nonuniform List<scalar> 9(0.000551944 0.000362996 0.000251017 0.000181522 0.000136414 0.000105996 8.48298e-05 6.98568e-05 5.94917e-05);
    }
    Table_slave
    {
        Cmu             0.09;
        kappa           0.41;
        E               9.8;
        type            epsilonWallFunction;
        value           nonuniform List<scalar> 9(0.000814313 0.000612918 0.000482152 0.000388732 0.000319328 0.000264494 0.000218903 0.000179135 0.000141949);
    }
    inlet
    {
        type            turbulentMixingLengthDissipationRateInlet;
        mixingLength    0.01;
        phi             phi;
        k               k;
        value           uniform 0.000471671;
    }
    outlet
    {
        type            zeroGradient;
    }
}


// ************************************************************************* //
