/*--------------------------------*- C++ -*----------------------------------*\
  =========                 |
  \\      /  F ield         | OpenFOAM: The Open Source CFD Toolbox
   \\    /   O peration     | Website:  https://openfoam.org
    \\  /    A nd           | Version:  6
     \\/     M anipulation  |
\*---------------------------------------------------------------------------*/
FoamFile
{
    version     2.0;
    format      ascii;
    class       volScalarField;
    location    "100";
    object      alphat;
}
// * * * * * * * * * * * * * * * * * * * * * * * * * * * * * * * * * * * * * //

dimensions      [1 -1 -1 0 0 0 0];

internalField   nonuniform List<scalar> 
459
(
0.000871262
0.000904426
0.00088543
0.000916064
0.000942941
0.000965936
0.000985884
0.00100372
0.00102043
0.00103721
0.00105147
0.00106217
0.00106929
0.00107448
0.00107803
0.000914823
0.000865011
0.000817799
0.000787262
0.00076476
0.000738832
0.000702697
0.000667845
0.000634258
0.000602286
0.000572252
0.000544318
0.00051851
0.000494725
0.000472662
0.000451732
0.000431497
0.000432056
0.000408155
0.0013565
0.00204714
0.00164073
0.00191214
0.00202582
0.00215204
0.00228101
0.00240116
0.00249676
0.00254755
0.00256378
0.00252013
0.00238055
0.00209518
0.00162767
0.00113315
0.00105863
0.00109328
0.00204942
0.00267389
0.003083
0.00321971
0.00303254
0.00240916
0.0020242
0.00174363
0.00152928
0.00136024
0.00122461
0.00111374
0.00101976
0.000936098
0.000867674
0.000808741
0.00107047
0.000569048
0.00179854
0.00313278
0.00174676
0.00265748
0.00282283
0.00294289
0.00304192
0.00312189
0.00318359
0.00322191
0.00323448
0.00319469
0.00306764
0.00281261
0.00240813
0.00189722
0.00128887
0.00127191
0.00369558
0.00451822
0.00466681
0.00450489
0.00369
0.000911572
0.000778786
0.000689145
0.000625658
0.000578439
0.000541806
0.000512544
0.000489062
0.000471585
0.000542094
0.00064309
0.00127456
0.000691116
0.00224749
0.00476117
0.00170998
0.00301545
0.00330204
0.00339764
0.00345565
0.00349653
0.00352994
0.00355703
0.00357816
0.0035784
0.00353328
0.00340272
0.00312761
0.00264936
0.00199269
0.00141887
0.00420719
0.00476034
0.00501138
0.00502154
0.00479553
0.00393306
0.000952513
0.000895682
0.000877229
0.000868882
0.000858138
0.000836955
0.000801064
0.000763986
0.000719823
0.000695692
0.000724749
0.00165333
0.000762958
0.00269518
0.00686552
0.00204267
0.00294442
0.00353716
0.00363247
0.0036606
0.00367107
0.00368102
0.00369854
0.00372343
0.00376127
0.0038011
0.00382011
0.00379727
0.00374238
0.00373073
0.00385659
0.00425148
0.00469662
0.00490282
0.00489388
0.00479026
0.00455417
0.00399564
0.00392277
0.00391725
0.00389077
0.00380972
0.00365818
0.0034137
0.00295826
0.00240534
0.00185628
0.00138063
0.00148247
0.00109337
0.000902178
0.00105847
0.00119199
0.0031395
0.00905718
0.00327337
0.00254506
0.0034943
0.00371313
0.00376303
0.00376436
0.00374391
0.00372969
0.00372934
0.0037783
0.00385256
0.00391472
0.00391359
0.00379909
0.00357995
0.00343349
0.00366164
0.00440402
0.00475656
0.00474514
0.00468307
0.00464733
0.00462498
0.00466197
0.00468362
0.00464771
0.00454621
0.00439059
0.00420097
0.00389613
0.00342811
0.00282324
0.00218881
0.00158192
0.00139345
0.00126075
0.00178378
0.00127095
0.00359708
0.0108313
0.00609715
0.00284598
0.00258349
0.00312876
0.00355301
0.00377835
0.00384958
0.00374697
0.00368866
0.00373144
0.0038201
0.00391969
0.00397303
0.00388613
0.0035583
0.00311598
0.00310401
0.00414077
0.00473685
0.0047231
0.00465812
0.00465364
0.00469214
0.00473571
0.00473861
0.00466943
0.00454168
0.00439247
0.00426557
0.00417149
0.00387391
0.00335748
0.00278693
0.00221256
0.00193758
0.00198239
0.00212174
0.00155214
0.00372477
0.0112541
0.00857461
0.00591671
0.00387206
0.0029494
0.00297423
0.00338519
0.00378546
0.00371771
0.00364807
0.00365644
0.00372565
0.00382714
0.00392146
0.00393475
0.00368135
0.00305014
0.00264423
0.00385829
0.00482606
0.00482269
0.00475531
0.00474774
0.00475845
0.0047456
0.00467574
0.00453921
0.00436686
0.00422606
0.00418248
0.00426069
0.00434482
0.00397681
0.00367582
0.00367793
0.00425076
0.00536566
0.00653669
0.00215899
0.00366161
0.00449475
0.004907
0.00495967
0.00454349
0.00396739
0.00353097
0.00332266
0.00329325
0.00331598
0.0033782
0.0034685
0.00357531
0.00368539
0.00378359
0.00383822
0.00372112
0.00311735
0.00232166
0.00349162
0.00498983
0.00501014
0.00496449
0.00496729
0.00494544
0.00487054
0.00471591
0.00446871
0.00415614
0.00384923
0.00362115
0.00349271
0.00343514
0.00341063
0.00344168
0.00349628
0.00345762
0.00323875
0.0029495
0.00196933
0.00207937
0.0033258
0.00390153
0.00393369
0.00377576
0.00361899
0.00351794
0.00346439
0.00346247
0.00349253
0.00353353
0.00357165
0.00360445
0.00363124
0.00355233
0.00298427
0.00211918
0.00305491
0.00520069
0.00520627
0.00525134
0.00534319
0.00535626
0.00530829
0.00518333
0.00495113
0.00461536
0.00423462
0.0039096
0.00372185
0.00364295
0.00362726
0.00362848
0.00357758
0.00339181
0.00303316
0.00254925
0.00164716
0.00262915
0.00431926
0.00460546
0.00446182
0.00426578
0.00406368
0.00388792
0.00374121
0.00357935
0.0033892
0.00319486
0.0030167
0.00287439
0.0027822
0.00269161
0.00238442
0.00180694
0.0026037
0.00481959
0.00484273
0.00505001
0.00521346
0.00526042
0.00526497
0.0052326
0.00514246
0.00498534
0.00476484
0.00449043
0.00429515
0.00419441
0.00416644
0.00416656
0.00417435
0.00413369
0.00402784
0.00324041
0.00168191
0.00267721
0.00272503
0.00277717
0.00303938
0.00289186
0.00256615
0.00238221
0.00222863
0.00209489
0.00197595
0.00187099
0.00177817
0.0016924
0.00161118
0.00153369
0.00146034
0.00139164
0.00132533
0.00125895
0.00133397
0.00145908
0.00140164
0.0014108
0.00141769
0.00141881
0.00141733
0.001415
0.0014142
0.00141923
0.00143639
0.00147396
0.0015255
0.00159396
0.00167668
0.00177112
0.00189192
0.00192201
0.00187347
0.0017459
0.00161034
)
;

boundaryField
{
    floor
    {
        type            compressible::alphatWallFunction;
        Prt             0.85;
        value           nonuniform List<scalar> 
29
(
0.000153098
0.000130114
0.000122999
0.000116213
0.000111799
0.000108533
0.000104757
9.94685e-05
9.43367e-05
8.93602e-05
8.45929e-05
8.0086e-05
7.58679e-05
7.19469e-05
6.83117e-05
6.49198e-05
6.16838e-05
5.85371e-05
5.86217e-05
5.48805e-05
5.48798e-05
7.9589e-05
9.77488e-05
0.000108254
0.000153096
0.000130113
0.000155234
0.000179906
0.000199902
)
;
    }
    ceiling
    {
        type            compressible::alphatWallFunction;
        Prt             0.85;
        value           nonuniform List<scalar> 
43
(
0.000363777
0.000369808
0.000376374
0.000409259
0.000390853
0.000349818
0.000326399
0.000306696
0.000289419
0.000273952
0.00026022
0.000248006
0.000236657
0.000225853
0.000215487
0.000205622
0.00019633
0.000187314
0.000178244
0.000188522
0.00020547
0.000197704
0.000198941
0.000199872
0.000200023
0.000199822
0.000199507
0.000199399
0.00020008
0.000202399
0.000207469
0.000214399
0.000223564
0.000234581
0.000247086
0.000262977
0.00026692
0.000260559
0.000243758
0.000225757
0.000486249
0.000586993
0.00035764
)
;
    }
    sWall
    {
        type            compressible::alphatWallFunction;
        Prt             0.85;
        value           uniform 0.00036251;
    }
    nWall
    {
        type            compressible::alphatWallFunction;
        Prt             0.85;
        value           nonuniform List<scalar> 6(0.000168614 0.00017946 0.000217523 0.000230249 0.000234866 0.000225342);
    }
    sideWalls
    {
        type            empty;
    }
    glass1
    {
        type            compressible::alphatWallFunction;
        Prt             0.85;
        value           nonuniform List<scalar> 9(0.000119921 0.000186203 0.00024447 0.000302216 0.000358699 0.000413871 0.000469893 0.000485559 0.000478157);
    }
    glass2
    {
        type            compressible::alphatWallFunction;
        Prt             0.85;
        value           nonuniform List<scalar> 2(0.000294537 0.000270197);
    }
    sun
    {
        type            compressible::alphatWallFunction;
        Prt             0.85;
        value           nonuniform List<scalar> 
14
(
0.000123911
0.000128624
0.000125914
0.000130281
0.000134098
0.000137353
0.00014017
0.000142683
0.000145032
0.000147388
0.000149386
0.000150882
0.000151877
0.000152602
)
;
    }
    heatsource1
    {
        type            compressible::alphatWallFunction;
        Prt             0.85;
        value           nonuniform List<scalar> 3(0.000128559 0.000150629 0.00016918);
    }
    heatsource2
    {
        type            compressible::alphatWallFunction;
        Prt             0.85;
        value           nonuniform List<scalar> 4(0.000161036 0.000150657 0.000150655 0.000182491);
    }
    Table_master
    {
        type            compressible::alphatWallFunction;
        Prt             0.85;
        value           nonuniform List<scalar> 9(0.000129902 0.000110825 9.77282e-05 8.83274e-05 8.12595e-05 7.57268e-05 7.12739e-05 6.76772e-05 6.49864e-05);
    }
    Table_slave
    {
        type            compressible::alphatWallFunction;
        Prt             0.85;
        value           nonuniform List<scalar> 9(0.00013572 0.000127639 0.000125002 0.000123806 0.000122266 0.000119222 0.000114047 0.000108671 0.000102226);
    }
    inlet
    {
        type            fixedValue;
        value           uniform 1.94e-05;
    }
    outlet
    {
        type            zeroGradient;
    }
}


// ************************************************************************* //
