/*--------------------------------*- C++ -*----------------------------------*\
  =========                 |
  \\      /  F ield         | OpenFOAM: The Open Source CFD Toolbox
   \\    /   O peration     | Website:  https://openfoam.org
    \\  /    A nd           | Version:  6
     \\/     M anipulation  |
\*---------------------------------------------------------------------------*/
FoamFile
{
    version     2.0;
    format      ascii;
    class       volScalarField;
    location    "100";
    object      epsilon;
}
// * * * * * * * * * * * * * * * * * * * * * * * * * * * * * * * * * * * * * //

dimensions      [0 2 -3 0 0 0 0];

internalField   nonuniform List<scalar> 
459
(
0.000146265
0.000162994
0.000152927
0.000169359
0.00018471
0.000198559
0.000211118
0.000222786
0.0002341
0.000245846
0.000256127
0.000264018
0.000269359
0.0002733
0.000276016
0.000168735
0.000142607
0.000120492
0.000107477
9.85105e-05
8.88193e-05
7.64123e-05
6.55945e-05
5.61843e-05
4.81054e-05
4.1258e-05
3.55023e-05
3.06845e-05
2.66491e-05
2.32372e-05
2.02822e-05
1.76743e-05
1.77379e-05
1.49543e-05
0.000553507
0.00128706
0.000151081
0.000129035
0.000127867
0.000129128
0.000132322
0.000138516
0.000148829
0.000164255
0.000182526
0.000202011
0.000220693
0.000237376
0.000259671
0.000320524
0.000261364
0.000287957
0.000156415
0.00011141
9.36674e-05
8.16877e-05
7.18593e-05
6.52583e-05
5.54105e-05
4.64008e-05
3.85992e-05
3.20948e-05
2.68038e-05
2.25531e-05
1.91758e-05
1.66456e-05
1.51738e-05
1.54283e-05
6.62186e-05
4.04992e-05
0.00129353
0.00419049
0.000256689
0.00013141
0.000124172
0.00012665
0.000132663
0.000142498
0.000156352
0.000173954
0.000193563
0.000212406
0.000228707
0.000244468
0.000269723
0.000325849
0.000471728
0.000453406
0.00016823
0.000128233
0.0001059
8.99973e-05
8.44612e-05
0.000166763
0.000103975
7.20345e-05
5.3894e-05
4.2581e-05
3.49851e-05
2.9611e-05
2.57192e-05
2.3055e-05
1.89141e-05
1.98185e-05
0.000155889
7.25367e-05
0.00253047
0.00975978
0.000554549
0.000147554
0.000129641
0.000135122
0.000144435
0.000157269
0.000173964
0.000194704
0.000217447
0.000236183
0.000247852
0.000254867
0.000266651
0.000304046
0.000413535
0.000629377
0.000317631
0.000202421
0.000150981
0.000114981
9.39975e-05
8.9431e-05
0.000190327
0.000158232
0.000148636
0.000144418
0.000139114
0.00012905
0.000113138
9.8133e-05
8.20668e-05
5.10611e-05
4.12394e-05
0.00036089
9.7601e-05
0.00437403
0.0181448
0.0012818
0.000182288
0.000134219
0.000142123
0.00015682
0.000176847
0.000202899
0.000235233
0.000270112
0.000294855
0.000304483
0.000300861
0.000288635
0.000275595
0.000274216
0.000284191
0.000253184
0.00022682
0.000171435
0.000130491
0.000107706
9.85468e-05
0.000103096
0.000104252
0.000106455
0.000108121
0.000106889
0.000100573
8.88198e-05
7.78233e-05
6.92134e-05
5.80705e-05
5.13923e-05
0.000210655
0.000136205
0.000161488
0.000260909
0.000372686
0.00692763
0.0268765
0.00302841
0.000305831
0.000150065
0.000148953
0.000166202
0.00019422
0.000234929
0.000292103
0.00035106
0.00038452
0.00039249
0.000381841
0.000356646
0.000318177
0.000270946
0.000239139
0.000246015
0.000259719
0.000205711
0.000158029
0.000133448
0.00012312
0.000122853
0.000127303
0.000134069
0.000140951
0.000144959
0.000142266
0.000128534
0.000104849
8.49398e-05
6.9344e-05
6.3364e-05
0.000125371
0.000134336
0.000140304
0.000499959
0.000451555
0.0104352
0.0313451
0.00744537
0.00122044
0.000371606
0.000233265
0.000218065
0.000241556
0.000293506
0.000401163
0.000483918
0.000511234
0.000505034
0.000481637
0.000446341
0.0003959
0.000323526
0.000254527
0.000250046
0.000302768
0.000259999
0.000204653
0.000176302
0.000164594
0.000163065
0.000168072
0.000177541
0.000190325
0.000203986
0.000215418
0.000216796
0.000188441
0.000153834
0.000128173
0.000121542
0.000158334
0.000226791
0.000408414
0.000924213
0.000822468
0.0116174
0.0409303
0.0188626
0.00890827
0.00368273
0.00153416
0.000844736
0.000655363
0.000640958
0.000718792
0.000724203
0.000689481
0.000641263
0.000591388
0.000541773
0.000487679
0.000408882
0.00030364
0.000262707
0.00035132
0.000341592
0.000281108
0.000248803
0.000234574
0.00023029
0.000232685
0.000240925
0.000256088
0.000280703
0.00031756
0.000366032
0.00041798
0.000421423
0.000456551
0.000577866
0.000971525
0.00201452
0.00408046
0.0113972
0.00222078
0.011077
0.0204089
0.0158832
0.0116589
0.00792565
0.00508716
0.00326679
0.00222353
0.00167024
0.00131083
0.00106971
0.000905301
0.000789581
0.000703832
0.000635865
0.000577232
0.000509287
0.000386705
0.000293061
0.000400795
0.000465514
0.000411858
0.000378379
0.000361813
0.000351711
0.000345174
0.000342437
0.000346967
0.000366673
0.000413185
0.000498436
0.000632311
0.000823477
0.00108584
0.00148254
0.00200076
0.00254389
0.00294443
0.00323243
0.00168974
0.00537838
0.00662782
0.00601746
0.00465943
0.00341556
0.00251682
0.00191713
0.00151308
0.00123972
0.00104994
0.000912727
0.000808975
0.000728651
0.000667703
0.000603184
0.000466456
0.000345246
0.000452777
0.000671781
0.000651659
0.00063162
0.000625362
0.000615603
0.000602287
0.000584881
0.000563421
0.00054393
0.000540777
0.000575089
0.000667968
0.000825279
0.0010537
0.00135078
0.00166205
0.00186674
0.00181433
0.00140961
0.00098786
0.00390165
0.00825168
0.00669816
0.00493262
0.00367338
0.00276862
0.00213058
0.00167699
0.00134172
0.00109184
0.000904619
0.000764896
0.000663168
0.000592794
0.000538207
0.000482971
0.000399024
0.000537678
0.00086688
0.00100735
0.00104019
0.00105552
0.00105295
0.00103929
0.0010142
0.000977298
0.000934197
0.000896989
0.000882091
0.000919826
0.00102323
0.00119832
0.00143675
0.00172596
0.00197325
0.00206353
0.00128787
0.00105156
0.00416067
0.00438618
0.00464267
0.00613687
0.00530637
0.00371867
0.00297715
0.00243855
0.00202574
0.00170005
0.00144335
0.00123907
0.00106833
0.000921819
0.000795128
0.000686441
0.00059405
0.000513122
0.000439972
0.000524189
0.000685774
0.000607989
0.000619924
0.000629035
0.00063052
0.000628545
0.000625457
0.0006244
0.000631086
0.000654253
0.000706951
0.000783739
0.000894061
0.00104065
0.00122669
0.00149554
0.00156829
0.00145257
0.00117565
0.000922884
)
;

boundaryField
{
    floor
    {
        Cmu             0.09;
        kappa           0.41;
        E               9.8;
        type            epsilonWallFunction;
        value           nonuniform List<scalar> 
29
(
0.000276016
0.000168735
0.000142607
0.000120492
0.000107477
9.85105e-05
8.88193e-05
7.64123e-05
6.55945e-05
5.61843e-05
4.81054e-05
4.1258e-05
3.55023e-05
3.06845e-05
2.66491e-05
2.32372e-05
2.02822e-05
1.76743e-05
1.77379e-05
1.49543e-05
1.49543e-05
4.04992e-05
7.25367e-05
9.7601e-05
0.000276016
0.000168735
0.000287957
0.000453406
0.000629377
)
;
    }
    ceiling
    {
        Cmu             0.09;
        kappa           0.41;
        E               9.8;
        type            epsilonWallFunction;
        value           nonuniform List<scalar> 
43
(
0.00416067
0.00438618
0.00464267
0.00613687
0.00530637
0.00371867
0.00297715
0.00243855
0.00202574
0.00170005
0.00144335
0.00123907
0.00106833
0.000921819
0.000795128
0.000686441
0.00059405
0.000513122
0.000439972
0.000524189
0.000685774
0.000607989
0.000619924
0.000629035
0.00063052
0.000628545
0.000625457
0.0006244
0.000631086
0.000654253
0.000706951
0.000783739
0.000894061
0.00104065
0.00122669
0.00149554
0.00156829
0.00145257
0.00117565
0.000922884
0.011077
0.0204089
0.00390165
)
;
    }
    sWall
    {
        Cmu             0.09;
        kappa           0.41;
        E               9.8;
        type            epsilonWallFunction;
        value           uniform 0.00416067;
    }
    nWall
    {
        Cmu             0.09;
        kappa           0.41;
        E               9.8;
        type            epsilonWallFunction;
        value           nonuniform List<scalar> 6(0.000372686 0.000451555 0.000822468 0.00098786 0.00105156 0.000922884);
    }
    sideWalls
    {
        type            empty;
    }
    glass1
    {
        Cmu             0.09;
        kappa           0.41;
        E               9.8;
        type            epsilonWallFunction;
        value           nonuniform List<scalar> 9(0.000146265 0.000553507 0.00129353 0.00253047 0.00437403 0.00692763 0.0104352 0.0116174 0.011077);
    }
    glass2
    {
        Cmu             0.09;
        kappa           0.41;
        E               9.8;
        type            epsilonWallFunction;
        value           nonuniform List<scalar> 2(0.00222078 0.00168974);
    }
    sun
    {
        Cmu             0.09;
        kappa           0.41;
        E               9.8;
        type            epsilonWallFunction;
        value           nonuniform List<scalar> 
14
(
0.000146265
0.000162994
0.000152927
0.000169359
0.00018471
0.000198559
0.000211118
0.000222786
0.0002341
0.000245846
0.000256127
0.000264018
0.000269359
0.0002733
)
;
    }
    heatsource1
    {
        Cmu             0.09;
        kappa           0.41;
        E               9.8;
        type            epsilonWallFunction;
        value           nonuniform List<scalar> 3(0.000161488 0.000260909 0.000372686);
    }
    heatsource2
    {
        Cmu             0.09;
        kappa           0.41;
        E               9.8;
        type            epsilonWallFunction;
        value           nonuniform List<scalar> 4(0.000320524 0.000261364 0.000261364 0.000471728);
    }
    Table_master
    {
        Cmu             0.09;
        kappa           0.41;
        E               9.8;
        type            epsilonWallFunction;
        value           nonuniform List<scalar> 9(0.000166763 0.000103975 7.20345e-05 5.3894e-05 4.2581e-05 3.49851e-05 2.9611e-05 2.57192e-05 2.3055e-05);
    }
    Table_slave
    {
        Cmu             0.09;
        kappa           0.41;
        E               9.8;
        type            epsilonWallFunction;
        value           nonuniform List<scalar> 9(0.000190327 0.000158232 0.000148636 0.000144418 0.000139114 0.00012905 0.000113138 9.8133e-05 8.20668e-05);
    }
    inlet
    {
        type            turbulentMixingLengthDissipationRateInlet;
        mixingLength    0.01;
        phi             phi;
        k               k;
        value           uniform 0.000471672;
    }
    outlet
    {
        type            zeroGradient;
    }
}


// ************************************************************************* //
