/*--------------------------------*- C++ -*----------------------------------*\
  =========                 |
  \\      /  F ield         | OpenFOAM: The Open Source CFD Toolbox
   \\    /   O peration     | Website:  https://openfoam.org
    \\  /    A nd           | Version:  6
     \\/     M anipulation  |
\*---------------------------------------------------------------------------*/
FoamFile
{
    version     2.0;
    format      ascii;
    class       volScalarField;
    location    "100";
    object      nut;
}
// * * * * * * * * * * * * * * * * * * * * * * * * * * * * * * * * * * * * * //

dimensions      [0 2 -1 0 0 0 0];

internalField   nonuniform List<scalar> 
459
(
0.000744879
0.000772259
0.000756019
0.000782182
0.000805137
0.000824777
0.000841814
0.000857046
0.000871317
0.000885653
0.000897832
0.000906961
0.000913037
0.000917468
0.000920495
0.000781146
0.00073857
0.000698236
0.000672143
0.000652911
0.000630756
0.000599891
0.00057012
0.000541429
0.000514115
0.000488455
0.000464587
0.000442534
0.000422209
0.000403353
0.000385467
0.000368175
0.000368627
0.000348246
0.00116078
0.0017481
0.00140094
0.00163271
0.00172981
0.00183762
0.00194778
0.00205041
0.00213208
0.00217547
0.00218934
0.00215204
0.00203281
0.00178907
0.00138982
0.000967523
0.000903863
0.000933493
0.00174975
0.00228278
0.00263195
0.00274855
0.00258867
0.00205645
0.00172777
0.00148821
0.00130518
0.00116084
0.00104502
0.000950345
0.000870095
0.000798658
0.000740236
0.000689919
0.000913148
0.000485481
0.00154041
0.00267557
0.00149156
0.0022693
0.00241059
0.00251322
0.00259789
0.00266627
0.00271904
0.00275181
0.00276255
0.00272852
0.0026199
0.00240195
0.0020564
0.00162004
0.00110053
0.00108602
0.00315527
0.00385748
0.00398419
0.00384581
0.00315003
0.000778126
0.000664727
0.000588169
0.000533943
0.000493607
0.000462311
0.000437309
0.000417242
0.000402305
0.000462437
0.000548567
0.00108718
0.000589607
0.00192654
0.0040672
0.00146026
0.00257519
0.00282012
0.00290196
0.0029517
0.00298679
0.00301546
0.00303869
0.00305676
0.00305686
0.00301811
0.00290631
0.00267107
0.00226243
0.00170158
0.00121156
0.0035924
0.00406465
0.00427887
0.00428738
0.00409426
0.00335779
0.000813168
0.00076463
0.000748859
0.000741718
0.00073253
0.000714429
0.00068377
0.000652097
0.000614372
0.00059366
0.000618335
0.00141037
0.000650916
0.00231209
0.00586649
0.00174453
0.0025147
0.00302119
0.0031029
0.00312722
0.00313645
0.00314519
0.00316033
0.00318165
0.00321387
0.00324759
0.00326341
0.00324343
0.00319612
0.00318589
0.00329323
0.00363042
0.00401054
0.00418653
0.00417877
0.00409014
0.00388842
0.00341145
0.00334916
0.00334438
0.00332171
0.00325243
0.00312296
0.00291413
0.00252522
0.0020531
0.00158425
0.00117808
0.00126474
0.000932792
0.00076989
0.000903388
0.0010174
0.00269508
0.00774204
0.00279602
0.00217375
0.00298477
0.00317203
0.00321504
0.00321657
0.00319946
0.00318761
0.00318746
0.00322922
0.00329233
0.00334491
0.00334333
0.00324494
0.00305734
0.00293206
0.00312689
0.00376094
0.00406195
0.00405209
0.00399896
0.00396832
0.00394914
0.00398064
0.00399905
0.00396831
0.00388155
0.00374856
0.00358649
0.00332602
0.00292627
0.00240969
0.0018679
0.00134974
0.00118885
0.00107572
0.00152205
0.00108463
0.00308943
0.00926426
0.00521061
0.00243127
0.00220696
0.00267296
0.00303574
0.00322867
0.00328999
0.0032028
0.00315329
0.00318981
0.00326524
0.00334976
0.00339465
0.00331971
0.00303909
0.00266102
0.00265078
0.00353634
0.00404539
0.00403357
0.00397798
0.00397404
0.00400683
0.00404397
0.00404638
0.00398723
0.00387805
0.00375051
0.00364197
0.00356135
0.00330701
0.00286586
0.00237855
0.00188806
0.00165326
0.00169151
0.00181047
0.0013246
0.00320194
0.00964442
0.00734095
0.00506079
0.00331002
0.00252066
0.00254178
0.00289315
0.00323558
0.00317828
0.00311903
0.00312608
0.00318486
0.00327104
0.00335097
0.00336161
0.00314445
0.00260489
0.00225818
0.00329526
0.00412183
0.00411892
0.00406128
0.00405473
0.0040638
0.00405277
0.00399306
0.00387641
0.00372916
0.00360882
0.00357146
0.003638
0.00370942
0.00339491
0.00313767
0.00313919
0.00362806
0.00458014
0.00558041
0.0018445
0.0031515
0.00386352
0.00421385
0.00425413
0.0038931
0.00339687
0.0030217
0.00284261
0.00281707
0.00283617
0.00288892
0.0029656
0.00305635
0.00314985
0.00323316
0.00327922
0.00317858
0.0026624
0.00198274
0.00298226
0.00426197
0.00427932
0.00424027
0.00424258
0.00422387
0.00415987
0.00402778
0.00381662
0.00354965
0.00328751
0.00309271
0.00298304
0.00293395
0.00291315
0.00293997
0.00298707
0.00295465
0.00276815
0.00252124
0.0016839
0.00175897
0.00282947
0.00332922
0.00336073
0.00322723
0.00309368
0.00300738
0.00296152
0.00295968
0.00298509
0.00301978
0.00305198
0.00307962
0.00310211
0.0030343
0.00254876
0.00180986
0.00260941
0.00444235
0.0044472
0.00448566
0.00456406
0.0045752
0.00453421
0.00442748
0.00422918
0.00394242
0.00361726
0.00333971
0.00317942
0.00311213
0.0030989
0.00310023
0.00305711
0.00289877
0.00259253
0.00217902
0.00140802
0.00222564
0.00367455
0.00392682
0.00380849
0.00364298
0.00347115
0.0033213
0.003196
0.00305771
0.00289522
0.00272912
0.00257685
0.00245519
0.00237634
0.00229885
0.00203637
0.00154322
0.00222419
0.00411718
0.00413709
0.00431414
0.00445373
0.00449383
0.00449771
0.00447007
0.00439309
0.0042589
0.0040706
0.00383625
0.00366951
0.00358356
0.00355984
0.00356017
0.00356716
0.00353277
0.00344256
0.00276949
0.00143765
0.00227384
0.0023142
0.00235846
0.00258834
0.00246588
0.00219029
0.00203379
0.0019029
0.00178882
0.00168731
0.00159771
0.00151847
0.00144525
0.00137591
0.00130975
0.00124713
0.00118846
0.00113185
0.00107524
0.00113974
0.00124665
0.00119761
0.00120544
0.00121133
0.00121228
0.00121102
0.00120903
0.00120835
0.00121265
0.00122731
0.00125942
0.00130346
0.00136196
0.00143266
0.00151341
0.00161675
0.00164255
0.00160111
0.00149211
0.00137644
)
;

boundaryField
{
    floor
    {
        type            nutkWallFunction;
        Cmu             0.09;
        kappa           0.41;
        E               9.8;
        value           nonuniform List<scalar> 
29
(
0.000111311
9.46227e-05
8.94513e-05
8.4521e-05
8.13131e-05
7.89393e-05
7.6195e-05
7.23529e-05
6.86242e-05
6.50081e-05
6.15436e-05
5.8268e-05
5.52019e-05
5.23515e-05
4.97085e-05
4.72423e-05
4.48893e-05
4.26012e-05
4.26604e-05
3.99438e-05
3.99437e-05
5.78848e-05
7.10654e-05
7.86917e-05
0.000111311
9.46227e-05
0.00011286
0.000130775
0.000145298
)
;
    }
    ceiling
    {
        type            nutkWallFunction;
        Cmu             0.09;
        kappa           0.41;
        E               9.8;
        value           nonuniform List<scalar> 
43
(
0.000262837
0.000267164
0.000271901
0.000296422
0.000283442
0.000253932
0.000236994
0.00022272
0.000210192
0.00019897
0.000189005
0.000180141
0.000171905
0.000164063
0.000156539
0.000149379
0.000142634
0.000136089
0.000129513
0.000137022
0.000149333
0.000143698
0.000144595
0.000145272
0.000145381
0.000145236
0.000145007
0.000144929
0.000145423
0.000147109
0.000150791
0.000155826
0.000162484
0.000170489
0.000179578
0.000191134
0.000194007
0.000189392
0.000177188
0.00016413
0.000355743
0.000428907
0.0002576
)
;
    }
    sWall
    {
        type            nutkWallFunction;
        Cmu             0.09;
        kappa           0.41;
        E               9.8;
        value           uniform 0.000262907;
    }
    nWall
    {
        type            nutkWallFunction;
        Cmu             0.09;
        kappa           0.41;
        E               9.8;
        value           nonuniform List<scalar> 6(0.000122751 0.000130611 0.000158241 0.000167723 0.000171071 0.000164145);
    }
    sideWalls
    {
        type            empty;
    }
    glass1
    {
        type            nutkWallFunction;
        Cmu             0.09;
        kappa           0.41;
        E               9.8;
        value           nonuniform List<scalar> 9(9.01943e-05 0.0001396 0.000182892 0.000225713 0.000267543 0.000308363 0.000349761 0.000361481 0.000356257);
    }
    glass2
    {
        type            nutkWallFunction;
        Cmu             0.09;
        kappa           0.41;
        E               9.8;
        value           nonuniform List<scalar> 2(0.000216479 0.00019874);
    }
    sun
    {
        type            nutkWallFunction;
        Cmu             0.09;
        kappa           0.41;
        E               9.8;
        value           nonuniform List<scalar> 
14
(
9.02145e-05
9.35397e-05
9.15697e-05
9.47412e-05
9.75135e-05
9.9878e-05
0.000101924
0.000103749
0.000105455
0.000107166
0.000108617
0.000109703
0.000110425
0.000110951
)
;
    }
    heatsource1
    {
        type            nutkWallFunction;
        Cmu             0.09;
        kappa           0.41;
        E               9.8;
        value           nonuniform List<scalar> 3(9.32512e-05 0.000109274 0.000122739);
    }
    heatsource2
    {
        type            nutkWallFunction;
        Cmu             0.09;
        kappa           0.41;
        E               9.8;
        value           nonuniform List<scalar> 4(0.000116873 0.000109335 0.000109335 0.000132451);
    }
    Table_master
    {
        type            nutkWallFunction;
        Cmu             0.09;
        kappa           0.41;
        E               9.8;
        value           nonuniform List<scalar> 9(9.42538e-05 8.0406e-05 7.08982e-05 6.40733e-05 5.89416e-05 5.49242e-05 5.16905e-05 4.90785e-05 4.7124e-05);
    }
    Table_slave
    {
        type            nutkWallFunction;
        Cmu             0.09;
        kappa           0.41;
        E               9.8;
        value           nonuniform List<scalar> 9(9.84845e-05 9.26181e-05 9.07022e-05 8.98326e-05 8.87128e-05 8.65025e-05 8.27445e-05 7.88411e-05 7.41618e-05);
    }
    inlet
    {
        type            calculated;
        value           uniform 0.000167705;
    }
    outlet
    {
        type            calculated;
        value           nonuniform List<scalar> 2(0.00227384 0.0023142);
    }
}


// ************************************************************************* //
