/*--------------------------------*- C++ -*----------------------------------*\
  =========                 |
  \\      /  F ield         | OpenFOAM: The Open Source CFD Toolbox
   \\    /   O peration     | Website:  https://openfoam.org
    \\  /    A nd           | Version:  6
     \\/     M anipulation  |
\*---------------------------------------------------------------------------*/
FoamFile
{
    version     2.0;
    format      ascii;
    class       surfaceScalarField;
    location    "100";
    object      phi;
}
// * * * * * * * * * * * * * * * * * * * * * * * * * * * * * * * * * * * * * //

dimensions      [1 0 -1 0 0 0 0];

internalField   nonuniform List<scalar> 
852
(
-0.0028242
0.00289872
-0.00326431
0.000440203
-0.00383792
0.000573704
-0.0044063
0.00056847
-0.0049135
0.000507296
-0.00533264
0.000419238
-0.00564171
0.000309156
-0.00581733
0.000175715
-0.00583327
1.60272e-05
-0.00565775
-0.000175426
-0.00526206
-0.000395592
-0.00462743
-0.000634541
-0.00371063
-0.000916714
-0.00231609
-0.00139444
-0.00231199
0.000936101
-0.0009315
0.00140685
-0.00047068
0.00160442
-0.000197494
0.00173522
-0.000130728
0.00185031
-0.000115009
0.00192795
-7.75594e-05
0.00192329
4.75543e-06
0.00187088
5.25076e-05
0.00180557
6.541e-05
0.001739
6.66902e-05
0.00167362
6.55007e-05
0.00161037
6.33771e-05
0.00154819
6.23118e-05
0.00148063
6.76959e-05
0.00138825
9.25113e-05
0.00124012
0.000148264
0.0010451
0.00019515
0.00087218
0.000173035
0.00088047
-0.00207134
0.0051668
-0.00283334
0.0012023
-0.00357095
0.00131141
-0.00419229
0.0011899
-0.00472538
0.00104049
-0.00516527
0.000859217
-0.00549702
0.000641005
-0.00570115
0.000379942
-0.00575602
7.09879e-05
-0.00564409
-0.000287259
-0.00534959
-0.000689999
-0.00485679
-0.00112724
-0.00416125
-0.00161217
-0.00339907
-0.00215654
-0.00319554
-0.00251543
-0.00106527
-0.00213024
-0.00106524
0.000620004
-0.00153948
0.000827141
-0.000677751
0.000974906
-0.000345189
0.00113412
-0.000289872
0.00129563
-0.000276437
0.00143778
-0.000219634
0.00146829
-2.56661e-05
0.00147285
4.80456e-05
0.00147653
6.18328e-05
0.00148056
6.27605e-05
0.00148453
6.16502e-05
0.00148837
5.96603e-05
0.00149144
5.93696e-05
0.00149078
6.84842e-05
0.00145748
0.000125937
0.00129214
0.000313735
0.00101671
0.000470701
0.000705015
0.000484846
0.00160557
-0.00153978
0.00700147
-0.00240952
0.00207214
-0.00316084
0.00206282
-0.0037593
0.00178846
-0.00427702
0.00155831
-0.00471369
0.00129598
-0.00505613
0.000983545
-0.00528622
0.000610138
-0.00538469
0.000169556
-0.00533519
-0.000336659
-0.00512927
-0.000895823
-0.0047746
-0.00148181
-0.0043188
-0.00206788
-0.00387689
-0.00259835
-0.00345778
-0.00293445
-0.0024794
-0.00310853
-0.00354456
-0.000321606
-0.0012
-4.53782e-05
-0.000953913
0.000293317
-0.000683817
0.000563043
-0.000559527
0.0007917
-0.00050502
0.00106794
-0.0004958
0.00104252
0.00109081
0.00115289
0.00121592
0.00127783
0.00133777
0.00139741
0.00146617
0.00159239
0.00130269
0.000603559
0.000957221
0.000816286
0.000589171
0.000853004
0.00222413
-0.00115692
0.00853275
-0.00203453
0.00294985
-0.00264216
0.00267056
-0.00314213
0.00228853
-0.00359576
0.00201204
-0.00399369
0.00169402
-0.00432183
0.00131178
-0.00456228
0.000850688
-0.00469292
0.000300302
-0.00469292
-0.000336562
-0.00456216
-0.00102648
-0.00433613
-0.00170774
-0.00408372
-0.00232019
-0.00387305
-0.00280892
-0.00367295
-0.00313445
-0.00348042
-0.00330098
-0.00406548
-0.00295941
-0.00195416
-0.00209189
-0.00117425
-0.00197985
-0.000613416
-0.00151468
-0.000182484
-0.00111468
0.000139575
-0.000881516
0.000366179
-0.000731554
0.000466487
-0.000596034
0.000869462
-0.000403056
0.00121541
-0.000346032
0.00153458
-0.000319246
0.00182236
-0.000287849
0.00205546
-0.000233178
0.00219339
-0.000138001
0.00218468
8.63641e-06
0.00198517
0.000199451
0.00153899
0.000446112
0.0012884
0.000854256
0.000825536
0.00127926
0.000112781
0.00156587
0.00237525
-0.000851235
0.009824
-0.00168839
0.0037871
-0.00202544
0.00300771
-0.00238158
0.00264478
-0.00272933
0.00235988
-0.00304201
0.00200681
-0.00330719
0.00157706
-0.00351182
0.00105542
-0.00363537
0.000423956
-0.00364692
-0.000324904
-0.00354621
-0.00112709
-0.00338699
-0.00186687
-0.00323079
-0.00247628
-0.00311148
-0.00292813
-0.00302364
-0.00322219
-0.00298601
-0.00333851
-0.00278596
-0.00315937
-0.00199307
-0.0028847
-0.001275
-0.00269785
-0.000751705
-0.0020379
-0.000389641
-0.00147668
-0.000105915
-0.00116518
0.000124605
-0.000962007
0.000337304
-0.000808664
0.000621812
-0.000687494
0.000900445
-0.000624593
0.00116829
-0.000587015
0.00142299
-0.000542477
0.00165022
-0.000460332
0.00181982
-0.00030752
0.00188612
-5.7579e-05
0.00181606
0.000269591
0.00162646
0.000635799
0.00140488
0.00107594
0.00111872
0.00156553
0.000505906
0.00217878
0.000223891
0.00265736
-0.00124879
0.00147255
-0.0017546
0.000505664
-0.00168433
-0.000729717
0.0110493
-0.00145985
0.00451733
-0.001331
0.00287897
-0.00150729
0.00282118
-0.0017404
0.00259309
-0.00193686
0.00220338
-0.00209126
0.00173157
-0.00220649
0.00117076
-0.00227481
0.000492378
-0.00225524
-0.000344368
-0.00215821
-0.00122402
-0.002053
-0.00197197
-0.00198589
-0.00254329
-0.00197552
-0.0029384
-0.00201984
-0.00317776
-0.00208318
-0.00327507
-0.00198751
-0.00325494
-0.00162293
-0.00324918
-0.00108438
-0.00323632
-0.000694896
-0.00242731
-0.000456897
-0.00171461
-0.000265286
-0.00135672
-9.54035e-05
-0.00113182
7.52547e-05
-0.000979257
0.000265706
-0.000877878
0.000463865
-0.000822684
0.000667805
-0.000790885
0.000879168
-0.000753767
0.00109538
-0.000676474
0.00130295
-0.000515005
0.00146816
-0.000222717
0.00154507
0.000192768
0.00155065
0.000630306
0.00154763
0.00107905
0.00160596
0.0015073
0.00175185
0.002033
0.00226518
0.00214412
0.00258255
0.00115526
0.00217316
0.000915128
0.000571676
-0.00104987
0.0126424
-0.00117376
0.00464132
-0.000386422
0.00209172
-0.000405507
0.00284036
-0.000609742
0.00279743
-0.000722976
0.00231672
-0.000743323
0.00175202
-0.000707692
0.00113523
-0.00062278
0.00040757
-0.000512496
-0.000454552
-0.000418188
-0.00131823
-0.000391654
-0.00199841
-0.000448478
-0.00248637
-0.000583915
-0.00280286
-0.000780973
-0.0029806
-0.00099731
-0.00305862
-0.00113966
-0.00311248
-0.00110156
-0.00328718
-0.000771988
-0.00356582
-0.000541549
-0.00265768
-0.00045952
-0.00179658
-0.000393224
-0.00142296
-0.000331554
-0.00119343
-0.000265378
-0.00104537
-0.000186292
-0.0009569
-9.56455e-05
-0.000913265
9.27559e-06
-0.000895738
0.000134803
-0.000879224
0.000290538
-0.000832136
0.000490006
-0.000714398
0.000740271
-0.000472904
0.000983593
-5.04737e-05
0.00119147
0.00042251
0.00141654
0.000854075
0.00174108
0.00118286
0.00227582
0.00149835
0.00309518
0.00132486
0.0037863
0.000464229
0.00384576
0.000855764
0.00450175
0.00235237
0.0108926
0.00276175
0.00423203
0.00235826
0.0024953
0.00181156
0.00338716
0.00132766
0.00328144
0.00107941
0.00256506
0.00106885
0.00176269
0.00119925
0.00100493
0.00144373
0.000163189
0.00166412
-0.00067484
0.00169584
-0.00134985
0.00156576
-0.00186822
0.00131429
-0.0022348
0.00097561
-0.00246407
0.000579614
-0.00258449
0.000159161
-0.00263805
-0.000235761
-0.00271744
-0.000506416
-0.00301642
-0.000392784
-0.00367938
-0.000322279
-0.00272811
-0.000426147
-0.00169265
-0.000515665
-0.00133338
-0.00058614
-0.0011229
-0.000644917
-0.000986533
-0.000693869
-0.000907887
-0.000737654
-0.000869416
-0.000777091
-0.000856235
-0.000806025
-0.000850222
-0.000810727
-0.000827363
-0.000765594
-0.000759457
-0.000624305
-0.000614117
-0.000317502
-0.000357199
5.05149e-05
5.45727e-05
0.000406565
0.000498109
0.000772255
0.000817254
0.00119951
0.00107119
0.00154041
0.000984063
0.00146671
0.000538008
0.000488751
0.00183381
0.00539247
0.0115642
0.0157993
0.0123791
0.00591567
0.00988838
0.00587793
0.00794447
0.00522544
0.0065903
0.00391933
0.00577422
0.00257886
0.00534123
0.00143801
0.00500746
0.00049706
0.00462248
-0.000289767
0.00418622
-0.000913502
0.00368994
-0.00137184
0.00313337
-0.00167813
0.00252947
-0.00186008
0.0018974
-0.00195231
0.00125718
-0.00199773
0.000627875
-0.00208802
0.000112758
-0.00250119
5.04388e-05
-0.00361699
-3.15039e-05
-0.00264609
-0.000409108
-0.00131498
-0.00066002
-0.00108241
-0.000852142
-0.000930719
-0.00102974
-0.000808878
-0.0012022
-0.000735369
-0.00138542
-0.000686136
-0.00159385
-0.000647738
-0.00183586
-0.000608144
-0.00211723
-0.000545931
-0.00244347
-0.000433142
-0.00281837
-0.00023914
-0.00325014
7.46382e-05
-0.00371715
0.000521661
-0.00432947
0.0011105
-0.00530632
0.00179418
-0.00669683
0.00246176
-0.00859156
0.00287886
-0.0107554
0.00270188
-0.00985563
0.000934144
-0.00401553
0.00898597
0.00755758
0.00754809
0.00731585
0.00716333
0.00561027
0.00701011
0.00407262
0.00691169
0.00267737
0.00682387
0.00152591
0.00666138
0.000659637
0.00633484
3.6863e-05
0.00582814
-0.000406705
0.00519388
-0.000737492
0.0044817
-0.00096585
0.00373135
-0.00110963
0.00296782
-0.00118868
0.00219435
-0.00122415
0.00139802
-0.00129158
0.000712648
-0.00181571
0.000498423
-0.00340269
0.000215801
-0.0023634
-0.00062148
-0.00047764
-0.000908567
-0.000795264
-0.0011499
-0.000689329
-0.00139033
-0.000568393
-0.001612
-0.000513645
-0.00183949
-0.000458585
-0.00209863
-0.000388543
-0.0023999
-0.00030681
-0.00273422
-0.000211541
-0.00306872
-9.8585e-05
-0.00333974
3.19495e-05
-0.00353665
0.000271622
-0.00368447
0.000669547
-0.00381631
0.00124242
-0.00396251
0.00194044
-0.00406244
0.00256177
-0.00395133
0.00276781
-0.00336537
0.00211597
-0.00181238
-0.000618789
-0.00571914
-0.000563247
0.00816914
0.00189997
0.00485267
0.00345799
0.00405231
0.00466948
0.0028612
0.00558242
0.00176451
0.00610454
0.00100386
0.0062749
0.000489359
0.00616508
0.000146771
0.00587075
-0.000112296
0.00543805
-0.000304704
0.00490887
-0.000436574
0.00431923
-0.000519906
0.00369341
-0.000562767
0.00304082
-0.00057147
0.00234635
-0.000597012
0.00157147
-0.00104072
0.000644674
-0.00247583
-0.000279891
-0.00143877
-0.0011243
0.00036682
-0.00136573
-0.000553775
-0.00162568
-0.000429325
-0.00186599
-0.00032803
-0.00206948
-0.000310099
-0.00224264
-0.000285376
-0.00239247
-0.000238657
-0.00252388
-0.000175337
-0.00263939
-9.59742e-05
-0.00274022
2.3105e-06
-0.00280594
9.77261e-05
-0.00276653
0.000232273
-0.00257023
0.000473316
-0.00217681
0.000849068
-0.00161361
0.0013773
-0.000881432
0.00182965
0.000272036
0.0016144
0.00157497
0.000813093
0.00170665
-0.000750407
-0.00389367
-0.0139862
-0.0174699
-0.00925814
-0.00437325
-0.000290954
0.00260007
0.00439527
0.00543096
0.00595345
0.00613477
0.00605845
0.0057911
0.0053933
0.00491362
0.00439261
0.00386447
0.0033124
0.0023183
-0.000109485
-0.00150426
-0.00109637
-0.00160802
-0.00199545
-0.00228175
-0.00255017
-0.00279386
-0.00299081
-0.00312444
-0.00317883
-0.00313531
-0.00299718
-0.00272555
-0.00221419
-0.00132856
8.37231e-05
0.00194625
0.0035928
0.00443849
0.00372245
)
;

boundaryField
{
    floor
    {
        type            calculated;
        value           nonuniform List<scalar> 
29
(
0
0
0
0
0
0
0
0
0
0
0
0
0
0
0
0
0
0
0
0
-8.18204e-06
-1.99858e-05
-2.92819e-05
-3.82487e-05
-4.0092e-06
-4.53018e-06
-1.19606e-05
-1.78031e-05
-1.93597e-05
)
;
    }
    ceiling
    {
        type            calculated;
        value           nonuniform List<scalar> 
43
(
-4.38225e-05
-4.32423e-05
-4.25828e-05
-3.21636e-05
-2.99262e-05
-2.9758e-05
-3.0608e-05
-3.17451e-05
-3.30541e-05
-3.44703e-05
-3.58925e-05
-3.72744e-05
-3.86814e-05
-4.01433e-05
-4.1669e-05
-4.3244e-05
-4.48494e-05
-4.65225e-05
-4.80188e-05
-4.39575e-05
-4.10254e-05
-4.20761e-05
-4.18458e-05
-4.16778e-05
-4.16284e-05
-4.1633e-05
-4.16578e-05
-4.16532e-05
-4.15272e-05
-4.11479e-05
-4.03498e-05
-3.93004e-05
-3.79852e-05
-3.6501e-05
-3.4919e-05
-3.28147e-05
-3.20872e-05
-3.25415e-05
-3.43138e-05
-3.59262e-05
-1.20498e-06
-3.02004e-06
-4.82964e-05
)
;
    }
    sWall
    {
        type            calculated;
        value           uniform -0.000233908;
    }
    nWall
    {
        type            calculated;
        value           nonuniform List<scalar> 6(-7.04159e-05 -8.2766e-05 -8.42346e-05 -0.000108717 -0.00011876 -0.000135242);
    }
    sideWalls
    {
        type            empty;
        value           nonuniform 0();
    }
    glass1
    {
        type            calculated;
        value           nonuniform List<scalar> 9(-7.44216e-05 -0.000196642 -0.0002948 -0.000374271 -0.000439926 -0.000495524 -0.000543077 -0.000602514 -0.000670326);
    }
    glass2
    {
        type            calculated;
        value           nonuniform List<scalar> 2(-0.000401894 -0.000447564);
    }
    sun
    {
        type            calculated;
        value           uniform 0;
    }
    heatsource1
    {
        type            calculated;
        value           nonuniform List<scalar> 3(2.07874e-07 2.07673e-07 2.07685e-07);
    }
    heatsource2
    {
        type            calculated;
        value           nonuniform List<scalar> 4(5.17111e-08 5.19657e-08 0 0);
    }
    Table_master
    {
        type            calculated;
        value           nonuniform List<scalar> 9(-1.55887e-07 -1.55965e-07 -1.55982e-07 -1.55995e-07 -1.56006e-07 -1.56016e-07 -1.56025e-07 -1.56029e-07 -1.56009e-07);
    }
    Table_slave
    {
        type            calculated;
        value           nonuniform List<scalar> 9(1.55889e-07 1.55837e-07 1.55741e-07 1.55654e-07 1.55586e-07 1.55553e-07 1.5557e-07 1.55596e-07 1.5569e-07);
    }
    inlet
    {
        type            calculated;
        value           uniform -0.0106279;
    }
    outlet
    {
        type            calculated;
        value           nonuniform List<scalar> 2(0.0142639 0.00352703);
    }
}


// ************************************************************************* //
