/*--------------------------------*- C++ -*----------------------------------*\
  =========                 |
  \\      /  F ield         | OpenFOAM: The Open Source CFD Toolbox
   \\    /   O peration     | Website:  https://openfoam.org
    \\  /    A nd           | Version:  6
     \\/     M anipulation  |
\*---------------------------------------------------------------------------*/
FoamFile
{
    version     2.0;
    format      ascii;
    class       volScalarField;
    location    "100";
    object      T;
}
// * * * * * * * * * * * * * * * * * * * * * * * * * * * * * * * * * * * * * //

dimensions      [0 0 0 1 0 0 0];

internalField   nonuniform List<scalar> 
459
(
301.104
300.724
300.716
300.719
300.721
300.723
300.725
300.726
300.727
300.728
300.729
300.728
300.727
300.725
300.725
300.728
300.711
300.701
300.692
300.682
300.673
300.665
300.656
300.645
300.633
300.619
300.603
300.586
300.567
300.548
300.528
300.508
300.487
300.496
301.37
300.738
300.712
300.717
300.723
300.729
300.734
300.738
300.742
300.746
300.747
300.744
300.739
300.729
300.718
300.707
300.696
300.71
300.686
300.671
300.658
300.647
300.636
300.623
300.608
300.593
300.576
300.557
300.537
300.516
300.495
300.475
300.457
300.44
300.424
300.464
301.631
300.777
300.722
300.732
300.745
300.757
300.768
300.778
300.786
300.791
300.792
300.786
300.774
300.756
300.737
300.722
300.713
300.706
300.687
300.674
300.662
300.651
300.64
300.62
300.597
300.574
300.55
300.527
300.503
300.48
300.458
300.438
300.426
300.412
300.4
300.449
301.876
300.837
300.738
300.75
300.77
300.79
300.809
300.827
300.84
300.849
300.85
300.841
300.82
300.792
300.761
300.735
300.718
300.714
300.706
300.701
300.691
300.68
300.669
300.658
300.648
300.64
300.633
300.627
300.62
300.612
300.602
300.591
300.576
300.518
300.459
300.415
300.451
302.104
300.916
300.758
300.764
300.79
300.819
300.847
300.874
300.897
300.913
300.918
300.907
300.879
300.84
300.796
300.757
300.729
300.717
300.716
300.717
300.71
300.7
300.689
300.679
300.672
300.665
300.659
300.653
300.645
300.636
300.624
300.609
300.589
300.551
300.495
300.439
300.441
300.522
300.562
300.579
302.302
301.018
300.798
300.775
300.801
300.834
300.87
300.906
300.941
300.969
300.983
300.975
300.942
300.894
300.838
300.785
300.744
300.723
300.723
300.73
300.726
300.718
300.709
300.7
300.692
300.686
300.68
300.674
300.667
300.656
300.642
300.623
300.6
300.568
300.521
300.467
300.446
300.469
300.482
300.528
302.445
301.196
300.941
300.829
300.82
300.843
300.876
300.913
300.954
301.002
301.033
301.029
300.995
300.942
300.88
300.817
300.761
300.728
300.725
300.741
300.74
300.734
300.726
300.718
300.711
300.706
300.701
300.696
300.689
300.678
300.662
300.638
300.611
300.581
300.542
300.497
300.471
300.473
300.483
300.52
302.707
301.77
301.473
301.195
301.022
300.948
300.935
300.952
300.984
301.042
301.069
301.059
301.022
300.968
300.907
300.843
300.779
300.732
300.725
300.75
300.752
300.749
300.742
300.736
300.73
300.726
300.722
300.718
300.713
300.704
300.692
300.672
300.638
300.609
300.582
300.555
300.551
300.584
300.62
300.842
303.071
302.676
302.387
302.036
301.721
301.49
301.34
301.253
301.213
301.176
301.127
301.073
301.016
300.958
300.901
300.844
300.788
300.738
300.723
300.759
300.763
300.763
300.759
300.754
300.75
300.748
300.746
300.745
300.743
300.742
300.741
300.744
300.752
300.766
300.796
300.843
300.905
300.963
301
301.091
297.863
299.571
300.468
300.831
300.965
301.008
301.016
301.008
300.988
300.959
300.924
300.887
300.849
300.81
300.771
300.732
300.723
300.769
300.775
300.781
300.778
300.775
300.773
300.772
300.773
300.775
300.779
300.785
300.792
300.801
300.812
300.829
300.856
300.894
300.935
300.967
300.981
300.998
298.071
299.553
300.226
300.553
300.704
300.77
300.795
300.798
300.797
300.791
300.782
300.772
300.759
300.746
300.731
300.715
300.721
300.79
300.795
300.805
300.803
300.8
300.799
300.799
300.799
300.801
300.804
300.809
300.815
300.823
300.832
300.846
300.867
300.894
300.924
300.947
300.939
300.975
299.051
299.018
299.016
299.851
300.237
300.532
300.605
300.642
300.661
300.669
300.675
300.68
300.684
300.688
300.692
300.695
300.698
300.702
300.724
300.837
300.84
300.851
300.85
300.85
300.85
300.85
300.851
300.851
300.852
300.852
300.853
300.854
300.856
300.861
300.87
300.893
300.908
300.917
300.921
300.962
)
;

boundaryField
{
    floor
    {
        type            wallHeatTransfer;
        Tinf            uniform 305.2;
        alphaWall       uniform 0.24;
        value           nonuniform List<scalar> 
29
(
301.254
301.325
301.335
301.352
301.362
301.367
301.376
301.395
301.413
301.431
301.449
301.466
301.482
301.496
301.509
301.522
301.535
301.548
301.531
301.576
301.576
301.343
301.222
301.172
301.254
301.325
301.235
301.176
301.145
)
;
    }
    ceiling
    {
        type            wallHeatTransfer;
        Tinf            uniform 303.2;
        alphaWall       uniform 0.24;
        value           nonuniform List<scalar> 
43
(
299.292
299.257
299.252
300.026
300.398
300.692
300.771
300.814
300.84
300.857
300.87
300.883
300.895
300.907
300.919
300.931
300.942
300.955
300.985
301.075
301.062
301.079
301.077
301.076
301.076
301.076
301.077
301.078
301.077
301.076
301.072
301.067
301.062
301.058
301.058
301.07
301.082
301.094
301.107
301.157
303.077
302.696
298.374
)
;
    }
    sWall
    {
        type            wallHeatTransfer;
        Tinf            uniform 315.2;
        alphaWall       uniform 0.36;
        value           uniform 300.421;
    }
    nWall
    {
        type            wallHeatTransfer;
        Tinf            uniform 307.2;
        alphaWall       uniform 0.36;
        value           nonuniform List<scalar> 6(301.614 301.524 301.381 301.762 301.731 301.744);
    }
    sideWalls
    {
        type            empty;
    }
    glass1
    {
        type            wallHeatTransfer;
        Tinf            uniform 315.2;
        alphaWall       uniform 4.3;
        value           nonuniform List<scalar> 9(311.634 310.634 309.964 309.435 309.019 308.68 308.371 308.414 308.656);
    }
    glass2
    {
        type            wallHeatTransfer;
        Tinf            uniform 307.2;
        alphaWall       uniform 4.3;
        value           nonuniform List<scalar> 2(304.486 304.71);
    }
    sun
    {
        type            wallHeatTransfer;
        Tinf            uniform 305.2;
        alphaWall       uniform 0.24;
        value           nonuniform List<scalar> 
14
(
301.67
301.327
301.329
301.316
301.306
301.298
301.29
301.284
301.279
301.273
301.268
301.263
301.26
301.256
)
;
    }
    heatsource1
    {
        type            fixedGradient;
        gradient        uniform 0;
    }
    heatsource2
    {
        type            fixedGradient;
        gradient        uniform 0;
    }
    Table_master
    {
        type            zeroGradient;
    }
    Table_slave
    {
        type            zeroGradient;
    }
    inlet
    {
        type            fixedValue;
        value           uniform 295.15;
    }
    outlet
    {
        type            zeroGradient;
    }
}


// ************************************************************************* //
