/*--------------------------------*- C++ -*----------------------------------*\
  =========                 |
  \\      /  F ield         | OpenFOAM: The Open Source CFD Toolbox
   \\    /   O peration     | Website:  https://openfoam.org
    \\  /    A nd           | Version:  6
     \\/     M anipulation  |
\*---------------------------------------------------------------------------*/
FoamFile
{
    version     2.0;
    format      ascii;
    class       volVectorField;
    location    "100";
    object      U;
}
// * * * * * * * * * * * * * * * * * * * * * * * * * * * * * * * * * * * * * //

dimensions      [0 1 -1 0 0 0 0];

internalField   nonuniform List<vector> 
459
(
(0.0910063 0.0781474 0)
(-0.154708 0.0089078 0)
(-0.151478 0.0123413 0)
(-0.177004 0.0111888 0)
(-0.200227 0.00859312 0)
(-0.220216 0.00534182 0)
(-0.235956 0.00157261 0)
(-0.246531 -0.00275916 0)
(-0.250932 -0.00777541 0)
(-0.247856 -0.0136806 0)
(-0.235446 -0.0210684 0)
(-0.210809 -0.0304691 0)
(-0.17256 -0.0437228 0)
(-0.13119 -0.0646366 0)
(-0.123402 -0.0935404 0)
(0.0886301 -0.0421271 0)
(0.0479366 -0.0252293 0)
(0.0582731 -0.0146086 0)
(0.0708641 -0.00938756 0)
(0.0775358 -0.00678014 0)
(0.081222 -0.004733 0)
(0.0829382 -0.00237631 0)
(0.0816702 -0.000808986 0)
(0.0788184 -6.75042e-05 0)
(0.0756987 0.000280635 0)
(0.0727754 0.000480385 0)
(0.0700313 0.000602978 0)
(0.0673755 0.000704193 0)
(0.0646557 0.000919971 0)
(0.0614185 0.00159735 0)
(0.0566413 0.00316759 0)
(0.0494216 0.00420757 0)
(0.0492329 0.00372195 0)
(-0.0316677 0.024393 0)
(0.309668 0.168886 0)
(-0.174592 0.0347526 0)
(-0.134996 0.0407834 0)
(-0.166911 0.0385846 0)
(-0.191607 0.034572 0)
(-0.212564 0.0293574 0)
(-0.229208 0.0229013 0)
(-0.240855 0.0149799 0)
(-0.246622 0.0052957 0)
(-0.245354 -0.00648456 0)
(-0.236185 -0.0200108 0)
(-0.218077 -0.0351376 0)
(-0.191951 -0.0531616 0)
(-0.163564 -0.0763927 0)
(-0.13795 -0.0975389 0)
(-0.099435 -0.0836716 0)
(-0.0596762 -0.0531989 0)
(0.0890992 -0.0525573 0)
(0.0268567 -0.0234513 0)
(0.0341549 -0.00935665 0)
(0.0447903 -0.00635794 0)
(0.052279 -0.00612884 0)
(0.0583543 -0.00437656 0)
(0.0629542 0.00160536 0)
(0.06366 0.00464615 0)
(0.0631695 0.00544282 0)
(0.06302 0.00541822 0)
(0.0631946 0.00520094 0)
(0.0634138 0.00495769 0)
(0.0635845 0.00481089 0)
(0.0636799 0.00504603 0)
(0.0631733 0.00649306 0)
(0.0596573 0.0116272 0)
(0.0502847 0.0146313 0)
(0.0566114 0.0140282 0)
(-0.0902925 0.0520291 0)
(0.499095 0.258543 0)
(-0.223087 0.0691411 0)
(-0.109368 0.071669 0)
(-0.148925 0.0633085 0)
(-0.172624 0.0548749 0)
(-0.193213 0.0449502 0)
(-0.210018 0.0330836 0)
(-0.222483 0.0189912 0)
(-0.229746 0.00254288 0)
(-0.23056 -0.0160896 0)
(-0.224405 -0.0368193 0)
(-0.211704 -0.0589685 0)
(-0.194232 -0.081934 0)
(-0.174883 -0.104425 0)
(-0.152957 -0.120352 0)
(-0.127449 -0.122843 0)
(-0.128002 -0.130752 0)
(0.0420672 -0.0528833 0)
(-0.00924872 -0.0323111 0)
(0.00546411 -0.0200912 0)
(0.018772 -0.0172151 0)
(0.0296166 -0.0163376 0)
(0.0382414 -0.0154132 0)
(0.0468725 -0.00837746 0)
(0.0475891 -0.00399795 0)
(0.0479836 -0.00221959 0)
(0.0501917 -0.00158128 0)
(0.0530628 -0.00135325 0)
(0.0558118 -0.0012998 0)
(0.0583748 -0.00127317 0)
(0.0611812 -0.000981917 0)
(0.0652201 0.00157752 0)
(0.0635915 0.0179029 0)
(0.048541 0.0266264 0)
(0.0692353 0.0281928 0)
(-0.1398 0.0788319 0)
(0.658175 0.334061 0)
(-0.279442 0.10773 0)
(-0.0760619 0.101446 0)
(-0.12486 0.087414 0)
(-0.144694 0.0764257 0)
(-0.163083 0.0638569 0)
(-0.178784 0.0488079 0)
(-0.191229 0.0307366 0)
(-0.199476 0.00928177 0)
(-0.202038 -0.0154293 0)
(-0.198245 -0.042381 0)
(-0.189935 -0.0697384 0)
(-0.179249 -0.0954139 0)
(-0.168662 -0.116985 0)
(-0.159635 -0.130966 0)
(-0.156512 -0.134767 0)
(-0.162496 -0.118499 0)
(-0.134233 -0.0451482 0)
(-0.0638696 -0.0662804 0)
(-0.0379885 -0.0520987 0)
(-0.0163285 -0.0387994 0)
(-0.00018977 -0.031049 0)
(0.011418 -0.026515 0)
(0.0183739 -0.0227663 0)
(0.0274239 -0.0162649 0)
(0.0439362 -0.0141302 0)
(0.0587708 -0.012714 0)
(0.0718036 -0.0113671 0)
(0.0829636 -0.00955849 0)
(0.0911933 -0.00687615 0)
(0.0947593 -0.00313944 0)
(0.0909629 0.00199536 0)
(0.0777716 0.00890615 0)
(0.0609363 0.0294332 0)
(0.040845 0.0449908 0)
(0.0782576 0.0532562 0)
(-0.216102 0.100549 0)
(0.789454 0.396415 0)
(-0.332823 0.14668 0)
(-0.0380802 0.123549 0)
(-0.0958265 0.106234 0)
(-0.109844 0.0939721 0)
(-0.124067 0.0794705 0)
(-0.136613 0.0618201 0)
(-0.147037 0.0403732 0)
(-0.154506 0.0146383 0)
(-0.157183 -0.0151291 0)
(-0.153792 -0.0469324 0)
(-0.147522 -0.0774116 0)
(-0.140411 -0.103664 0)
(-0.134435 -0.123998 0)
(-0.130802 -0.137671 0)
(-0.129873 -0.14429 0)
(-0.125201 -0.138146 0)
(-0.103943 -0.110608 0)
(-0.0690805 -0.101671 0)
(-0.0426974 -0.0772788 0)
(-0.0237272 -0.0566667 0)
(-0.0103659 -0.0447771 0)
(0.000714202 -0.0368696 0)
(0.00977405 -0.0307365 0)
(0.0202418 -0.0246473 0)
(0.0324165 -0.0216276 0)
(0.0441646 -0.0198356 0)
(0.0553104 -0.0178563 0)
(0.0656251 -0.014523 0)
(0.0743021 -0.00871034 0)
(0.0800584 0.00030346 0)
(0.0806419 0.0115787 0)
(0.0752709 0.024746 0)
(0.065905 0.0430026 0)
(0.0478971 0.0619366 0)
(0.0855892 0.081542 0)
(-0.0674034 0.111088 0)
(0.059526 0.0166393 0)
(-0.0768572 -0.0383788 0)
(-0.322535 -0.0655213 0)
(0.882546 0.451788 0)
(-0.379222 0.180607 0)
(-0.00335986 0.13114 0)
(-0.0615947 0.11924 0)
(-0.0701654 0.106648 0)
(-0.0793289 0.090675 0)
(-0.0869422 0.0713631 0)
(-0.0932218 0.0478758 0)
(-0.0979227 0.019241 0)
(-0.0982537 -0.0148471 0)
(-0.0934311 -0.051054 0)
(-0.0885588 -0.0832624 0)
(-0.0848376 -0.10866 0)
(-0.0834428 -0.126753 0)
(-0.0848907 -0.138079 0)
(-0.0882547 -0.142973 0)
(-0.0887603 -0.140503 0)
(-0.0793446 -0.133957 0)
(-0.0571391 -0.12852 0)
(-0.0378458 -0.0969015 0)
(-0.0241101 -0.0697471 0)
(-0.015522 -0.0551338 0)
(-0.00770223 -0.0457905 0)
(-0.000561985 -0.0390984 0)
(0.00720655 -0.0341383 0)
(0.0155274 -0.0316212 0)
(0.0240489 -0.0301505 0)
(0.0328264 -0.028361 0)
(0.0418251 -0.0248036 0)
(0.0508311 -0.0177581 0)
(0.0592425 -0.00563216 0)
(0.0656808 0.0107177 0)
(0.0674124 0.0284258 0)
(0.0674413 0.0477343 0)
(0.062057 0.067694 0)
(0.0942946 0.0926182 0)
(0.0519307 0.10581 0)
(0.114156 0.0680641 0)
(0.138541 0.0469835 0)
(-0.1471 -0.00591562 0)
(0.906832 0.501475 0)
(-0.40447 0.177406 0)
(0.0226151 0.0973216 0)
(-0.0118136 0.12894 0)
(-0.0227898 0.119552 0)
(-0.0300478 0.0977545 0)
(-0.0325846 0.0756059 0)
(-0.0329547 0.0509604 0)
(-0.032488 0.0208267 0)
(-0.0242783 -0.0175966 0)
(-0.0168457 -0.0564405 0)
(-0.014514 -0.0872106 0)
(-0.0158165 -0.1096 0)
(-0.0205966 -0.124489 0)
(-0.0284408 -0.133242 0)
(-0.0379888 -0.13731 0)
(-0.0472214 -0.138998 0)
(-0.0512917 -0.143531 0)
(-0.0386346 -0.148315 0)
(-0.0285993 -0.110962 0)
(-0.0209261 -0.0770514 0)
(-0.0187073 -0.0608289 0)
(-0.0155933 -0.0507777 0)
(-0.0128566 -0.0442136 0)
(-0.0097216 -0.0401196 0)
(-0.00606431 -0.0380429 0)
(-0.00198835 -0.0371088 0)
(0.00282271 -0.0361453 0)
(0.00848232 -0.0337016 0)
(0.0155115 -0.027876 0)
(0.0243308 -0.0162513 0)
(0.0377216 0.00305607 0)
(0.0477548 0.0234594 0)
(0.0566122 0.0426261 0)
(0.0639644 0.0600115 0)
(0.0925678 0.0803098 0)
(0.104556 0.0810403 0)
(0.147047 0.0467081 0)
(0.193862 0.0416198 0)
(-0.0215659 0.10868 0)
(1.01097 0.522281 0)
(-0.149633 0.162078 0)
(0.0848946 0.0422847 0)
(0.109054 0.0802181 0)
(0.0710977 0.0955272 0)
(0.046924 0.0785492 0)
(0.0422746 0.054707 0)
(0.0458776 0.0299313 0)
(0.0510904 -0.00177415 0)
(0.0700155 -0.0340709 0)
(0.0759096 -0.0622153 0)
(0.0726067 -0.0854245 0)
(0.0635446 -0.102779 0)
(0.050264 -0.114262 0)
(0.0339649 -0.120787 0)
(0.0162192 -0.123976 0)
(-0.00309541 -0.12769 0)
(-0.0210206 -0.139876 0)
(-0.0163813 -0.160186 0)
(-0.0167533 -0.119175 0)
(-0.0154173 -0.0776989 0)
(-0.0211974 -0.0615308 0)
(-0.0237557 -0.0517017 0)
(-0.0263811 -0.045274 0)
(-0.0286172 -0.0415043 0)
(-0.0305169 -0.0396493 0)
(-0.0323015 -0.0389791 0)
(-0.0338821 -0.0386298 0)
(-0.0348864 -0.0375565 0)
(-0.0346239 -0.0346081 0)
(-0.0320074 -0.0285103 0)
(-0.024462 -0.0178499 0)
(-0.00230514 -0.0010982 0)
(0.0115509 0.016789 0)
(0.0237769 0.0274794 0)
(0.0458943 0.0369977 0)
(0.0603671 0.0252881 0)
(0.0717347 -0.0050321 0)
(0.141969 0.0681131 0)
(-0.577973 0.266998 0)
(1.14378 0.472745 0)
(0.55858 0.317988 0)
(0.554005 0.301498 0)
(0.489445 0.254686 0)
(0.385591 0.207442 0)
(0.304187 0.15365 0)
(0.257252 0.101498 0)
(0.233032 0.0567465 0)
(0.222247 0.0178886 0)
(0.207354 -0.0175778 0)
(0.189902 -0.0474517 0)
(0.169816 -0.070255 0)
(0.147024 -0.0859702 0)
(0.12184 -0.0955932 0)
(0.0950333 -0.100634 0)
(0.0675495 -0.103013 0)
(0.0391603 -0.106434 0)
(0.0104761 -0.120324 0)
(0.00824423 -0.15728 0)
(-0.00345117 -0.115809 0)
(-0.00869764 -0.0674706 0)
(-0.0246328 -0.0554501 0)
(-0.0326042 -0.0481524 0)
(-0.0402229 -0.0428608 0)
(-0.0475897 -0.0395883 0)
(-0.0549932 -0.0375334 0)
(-0.0632203 -0.036065 0)
(-0.0728032 -0.0344746 0)
(-0.0840099 -0.0317411 0)
(-0.0970101 -0.0266314 0)
(-0.112146 -0.0177733 0)
(-0.129887 -0.00369849 0)
(-0.148622 0.0157641 0)
(-0.167425 0.0379843 0)
(-0.200728 0.0611594 0)
(-0.250637 0.0820874 0)
(-0.321029 0.0941036 0)
(-0.397034 0.0937585 0)
(-0.476414 0.0822852 0)
(-0.767385 0.0577492 0)
(0.247467 0.147446 0)
(0.318169 0.245044 0)
(0.320618 0.232022 0)
(0.300324 0.180981 0)
(0.292412 0.123832 0)
(0.29139 0.0729039 0)
(0.289399 0.0306735 0)
(0.280686 -0.00394999 0)
(0.262264 -0.0301028 0)
(0.237192 -0.0481474 0)
(0.207847 -0.059252 0)
(0.176116 -0.0649272 0)
(0.143409 -0.0667076 0)
(0.110276 -0.0661302 0)
(0.0754615 -0.0660561 0)
(0.0426438 -0.0777112 0)
(0.0337808 -0.128747 0)
(0.00456865 -0.0884115 0)
(-0.00724343 -0.0363585 0)
(-0.0344577 -0.0310541 0)
(-0.0445439 -0.0285922 0)
(-0.0543508 -0.0270101 0)
(-0.0640854 -0.0266757 0)
(-0.073458 -0.0268615 0)
(-0.0836733 -0.0272739 0)
(-0.0956859 -0.027387 0)
(-0.109652 -0.0259841 0)
(-0.124513 -0.0212078 0)
(-0.137834 -0.0110479 0)
(-0.14751 0.00559864 0)
(-0.15367 0.0278006 0)
(-0.157993 0.055614 0)
(-0.163604 0.0859158 0)
(-0.171823 0.111437 0)
(-0.178561 0.118871 0)
(-0.160925 0.0860521 0)
(-0.0893106 -0.0357094 0)
(-0.294683 -0.280886 0)
(0.112994 0.396334 0)
(0.0422133 0.29705 0)
(0.109371 0.230395 0)
(0.166975 0.169722 0)
(0.215218 0.115149 0)
(0.249514 0.0753035 0)
(0.266893 0.0499584 0)
(0.268841 0.0369312 0)
(0.259729 0.0294383 0)
(0.243397 0.0236081 0)
(0.222287 0.0195409 0)
(0.197976 0.0173901 0)
(0.171687 0.0173141 0)
(0.144097 0.0193529 0)
(0.114556 0.0197021 0)
(0.0864162 -0.0115486 0)
(0.0592792 -0.109281 0)
(-0.0121074 -0.0576262 0)
(-0.0293298 0.062301 0)
(-0.0536483 0.0297886 0)
(-0.0648476 0.0389385 0)
(-0.0749027 0.0486826 0)
(-0.0843396 0.0531331 0)
(-0.0923492 0.058042 0)
(-0.0991806 0.0641312 0)
(-0.105157 0.0700901 0)
(-0.110563 0.0743225 0)
(-0.115573 0.0747438 0)
(-0.119537 0.0686248 0)
(-0.119984 0.0633178 0)
(-0.113931 0.0642958 0)
(-0.100016 0.0744049 0)
(-0.0797336 0.093369 0)
(-0.0547763 0.113321 0)
(-0.0268026 0.122823 0)
(0.0182799 0.103 0)
(0.143204 0.0131928 0)
(-0.191293 -0.194898 0)
(-0.546577 -0.593404 0)
(-0.721294 -0.136803 0)
(-0.484206 0.278416 0)
(-0.341251 0.168147 0)
(-0.12768 0.118977 0)
(0.0552698 0.0440652 0)
(0.143024 -0.00605962 0)
(0.208405 -0.0453299 0)
(0.24636 -0.07778 0)
(0.262242 -0.106721 0)
(0.263638 -0.131974 0)
(0.25542 -0.152706 0)
(0.240567 -0.170819 0)
(0.221282 -0.187734 0)
(0.199407 -0.204551 0)
(0.17653 -0.222072 0)
(0.153539 -0.240988 0)
(0.127231 -0.263552 0)
(0.0706585 -0.295567 0)
(-0.07051 -0.270625 0)
(-0.0524427 -0.227559 0)
(-0.057905 -0.269212 0)
(-0.0779635 -0.262485 0)
(-0.0916787 -0.258179 0)
(-0.103619 -0.256168 0)
(-0.114796 -0.254794 0)
(-0.124359 -0.253102 0)
(-0.13149 -0.249741 0)
(-0.135547 -0.242676 0)
(-0.1361 -0.229266 0)
(-0.132766 -0.206669 0)
(-0.123872 -0.179914 0)
(-0.10497 -0.148797 0)
(-0.0728412 -0.114522 0)
(-0.0304641 -0.0769492 0)
(0.0481859 -0.0334315 0)
(0.110722 -0.0382648 0)
(0.169594 -0.0737127 0)
(0.215276 -0.138467 0)
(-0.101631 -0.224569 0)
)
;

boundaryField
{
    floor
    {
        type            noSlip;
    }
    ceiling
    {
        type            noSlip;
    }
    sWall
    {
        type            noSlip;
    }
    nWall
    {
        type            noSlip;
    }
    sideWalls
    {
        type            empty;
    }
    glass1
    {
        type            noSlip;
    }
    glass2
    {
        type            noSlip;
    }
    sun
    {
        type            noSlip;
    }
    heatsource1
    {
        type            noSlip;
    }
    heatsource2
    {
        type            noSlip;
    }
    Table_master
    {
        type            noSlip;
    }
    Table_slave
    {
        type            noSlip;
    }
    inlet
    {
        type            fixedValue;
        value           uniform (0.46194 -0.191342 0);
    }
    outlet
    {
        type            zeroGradient;
    }
}


// ************************************************************************* //
