/*--------------------------------*- C++ -*----------------------------------*\
  =========                 |
  \\      /  F ield         | OpenFOAM: The Open Source CFD Toolbox
   \\    /   O peration     | Website:  https://openfoam.org
    \\  /    A nd           | Version:  6
     \\/     M anipulation  |
\*---------------------------------------------------------------------------*/
FoamFile
{
    version     2.0;
    format      ascii;
    class       volScalarField;
    location    "36299.9999984081587";
    object      epsilon;
}
// * * * * * * * * * * * * * * * * * * * * * * * * * * * * * * * * * * * * * //

dimensions      [0 2 -3 0 0 0 0];

internalField   nonuniform List<scalar> 
778
(
0.000253108
0.000306329
0.000302988
0.000344176
0.000385066
0.000424909
0.000464398
0.00050472
0.000547609
0.000595782
0.000644279
0.000692706
0.000742708
0.000799081
0.000860853
8.95103e-05
0.000262513
0.000268976
0.000249947
0.000220138
0.000184136
0.000152378
0.000126548
0.000105919
8.94471e-05
7.6296e-05
6.5644e-05
5.68486e-05
4.93827e-05
4.27737e-05
3.6523e-05
3.18205e-05
2.36014e-05
0.000796962
0.00144314
0.000286997
0.00025962
0.000261734
0.000267721
0.000276633
0.000290083
0.000310363
0.000340603
0.00037986
0.000431025
0.000499464
0.000600727
0.000785934
0.00112968
0.000979077
0.00085864
0.00051163
0.000369311
0.000294087
0.000242801
0.000204013
0.000186886
0.00015472
0.000125027
0.000100711
8.14938e-05
6.65265e-05
5.48201e-05
4.56289e-05
3.87057e-05
3.45149e-05
3.27548e-05
6.57626e-05
4.80718e-05
0.00163054
0.00407879
0.000407378
0.000242959
0.000229146
0.000231069
0.000238296
0.000250578
0.000268502
0.000292795
0.000324944
0.000367028
0.000421421
0.000495129
0.000601511
0.000724791
0.000830058
0.00158414
0.00102802
0.000512252
0.00036764
0.000294237
0.000262057
0.000551106
0.000362376
0.000250606
0.000181263
0.000136255
0.000105898
8.47648e-05
6.98089e-05
5.94525e-05
4.51238e-05
3.79698e-05
0.000108133
7.07422e-05
0.00285333
0.00876959
0.000709796
0.000240747
0.000202515
0.000200059
0.000203239
0.000209874
0.000220702
0.000237633
0.000263337
0.000300089
0.000349293
0.000412397
0.000488038
0.000560208
0.000612516
0.000824783
0.00156542
0.000728747
0.000459697
0.000358256
0.000301898
0.000291814
0.000813934
0.000612419
0.000481629
0.000388279
0.000318949
0.000264187
0.000218653
0.000178926
0.000141766
8.37254e-05
5.48465e-05
0.000148534
9.43619e-05
0.00454564
0.0158256
0.00134609
0.000258346
0.000175757
0.000166823
0.000165838
0.00016782
0.00017399
0.000187503
0.000211755
0.000248433
0.000297825
0.000359314
0.000427725
0.000489065
0.00052853
0.000582594
0.000627858
0.000483341
0.000393582
0.000331086
0.000282322
0.000248629
0.000247829
0.000226764
0.000202927
0.000181073
0.000162705
0.000146546
0.000131869
0.000118262
0.000105081
8.44588e-05
6.41534e-05
0.000105091
0.000138707
0.000159908
0.000368258
0.000321202
0.00676296
0.0248756
0.00255281
0.000318036
0.000155548
0.000137085
0.000132153
0.000130725
0.000134496
0.000148587
0.000176738
0.000218089
0.000270763
0.000333983
0.000401529
0.000462384
0.000502859
0.000521707
0.000504948
0.0004384
0.000373936
0.00031572
0.000264776
0.000223396
0.00019329
0.00016963
0.00015082
0.000135645
0.00012332
0.000112774
0.00010331
9.45284e-05
8.60617e-05
7.58786e-05
6.53232e-05
7.75256e-05
9.95884e-05
0.00021163
0.0010796
0.000549003
0.00967093
0.0336342
0.00458237
0.000464865
0.000150835
0.000116352
0.000107107
0.000103309
0.000107108
0.000127941
0.000166137
0.000215851
0.00027318
0.00033977
0.000408958
0.00047007
0.000509891
0.000520336
0.000494341
0.000437701
0.000371906
0.000307516
0.00025056
0.000204438
0.000169744
0.000144556
0.000126332
0.000112752
0.000102306
9.37419e-05
8.6243e-05
7.93442e-05
7.27715e-05
6.61067e-05
6.03332e-05
6.36953e-05
7.66202e-05
0.000175136
0.00161246
0.000900794
0.0127574
0.0404044
0.00748794
0.000870899
0.000194221
0.000115376
9.74019e-05
9.14892e-05
9.86785e-05
0.000137763
0.000189312
0.0002462
0.000306842
0.000373441
0.000444256
0.000507527
0.000546987
0.000550724
0.000515632
0.00045154
0.000375489
0.000300915
0.000236431
0.000185926
0.000149293
0.000123974
0.000106714
9.45822e-05
8.5764e-05
7.88451e-05
7.29385e-05
6.75566e-05
6.24695e-05
5.76545e-05
5.40021e-05
5.56966e-05
6.97785e-05
0.000354872
0.00575842
0.00203323
0.0138267
0.0414623
0.0139286
0.00316082
0.00062918
0.000207869
0.000132686
0.000116049
0.00014254
0.000193034
0.00024936
0.000306367
0.000367089
0.000436131
0.000510396
0.000575048
0.000610385
0.000602847
0.000551981
0.000470823
0.000378322
0.000290732
0.000218104
0.000163922
0.000126727
0.000102589
8.72844e-05
7.73499e-05
7.06884e-05
6.57123e-05
6.15237e-05
5.76811e-05
5.40206e-05
5.06554e-05
4.84789e-05
5.1958e-05
9.26155e-05
0.00102142
0.014781
0.00292317
0.0130047
0.0283758
0.0144142
0.00572357
0.00210248
0.00083394
0.000413586
0.000276985
0.000279185
0.000314787
0.000356213
0.000401666
0.000458256
0.000530248
0.000609128
0.000673139
0.000698047
0.000670212
0.000593517
0.00048638
0.000372273
0.000270326
0.000190873
0.000135604
0.00010061
7.98534e-05
6.79578e-05
6.11845e-05
5.71166e-05
5.41882e-05
5.16507e-05
4.92015e-05
4.67968e-05
4.47234e-05
4.44117e-05
5.46913e-05
0.000175808
0.002385
0.0124721
0.00315957
0.0106909
0.0193615
0.0120389
0.00629877
0.00317315
0.00167395
0.000986423
0.000679007
0.000560173
0.000517535
0.000510536
0.000531351
0.000583237
0.000661927
0.000746436
0.000804127
0.000806643
0.00074368
0.000627632
0.000485498
0.000346874
0.00023295
0.000152122
0.000101619
7.35061e-05
5.87814e-05
5.13171e-05
4.79122e-05
4.61206e-05
4.48081e-05
4.35031e-05
4.20656e-05
4.06087e-05
3.98369e-05
4.3211e-05
7.38534e-05
0.00032575
0.00244333
0.010165
0.00316057
0.00807377
0.013772
0.00969248
0.00593273
0.00356894
0.00222686
0.00149037
0.00109266
0.000869227
0.00074363
0.000685928
0.000689902
0.000749896
0.000843712
0.000931106
0.000967573
0.000925632
0.0008054
0.000634448
0.000451299
0.000291954
0.000176589
0.000106677
6.93136e-05
5.24131e-05
4.42964e-05
4.04762e-05
3.9075e-05
3.84903e-05
3.80381e-05
3.74297e-05
3.66118e-05
3.5874e-05
3.68921e-05
4.97375e-05
0.000155354
0.000693344
0.00261079
0.00780286
0.00293559
0.00612403
0.0101659
0.00779006
0.00531194
0.00356979
0.00246881
0.0017877
0.00136809
0.00109293
0.00092611
0.000859185
0.00088621
0.000981749
0.00109608
0.00116838
0.00114975
0.00102726
0.000822261
0.000585891
0.000367565
0.000207208
0.000114025
7.19254e-05
5.22126e-05
4.27821e-05
3.79794e-05
3.56177e-05
3.47782e-05
3.449e-05
3.43172e-05
3.40722e-05
3.37954e-05
3.41967e-05
3.95142e-05
7.60777e-05
0.000279321
0.000998014
0.00274065
0.00580346
0.00262189
0.00617879
0.00780951
0.00680224
0.00473842
0.00336492
0.00246187
0.00186539
0.00146214
0.00119456
0.00106462
0.00107005
0.00117922
0.00132759
0.00143582
0.00143749
0.0013013
0.0010532
0.000743499
0.000456377
0.000237828
0.00013084
8.19216e-05
6.02311e-05
4.94035e-05
4.31253e-05
3.91178e-05
3.66661e-05
3.5546e-05
3.51266e-05
3.51102e-05
3.54043e-05
3.61697e-05
3.84988e-05
4.81793e-05
9.44503e-05
0.000297208
0.000950726
0.00248938
0.00552455
0.00251515
0.00454388
0.00511267
0.00418462
0.00336168
0.00263971
0.0020701
0.00164903
0.00136193
0.00124506
0.00130045
0.00147716
0.00168441
0.0018213
0.00181423
0.0016376
0.00130563
0.000914054
0.000521368
0.000279652
0.000155901
0.000102968
8.02395e-05
6.86521e-05
6.09179e-05
5.47801e-05
4.9797e-05
4.62015e-05
4.44088e-05
4.40966e-05
4.50891e-05
4.7483e-05
5.15993e-05
5.85682e-05
7.34209e-05
0.000117254
0.000266624
0.000740165
0.00203712
0.00465885
0.00310796
0.00140119
0.00143161
0.00143405
0.00135499
0.00131273
0.00142435
0.00170854
0.00204255
0.0023035
0.00240058
0.00228641
0.00197729
0.00153459
0.000986166
0.000573732
0.000315684
0.00019027
0.000138145
0.000116956
0.00010604
9.80103e-05
9.05754e-05
8.33212e-05
7.67315e-05
7.18805e-05
7.00927e-05
7.17905e-05
7.7257e-05
8.71086e-05
0.000101904
0.000122485
0.00015246
0.000206029
0.00032885
0.000664471
0.00204889
0.00370483
0.00331357
0.00118789
0.00171863
0.00195628
0.00231288
0.00276081
0.00316478
0.00334216
0.00330545
0.00307996
0.00268869
0.00212261
0.00150788
0.000977247
0.00057814
0.000347516
0.000239076
0.000195971
0.00017852
0.000169261
0.000162154
0.000155293
0.000148083
0.000140705
0.00013418
0.000130372
0.000131634
0.000139297
0.000154977
0.000180543
0.000217648
0.000268183
0.000336711
0.000436922
0.000607557
0.000970174
0.00230738
0.00362649
0.00349853
0.00741745
0.0080494
0.0048059
0.00340791
0.00374543
0.00415712
0.00416943
0.00395615
0.00359611
0.00313795
0.00262963
0.00208695
0.00154
0.00105897
0.000700246
0.000478317
0.000369485
0.000323336
0.000302828
0.000291623
0.000284444
0.000279384
0.000275159
0.000270637
0.000265331
0.000260186
0.000258044
0.000262341
0.000275264
0.000299935
0.000339767
0.000398899
0.000482819
0.000600608
0.000770843
0.00103638
0.00150825
0.00253082
0.00422705
0.0030573
0.00650394
0.00512748
0.00437333
0.0046279
0.0045513
0.00428401
0.00370224
0.00305389
0.00246613
0.00197156
0.00156739
0.00124412
0.000993437
0.00081186
0.000691616
0.000613131
0.000557645
0.000518904
0.000493086
0.000478692
0.000474893
0.000480385
0.000493025
0.000510045
0.000528635
0.000546717
0.000563543
0.000580491
0.000603195
0.000636886
0.000686707
0.000758813
0.000862208
0.00101272
0.00124107
0.00160264
0.00218475
0.00328297
0.00526837
0.00286975
0.00536057
0.00336998
0.00332053
0.00361844
0.00387814
0.00354092
0.00294262
0.00233611
0.00182167
0.00141285
0.0010941
0.000849099
0.000668209
0.00054511
0.000471536
0.000437113
0.000426839
0.000429302
0.000441775
0.00046299
0.000491525
0.000525402
0.000562391
0.000600533
0.000638613
0.000676511
0.000715401
0.000756937
0.000803338
0.000858
0.000923731
0.00100278
0.00109729
0.00121063
0.0013509
0.001542
0.00183367
0.00227538
0.00287597
0.00252629
)
;

boundaryField
{
    floor
    {
        Cmu             0.09;
        kappa           0.41;
        E               9.8;
        type            epsilonWallFunction;
        value           nonuniform List<scalar> 
36
(
0.000860853
8.95103e-05
0.000262513
0.000268976
0.000249947
0.000220138
0.000184136
0.000152378
0.000126548
0.000105919
8.94471e-05
7.6296e-05
6.5644e-05
5.68486e-05
4.93827e-05
4.27737e-05
3.6523e-05
3.18205e-05
2.36014e-05
2.36014e-05
4.80718e-05
7.07422e-05
9.43619e-05
0.000159908
0.000368258
0.000321202
0.000860853
0.00112968
0.000979077
0.00085864
8.95103e-05
0.00085864
0.00051163
0.00158414
0.00102802
0.00156542
)
;
    }
    ceiling
    {
        Cmu             0.09;
        kappa           0.41;
        E               9.8;
        type            epsilonWallFunction;
        value           nonuniform List<scalar> 
43
(
0.00536057
0.00336998
0.00332053
0.00361844
0.00387814
0.00354092
0.00294262
0.00233611
0.00182167
0.00141285
0.0010941
0.000849099
0.000668209
0.00054511
0.000471536
0.000437113
0.000426839
0.000429302
0.000441775
0.00046299
0.000491525
0.000525402
0.000562391
0.000600533
0.000638613
0.000676511
0.000715401
0.000756937
0.000803338
0.000858
0.000923731
0.00100278
0.00109729
0.00121063
0.0013509
0.001542
0.00183367
0.00227538
0.00287597
0.00252629
0.00454388
0.00511267
0.00118789
)
;
    }
    sWall
    {
        Cmu             0.09;
        kappa           0.41;
        E               9.8;
        type            epsilonWallFunction;
        value           nonuniform List<scalar> 9(0.0130047 0.0106909 0.00807377 0.00612403 0.00617879 0.00454388 0.00741745 0.00650394 0.00536057);
    }
    nWall
    {
        Cmu             0.09;
        kappa           0.41;
        E               9.8;
        type            epsilonWallFunction;
        value           nonuniform List<scalar> 
14
(
0.000321202
0.000549003
0.000900794
0.00315957
0.00316057
0.00293559
0.00262189
0.00251515
0.00310796
0.00331357
0.00349853
0.0030573
0.00286975
0.00252629
)
;
    }
    sideWalls
    {
        type            empty;
    }
    glass1
    {
        Cmu             0.09;
        kappa           0.41;
        E               9.8;
        type            epsilonWallFunction;
        value           nonuniform List<scalar> 9(0.000253108 0.000796962 0.00163054 0.00285333 0.00454564 0.00676296 0.00967093 0.0127574 0.0138267);
    }
    glass2
    {
        Cmu             0.09;
        kappa           0.41;
        E               9.8;
        type            epsilonWallFunction;
        value           nonuniform List<scalar> 2(0.00203323 0.00292317);
    }
    sun
    {
        Cmu             0.09;
        kappa           0.41;
        E               9.8;
        type            epsilonWallFunction;
        value           nonuniform List<scalar> 
14
(
0.000253108
0.000306329
0.000302988
0.000344176
0.000385066
0.000424909
0.000464398
0.00050472
0.000547609
0.000595782
0.000644279
0.000692706
0.000742708
0.000799081
)
;
    }
    Table_master
    {
        Cmu             0.09;
        kappa           0.41;
        E               9.8;
        type            epsilonWallFunction;
        value           nonuniform List<scalar> 9(0.000551106 0.000362376 0.000250606 0.000181263 0.000136255 0.000105898 8.47648e-05 6.98089e-05 5.94525e-05);
    }
    Table_slave
    {
        Cmu             0.09;
        kappa           0.41;
        E               9.8;
        type            epsilonWallFunction;
        value           nonuniform List<scalar> 9(0.000813934 0.000612419 0.000481629 0.000388279 0.000318949 0.000264187 0.000218653 0.000178926 0.000141766);
    }
    inlet
    {
        type            turbulentMixingLengthDissipationRateInlet;
        mixingLength    0.01;
        phi             phi;
        k               k;
        value           uniform 0.000471671;
    }
    outlet
    {
        type            zeroGradient;
    }
}


// ************************************************************************* //
