/*--------------------------------*- C++ -*----------------------------------*\
  =========                 |
  \\      /  F ield         | OpenFOAM: The Open Source CFD Toolbox
   \\    /   O peration     | Website:  https://openfoam.org
    \\  /    A nd           | Version:  6
     \\/     M anipulation  |
\*---------------------------------------------------------------------------*/
FoamFile
{
    version     2.0;
    format      ascii;
    class       surfaceScalarField;
    location    "36299.9999984081587";
    object      phi;
}
// * * * * * * * * * * * * * * * * * * * * * * * * * * * * * * * * * * * * * //

dimensions      [1 0 -1 0 0 0 0];

internalField   nonuniform List<scalar> 
1482
(
-0.00279983
0.00286386
-0.00348419
0.000684361
-0.00414511
0.00066092
-0.00475947
0.00061436
-0.00528113
0.000521663
-0.00569331
0.000412181
-0.00598474
0.000291432
-0.00614233
0.000157588
-0.00614872
6.38694e-06
-0.00597792
-0.0001708
-0.00559999
-0.000377933
-0.00498391
-0.000616077
-0.00405953
-0.000924384
-0.00258052
-0.00147901
-0.0025776
-6.5213e-05
7.00663e-05
0.000777534
-0.000842747
0.00142927
-0.000651738
0.00182795
-0.000398673
0.00204898
-0.000221032
0.00215317
-0.000104197
0.00220054
-4.73643e-05
0.00222334
-2.27988e-05
0.002233
-9.66339e-06
0.00223379
-7.85658e-07
0.00222665
7.13835e-06
0.00220763
1.90183e-05
0.00216345
4.41802e-05
0.00206096
0.00010249
0.00184489
0.000216072
0.00148856
0.000356326
0.0010189
0.000469663
0.00102534
-0.00204044
0.00507462
-0.00290869
0.00155261
-0.00369473
0.00144697
-0.00434604
0.00126566
-0.00488359
0.00105922
-0.00531266
0.000841246
-0.00563141
0.000610181
-0.005833
0.000359183
-0.00590674
8.01239e-05
-0.00584478
-0.000232765
-0.00564132
-0.00058139
-0.00528509
-0.000972313
-0.00477491
-0.00143456
-0.00428886
-0.00196506
-0.00470478
-0.00216169
-0.00311788
-0.00158146
-0.00163389
-0.0014783
-0.00161904
0.00131718
-0.00123691
0.00166027
-0.00118583
0.00191057
-0.000902037
0.00210039
-0.000588496
0.00220652
-0.000327167
0.00221517
-0.000112847
0.00221725
-4.94413e-05
0.00221896
-2.45083e-05
0.00221997
-1.06727e-05
0.00221997
-7.87182e-07
0.00221857
8.53881e-06
0.00221434
2.3253e-05
0.00220169
5.68249e-05
0.00213982
0.000164363
0.00189047
0.000465415
0.00146197
0.000784834
0.000900348
0.00103128
0.00194257
-0.00148832
0.00682087
-0.00235933
0.00242362
-0.0031295
0.00221713
-0.00371396
0.00185012
-0.00418488
0.00153015
-0.00455659
0.00121295
-0.00483085
0.000884444
-0.00500441
0.000532735
-0.00507082
0.000146538
-0.00502102
-0.000282565
-0.00484428
-0.000758127
-0.00453323
-0.00128337
-0.00411873
-0.00184905
-0.00372152
-0.00236227
-0.00330146
-0.00258175
-0.00237024
-0.00251267
-0.00127608
-0.00257246
-0.00288229
0.00114864
-0.00237109
0.00165134
-0.00168853
0.0019488
-0.0011995
0.00214029
-0.000779984
0.00216784
-0.000354719
0.00205515
0.00200586
0.00198151
0.00197099
0.00197036
0.00197905
0.00200246
0.00205944
0.00222396
0.00186528
0.000824087
0.00141793
0.00123218
0.000800416
0.0016488
0.00276903
-0.00110612
0.00825821
-0.00192814
0.00324564
-0.00257036
0.00285935
-0.00303089
0.00231066
-0.00339864
0.0018979
-0.00368764
0.00150195
-0.00390088
0.00109768
-0.00403648
0.000668338
-0.00408691
0.000196968
-0.00403897
-0.000330508
-0.0038804
-0.000916698
-0.00360717
-0.0015566
-0.00324198
-0.00221424
-0.0028207
-0.00278354
-0.00228202
-0.00312043
-0.00156307
-0.00323162
-0.000875526
-0.00325999
-0.000697281
-0.00306054
0.0014388
-0.00212064
0.0013725
-0.00230478
0.00168856
-0.0020046
0.00200122
-0.00151216
0.00226758
-0.00104634
0.00254472
-0.00063185
0.00285684
-0.000312278
0.00302299
-0.000166302
0.0030871
-6.4265e-05
0.00306963
1.7318e-05
0.00297931
9.01595e-05
0.00281712
0.000162037
0.00257521
0.000241758
0.00223065
0.000344411
0.00172626
0.000504229
0.00159002
0.000960335
0.0012627
0.0015595
0.000737427
0.00217407
0.00354077
-0.000803823
0.00945523
-0.00158007
0.00402189
-0.00204889
0.00332817
-0.00236478
0.00262654
-0.00260933
0.00214245
-0.00279505
0.00168767
-0.00292694
0.00122957
-0.0030057
0.000747096
-0.00302476
0.000216027
-0.00296748
-0.000387783
-0.00282065
-0.00106352
-0.00257744
-0.00179982
-0.0022445
-0.00254717
-0.00182904
-0.00319901
-0.00132465
-0.00362482
-0.000748964
-0.00380731
-0.000218443
-0.00379051
0.000258651
-0.00353763
0.00111986
-0.00298185
0.00148613
-0.00267105
0.00174545
-0.00226392
0.00199811
-0.00176482
0.0022281
-0.00127633
0.00244235
-0.000846105
0.00264276
-0.000512684
0.00275213
-0.000275678
0.00278787
-0.000100007
0.0027617
4.34887e-05
0.00268005
0.000171812
0.00254542
0.00029667
0.00235659
0.000430583
0.00211114
0.000589863
0.001817
0.000798374
0.00161102
0.00116631
0.00146874
0.00170179
0.00128765
0.00235516
0.00226897
0.00255946
0.00131473
0.000989175
0.00189406
-0.000550651
0.00201306
-0.000575873
0.0104775
-0.00132486
0.00477088
-0.00158466
0.00358797
-0.00175077
0.00279264
-0.00186496
0.00225664
-0.00193667
0.00175939
-0.00197235
0.00126524
-0.00197627
0.000751019
-0.00194526
0.000185015
-0.00185753
-0.000475506
-0.00170336
-0.0012177
-0.0014729
-0.00203027
-0.00116913
-0.00285095
-0.000797925
-0.00357021
-0.00037908
-0.00404366
6.05625e-05
-0.00424695
0.000465419
-0.00419537
0.000839666
-0.00391187
0.00129082
-0.003433
0.0015899
-0.00297012
0.00179351
-0.00246754
0.00196516
-0.00193647
0.00211687
-0.00142804
0.00225124
-0.000980472
0.00235566
-0.00061711
0.00241331
-0.000333327
0.00242401
-0.0001107
0.00239301
7.44803e-05
0.00232517
0.000239656
0.0022243
0.000397543
0.00209442
0.000560461
0.00194247
0.000741809
0.00178267
0.00095818
0.00169074
0.00125824
0.00174501
0.00164752
0.00195084
0.00214933
0.00218619
0.00232411
0.00169823
0.00147714
0.000783863
0.000363713
0.00289459
-0.000543361
0.0115131
-0.00124363
0.00547114
-0.00119216
0.00353649
-0.00120077
0.00280125
-0.00119339
0.00224927
-0.00116021
0.00172621
-0.00110339
0.00120842
-0.00102861
0.000676236
-0.000930514
8.69195e-05
-0.000781835
-0.000624186
-0.000592957
-0.00140658
-0.000353453
-0.00226978
-7.04496e-05
-0.00313395
0.000233636
-0.0038743
0.000543015
-0.00435304
0.000837738
-0.00454167
0.00110042
-0.00445805
0.00133374
-0.00414519
0.0015657
-0.00366496
0.00172563
-0.00313004
0.00182578
-0.00256769
0.00189595
-0.00200664
0.00195175
-0.00148384
0.00199828
-0.001027
0.00203021
-0.000649041
0.00204189
-0.000345005
0.00203
-9.88101e-05
0.00199536
0.000109125
0.00194109
0.000293922
0.001871
0.000467627
0.00179028
0.000641188
0.00170731
0.000824771
0.00163683
0.00102867
0.00162133
0.00127373
0.00170419
0.00156465
0.00190531
0.00194821
0.00214453
0.00208489
0.00215247
0.00146921
0.00162778
0.000888403
0.00462536
-0.000483502
0.0125321
-0.00105155
0.0060392
-0.000697638
0.00318258
-0.000637106
0.00274072
-0.000569044
0.0021812
-0.000464728
0.0016219
-0.000336117
0.00107981
-0.000185386
0.000525505
3.50582e-06
-0.000101973
0.00022136
-0.000842039
0.00046066
-0.00164588
0.000717842
-0.00252696
0.000974239
-0.00339035
0.00120252
-0.00410258
0.00140156
-0.00455208
0.00156264
-0.00470275
0.00168049
-0.0045759
0.0017599
-0.00422459
0.00181331
-0.00371836
0.00182378
-0.00314051
0.00179943
-0.00254334
0.00175911
-0.00196632
0.00171761
-0.00144234
0.0016823
-0.000991691
0.00165314
-0.000619877
0.00162625
-0.000318123
0.00159693
-6.94886e-05
0.00156306
0.000142994
0.001525
0.000331983
0.00148419
0.00050844
0.00144386
0.000681514
0.00141027
0.000858366
0.00139415
0.00104479
0.00141813
0.00124975
0.00150782
0.00147496
0.0017069
0.00174913
0.00196424
0.00182755
0.00206229
0.00137116
0.00164681
0.00130391
0.00663861
0.00297614
0.0101431
0.00202064
0.00699469
0.000867877
0.00433534
0.0003696
0.003239
0.000212637
0.00233817
0.00026878
0.00156575
0.000422299
0.000926292
0.000635746
0.000312058
0.000894607
-0.000360833
0.00115888
-0.00110632
0.00143687
-0.00192387
0.00170345
-0.00279354
0.00192923
-0.00361614
0.00209001
-0.00426336
0.00217985
-0.00464193
0.00220144
-0.00472435
0.00216364
-0.0045381
0.00208014
-0.0041411
0.00196618
-0.0036044
0.00182733
-0.00300166
0.00167564
-0.00239165
0.00152785
-0.00181853
0.00139845
-0.00131293
0.00129549
-0.000888736
0.00122018
-0.000544562
0.00116779
-0.000265733
0.00113122
-3.292e-05
0.00110539
0.000168823
0.00108703
0.000350342
0.00107412
0.00052135
0.00106692
0.000688719
0.00106846
0.000856825
0.00108499
0.00102825
0.00112869
0.00120604
0.00121398
0.00138967
0.00137025
0.00159286
0.00155543
0.00164237
0.00160754
0.00131905
0.000255078
0.00265642
0.00727916
0.00403043
0.00625294
0.00366618
0.00735894
0.00254076
0.00546077
0.00188761
0.00389214
0.00153103
0.00269475
0.00138607
0.00171071
0.00141961
0.000892751
0.00159356
0.000138103
0.00184502
-0.000612295
0.0021215
-0.00138279
0.0024006
-0.00220297
0.00264507
-0.00303801
0.00281331
-0.00378439
0.00287835
-0.00432842
0.00283692
-0.00460052
0.00270286
-0.0045903
0.0024985
-0.00433375
0.0022482
-0.00389079
0.00197473
-0.00333093
0.00169523
-0.00272215
0.00142678
-0.0021232
0.00118708
-0.00157883
0.000990665
-0.00111652
0.000843491
-0.000741562
0.000744415
-0.000445486
0.000684785
-0.000206103
0.0006539
-2.03564e-06
0.000643246
0.000179477
0.000646177
0.00034741
0.00065805
0.000509477
0.000676718
0.000670052
0.000702037
0.000831506
0.000735366
0.000994926
0.000779576
0.00116183
0.000832396
0.00133685
0.000860938
0.00156431
0.000577201
0.00192607
-0.00071064
0.0026068
-0.00200839
0.00395425
0.00537484
0.00240917
0.00400829
0.00330384
0.00646427
0.00324775
0.00551685
0.00303692
0.00410296
0.00284575
0.00288592
0.00272226
0.0018342
0.00270806
0.000906943
0.00279655
4.96093e-05
0.00295785
-0.000773596
0.00316779
-0.00159274
0.00338459
-0.00241976
0.00354825
-0.00320168
0.00360413
-0.00384027
0.00352562
-0.00424992
0.00331816
-0.00439308
0.00300793
-0.00428008
0.00262943
-0.00395525
0.00221616
-0.00347753
0.00179778
-0.00291255
0.001398
-0.00232238
0.00103827
-0.00176347
0.000737799
-0.00127835
0.000510128
-0.000888848
0.000353125
-0.000584558
0.000258149
-0.00035051
0.0002091
-0.000157055
0.000192875
1.41888e-05
0.000199351
0.000173001
0.000220582
0.000326179
0.000251708
0.000478351
0.000289328
0.000632431
0.000330541
0.000790293
0.000372382
0.000953085
0.000412075
0.00112214
0.000443381
0.00130555
0.000402915
0.00160477
0.000109701
0.0022191
-0.000254269
0.00297036
-0.000431983
0.00413175
0.00505817
0.00145679
0.00274575
0.00274819
0.00517286
0.00343242
0.00483262
0.00371845
0.00381692
0.00381675
0.00278762
0.00384452
0.00180643
0.00388016
0.000871305
0.0039488
-1.9033e-05
0.0040583
-0.000883106
0.00419774
-0.00173217
0.00431569
-0.00253771
0.00434158
-0.00322756
0.00422396
-0.00372266
0.0039507
-0.00397667
0.00354434
-0.00398673
0.0030448
-0.00378056
0.00249624
-0.0034067
0.00193761
-0.0029189
0.00140323
-0.00237817
0.000920163
-0.00183932
0.00051506
-0.00135837
0.000205463
-0.000968757
-4.24884e-06
-0.000679136
-0.000131007
-0.0004578
-0.00019922
-0.000282298
-0.000229199
-0.000127076
-0.000232131
1.71205e-05
-0.000214937
0.000155807
-0.000182479
0.00029372
-0.000138639
0.000434511
-8.77054e-05
0.000581497
-3.53964e-05
0.000737984
1.00628e-05
0.000907626
3.70575e-05
0.00109515
2.12559e-05
0.00132136
-0.000124994
0.00175098
-0.000458499
0.00255234
-0.000669724
0.00318113
-0.00061378
0.0040754
0.00457268
0.00217118
0.000800523
0.00294375
0.00440029
0.00359471
0.00418166
0.00416504
0.0032466
0.00449267
0.00245999
0.00466668
0.00163241
0.00478309
0.000754886
0.00488732
-0.000123255
0.00499306
-0.00098885
0.00507032
-0.00180942
0.00505345
-0.00252083
0.0048824
-0.00305651
0.00453473
-0.003375
0.00402941
-0.00347136
0.00341158
-0.00336891
0.00273242
-0.0031014
0.00204111
-0.0027154
0.00137622
-0.00225402
0.000777204
-0.00177915
0.000271147
-0.00133326
-0.000106185
-0.000981039
-0.000352506
-0.000722434
-0.000497191
-0.000534449
-0.000577031
-0.000377958
-0.000619956
-0.000239374
-0.000637092
-0.00010994
-0.000633299
1.33258e-05
-0.00061103
0.000133537
-0.000572151
0.00025484
-0.000519518
0.000381878
-0.000458197
0.000520174
-0.000396794
0.00067658
-0.000350031
0.000860863
-0.000345539
0.00109066
-0.000438131
0.00141399
-0.000700234
0.00201323
-0.00122357
0.00307576
-0.00208953
0.00404698
-0.00219163
0.00417728
0.00252389
-0.00157489
0.00262058
0.0011206
0.0017048
0.00335235
0.00194991
0.00435518
0.00224376
0.00485922
0.00195595
0.00517365
0.00131799
0.00540132
0.000527208
0.00557873
-0.000300647
0.0056774
-0.0010875
0.00563506
-0.00176705
0.00540069
-0.00228645
0.0049625
-0.00261831
0.00434828
-0.00276077
0.00361109
-0.00273417
0.00281162
-0.00256945
0.00200069
-0.00229047
0.00122803
-0.00194274
0.000525704
-0.00155169
-5.62013e-05
-0.00119725
-0.000476829
-0.000912628
-0.000737001
-0.000720861
-0.00088594
-0.000573487
-0.00097221
-0.000448174
-0.00102118
-0.000328988
-0.00104757
-0.000212986
-0.00105642
-0.000101094
-0.0010485
5.39922e-06
-0.00102288
0.000107924
-0.000978879
0.000210833
-0.000917861
0.000320858
-0.000844356
0.000446669
-0.00076731
0.000599532
-0.000702065
0.000795615
-0.000674299
0.0010629
-0.000722831
0.0014626
-0.000846436
0.00213713
-0.00102799
0.00325779
-0.00164299
0.00466237
-0.00192943
0.00446412
0.000751244
0.00288233
0.00457195
0.00487273
0.00164913
0.00535977
0.00175672
0.00559642
0.0017193
0.00582748
0.00108694
0.00601427
0.000340425
0.00608026
-0.000366599
0.00595383
-0.000961017
0.00560121
-0.00141438
0.00503462
-0.00171983
0.00430073
-0.00188441
0.00345767
-0.0019177
0.00256463
-0.00184113
0.00167796
-0.00168278
0.000832289
-0.0014448
7.30277e-05
-0.00118348
-0.000537706
-0.00094096
-0.000959511
-0.000775436
-0.00121481
-0.000657311
-0.00136515
-0.000570511
-0.00145126
-0.000487354
-0.00150227
-0.000397162
-0.00153227
-0.000298988
-0.00154771
-0.000197552
-0.00155028
-9.85441e-05
-0.00153898
-5.90986e-06
-0.00151126
8.01975e-05
-0.00146441
0.000163976
-0.0013975
0.000253952
-0.00131235
0.000361519
-0.00121371
0.00050088
-0.0011086
0.000690481
-0.00100316
0.000957424
-0.000890712
0.00135015
-0.000711488
0.00195809
-0.000327158
0.00287392
0.000219903
0.00411571
0.000708939
0.00397558
0.00162239
0.0079313
0.00536612
0.00581155
0.00387646
0.00556392
0.00196691
0.00563594
0.00101494
0.00560142
0.000374985
0.00535929
-0.000124409
0.00489695
-0.000498628
0.00425394
-0.00077135
0.00348342
-0.00094929
0.00263839
-0.00103937
0.0017601
-0.00103941
0.000886958
-0.000967998
5.68788e-05
-0.000852703
-0.000665858
-0.00072207
-0.00122024
-0.000629094
-0.00159636
-0.000564834
-0.00183652
-0.000535244
-0.00197979
-0.000514005
-0.00206784
-0.000482426
-0.00212446
-0.000430698
-0.00216198
-0.000359639
-0.00218593
-0.000275047
-0.00219886
-0.000184664
-0.00220149
-9.59577e-05
-0.00219311
-1.43287e-05
-0.00217124
5.8306e-05
-0.00213243
0.000125164
-0.00207297
0.000194505
-0.00198877
0.000277341
-0.00187428
0.000386378
-0.00172134
0.00053748
-0.00151631
0.000752263
-0.0012269
0.00106057
-0.000771263
0.00150233
-2.89726e-05
0.00213172
0.000976407
0.0031106
0.00149121
0.00346112
0.0032845
0.00408989
0.00152278
0.00449171
0.00347463
0.00372493
0.00273371
0.00322821
0.00151169
0.00288886
0.000714394
0.0025263
0.000238201
0.00208026
-5.25733e-05
0.00153809
-0.000229174
0.00091836
-0.000329573
0.000238621
-0.000359644
-0.000461463
-0.000339338
-0.00111988
-0.000309597
-0.00168087
-0.000291724
-0.00210894
-0.000294005
-0.00240985
-0.000328166
-0.00260119
-0.000373455
-0.00272374
-0.000412627
-0.00280844
-0.000429232
-0.00287368
-0.000417118
-0.00292686
-0.000377489
-0.00297019
-0.000316319
-0.00300368
-0.00024161
-0.00302677
-0.000161663
-0.00303914
-8.36969e-05
-0.00304142
-1.21332e-05
-0.00303353
5.03717e-05
-0.00301167
0.000103322
-0.00296995
0.00015284
-0.00289875
0.000206222
-0.00278361
0.000271292
-0.00260495
0.000358785
-0.00233721
0.000484371
-0.0019419
0.000664984
-0.00135071
0.00091078
-0.000447663
0.00122835
0.000914818
0.00174803
0.00164198
0.00273396
0.00510506
-0.00263445
-0.00680835
-0.00742855
-0.00747776
-0.00375563
-0.00215009
-0.00168242
0.00140144
-0.000768123
0.00181944
-0.000565347
0.00130895
-0.000640479
0.000789547
-0.000822648
0.000420376
-0.00106201
0.000186785
-0.00135288
6.16847e-05
-0.00169899
1.65209e-05
-0.00207707
1.84069e-05
-0.0024522
3.57604e-05
-0.0027982
3.63733e-05
-0.00308942
-5.1486e-07
-0.0032977
-8.57031e-05
-0.00342704
-0.000198768
-0.00350811
-0.000292293
-0.00357137
-0.000349262
-0.00363227
-0.00036822
-0.00369537
-0.000353954
-0.00375977
-0.000313079
-0.00382302
-0.000253126
-0.00388241
-0.000182354
-0.00393471
-0.000109532
-0.00397539
-4.31966e-05
-0.00399671
9.04367e-06
-0.00399588
4.94716e-05
-0.00397623
8.36792e-05
-0.0039382
0.00011491
-0.00387746
0.000145645
-0.00378392
0.000177933
-0.00364082
0.000215825
-0.00342287
0.000266454
-0.00308512
0.000327118
-0.00253849
0.00036387
-0.00172576
0.000415173
-0.000892509
0.000914289
-0.000325989
0.00216698
0.00497341
-0.00738064
0.00102594
-0.00814583
-0.00671251
-0.00719166
-0.00310421
-0.00566742
-0.000122749
-0.00457448
0.000726542
-0.00398299
0.000717469
-0.00372361
0.000530152
-0.00365618
0.000352919
-0.00369705
0.000227601
-0.00379035
0.000154916
-0.00389484
0.000120942
-0.00398312
0.00010663
-0.0040413
9.38863e-05
-0.00407306
6.81138e-05
-0.00409538
2.1834e-05
-0.00412444
-5.65825e-05
-0.00417247
-0.00015062
-0.00424191
-0.000222722
-0.00433091
-0.000260126
-0.00443281
-0.000266219
-0.00453816
-0.000248566
-0.00463708
-0.000214215
-0.00472139
-0.000168941
-0.00478602
-0.000117929
-0.00482895
-6.68461e-05
-0.00485023
-2.21462e-05
-0.00485042
9.03307e-06
-0.00482444
2.33876e-05
-0.00477549
3.47119e-05
-0.0047058
4.5292e-05
-0.00461362
5.3634e-05
-0.00449164
5.61665e-05
-0.0043248
4.92312e-05
-0.00409033
3.22225e-05
-0.00376245
-5.76909e-07
-0.00329083
-0.000107584
-0.00246013
-0.000415404
-0.00086423
-0.000681605
1.60427e-05
0.00128644
0.0051959
0.00156774
-0.00508012
-0.00812132
-0.00818491
-0.00740433
-0.00664065
-0.00607095
-0.0056832
-0.00542374
-0.00523855
-0.00508789
-0.00495134
-0.00482681
-0.00472717
-0.00467309
-0.00469714
-0.00481537
-0.00500613
-0.00523494
-0.00547055
-0.00568916
-0.00587394
-0.00601379
-0.0061028
-0.00614078
-0.00613407
-0.0060962
-0.0060441
-0.00598096
-0.00590772
-0.00582682
-0.00574428
-0.00566972
-0.00561339
-0.00559122
-0.0056776
-0.00607348
-0.00673723
-0.00543439
)
;

boundaryField
{
    floor
    {
        type            calculated;
        value           nonuniform List<scalar> 
36
(
0
0
0
0
0
0
0
0
0
0
0
0
0
0
0
0
0
0
0
-6.43895e-06
-1.68853e-05
-2.60354e-05
-3.43148e-05
-3.49346e-05
-2.86833e-05
-2.8669e-05
-2.91998e-06
-5.44154e-06
-5.68778e-06
-5.90805e-06
-4.85361e-06
-8.93886e-06
-1.02127e-05
-1.2834e-05
-1.44574e-05
-1.5445e-05
)
;
    }
    ceiling
    {
        type            calculated;
        value           nonuniform List<scalar> 
43
(
-5.78792e-05
-6.45877e-05
-6.29379e-05
-5.91213e-05
-5.40052e-05
-4.6222e-05
-3.95852e-05
-3.48942e-05
-3.19494e-05
-3.03686e-05
-2.98059e-05
-2.99964e-05
-3.06793e-05
-3.15304e-05
-3.22008e-05
-3.24456e-05
-3.22756e-05
-3.1828e-05
-3.12144e-05
-3.05594e-05
-2.99755e-05
-2.95352e-05
-2.92591e-05
-2.91233e-05
-2.90763e-05
-2.90528e-05
-2.89816e-05
-2.87946e-05
-2.84369e-05
-2.78788e-05
-2.71156e-05
-2.61598e-05
-2.50341e-05
-2.37627e-05
-2.23653e-05
-2.08546e-05
-1.92647e-05
-1.77379e-05
-1.64875e-05
-1.63266e-05
1.93407e-05
1.51872e-05
-0.000246552
)
;
    }
    sWall
    {
        type            calculated;
        value           nonuniform List<scalar> 9(-0.000140237 -0.000164519 -0.000194244 -0.000225958 -0.000245163 -0.000281096 -0.00042372 -0.000453598 -0.000483895);
    }
    nWall
    {
        type            calculated;
        value           nonuniform List<scalar> 
14
(
-9.03291e-05
-9.76622e-05
-0.00010299
-0.000103992
-0.000115274
-0.000128316
-0.000142898
-0.000156443
-0.000161774
-0.000170707
-0.000178615
-0.000194474
-0.000206823
-0.000222551
)
;
    }
    sideWalls
    {
        type            empty;
        value           nonuniform 0();
    }
    glass1
    {
        type            calculated;
        value           nonuniform List<scalar> 9(-6.40348e-05 -0.000170322 -0.000257926 -0.000331211 -0.000393197 -0.000446405 -0.000492219 -0.000535501 -0.000587179);
    }
    glass2
    {
        type            calculated;
        value           nonuniform List<scalar> 2(-0.000366444 -0.0003854);
    }
    sun
    {
        type            calculated;
        value           uniform 0;
    }
    Table_master
    {
        type            calculated;
        value           nonuniform List<scalar> 9(-1.53995e-07 -1.54112e-07 -1.54144e-07 -1.54164e-07 -1.54177e-07 -1.54182e-07 -1.5418e-07 -1.54166e-07 -1.54113e-07);
    }
    Table_slave
    {
        type            calculated;
        value           nonuniform List<scalar> 9(1.53663e-07 1.5372e-07 1.53719e-07 1.53736e-07 1.53757e-07 1.53801e-07 1.53868e-07 1.53962e-07 1.54089e-07);
    }
    inlet
    {
        type            calculated;
        value           uniform -0.0116483;
    }
    outlet
    {
        type            calculated;
        value           nonuniform List<scalar> 2(0.00986657 0.0122719);
    }
}


// ************************************************************************* //
