/*--------------------------------*- C++ -*----------------------------------*\
  =========                 |
  \\      /  F ield         | OpenFOAM: The Open Source CFD Toolbox
   \\    /   O peration     | Website:  https://openfoam.org
    \\  /    A nd           | Version:  6
     \\/     M anipulation  |
\*---------------------------------------------------------------------------*/
FoamFile
{
    version     2.0;
    format      ascii;
    class       volVectorField;
    location    "36299.9999984081587";
    object      U;
}
// * * * * * * * * * * * * * * * * * * * * * * * * * * * * * * * * * * * * * //

dimensions      [0 1 -1 0 0 0 0];

internalField   nonuniform List<vector> 
778
(
(0.0655954 0.0794101 0)
(-0.15518 0.0157702 0)
(-0.164317 0.0146316 0)
(-0.192446 0.0122826 0)
(-0.216896 0.00873237 0)
(-0.23697 0.00475017 0)
(-0.25211 0.000420887 0)
(-0.26189 -0.00436781 0)
(-0.265795 -0.00981415 0)
(-0.262821 -0.0161982 0)
(-0.251013 -0.0242755 0)
(-0.226303 -0.034898 0)
(-0.186167 -0.0504234 0)
(-0.144223 -0.0751998 0)
(-0.15013 -0.108602 0)
(0.0546109 0.03546 0)
(0.0156805 -0.0268456 0)
(0.0448255 -0.0232409 0)
(0.0691775 -0.0161389 0)
(0.0841943 -0.0103367 0)
(0.0913776 -0.00640993 0)
(0.0942065 -0.00433638 0)
(0.0952416 -0.00331331 0)
(0.0956934 -0.00272573 0)
(0.0958593 -0.00231294 0)
(0.0957302 -0.00194959 0)
(0.0952024 -0.001511 0)
(0.0939476 -0.000759646 0)
(0.0911092 0.000840529 0)
(0.0849229 0.00405637 0)
(0.0734188 0.00775115 0)
(0.0598205 0.0115809 0)
(-0.00800724 0.0299412 0)
(0.258391 0.167398 0)
(-0.161238 0.0484028 0)
(-0.141618 0.0459962 0)
(-0.174034 0.0416339 0)
(-0.19941 0.0356887 0)
(-0.220146 0.0291498 0)
(-0.236191 0.0220761 0)
(-0.247456 0.0142412 0)
(-0.253641 0.00530231 0)
(-0.253964 -0.00515492 0)
(-0.24781 -0.0170928 0)
(-0.234102 -0.0308668 0)
(-0.214193 -0.0480969 0)
(-0.197618 -0.0699862 0)
(-0.194106 -0.0826781 0)
(-0.166477 -0.0426038 0)
(-0.105383 -0.0364351 0)
(-0.098345 -0.0445231 0)
(0.109325 -0.0419739 0)
(0.0644167 -0.0410686 0)
(0.0717976 -0.0321864 0)
(0.0857203 -0.0206426 0)
(0.0935652 -0.0104053 0)
(0.0957689 -0.00362471 0)
(0.0955258 -0.000195832 0)
(0.0951421 0.00125301 0)
(0.0951081 0.00190426 0)
(0.0951891 0.00227741 0)
(0.0951951 0.00259551 0)
(0.0950937 0.00313241 0)
(0.0948023 0.00440745 0)
(0.0935469 0.00771379 0)
(0.087958 0.0167273 0)
(0.0742267 0.0252747 0)
(0.0629515 0.0328472 0)
(-0.0521274 0.0634388 0)
(0.429967 0.253963 0)
(-0.194234 0.0847775 0)
(-0.112794 0.0784579 0)
(-0.148269 0.0669863 0)
(-0.170713 0.055534 0)
(-0.188821 0.0437616 0)
(-0.202671 0.0313752 0)
(-0.212375 0.0180314 0)
(-0.217735 0.00341232 0)
(-0.218098 -0.012631 0)
(-0.212843 -0.0303349 0)
(-0.201738 -0.0499284 0)
(-0.1861 -0.0715942 0)
(-0.169572 -0.0932419 0)
(-0.15121 -0.104599 0)
(-0.120371 -0.0931887 0)
(-0.0796687 -0.0950107 0)
(-0.0715976 -0.107677 0)
(0.0920466 -0.0880251 0)
(0.0624843 -0.0656138 0)
(0.0742519 -0.045992 0)
(0.087841 -0.0291104 0)
(0.094613 -0.01476 0)
(0.091654 -0.0119764 0)
(0.0874302 -0.00796251 0)
(0.0850645 -0.00580104 0)
(0.0843675 -0.00457012 0)
(0.0843457 -0.0037996 0)
(0.0846068 -0.00322377 0)
(0.0852623 -0.0025977 0)
(0.087022 -0.00144168 0)
(0.0916975 0.00291219 0)
(0.0898424 0.0250705 0)
(0.0730443 0.0422622 0)
(0.0698624 0.0572762 0)
(-0.0903028 0.100631 0)
(0.578531 0.325853 0)
(-0.240101 0.121835 0)
(-0.0808495 0.109257 0)
(-0.1216 0.089895 0)
(-0.139044 0.0741155 0)
(-0.153117 0.058683 0)
(-0.163888 0.0427962 0)
(-0.171494 0.0258431 0)
(-0.175713 0.00721779 0)
(-0.175784 -0.0135271 0)
(-0.171098 -0.0364786 0)
(-0.161533 -0.0614697 0)
(-0.147675 -0.0873838 0)
(-0.130715 -0.110307 0)
(-0.10978 -0.123211 0)
(-0.082324 -0.124566 0)
(-0.0527385 -0.126418 0)
(-0.0336341 -0.123213 0)
(0.0160084 -0.0568053 0)
(0.0605843 -0.0929447 0)
(0.0682893 -0.0790524 0)
(0.078936 -0.0586744 0)
(0.0914385 -0.0394217 0)
(0.102798 -0.0207505 0)
(0.115537 -0.0131227 0)
(0.126629 -0.00878122 0)
(0.132176 -0.0055901 0)
(0.133124 -0.00309092 0)
(0.130574 -0.000869931 0)
(0.125092 0.00129827 0)
(0.116549 0.00367794 0)
(0.104181 0.00672981 0)
(0.0849265 0.0111528 0)
(0.0710707 0.0368029 0)
(0.0597841 0.0604427 0)
(0.0759338 0.0830921 0)
(-0.11824 0.136619 0)
(0.705711 0.383696 0)
(-0.287676 0.157036 0)
(-0.0477117 0.133826 0)
(-0.0963186 0.106972 0)
(-0.107778 0.0876556 0)
(-0.116823 0.0692363 0)
(-0.123624 0.0505066 0)
(-0.128295 0.0306359 0)
(-0.130663 0.00875436 0)
(-0.129861 -0.0158099 0)
(-0.125363 -0.0430818 0)
(-0.116742 -0.0726889 0)
(-0.104031 -0.102816 0)
(-0.0875819 -0.129058 0)
(-0.0676552 -0.145754 0)
(-0.0443398 -0.152249 0)
(-0.0204984 -0.152382 0)
(1.50993e-05 -0.143752 0)
(0.0305518 -0.114986 0)
(0.0567424 -0.109301 0)
(0.0703534 -0.0923338 0)
(0.0805193 -0.0711286 0)
(0.0905947 -0.0506545 0)
(0.100157 -0.0326139 0)
(0.109249 -0.0192779 0)
(0.116232 -0.00992629 0)
(0.119611 -0.00324592 0)
(0.119767 0.00199333 0)
(0.117321 0.00652363 0)
(0.112644 0.0108599 0)
(0.105764 0.0155152 0)
(0.096609 0.021193 0)
(0.0846735 0.0291919 0)
(0.0730964 0.0471924 0)
(0.0625395 0.0711909 0)
(0.0940313 0.0991739 0)
(0.0158332 0.137808 0)
(0.0950856 0.182952 0)
(0.141203 0.146055 0)
(-0.223569 0.203296 0)
(0.810424 0.431993 0)
(-0.331315 0.19071 0)
(-0.0173273 0.150304 0)
(-0.073396 0.117587 0)
(-0.0786293 0.0955865 0)
(-0.0822635 0.0750229 0)
(-0.0845307 0.0544161 0)
(-0.0855798 0.0327807 0)
(-0.0853335 0.0089026 0)
(-0.0826643 -0.0183901 0)
(-0.077499 -0.0490181 0)
(-0.0688752 -0.0824873 0)
(-0.0568894 -0.116465 0)
(-0.0418516 -0.146239 0)
(-0.0248739 -0.165934 0)
(-0.00650719 -0.174456 0)
(0.0118769 -0.172739 0)
(0.0277809 -0.161013 0)
(0.0459477 -0.13932 0)
(0.06241 -0.122313 0)
(0.0730997 -0.10242 0)
(0.0807949 -0.0803283 0)
(0.0875584 -0.0589546 0)
(0.093732 -0.0400666 0)
(0.09904 -0.0249035 0)
(0.10269 -0.0135663 0)
(0.10425 -0.00489618 0)
(0.103778 0.00227012 0)
(0.101589 0.00870792 0)
(0.0979334 0.0149381 0)
(0.0929693 0.0214931 0)
(0.0869237 0.0290149 0)
(0.0800451 0.0384275 0)
(0.0742495 0.052885 0)
(0.0688804 0.0729194 0)
(0.0907361 0.0986174 0)
(0.072155 0.107181 0)
(0.0885008 0.0474392 0)
(0.146164 -0.0379264 0)
(-0.330719 0.106559 0)
(0.879916 0.474705 0)
(-0.368638 0.220999 0)
(0.00372024 0.155628 0)
(-0.0526905 0.121651 0)
(-0.0522458 0.0979416 0)
(-0.0510805 0.0759146 0)
(-0.0490915 0.0541323 0)
(-0.0465885 0.0316097 0)
(-0.0434141 0.00682763 0)
(-0.0374616 -0.0222651 0)
(-0.030392 -0.0553473 0)
(-0.0206155 -0.0919065 0)
(-0.00881851 -0.128828 0)
(0.00437728 -0.161139 0)
(0.0174419 -0.181798 0)
(0.030228 -0.190158 0)
(0.0420343 -0.187203 0)
(0.0523361 -0.174414 0)
(0.0623066 -0.154058 0)
(0.0708893 -0.132378 0)
(0.0764235 -0.109317 0)
(0.0798898 -0.0857653 0)
(0.0824829 -0.0635428 0)
(0.0847 -0.0440129 0)
(0.0864966 -0.0279048 0)
(0.0875408 -0.0151204 0)
(0.0876184 -0.00487856 0)
(0.0865849 0.00374173 0)
(0.0846427 0.0114234 0)
(0.0819416 0.0186943 0)
(0.078662 0.0260648 0)
(0.0750825 0.0340549 0)
(0.0715933 0.0432488 0)
(0.0695333 0.0549738 0)
(0.0682004 0.06964 0)
(0.0808741 0.0889292 0)
(0.0832102 0.0922737 0)
(0.087627 0.0541368 0)
(0.180822 0.023381 0)
(-0.283611 0.153448 0)
(0.927983 0.517157 0)
(-0.383174 0.234217 0)
(0.0169141 0.133072 0)
(-0.0273545 0.116757 0)
(-0.0265882 0.0950278 0)
(-0.0227981 0.0725374 0)
(-0.0177054 0.0502076 0)
(-0.0124474 0.0273392 0)
(-0.00551809 0.00193941 0)
(0.00446692 -0.0307029 0)
(0.0141749 -0.0652991 0)
(0.025463 -0.103283 0)
(0.0370948 -0.14077 0)
(0.0477673 -0.172025 0)
(0.0568603 -0.192226 0)
(0.0643516 -0.199741 0)
(0.0700724 -0.195358 0)
(0.0740264 -0.181188 0)
(0.0767281 -0.160105 0)
(0.0780939 -0.136085 0)
(0.0777393 -0.111023 0)
(0.0762345 -0.0864363 0)
(0.0744028 -0.0638112 0)
(0.0727633 -0.0441606 0)
(0.0714508 -0.0278723 0)
(0.0703328 -0.0146687 0)
(0.0692227 -0.00385376 0)
(0.0678332 0.00535015 0)
(0.0662973 0.0135243 0)
(0.0645937 0.0211612 0)
(0.0628146 0.0287007 0)
(0.0611566 0.0365215 0)
(0.0599239 0.04496 0)
(0.0599607 0.0545648 0)
(0.0610197 0.0654147 0)
(0.0694721 0.0791941 0)
(0.0779855 0.0831307 0)
(0.0751654 0.0619304 0)
(0.239124 0.0496812 0)
(-0.560003 0.229298 0)
(1.01133 0.506834 0)
(-0.137384 0.296364 0)
(0.0410775 0.161572 0)
(0.0405522 0.122175 0)
(0.0130358 0.0920788 0)
(0.00861192 0.0654763 0)
(0.0140203 0.0414976 0)
(0.0206277 0.0170715 0)
(0.0324219 -0.0109563 0)
(0.0438744 -0.0421086 0)
(0.0557317 -0.0768757 0)
(0.0679963 -0.114582 0)
(0.079125 -0.151008 0)
(0.0876221 -0.180447 0)
(0.0928413 -0.198479 0)
(0.0948916 -0.203679 0)
(0.0941818 -0.197075 0)
(0.0912613 -0.181068 0)
(0.0868087 -0.158685 0)
(0.0812753 -0.133236 0)
(0.0749513 -0.107153 0)
(0.0684294 -0.0822712 0)
(0.0624239 -0.0599611 0)
(0.0574455 -0.0409634 0)
(0.0536794 -0.02538 0)
(0.051025 -0.0127268 0)
(0.049223 -0.00223624 0)
(0.0478762 0.00678203 0)
(0.0469856 0.0148279 0)
(0.046332 0.0223494 0)
(0.0458836 0.0296958 0)
(0.0457142 0.0371131 0)
(0.0459899 0.0447665 0)
(0.0471842 0.0528584 0)
(0.0492413 0.0613392 0)
(0.0550971 0.071152 0)
(0.0623758 0.0734927 0)
(0.0500028 0.0505487 0)
(0.294211 0.0713586 0)
(-0.788918 0.298273 0)
(0.779361 0.395776 0)
(0.000679743 0.319522 0)
(0.0933501 0.218943 0)
(0.110557 0.155221 0)
(0.0771176 0.106894 0)
(0.0597432 0.0676312 0)
(0.0581569 0.0358502 0)
(0.0623112 0.00649244 0)
(0.0737245 -0.0233733 0)
(0.085283 -0.0550018 0)
(0.0974637 -0.089719 0)
(0.109314 -0.126207 0)
(0.118676 -0.159957 0)
(0.123774 -0.18565 0)
(0.124005 -0.199732 0)
(0.119793 -0.201361 0)
(0.112088 -0.191887 0)
(0.101964 -0.173839 0)
(0.0904655 -0.150228 0)
(0.0784337 -0.124078 0)
(0.0665568 -0.0979209 0)
(0.0555595 -0.0736831 0)
(0.0461588 -0.0526322 0)
(0.0388116 -0.0352264 0)
(0.0336089 -0.021277 0)
(0.0303159 -0.010027 0)
(0.0284832 -0.000579431 0)
(0.0276495 0.00768448 0)
(0.0275721 0.0152075 0)
(0.0279244 0.0223664 0)
(0.0285864 0.029399 0)
(0.0295181 0.0364368 0)
(0.03073 0.0435358 0)
(0.0323618 0.0507516 0)
(0.0341439 0.0581082 0)
(0.0365567 0.0666526 0)
(0.0285744 0.0729171 0)
(0.0186945 0.0850827 0)
(0.133626 0.158859 0)
(-0.661151 0.295465 0)
(0.6173 0.220943 0)
(0.00456192 0.298159 0)
(0.113015 0.241568 0)
(0.14828 0.177586 0)
(0.130839 0.123558 0)
(0.117812 0.0778984 0)
(0.114941 0.038963 0)
(0.117094 0.00346927 0)
(0.123443 -0.0306528 0)
(0.131654 -0.0649551 0)
(0.141325 -0.10045 0)
(0.150187 -0.135304 0)
(0.155303 -0.165153 0)
(0.154744 -0.18568 0)
(0.148196 -0.194588 0)
(0.136553 -0.191897 0)
(0.121287 -0.179338 0)
(0.103904 -0.159464 0)
(0.0857789 -0.135164 0)
(0.0680242 -0.109216 0)
(0.0515867 -0.0840863 0)
(0.0373294 -0.0616457 0)
(0.0259847 -0.043006 0)
(0.0178079 -0.0282315 0)
(0.012572 -0.0167616 0)
(0.00964787 -0.00748421 0)
(0.0083138 0.000537989 0)
(0.00824828 0.00780669 0)
(0.00891171 0.0146814 0)
(0.0100709 0.0214182 0)
(0.0115741 0.0281552 0)
(0.0132929 0.0349584 0)
(0.0150895 0.0418419 0)
(0.016886 0.0488231 0)
(0.0186371 0.0560957 0)
(0.0199816 0.0658277 0)
(0.00157934 0.0849336 0)
(-0.00281585 0.117917 0)
(0.172943 0.174339 0)
(-0.56594 0.234695 0)
(0.570769 0.118599 0)
(-0.0203408 0.258672 0)
(0.113738 0.229906 0)
(0.16508 0.17609 0)
(0.166735 0.126238 0)
(0.164384 0.0811724 0)
(0.165354 0.0400573 0)
(0.168246 0.00171545 0)
(0.172197 -0.0353121 0)
(0.177759 -0.0718402 0)
(0.183913 -0.107501 0)
(0.187585 -0.13953 0)
(0.18576 -0.164067 0)
(0.177059 -0.178314 0)
(0.161929 -0.181483 0)
(0.141908 -0.174464 0)
(0.118941 -0.159281 0)
(0.0947918 -0.138353 0)
(0.0710649 -0.114376 0)
(0.0490041 -0.0898359 0)
(0.0297844 -0.0670961 0)
(0.0143822 -0.0478921 0)
(0.00337761 -0.032996 0)
(-0.00368595 -0.021613 0)
(-0.00753633 -0.0130537 0)
(-0.0094929 -0.00576473 0)
(-0.010151 0.000886646 0)
(-0.00974271 0.0072066 0)
(-0.00863696 0.0134292 0)
(-0.00696529 0.0197103 0)
(-0.00488532 0.026161 0)
(-0.00260487 0.0328696 0)
(-0.000434947 0.0399103 0)
(0.00128197 0.04735 0)
(0.00264226 0.0555437 0)
(0.000116185 0.07028 0)
(-0.0259395 0.102238 0)
(-0.0205168 0.134222 0)
(0.128887 0.180845 0)
(-0.529315 0.205714 0)
(0.628374 0.0538065 0)
(0.00928027 0.197336 0)
(0.113878 0.19697 0)
(0.175185 0.157976 0)
(0.191425 0.117758 0)
(0.198062 0.077363 0)
(0.203369 0.0373744 0)
(0.208552 -0.00140941 0)
(0.213041 -0.0395731 0)
(0.217344 -0.0764463 0)
(0.219152 -0.109851 0)
(0.215298 -0.136632 0)
(0.203895 -0.154205 0)
(0.185029 -0.16159 0)
(0.160314 -0.159358 0)
(0.13192 -0.148913 0)
(0.102112 -0.132332 0)
(0.0726223 -0.111685 0)
(0.0452554 -0.0894812 0)
(0.0212358 -0.0678963 0)
(0.00213646 -0.0492274 0)
(-0.0112053 -0.0349757 0)
(-0.0190289 -0.0250983 0)
(-0.0235383 -0.017424 0)
(-0.0259801 -0.0109009 0)
(-0.0271872 -0.00491302 0)
(-0.0274427 0.000763305 0)
(-0.0268447 0.00629254 0)
(-0.0255179 0.0118554 0)
(-0.0235237 0.0176172 0)
(-0.0210186 0.0237556 0)
(-0.0182844 0.0304764 0)
(-0.0158458 0.0380453 0)
(-0.0144669 0.0469076 0)
(-0.0147336 0.058731 0)
(-0.0222923 0.0821499 0)
(-0.0511414 0.12316 0)
(-0.0466247 0.156072 0)
(0.000110503 0.177496 0)
(-0.537025 0.159683 0)
(0.472872 0.0748207 0)
(-0.132071 0.137594 0)
(0.0943047 0.133318 0)
(0.172796 0.116853 0)
(0.203889 0.0954268 0)
(0.218148 0.0644996 0)
(0.228103 0.0285017 0)
(0.237155 -0.00885628 0)
(0.243534 -0.0452234 0)
(0.245045 -0.0781712 0)
(0.239059 -0.105019 0)
(0.224213 -0.123711 0)
(0.201019 -0.13341 0)
(0.171382 -0.134581 0)
(0.137891 -0.128499 0)
(0.102849 -0.116443 0)
(0.0686278 -0.100296 0)
(0.0364477 -0.0816557 0)
(0.00879132 -0.0630359 0)
(-0.01358 -0.0463532 0)
(-0.0273966 -0.0349932 0)
(-0.0357067 -0.026906 0)
(-0.0403802 -0.0205673 0)
(-0.0430643 -0.014895 0)
(-0.0445727 -0.00955977 0)
(-0.0452941 -0.00444819 0)
(-0.0452934 0.000449998 0)
(-0.044584 0.00522182 0)
(-0.0431033 0.0100485 0)
(-0.0408331 0.0151734 0)
(-0.0378925 0.0208996 0)
(-0.0345572 0.0276098 0)
(-0.0314076 0.0358554 0)
(-0.0293985 0.0466656 0)
(-0.0286052 0.0627274 0)
(-0.030145 0.0916148 0)
(-0.0481069 0.140037 0)
(-0.0372823 0.187236 0)
(0.0153513 0.175762 0)
(-0.555456 0.0499708 0)
(0.724174 0.134472 0)
(0.0818391 0.115266 0)
(0.149783 0.099227 0)
(0.222436 0.0805276 0)
(0.244083 0.0700191 0)
(0.248857 0.0477965 0)
(0.255136 0.017688 0)
(0.261253 -0.0145894 0)
(0.260296 -0.0446316 0)
(0.249821 -0.0694663 0)
(0.229572 -0.0873709 0)
(0.201104 -0.0978836 0)
(0.166777 -0.101323 0)
(0.12913 -0.0987171 0)
(0.0906935 -0.0913724 0)
(0.0529375 -0.0799822 0)
(0.0187337 -0.0662595 0)
(-0.0123565 -0.0513585 0)
(-0.0339674 -0.0399921 0)
(-0.0480898 -0.0320514 0)
(-0.0562723 -0.026677 0)
(-0.0609739 -0.0222068 0)
(-0.063691 -0.0178643 0)
(-0.0653063 -0.0133522 0)
(-0.0662187 -0.00876736 0)
(-0.0665825 -0.0042872 0)
(-0.0663745 -3.82018e-05 0)
(-0.0655561 0.00400423 0)
(-0.0640063 0.00802574 0)
(-0.0615786 0.0123571 0)
(-0.0583057 0.0174312 0)
(-0.0543261 0.0238054 0)
(-0.0499635 0.0322768 0)
(-0.0457197 0.0441613 0)
(-0.0407284 0.0619164 0)
(-0.0312997 0.0904144 0)
(-0.0256306 0.136373 0)
(-0.0147278 0.197134 0)
(0.133333 0.189519 0)
(-0.4228 0.0526738 0)
(0.191804 0.087998 0)
(0.225669 0.0997924 0)
(0.246462 0.0702515 0)
(0.242534 0.0400067 0)
(0.239737 0.0123473 0)
(0.234799 -0.0126937 0)
(0.220146 -0.0332005 0)
(0.196477 -0.048328 0)
(0.16609 -0.0580463 0)
(0.13141 -0.0628332 0)
(0.0942163 -0.0630098 0)
(0.0564802 -0.0593659 0)
(0.0202406 -0.0528687 0)
(-0.0151724 -0.0437753 0)
(-0.042186 -0.0356037 0)
(-0.062135 -0.0294126 0)
(-0.0749683 -0.0258658 0)
(-0.0827559 -0.0236234 0)
(-0.0873834 -0.0216317 0)
(-0.0902956 -0.0190696 0)
(-0.0922089 -0.0158184 0)
(-0.0934627 -0.0120588 0)
(-0.094211 -0.00808972 0)
(-0.0945161 -0.00419211 0)
(-0.0943651 -0.000545639 0)
(-0.0937072 0.00283239 0)
(-0.0924815 0.00606369 0)
(-0.090442 0.00949958 0)
(-0.0874524 0.0136535 0)
(-0.0832989 0.0191595 0)
(-0.0777036 0.0268198 0)
(-0.0703501 0.0377384 0)
(-0.0599885 0.053582 0)
(-0.0426985 0.0768385 0)
(-0.018866 0.110835 0)
(0.00237072 0.163172 0)
(0.174023 0.165381 0)
(-0.362811 0.109718 0)
(0.450876 0.209769 0)
(0.205853 0.17876 0)
(0.152406 0.11879 0)
(0.139477 0.0640528 0)
(0.128288 0.0259105 0)
(0.114363 0.00182084 0)
(0.0990876 -0.0128678 0)
(0.0780259 -0.0218753 0)
(0.053161 -0.0272638 0)
(0.0256348 -0.0294432 0)
(-0.0048621 -0.0283321 0)
(-0.0346185 -0.0250835 0)
(-0.0610062 -0.0213298 0)
(-0.0827893 -0.0185615 0)
(-0.0983772 -0.0179835 0)
(-0.108612 -0.0187804 0)
(-0.114956 -0.0200443 0)
(-0.11914 -0.0205034 0)
(-0.122222 -0.0196545 0)
(-0.124702 -0.0174635 0)
(-0.126741 -0.0141853 0)
(-0.128366 -0.0102018 0)
(-0.129557 -0.00596573 0)
(-0.130291 -0.00194578 0)
(-0.130571 0.00146648 0)
(-0.130438 0.00408762 0)
(-0.129865 0.00625172 0)
(-0.128621 0.00837692 0)
(-0.126373 0.0109002 0)
(-0.122566 0.0142878 0)
(-0.116456 0.0191163 0)
(-0.107221 0.0261647 0)
(-0.0935637 0.0363417 0)
(-0.0726073 0.0503796 0)
(-0.0414029 0.0690927 0)
(-0.00248534 0.100127 0)
(0.188034 0.12716 0)
(-0.364606 0.172615 0)
(0.358292 -0.417192 0)
(-0.34622 -0.512606 0)
(-0.218284 -0.0271792 0)
(-0.0934627 0.111003 0)
(-0.05392 0.0925644 0)
(-0.0314776 0.0545542 0)
(-0.0265529 0.0283961 0)
(-0.0314459 0.0117131 0)
(-0.0402425 0.00102415 0)
(-0.0508824 -0.00579954 0)
(-0.0647912 -0.0097394 0)
(-0.0806378 -0.0116627 0)
(-0.0972545 -0.0129093 0)
(-0.113141 -0.0149902 0)
(-0.127058 -0.0181793 0)
(-0.13798 -0.0214994 0)
(-0.14511 -0.0245093 0)
(-0.149338 -0.0267284 0)
(-0.152212 -0.0280857 0)
(-0.154783 -0.0285573 0)
(-0.15743 -0.0281946 0)
(-0.160179 -0.027102 0)
(-0.162929 -0.0254376 0)
(-0.165566 -0.02336 0)
(-0.167975 -0.0209559 0)
(-0.169987 -0.0181809 0)
(-0.171347 -0.0148794 0)
(-0.171759 -0.0110516 0)
(-0.171303 -0.00740992 0)
(-0.170131 -0.00392777 0)
(-0.168129 -0.000419548 0)
(-0.164933 0.00331568 0)
(-0.159946 0.00761316 0)
(-0.152518 0.0130623 0)
(-0.141737 0.0202146 0)
(-0.125014 0.0289754 0)
(-0.0959659 0.039986 0)
(-0.041538 0.0625583 0)
(0.102239 0.117243 0)
(-0.50538 0.227429 0)
(0.122033 -0.186424 0)
(-0.388717 -0.298138 0)
(-0.343606 -0.0963345 0)
(-0.265272 0.0516053 0)
(-0.21157 0.0834367 0)
(-0.179438 0.0744623 0)
(-0.163166 0.0610397 0)
(-0.157149 0.0512254 0)
(-0.157167 0.0463065 0)
(-0.160385 0.0460474 0)
(-0.164914 0.0495634 0)
(-0.169221 0.0556043 0)
(-0.172457 0.0627867 0)
(-0.174437 0.0693341 0)
(-0.175591 0.0729865 0)
(-0.176524 0.0707049 0)
(-0.178079 0.063863 0)
(-0.180567 0.057106 0)
(-0.184029 0.0522416 0)
(-0.188234 0.0495929 0)
(-0.192796 0.0489294 0)
(-0.197274 0.0498629 0)
(-0.201262 0.0519176 0)
(-0.204467 0.0544974 0)
(-0.206751 0.0568476 0)
(-0.208115 0.0580861 0)
(-0.208585 0.0573576 0)
(-0.207998 0.0547729 0)
(-0.206377 0.0518645 0)
(-0.20387 0.048809 0)
(-0.200479 0.0455609 0)
(-0.19592 0.0420722 0)
(-0.189662 0.0383308 0)
(-0.181334 0.0342618 0)
(-0.170892 0.0289317 0)
(-0.15658 0.0186671 0)
(-0.128773 0.000221999 0)
(-0.0620132 -0.00909277 0)
(0.16464 0.0594151 0)
(-0.602938 0.229387 0)
(1.14924 -0.0110128 0)
(-0.297909 -0.323359 0)
(-0.353498 -0.23274 0)
(-0.353257 -0.148431 0)
(-0.329602 -0.107252 0)
(-0.298135 -0.0988022 0)
(-0.271064 -0.101046 0)
(-0.251409 -0.106695 0)
(-0.238081 -0.114069 0)
(-0.228878 -0.12305 0)
(-0.221823 -0.134 0)
(-0.215649 -0.147232 0)
(-0.209895 -0.162356 0)
(-0.204806 -0.177767 0)
(-0.201213 -0.190495 0)
(-0.200441 -0.197041 0)
(-0.203629 -0.197354 0)
(-0.210562 -0.194195 0)
(-0.219879 -0.188871 0)
(-0.230124 -0.182459 0)
(-0.240097 -0.17582 0)
(-0.248919 -0.169548 0)
(-0.255985 -0.163903 0)
(-0.260917 -0.158824 0)
(-0.263571 -0.154012 0)
(-0.264099 -0.14905 0)
(-0.26299 -0.143554 0)
(-0.260958 -0.137669 0)
(-0.258475 -0.131775 0)
(-0.255571 -0.125569 0)
(-0.252267 -0.118968 0)
(-0.248566 -0.112131 0)
(-0.244665 -0.105295 0)
(-0.241842 -0.0985363 0)
(-0.243181 -0.0915716 0)
(-0.24902 -0.0828819 0)
(-0.24535 -0.0666331 0)
(-0.216811 -0.0274396 0)
(-0.230854 0.0507 0)
(-0.681858 0.152248 0)
)
;

boundaryField
{
    floor
    {
        type            noSlip;
    }
    ceiling
    {
        type            noSlip;
    }
    sWall
    {
        type            noSlip;
    }
    nWall
    {
        type            noSlip;
    }
    sideWalls
    {
        type            empty;
    }
    glass1
    {
        type            noSlip;
    }
    glass2
    {
        type            noSlip;
    }
    sun
    {
        type            noSlip;
    }
    Table_master
    {
        type            noSlip;
    }
    Table_slave
    {
        type            noSlip;
    }
    inlet
    {
        type            fixedValue;
        value           uniform (0.5 0 0);
    }
    outlet
    {
        type            zeroGradient;
    }
}


// ************************************************************************* //
