/*--------------------------------*- C++ -*----------------------------------*\
  =========                 |
  \\      /  F ield         | OpenFOAM: The Open Source CFD Toolbox
   \\    /   O peration     | Website:  https://openfoam.org
    \\  /    A nd           | Version:  6
     \\/     M anipulation  |
\*---------------------------------------------------------------------------*/
FoamFile
{
    version     2.0;
    format      ascii;
    class       volScalarField;
    location    "18000";
    object      alphat;
}
// * * * * * * * * * * * * * * * * * * * * * * * * * * * * * * * * * * * * * //

dimensions      [1 -1 -1 0 0 0 0];

internalField   nonuniform List<scalar> 
778
(
0.00104099
0.00111052
0.0011065
0.00115452
0.00119853
0.00123851
0.00127574
0.00131165
0.0013478
0.00138624
0.00142292
0.00145778
0.00149213
0.00152906
0.00156758
0.000736885
0.00105563
0.00106428
0.00103861
0.000995556
0.000937955
0.000880518
0.000827609
0.000779931
0.000737204
0.000699142
0.000664956
0.000633813
0.00060474
0.000576443
0.000546852
0.000522257
0.000472681
0.00152467
0.0030072
0.00263924
0.00304626
0.0033415
0.00365448
0.00396671
0.00425452
0.00448631
0.00462144
0.00470101
0.00466872
0.00443627
0.00385975
0.00281915
0.00171651
0.00163661
0.00156657
0.00131841
0.00224623
0.00311397
0.00362683
0.00365111
0.00288109
0.00246404
0.00217503
0.0019556
0.00178098
0.00163203
0.00150042
0.00137798
0.00125821
0.00115073
0.00105805
0.00119133
0.000599264
0.00193415
0.00419863
0.00311332
0.00445323
0.00497571
0.00541775
0.0058192
0.00617259
0.00647215
0.00670728
0.0069352
0.00717527
0.00739619
0.00752811
0.00744197
0.00681436
0.00498388
0.00192159
0.00166351
0.00355847
0.00496625
0.0056329
0.00512337
0.00135208
0.0011758
0.00103977
0.000933295
0.00084853
0.000780095
0.00072427
0.000678868
0.000643473
0.000707372
0.000831977
0.00131656
0.000681699
0.00232911
0.00565814
0.00297898
0.00500691
0.00578044
0.00619404
0.00649803
0.0067229
0.00689083
0.00702722
0.00722123
0.00754924
0.00802802
0.0086301
0.00923531
0.00953368
0.00895231
0.00667717
0.00191384
0.00443347
0.00659334
0.0076906
0.00796189
0.00679775
0.00153929
0.00140018
0.00129253
0.00120299
0.00112666
0.00105808
0.00099342
0.000929199
0.000859854
0.000803288
0.000832406
0.00142447
0.000750602
0.00271837
0.00749005
0.00300538
0.00475942
0.00594881
0.00630135
0.00642903
0.00643359
0.00636947
0.00631294
0.00639426
0.00671291
0.00729769
0.00812581
0.00908614
0.00997075
0.0105323
0.0105265
0.00944777
0.00961299
0.00983235
0.00986261
0.00966219
0.00904447
0.00719837
0.00621855
0.00554741
0.005002
0.00446708
0.00394891
0.00344194
0.00293551
0.00241508
0.0018553
0.0014161
0.00141302
0.00111815
0.000894535
0.00117214
0.00112614
0.00310131
0.00954006
0.00353799
0.00401332
0.00569944
0.00609065
0.00605891
0.00584046
0.00552848
0.00527126
0.00526563
0.00559925
0.00626537
0.0072254
0.00834906
0.00947122
0.0104267
0.0110369
0.0111481
0.0110355
0.0108387
0.0105602
0.0102031
0.00974932
0.00908733
0.00844958
0.00787054
0.00731065
0.00670623
0.0060608
0.00537131
0.00463178
0.00383749
0.00299488
0.00223287
0.00167668
0.00130132
0.00145406
0.0025171
0.00134889
0.00349205
0.0114352
0.00471433
0.00328784
0.00512085
0.00576092
0.00568951
0.00533635
0.0048243
0.00437371
0.0043604
0.00478104
0.00554306
0.00661579
0.00783703
0.00904576
0.0100859
0.0108306
0.0111729
0.0111456
0.0108996
0.0105278
0.0101027
0.00967913
0.00926975
0.00889419
0.00854149
0.00816503
0.00771053
0.00716349
0.00651564
0.00576371
0.00491066
0.00397888
0.00306964
0.00222236
0.00163691
0.00145878
0.00255008
0.00158662
0.00382778
0.0128681
0.0064267
0.00313063
0.00405633
0.00510673
0.00525304
0.0049629
0.0043577
0.0037449
0.00388325
0.00443922
0.00529091
0.00639621
0.00766431
0.00892975
0.0100091
0.0107589
0.0110991
0.011054
0.0107366
0.010269
0.00976649
0.00932124
0.0089782
0.00873317
0.00854221
0.00833478
0.00804638
0.0076427
0.00710762
0.00643769
0.00563952
0.00473799
0.00380359
0.00286238
0.00201462
0.00133167
0.00363031
0.00206233
0.00392903
0.0121741
0.00794987
0.00404698
0.00275035
0.00336968
0.00394271
0.00399101
0.00352362
0.00342483
0.00378041
0.00443399
0.00535432
0.00652584
0.0078545
0.00915892
0.0102348
0.010927
0.01117
0.0110025
0.0105426
0.00993977
0.00934205
0.00886552
0.00856317
0.00841466
0.00834729
0.00826753
0.00810181
0.00781041
0.00737739
0.00680083
0.00608848
0.00526151
0.00435797
0.00334838
0.00201028
0.00161517
0.00542968
0.00235616
0.00384959
0.00981168
0.00820755
0.00555324
0.00366874
0.00284118
0.00269082
0.00281694
0.00305353
0.00343023
0.00396449
0.0046998
0.00570015
0.00696255
0.00836302
0.00968574
0.0107057
0.0112676
0.0113265
0.0109492
0.0102848
0.00952035
0.00883844
0.00837172
0.00815796
0.00813269
0.00817855
0.00817742
0.00806985
0.00783351
0.00746061
0.00695041
0.00630796
0.0055409
0.00461202
0.0032246
0.00156072
0.00281468
0.00555648
0.00239657
0.00360596
0.00838428
0.00793365
0.00635303
0.00489091
0.00393848
0.00346742
0.00336106
0.00355639
0.00391573
0.00443795
0.00521383
0.00631795
0.00770123
0.00917236
0.0104668
0.0113461
0.0116738
0.0114445
0.0107729
0.00986004
0.00894623
0.00825285
0.00790545
0.00786516
0.00797815
0.0080922
0.00809401
0.0079803
0.00775083
0.00740036
0.0069234
0.00631615
0.00555666
0.00443843
0.00249409
0.00175323
0.00347373
0.00523757
0.00236625
0.0032832
0.00755824
0.00765132
0.00672303
0.00572083
0.00496608
0.00452176
0.00436317
0.0044037
0.00462125
0.00510135
0.00596823
0.00724424
0.00877548
0.010277
0.0114413
0.0120422
0.0119937
0.0113585
0.010323
0.00916738
0.00820338
0.00765998
0.00754976
0.00764245
0.00779066
0.00789021
0.00786241
0.00773105
0.00749926
0.00715767
0.006692
0.00608383
0.00527208
0.00375909
0.00180711
0.00221607
0.00375683
0.00483254
0.00228744
0.00299344
0.00675789
0.00730293
0.00686602
0.00622378
0.00568387
0.0053249
0.00514987
0.00509902
0.00528649
0.00589717
0.00703017
0.00857349
0.0102294
0.0116318
0.0124746
0.0125969
0.0120046
0.010864
0.00946323
0.00819657
0.00738786
0.00703262
0.0069828
0.0070746
0.00720445
0.00729466
0.00727474
0.00714795
0.00691658
0.00656715
0.00608049
0.00543556
0.00455112
0.00307322
0.00178369
0.00241279
0.00391255
0.00499934
0.00223848
0.00300335
0.00670615
0.00746023
0.00694739
0.00642792
0.00600244
0.00569587
0.00549788
0.00549323
0.00594784
0.00702504
0.00862955
0.0104368
0.0120319
0.01305
0.0132763
0.0126854
0.0114108
0.00977344
0.0081928
0.00705256
0.00638241
0.00605567
0.00595593
0.00599244
0.00609044
0.00617999
0.00618082
0.00605399
0.00579734
0.00539201
0.00483074
0.00414232
0.00337839
0.00254447
0.00191062
0.00246724
0.00408217
0.00536061
0.0023706
0.00270956
0.00281948
0.0041653
0.00489767
0.00512533
0.00513054
0.00508278
0.0051818
0.00581701
0.00716169
0.00904452
0.0110682
0.0127924
0.0138555
0.0140478
0.0133302
0.0118746
0.00994928
0.00811537
0.0066884
0.00572861
0.00516089
0.00487276
0.00474729
0.00470946
0.00471794
0.00473429
0.00469107
0.00451373
0.0041921
0.00372617
0.00317858
0.00267698
0.00233354
0.0021734
0.00220161
0.00278808
0.00455703
0.00541916
0.00242679
0.000965258
0.00174075
0.00267077
0.00341602
0.00428261
0.00575817
0.00792219
0.0103114
0.0124709
0.0140703
0.0148914
0.014798
0.0138015
0.0120049
0.0098733
0.00785543
0.00625818
0.0051781
0.00456529
0.00423981
0.0040469
0.00390936
0.00379812
0.00370177
0.00360735
0.00348408
0.00328142
0.00299422
0.00266542
0.00239083
0.00226078
0.00229822
0.00248254
0.00283411
0.00353803
0.00533497
0.00579196
0.00245704
0.00178711
0.00247169
0.00359678
0.00560629
0.00833084
0.0110476
0.0131432
0.0146388
0.0155237
0.0157446
0.0151966
0.0137777
0.0117078
0.00939034
0.00728401
0.00570804
0.00476763
0.00428859
0.00403173
0.00386049
0.00372523
0.00361292
0.00352024
0.00344215
0.00336675
0.00327211
0.00313684
0.00297223
0.00281827
0.00273678
0.00277799
0.00294971
0.00323257
0.00363177
0.00422618
0.00528014
0.00599273
0.00238031
0.00323879
0.00785537
0.00724722
0.00649317
0.00824647
0.0109826
0.0132826
0.0148231
0.0156194
0.015796
0.0154499
0.014551
0.0130614
0.0110553
0.00883216
0.00683849
0.00546237
0.00472294
0.00434474
0.00410824
0.00392389
0.00377123
0.00365425
0.00358049
0.00355189
0.00356063
0.00358777
0.00360417
0.00358753
0.00356132
0.00355328
0.00359109
0.00369726
0.00387673
0.00411003
0.00436075
0.00458201
0.0046988
0.00461721
0.00231366
0.0030958
0.00598299
0.0077382
0.00989807
0.0109826
0.012099
0.0127448
0.0128933
0.012634
0.012029
0.0111028
0.0098728
0.00842291
0.00695471
0.0057445
0.00494626
0.00445739
0.00414544
0.00391166
0.00371397
0.00354733
0.00342288
0.00335549
0.00335631
0.00342747
0.00355805
0.0037213
0.00387374
0.00397026
0.00404125
0.00412195
0.00423586
0.00439646
0.00460839
0.00486879
0.00516647
0.00547123
0.00572372
0.00526276
0.00241123
0.00289486
0.00248011
0.00246702
0.00253754
0.00259495
0.00251343
0.00235818
0.0021776
0.001997
0.00182668
0.00167032
0.0015315
0.00141606
0.00133048
0.00127671
0.00124935
0.001242
0.00124346
0.00125079
0.00126434
0.00128512
0.00131347
0.00134843
0.00138788
0.0014293
0.00147057
0.00151055
0.00154939
0.0015883
0.00162776
0.00167049
0.00171937
0.00177652
0.00184305
0.00191849
0.00199963
0.00208105
0.00216674
0.00229209
0.00232166
)
;

boundaryField
{
    floor
    {
        type            compressible::alphatWallFunction;
        Prt             0.85;
        value           nonuniform List<scalar> 
36
(
0.000219916
0.000104491
0.000149973
0.000151183
0.000147588
0.000141539
0.000133397
0.000125219
0.000117631
0.000110744
0.000104529
9.89568e-05
9.39205e-05
8.93051e-05
8.49715e-05
8.07291e-05
7.62652e-05
7.25323e-05
6.4941e-05
6.49402e-05
8.41535e-05
9.63921e-05
0.000106484
0.000127224
0.000166169
0.000159815
0.000219914
0.000239738
0.000229126
0.000219777
0.00010449
0.000219774
0.000186257
0.000266727
0.000232697
0.000265712
)
;
    }
    ceiling
    {
        type            compressible::alphatWallFunction;
        Prt             0.85;
        value           nonuniform List<scalar> 
43
(
0.000391192
0.000338832
0.00033717
0.000346148
0.000353446
0.000343132
0.000323358
0.000300167
0.000276752
0.000254448
0.000233766
0.000215225
0.000199672
0.00018806
0.000180734
0.000177003
0.000176001
0.000176207
0.000177209
0.000179056
0.000181887
0.000185749
0.00019051
0.000195879
0.00020151
0.000207111
0.000212522
0.000217761
0.000222993
0.000228278
0.000233976
0.000240467
0.00024803
0.000256808
0.000266731
0.000277373
0.000288012
0.00029911
0.000315158
0.000319085
0.000368231
0.000382048
0.00024858
)
;
    }
    sWall
    {
        type            compressible::alphatWallFunction;
        Prt             0.85;
        value           nonuniform List<scalar> 9(0.000507619 0.000477898 0.000438209 0.000402242 0.00040347 0.000366656 0.00043208 0.0004144 0.000389441);
    }
    nWall
    {
        type            compressible::alphatWallFunction;
        Prt             0.85;
        value           nonuniform List<scalar> 
14
(
0.000159368
0.000189962
0.000221984
0.000327629
0.000323717
0.000313616
0.000307437
0.000324589
0.000331566
0.000335421
0.00032534
0.00031705
0.000330074
0.000318402
)
;
    }
    sideWalls
    {
        type            empty;
    }
    glass1
    {
        type            compressible::alphatWallFunction;
        Prt             0.85;
        value           nonuniform List<scalar> 9(0.000143928 0.000209135 0.000262692 0.000313301 0.000362374 0.000409996 0.000458002 0.000498858 0.000511227);
    }
    glass2
    {
        type            compressible::alphatWallFunction;
        Prt             0.85;
        value           nonuniform List<scalar> 2(0.000282382 0.000320166);
    }
    sun
    {
        type            compressible::alphatWallFunction;
        Prt             0.85;
        value           nonuniform List<scalar> 
14
(
0.000147962
0.000157643
0.000157082
0.000163748
0.000169829
0.000175332
0.000180438
0.000185346
0.000190273
0.000195494
0.000200462
0.000205169
0.000209795
0.000214756
)
;
    }
    Table_master
    {
        type            compressible::alphatWallFunction;
        Prt             0.85;
        value           nonuniform List<scalar> 9(0.000191111 0.000166941 0.000148006 0.000132985 0.000120882 0.000111007 0.000102874 9.6204e-05 9.09666e-05);
    }
    Table_slave
    {
        type            compressible::alphatWallFunction;
        Prt             0.85;
        value           nonuniform List<scalar> 9(0.000216397 0.000197646 0.000182992 0.000170698 0.000160134 0.000150574 0.000141493 0.000132406 0.00012251);
    }
    inlet
    {
        type            fixedValue;
        value           uniform 1.94e-05;
    }
    outlet
    {
        type            zeroGradient;
    }
}


// ************************************************************************* //
