/*--------------------------------*- C++ -*----------------------------------*\
  =========                 |
  \\      /  F ield         | OpenFOAM: The Open Source CFD Toolbox
   \\    /   O peration     | Website:  https://openfoam.org
    \\  /    A nd           | Version:  6
     \\/     M anipulation  |
\*---------------------------------------------------------------------------*/
FoamFile
{
    version     2.0;
    format      ascii;
    class       volScalarField;
    location    "18000";
    object      k;
}
// * * * * * * * * * * * * * * * * * * * * * * * * * * * * * * * * * * * * * //

dimensions      [0 2 -2 0 0 0 0];

internalField   nonuniform List<scalar> 
778
(
0.00158595
0.0018011
0.00178789
0.00194636
0.00209752
0.00223972
0.00237634
0.00251191
0.00265222
0.00280556
0.00295587
0.00310231
0.00325003
0.00341267
0.00358654
0.000792891
0.00162582
0.00165249
0.00157371
0.00144597
0.00128352
0.00113117
0.000999341
0.000887545
0.00079299
0.000713244
0.000645219
0.000586215
0.000533688
0.000484929
0.000436439
0.000398085
0.000326164
0.00340707
0.00643349
0.00268742
0.0027459
0.00288751
0.00305401
0.00323428
0.00342999
0.00364319
0.00387357
0.0041258
0.00437983
0.00459596
0.00470154
0.00459596
0.00429959
0.0039083
0.00358085
0.00253592
0.00281241
0.00295527
0.00289818
0.0026656
0.0022664
0.00190679
0.00161024
0.00137028
0.00117628
0.00101737
0.000885514
0.000774229
0.000681403
0.000615394
0.000574915
0.000864274
0.000524188
0.00549098
0.0127814
0.00347789
0.00321192
0.00329717
0.00345495
0.00363628
0.00384041
0.00407073
0.00432747
0.00463572
0.00501141
0.00545205
0.00596209
0.00653357
0.00686244
0.0062798
0.00538706
0.00403651
0.00416811
0.00417188
0.00397514
0.00357811
0.00266649
0.00201655
0.00157696
0.00127053
0.00105023
0.000887657
0.000765164
0.000672246
0.000603985
0.000551722
0.000548902
0.00116456
0.000678297
0.00797391
0.021759
0.00449115
0.00339053
0.00334123
0.00343777
0.00354914
0.00366862
0.00380886
0.00399126
0.00425925
0.00464897
0.00517229
0.00582697
0.00655697
0.00713689
0.00723005
0.00724419
0.0053429
0.00554907
0.00537451
0.00512409
0.00478603
0.0043479
0.00345602
0.0028596
0.00243679
0.00211088
0.0018515
0.00163298
0.00143949
0.00125939
0.00107843
0.000801266
0.000660206
0.00141912
0.000822342
0.0108769
0.0336351
0.00621283
0.00342478
0.003158
0.00316669
0.00318936
0.00320971
0.00325202
0.00336104
0.00359481
0.00398965
0.00455463
0.00527887
0.00608977
0.00682049
0.00728569
0.00764541
0.00751788
0.00665371
0.0060722
0.00557787
0.00509833
0.00462923
0.00412338
0.00366614
0.00327568
0.00293814
0.00263197
0.00234853
0.00207994
0.00181909
0.00155539
0.00122251
0.000931365
0.00118966
0.00121623
0.00116792
0.00200521
0.00185236
0.0141754
0.0475986
0.00928389
0.00348982
0.00290827
0.00282248
0.00276424
0.00269949
0.00266422
0.00273451
0.0029808
0.00341461
0.00402476
0.00480021
0.00565706
0.00646455
0.00707171
0.00740911
0.00732457
0.0067899
0.00621447
0.00563646
0.00507389
0.00455601
0.00409163
0.00369609
0.00336353
0.00307414
0.0028073
0.00255213
0.00229963
0.00204276
0.00177416
0.00147178
0.00117982
0.00111354
0.00111207
0.00169858
0.00503911
0.00265803
0.0179926
0.0606051
0.0143594
0.00381939
0.00271497
0.00252918
0.00241171
0.00229408
0.00222118
0.0023115
0.00263013
0.00313939
0.00380302
0.00463361
0.00553212
0.00637069
0.00700439
0.0073307
0.00725612
0.00681891
0.00621559
0.00555474
0.00491187
0.00434292
0.00387273
0.00350061
0.0032068
0.00296188
0.00274162
0.00252959
0.00231413
0.0020878
0.00184559
0.00158326
0.001329
0.00116282
0.00109394
0.00154466
0.00618348
0.00367702
0.0216414
0.0704802
0.0214348
0.00510215
0.00274268
0.00237172
0.00221018
0.00208216
0.00202666
0.00221966
0.0026497
0.00323095
0.00393803
0.00477667
0.00570232
0.00657733
0.00722731
0.00751709
0.00738681
0.00689805
0.00619932
0.00542751
0.00469178
0.00406459
0.00357442
0.00321225
0.00294725
0.00274061
0.00256409
0.00239606
0.00222261
0.00203602
0.00183262
0.0016136
0.00139954
0.0012362
0.00115939
0.00206818
0.0136694
0.0062193
0.0228336
0.0694945
0.0325315
0.0110553
0.004067
0.00258745
0.00223575
0.0021035
0.00219084
0.00251328
0.00300097
0.00360239
0.00433317
0.00521394
0.00618701
0.00708986
0.00771975
0.0079259
0.00766753
0.00702819
0.0061672
0.00524955
0.00440781
0.00372223
0.00321614
0.00286811
0.00263461
0.00246809
0.0023355
0.00221088
0.00207922
0.00193324
0.00177046
0.00159392
0.00142054
0.00130033
0.00135607
0.00380813
0.0260487
0.00812834
0.0219185
0.0516362
0.0336421
0.0174323
0.00858741
0.0047601
0.00326255
0.0027316
0.00285538
0.00321312
0.003674
0.00424717
0.00499528
0.00593751
0.00697285
0.0078865
0.00844184
0.00848571
0.00800681
0.00712737
0.00604396
0.00495519
0.00401134
0.00328989
0.0027968
0.00248739
0.00230082
0.00218278
0.00209481
0.00201009
0.00191504
0.00180395
0.00167589
0.00153546
0.00139968
0.00133495
0.00177959
0.00827296
0.0243147
0.008408
0.0192332
0.0394362
0.0302368
0.0195657
0.0121832
0.0079407
0.00571994
0.00467272
0.00436597
0.004403
0.00465458
0.00514538
0.00593221
0.00697491
0.0080806
0.00895722
0.00933978
0.00909768
0.00827765
0.00706566
0.00571465
0.00446049
0.00346063
0.00276728
0.00234713
0.00211383
0.00198945
0.0019217
0.00187176
0.00181793
0.00174996
0.00166384
0.00156016
0.00144655
0.00134892
0.00142563
0.00313386
0.00979428
0.0203207
0.00819553
0.0159483
0.0315837
0.0266487
0.0195385
0.013977
0.0102859
0.00802974
0.00675476
0.00605256
0.005734
0.00578422
0.00627169
0.00720012
0.0084014
0.00954726
0.0102673
0.0103039
0.0095963
0.00829373
0.00667233
0.00505786
0.0037198
0.00279112
0.00223396
0.00195472
0.00181437
0.00174483
0.00171066
0.00168328
0.00164804
0.00159729
0.00152751
0.00143972
0.00134702
0.00130145
0.00171532
0.00434315
0.0100917
0.0168458
0.00765986
0.0132638
0.0256638
0.0233446
0.0186875
0.0145832
0.0115887
0.00954483
0.00821141
0.0073022
0.00684239
0.00695759
0.00771037
0.00895574
0.01033
0.0113685
0.0116792
0.0110985
0.00970225
0.00779938
0.00576993
0.00402824
0.00283638
0.00219645
0.00186566
0.00170145
0.0016184
0.00157574
0.00155324
0.00153249
0.00150399
0.00146207
0.00140403
0.0013321
0.00126342
0.00127547
0.00182483
0.00445565
0.00977958
0.0163588
0.00734225
0.0133467
0.0224037
0.022048
0.0177551
0.0143899
0.0118928
0.0100838
0.00876921
0.00791995
0.00777618
0.00846719
0.00984385
0.0114776
0.0128082
0.0133436
0.01281
0.0112757
0.00899995
0.00653231
0.00431786
0.00296618
0.00222974
0.00186369
0.00167873
0.00157822
0.00151734
0.00147713
0.00144908
0.00142263
0.00139163
0.0013524
0.00130438
0.00125274
0.00121938
0.00128428
0.001779
0.00391181
0.00893339
0.0157015
0.00824308
0.0108738
0.011759
0.012921
0.0125516
0.0113741
0.0100748
0.00894713
0.00820549
0.00830816
0.00941659
0.011271
0.0133046
0.0148634
0.0154313
0.0147622
0.0128528
0.0101665
0.00704045
0.00465368
0.00314531
0.00235986
0.00197939
0.00178783
0.00167419
0.00159182
0.00152316
0.00146371
0.00141456
0.00137262
0.00133379
0.00129885
0.00127639
0.00128544
0.00135831
0.00155841
0.00209126
0.00380566
0.00905779
0.013872
0.00862531
0.0035466
0.0048282
0.00600148
0.00660618
0.00728387
0.00880594
0.0113212
0.0141271
0.0164977
0.0178827
0.017946
0.0166301
0.0141525
0.0106026
0.00733562
0.00484838
0.00334853
0.00259022
0.00224318
0.00207179
0.0019645
0.00187663
0.00179144
0.00170368
0.00161584
0.00153862
0.00148379
0.00145369
0.00146289
0.00153932
0.0017159
0.00201919
0.0024894
0.003277
0.00491697
0.0102311
0.0136474
0.00884166
0.00444422
0.00629256
0.00810934
0.0110256
0.0147087
0.0181578
0.0203766
0.0214001
0.0212727
0.0200064
0.0174577
0.0139923
0.0103695
0.00713138
0.00485977
0.00356783
0.00296132
0.00269598
0.00256384
0.0024769
0.00240551
0.00233916
0.00227189
0.0021994
0.00212204
0.00205058
0.00201041
0.00201916
0.0021062
0.00231254
0.00267974
0.00323955
0.00403039
0.00516443
0.00695791
0.0104861
0.0154292
0.0082846
0.0150799
0.0244492
0.0180782
0.0143836
0.0170132
0.0207266
0.0228671
0.0235644
0.0230847
0.0216975
0.0196399
0.0169773
0.0138139
0.0105274
0.00765155
0.00558255
0.00440856
0.00385451
0.00359078
0.00343202
0.00331309
0.00322004
0.00315365
0.00311408
0.00309566
0.00308728
0.00307825
0.00306962
0.00308408
0.00314979
0.00330039
0.00357826
0.00403121
0.00470632
0.00565087
0.00692932
0.00863761
0.0107952
0.0131378
0.00784237
0.0138114
0.0170519
0.0178808
0.0207816
0.0217132
0.0221328
0.0211375
0.0193249
0.0172015
0.0150122
0.0128541
0.0107773
0.00886843
0.00726693
0.00610257
0.00537903
0.00493164
0.00463644
0.00441484
0.00423657
0.00410156
0.00402187
0.00401034
0.00407359
0.00420773
0.00439618
0.00460985
0.00480958
0.00496429
0.00511839
0.00532598
0.00563454
0.00608748
0.00673122
0.00762556
0.00884974
0.0104833
0.0126083
0.0136236
0.00855
0.0121355
0.00890687
0.00881655
0.00933346
0.00977079
0.00918757
0.00810498
0.00692224
0.00582778
0.00487909
0.00408084
0.00343121
0.00293377
0.00259028
0.00238569
0.00228505
0.00225847
0.00226395
0.00229069
0.0023404
0.0024177
0.00252535
0.00266159
0.00281998
0.00299149
0.00316758
0.003343
0.00351782
0.00369733
0.0038838
0.00409062
0.00433364
0.00462682
0.00498059
0.00539811
0.00586685
0.00635743
0.00689261
0.00770873
0.0079183
)
;

boundaryField
{
    floor
    {
        type            kqRWallFunction;
        value           nonuniform List<scalar> 
36
(
0.00358654
0.000792891
0.00162582
0.00165249
0.00157371
0.00144597
0.00128352
0.00113117
0.000999341
0.000887545
0.00079299
0.000713244
0.000645219
0.000586215
0.000533688
0.000484929
0.000436439
0.000398085
0.000326164
0.000326164
0.000524188
0.000678297
0.000822342
0.00116792
0.00200521
0.00185236
0.00358654
0.00429959
0.0039083
0.00358085
0.000792891
0.00358085
0.00253592
0.00538706
0.00403651
0.0053429
)
;
    }
    ceiling
    {
        type            kqRWallFunction;
        value           nonuniform List<scalar> 
43
(
0.0121355
0.00890687
0.00881655
0.00933346
0.00977079
0.00918757
0.00810498
0.00692224
0.00582778
0.00487909
0.00408084
0.00343121
0.00293377
0.00259028
0.00238569
0.00228505
0.00225847
0.00226395
0.00229069
0.0023404
0.0024177
0.00252535
0.00266159
0.00281998
0.00299149
0.00316758
0.003343
0.00351782
0.00369733
0.0038838
0.00409062
0.00433364
0.00462682
0.00498059
0.00539811
0.00586685
0.00635743
0.00689261
0.00770873
0.0079183
0.0108738
0.011759
0.00444422
)
;
    }
    sWall
    {
        type            kqRWallFunction;
        value           nonuniform List<scalar> 9(0.0219185 0.0192332 0.0159483 0.0132638 0.0133467 0.0108738 0.0150799 0.0138114 0.0121355);
    }
    nWall
    {
        type            kqRWallFunction;
        value           nonuniform List<scalar> 
14
(
0.00185236
0.00265803
0.00367702
0.008408
0.00819553
0.00765986
0.00734225
0.00824308
0.00862531
0.00884166
0.0082846
0.00784237
0.00855
0.0079183
)
;
    }
    sideWalls
    {
        type            empty;
    }
    glass1
    {
        type            kqRWallFunction;
        value           nonuniform List<scalar> 9(0.00158595 0.00340707 0.00549098 0.00797391 0.0108769 0.0141754 0.0179926 0.0216414 0.0228336);
    }
    glass2
    {
        type            kqRWallFunction;
        value           nonuniform List<scalar> 2(0.0062193 0.00812834);
    }
    sun
    {
        type            kqRWallFunction;
        value           nonuniform List<scalar> 
14
(
0.00158595
0.0018011
0.00178789
0.00194636
0.00209752
0.00223972
0.00237634
0.00251191
0.00265222
0.00280556
0.00295587
0.00310231
0.00325003
0.00341267
)
;
    }
    Table_master
    {
        type            kqRWallFunction;
        value           nonuniform List<scalar> 9(0.00266649 0.00201655 0.00157696 0.00127053 0.00105023 0.000887657 0.000765164 0.000672246 0.000603985);
    }
    Table_slave
    {
        type            kqRWallFunction;
        value           nonuniform List<scalar> 9(0.00345602 0.0028596 0.00243679 0.00211088 0.0018515 0.00163298 0.00143949 0.00125939 0.00107843);
    }
    inlet
    {
        type            turbulentIntensityKineticEnergyInlet;
        intensity       0.05;
        value           uniform 0.0009375;
    }
    outlet
    {
        type            zeroGradient;
    }
}


// ************************************************************************* //
