/*--------------------------------*- C++ -*----------------------------------*\
  =========                 |
  \\      /  F ield         | OpenFOAM: The Open Source CFD Toolbox
   \\    /   O peration     | Website:  https://openfoam.org
    \\  /    A nd           | Version:  6
     \\/     M anipulation  |
\*---------------------------------------------------------------------------*/
FoamFile
{
    version     2.0;
    format      ascii;
    class       volScalarField;
    location    "26899.9999986278963";
    object      nut;
}
// * * * * * * * * * * * * * * * * * * * * * * * * * * * * * * * * * * * * * //

dimensions      [0 2 -1 0 0 0 0];

internalField   nonuniform List<scalar> 
778
(
0.000894297
0.000953054
0.000949597
0.000990826
0.00102861
0.00106294
0.00109489
0.00112569
0.0011567
0.00118964
0.00122105
0.00125086
0.00128022
0.00131178
0.00134472
0.00063236
0.000905114
0.000912403
0.000890291
0.000853346
0.000804038
0.000754911
0.000709632
0.00066879
0.000632159
0.000599519
0.000570204
0.000543504
0.000518585
0.000494336
0.000468981
0.000447941
0.000405493
0.00131076
0.00258106
0.002265
0.00261428
0.00286777
0.00313656
0.00340473
0.00365188
0.00385082
0.00396658
0.00403457
0.00400634
0.00380624
0.00331101
0.00241803
0.00147217
0.00140359
0.00134353
0.00113095
0.00192634
0.00266959
0.00310835
0.00312866
0.00246968
0.00211206
0.00186428
0.00167634
0.00152689
0.00139935
0.00128656
0.0011816
0.00107892
0.000986768
0.0009073
0.00102222
0.000514024
0.00166399
0.00360426
0.00267233
0.00382219
0.00427089
0.00465071
0.00499575
0.00529947
0.00555676
0.00575839
0.00595361
0.00615876
0.00634685
0.00645812
0.00638229
0.00584263
0.00427283
0.00164788
0.00142697
0.00305319
0.00426009
0.00483019
0.00439179
0.00115888
0.00100763
0.000891013
0.000799798
0.000727225
0.000668647
0.000620861
0.000581983
0.000551666
0.000606619
0.000713648
0.00113057
0.000584716
0.0020052
0.00485815
0.00255739
0.00429822
0.0049625
0.00531817
0.00557983
0.00577352
0.00591815
0.00603533
0.00620172
0.00648245
0.00689167
0.0074059
0.00792253
0.00817626
0.00767647
0.00572677
0.00164143
0.00380262
0.00565754
0.00659876
0.00682984
0.00582941
0.00131996
0.00120048
0.00110801
0.00103116
0.000965676
0.000906881
0.000851451
0.000796392
0.000736907
0.000688598
0.000714036
0.00122469
0.00064363
0.00234192
0.00643274
0.00258025
0.00408665
0.00510798
0.00541135
0.00552178
0.00552646
0.00547203
0.00542382
0.00549364
0.00576645
0.00626655
0.0069744
0.00779542
0.00855194
0.00903211
0.00902655
0.00810169
0.00824472
0.00843455
0.00846098
0.00828828
0.0077568
0.00617209
0.00533094
0.00475493
0.00428653
0.00382763
0.00338334
0.00294872
0.00251466
0.00206875
0.00158892
0.00121228
0.00121214
0.000958688
0.000767812
0.00102193
0.000973279
0.00267353
0.00819593
0.00303771
0.00344666
0.00489474
0.00523125
0.00520473
0.00501783
0.00475046
0.00452997
0.00452527
0.00481107
0.00538079
0.00620127
0.00716189
0.00812209
0.00894007
0.0094634
0.00955938
0.0094643
0.00929696
0.00905885
0.00875237
0.00836224
0.0077932
0.00724524
0.0067479
0.0062667
0.00574757
0.00519355
0.00460196
0.00396773
0.00328687
0.00256444
0.00190998
0.00143406
0.00111322
0.00125877
0.00219885
0.00116159
0.00301207
0.00982749
0.00404831
0.00282381
0.00439869
0.0049487
0.00488783
0.00458493
0.00414546
0.00375897
0.00374816
0.00410904
0.00476097
0.00567769
0.00672128
0.00775499
0.00864559
0.00928437
0.00957899
0.0095573
0.00934805
0.00903037
0.00866623
0.00830277
0.00795116
0.00762858
0.00732558
0.00700174
0.00661086
0.00614063
0.00558407
0.00493857
0.00420679
0.00340732
0.00262518
0.00189532
0.00139503
0.00125487
0.00223804
0.00137372
0.00330343
0.0110646
0.00552075
0.00268852
0.00348527
0.004388
0.00451351
0.0042642
0.00374556
0.00321892
0.00333875
0.00381606
0.00454497
0.00548948
0.00657293
0.00765474
0.00857842
0.0092211
0.00951386
0.00947693
0.00920671
0.00880741
0.00837762
0.00799628
0.00770223
0.00749214
0.00732828
0.00714978
0.00690142
0.00655391
0.0060936
0.0055179
0.00483268
0.00405834
0.0032523
0.00243325
0.00169566
0.00113843
0.00331655
0.0018191
0.00339323
0.0104834
0.00683684
0.00347633
0.00236231
0.00289688
0.0033899
0.00343082
0.00302967
0.00294484
0.00325102
0.00381207
0.00460002
0.00560161
0.0067371
0.00785208
0.00877214
0.00936474
0.00957348
0.00943126
0.00903906
0.00852433
0.00801354
0.00760592
0.00734712
0.00722011
0.00716263
0.00709414
0.00695144
0.00670048
0.00632779
0.00583216
0.00522045
0.00450918
0.0037273
0.00284557
0.00164244
0.00143185
0.00526655
0.00204265
0.00332458
0.00845811
0.00706627
0.00477507
0.00315165
0.00244016
0.0023122
0.00242178
0.00262524
0.00294955
0.00340927
0.00404048
0.00489747
0.00597778
0.00717557
0.0083064
0.0091779
0.00965764
0.00970735
0.00938462
0.00881712
0.00816439
0.00758197
0.00718285
0.00699984
0.00697861
0.00701867
0.00701817
0.00692612
0.00672318
0.00640299
0.00596559
0.00541514
0.00475569
0.00396519
0.00285634
0.00129355
0.00246179
0.00511526
0.00209295
0.00311437
0.00723169
0.00683541
0.00546773
0.00420555
0.00338453
0.00297897
0.00288769
0.00305631
0.00336625
0.00381554
0.00448157
0.0054284
0.00661391
0.00787371
0.00898081
0.00973083
0.0100079
0.00980873
0.00923267
0.00845249
0.00767231
0.00707964
0.00678171
0.00674722
0.00684574
0.00694559
0.00694726
0.00685037
0.00665395
0.00635428
0.00594801
0.00542943
0.00477034
0.00385202
0.00248163
0.0013894
0.00273898
0.00567632
0.00212156
0.00283614
0.00652189
0.00659603
0.00579064
0.00492378
0.00427185
0.00388824
0.00375081
0.00378588
0.0039729
0.00438474
0.0051287
0.00622453
0.00753951
0.00882761
0.00982354
0.0103331
0.0102845
0.00973493
0.0088461
0.00785868
0.00703413
0.00656576
0.00647107
0.00655441
0.00668738
0.00677395
0.00674983
0.00663683
0.006437
0.00614472
0.00574967
0.00521775
0.00444716
0.00319996
0.00181333
0.00165046
0.00325545
0.00568954
0.00219122
0.00258664
0.00583574
0.00630053
0.0059184
0.00536126
0.00489374
0.00458299
0.00443135
0.00438602
0.00454427
0.00506616
0.00603908
0.00736743
0.00879371
0.00999977
0.0107195
0.0108147
0.0102951
0.00931037
0.00810779
0.0070232
0.00632346
0.00601186
0.00597471
0.00607189
0.00620084
0.00628086
0.0062558
0.00613992
0.00593469
0.00563295
0.00520958
0.00457126
0.00347774
0.00204859
0.00152928
0.00211923
0.00358169
0.00539737
0.00208425
0.00259461
0.00579295
0.00643799
0.00599109
0.00553992
0.00517068
0.00490448
0.00473181
0.00472249
0.00510631
0.00602793
0.00740902
0.00897069
0.0103519
0.0112313
0.0114188
0.0108946
0.00978456
0.00837502
0.00701026
0.00601598
0.00542326
0.00514583
0.00509102
0.0051681
0.00528659
0.00536361
0.00533661
0.00520525
0.00497477
0.00464263
0.00418019
0.00348052
0.00244112
0.00161348
0.00170568
0.00253143
0.00366683
0.00448203
0.00198208
0.00234186
0.00243595
0.00359177
0.00421839
0.00441153
0.00441383
0.00437039
0.00444892
0.00498341
0.00612896
0.00774643
0.00949828
0.0110025
0.0119367
0.0121074
0.0114753
0.0101975
0.00852555
0.00692922
0.00567269
0.00482261
0.00433504
0.00411826
0.00406686
0.00409978
0.00414994
0.00415381
0.00406387
0.00386975
0.00359529
0.00326512
0.0028946
0.00246773
0.00198063
0.00166374
0.00190093
0.00272593
0.00379159
0.00472852
0.0019544
0.000806602
0.00146361
0.00226004
0.00290249
0.00364507
0.00489687
0.0067405
0.00879266
0.0106697
0.0120828
0.0128308
0.0127773
0.0119187
0.0103454
0.00846733
0.00668371
0.00526147
0.00430548
0.00377998
0.00352666
0.00340914
0.00335188
0.00331139
0.00325214
0.00314395
0.00297697
0.0027654
0.00254928
0.00236275
0.00222098
0.00211727
0.00204135
0.00203385
0.00226468
0.00296333
0.00417738
0.00510022
0.00211084
0.00149732
0.00207796
0.00303535
0.00474383
0.0070605
0.0093863
0.0111926
0.0125062
0.0133148
0.0135604
0.0131373
0.0119351
0.0101342
0.00807863
0.00617744
0.00474136
0.00388865
0.00347157
0.00328037
0.00319022
0.00314411
0.00311155
0.00306973
0.00300084
0.00289884
0.00277674
0.00266141
0.00257767
0.00253634
0.00253453
0.00256453
0.00262881
0.00275733
0.00302917
0.00362515
0.00507023
0.00551415
0.00217055
0.00275657
0.00667362
0.00613522
0.00548502
0.00697824
0.00931363
0.0112894
0.0126302
0.0133472
0.0135389
0.013292
0.0125641
0.0113033
0.00954867
0.0075269
0.00566369
0.00437846
0.00370239
0.00339782
0.00327027
0.00322894
0.0032326
0.00325496
0.00327409
0.0032735
0.00324728
0.00320307
0.00315776
0.00312659
0.00311847
0.00313555
0.00317763
0.00324862
0.00336481
0.00356361
0.0039136
0.00456149
0.00616934
0.00628147
0.00222907
0.00263857
0.00509931
0.00658011
0.00840612
0.0093412
0.0103112
0.0108811
0.0110257
0.0108243
0.0103349
0.00957973
0.00856192
0.00731818
0.00598425
0.00479223
0.003916
0.00339185
0.00311316
0.00298433
0.00295333
0.00299032
0.00307055
0.00316879
0.00326103
0.00333017
0.00337144
0.00339309
0.00340987
0.00343359
0.003468
0.00351336
0.00357149
0.00365219
0.00377725
0.00397802
0.00428523
0.00475417
0.00578156
0.0065989
0.00225829
0.00247431
0.00212022
0.00211009
0.00217208
0.00222373
0.00215926
0.0020328
0.0018855
0.00173841
0.00159861
0.00146664
0.00134297
0.00123245
0.00114473
0.00108945
0.00106499
0.00105914
0.00106527
0.00107882
0.00109657
0.00111617
0.00113597
0.00115501
0.00117302
0.00119032
0.00120773
0.00122639
0.00124749
0.00127222
0.00130197
0.00133884
0.00138628
0.00144912
0.00153253
0.0016397
0.00176991
0.0019192
0.00208177
0.00224476
0.00209325
)
;

boundaryField
{
    floor
    {
        type            nutkWallFunction;
        Cmu             0.09;
        kappa           0.41;
        E               9.8;
        value           nonuniform List<scalar> 
36
(
0.00016056
7.63812e-05
0.000109491
0.000110358
0.000107726
0.00010331
9.73821e-05
9.14327e-05
8.59086e-05
8.08896e-05
7.63567e-05
7.22909e-05
6.86163e-05
6.52491e-05
6.20883e-05
5.89943e-05
5.57389e-05
5.30207e-05
4.74864e-05
4.74863e-05
6.15073e-05
7.04374e-05
7.77787e-05
9.2998e-05
0.000123283
0.00011756
0.00016056
0.000174984
0.00016724
0.000160423
7.63812e-05
0.000160423
0.000136009
0.000194647
0.000169882
0.000193929
)
;
    }
    ceiling
    {
        type            nutkWallFunction;
        Cmu             0.09;
        kappa           0.41;
        E               9.8;
        value           nonuniform List<scalar> 
43
(
0.000284386
0.000246383
0.00024529
0.000251995
0.000257571
0.000250633
0.00023694
0.000220866
0.000204677
0.000189153
0.000174364
0.000160376
0.000147753
0.000137641
0.00013121
0.000128351
0.000127661
0.00012837
0.000129948
0.00013202
0.000134306
0.000136613
0.00013883
0.000140922
0.000142928
0.00014494
0.00014709
0.000149512
0.000152341
0.000155727
0.000159903
0.000165243
0.000172276
0.00018157
0.000193463
0.000207848
0.000224245
0.000241972
0.00025961
0.000243233
0.000270442
0.000280497
0.000177605
)
;
    }
    sWall
    {
        type            nutkWallFunction;
        Cmu             0.09;
        kappa           0.41;
        E               9.8;
        value           nonuniform List<scalar> 9(0.000373882 0.000352075 0.000322978 0.000296635 0.000297476 0.000270531 0.000314296 0.000301871 0.000284487);
    }
    nWall
    {
        type            nutkWallFunction;
        Cmu             0.09;
        kappa           0.41;
        E               9.8;
        value           nonuniform List<scalar> 
14
(
0.000117568
0.000139565
0.000163862
0.000243522
0.000246599
0.000253851
0.000242294
0.000231261
0.000228501
0.000245546
0.000251898
0.000258098
0.00026107
0.00024327
)
;
    }
    sideWalls
    {
        type            empty;
    }
    glass1
    {
        type            nutkWallFunction;
        Cmu             0.09;
        kappa           0.41;
        E               9.8;
        value           nonuniform List<scalar> 9(0.000108246 0.00015688 0.000196732 0.000234343 0.000270784 0.000306132 0.000341747 0.000372068 0.000381367);
    }
    glass2
    {
        type            nutkWallFunction;
        Cmu             0.09;
        kappa           0.41;
        E               9.8;
        value           nonuniform List<scalar> 2(0.000213703 0.000238148);
    }
    sun
    {
        type            nutkWallFunction;
        Cmu             0.09;
        kappa           0.41;
        E               9.8;
        value           nonuniform List<scalar> 
14
(
0.000108205
0.00011518
0.00011477
0.000119637
0.000124078
0.000128095
0.000131821
0.000135401
0.000138994
0.0001428
0.000146416
0.00014984
0.000153203
0.000156808
)
;
    }
    Table_master
    {
        type            nutkWallFunction;
        Cmu             0.09;
        kappa           0.41;
        E               9.8;
        value           nonuniform List<scalar> 9(0.000139237 0.000121608 0.000107809 9.68697e-05 8.80614e-05 8.08757e-05 7.49579e-05 7.01027e-05 6.62892e-05);
    }
    Table_slave
    {
        type            nutkWallFunction;
        Cmu             0.09;
        kappa           0.41;
        E               9.8;
        value           nonuniform List<scalar> 9(0.000157728 0.000144038 0.000133339 0.000124369 0.000116666 0.000109698 0.000103081 9.64583e-05 8.92423e-05);
    }
    inlet
    {
        type            calculated;
        value           uniform 0.000167705;
    }
    outlet
    {
        type            calculated;
        value           nonuniform List<scalar> 2(0.00275657 0.00667362);
    }
}


// ************************************************************************* //
