/*--------------------------------*- C++ -*----------------------------------*\
  =========                 |
  \\      /  F ield         | OpenFOAM: The Open Source CFD Toolbox
   \\    /   O peration     | Website:  https://openfoam.org
    \\  /    A nd           | Version:  6
     \\/     M anipulation  |
\*---------------------------------------------------------------------------*/
FoamFile
{
    version     2.0;
    format      ascii;
    class       volVectorField;
    location    "26899.9999986278963";
    object      U;
}
// * * * * * * * * * * * * * * * * * * * * * * * * * * * * * * * * * * * * * //

dimensions      [0 1 -1 0 0 0 0];

internalField   nonuniform List<vector> 
778
(
(0.0656009 0.079408 0)
(-0.155174 0.0157672 0)
(-0.164304 0.014628 0)
(-0.192426 0.0122778 0)
(-0.216868 0.0087263 0)
(-0.236931 0.00474315 0)
(-0.252059 0.000413492 0)
(-0.261826 -0.00437473 0)
(-0.265718 -0.00981958 0)
(-0.262733 -0.0162011 0)
(-0.250919 -0.0242749 0)
(-0.22621 -0.034892 0)
(-0.186085 -0.0504096 0)
(-0.14416 -0.075174 0)
(-0.150069 -0.108557 0)
(0.0546506 0.0354281 0)
(0.0157548 -0.0268505 0)
(0.0449205 -0.0232409 0)
(0.0692884 -0.0161382 0)
(0.0843128 -0.0103363 0)
(0.091498 -0.00641085 0)
(0.0943285 -0.00433948 0)
(0.0953703 -0.00331678 0)
(0.0958309 -0.00272804 0)
(0.0960028 -0.0023138 0)
(0.0958755 -0.00194914 0)
(0.0953465 -0.00150953 0)
(0.0940885 -0.000757332 0)
(0.0912443 0.000844379 0)
(0.0850466 0.00406371 0)
(0.0735216 0.00776149 0)
(0.0598997 0.0115913 0)
(-0.00799755 0.029967 0)
(0.258401 0.167392 0)
(-0.161233 0.048394 0)
(-0.141605 0.0459872 0)
(-0.174015 0.0416228 0)
(-0.199384 0.0356748 0)
(-0.220109 0.0291329 0)
(-0.236141 0.022057 0)
(-0.247392 0.0142214 0)
(-0.253563 0.00528379 0)
(-0.253872 -0.00516995 0)
(-0.247708 -0.0171011 0)
(-0.233994 -0.0308658 0)
(-0.214082 -0.0480845 0)
(-0.197503 -0.0699602 0)
(-0.19398 -0.0826409 0)
(-0.166362 -0.0425737 0)
(-0.10531 -0.0363943 0)
(-0.0983331 -0.0444713 0)
(0.109346 -0.0420682 0)
(0.0644802 -0.0411222 0)
(0.0718952 -0.032216 0)
(0.0858398 -0.0206595 0)
(0.0937012 -0.0104163 0)
(0.0959095 -0.00362618 0)
(0.0956631 -0.000205206 0)
(0.0952779 0.00123918 0)
(0.095245 0.00189295 0)
(0.0953279 0.0022713 0)
(0.0953357 0.00259431 0)
(0.0952355 0.00313445 0)
(0.0949442 0.00441177 0)
(0.0936871 0.00772236 0)
(0.0880895 0.016749 0)
(0.0743354 0.0253103 0)
(0.0630435 0.0328905 0)
(-0.0521355 0.0635285 0)
(0.429984 0.253953 0)
(-0.19423 0.0847622 0)
(-0.112778 0.0784427 0)
(-0.148248 0.0669679 0)
(-0.170685 0.0555107 0)
(-0.188783 0.0437332 0)
(-0.202622 0.0313428 0)
(-0.212314 0.0179974 0)
(-0.217661 0.00338025 0)
(-0.218012 -0.0126569 0)
(-0.212747 -0.0303516 0)
(-0.201634 -0.0499333 0)
(-0.185989 -0.0715855 0)
(-0.169453 -0.0932188 0)
(-0.151084 -0.104563 0)
(-0.12025 -0.0931428 0)
(-0.0795689 -0.0949393 0)
(-0.0715282 -0.107567 0)
(0.0920868 -0.0881637 0)
(0.0625464 -0.0657047 0)
(0.0743396 -0.0460494 0)
(0.0879522 -0.0291503 0)
(0.0947584 -0.0147994 0)
(0.0918186 -0.0119467 0)
(0.0875894 -0.00793495 0)
(0.0852248 -0.00579103 0)
(0.0845228 -0.00457115 0)
(0.0844928 -0.00380408 0)
(0.0847493 -0.00322717 0)
(0.0854048 -0.00259851 0)
(0.0871678 -0.00144014 0)
(0.0918511 0.00291644 0)
(0.0899923 0.0251032 0)
(0.0731619 0.0423256 0)
(0.0699801 0.0573515 0)
(-0.0903563 0.100781 0)
(0.578556 0.325837 0)
(-0.240101 0.121812 0)
(-0.0808311 0.109235 0)
(-0.121575 0.0898697 0)
(-0.139012 0.0740846 0)
(-0.153077 0.0586459 0)
(-0.163841 0.0427538 0)
(-0.171437 0.025798 0)
(-0.175645 0.00717417 0)
(-0.175705 -0.0135642 0)
(-0.171008 -0.036505 0)
(-0.161434 -0.0614833 0)
(-0.147564 -0.0873843 0)
(-0.130588 -0.110295 0)
(-0.109635 -0.123187 0)
(-0.0821653 -0.124524 0)
(-0.0525603 -0.12635 0)
(-0.0334234 -0.123138 0)
(0.0162891 -0.0567902 0)
(0.0607771 -0.0930286 0)
(0.0684186 -0.0791342 0)
(0.0790374 -0.0587357 0)
(0.0915319 -0.0394722 0)
(0.102879 -0.0208035 0)
(0.11562 -0.0131161 0)
(0.126736 -0.00876713 0)
(0.1323 -0.00558332 0)
(0.133267 -0.00309204 0)
(0.130741 -0.00087602 0)
(0.12528 0.00129164 0)
(0.11675 0.00367575 0)
(0.10438 0.00673652 0)
(0.0850988 0.0111734 0)
(0.0712166 0.0368673 0)
(0.0598876 0.0605455 0)
(0.0760812 0.0832062 0)
(-0.11846 0.136823 0)
(0.705745 0.383675 0)
(-0.287681 0.157006 0)
(-0.0476902 0.133795 0)
(-0.0962902 0.106939 0)
(-0.107743 0.0876176 0)
(-0.116781 0.0691921 0)
(-0.123576 0.0504565 0)
(-0.128241 0.030582 0)
(-0.130602 0.00870106 0)
(-0.129792 -0.015857 0)
(-0.125285 -0.0431186 0)
(-0.116653 -0.0727148 0)
(-0.103924 -0.102832 0)
(-0.0874492 -0.129067 0)
(-0.067495 -0.145752 0)
(-0.0441542 -0.152226 0)
(-0.0202941 -0.152335 0)
(0.000242667 -0.14369 0)
(0.0307667 -0.114973 0)
(0.0569256 -0.109327 0)
(0.0704924 -0.0923752 0)
(0.0806245 -0.0711702 0)
(0.090683 -0.0506952 0)
(0.100238 -0.0326549 0)
(0.109334 -0.0193089 0)
(0.116335 -0.00996017 0)
(0.119738 -0.00328462 0)
(0.119921 0.0019533 0)
(0.117503 0.00648699 0)
(0.11285 0.0108334 0)
(0.105983 0.0155068 0)
(0.0968282 0.02121 0)
(0.0848711 0.0292394 0)
(0.073259 0.0472844 0)
(0.0626446 0.0713249 0)
(0.0942147 0.0993193 0)
(0.0158533 0.137988 0)
(0.0952745 0.183061 0)
(0.141279 0.144324 0)
(-0.22065 0.202476 0)
(0.810465 0.431966 0)
(-0.331326 0.190672 0)
(-0.0173033 0.150263 0)
(-0.0733637 0.117545 0)
(-0.0785893 0.0955417 0)
(-0.0822177 0.0749734 0)
(-0.0844808 0.0543615 0)
(-0.0855271 0.0327225 0)
(-0.085279 0.00884408 0)
(-0.0826079 -0.0184443 0)
(-0.0774374 -0.0490655 0)
(-0.0688012 -0.0825304 0)
(-0.0567913 -0.116508 0)
(-0.0417155 -0.146282 0)
(-0.0247009 -0.165963 0)
(-0.0062982 -0.174456 0)
(0.0120977 -0.172705 0)
(0.0280089 -0.160962 0)
(0.0461611 -0.13928 0)
(0.0625913 -0.122296 0)
(0.073241 -0.102423 0)
(0.0809017 -0.0803451 0)
(0.0876436 -0.0589821 0)
(0.0938086 -0.0401031 0)
(0.0991212 -0.0249468 0)
(0.102789 -0.0136193 0)
(0.104375 -0.00495859 0)
(0.103937 0.00220269 0)
(0.101784 0.00864402 0)
(0.0981625 0.0148903 0)
(0.0932232 0.0214765 0)
(0.0871849 0.0290434 0)
(0.0802882 0.0385093 0)
(0.074449 0.0530209 0)
(0.0689992 0.0730903 0)
(0.0908903 0.0987728 0)
(0.0722564 0.107209 0)
(0.0887946 0.0470337 0)
(0.146459 -0.0380245 0)
(-0.329738 0.107839 0)
(0.879958 0.474673 0)
(-0.368655 0.220951 0)
(0.00374423 0.155572 0)
(-0.0526545 0.121598 0)
(-0.0522009 0.0978894 0)
(-0.0510295 0.0758604 0)
(-0.0490371 0.0540753 0)
(-0.0465335 0.0315509 0)
(-0.0433622 0.00676936 0)
(-0.0374152 -0.0223216 0)
(-0.0303453 -0.0554036 0)
(-0.0205557 -0.0919714 0)
(-0.00872776 -0.128907 0)
(0.00451696 -0.161231 0)
(0.0176231 -0.181864 0)
(0.0304441 -0.190183 0)
(0.0422703 -0.187181 0)
(0.0525751 -0.174358 0)
(0.062528 -0.153992 0)
(0.0710767 -0.132322 0)
(0.0765701 -0.109281 0)
(0.0799984 -0.0857524 0)
(0.0825638 -0.0635528 0)
(0.0847667 -0.0440449 0)
(0.0865643 -0.0279587 0)
(0.087625 -0.0151972 0)
(0.0877334 -0.00497544 0)
(0.086744 0.00363265 0)
(0.084853 0.0113162 0)
(0.0822049 0.0186091 0)
(0.0789699 0.0260261 0)
(0.0754138 0.0340881 0)
(0.0719111 0.0433716 0)
(0.0697887 0.0551842 0)
(0.0683249 0.0698919 0)
(0.0809324 0.0891122 0)
(0.0832392 0.0921338 0)
(0.0879407 0.053433 0)
(0.18156 0.023418 0)
(-0.2836 0.1548 0)
(0.928023 0.517124 0)
(-0.383187 0.234154 0)
(0.0169345 0.132991 0)
(-0.0273146 0.11669 0)
(-0.026539 0.0949676 0)
(-0.0227421 0.0724784 0)
(-0.0176464 0.0501491 0)
(-0.0123891 0.0272829 0)
(-0.00546758 0.00189127 0)
(0.00450896 -0.0307524 0)
(0.0142161 -0.0653609 0)
(0.0255196 -0.103374 0)
(0.0371864 -0.140893 0)
(0.0479053 -0.172159 0)
(0.0570457 -0.192335 0)
(0.0645766 -0.199797 0)
(0.0703206 -0.195347 0)
(0.0742775 -0.181124 0)
(0.076961 -0.160011 0)
(0.0782918 -0.135989 0)
(0.0778934 -0.110945 0)
(0.0763446 -0.0863872 0)
(0.074476 -0.0637961 0)
(0.0728123 -0.0441823 0)
(0.0714931 -0.0279338 0)
(0.0703896 -0.0147717 0)
(0.0693159 -0.00399422 0)
(0.0679856 0.00518384 0)
(0.0665234 0.0133526 0)
(0.0649021 0.0210136 0)
(0.0632015 0.0286156 0)
(0.0615992 0.0365439 0)
(0.0603699 0.0451336 0)
(0.0603184 0.054909 0)
(0.0611422 0.0658724 0)
(0.0692907 0.0795449 0)
(0.0776397 0.0827922 0)
(0.0754855 0.0602269 0)
(0.240348 0.0495036 0)
(-0.552395 0.230452 0)
(1.01137 0.506777 0)
(-0.137278 0.296312 0)
(0.0410964 0.161505 0)
(0.0406012 0.1221 0)
(0.0130874 0.0920104 0)
(0.00866942 0.0654153 0)
(0.0140799 0.0414423 0)
(0.0206867 0.0170214 0)
(0.0324689 -0.0109983 0)
(0.043916 -0.0421526 0)
(0.0557749 -0.0769435 0)
(0.0680569 -0.114696 0)
(0.0792211 -0.151171 0)
(0.087765 -0.180629 0)
(0.0930329 -0.198635 0)
(0.095124 -0.203767 0)
(0.094439 -0.197079 0)
(0.091523 -0.180996 0)
(0.0870537 -0.158564 0)
(0.0814853 -0.133099 0)
(0.0751141 -0.107028 0)
(0.0685394 -0.0821764 0)
(0.0624827 -0.059909 0)
(0.0574635 -0.0409637 0)
(0.0536768 -0.0254425 0)
(0.0510316 -0.0128579 0)
(0.0492725 -0.00243245 0)
(0.0480047 0.00653618 0)
(0.0472193 0.0145596 0)
(0.0466916 0.0220983 0)
(0.0463774 0.0295171 0)
(0.046329 0.0370826 0)
(0.0466678 0.044982 0)
(0.047781 0.0534219 0)
(0.0494531 0.0622831 0)
(0.0544948 0.0722002 0)
(0.0608604 0.0733063 0)
(0.0483864 0.0453388 0)
(0.291859 0.0690775 0)
(-0.790145 0.30212 0)
(0.779371 0.395667 0)
(0.000760412 0.319452 0)
(0.0933719 0.218882 0)
(0.110595 0.155149 0)
(0.077158 0.106819 0)
(0.0597849 0.0675638 0)
(0.0582018 0.0357948 0)
(0.0623577 0.00644905 0)
(0.0737626 -0.0234089 0)
(0.0853178 -0.055044 0)
(0.0975043 -0.089797 0)
(0.109376 -0.12635 0)
(0.118776 -0.160162 0)
(0.123922 -0.185882 0)
(0.124201 -0.199932 0)
(0.12003 -0.201482 0)
(0.112351 -0.191906 0)
(0.102236 -0.173761 0)
(0.0907248 -0.150081 0)
(0.0786599 -0.123897 0)
(0.0667316 -0.0977411 0)
(0.0556674 -0.0735286 0)
(0.0461909 -0.0525242 0)
(0.0387733 -0.0351865 0)
(0.0335258 -0.0213286 0)
(0.0302316 -0.0101865 0)
(0.0284486 -0.000846789 0)
(0.0277208 0.00732879 0)
(0.0277903 0.0147979 0)
(0.0283264 0.0219493 0)
(0.0292051 0.029042 0)
(0.0303776 0.0362461 0)
(0.031816 0.0436876 0)
(0.0335448 0.0515223 0)
(0.034959 0.0598794 0)
(0.0358694 0.069694 0)
(0.0245105 0.0771358 0)
(0.0127927 0.0976336 0)
(0.0725869 0.165669 0)
(-0.66505 0.28554 0)
(0.617293 0.220795 0)
(0.0045831 0.298078 0)
(0.113012 0.241506 0)
(0.148291 0.177512 0)
(0.130858 0.123478 0)
(0.117838 0.0778252 0)
(0.11497 0.038903 0)
(0.117122 0.00342276 0)
(0.123465 -0.0306891 0)
(0.131673 -0.0650014 0)
(0.141352 -0.100544 0)
(0.15024 -0.13548 0)
(0.155396 -0.165404 0)
(0.154886 -0.185961 0)
(0.148386 -0.194834 0)
(0.136787 -0.192053 0)
(0.121554 -0.179377 0)
(0.104188 -0.159386 0)
(0.0860624 -0.134996 0)
(0.0682795 -0.10899 0)
(0.0517832 -0.0838407 0)
(0.037431 -0.0614073 0)
(0.0259635 -0.0428085 0)
(0.017664 -0.0281171 0)
(0.0123481 -0.016781 0)
(0.00941121 -0.00767197 0)
(0.00814769 0.00017973 0)
(0.00821447 0.00730528 0)
(0.00907393 0.0140774 0)
(0.0104785 0.020758 0)
(0.0122917 0.0274971 0)
(0.0144153 0.0344016 0)
(0.016743 0.0415942 0)
(0.0191958 0.049326 0)
(0.0214585 0.058228 0)
(0.023257 0.0707023 0)
(0.00998108 0.0914042 0)
(-0.00869228 0.133903 0)
(0.183501 0.179108 0)
(-0.564495 0.196857 0)
(0.570776 0.118468 0)
(-0.0203824 0.258586 0)
(0.113708 0.229836 0)
(0.165065 0.176005 0)
(0.16674 0.126147 0)
(0.164407 0.0810928 0)
(0.165385 0.039998 0)
(0.16827 0.00167535 0)
(0.172207 -0.035341 0)
(0.177757 -0.0718873 0)
(0.183916 -0.107614 0)
(0.187613 -0.139742 0)
(0.185828 -0.164366 0)
(0.177175 -0.178646 0)
(0.162097 -0.181779 0)
(0.142129 -0.174664 0)
(0.119213 -0.159351 0)
(0.0951039 -0.138289 0)
(0.0714006 -0.114199 0)
(0.0493196 -0.0895637 0)
(0.0300212 -0.0667636 0)
(0.0144593 -0.0475183 0)
(0.00324533 -0.032636 0)
(-0.00401497 -0.0213667 0)
(-0.00797639 -0.013019 0)
(-0.00994113 -0.00599069 0)
(-0.0105065 0.000407294 0)
(-0.00992257 0.00651716 0)
(-0.00858125 0.0125805 0)
(-0.0066249 0.0187399 0)
(-0.0041872 0.0250836 0)
(-0.00140559 0.0316966 0)
(0.00159317 0.0387641 0)
(0.00472594 0.0464497 0)
(0.00812622 0.0556335 0)
(0.0108279 0.0709972 0)
(-0.0017225 0.100664 0)
(-0.0222391 0.138155 0)
(0.221582 0.181274 0)
(-0.489848 0.192367 0)
(0.628362 0.0537906 0)
(0.00904367 0.197287 0)
(0.113803 0.196878 0)
(0.175146 0.157857 0)
(0.191426 0.11764 0)
(0.198097 0.0772686 0)
(0.203419 0.0373148 0)
(0.208591 -0.00143234 0)
(0.213049 -0.0395767 0)
(0.217321 -0.0764797 0)
(0.21912 -0.109974 0)
(0.215282 -0.136876 0)
(0.203912 -0.154548 0)
(0.185091 -0.161975 0)
(0.160438 -0.159713 0)
(0.132123 -0.149178 0)
(0.102406 -0.132463 0)
(0.0730054 -0.111666 0)
(0.0457094 -0.0893187 0)
(0.0216669 -0.0675691 0)
(0.00243438 -0.048753 0)
(-0.0112099 -0.0343468 0)
(-0.0193387 -0.0244882 0)
(-0.0241088 -0.0170035 0)
(-0.0266971 -0.0108052 0)
(-0.0279072 -0.00519839 0)
(-0.0280327 0.000127325 0)
(-0.0272134 0.0053804 0)
(-0.0256137 0.0107399 0)
(-0.0233318 0.0163362 0)
(-0.0205251 0.0222728 0)
(-0.0174201 0.0286658 0)
(-0.0143364 0.035701 0)
(-0.0115513 0.0436966 0)
(-0.00947665 0.0543046 0)
(-0.0129139 0.0754014 0)
(-0.0302467 0.106903 0)
(-0.0316716 0.129512 0)
(0.14668 0.178888 0)
(-0.515201 0.218521 0)
(0.473072 0.0748529 0)
(-0.132237 0.137504 0)
(0.0942625 0.133152 0)
(0.172779 0.116666 0)
(0.20392 0.0952588 0)
(0.21822 0.0643819 0)
(0.228183 0.0284488 0)
(0.237199 -0.00884162 0)
(0.243522 -0.0451814 0)
(0.244987 -0.0781762 0)
(0.238979 -0.105139 0)
(0.224131 -0.123973 0)
(0.200954 -0.133789 0)
(0.171363 -0.135022 0)
(0.137957 -0.128933 0)
(0.103051 -0.116811 0)
(0.0690011 -0.100541 0)
(0.0370101 -0.0817421 0)
(0.0094992 -0.0629301 0)
(-0.0129861 -0.0458815 0)
(-0.0270684 -0.034205 0)
(-0.0357749 -0.0259222 0)
(-0.0408638 -0.0196226 0)
(-0.0438972 -0.0142381 0)
(-0.045606 -0.00937981 0)
(-0.046334 -0.0048115 0)
(-0.0461776 -0.000388412 0)
(-0.0451629 0.00404281 0)
(-0.0433575 0.00866142 0)
(-0.0408131 0.0136631 0)
(-0.0377233 0.0192367 0)
(-0.0344278 0.0256199 0)
(-0.0315452 0.0332162 0)
(-0.029893 0.042945 0)
(-0.0304169 0.0580302 0)
(-0.0388909 0.085956 0)
(-0.0622371 0.123299 0)
(-0.0616213 0.148156 0)
(-0.0279757 0.174239 0)
(-0.550333 0.178251 0)
(0.72423 0.134532 0)
(0.0818463 0.115272 0)
(0.149784 0.0990744 0)
(0.222478 0.0802887 0)
(0.244186 0.0697907 0)
(0.248997 0.0476536 0)
(0.255251 0.0176589 0)
(0.261308 -0.0145159 0)
(0.260282 -0.0445266 0)
(0.249746 -0.0694241 0)
(0.229446 -0.0874645 0)
(0.200943 -0.0981404 0)
(0.166611 -0.101724 0)
(0.129023 -0.0992241 0)
(0.0907287 -0.0919268 0)
(0.053224 -0.0805332 0)
(0.0193306 -0.066732 0)
(-0.0113832 -0.0516417 0)
(-0.0329565 -0.0398319 0)
(-0.0472455 -0.0313577 0)
(-0.0558141 -0.0255132 0)
(-0.0610355 -0.0207823 0)
(-0.0642927 -0.0165069 0)
(-0.0663634 -0.0124046 0)
(-0.0675517 -0.00848627 0)
(-0.0679539 -0.00475687 0)
(-0.0675708 -0.0011509 0)
(-0.0663371 0.00247578 0)
(-0.0643433 0.00632751 0)
(-0.0615365 0.010686 0)
(-0.0580766 0.0158689 0)
(-0.0542581 0.0223024 0)
(-0.0506858 0.0307206 0)
(-0.048038 0.0426426 0)
(-0.0456516 0.0614987 0)
(-0.0452586 0.0933413 0)
(-0.0571749 0.13939 0)
(-0.0445078 0.18137 0)
(0.011797 0.171469 0)
(-0.565374 0.0426487 0)
(0.192166 0.087834 0)
(0.225926 0.0995256 0)
(0.246693 0.0699942 0)
(0.242744 0.0398715 0)
(0.239861 0.0123726 0)
(0.23486 -0.0125541 0)
(0.22014 -0.0330337 0)
(0.19639 -0.04823 0)
(0.165917 -0.0580932 0)
(0.131171 -0.0630667 0)
(0.0939634 -0.063441 0)
(0.0563511 -0.0600098 0)
(0.0203827 -0.0537099 0)
(-0.0145161 -0.0447769 0)
(-0.041065 -0.0365248 0)
(-0.0606975 -0.0299356 0)
(-0.073516 -0.0256985 0)
(-0.0815892 -0.0226661 0)
(-0.0867449 -0.0200179 0)
(-0.0903126 -0.0171344 0)
(-0.0928862 -0.0140134 0)
(-0.0946995 -0.0108287 0)
(-0.0958199 -0.00775294 0)
(-0.0962548 -0.00485179 0)
(-0.0959776 -0.00207078 0)
(-0.0948654 0.000750379 0)
(-0.0930178 0.00381809 0)
(-0.0902182 0.0074219 0)
(-0.0863994 0.0119713 0)
(-0.0815017 0.0180024 0)
(-0.0756262 0.0263588 0)
(-0.068797 0.0385617 0)
(-0.0594495 0.0573884 0)
(-0.0451348 0.0871201 0)
(-0.032702 0.131632 0)
(-0.0171001 0.187872 0)
(0.136584 0.180881 0)
(-0.422973 0.0500451 0)
(0.45139 0.20923 0)
(0.206532 0.178439 0)
(0.152854 0.118639 0)
(0.139742 0.0640686 0)
(0.128419 0.0260731 0)
(0.11432 0.00206002 0)
(0.099017 -0.012624 0)
(0.0778692 -0.021685 0)
(0.0529061 -0.027215 0)
(0.0253255 -0.0296344 0)
(-0.00512571 -0.0288966 0)
(-0.0345397 -0.0261885 0)
(-0.0604068 -0.022995 0)
(-0.0815379 -0.0205276 0)
(-0.0965543 -0.0196763 0)
(-0.106538 -0.019567 0)
(-0.113036 -0.0194719 0)
(-0.117744 -0.0184844 0)
(-0.121594 -0.0164572 0)
(-0.124925 -0.0136172 0)
(-0.127758 -0.0103659 0)
(-0.130026 -0.00710009 0)
(-0.131667 -0.00413255 0)
(-0.132657 -0.00163764 0)
(-0.132987 0.000369886 0)
(-0.132566 0.00203333 0)
(-0.131253 0.00360311 0)
(-0.12879 0.00544205 0)
(-0.124745 0.00793565 0)
(-0.118624 0.0116193 0)
(-0.109971 0.0173815 0)
(-0.0982018 0.0266834 0)
(-0.0816409 0.0416898 0)
(-0.0572674 0.0650717 0)
(-0.0264556 0.099415 0)
(0.000948305 0.148824 0)
(0.176473 0.152126 0)
(-0.374095 0.105754 0)
(0.360344 -0.414949 0)
(-0.345449 -0.512081 0)
(-0.218122 -0.0280333 0)
(-0.092895 0.11073 0)
(-0.0535495 0.0925756 0)
(-0.0311705 0.0547605 0)
(-0.0263141 0.028745 0)
(-0.031334 0.0121399 0)
(-0.0403597 0.0014947 0)
(-0.0511215 -0.00537678 0)
(-0.0650899 -0.00950061 0)
(-0.0808791 -0.0117504 0)
(-0.0973023 -0.0134008 0)
(-0.112832 -0.0157666 0)
(-0.126267 -0.0187386 0)
(-0.136261 -0.0218555 0)
(-0.142536 -0.024704 0)
(-0.146528 -0.0266539 0)
(-0.149797 -0.0276716 0)
(-0.153199 -0.0278927 0)
(-0.156898 -0.0275245 0)
(-0.160744 -0.0267446 0)
(-0.164509 -0.0256744 0)
(-0.167957 -0.0243477 0)
(-0.170851 -0.0227266 0)
(-0.172985 -0.0207657 0)
(-0.174225 -0.0184814 0)
(-0.174525 -0.015964 0)
(-0.173822 -0.0133 0)
(-0.171993 -0.0104877 0)
(-0.168504 -0.00734032 0)
(-0.162517 -0.00343962 0)
(-0.152973 0.00200483 0)
(-0.138633 0.01019 0)
(-0.117667 0.022249 0)
(-0.087579 0.0385502 0)
(-0.0477776 0.0595865 0)
(-0.00526875 0.0935376 0)
(0.195491 0.125165 0)
(-0.409638 0.168287 0)
(0.123321 -0.185342 0)
(-0.387768 -0.297556 0)
(-0.342937 -0.096645 0)
(-0.264732 0.0511766 0)
(-0.211065 0.0832798 0)
(-0.178922 0.0744486 0)
(-0.162601 0.061092 0)
(-0.156536 0.0512674 0)
(-0.156536 0.0462378 0)
(-0.159765 0.0457515 0)
(-0.164331 0.0489393 0)
(-0.168661 0.0545509 0)
(-0.171875 0.0611308 0)
(-0.173815 0.0666172 0)
(-0.174898 0.0680369 0)
(-0.176122 0.0641963 0)
(-0.17819 0.0590931 0)
(-0.181364 0.0556674 0)
(-0.185389 0.0546638 0)
(-0.189809 0.0555783 0)
(-0.194163 0.0576291 0)
(-0.198104 0.0600848 0)
(-0.201425 0.0622776 0)
(-0.204045 0.0636201 0)
(-0.205949 0.0637025 0)
(-0.207133 0.062417 0)
(-0.207572 0.0599779 0)
(-0.207254 0.0567397 0)
(-0.20617 0.0528849 0)
(-0.204222 0.0481898 0)
(-0.201082 0.0422852 0)
(-0.19612 0.0348466 0)
(-0.188492 0.0258781 0)
(-0.17741 0.0157807 0)
(-0.162195 0.00466086 0)
(-0.141361 -0.00862096 0)
(-0.110752 -0.0231276 0)
(-0.0608894 -0.0232157 0)
(0.198733 0.0630146 0)
(-0.486278 0.226104 0)
(1.14805 -0.0107922 0)
(-0.296134 -0.322458 0)
(-0.352852 -0.23247 0)
(-0.352494 -0.148178 0)
(-0.328925 -0.10695 0)
(-0.297372 -0.0983389 0)
(-0.270073 -0.100384 0)
(-0.250049 -0.10579 0)
(-0.236256 -0.112937 0)
(-0.226588 -0.121853 0)
(-0.219242 -0.133088 0)
(-0.213157 -0.147077 0)
(-0.208054 -0.163194 0)
(-0.204289 -0.178962 0)
(-0.202772 -0.190101 0)
(-0.204614 -0.194116 0)
(-0.210021 -0.193422 0)
(-0.217703 -0.190035 0)
(-0.226047 -0.18565 0)
(-0.233832 -0.181297 0)
(-0.240359 -0.177403 0)
(-0.245316 -0.173985 0)
(-0.248669 -0.170838 0)
(-0.250607 -0.167678 0)
(-0.251501 -0.164232 0)
(-0.25181 -0.160296 0)
(-0.251941 -0.155762 0)
(-0.252151 -0.150615 0)
(-0.252633 -0.1449 0)
(-0.253719 -0.1387 0)
(-0.255953 -0.131996 0)
(-0.260008 -0.124403 0)
(-0.266648 -0.114801 0)
(-0.276745 -0.101046 0)
(-0.290622 -0.080288 0)
(-0.305234 -0.0499583 0)
(-0.309362 -0.0080784 0)
(-0.289089 0.048986 0)
(-0.277122 0.124737 0)
(-0.621879 0.221565 0)
)
;

boundaryField
{
    floor
    {
        type            noSlip;
    }
    ceiling
    {
        type            noSlip;
    }
    sWall
    {
        type            noSlip;
    }
    nWall
    {
        type            noSlip;
    }
    sideWalls
    {
        type            empty;
    }
    glass1
    {
        type            noSlip;
    }
    glass2
    {
        type            noSlip;
    }
    sun
    {
        type            noSlip;
    }
    Table_master
    {
        type            noSlip;
    }
    Table_slave
    {
        type            noSlip;
    }
    inlet
    {
        type            fixedValue;
        value           uniform (0.5 0 0);
    }
    outlet
    {
        type            zeroGradient;
    }
}


// ************************************************************************* //
