/*--------------------------------*- C++ -*----------------------------------*\
  =========                 |
  \\      /  F ield         | OpenFOAM: The Open Source CFD Toolbox
   \\    /   O peration     | Website:  https://openfoam.org
    \\  /    A nd           | Version:  6
     \\/     M anipulation  |
\*---------------------------------------------------------------------------*/
FoamFile
{
    version     2.0;
    format      ascii;
    class       volScalarField;
    location    "30399.9999980676475";
    object      epsilon;
}
// * * * * * * * * * * * * * * * * * * * * * * * * * * * * * * * * * * * * * //

dimensions      [0 2 -3 0 0 0 0];

internalField   nonuniform List<scalar> 
778
(
0.000253134
0.000306356
0.000302988
0.000344144
0.000384993
0.000424788
0.000464224
0.000504493
0.000547332
0.00059546
0.000643936
0.00069237
0.000742408
0.00079884
0.000860682
8.94559e-05
0.000262804
0.000269283
0.000250246
0.000220388
0.000184294
0.000152466
0.000126608
0.000105973
8.95021e-05
7.63479e-05
6.56906e-05
5.68884e-05
4.94154e-05
4.27998e-05
3.6543e-05
3.18328e-05
2.36082e-05
0.000797046
0.00144327
0.000286976
0.000259559
0.000261653
0.000267623
0.000276519
0.000289952
0.000310212
0.00034043
0.000379677
0.000430851
0.000499321
0.000600643
0.000785943
0.00112982
0.000979135
0.000858726
0.000511959
0.000369609
0.000294404
0.000243097
0.000204266
0.000187116
0.000154841
0.000125087
0.000100746
8.15185e-05
6.6547e-05
5.48391e-05
4.56469e-05
3.87231e-05
3.45344e-05
3.27817e-05
6.57957e-05
4.81086e-05
0.00163076
0.00407939
0.000407404
0.000242899
0.000229072
0.000230987
0.000238207
0.000250481
0.000268394
0.00029268
0.000324833
0.000366944
0.000421397
0.000495192
0.000601676
0.000725012
0.000830128
0.00158466
0.00102771
0.000512383
0.000367831
0.000294439
0.000262288
0.000552069
0.000363074
0.000251058
0.00018154
0.00013642
0.000105997
8.48295e-05
6.98571e-05
5.94928e-05
4.51595e-05
3.80052e-05
0.000108095
7.08294e-05
0.00285381
0.00877115
0.000709958
0.000240704
0.000202451
0.000199989
0.000203168
0.000209802
0.000220627
0.000237556
0.000263267
0.000300052
0.000349327
0.000412536
0.00048828
0.000560485
0.000612589
0.000824494
0.00156486
0.000728879
0.000459758
0.000358276
0.000301907
0.000291829
0.000814375
0.000612992
0.000482222
0.000388781
0.00031936
0.000264516
0.000218918
0.000179147
0.000141961
8.39012e-05
5.49684e-05
0.000148358
9.45832e-05
0.00454651
0.0158285
0.00134655
0.000258339
0.00017571
0.00016677
0.000165786
0.00016777
0.00017394
0.000187453
0.000211711
0.000248427
0.000297907
0.000359532
0.000428061
0.000489454
0.000528779
0.000582599
0.000627575
0.000483202
0.000393465
0.000330999
0.000282277
0.000248626
0.000247854
0.000226808
0.000202972
0.000181089
0.000162708
0.000146547
0.000131878
0.000118283
0.000105119
8.45461e-05
6.43049e-05
0.00010514
0.000138849
0.000160094
0.000358967
0.000320554
0.00676437
0.0248795
0.00255385
0.000318097
0.000155522
0.000137048
0.000132117
0.000130693
0.000134466
0.000148555
0.00017671
0.000218106
0.000270897
0.000334313
0.000402008
0.000462929
0.000503268
0.000521895
0.000504936
0.000438333
0.000373853
0.000315657
0.00026475
0.000223405
0.000193315
0.000169651
0.000150827
0.000135631
0.000123296
0.00011275
0.000103297
9.45315e-05
8.60733e-05
7.59032e-05
6.54313e-05
7.76341e-05
9.97838e-05
0.000207496
0.00105306
0.000551498
0.00967309
0.0336376
0.00458426
0.00046508
0.000150845
0.000116335
0.000107086
0.000103287
0.000107086
0.000127903
0.000166096
0.000215867
0.000273357
0.000340232
0.000409619
0.000470797
0.000510503
0.000520723
0.000494522
0.000437768
0.000371927
0.00030753
0.000250582
0.000204465
0.000169767
0.000144564
0.000126321
0.000112726
0.000102272
9.37112e-05
8.62287e-05
7.93519e-05
7.27886e-05
6.61106e-05
6.03732e-05
6.38827e-05
7.67831e-05
0.000171161
0.00156741
0.000895718
0.01276
0.040406
0.00749047
0.000871585
0.000194357
0.00011541
9.74092e-05
9.14846e-05
9.86969e-05
0.00013772
0.000189253
0.000246217
0.000307079
0.000374004
0.000445107
0.000508466
0.000547794
0.000551288
0.000515982
0.000451763
0.000375648
0.000301038
0.000236519
0.000185979
0.000149314
0.000123966
0.000106684
9.45406e-05
8.57154e-05
7.87992e-05
7.29098e-05
6.7556e-05
6.24882e-05
5.76613e-05
5.4016e-05
5.61e-05
7.02984e-05
0.000334979
0.00529253
0.00195998
0.0138284
0.0414584
0.0139322
0.00316422
0.000630479
0.000208246
0.000132827
0.000116116
0.000142633
0.000193052
0.000249333
0.000306427
0.000367421
0.000436854
0.000511436
0.000576159
0.000611326
0.000603538
0.000552486
0.000471231
0.000378667
0.000291
0.000218275
0.000164004
0.000126745
0.000102567
8.72373e-05
7.72949e-05
7.06227e-05
6.56413e-05
6.14603e-05
5.76389e-05
5.40005e-05
5.06426e-05
4.8555e-05
5.32923e-05
9.87113e-05
0.000942423
0.0127383
0.00295934
0.013005
0.0283689
0.0144152
0.00572728
0.00210543
0.000835649
0.000414477
0.000277453
0.000279574
0.000315012
0.000356339
0.000401874
0.000458767
0.000531161
0.000610307
0.000674298
0.000698981
0.000670943
0.000594185
0.00048705
0.000372889
0.000270788
0.000191133
0.000135705
0.000100621
7.98248e-05
6.79103e-05
6.11273e-05
5.70427e-05
5.40975e-05
5.15475e-05
4.90889e-05
4.66679e-05
4.45637e-05
4.44552e-05
5.88465e-05
0.00023354
0.00282288
0.0106142
0.00308124
0.0106892
0.0193546
0.012038
0.00630086
0.00317565
0.001676
0.000987932
0.000680105
0.000560985
0.000518072
0.00051092
0.000531812
0.000583993
0.000662992
0.000747568
0.000805044
0.000807301
0.000744337
0.000628526
0.000486583
0.000347868
0.000233626
0.000152416
0.00010171
7.35214e-05
5.87811e-05
5.13373e-05
4.78794e-05
4.60641e-05
4.47321e-05
4.34058e-05
4.19323e-05
4.0389e-05
3.93638e-05
4.2453e-05
8.58987e-05
0.000684088
0.00308491
0.00766085
0.00293449
0.00807069
0.0137667
0.00969049
0.00593322
0.0035702
0.00222821
0.0014916
0.00109397
0.00087019
0.00074433
0.000686537
0.000690634
0.00075084
0.000844659
0.000931677
0.000967651
0.000925578
0.000805894
0.000635746
0.000452988
0.000293292
0.000177322
0.000106824
6.9429e-05
5.25059e-05
4.4381e-05
4.05247e-05
3.90796e-05
3.84741e-05
3.80175e-05
3.74234e-05
3.66277e-05
3.58113e-05
3.59486e-05
4.40968e-05
0.000147964
0.000876547
0.00289245
0.00595453
0.00266191
0.00612136
0.0101628
0.00778758
0.00531133
0.00356994
0.00246928
0.00178834
0.00136869
0.00109348
0.000926695
0.000859927
0.000887119
0.000982522
0.00109611
0.00116726
0.00114796
0.00102598
0.0008227
0.000587846
0.000369741
0.00020814
0.000114463
7.20179e-05
5.23087e-05
4.29716e-05
3.82209e-05
3.57994e-05
3.48512e-05
3.45089e-05
3.43396e-05
3.42023e-05
3.41615e-05
3.45486e-05
3.67017e-05
4.91549e-05
0.000146884
0.000728106
0.00239098
0.00574501
0.00261299
0.00618106
0.00780367
0.00679904
0.00473687
0.00336415
0.00246158
0.00186542
0.00146217
0.00119479
0.00106526
0.00107103
0.00117999
0.00132711
0.0014331
0.00143268
0.00129644
0.00105053
0.000744367
0.000458457
0.000239036
0.000130879
8.15174e-05
5.99331e-05
4.9498e-05
4.36286e-05
3.98281e-05
3.72588e-05
3.57716e-05
3.51235e-05
3.50301e-05
3.55912e-05
3.72363e-05
4.0763e-05
4.80224e-05
6.66063e-05
0.000142284
0.000543588
0.00197019
0.00449513
0.00318042
0.0045452
0.00511053
0.00418314
0.00336058
0.00263878
0.00206931
0.00164834
0.00136158
0.00124554
0.00130173
0.00147831
0.00168367
0.00181685
0.0018055
0.00162677
0.00129775
0.00091095
0.000522173
0.00027948
0.000154467
0.000101073
7.86963e-05
6.80541e-05
6.15614e-05
5.65598e-05
5.21391e-05
4.81838e-05
4.51813e-05
4.38841e-05
4.42716e-05
4.71121e-05
5.40853e-05
6.76747e-05
9.1318e-05
0.00013252
0.000222215
0.000523107
0.00190953
0.00353683
0.00329154
0.00140104
0.00143105
0.00143275
0.00135293
0.00131023
0.00142388
0.00170986
0.00204415
0.00230245
0.00239394
0.00227328
0.00195963
0.00151809
0.000978879
0.000568724
0.000311817
0.000185921
0.000133739
0.000113421
0.000104275
9.87462e-05
9.41979e-05
8.95566e-05
8.43103e-05
7.85038e-05
7.31393e-05
7.0851e-05
7.29187e-05
8.16304e-05
0.000101491
0.000138777
0.000200956
0.000299673
0.00046819
0.000824833
0.00206923
0.00364369
0.00338479
0.00118737
0.0017147
0.0019507
0.00230672
0.00275615
0.00316059
0.00333946
0.00330113
0.00307023
0.00267164
0.00210273
0.0014855
0.000957235
0.000562546
0.000335139
0.000229496
0.00018888
0.000174169
0.000168091
0.000164758
0.0001624
0.000160238
0.000157547
0.000153537
0.0001478
0.000141255
0.000137672
0.000141772
0.000157439
0.000192279
0.000257957
0.000370427
0.000552873
0.00084882
0.00135621
0.00229783
0.0039531
0.00297977
0.00742199
0.00808755
0.00480762
0.00339852
0.00373262
0.00414588
0.00416013
0.00394958
0.00359129
0.00313292
0.00261906
0.00207334
0.00152626
0.00104353
0.000687056
0.000471601
0.00036934
0.000328166
0.000311036
0.000301544
0.00029476
0.000289905
0.000287282
0.00028699
0.000288363
0.000289891
0.000289789
0.000287638
0.000287209
0.000296076
0.00031823
0.000361558
0.000439444
0.000572402
0.00079234
0.00115614
0.00177925
0.0028302
0.00441713
0.00285464
0.00650487
0.00513621
0.00436966
0.0046221
0.00453917
0.00426999
0.00368862
0.00304222
0.0024569
0.00196382
0.00155867
0.00122874
0.000969477
0.000783358
0.000665687
0.000601051
0.00056522
0.000543289
0.000527562
0.000515406
0.000507051
0.000504101
0.000508533
0.000521891
0.000544589
0.000575453
0.000611673
0.00064926
0.000683779
0.000716363
0.000756243
0.000815473
0.000908623
0.0010552
0.00128502
0.00164788
0.00222741
0.00317155
0.00386332
0.00384189
0.0053566
0.00336952
0.00331841
0.00361504
0.0038728
0.00353265
0.0029275
0.00230881
0.00177846
0.0013546
0.0010274
0.000784975
0.000617257
0.000513026
0.00045741
0.000433486
0.000428864
0.000432177
0.000439631
0.000451439
0.000469464
0.000496155
0.000533578
0.000582556
0.00064221
0.00071018
0.000783542
0.000860093
0.000939738
0.00102433
0.00111515
0.00121933
0.00134648
0.00150682
0.00170964
0.00195917
0.00224808
0.00256678
0.00298963
0.00314408
)
;

boundaryField
{
    floor
    {
        Cmu             0.09;
        kappa           0.41;
        E               9.8;
        type            epsilonWallFunction;
        value           nonuniform List<scalar> 
36
(
0.000860682
8.94559e-05
0.000262804
0.000269283
0.000250246
0.000220388
0.000184294
0.000152466
0.000126608
0.000105973
8.95021e-05
7.63479e-05
6.56906e-05
5.68884e-05
4.94154e-05
4.27998e-05
3.6543e-05
3.18328e-05
2.36082e-05
2.36082e-05
4.81086e-05
7.08294e-05
9.45832e-05
0.000160094
0.000358967
0.000320554
0.000860682
0.00112982
0.000979135
0.000858726
8.94559e-05
0.000858726
0.000511959
0.00158466
0.00102771
0.00156486
)
;
    }
    ceiling
    {
        Cmu             0.09;
        kappa           0.41;
        E               9.8;
        type            epsilonWallFunction;
        value           nonuniform List<scalar> 
43
(
0.0053566
0.00336952
0.00331841
0.00361504
0.0038728
0.00353265
0.0029275
0.00230881
0.00177846
0.0013546
0.0010274
0.000784975
0.000617257
0.000513026
0.00045741
0.000433486
0.000428864
0.000432177
0.000439631
0.000451439
0.000469464
0.000496155
0.000533578
0.000582556
0.00064221
0.00071018
0.000783542
0.000860093
0.000939738
0.00102433
0.00111515
0.00121933
0.00134648
0.00150682
0.00170964
0.00195917
0.00224808
0.00256678
0.00298963
0.00314408
0.0045452
0.00511053
0.00118737
)
;
    }
    sWall
    {
        Cmu             0.09;
        kappa           0.41;
        E               9.8;
        type            epsilonWallFunction;
        value           nonuniform List<scalar> 9(0.013005 0.0106892 0.00807069 0.00612136 0.00618106 0.0045452 0.00742199 0.00650487 0.0053566);
    }
    nWall
    {
        Cmu             0.09;
        kappa           0.41;
        E               9.8;
        type            epsilonWallFunction;
        value           nonuniform List<scalar> 
14
(
0.000320554
0.000551498
0.000895718
0.00308124
0.00293449
0.00266191
0.00261299
0.00318042
0.00329154
0.00338479
0.00297977
0.00285464
0.00384189
0.00314408
)
;
    }
    sideWalls
    {
        type            empty;
    }
    glass1
    {
        Cmu             0.09;
        kappa           0.41;
        E               9.8;
        type            epsilonWallFunction;
        value           nonuniform List<scalar> 9(0.000253134 0.000797046 0.00163076 0.00285381 0.00454651 0.00676437 0.00967309 0.01276 0.0138284);
    }
    glass2
    {
        Cmu             0.09;
        kappa           0.41;
        E               9.8;
        type            epsilonWallFunction;
        value           nonuniform List<scalar> 2(0.00195998 0.00295934);
    }
    sun
    {
        Cmu             0.09;
        kappa           0.41;
        E               9.8;
        type            epsilonWallFunction;
        value           nonuniform List<scalar> 
14
(
0.000253134
0.000306356
0.000302988
0.000344144
0.000384993
0.000424788
0.000464224
0.000504493
0.000547332
0.00059546
0.000643936
0.00069237
0.000742408
0.00079884
)
;
    }
    Table_master
    {
        Cmu             0.09;
        kappa           0.41;
        E               9.8;
        type            epsilonWallFunction;
        value           nonuniform List<scalar> 9(0.000552069 0.000363074 0.000251058 0.00018154 0.00013642 0.000105997 8.48295e-05 6.98571e-05 5.94928e-05);
    }
    Table_slave
    {
        Cmu             0.09;
        kappa           0.41;
        E               9.8;
        type            epsilonWallFunction;
        value           nonuniform List<scalar> 9(0.000814375 0.000612992 0.000482222 0.000388781 0.00031936 0.000264516 0.000218918 0.000179147 0.000141961);
    }
    inlet
    {
        type            turbulentMixingLengthDissipationRateInlet;
        mixingLength    0.01;
        phi             phi;
        k               k;
        value           uniform 0.000471671;
    }
    outlet
    {
        type            zeroGradient;
    }
}


// ************************************************************************* //
