/*--------------------------------*- C++ -*----------------------------------*\
  =========                 |
  \\      /  F ield         | OpenFOAM: The Open Source CFD Toolbox
   \\    /   O peration     | Website:  https://openfoam.org
    \\  /    A nd           | Version:  6
     \\/     M anipulation  |
\*---------------------------------------------------------------------------*/
FoamFile
{
    version     2.0;
    format      ascii;
    class       volScalarField;
    location    "160";
    object      k;
}
// * * * * * * * * * * * * * * * * * * * * * * * * * * * * * * * * * * * * * //

dimensions      [0 2 -2 0 0 0 0];

internalField   nonuniform List<scalar> 
458
(
0.00285438
0.00345941
0.00369916
0.00409825
0.0044932
0.00489923
0.00534734
0.00576637
0.00609293
0.00625559
0.00618373
0.00581389
0.00483364
0.00354461
0.00245381
0.000599343
0.000835493
0.00114703
0.00132985
0.00131665
0.00114185
0.000963254
0.000818345
0.000704015
0.000612958
0.000539605
0.000479609
0.000429824
0.000387395
0.000349458
0.000313051
0.000280403
0.000229459
0.00483952
0.00879616
0.00555047
0.00595746
0.00653638
0.00723748
0.00804087
0.00894202
0.00979146
0.010379
0.0105327
0.0101918
0.00922378
0.00785091
0.00577738
0.00413053
0.0029919
0.00197846
0.000573231
0.00125912
0.00190458
0.00225077
0.0023193
0.00195328
0.00155765
0.00124549
0.00101294
0.000838726
0.000706374
0.000604108
0.000521574
0.000451208
0.000398158
0.000364208
0.000484964
0.000311589
0.00687545
0.0151799
0.00647485
0.00636297
0.00679457
0.00744049
0.00827976
0.00925746
0.0101746
0.0108729
0.0112199
0.0111252
0.0104298
0.00931804
0.00790025
0.0063703
0.00508762
0.00293283
0.00116155
0.00181974
0.00235666
0.0027164
0.00278108
0.00211773
0.00156906
0.00117898
0.00090649
0.000714432
0.000576807
0.000476386
0.000403432
0.000353983
0.000328813
0.00033011
0.000664945
0.000383809
0.00914698
0.0239444
0.00768212
0.00632012
0.00652408
0.00713308
0.00810868
0.00917617
0.0100857
0.0108412
0.011326
0.0113428
0.0107664
0.00976067
0.00853367
0.0073104
0.00613571
0.00451103
0.00372911
0.00327819
0.00332306
0.00353716
0.00367329
0.00356779
0.00281568
0.00231211
0.00196906
0.00171236
0.00150817
0.00133458
0.00117487
0.0010189
0.000856736
0.000608747
0.000459273
0.000910108
0.000472005
0.0118125
0.0357983
0.0107486
0.00654467
0.0063671
0.00708905
0.00856588
0.00969429
0.0105093
0.0112724
0.0117765
0.0117474
0.0110571
0.00987345
0.00855809
0.00739425
0.00640445
0.00558509
0.00539397
0.00520976
0.00512549
0.00505586
0.00486487
0.00449243
0.00398094
0.00355073
0.00322722
0.00294633
0.0026601
0.00234885
0.00201369
0.00166342
0.00131263
0.000958406
0.000685968
0.000821349
0.000793904
0.000793633
0.000958132
0.00115294
0.0150821
0.0487193
0.0184842
0.00866126
0.00745542
0.00854123
0.0103246
0.0110882
0.0116442
0.0122836
0.0127497
0.0125966
0.0116294
0.0100809
0.00845933
0.00717436
0.00639193
0.00611303
0.00625891
0.00642674
0.00640517
0.00614915
0.00568041
0.00507084
0.00446795
0.00401942
0.00368537
0.00338238
0.00306351
0.00271939
0.00235257
0.00197453
0.00160259
0.00125005
0.000976166
0.000877637
0.000891318
0.000906798
0.00148675
0.00124325
0.0184985
0.0569698
0.0311823
0.0172629
0.0138004
0.0139116
0.0136626
0.0133298
0.0134395
0.0139384
0.0142924
0.013887
0.012498
0.0104564
0.0084678
0.00709058
0.00652712
0.00662137
0.00698359
0.0071739
0.00698876
0.00650241
0.0058329
0.00510887
0.00448039
0.00403769
0.00372048
0.00344729
0.00318128
0.00291095
0.00262935
0.00233621
0.00203993
0.00174906
0.00152483
0.00140429
0.00143626
0.00162472
0.00212007
0.0018167
0.0193064
0.05577
0.0393336
0.030154
0.0247889
0.0204318
0.0173146
0.0158418
0.0157274
0.0162302
0.016402
0.0155005
0.0134166
0.0106847
0.00835318
0.00701792
0.00671476
0.00690089
0.00713516
0.00708259
0.0066799
0.00603438
0.00530381
0.00462163
0.00408365
0.00371001
0.00344897
0.00325422
0.00311316
0.00303047
0.00300443
0.003009
0.00301065
0.00303849
0.00317973
0.00369372
0.00476038
0.00622747
0.0114896
0.00421326
0.0184358
0.0262952
0.0240133
0.0212613
0.0186861
0.0169101
0.0163715
0.0170747
0.0183863
0.019318
0.0189394
0.0168254
0.0134453
0.00968296
0.00760531
0.00672927
0.0065089
0.0065138
0.00644687
0.00614398
0.00562194
0.00498945
0.00435567
0.00380331
0.0033765
0.0030719
0.00285906
0.00271848
0.002651
0.00266099
0.00275114
0.00292682
0.0031899
0.00355423
0.00402829
0.00458971
0.00512207
0.00548273
0.00567804
0.0037432
0.00576376
0.00930209
0.0134282
0.0176392
0.0212922
0.0237549
0.0244127
0.0229834
0.0193445
0.0138927
0.00986917
0.00748537
0.00638907
0.00590218
0.00567942
0.00549459
0.00520703
0.0047737
0.00424459
0.00370355
0.00321638
0.00281631
0.00250815
0.00228191
0.00212949
0.00204942
0.00204296
0.00211383
0.00226506
0.00249635
0.00280993
0.00320328
0.00365347
0.00408719
0.00436458
0.00436354
0.0040664
0.00257359
0.00900157
0.0275267
0.0339909
0.0338931
0.0305496
0.0262502
0.021256
0.0161882
0.0117697
0.00851777
0.00656626
0.00549613
0.0049563
0.004663
0.00446237
0.00426101
0.00401121
0.00370851
0.00338121
0.00306599
0.00278952
0.00256314
0.00238634
0.0022539
0.00216184
0.00210983
0.00210183
0.0021459
0.00225271
0.00243413
0.00270089
0.00305366
0.00346619
0.00387792
0.00411811
0.00437647
0.00437544
0.00269005
0.0102321
0.0109596
0.0116236
0.0147346
0.0132169
0.0106013
0.0084049
0.00695284
0.00577615
0.00470607
0.00380761
0.00314621
0.00271809
0.00245862
0.00229252
0.00216705
0.00204869
0.00191914
0.00177428
0.00162276
0.00147912
0.00135546
0.00125735
0.00118487
0.00113578
0.00110836
0.00110258
0.00111989
0.00116252
0.00123289
0.00133348
0.00146719
0.00163773
0.00184904
0.00210125
0.00241456
0.00253345
0.00240037
0.00210518
0.00184013
)
;

boundaryField
{
    floor
    {
        type            kqRWallFunction;
        value           nonuniform List<scalar> 
36
(
0.00245381
0.000599343
0.000835493
0.00114703
0.00132985
0.00131665
0.00114185
0.000963254
0.000818345
0.000704015
0.000612958
0.000539605
0.000479609
0.000429824
0.000387395
0.000349458
0.000313051
0.000280403
0.000229459
0.000229459
0.000311589
0.000383809
0.000472005
0.000793633
0.000958132
0.00115294
0.00245381
0.00413053
0.0029919
0.00197846
0.000599343
0.00197846
0.000573231
0.00293283
0.00116155
0.00372911
)
;
    }
    ceiling
    {
        type            kqRWallFunction;
        value           nonuniform List<scalar> 
43
(
0.0102321
0.0109596
0.0116236
0.0147346
0.0132169
0.0106013
0.0084049
0.00695284
0.00577615
0.00470607
0.00380761
0.00314621
0.00271809
0.00245862
0.00229252
0.00216705
0.00204869
0.00191914
0.00177428
0.00162276
0.00147912
0.00135546
0.00125735
0.00118487
0.00113578
0.00110836
0.00110258
0.00111989
0.00116252
0.00123289
0.00133348
0.00146719
0.00163773
0.00184904
0.00210125
0.00241456
0.00253345
0.00240037
0.00210518
0.00184013
0.0184358
0.0262952
0.00900157
)
;
    }
    sWall
    {
        type            kqRWallFunction;
        value           uniform 0.0102321;
    }
    nWall
    {
        type            kqRWallFunction;
        value           nonuniform List<scalar> 6(0.00115294 0.00124325 0.0018167 0.00257359 0.00269005 0.00184013);
    }
    sideWalls
    {
        type            empty;
    }
    glass1
    {
        type            kqRWallFunction;
        value           nonuniform List<scalar> 9(0.00285438 0.00483952 0.00687545 0.00914698 0.0118125 0.0150821 0.0184985 0.0193064 0.0184358);
    }
    glass2
    {
        type            kqRWallFunction;
        value           nonuniform List<scalar> 2(0.00421326 0.0037432);
    }
    sun
    {
        type            kqRWallFunction;
        value           nonuniform List<scalar> 
14
(
0.00285438
0.00345941
0.00369916
0.00409825
0.0044932
0.00489923
0.00534734
0.00576637
0.00609293
0.00625559
0.00618373
0.00581389
0.00483364
0.00354461
)
;
    }
    Table_master
    {
        type            kqRWallFunction;
        value           nonuniform List<scalar> 9(0.00211773 0.00156906 0.00117898 0.00090649 0.000714432 0.000576807 0.000476386 0.000403432 0.000353983);
    }
    Table_slave
    {
        type            kqRWallFunction;
        value           nonuniform List<scalar> 9(0.00281568 0.00231211 0.00196906 0.00171236 0.00150817 0.00133458 0.00117487 0.0010189 0.000856736);
    }
    inlet
    {
        type            turbulentIntensityKineticEnergyInlet;
        intensity       0.05;
        value           uniform 0.000937501;
    }
    outlet
    {
        type            zeroGradient;
    }
}


// ************************************************************************* //
