/*--------------------------------*- C++ -*----------------------------------*\
  =========                 |
  \\      /  F ield         | OpenFOAM: The Open Source CFD Toolbox
   \\    /   O peration     | Website:  https://openfoam.org
    \\  /    A nd           | Version:  6
     \\/     M anipulation  |
\*---------------------------------------------------------------------------*/
FoamFile
{
    version     2.0;
    format      ascii;
    class       surfaceScalarField;
    location    "160";
    object      phi;
}
// * * * * * * * * * * * * * * * * * * * * * * * * * * * * * * * * * * * * * //

dimensions      [1 0 -1 0 0 0 0];

internalField   nonuniform List<scalar> 
850
(
-0.00315742
0.00321531
-0.0044269
0.00126945
-0.00536046
0.000933526
-0.00603819
0.000677705
-0.00642663
0.000388404
-0.00648704
6.0386e-05
-0.00617353
-0.000313538
-0.0054592
-0.00071436
-0.00438196
-0.00107727
-0.00305508
-0.0013269
-0.00164599
-0.00140912
-0.000358023
-0.001288
0.000491455
-0.000849515
0.000721645
-0.000230228
0.000723588
-0.000955064
0.000957809
-0.000813261
-0.000141871
-0.000168917
-0.000644412
0.000524562
-0.000693544
0.00108448
-0.000559981
0.00141289
-0.00032848
0.0015624
-0.000149577
0.00164444
-8.21155e-05
0.00169913
-5.47542e-05
0.00173495
-3.58895e-05
0.00175642
-2.15454e-05
0.00176401
-7.65181e-06
0.00174927
1.4662e-05
0.00168825
6.09491e-05
0.0015394
0.000148785
0.00127538
0.000263942
0.000876154
0.000399155
0.000879577
-0.00226775
0.00564051
-0.00344161
0.00244327
-0.00437635
0.00186823
-0.00504866
0.00134999
-0.00544532
0.000785026
-0.00553142
0.00014646
-0.00526235
-0.000582641
-0.00462323
-0.0013535
-0.00367428
-0.00202625
-0.0025466
-0.00245461
-0.0014047
-0.00255105
-0.000403715
-0.00228901
0.000386376
-0.00163964
0.000984532
-0.00082842
0.00178516
-7.70763e-05
0.00162578
0.000162534
0.00109202
0.000537326
0.00110254
-4.35748e-05
0.00100985
0.000394179
-0.000579693
0.00082826
-0.00107856
0.0011926
-0.00105794
0.0014848
-0.000852249
0.00155717
-0.000400919
0.00156954
-0.000162009
0.00158371
-9.63627e-05
0.00159544
-6.65537e-05
0.0016027
-4.32175e-05
0.00160692
-2.58324e-05
0.00160815
-8.9496e-06
0.00160254
2.01921e-05
0.00156148
0.000101946
0.00139178
0.000318408
0.0010924
0.000563249
0.000693383
0.000798097
0.00158245
-0.00158122
0.00746423
-0.00255099
0.00341301
-0.00337082
0.00268802
-0.00395488
0.00193402
-0.00431526
0.00114537
-0.00440784
0.000239009
-0.00415875
-0.000831758
-0.00356192
-0.00195036
-0.00271329
-0.0028749
-0.00175826
-0.00340966
-0.000837929
-0.00347141
-5.34544e-05
-0.00307351
0.000602933
-0.00229606
0.00115056
-0.00137609
0.00158456
-0.000511108
0.00157785
0.000169201
0.00118657
0.000928564
0.0022982
0.00138134
-0.000360045
0.00170084
-0.000899262
0.00174382
-0.0011216
0.00182154
-0.00113572
0.00204819
-0.00107896
0.00164737
0.00148544
0.00138917
0.0013227
0.00127957
0.00125382
0.00124495
0.00126522
0.00136725
0.00114566
0.000539924
0.000870514
0.000838321
0.000513492
0.00115504
0.00211075
-0.00108177
0.00886182
-0.00180585
0.00413706
-0.00235078
0.00323291
-0.00274316
0.00232636
-0.00299541
0.00139758
-0.00303823
0.000281791
-0.00275431
-0.00111571
-0.00217844
-0.00252625
-0.001451
-0.00360235
-0.00070617
-0.0041545
-3.89024e-05
-0.00413869
0.000509594
-0.00362203
0.000977178
-0.00276368
0.00137271
-0.00177166
0.00167877
-0.0008172
0.00183711
1.08139e-05
0.00202399
0.000741651
0.00312822
0.00119392
0.00277211
0.00036581
0.00266379
-0.000251767
0.00247652
-0.000712046
0.00225852
-0.000903648
0.00203935
-0.000916607
0.00171422
-0.000753892
0.00203276
-0.000318762
0.00215899
-0.000126442
0.00221627
-5.75034e-05
0.00223138
-1.53288e-05
0.00220258
2.85678e-05
0.00212101
8.13443e-05
0.00196902
0.000151766
0.00171327
0.000255528
0.00129192
0.000421119
0.00108484
0.000746923
0.000785855
0.00113723
0.000406724
0.0015341
0.00253677
-0.000728772
0.00996921
-0.00123044
0.0046387
-0.00135316
0.00335559
-0.00145281
0.00242597
-0.00151662
0.00146135
-0.0014005
0.000165624
-0.00100131
-0.00151494
-0.000458839
-0.00306874
8.35611e-05
-0.00414476
0.000542394
-0.00461335
0.000890293
-0.00448661
0.0011575
-0.00388927
0.00137619
-0.00298241
0.00155958
-0.00195508
0.00172386
-0.000981525
0.00190197
-0.000167335
0.00219514
0.000448441
0.00265668
0.000732336
0.00266947
0.000352984
0.00256199
-0.000144342
0.00232765
-0.000477749
0.00205576
-0.000631811
0.00178389
-0.000644802
0.00155826
-0.000528326
0.00153682
-0.000297384
0.00153975
-0.000129439
0.00152911
-4.69392e-05
0.00151222
1.48992e-06
0.00149108
4.96366e-05
0.00145795
0.000114397
0.00139845
0.000211188
0.00129872
0.000355174
0.00115921
0.000560552
0.00104093
0.000865127
0.000929253
0.00124883
0.000712635
0.00175064
0.0010639
0.00218543
-0.000943372
0.00202428
-0.00160637
0.000677868
-0.00154425
-0.000605995
0.0110068
-0.000896248
0.00492891
-0.000441539
0.00290084
-9.95622e-05
0.00208396
0.000159341
0.0012024
0.000562024
-0.000237113
0.00107737
-0.00203032
0.001504
-0.00349539
0.00176635
-0.00440711
0.0018709
-0.0047179
0.00186133
-0.00447705
0.0017794
-0.00380737
0.00167191
-0.00287496
0.00157286
-0.00185607
0.00151789
-0.000926606
0.00154134
-0.000190825
0.00168183
0.000307907
0.00191554
0.000498573
0.00197871
0.000289767
0.00185833
-2.40161e-05
0.00164006
-0.000259532
0.00138958
-0.000381391
0.00114397
-0.000399254
0.000943465
-0.000327891
0.000841067
-0.000195057
0.000801055
-8.94994e-05
0.000790061
-3.60191e-05
0.000800194
-8.71873e-06
0.000827897
2.18573e-05
0.000865217
7.69986e-05
0.000904193
0.000172133
0.000941922
0.000317365
0.000981528
0.000520866
0.00105446
0.00079211
0.00120395
0.00109926
0.00145997
0.00149454
0.00189634
0.00174898
0.00220836
0.00171219
0.00173877
0.00114738
0.000252665
-0.000643962
0.0121299
-0.000433352
0.00471827
0.00078908
0.00167837
0.00152568
0.00134731
0.00218067
0.000547355
0.00287916
-0.000935653
0.00337529
-0.00252647
0.00357483
-0.00369494
0.00348354
-0.00431582
0.0031642
-0.00439856
0.0027046
-0.00401747
0.00218875
-0.00329155
0.00169252
-0.00237877
0.00126624
-0.00142985
0.000966592
-0.00062701
0.000814901
-3.91868e-05
0.00082824
0.000294517
0.000936386
0.000390376
0.00096491
0.000261186
0.000876798
6.40356e-05
0.000713257
-9.60561e-05
0.000514414
-0.000182617
0.000315282
-0.000200194
0.00015124
-0.000163923
5.58693e-05
-9.97619e-05
2.08581e-05
-5.45653e-05
2.6476e-05
-4.17149e-05
6.5015e-05
-4.73364e-05
0.000136854
-5.0061e-05
0.000238813
-2.50413e-05
0.000363294
4.75695e-05
0.000511559
0.000169017
0.000691057
0.000341284
0.000919294
0.00056379
0.00122032
0.000798148
0.00164186
0.00107292
0.00221899
0.00117177
0.00295357
0.000977527
0.00309384
0.00100702
0.00340708
0.00288826
0.00977702
0.00365072
0.00395577
0.0039544
0.00137465
0.0044738
0.000827871
0.00524192
-0.000220817
0.00587116
-0.00156494
0.00602512
-0.00268044
0.00571045
-0.00338026
0.00502809
-0.00363344
0.00411318
-0.00348364
0.00309817
-0.00300249
0.00209385
-0.00228728
0.00120653
-0.00149151
0.000488415
-0.000711801
2.17037e-05
-0.000160363
-0.000183082
0.000165536
-0.000192314
0.00030369
-0.000128839
0.000326841
-0.000111399
0.000243683
-0.000169616
0.000122185
-0.000285872
2.01256e-05
-0.00043014
-3.84244e-05
-0.000572563
-5.78493e-05
-0.000686091
-5.04745e-05
-0.000751895
-3.40399e-05
-0.000775611
-3.09306e-05
-0.000770279
-4.71296e-05
-0.000742782
-7.49168e-05
-0.000690743
-0.000102184
-0.00060169
-0.00011418
-0.000463533
-9.06734e-05
-0.000282753
-1.18502e-05
-5.81037e-05
0.000116548
0.000222064
0.000283536
0.000543633
0.000476493
0.000932102
0.000684368
0.00137292
0.000730868
0.00175639
0.000593974
0.00112488
0.00163845
0.00478247
0.0103674
0.0143183
0.012835
0.00285785
0.0120532
0.00160964
0.0113353
0.000497103
0.0102994
-0.000529016
0.00893576
-0.00131675
0.00735723
-0.00180169
0.00567798
-0.00195416
0.00401312
-0.00181879
0.00245623
-0.00144564
0.00106066
-0.000891767
-5.21805e-05
-0.000378753
-0.000774651
1.05933e-05
-0.00111423
0.00017914
-0.00120919
0.000260432
-0.00119819
0.000292625
-0.00115602
0.000284599
-0.00114498
0.000232574
-0.00118383
0.000160956
-0.00126024
9.64547e-05
-0.0013522
5.34525e-05
-0.00144219
3.20605e-05
-0.00151668
2.39209e-05
-0.00156949
1.86876e-05
-0.00160894
8.43258e-06
-0.0016498
-6.36278e-06
-0.00170607
-1.87382e-05
-0.00179103
-1.73114e-05
-0.00191738
1.20866e-05
-0.0020913
8.31562e-05
-0.00231363
0.000210388
-0.00261141
0.000414247
-0.00304261
0.000714648
-0.00368402
0.00111782
-0.00460613
0.00160639
-0.0059401
0.00206476
-0.00754866
0.00220245
-0.00715648
0.00124619
-0.00210042
0.00905625
0.00452664
0.00746002
0.003206
0.00682603
0.00113129
0.00613665
0.000160509
0.00510486
-0.000284893
0.00382762
-0.000524427
0.00243245
-0.000559026
0.00102325
-0.000409657
-0.000281592
-0.000140907
-0.00127936
0.000105904
-0.00185691
0.000198711
-0.00209128
0.000244892
-0.00216108
0.000248865
-0.00215298
0.000252253
-0.00211359
0.000253157
-0.00207329
0.00024422
-0.00205912
0.000218331
-0.00207958
0.000181331
-0.00212704
0.000143823
-0.00218719
0.00011351
-0.00224772
9.2507e-05
-0.00230256
7.86651e-05
-0.00235222
6.82559e-05
-0.00240256
5.86774e-05
-0.00245985
5.08344e-05
-0.00252796
4.92779e-05
-0.00260726
6.18977e-05
-0.0026937
9.84288e-05
-0.00278245
0.000171815
-0.00287273
0.000300582
-0.0029648
0.000506233
-0.00305884
0.000808595
-0.00314631
0.00120521
-0.00318738
0.00164738
-0.00313594
0.00201324
-0.00280899
0.00187542
-0.00149604
-6.68496e-05
-0.00352683
-0.000958135
0.00553943
-6.41168e-05
0.002312
-0.000113908
0.00118103
-0.000441063
0.000487565
-0.000856831
0.000130782
-0.00142703
4.56738e-05
-0.0020691
8.29428e-05
-0.00262809
0.000149238
-0.00297666
0.000207564
-0.00310472
0.00023388
-0.00312632
0.000220217
-0.00308037
0.000198866
-0.0030105
0.00017891
-0.0029289
0.000170562
-0.0028456
0.000169768
-0.00277119
0.000169727
-0.00271747
0.00016452
-0.00268981
0.000153573
-0.00268545
0.000139367
-0.00269669
0.000124654
-0.0027153
0.000111023
-0.00273551
9.87767e-05
-0.00275469
8.73357e-05
-0.00277224
7.61343e-05
-0.0027874
6.58914e-05
-0.00279749
5.92746e-05
-0.0027969
6.12107e-05
-0.00277719
7.86307e-05
-0.00272587
0.000120401
-0.00262316
0.000197781
-0.0024426
0.000325577
-0.0021571
0.000523011
-0.00174189
0.000789906
-0.00115838
0.00106378
-0.000225276
0.00108005
0.00111139
0.000538661
0.00164907
-0.000604614
-0.00180159
-0.0113051
-0.0148088
-0.00923458
-0.00690215
-0.00570828
-0.00521338
-0.00507907
-0.0050325
-0.00495072
-0.00480444
-0.0046014
-0.00437337
-0.00416002
-0.00396881
-0.00379819
-0.00363645
-0.00347602
-0.00331617
-0.00316207
-0.00301945
-0.00289152
-0.0027787
-0.00267979
-0.0025933
-0.00251831
-0.00245447
-0.00240074
-0.00235337
-0.00230373
-0.00223624
-0.00212649
-0.00193882
-0.00162281
-0.00110883
-0.000327468
0.000728197
0.00180013
0.00233025
0.00171637
)
;

boundaryField
{
    floor
    {
        type            calculated;
        value           nonuniform List<scalar> 
36
(
0
0
0
0
0
0
0
0
0
0
0
0
0
0
0
0
0
0
0
-3.49524e-06
-9.56248e-06
-1.48809e-05
-1.93688e-05
-1.70816e-05
-1.49532e-05
-1.40428e-05
-1.98174e-06
-3.19504e-06
-3.6102e-06
-4.19271e-06
-2.81469e-06
-6.36575e-06
-8.53325e-06
-9.1338e-06
-1.15127e-05
-9.74147e-06
)
;
    }
    ceiling
    {
        type            calculated;
        value           nonuniform List<scalar> 
43
(
-3.65245e-05
-3.56844e-05
-3.48714e-05
-2.05278e-05
-1.29716e-05
-7.44852e-06
-3.63301e-06
-9.96566e-07
1.06866e-06
2.86193e-06
4.4342e-06
5.74788e-06
6.77721e-06
7.56091e-06
8.18498e-06
8.7262e-06
9.24386e-06
9.77196e-06
1.03156e-05
1.08497e-05
1.13334e-05
1.17285e-05
1.20128e-05
1.2182e-05
1.22419e-05
1.21987e-05
1.20546e-05
1.181e-05
1.1469e-05
1.10433e-05
1.05525e-05
1.00207e-05
9.4733e-06
8.93767e-06
8.45062e-06
8.02635e-06
8.02762e-06
8.44695e-06
9.17e-06
1.08394e-05
7.5782e-06
4.85609e-06
-5.46317e-05
)
;
    }
    sWall
    {
        type            calculated;
        value           uniform -0.000224391;
    }
    nWall
    {
        type            calculated;
        value           nonuniform List<scalar> 6(-4.81586e-05 -5.82203e-05 -6.06524e-05 -6.97124e-05 -7.62733e-05 -9.61524e-05);
    }
    sideWalls
    {
        type            empty;
        value           nonuniform 0();
    }
    glass1
    {
        type            calculated;
        value           nonuniform List<scalar> 9(-5.7916e-05 -0.000157477 -0.000242525 -0.000315852 -0.000378648 -0.000431651 -0.000479123 -0.000535417 -0.000597959);
    }
    glass2
    {
        type            calculated;
        value           nonuniform List<scalar> 2(-0.000250583 -0.000273681);
    }
    sun
    {
        type            calculated;
        value           uniform 0;
    }
    Table_master
    {
        type            calculated;
        value           nonuniform List<scalar> 9(-1.53147e-07 -1.53331e-07 -1.53387e-07 -1.53416e-07 -1.53431e-07 -1.53437e-07 -1.53434e-07 -1.53418e-07 -1.53371e-07);
    }
    Table_slave
    {
        type            calculated;
        value           nonuniform List<scalar> 9(1.52963e-07 1.52969e-07 1.52934e-07 1.52914e-07 1.529e-07 1.52898e-07 1.52917e-07 1.52962e-07 1.53046e-07);
    }
    inlet
    {
        type            calculated;
        value           uniform -0.010725;
    }
    outlet
    {
        type            calculated;
        value           nonuniform List<scalar> 2(0.011566 0.00353928);
    }
}


// ************************************************************************* //
