/*--------------------------------*- C++ -*----------------------------------*\
  =========                 |
  \\      /  F ield         | OpenFOAM: The Open Source CFD Toolbox
   \\    /   O peration     | Website:  https://openfoam.org
    \\  /    A nd           | Version:  6
     \\/     M anipulation  |
\*---------------------------------------------------------------------------*/
FoamFile
{
    version     2.0;
    format      ascii;
    class       volScalarField;
    location    "160";
    object      T;
}
// * * * * * * * * * * * * * * * * * * * * * * * * * * * * * * * * * * * * * //

dimensions      [0 0 0 1 0 0 0];

internalField   nonuniform List<scalar> 
458
(
302.89
302.626
302.611
302.605
302.6
302.595
302.589
302.582
302.571
302.562
302.557
302.563
302.587
302.611
302.64
303.009
302.971
302.947
302.952
302.967
302.982
302.997
303.012
303.027
303.042
303.057
303.073
303.088
303.104
303.12
303.138
303.161
303.201
303.062
302.663
302.637
302.636
302.635
302.632
302.626
302.611
302.585
302.556
302.54
302.544
302.569
302.595
302.618
302.63
302.644
302.672
303.018
302.924
302.905
302.917
302.938
302.953
302.967
302.982
302.997
303.011
303.026
303.041
303.057
303.073
303.091
303.113
303.142
303.193
303.246
302.712
302.673
302.682
302.694
302.701
302.698
302.673
302.622
302.562
302.526
302.529
302.561
302.593
302.616
302.63
302.643
302.665
302.94
302.878
302.873
302.902
302.939
302.949
302.962
302.976
302.992
303.008
303.025
303.042
303.06
303.077
303.097
303.118
303.144
303.195
303.438
302.774
302.713
302.733
302.765
302.793
302.802
302.764
302.673
302.571
302.512
302.514
302.554
302.6
302.632
302.648
302.658
302.669
302.683
302.718
302.772
302.841
302.913
302.977
303.029
303.067
303.1
303.129
303.155
303.179
303.202
303.223
303.241
303.211
303.183
303.173
303.203
303.629
302.853
302.756
302.778
302.829
302.885
302.914
302.855
302.718
302.572
302.497
302.499
302.552
302.618
302.667
302.692
302.702
302.712
302.738
302.783
302.85
302.927
303.006
303.078
303.14
303.188
303.226
303.258
303.283
303.302
303.314
303.319
303.315
303.288
303.246
303.212
303.215
303.341
303.46
303.453
303.805
302.956
302.824
302.825
302.881
302.965
302.996
302.899
302.725
302.559
302.473
302.483
302.56
302.655
302.728
302.769
302.789
302.808
302.848
302.908
302.983
303.063
303.14
303.208
303.264
303.309
303.344
303.371
303.389
303.4
303.403
303.397
303.383
303.352
303.308
303.262
303.243
303.3
303.348
303.397
303.968
303.123
302.98
302.958
302.995
303.071
303.048
302.891
302.673
302.493
302.421
302.468
302.588
302.725
302.829
302.891
302.924
302.955
303.006
303.075
303.148
303.222
303.289
303.346
303.391
303.426
303.452
303.471
303.481
303.483
303.477
303.464
303.443
303.412
303.37
303.324
303.295
303.308
303.33
303.366
304.197
303.567
303.402
303.312
303.288
303.246
303.061
302.776
302.505
302.346
302.344
302.473
302.664
302.853
302.984
303.062
303.095
303.131
303.187
303.255
303.321
303.381
303.432
303.472
303.503
303.525
303.54
303.549
303.551
303.547
303.536
303.519
303.498
303.467
303.433
303.398
303.377
303.383
303.403
303.525
304.527
304.226
303.996
303.788
303.6
303.243
302.75
302.33
302.108
302.107
302.29
302.569
302.845
303.076
303.185
303.238
303.273
303.313
303.365
303.423
303.475
303.518
303.551
303.575
303.591
303.6
303.604
303.602
303.595
303.586
303.574
303.563
303.553
303.547
303.55
303.563
303.59
303.621
303.645
303.705
297.181
298.371
299.012
299.48
300.069
300.727
301.378
301.97
302.511
302.962
303.187
303.306
303.364
303.403
303.438
303.476
303.519
303.561
303.596
303.623
303.64
303.651
303.654
303.653
303.649
303.641
303.633
303.623
303.615
303.607
303.602
303.601
303.607
303.622
303.646
303.679
303.721
303.779
297.64
298.77
299.852
300.81
301.497
302.044
302.51
302.881
303.153
303.326
303.423
303.48
303.518
303.549
303.579
303.609
303.638
303.663
303.682
303.694
303.7
303.7
303.697
303.691
303.684
303.675
303.667
303.658
303.65
303.643
303.638
303.636
303.638
303.646
303.662
303.69
303.712
303.76
299.766
299.725
299.721
300.985
301.888
302.537
302.934
303.169
303.328
303.444
303.526
303.581
303.618
303.645
303.667
303.685
303.701
303.715
303.726
303.733
303.737
303.737
303.735
303.73
303.724
303.718
303.711
303.704
303.697
303.689
303.682
303.675
303.669
303.665
303.662
303.664
303.674
303.687
303.7
303.756
)
;

boundaryField
{
    floor
    {
        type            wallHeatTransfer;
        Tinf            uniform 305.2;
        alphaWall       uniform 0.24;
        value           nonuniform List<scalar> 
36
(
302.904
303.385
303.312
303.255
303.244
303.258
303.286
303.318
303.349
303.38
303.41
303.438
303.466
303.493
303.519
303.546
303.576
303.609
303.668
303.668
303.619
303.594
303.574
303.631
303.714
303.692
302.904
302.846
302.888
302.955
303.385
302.955
303.398
302.909
303.247
302.904
)
;
    }
    ceiling
    {
        type            wallHeatTransfer;
        Tinf            uniform 303.2;
        alphaWall       uniform 0.24;
        value           nonuniform List<scalar> 
43
(
299.965
299.922
299.914
301.096
301.957
302.576
302.951
303.171
303.319
303.424
303.497
303.545
303.577
303.599
303.617
303.632
303.645
303.656
303.665
303.669
303.67
303.668
303.664
303.658
303.652
303.646
303.64
303.634
303.629
303.624
303.62
303.616
303.613
303.611
303.612
303.616
303.625
303.636
303.646
303.692
304.466
304.185
297.979
)
;
    }
    sWall
    {
        type            wallHeatTransfer;
        Tinf            uniform 315.2;
        alphaWall       uniform 0.36;
        value           uniform 301.079;
    }
    nWall
    {
        type            wallHeatTransfer;
        Tinf            uniform 307.2;
        alphaWall       uniform 0.36;
        value           nonuniform List<scalar> 6(304.172 304.108 303.995 304.275 304.251 304.32);
    }
    sideWalls
    {
        type            empty;
    }
    glass1
    {
        type            wallHeatTransfer;
        Tinf            uniform 315.2;
        alphaWall       uniform 4.3;
        value           nonuniform List<scalar> 9(311.063 310.485 310.119 309.842 309.607 309.388 309.221 309.292 309.524);
    }
    glass2
    {
        type            wallHeatTransfer;
        Tinf            uniform 307.2;
        alphaWall       uniform 4.3;
        value           nonuniform List<scalar> 2(305.813 305.922);
    }
    sun
    {
        type            wallHeatTransfer;
        Tinf            uniform 305.2;
        alphaWall       uniform 0.24;
        value           nonuniform List<scalar> 
14
(
303.115
302.858
302.839
302.825
302.812
302.8
302.788
302.775
302.761
302.75
302.747
302.758
302.794
302.843
)
;
    }
    Table_master
    {
        type            zeroGradient;
    }
    Table_slave
    {
        type            zeroGradient;
    }
    inlet
    {
        type            fixedValue;
        value           uniform 295.15;
    }
    outlet
    {
        type            zeroGradient;
    }
}


// ************************************************************************* //
