/*--------------------------------*- C++ -*----------------------------------*\
  =========                 |
  \\      /  F ield         | OpenFOAM: The Open Source CFD Toolbox
   \\    /   O peration     | Website:  https://openfoam.org
    \\  /    A nd           | Version:  6
     \\/     M anipulation  |
\*---------------------------------------------------------------------------*/
FoamFile
{
    version     2.0;
    format      ascii;
    class       volVectorField;
    location    "160";
    object      U;
}
// * * * * * * * * * * * * * * * * * * * * * * * * * * * * * * * * * * * * * //

dimensions      [0 1 -1 0 0 0 0];

internalField   nonuniform List<vector> 
458
(
(0.0196899 0.091985 0)
(-0.179853 0.0305948 0)
(-0.214022 0.019483 0)
(-0.248898 0.0112149 0)
(-0.27205 0.00252069 0)
(-0.281764 -0.00677792 0)
(-0.27515 -0.0169294 0)
(-0.251491 -0.0281357 0)
(-0.211486 -0.0388819 0)
(-0.159114 -0.0470632 0)
(-0.101411 -0.050766 0)
(-0.0467697 -0.0480973 0)
(0.00547911 -0.0314316 0)
(0.029066 -0.00727129 0)
(0.024279 0.0263951 0)
(-0.0208652 0.0132574 0)
(-0.0414283 -0.0147082 0)
(-0.0180985 -0.0292956 0)
(0.0109059 -0.0289696 0)
(0.0354993 -0.02168 0)
(0.0530586 -0.0120051 0)
(0.0642789 -0.00677774 0)
(0.0698924 -0.00485202 0)
(0.0725153 -0.00409835 0)
(0.0740966 -0.00360862 0)
(0.0752129 -0.00320474 0)
(0.0758562 -0.00280648 0)
(0.0757814 -0.00220629 0)
(0.0743617 -0.000990385 0)
(0.0703076 0.00138674 0)
(0.0620796 0.00451463 0)
(0.0504108 0.00889046 0)
(0.00415215 0.0248728 0)
(0.191102 0.187723 0)
(-0.162052 0.0807816 0)
(-0.170736 0.0613758 0)
(-0.206244 0.0451118 0)
(-0.229458 0.0269022 0)
(-0.240095 0.00603795 0)
(-0.235135 -0.0180714 0)
(-0.214124 -0.0437951 0)
(-0.178624 -0.0668753 0)
(-0.133135 -0.0825028 0)
(-0.0843396 -0.0872811 0)
(-0.0388915 -0.0794833 0)
(0.00153779 -0.0555865 0)
(0.0323995 -0.0227268 0)
(0.0557402 0.0137369 0)
(0.0770315 0.0246121 0)
(0.0706992 0.0407296 0)
(0.00792942 0.0683269 0)
(0.0399266 0.0456328 0)
(0.0110216 -0.0213521 0)
(0.028776 -0.0412507 0)
(0.0441165 -0.0410268 0)
(0.0583354 -0.0329739 0)
(0.0656533 -0.0156144 0)
(0.0677506 -0.00472198 0)
(0.0680254 -0.000658659 0)
(0.0683325 0.000783164 0)
(0.0687666 0.00155776 0)
(0.0690702 0.00209997 0)
(0.0692087 0.00268536 0)
(0.0691475 0.00374481 0)
(0.0683514 0.00613084 0)
(0.0645733 0.0121475 0)
(0.0551429 0.0185488 0)
(0.0463385 0.0260397 0)
(-0.0330525 0.0521953 0)
(0.350202 0.280064 0)
(-0.171638 0.125802 0)
(-0.126678 0.0976456 0)
(-0.160308 0.0699272 0)
(-0.181422 0.0401328 0)
(-0.191965 0.00636309 0)
(-0.187287 -0.0320606 0)
(-0.167025 -0.0723219 0)
(-0.134448 -0.106714 0)
(-0.0949597 -0.1277 0)
(-0.05491 -0.131287 0)
(-0.0187783 -0.117044 0)
(0.0129645 -0.0853488 0)
(0.0381268 -0.048468 0)
(0.059205 -0.0148481 0)
(0.0705023 0.00616337 0)
(0.0678499 0.0326341 0)
(0.0147092 0.0802111 0)
(0.10319 -0.00361821 0)
(0.0740982 -0.0362965 0)
(0.0720874 -0.0494391 0)
(0.0762928 -0.0499068 0)
(0.0816812 -0.0457238 0)
(0.0822152 -0.0342372 0)
(0.0702046 -0.02186 0)
(0.0609824 -0.0151295 0)
(0.0570668 -0.0113792 0)
(0.0554442 -0.00897637 0)
(0.054364 -0.00735816 0)
(0.0536149 -0.0061574 0)
(0.0537951 -0.00474305 0)
(0.0562041 -0.000776549 0)
(0.0553849 0.0164858 0)
(0.0450434 0.0295263 0)
(0.0461501 0.0419705 0)
(-0.0695416 0.0789255 0)
(0.497129 0.353729 0)
(-0.201064 0.163702 0)
(-0.0805799 0.128424 0)
(-0.111159 0.0918664 0)
(-0.126965 0.053883 0)
(-0.134914 0.00930795 0)
(-0.127121 -0.0435168 0)
(-0.105568 -0.09829 0)
(-0.0761863 -0.142217 0)
(-0.0443667 -0.166247 0)
(-0.0151291 -0.167383 0)
(0.0109705 -0.146543 0)
(0.031903 -0.111129 0)
(0.0501847 -0.0696842 0)
(0.0656274 -0.0299641 0)
(0.0771394 0.00357607 0)
(0.0891925 0.036456 0)
(0.0937422 0.0764221 0)
(0.13378 0.0660928 0)
(0.127205 0.0040128 0)
(0.111628 -0.0291112 0)
(0.100868 -0.0426356 0)
(0.0914796 -0.0447338 0)
(0.0811307 -0.0395287 0)
(0.0781375 -0.0229539 0)
(0.0876559 -0.0140279 0)
(0.0945892 -0.00924642 0)
(0.096742 -0.00637417 0)
(0.0960783 -0.00413231 0)
(0.0935356 -0.00199152 0)
(0.0887167 0.00041718 0)
(0.080361 0.00364155 0)
(0.0662173 0.0084262 0)
(0.0509128 0.0261535 0)
(0.0384337 0.0426393 0)
(0.051208 0.0587029 0)
(-0.0982816 0.10108 0)
(0.627958 0.409631 0)
(-0.242054 0.192489 0)
(-0.0349665 0.145998 0)
(-0.060229 0.104736 0)
(-0.0679115 0.0626989 0)
(-0.0696887 0.0105373 0)
(-0.0518212 -0.0562842 0)
(-0.0283032 -0.122502 0)
(-0.00461648 -0.170774 0)
(0.0163162 -0.193172 0)
(0.0319391 -0.189291 0)
(0.0441127 -0.165079 0)
(0.053825 -0.126947 0)
(0.0622068 -0.0831752 0)
(0.0698315 -0.0411643 0)
(0.077634 -0.00503424 0)
(0.0881666 0.0251141 0)
(0.102737 0.0405829 0)
(0.117073 0.0124624 0)
(0.115287 -0.01478 0)
(0.106128 -0.028572 0)
(0.0943984 -0.0341324 0)
(0.0822295 -0.0338528 0)
(0.0710703 -0.027613 0)
(0.065404 -0.0135925 0)
(0.0654663 -0.00494092 0)
(0.0660877 -0.000986205 0)
(0.0656803 0.00123987 0)
(0.064732 0.00332848 0)
(0.0635963 0.00593799 0)
(0.0617748 0.0096114 0)
(0.058653 0.0149894 0)
(0.053635 0.0229552 0)
(0.047614 0.0367851 0)
(0.039783 0.0528952 0)
(0.0631102 0.0725644 0)
(-0.00140572 0.106018 0)
(0.0574151 0.137795 0)
(-0.0731456 0.0605582 0)
(-0.264387 -0.00416118 0)
(0.727233 0.45481 0)
(-0.28561 0.209595 0)
(0.00125005 0.141651 0)
(-0.00842056 0.106172 0)
(-0.00499779 0.0651567 0)
(0.00843811 0.00379613 0)
(0.0387869 -0.0770598 0)
(0.0606141 -0.14433 0)
(0.0744754 -0.187567 0)
(0.0808251 -0.20436 0)
(0.0812269 -0.196617 0)
(0.0779225 -0.169398 0)
(0.0730169 -0.129756 0)
(0.0682734 -0.0854973 0)
(0.0651059 -0.0440963 0)
(0.0647605 -0.0100524 0)
(0.0687336 0.0145723 0)
(0.0780418 0.0237468 0)
(0.085067 0.0107594 0)
(0.0838496 -0.00441422 0)
(0.0760875 -0.0153822 0)
(0.0653966 -0.0211383 0)
(0.0542488 -0.0218964 0)
(0.0442187 -0.0179186 0)
(0.0375608 -0.0100538 0)
(0.0348227 -0.00436597 0)
(0.0340098 -0.00152603 0)
(0.0340284 0.000151862 0)
(0.0348992 0.00196993 0)
(0.0363522 0.00470898 0)
(0.0380892 0.0090443 0)
(0.0398718 0.0155604 0)
(0.0416417 0.0247954 0)
(0.0441428 0.0375533 0)
(0.045709 0.0527087 0)
(0.0678155 0.0725932 0)
(0.0587472 0.0886193 0)
(0.0946652 0.0916198 0)
(0.111363 0.054899 0)
(-0.127671 -0.0224109 0)
(0.791073 0.495528 0)
(-0.309053 0.190745 0)
(0.0342254 0.0862783 0)
(0.0563379 0.0783811 0)
(0.0727291 0.0467318 0)
(0.109132 -0.0245665 0)
(0.140075 -0.101617 0)
(0.155616 -0.159399 0)
(0.156355 -0.192188 0)
(0.145409 -0.200291 0)
(0.126717 -0.18669 0)
(0.104244 -0.156531 0)
(0.0816 -0.116686 0)
(0.0614931 -0.0739795 0)
(0.0461512 -0.0357737 0)
(0.0367824 -0.00636047 0)
(0.034298 0.0121547 0)
(0.0385216 0.0180488 0)
(0.0418619 0.0110409 0)
(0.0402623 0.000787482 0)
(0.0348742 -0.00738486 0)
(0.0266249 -0.0117763 0)
(0.0176436 -0.0124916 0)
(0.00948073 -0.0101221 0)
(0.00379925 -0.00587027 0)
(0.00118624 -0.00272783 0)
(0.000707736 -0.00139698 0)
(0.00162386 -0.000953736 0)
(0.00394477 -0.000298857 0)
(0.00775446 0.00158815 0)
(0.0127222 0.00544157 0)
(0.0186635 0.011433 0)
(0.0257156 0.0197526 0)
(0.0346778 0.0304728 0)
(0.0441988 0.0425802 0)
(0.0644674 0.0580383 0)
(0.0790942 0.0653422 0)
(0.111211 0.0587478 0)
(0.15299 0.0488856 0)
(-0.0237942 0.0904759 0)
(0.8991 0.492154 0)
(-0.0524523 0.168766 0)
(0.122422 0.0108494 0)
(0.189364 -0.0215929 0)
(0.210847 -0.0537337 0)
(0.246174 -0.0953654 0)
(0.2634 -0.135374 0)
(0.258498 -0.164708 0)
(0.234683 -0.178067 0)
(0.197893 -0.174292 0)
(0.154458 -0.15493 0)
(0.109714 -0.123544 0)
(0.0682984 -0.0860902 0)
(0.0333989 -0.0479887 0)
(0.00851509 -0.0168026 0)
(-0.00635788 0.00410714 0)
(-0.00888327 0.0134937 0)
(-0.00645667 0.0154336 0)
(-0.00439636 0.0107139 0)
(-0.00562378 0.00388415 0)
(-0.00941257 -0.00159796 0)
(-0.0153101 -0.00452076 0)
(-0.0218236 -0.00516219 0)
(-0.0275519 -0.00420404 0)
(-0.0314279 -0.00264548 0)
(-0.0332235 -0.001833 0)
(-0.03351 -0.00212066 0)
(-0.0327874 -0.00309163 0)
(-0.0311591 -0.0041036 0)
(-0.0284182 -0.00442401 0)
(-0.0237537 -0.00329337 0)
(-0.016198 -0.000251339 0)
(-0.00778053 0.00443833 0)
(0.00354453 0.0103039 0)
(0.0156166 0.0157665 0)
(0.0327753 0.0218754 0)
(0.0493934 0.018145 0)
(0.0736395 0.00331783 0)
(0.136656 0.0445077 0)
(-0.399687 0.198401 0)
(1.04933 0.435149 0)
(0.507118 0.290696 0)
(0.524898 0.224304 0)
(0.539765 0.142336 0)
(0.519494 0.0719645 0)
(0.473195 0.00209451 0)
(0.415821 -0.0578309 0)
(0.351006 -0.0981689 0)
(0.280074 -0.116138 0)
(0.20709 -0.114579 0)
(0.136797 -0.0979909 0)
(0.0725971 -0.0708924 0)
(0.0185312 -0.0400102 0)
(-0.0234272 -0.0110501 0)
(-0.0438454 0.00378786 0)
(-0.0515353 0.0106943 0)
(-0.0522148 0.0134124 0)
(-0.0503879 0.0132579 0)
(-0.0490071 0.0103379 0)
(-0.0497591 0.00632012 0)
(-0.0525009 0.00285568 0)
(-0.0562686 0.000655767 0)
(-0.0603504 -0.000399356 0)
(-0.0639972 -0.000753062 0)
(-0.066702 -0.000979071 0)
(-0.0685386 -0.00161394 0)
(-0.0701091 -0.0026986 0)
(-0.0720917 -0.0038925 0)
(-0.0750041 -0.00466248 0)
(-0.0794507 -0.00426232 0)
(-0.085999 -0.00183125 0)
(-0.0946425 0.00329871 0)
(-0.105008 0.0115096 0)
(-0.119813 0.0232865 0)
(-0.142418 0.03892 0)
(-0.175396 0.0575903 0)
(-0.220627 0.0758817 0)
(-0.271152 0.0904894 0)
(-0.340691 0.0998774 0)
(-0.606092 0.103443 0)
(0.262433 0.0022304 0)
(0.308337 0.0351812 0)
(0.310337 0.000437623 0)
(0.281341 -0.0350482 0)
(0.241739 -0.054422 0)
(0.191783 -0.0612856 0)
(0.134401 -0.0585425 0)
(0.0744536 -0.0479104 0)
(0.0150403 -0.0298004 0)
(-0.0397911 -0.00779203 0)
(-0.0714565 0.00479381 0)
(-0.0877081 0.0108129 0)
(-0.0926436 0.012613 0)
(-0.0934086 0.0135375 0)
(-0.0919707 0.0139064 0)
(-0.0899344 0.0136328 0)
(-0.0886424 0.0124739 0)
(-0.0888675 0.0109446 0)
(-0.0905088 0.00974429 0)
(-0.0929797 0.0092693 0)
(-0.0956748 0.0094599 0)
(-0.0981728 0.00997612 0)
(-0.100367 0.0104242 0)
(-0.102457 0.0105085 0)
(-0.104733 0.0101812 0)
(-0.107423 0.00965717 0)
(-0.110678 0.00939981 0)
(-0.11436 0.00999878 0)
(-0.118149 0.0121782 0)
(-0.121965 0.0169477 0)
(-0.125558 0.0253521 0)
(-0.128961 0.0381297 0)
(-0.132589 0.0549643 0)
(-0.136653 0.0732092 0)
(-0.137799 0.0845788 0)
(-0.121519 0.0690327 0)
(-0.0859544 -0.0146946 0)
(-0.264859 -0.192686 0)
(0.13844 0.277384 0)
(-0.0173257 0.140344 0)
(-0.0209962 0.0513854 0)
(-0.0234925 0.0145212 0)
(-0.0273718 4.72047e-05 0)
(-0.0470947 -0.00588009 0)
(-0.0752696 -0.00561653 0)
(-0.102712 -0.00204435 0)
(-0.122935 0.00151216 0)
(-0.132695 0.00231816 0)
(-0.135254 0.000601926 0)
(-0.134317 -0.00136037 0)
(-0.13151 -0.00347716 0)
(-0.128088 -0.00513818 0)
(-0.124381 -0.00670777 0)
(-0.120845 -0.00871942 0)
(-0.118031 -0.0116551 0)
(-0.116326 -0.0155136 0)
(-0.115739 -0.0199413 0)
(-0.115988 -0.024442 0)
(-0.116698 -0.0285551 0)
(-0.117559 -0.0319387 0)
(-0.118408 -0.0343587 0)
(-0.119206 -0.0356227 0)
(-0.119942 -0.0355003 0)
(-0.120544 -0.0337529 0)
(-0.120846 -0.0301939 0)
(-0.120554 -0.0246921 0)
(-0.119183 -0.0171164 0)
(-0.115912 -0.00724486 0)
(-0.109536 0.00538747 0)
(-0.0987913 0.0213437 0)
(-0.0829086 0.0403171 0)
(-0.0621282 0.059183 0)
(-0.0386587 0.0719203 0)
(-0.00185189 0.0609319 0)
(0.143576 -0.00975634 0)
(-0.199101 -0.102502 0)
(-0.38572 -0.48505 0)
(-0.602701 -0.143482 0)
(-0.440542 0.141655 0)
(-0.378023 0.0415625 0)
(-0.273341 0.00837035 0)
(-0.235605 0.00162616 0)
(-0.222539 0.00603673 0)
(-0.218539 0.0145273 0)
(-0.21567 0.0235543 0)
(-0.210731 0.0319458 0)
(-0.203016 0.0391483 0)
(-0.193494 0.0445934 0)
(-0.183932 0.0485108 0)
(-0.175234 0.0520122 0)
(-0.167487 0.0556086 0)
(-0.160333 0.0597206 0)
(-0.153333 0.064541 0)
(-0.146356 0.0702051 0)
(-0.139551 0.0767312 0)
(-0.133164 0.0839458 0)
(-0.127364 0.0914267 0)
(-0.122202 0.0985636 0)
(-0.117648 0.104724 0)
(-0.113645 0.109403 0)
(-0.110155 0.112265 0)
(-0.107166 0.113076 0)
(-0.104666 0.111682 0)
(-0.102574 0.108081 0)
(-0.100661 0.102534 0)
(-0.098433 0.0956474 0)
(-0.0949385 0.0883519 0)
(-0.0885198 0.0818002 0)
(-0.0768763 0.0772823 0)
(-0.0580469 0.0761264 0)
(-0.031903 0.0792069 0)
(0.00849762 0.0856186 0)
(0.0490825 0.0873105 0)
(0.0873747 0.0770646 0)
(0.159089 0.0545464 0)
(-0.251691 0.012255 0)
)
;

boundaryField
{
    floor
    {
        type            noSlip;
    }
    ceiling
    {
        type            noSlip;
    }
    sWall
    {
        type            noSlip;
    }
    nWall
    {
        type            noSlip;
    }
    sideWalls
    {
        type            empty;
    }
    glass1
    {
        type            noSlip;
    }
    glass2
    {
        type            noSlip;
    }
    sun
    {
        type            noSlip;
    }
    Table_master
    {
        type            noSlip;
    }
    Table_slave
    {
        type            noSlip;
    }
    inlet
    {
        type            fixedValue;
        value           uniform (0.46194 -0.191342 0);
    }
    outlet
    {
        type            zeroGradient;
    }
}


// ************************************************************************* //
