/*--------------------------------*- C++ -*----------------------------------*\
  =========                 |
  \\      /  F ield         | OpenFOAM: The Open Source CFD Toolbox
   \\    /   O peration     | Website:  https://openfoam.org
    \\  /    A nd           | Version:  6
     \\/     M anipulation  |
\*---------------------------------------------------------------------------*/
FoamFile
{
    version     2.0;
    format      ascii;
    class       volScalarField;
    location    "21600";
    object      nut;
}
// * * * * * * * * * * * * * * * * * * * * * * * * * * * * * * * * * * * * * //

dimensions      [0 2 -1 0 0 0 0];

internalField   nonuniform List<scalar> 
778
(
0.000894318
0.000953087
0.000949626
0.000990849
0.00102862
0.00106293
0.00109485
0.00112563
0.0011566
0.00118952
0.00122089
0.00125068
0.00128002
0.00131159
0.00134453
0.000632211
0.000905286
0.000912516
0.000890364
0.000853379
0.000804027
0.000754887
0.000709627
0.00066881
0.000632196
0.00059956
0.000570241
0.000543534
0.000518608
0.000494353
0.000468994
0.000447948
0.0004055
0.00131079
0.00258123
0.0022651
0.00261445
0.00286803
0.00313687
0.00340503
0.00365211
0.00385092
0.00396655
0.00403445
0.00400622
0.00380619
0.00331108
0.00241811
0.00147203
0.00140345
0.00134344
0.00113136
0.00192678
0.0026702
0.00310896
0.0031292
0.00246978
0.00211225
0.00186434
0.00167627
0.00152676
0.0013993
0.00128656
0.00118162
0.00107895
0.000986807
0.000907356
0.00102233
0.00051412
0.00166405
0.00360456
0.00267233
0.00382232
0.00427117
0.00465106
0.00499607
0.00529965
0.00555669
0.00575805
0.00595307
0.00615812
0.00634635
0.00645813
0.00638326
0.00584468
0.004275
0.00164799
0.001427
0.00305275
0.00426026
0.00483118
0.00439363
0.00115926
0.00100794
0.000891205
0.000799898
0.000727266
0.000668662
0.000620872
0.000582
0.000551689
0.000606548
0.00071358
0.00113058
0.000584939
0.00200528
0.00485869
0.0025574
0.00429814
0.00496265
0.00531842
0.00558006
0.00577362
0.00591798
0.00603481
0.00620085
0.00648128
0.00689039
0.00740492
0.00792242
0.00817774
0.00768034
0.00573396
0.00164126
0.0037976
0.00565298
0.00659664
0.00682965
0.00583072
0.00132012
0.0012007
0.00110824
0.00103133
0.000965803
0.000906979
0.000851537
0.00079648
0.000737008
0.000688554
0.000713907
0.00122464
0.000644067
0.00234203
0.00643356
0.00258046
0.0040863
0.00510795
0.00541145
0.00552188
0.00552647
0.0054718
0.00542323
0.00549264
0.00576502
0.0062648
0.00697267
0.00779398
0.00855109
0.00903142
0.00902568
0.00809996
0.00824152
0.00843175
0.00845941
0.00828792
0.0077576
0.0061737
0.00533269
0.00475657
0.0042887
0.00382963
0.00338487
0.00294975
0.00251531
0.00206921
0.00158933
0.00121261
0.00121232
0.000959142
0.000768392
0.00102228
0.000976692
0.00267369
0.00819696
0.00303833
0.00344617
0.00489452
0.00523122
0.00520473
0.00501774
0.00475018
0.00452944
0.00452446
0.00480992
0.00537941
0.00620008
0.0071607
0.0081212
0.00893828
0.00946089
0.00955642
0.00946127
0.00929451
0.00905734
0.0087518
0.00836249
0.00779412
0.00724644
0.00674916
0.00626854
0.00574939
0.005195
0.00460298
0.00396845
0.00328746
0.00256496
0.00191044
0.00143436
0.00111409
0.00125553
0.00219319
0.00116637
0.00301228
0.0098285
0.00404953
0.00282349
0.00439824
0.00494859
0.0048878
0.00458485
0.00414525
0.00375869
0.00374782
0.00410862
0.00476066
0.00567824
0.00672178
0.00775527
0.00864504
0.00928274
0.0095766
0.00955483
0.00934607
0.00902914
0.00866572
0.00830281
0.0079516
0.0076292
0.00732622
0.00700278
0.00661186
0.00614137
0.0055846
0.00493905
0.00420728
0.00340755
0.00262489
0.00189571
0.00139601
0.00125145
0.00223629
0.0013783
0.00330365
0.0110653
0.0055224
0.00268881
0.00348438
0.00438752
0.00451348
0.00426434
0.00374505
0.00321906
0.0033388
0.00381631
0.00454596
0.00549163
0.0065759
0.0076576
0.00858019
0.00922137
0.00951301
0.00947575
0.00920584
0.00880709
0.00837775
0.00799668
0.00770281
0.00749282
0.00732892
0.00715059
0.00690204
0.00655422
0.00609374
0.00551808
0.00483279
0.00405762
0.00324982
0.00243182
0.00169348
0.00114742
0.00325053
0.00181961
0.00339335
0.0104826
0.00683812
0.00347795
0.00236191
0.00289505
0.00338893
0.00343067
0.00302958
0.00294474
0.00325088
0.00381259
0.00460219
0.00560592
0.00674293
0.00785788
0.00877648
0.00936711
0.00957443
0.00943181
0.00903996
0.00852568
0.00801504
0.00760736
0.00734854
0.00722161
0.00716412
0.00709563
0.00695253
0.00670104
0.00632798
0.00583216
0.00521986
0.00450665
0.0037215
0.00283609
0.00161731
0.0014877
0.00508718
0.0020766
0.00332458
0.00845652
0.00706652
0.00477668
0.00315299
0.00244045
0.0023116
0.00242101
0.00262462
0.00294883
0.0034088
0.00404137
0.0049011
0.00598461
0.0071844
0.00831496
0.00918434
0.00966158
0.00970984
0.00938711
0.00882037
0.00816816
0.00758551
0.00718595
0.00700289
0.00698195
0.00702215
0.00702168
0.00692896
0.00672524
0.00640446
0.00596645
0.00541446
0.00475236
0.00396228
0.00281904
0.00120637
0.00287688
0.00471017
0.00210254
0.00311419
0.00723012
0.00683508
0.00546861
0.00420671
0.00338538
0.00297928
0.00288744
0.00305563
0.00336531
0.00381516
0.00448342
0.00543419
0.00662373
0.0078854
0.00899124
0.00973798
0.0100121
0.009812
0.00923704
0.00845845
0.00767875
0.00708518
0.00678683
0.00675301
0.00685233
0.00695214
0.00695409
0.00685613
0.00665898
0.00635922
0.0059525
0.00543184
0.00477636
0.00390739
0.00259209
0.00130299
0.00306179
0.00506982
0.00211256
0.00283583
0.00652111
0.00659583
0.00579118
0.00492462
0.00427267
0.00388887
0.00375132
0.00378566
0.00397234
0.0043852
0.00513255
0.00623348
0.00755261
0.00884119
0.00983364
0.0103382
0.0102866
0.00973764
0.00885177
0.00786638
0.00704153
0.00657229
0.00647924
0.00656519
0.0066985
0.00678451
0.00675951
0.00664505
0.00644539
0.00615475
0.00575707
0.00521969
0.00447333
0.0033987
0.00211409
0.00153588
0.00319035
0.00529809
0.00222364
0.00258644
0.00583663
0.00630145
0.00591943
0.00536234
0.0048948
0.0045839
0.00443179
0.00438591
0.00454424
0.0050683
0.00604623
0.00738037
0.00880929
0.0100124
0.0107249
0.0108132
0.0102917
0.0093103
0.00811189
0.00702709
0.00632809
0.00602201
0.00599383
0.00609548
0.00622044
0.00629269
0.00626516
0.00614587
0.00594124
0.00564096
0.00520949
0.00455686
0.00355215
0.00232136
0.00162807
0.00190491
0.00367518
0.00534982
0.00229654
0.00259516
0.00579412
0.00643975
0.00599256
0.00554124
0.00517183
0.00490534
0.0047319
0.00472217
0.00510707
0.00603294
0.00742069
0.00898714
0.0103664
0.0112366
0.0114121
0.0108799
0.00977094
0.00836657
0.00700355
0.0060118
0.00543104
0.00517286
0.00513391
0.00521267
0.00531585
0.00537154
0.00533881
0.00520228
0.0049751
0.00463911
0.00412687
0.0033141
0.00227026
0.00160937
0.00171308
0.00244626
0.00393977
0.00544326
0.00217423
0.00234224
0.00243617
0.00359177
0.00421829
0.00441114
0.00441298
0.00436901
0.00444719
0.00498217
0.00613121
0.00775567
0.00951409
0.0110182
0.0119417
0.0120945
0.0114465
0.0101618
0.00849235
0.0068989
0.00564989
0.00481858
0.00435715
0.0041658
0.00412918
0.00415598
0.00417804
0.00414924
0.00405047
0.00386192
0.00360754
0.00328712
0.00286555
0.00230689
0.00176801
0.00162814
0.00204349
0.00288637
0.00391058
0.00448889
0.00205225
0.000806455
0.00146224
0.00225618
0.00289645
0.00363771
0.00489051
0.00673768
0.00879723
0.0106821
0.012097
0.012835
0.0127586
0.0118733
0.0102828
0.00839626
0.006616
0.00521019
0.00428225
0.00378831
0.00356432
0.00346755
0.00341456
0.00335734
0.00326668
0.00313193
0.00296258
0.00278155
0.00259942
0.00242986
0.00226271
0.00208264
0.001925
0.00195203
0.00236011
0.00315298
0.00410196
0.0048204
0.00200263
0.00149741
0.00207422
0.00302722
0.00473125
0.00704718
0.00937629
0.0111895
0.0125107
0.0133232
0.013562
0.0131153
0.0118727
0.0100306
0.007952
0.00605383
0.00464911
0.00384307
0.00347481
0.00332603
0.00326467
0.00322821
0.00318519
0.00311986
0.00302989
0.00292558
0.00282382
0.00273805
0.00267077
0.00261997
0.00258093
0.00255309
0.00255549
0.0026486
0.00295683
0.00363201
0.00477244
0.00552185
0.00218179
0.0027573
0.00668196
0.00613982
0.00547708
0.00696104
0.00929355
0.0112703
0.0126163
0.0133413
0.0135392
0.0132902
0.012539
0.0112321
0.00940769
0.00733596
0.00548987
0.00427232
0.00368223
0.0034606
0.00340006
0.00339889
0.00340959
0.00340826
0.0033849
0.00334084
0.00328534
0.00323019
0.00318486
0.00315494
0.00314383
0.00315445
0.00319167
0.00326708
0.00339162
0.00361146
0.00400035
0.00469698
0.00615548
0.00629006
0.00227617
0.00263868
0.00509653
0.00656488
0.00839013
0.00932082
0.010288
0.0108576
0.0110043
0.0108065
0.0103178
0.00955229
0.00850392
0.00719964
0.0057939
0.00455534
0.00373487
0.00331641
0.00315293
0.00312537
0.00316542
0.00323197
0.00329752
0.00334504
0.00336812
0.00336946
0.00335659
0.00333715
0.00331707
0.00330315
0.00330756
0.00335018
0.00345615
0.00364924
0.00393861
0.00433033
0.00481167
0.00548903
0.00664075
0.00669079
0.00235154
0.0024738
0.0021204
0.00211032
0.00217273
0.0022249
0.00216143
0.0020357
0.00188817
0.00173908
0.00159498
0.0014566
0.00132585
0.00121075
0.00112464
0.00107669
0.00105725
0.00105616
0.00106492
0.0010783
0.00109333
0.00110844
0.00112295
0.00113688
0.00115088
0.00116608
0.00118402
0.00120663
0.00123639
0.0012763
0.0013295
0.00139806
0.00148169
0.00157762
0.0016825
0.00179579
0.00191739
0.00204215
0.0021727
0.00230086
0.00217667
)
;

boundaryField
{
    floor
    {
        type            nutkWallFunction;
        Cmu             0.09;
        kappa           0.41;
        E               9.8;
        value           nonuniform List<scalar> 
36
(
0.000160538
7.63627e-05
0.000109511
0.000110371
0.000107734
0.000103314
9.73802e-05
9.14294e-05
8.59077e-05
8.08919e-05
7.63611e-05
7.22957e-05
6.86207e-05
6.52528e-05
6.20911e-05
5.89963e-05
5.57403e-05
5.30215e-05
4.74872e-05
4.74871e-05
6.15193e-05
7.04652e-05
7.78324e-05
9.30688e-05
0.000123342
0.00011797
0.000160538
0.000174968
0.000167223
0.000160413
7.63626e-05
0.000160413
0.000136057
0.000194659
0.000169886
0.00019391
)
;
    }
    ceiling
    {
        type            nutkWallFunction;
        Cmu             0.09;
        kappa           0.41;
        E               9.8;
        value           nonuniform List<scalar> 
43
(
0.000284331
0.000246403
0.000245316
0.000252066
0.000257699
0.000250872
0.000237264
0.000221173
0.000204772
0.000188775
0.000173262
0.000158453
0.000145275
0.000135311
0.00012972
0.00012744
0.000127305
0.000128328
0.000129891
0.000131649
0.000133415
0.000135107
0.000136729
0.000138353
0.000140109
0.000142172
0.000144761
0.000148152
0.000152684
0.000158704
0.000166442
0.000175854
0.000186613
0.000198318
0.000210874
0.00022428
0.00023795
0.000252157
0.000266002
0.000252554
0.000270482
0.00028052
0.000177615
)
;
    }
    sWall
    {
        type            nutkWallFunction;
        Cmu             0.09;
        kappa           0.41;
        E               9.8;
        value           nonuniform List<scalar> 9(0.000373882 0.000352056 0.000322945 0.000296614 0.000297534 0.000270572 0.000314371 0.000301882 0.000284433);
    }
    nWall
    {
        type            nutkWallFunction;
        Cmu             0.09;
        kappa           0.41;
        E               9.8;
        value           nonuniform List<scalar> 
14
(
0.000117978
0.000140123
0.000164396
0.000244599
0.000245749
0.000257858
0.00026552
0.000252082
0.000238908
0.00023375
0.000253253
0.000263284
0.000271338
0.000252592
)
;
    }
    sideWalls
    {
        type            empty;
    }
    glass1
    {
        type            nutkWallFunction;
        Cmu             0.09;
        kappa           0.41;
        E               9.8;
        value           nonuniform List<scalar> 9(0.000108249 0.000156883 0.000196738 0.000234352 0.000270797 0.000306148 0.000341768 0.00037209 0.000381379);
    }
    glass2
    {
        type            nutkWallFunction;
        Cmu             0.09;
        kappa           0.41;
        E               9.8;
        value           nonuniform List<scalar> 2(0.000213826 0.000241887);
    }
    sun
    {
        type            nutkWallFunction;
        Cmu             0.09;
        kappa           0.41;
        E               9.8;
        value           nonuniform List<scalar> 
14
(
0.000108208
0.000115184
0.000114774
0.00011964
0.000124079
0.000128094
0.000131817
0.000135394
0.000138984
0.000142786
0.000146399
0.00014982
0.00015318
0.000156785
)
;
    }
    Table_master
    {
        type            nutkWallFunction;
        Cmu             0.09;
        kappa           0.41;
        E               9.8;
        value           nonuniform List<scalar> 9(0.00013928 0.000121643 0.000107831 9.6881e-05 8.80659e-05 8.08771e-05 7.49589e-05 7.01044e-05 6.62918e-05);
    }
    Table_slave
    {
        type            nutkWallFunction;
        Cmu             0.09;
        kappa           0.41;
        E               9.8;
        value           nonuniform List<scalar> 9(0.000157746 0.000144063 0.000133365 0.000124388 0.00011668 0.000109709 0.000103091 9.64684e-05 8.9254e-05);
    }
    inlet
    {
        type            calculated;
        value           uniform 0.000167705;
    }
    outlet
    {
        type            calculated;
        value           nonuniform List<scalar> 2(0.0027573 0.00668196);
    }
}


// ************************************************************************* //
