/*--------------------------------*- C++ -*----------------------------------*\
  =========                 |
  \\      /  F ield         | OpenFOAM: The Open Source CFD Toolbox
   \\    /   O peration     | Website:  https://openfoam.org
    \\  /    A nd           | Version:  6
     \\/     M anipulation  |
\*---------------------------------------------------------------------------*/
FoamFile
{
    version     2.0;
    format      ascii;
    class       volScalarField;
    location    "240";
    object      alphat;
}
// * * * * * * * * * * * * * * * * * * * * * * * * * * * * * * * * * * * * * //

dimensions      [1 -1 -1 0 0 0 0];

internalField   nonuniform List<scalar> 
458
(
0.00133062
0.00145952
0.00150186
0.00157812
0.00164937
0.00171825
0.00178919
0.00185691
0.00191016
0.00193995
0.00193632
0.00189051
0.00179156
0.00150778
0.00121975
0.000608946
0.000717613
0.000827849
0.000877443
0.000867501
0.000809404
0.0007455
0.000688853
0.000640253
0.000598436
0.000562262
0.000530661
0.000502924
0.000477878
0.000454251
0.000430445
0.000411153
0.000374144
0.00175917
0.00417675
0.0039404
0.00453897
0.00515654
0.00577488
0.00629441
0.00674191
0.00718763
0.0075893
0.00789392
0.00804719
0.00800025
0.00753531
0.00562545
0.00160088
0.00134754
0.00109316
0.000596088
0.00151044
0.00228974
0.00288321
0.00303924
0.00213785
0.00178053
0.00154396
0.00137229
0.00124247
0.00114073
0.00105916
0.000982314
0.000902548
0.000827513
0.000764766
0.000886487
0.000458695
0.00211462
0.00563932
0.00484367
0.00581142
0.00628401
0.00662384
0.00688728
0.00716607
0.00752781
0.00796242
0.00843169
0.00885562
0.00916003
0.00910895
0.00841307
0.00682551
0.00499449
0.00132889
0.0008936
0.00166415
0.00256606
0.00344068
0.00364034
0.00109873
0.000951866
0.000831092
0.000734216
0.000656672
0.000594281
0.000543715
0.000503322
0.000472867
0.000530218
0.00062866
0.00104255
0.000524623
0.00245408
0.00709309
0.00479974
0.00602808
0.00628042
0.00628892
0.00632226
0.00648127
0.00678875
0.00725359
0.00784356
0.00842464
0.00889208
0.00906269
0.00889934
0.00834244
0.00699594
0.00376172
0.00151339
0.0018844
0.00270282
0.00378118
0.00473588
0.00478011
0.00125459
0.00114058
0.00105834
0.000994055
0.000938077
0.000887598
0.000838688
0.000787344
0.000728715
0.000674167
0.000673581
0.00122096
0.000592094
0.00280092
0.00900642
0.00506504
0.0057866
0.00610742
0.00593086
0.00584417
0.00597023
0.00626094
0.00675488
0.00742076
0.00803669
0.00847007
0.00865077
0.00861625
0.00841513
0.00781871
0.00640877
0.00565232
0.00585232
0.00634428
0.00688464
0.00723398
0.00714108
0.00599936
0.00537354
0.00499137
0.00470125
0.00441302
0.00401787
0.00351541
0.00292602
0.00228926
0.00170048
0.00127114
0.00125008
0.000993867
0.000779793
0.000838823
0.000915581
0.00317406
0.0111514
0.00678854
0.00554775
0.0059383
0.00598638
0.00575162
0.00585529
0.00611818
0.00661436
0.00727694
0.00790445
0.00829573
0.00838764
0.00829584
0.00820729
0.00815947
0.00801824
0.00819925
0.00864779
0.00899222
0.00912103
0.00900406
0.00863905
0.00802521
0.00746842
0.00699717
0.00656333
0.00612703
0.00563541
0.00504966
0.00436426
0.00359038
0.0027934
0.00212129
0.00160133
0.00128193
0.00109397
0.00137471
0.000951515
0.00352948
0.0126981
0.00964278
0.00685455
0.00625281
0.00630687
0.00611588
0.00602753
0.00621177
0.00671964
0.00741706
0.00804859
0.00838203
0.00837511
0.00823854
0.00832395
0.008799
0.00937334
0.00993928
0.010329
0.0103821
0.0101433
0.00968329
0.00907439
0.00839038
0.0077414
0.00715595
0.00662077
0.00612407
0.00566729
0.00525332
0.0047725
0.00418376
0.00350106
0.00285644
0.00229106
0.00190717
0.0017339
0.00163931
0.00114514
0.00360928
0.0114419
0.00995049
0.00870251
0.00785274
0.00717019
0.00646933
0.00617604
0.00640307
0.00703848
0.00781804
0.00842607
0.00864082
0.00851729
0.00845816
0.00898222
0.00980471
0.0103385
0.0106702
0.0107325
0.0104485
0.00988941
0.0091422
0.00829417
0.00744507
0.00669022
0.00605685
0.00553199
0.00510824
0.00479046
0.00458495
0.00446689
0.00426157
0.00387755
0.0035445
0.0033672
0.00343704
0.00360651
0.0042194
0.00175449
0.00352656
0.00423171
0.00466378
0.00488866
0.00492066
0.00493046
0.00514372
0.00572365
0.00664265
0.0076799
0.00853246
0.00894851
0.00884341
0.00859689
0.00893901
0.00954433
0.00996507
0.0101293
0.0100703
0.00975183
0.00916357
0.0083566
0.00740864
0.00644218
0.0055836
0.00490244
0.00438735
0.00399873
0.00370313
0.00347346
0.00328515
0.00312321
0.00299807
0.00289839
0.00282961
0.00278221
0.0026998
0.00254952
0.00237447
0.00163912
0.00142922
0.0025346
0.00370732
0.00494222
0.0062658
0.00759082
0.00867973
0.00931979
0.00941462
0.00903151
0.00850477
0.00830238
0.00857056
0.00879135
0.00878935
0.00858188
0.0081665
0.00752904
0.00670341
0.00578532
0.00490386
0.00416425
0.00361665
0.00324478
0.00300215
0.00284661
0.00275008
0.002695
0.00267593
0.00268692
0.00270756
0.00272838
0.00273514
0.00269776
0.00257408
0.00235848
0.00208544
0.00133052
0.00240393
0.00521017
0.00731812
0.00878198
0.00968282
0.00988002
0.00964659
0.00890524
0.00787531
0.00699529
0.00653972
0.00639521
0.00632258
0.00617187
0.00592087
0.00554756
0.00503092
0.00439494
0.00372565
0.00313658
0.00270229
0.00242756
0.00227677
0.00220558
0.00218414
0.0022028
0.00225058
0.00232017
0.00240924
0.002513
0.00262645
0.00273995
0.00283368
0.00288461
0.0028407
0.00281126
0.00270132
0.00135151
0.00254378
0.00261808
0.00268338
0.00299275
0.00282891
0.00252102
0.00221522
0.0019854
0.00179601
0.00160451
0.00141787
0.00125266
0.00112767
0.00104192
0.0009813
0.000932611
0.000887125
0.000840638
0.000793606
0.000750708
0.000718024
0.000699261
0.000694314
0.000700863
0.000716544
0.000739791
0.000769854
0.000805698
0.000847668
0.000896431
0.000951531
0.00101316
0.00108178
0.0011578
0.00124096
0.00134066
0.00137543
0.00134241
0.00125191
0.0011598
)
;

boundaryField
{
    floor
    {
        type            compressible::alphatWallFunction;
        Prt             0.85;
        value           nonuniform List<scalar> 
36
(
0.000172852
8.56985e-05
0.000101769
0.000117775
0.000124893
0.000123471
0.000115118
0.000105847
9.75493e-05
9.03643e-05
8.41288e-05
7.86914e-05
7.3906e-05
6.96765e-05
6.58322e-05
6.21824e-05
5.84805e-05
5.54615e-05
4.96182e-05
4.96176e-05
6.28704e-05
7.29875e-05
8.31787e-05
0.000110842
0.000119371
0.000130349
0.00017285
0.000224475
0.00019034
0.00015532
8.56975e-05
0.000155319
8.37738e-05
0.000187799
0.000127195
0.000212763
)
;
    }
    ceiling
    {
        type            compressible::alphatWallFunction;
        Prt             0.85;
        value           nonuniform List<scalar> 
43
(
0.000346917
0.000356333
0.000364589
0.000403497
0.000383039
0.000344193
0.000305095
0.000275327
0.000250512
0.000225121
0.000200045
0.000177539
0.000160287
0.000148323
0.000139798
0.000132907
0.00012643
0.000119769
0.000112984
0.000106754
0.000101977
9.92217e-05
9.84921e-05
9.94531e-05
0.000101752
0.00010515
0.000109527
0.000114719
0.000120764
0.000127742
0.000135575
0.000144274
0.000153886
0.000164453
0.000175924
0.00018956
0.000194289
0.000189799
0.000177428
0.000164736
0.000469798
0.000555497
0.000328992
)
;
    }
    sWall
    {
        type            compressible::alphatWallFunction;
        Prt             0.85;
        value           uniform 0.000345675;
    }
    nWall
    {
        type            compressible::alphatWallFunction;
        Prt             0.85;
        value           nonuniform List<scalar> 6(0.000130138 0.000135233 0.000162346 0.00018785 0.000190706 0.000164406);
    }
    sideWalls
    {
        type            empty;
    }
    glass1
    {
        type            compressible::alphatWallFunction;
        Prt             0.85;
        value           nonuniform List<scalar> 9(0.000183329 0.000240005 0.000285982 0.0003292 0.000372769 0.000419057 0.000462667 0.000472533 0.000462688);
    }
    glass2
    {
        type            compressible::alphatWallFunction;
        Prt             0.85;
        value           nonuniform List<scalar> 2(0.000243172 0.000228018);
    }
    sun
    {
        type            compressible::alphatWallFunction;
        Prt             0.85;
        value           nonuniform List<scalar> 
14
(
0.000188051
0.000205509
0.000211211
0.000221435
0.000230938
0.000240084
0.000249459
0.000258371
0.000265354
0.00026925
0.000268774
0.000262777
0.000249767
0.000212004
)
;
    }
    Table_master
    {
        type            compressible::alphatWallFunction;
        Prt             0.85;
        value           nonuniform List<scalar> 9(0.000156251 0.000135622 0.000118379 0.000104331 9.29264e-05 8.36305e-05 7.60082e-05 6.98559e-05 6.51761e-05);
    }
    Table_slave
    {
        type            compressible::alphatWallFunction;
        Prt             0.85;
        value           nonuniform List<scalar> 9(0.000177801 0.000162072 0.000150615 0.000141587 0.00013367 0.000126483 0.000119473 0.000112062 0.000103528);
    }
    inlet
    {
        type            fixedValue;
        value           uniform 1.94e-05;
    }
    outlet
    {
        type            zeroGradient;
    }
}


// ************************************************************************* //
