/*--------------------------------*- C++ -*----------------------------------*\
  =========                 |
  \\      /  F ield         | OpenFOAM: The Open Source CFD Toolbox
   \\    /   O peration     | Website:  https://openfoam.org
    \\  /    A nd           | Version:  6
     \\/     M anipulation  |
\*---------------------------------------------------------------------------*/
FoamFile
{
    version     2.0;
    format      ascii;
    class       volScalarField;
    location    "240";
    object      nut;
}
// * * * * * * * * * * * * * * * * * * * * * * * * * * * * * * * * * * * * * //

dimensions      [0 2 -1 0 0 0 0];

internalField   nonuniform List<scalar> 
458
(
0.00114409
0.00125379
0.00129011
0.00135559
0.00141678
0.00147593
0.00153684
0.00159498
0.00164067
0.0016662
0.00166304
0.0016237
0.00153875
0.00129513
0.00104783
0.000523508
0.000616873
0.000711607
0.00075426
0.000745741
0.00069582
0.000640903
0.000592221
0.000550455
0.000514519
0.000483432
0.000456275
0.00043244
0.000410917
0.000390614
0.000370156
0.000353583
0.000321789
0.00151348
0.00358851
0.00338518
0.00389942
0.00442999
0.00496119
0.00540746
0.00579171
0.00617421
0.00651866
0.00677981
0.00691127
0.00687119
0.00647235
0.00483221
0.00137518
0.00115761
0.000939148
0.000512478
0.00129829
0.0019681
0.00247832
0.00261257
0.00183778
0.00153065
0.00132731
0.00117975
0.00106817
0.00098073
0.000910615
0.000844571
0.000776012
0.000711521
0.000657599
0.000762312
0.000394502
0.00182047
0.00484598
0.00416172
0.00499339
0.0053997
0.00569188
0.0059183
0.00615761
0.00646763
0.0068398
0.00724179
0.00760545
0.00786725
0.00782408
0.00722684
0.00586334
0.00429057
0.00114167
0.000768129
0.00143033
0.00220556
0.00295754
0.00312945
0.000944546
0.000818304
0.00071449
0.000631218
0.000564564
0.000510935
0.000467472
0.000432754
0.000406578
0.000455907
0.000540575
0.000896529
0.00045121
0.00211411
0.00609658
0.00412456
0.00518044
0.00539787
0.0054057
0.00543465
0.00557106
0.00583412
0.00623166
0.00673676
0.00723517
0.00763708
0.00778453
0.00764496
0.00716694
0.00601032
0.00323183
0.00130026
0.00161915
0.00232269
0.00324993
0.00407122
0.00410987
0.00107882
0.000980865
0.000910217
0.000854985
0.000806884
0.000763504
0.000721464
0.000677323
0.000626905
0.000579909
0.000579337
0.00105006
0.000509262
0.0024145
0.00774325
0.00435318
0.00497364
0.00525021
0.00509934
0.00502552
0.00513361
0.00538182
0.00580378
0.00637362
0.00690185
0.0072746
0.00743103
0.00740248
0.00723031
0.00671806
0.00550674
0.00485709
0.00502954
0.00545324
0.00591884
0.00622037
0.00614156
0.00516042
0.00462266
0.00429429
0.00404499
0.00379721
0.00345732
0.00302501
0.00251783
0.00196985
0.00146308
0.00109352
0.00107526
0.000854871
0.000670991
0.000722018
0.000788081
0.00273782
0.00959081
0.00583577
0.00476903
0.00510552
0.00514804
0.00494742
0.00503598
0.00525971
0.00568316
0.00624995
0.00678804
0.0071249
0.00720556
0.00712829
0.0070532
0.00701255
0.00689154
0.00704783
0.00743449
0.00773202
0.00784434
0.00774522
0.00743248
0.00690534
0.00642694
0.00602191
0.00564889
0.0052736
0.00485052
0.00434631
0.00375626
0.00309002
0.00240388
0.00182523
0.00137763
0.00110277
0.000941227
0.00118292
0.00081889
0.00304605
0.0109272
0.00829372
0.00589485
0.00537773
0.00542536
0.00526198
0.00518459
0.00533988
0.00577281
0.00636939
0.0069113
0.00719924
0.00719584
0.00708078
0.00715571
0.00756499
0.00805947
0.00854715
0.0088837
0.008931
0.00872715
0.00833274
0.00780987
0.00722198
0.00666393
0.00616034
0.00569985
0.00527234
0.00487908
0.00452253
0.00410838
0.00360131
0.00301336
0.00245822
0.00197138
0.0016409
0.00149187
0.00141056
0.000985451
0.00311735
0.00986114
0.00857067
0.00749291
0.00676015
0.00617286
0.00556793
0.00531173
0.00550222
0.00604415
0.00671171
0.00723479
0.00742237
0.00732007
0.00727235
0.00772497
0.00843356
0.00889352
0.00918007
0.0092351
0.00899209
0.0085122
0.00787004
0.00714071
0.00641016
0.00576053
0.00521533
0.00476345
0.00439854
0.00412484
0.00394774
0.00384587
0.00366884
0.00333793
0.00305093
0.00289802
0.00295794
0.00310384
0.00363154
0.00151072
0.00304928
0.00365527
0.00402533
0.00421634
0.00424144
0.00424748
0.00442545
0.00491745
0.0057013
0.0065891
0.00732202
0.00768378
0.00759921
0.00739255
0.00769012
0.00821255
0.00857551
0.00871766
0.00866792
0.00839489
0.0078894
0.00719534
0.0063796
0.00554769
0.00480849
0.00422195
0.00377835
0.00344363
0.003189
0.00299113
0.00282888
0.00268937
0.00258157
0.00249573
0.00243657
0.00239589
0.00232515
0.00219597
0.00204536
0.00141223
0.0012071
0.00215119
0.0031555
0.00421087
0.00534487
0.00648464
0.00742682
0.00798692
0.00807957
0.00776121
0.0073154
0.00714462
0.00737706
0.00756799
0.00756693
0.00738896
0.00703198
0.00648366
0.0057731
0.00498268
0.00422366
0.00358669
0.00311504
0.00279473
0.00258572
0.00245171
0.00236854
0.00232106
0.0023046
0.00231404
0.00233181
0.00234977
0.00235567
0.00232361
0.00221727
0.00203176
0.00179673
0.00114647
0.00203306
0.00442464
0.00623277
0.00749441
0.00827942
0.00846387
0.00827769
0.00765125
0.00677267
0.00601966
0.00562964
0.00550628
0.00544435
0.00531499
0.00509919
0.00477799
0.00433328
0.00378569
0.00320928
0.00270191
0.00232781
0.00209114
0.00196123
0.00189987
0.00188138
0.00189742
0.00193855
0.00199847
0.00207516
0.0021645
0.00226222
0.00235999
0.00244077
0.00248473
0.00244704
0.00242188
0.00232725
0.00116451
0.00216429
0.0022272
0.00228272
0.0025556
0.00242203
0.00216296
0.00190346
0.00170752
0.0015455
0.00138123
0.00122087
0.00107881
0.000971269
0.000897468
0.000845297
0.000803389
0.00076423
0.000724202
0.000683697
0.000646747
0.000618591
0.000602425
0.000598157
0.000603793
0.000617293
0.000637312
0.000663201
0.000694069
0.000730214
0.000772209
0.000819664
0.000872747
0.000931845
0.000997321
0.00106897
0.00115487
0.00118486
0.00115645
0.00107852
0.000999321
)
;

boundaryField
{
    floor
    {
        type            nutkWallFunction;
        Cmu             0.09;
        kappa           0.41;
        E               9.8;
        value           nonuniform List<scalar> 
36
(
0.000126332
6.27116e-05
7.4455e-05
8.61516e-05
9.13559e-05
9.03195e-05
8.42164e-05
7.74416e-05
7.13773e-05
6.6126e-05
6.15685e-05
5.75941e-05
5.4096e-05
5.10042e-05
4.81939e-05
4.55255e-05
4.2819e-05
4.06119e-05
3.63397e-05
3.63396e-05
4.60356e-05
5.34374e-05
6.08943e-05
8.11564e-05
8.74207e-05
9.54536e-05
0.000126332
0.000164029
0.000139105
0.000113536
6.27116e-05
0.000113536
6.13077e-05
0.00013726
9.30384e-05
0.000155501
)
;
    }
    ceiling
    {
        type            nutkWallFunction;
        Cmu             0.09;
        kappa           0.41;
        E               9.8;
        value           nonuniform List<scalar> 
43
(
0.000251074
0.000257852
0.000263819
0.000293009
0.000278847
0.00025107
0.000222869
0.000201294
0.000183247
0.000164731
0.000146416
0.000129963
0.000117345
0.000108593
0.000102356
9.73136e-05
9.25736e-05
8.76982e-05
8.27317e-05
7.81698e-05
7.4672e-05
7.26543e-05
7.21195e-05
7.28225e-05
7.45051e-05
7.69927e-05
8.01964e-05
8.39971e-05
8.84222e-05
9.35311e-05
9.9265e-05
0.000105633
0.00011267
0.000120407
0.000128806
0.000138793
0.00014226
0.000138977
0.000129921
0.000120643
0.000345221
0.000407808
0.000236772
)
;
    }
    sWall
    {
        type            nutkWallFunction;
        Cmu             0.09;
        kappa           0.41;
        E               9.8;
        value           uniform 0.000251141;
    }
    nWall
    {
        type            nutkWallFunction;
        Cmu             0.09;
        kappa           0.41;
        E               9.8;
        value           nonuniform List<scalar> 6(9.54538e-05 9.91731e-05 0.000119013 0.000137833 0.000139921 0.00012065);
    }
    sideWalls
    {
        type            empty;
    }
    glass1
    {
        type            nutkWallFunction;
        Cmu             0.09;
        kappa           0.41;
        E               9.8;
        value           nonuniform List<scalar> 9(0.000137671 0.000179882 0.000214078 0.000246201 0.000278569 0.000312935 0.000345305 0.000352753 0.000345669);
    }
    glass2
    {
        type            nutkWallFunction;
        Cmu             0.09;
        kappa           0.41;
        E               9.8;
        value           nonuniform List<scalar> 2(0.000179419 0.000168308);
    }
    sun
    {
        type            nutkWallFunction;
        Cmu             0.09;
        kappa           0.41;
        E               9.8;
        value           nonuniform List<scalar> 
14
(
0.000137543
0.000150183
0.00015434
0.000161804
0.000168742
0.000175418
0.000182261
0.000188765
0.000193859
0.000196698
0.000196346
0.000191967
0.000182472
0.000154912
)
;
    }
    Table_master
    {
        type            nutkWallFunction;
        Cmu             0.09;
        kappa           0.41;
        E               9.8;
        value           nonuniform List<scalar> 9(0.000114177 9.91048e-05 8.65055e-05 7.6242e-05 6.7909e-05 6.11171e-05 5.5548e-05 5.1053e-05 4.7634e-05);
    }
    Table_slave
    {
        type            nutkWallFunction;
        Cmu             0.09;
        kappa           0.41;
        E               9.8;
        value           nonuniform List<scalar> 9(0.000129955 0.000118469 0.000110103 0.00010351 9.77281e-05 9.24784e-05 8.73572e-05 8.19415e-05 7.57036e-05);
    }
    inlet
    {
        type            calculated;
        value           uniform 0.000167705;
    }
    outlet
    {
        type            calculated;
        value           nonuniform List<scalar> 2(0.00216429 0.0022272);
    }
}


// ************************************************************************* //
