/*--------------------------------*- C++ -*----------------------------------*\
  =========                 |
  \\      /  F ield         | OpenFOAM: The Open Source CFD Toolbox
   \\    /   O peration     | Website:  https://openfoam.org
    \\  /    A nd           | Version:  6
     \\/     M anipulation  |
\*---------------------------------------------------------------------------*/
FoamFile
{
    version     2.0;
    format      ascii;
    class       surfaceScalarField;
    location    "240";
    object      phi;
}
// * * * * * * * * * * * * * * * * * * * * * * * * * * * * * * * * * * * * * //

dimensions      [1 0 -1 0 0 0 0];

internalField   nonuniform List<scalar> 
850
(
-0.00310611
0.00316512
-0.00429328
0.00118716
-0.00519507
0.000901788
-0.00587887
0.00068379
-0.00631039
0.000431513
-0.00645313
0.000142734
-0.00626465
-0.000188488
-0.00570793
-0.000556729
-0.00479559
-0.000912349
-0.00361059
-0.001185
-0.00229341
-0.00131719
-0.00101723
-0.00127619
1.78859e-05
-0.00103513
0.00042261
-0.000404734
0.000424752
-0.000935902
0.000939099
-0.000732238
-0.000203687
-9.54428e-05
-0.000636817
0.000546085
-0.00064155
0.00104638
-0.000500322
0.00133283
-0.000286467
0.00145895
-0.000126145
0.0015249
-6.59734e-05
0.00156651
-4.16426e-05
0.00159149
-2.50022e-05
0.00160401
-1.25419e-05
0.00160476
-7.83241e-07
0.00158692
1.78145e-05
0.00152909
5.78024e-05
0.00139437
0.00013469
0.00116361
0.00023073
0.000834393
0.000329187
0.00083851
-0.00223574
0.00556085
-0.0033671
0.00231852
-0.00428822
0.0018229
-0.00497153
0.00136709
-0.00541045
0.000870428
-0.00557614
0.000308424
-0.00542505
-0.000339589
-0.00492798
-0.0010538
-0.00411431
-0.00172603
-0.00308469
-0.00221462
-0.00198166
-0.00242022
-0.000951852
-0.002306
-0.000125451
-0.00186154
0.000541601
-0.0010718
0.0013126
-0.000346259
0.00136718
-5.11403e-05
0.00100088
0.000370226
0.00101241
-1.90158e-06
0.000950746
0.00041081
-0.00061642
0.000809213
-0.00103524
0.00114461
-0.000976967
0.00141182
-0.000767562
0.00147567
-0.000350332
0.00148608
-0.000136586
0.00149844
-7.83538e-05
0.00150871
-5.19373e-05
0.00151492
-3.12382e-05
0.00151828
-1.59251e-05
0.0015188
-1.33133e-06
0.00151345
2.31293e-05
0.00147525
9.59799e-05
0.0013145
0.00029541
0.00103258
0.000512617
0.00066896
0.000692774
0.00151846
-0.00156802
0.00737467
-0.00252439
0.00327488
-0.00334517
0.00264367
-0.00394437
0.00196629
-0.00434716
0.00127321
-0.00451933
0.000480588
-0.00439183
-0.000467097
-0.00392676
-0.00151887
-0.00318388
-0.00246892
-0.00228649
-0.00311202
-0.00137047
-0.00333625
-0.000544048
-0.00313243
0.000125763
-0.00253136
0.000715643
-0.00166169
0.00117965
-0.000810276
0.00124401
-0.000115514
0.000953647
0.000660578
0.00197605
0.00142167
-0.000458367
0.00166419
-0.000858956
0.00165552
-0.00102659
0.00170964
-0.00103111
0.00191706
-0.000975004
0.00156686
0.0014304
0.00135218
0.00130037
0.00126926
0.00125346
0.00125226
0.00127551
0.00137162
0.00114276
0.000524238
0.000859544
0.000795797
0.000501486
0.0010508
0.00203678
-0.00108415
0.00877825
-0.00181973
0.00401045
-0.00237708
0.00320102
-0.0027892
0.0023784
-0.00308503
0.00156903
-0.00321991
0.00061546
-0.00307258
-0.000614428
-0.00260855
-0.00198291
-0.00194385
-0.00313362
-0.00121168
-0.00384419
-0.000518305
-0.00402963
7.54738e-05
-0.00372621
0.000561564
-0.00301746
0.000989629
-0.00208977
0.00132634
-0.00114701
0.00150917
-0.000298357
0.00169711
0.00047263
0.00272153
0.000951617
0.00250164
0.000230516
0.00234948
-0.000306225
0.00220326
-0.000712747
0.00203214
-0.000855497
0.00185421
-0.000853198
0.001581
-0.000701817
0.00189146
-0.000310644
0.0020355
-0.000144219
0.00212283
-8.75084e-05
0.0021751
-5.24577e-05
0.00218532
-1.03974e-05
0.00213827
4.68572e-05
0.00201193
0.000126153
0.00177147
0.00024028
0.00135625
0.000415035
0.00113814
0.000742311
0.000810755
0.00112315
0.000376078
0.00148544
0.00243454
-0.000739008
0.00989952
-0.0012692
0.00454063
-0.00141454
0.00334635
-0.00154257
0.00250642
-0.00164859
0.00167504
-0.00166886
0.000635727
-0.001417
-0.000866294
-0.000942218
-0.00245769
-0.000404085
-0.00367175
9.29419e-05
-0.00434121
0.000498267
-0.00443496
0.00080262
-0.00403057
0.00104877
-0.00326362
0.00126195
-0.00230297
0.0014477
-0.00133277
0.00163406
-0.000484726
0.00192891
0.000177757
0.00237126
0.000509255
0.00238874
0.000213021
0.00229131
-0.00020881
0.00207511
-0.000496572
0.00183976
-0.000620171
0.00161124
-0.000624697
0.00143053
-0.000521137
0.00144127
-0.000321415
0.00147873
-0.000181717
0.00150942
-0.000118227
0.00153803
-8.11003e-05
0.00156052
-3.29224e-05
0.00156159
4.57482e-05
0.00152257
0.00016514
0.00142973
0.000333082
0.00128537
0.000559356
0.00114991
0.000877739
0.00100704
0.00126599
0.000724226
0.00176822
0.00100784
0.0021509
-0.00104013
0.00206717
-0.0017121
0.000689366
-0.00164439
-0.000621296
0.010956
-0.000949864
0.00486919
-0.000530054
0.00292653
-0.000261151
0.00223751
-0.00010445
0.00151833
0.000135361
0.000395905
0.000571739
-0.00130268
0.00101223
-0.00289818
0.00133893
-0.00399845
0.00151856
-0.00452084
0.0015759
-0.0044923
0.00154936
-0.00400404
0.00148215
-0.00319643
0.00141132
-0.00223215
0.00136802
-0.00128949
0.00139043
-0.000507157
0.00152048
4.76874e-05
0.00172929
0.000300425
0.00177588
0.000166412
0.00165891
-9.18627e-05
0.00145585
-0.00029353
0.00123413
-0.000398479
0.00102634
-0.000416936
0.000867567
-0.0003624
0.000804413
-0.000258295
0.00080308
-0.000180419
0.000831521
-0.000146705
0.000880244
-0.000129861
0.000945583
-9.82999e-05
0.00101514
-2.38521e-05
0.00107215
0.000108098
0.00111229
0.000292903
0.00114281
0.000528794
0.00119863
0.000821883
0.00132569
0.00113888
0.0015566
0.00153727
0.00195376
0.0017537
0.00226886
0.00175204
0.0017834
0.00117478
0.00020087
-0.000695556
0.0121339
-0.000521828
0.00469546
0.000640093
0.0017646
0.00124636
0.00163123
0.00169231
0.00107237
0.00227471
-0.000186516
0.00282778
-0.00185576
0.00312799
-0.00319839
0.00315669
-0.00402715
0.00295471
-0.00431885
0.00259461
-0.0041322
0.00215336
-0.00356281
0.00170222
-0.00274531
0.00129443
-0.00182439
0.000980759
-0.000975842
0.000799149
-0.000325571
0.000769366
7.74466e-05
0.000839463
0.000230304
0.000852158
0.000153691
0.000763839
-3.57246e-06
0.000610767
-0.000140488
0.000434309
-0.000222054
0.00026584
-0.000248502
0.000136161
-0.000232758
7.38794e-05
-0.000196052
6.9404e-05
-0.000175983
0.000102126
-0.000179468
0.00016247
-0.000190248
0.000251181
-0.000187053
0.000373496
-0.000146209
0.000519269
-3.77177e-05
0.000674936
0.000137194
0.000848742
0.000354945
0.00106568
0.000604908
0.0013551
0.000849418
0.00176658
0.00112575
0.00232281
0.00119743
0.00308104
0.000993763
0.00324415
0.00101163
0.00350956
0.00281316
0.00985926
0.00352477
0.00398384
0.00370982
0.00157954
0.00401452
0.00132652
0.00458017
0.000506705
0.0052549
-0.000861267
0.00555062
-0.00215149
0.00541658
-0.00306434
0.00491297
-0.00352353
0.00415115
-0.00355703
0.00325608
-0.00323713
0.00233097
-0.00263772
0.00147018
-0.00188454
0.000736791
-0.00109103
0.000206781
-0.000445863
-8.2873e-05
-3.5947e-05
-0.000167117
0.000161662
-0.000146015
0.000209171
-0.000144864
0.000152508
-0.000202323
5.38511e-05
-0.000307164
-3.56837e-05
-0.000434647
-9.46105e-05
-0.000557259
-0.000125931
-0.00065146
-0.000138599
-0.000701765
-0.00014579
-0.000715198
-0.000162594
-0.000705184
-0.000189527
-0.000678324
-0.000217153
-0.000631723
-0.000233699
-0.000551382
-0.000226596
-0.000410192
-0.000178952
-0.000209657
-6.33854e-05
3.22335e-05
0.00011301
0.000316107
0.000320991
0.000632387
0.000533096
0.00100963
0.000748471
0.00142702
0.000780001
0.0018073
0.000613447
0.00115076
0.00166814
0.00492937
0.0104532
0.0144325
0.0126937
0.00331835
0.0116909
0.00232928
0.0109474
0.00125023
0.010058
2.81649e-05
0.00887096
-0.000964444
0.00747725
-0.00167061
0.0059706
-0.00201686
0.0044372
-0.00202363
0.00297125
-0.0017712
0.00162283
-0.00128932
0.000457855
-0.000719598
-0.000396063
-0.000237154
-0.000880654
3.86895e-05
-0.00107233
0.000155696
-0.00110895
0.000198239
-0.00109582
0.00019601
-0.00109691
0.000153559
-0.00113458
9.14819e-05
-0.00120375
3.34358e-05
-0.00128985
-8.55124e-06
-0.00137824
-3.75878e-05
-0.00145599
-6.08953e-05
-0.00151821
-8.36121e-05
-0.00157281
-0.000108041
-0.00163254
-0.000129853
-0.00170929
-0.000140446
-0.00181522
-0.000127817
-0.00196429
-7.75693e-05
-0.00216794
2.46456e-05
-0.00242117
0.000189803
-0.00274285
0.000434647
-0.00320173
0.000779829
-0.00389382
0.00122514
-0.00488712
0.00174173
-0.00630413
0.00219697
-0.00797465
0.00228392
-0.00750152
0.00119496
-0.00227594
0.00899455
0.00501793
0.00743968
0.00388422
0.0068939
0.00179612
0.0063761
0.000546089
0.00557112
-0.000159378
0.00448768
-0.000587133
0.0032247
-0.000753883
0.00188764
-0.00068659
0.000571689
-0.000455287
-0.00057689
-0.000140797
-0.00137707
8.05405e-05
-0.00178261
0.00016834
-0.00193691
0.000192953
-0.00197522
0.000193965
-0.00196778
0.000190753
-0.00195083
0.00017902
-0.00195071
0.000153388
-0.00197747
0.000118193
-0.00202661
8.25275e-05
-0.00208756
5.23573e-05
-0.00215332
2.81233e-05
-0.00222215
7.87831e-06
-0.00229469
-1.11191e-05
-0.00237447
-2.83101e-05
-0.0024654
-3.89783e-05
-0.00256857
-3.73193e-05
-0.00268175
-1.46909e-05
-0.00279772
3.83602e-05
-0.00290681
0.000133686
-0.0030071
0.000290046
-0.00310522
0.000532721
-0.00320593
0.00088049
-0.00330715
0.00132632
-0.0033694
0.00180393
-0.00333436
0.00216189
-0.00302305
0.00197256
-0.00169995
-0.000128185
-0.00389903
-0.000889757
0.00596289
0.000342115
0.0026524
0.000651994
0.00148628
0.000554894
0.000643193
0.000241452
0.00015403
-0.000304565
-4.11854e-05
-0.00103142
-2.70792e-05
-0.00176722
4.9163e-05
-0.00234698
0.000124421
-0.00266478
0.000176955
-0.00277325
0.000188972
-0.00278043
0.000175471
-0.00274555
0.000158026
-0.00269782
0.000146189
-0.00264868
0.000141565
-0.00260785
0.000138145
-0.0025845
0.000129987
-0.00258179
0.000115437
-0.00259549
9.61684e-05
-0.0026179
7.47206e-05
-0.00264297
5.31345e-05
-0.00266789
3.27462e-05
-0.00269376
1.47039e-05
-0.00272232
1.90362e-07
-0.00275308
-8.261e-06
-0.00278251
-7.94744e-06
-0.00280259
5.34578e-06
-0.00280334
3.90557e-05
-0.00277036
0.000100662
-0.0026804
0.00020004
-0.00250086
0.000353125
-0.00220229
0.000581874
-0.00176864
0.000892625
-0.00117482
0.00121007
-0.000220622
0.00120765
0.00113966
0.000612234
0.00161393
-0.000602506
-0.00220065
-0.0116325
-0.0151824
-0.009181
-0.00650401
-0.00499986
-0.00434403
-0.00418158
-0.00421721
-0.00424074
-0.00418952
-0.00406424
-0.00388737
-0.0036992
-0.00352508
-0.00336882
-0.00322478
-0.0030857
-0.00295037
-0.00282348
-0.00271139
-0.00261872
-0.00254753
-0.00249788
-0.0024685
-0.00245698
-0.00245978
-0.00247081
-0.00248131
-0.0024783
-0.00244136
-0.00234261
-0.0021443
-0.00179274
-0.00121231
-0.000321052
0.00088766
0.00209381
0.00270432
0.00209981
)
;

boundaryField
{
    floor
    {
        type            calculated;
        value           nonuniform List<scalar> 
36
(
0
0
0
0
0
0
0
0
0
0
0
0
0
0
0
0
0
0
0
-4.14866e-06
-1.1028e-05
-1.68617e-05
-2.17195e-05
-1.92452e-05
-1.744e-05
-1.63899e-05
-2.15067e-06
-3.45341e-06
-3.9376e-06
-4.58421e-06
-3.221e-06
-6.95305e-06
-9.76998e-06
-1.00035e-05
-1.25815e-05
-1.06352e-05
)
;
    }
    ceiling
    {
        type            calculated;
        value           nonuniform List<scalar> 
43
(
-4.00612e-05
-3.9302e-05
-3.85451e-05
-2.46174e-05
-1.79275e-05
-1.2697e-05
-8.48259e-06
-5.60187e-06
-3.6007e-06
-2.09819e-06
-9.11384e-07
3.6392e-08
7.55373e-07
1.29516e-06
1.72443e-06
2.09365e-06
2.43357e-06
2.75593e-06
3.05119e-06
3.29024e-06
3.43963e-06
3.48307e-06
3.43028e-06
3.30602e-06
3.13483e-06
2.93498e-06
2.71875e-06
2.49917e-06
2.2804e-06
2.06554e-06
1.86373e-06
1.6808e-06
1.52246e-06
1.3962e-06
1.31514e-06
1.31592e-06
1.45285e-06
1.67747e-06
1.95071e-06
3.03916e-06
7.2302e-06
4.50445e-06
-5.51817e-05
)
;
    }
    sWall
    {
        type            calculated;
        value           uniform -0.000236021;
    }
    nWall
    {
        type            calculated;
        value           nonuniform List<scalar> 6(-5.13589e-05 -6.19113e-05 -6.45784e-05 -7.69107e-05 -8.44987e-05 -0.000103921);
    }
    sideWalls
    {
        type            empty;
        value           nonuniform 0();
    }
    glass1
    {
        type            calculated;
        value           nonuniform List<scalar> 9(-5.90228e-05 -0.000159996 -0.000245806 -0.00031943 -0.000382265 -0.000435232 -0.000482297 -0.000538534 -0.000601168);
    }
    glass2
    {
        type            calculated;
        value           nonuniform List<scalar> 2(-0.000269087 -0.000296251);
    }
    sun
    {
        type            calculated;
        value           uniform 0;
    }
    Table_master
    {
        type            calculated;
        value           nonuniform List<scalar> 9(-1.53406e-07 -1.53574e-07 -1.53628e-07 -1.53659e-07 -1.53679e-07 -1.5369e-07 -1.53694e-07 -1.53685e-07 -1.53648e-07);
    }
    Table_slave
    {
        type            calculated;
        value           nonuniform List<scalar> 9(1.53248e-07 1.53248e-07 1.53209e-07 1.53182e-07 1.53171e-07 1.53166e-07 1.53181e-07 1.53224e-07 1.5331e-07);
    }
    inlet
    {
        type            calculated;
        value           uniform -0.0106941;
    }
    outlet
    {
        type            calculated;
        value           nonuniform List<scalar> 2(0.0119085 0.00358924);
    }
}


// ************************************************************************* //
