/*--------------------------------*- C++ -*----------------------------------*\
  =========                 |
  \\      /  F ield         | OpenFOAM: The Open Source CFD Toolbox
   \\    /   O peration     | Website:  https://openfoam.org
    \\  /    A nd           | Version:  6
     \\/     M anipulation  |
\*---------------------------------------------------------------------------*/
FoamFile
{
    version     2.0;
    format      ascii;
    class       volScalarField;
    location    "240";
    object      T;
}
// * * * * * * * * * * * * * * * * * * * * * * * * * * * * * * * * * * * * * //

dimensions      [0 0 0 1 0 0 0];

internalField   nonuniform List<scalar> 
458
(
302.817
302.547
302.533
302.529
302.525
302.521
302.517
302.511
302.502
302.493
302.485
302.484
302.492
302.519
302.548
302.776
302.749
302.738
302.746
302.758
302.767
302.776
302.785
302.794
302.803
302.812
302.822
302.831
302.84
302.85
302.862
302.876
302.907
302.995
302.582
302.558
302.559
302.56
302.559
302.556
302.546
302.526
302.499
302.476
302.469
302.479
302.502
302.521
302.531
302.542
302.564
302.784
302.716
302.711
302.724
302.741
302.749
302.756
302.763
302.77
302.776
302.783
302.79
302.798
302.806
302.817
302.831
302.85
302.895
303.185
302.63
302.591
302.601
302.614
302.624
302.626
302.613
302.576
302.521
302.474
302.457
302.471
302.498
302.518
302.53
302.539
302.557
302.725
302.693
302.697
302.721
302.75
302.754
302.759
302.764
302.77
302.776
302.783
302.79
302.797
302.805
302.816
302.829
302.847
302.893
303.38
302.69
302.627
302.646
302.678
302.707
302.724
302.709
302.644
302.551
302.472
302.444
302.462
302.498
302.528
302.544
302.551
302.559
302.57
302.596
302.637
302.688
302.741
302.787
302.825
302.854
302.877
302.897
302.915
302.93
302.944
302.956
302.964
302.928
302.893
302.874
302.899
303.573
302.767
302.665
302.683
302.73
302.785
302.828
302.809
302.71
302.573
302.466
302.431
302.454
302.504
302.55
302.576
302.585
302.592
302.612
302.648
302.698
302.756
302.815
302.868
302.913
302.949
302.977
303
303.017
303.027
303.032
303.031
303.023
302.994
302.95
302.91
302.908
303.023
303.121
303.118
303.75
302.868
302.726
302.72
302.765
302.834
302.912
302.875
302.738
302.572
302.451
302.413
302.449
302.521
302.589
302.632
302.651
302.667
302.698
302.743
302.799
302.859
302.917
302.967
303.01
303.042
303.068
303.087
303.099
303.103
303.1
303.091
303.074
303.045
303.002
302.955
302.933
302.982
303.021
303.066
303.91
303.032
302.876
302.839
302.86
302.923
302.976
302.896
302.715
302.524
302.402
302.384
302.451
302.558
302.656
302.72
302.756
302.782
302.82
302.869
302.923
302.978
303.029
303.071
303.105
303.13
303.149
303.161
303.167
303.166
303.156
303.14
303.118
303.089
303.051
303.007
302.978
302.987
303.004
303.037
304.139
303.485
303.304
303.189
303.14
303.155
303.07
302.855
302.592
302.388
302.304
302.349
302.48
302.637
302.766
302.846
302.89
302.919
302.958
303.006
303.052
303.096
303.134
303.164
303.186
303.201
303.21
303.214
303.212
303.206
303.195
303.178
303.157
303.13
303.1
303.068
303.049
303.054
303.074
303.209
304.469
304.161
303.922
303.7
303.521
303.348
302.955
302.528
302.226
302.113
302.173
302.359
302.585
302.797
302.93
302.992
303.025
303.054
303.09
303.129
303.164
303.194
303.217
303.234
303.244
303.249
303.249
303.245
303.238
303.229
303.221
303.213
303.208
303.207
303.215
303.232
303.262
303.296
303.321
303.384
297.395
298.853
299.707
300.012
300.365
300.806
301.291
301.76
302.186
302.592
302.876
303.016
303.084
303.119
303.146
303.173
303.201
303.228
303.251
303.267
303.277
303.282
303.282
303.28
303.276
303.271
303.265
303.261
303.256
303.253
303.252
303.256
303.266
303.283
303.309
303.339
303.372
303.411
297.787
299.023
299.889
300.486
301.077
301.641
302.144
302.528
302.811
303.002
303.11
303.167
303.201
303.225
303.246
303.266
303.284
303.299
303.309
303.314
303.315
303.314
303.31
303.306
303.302
303.297
303.292
303.288
303.284
303.281
303.28
303.282
303.288
303.299
303.316
303.341
303.351
303.391
299.573
299.532
299.529
300.672
301.46
302.094
302.55
302.822
302.991
303.105
303.183
303.234
303.267
303.288
303.303
303.315
303.325
303.333
303.339
303.342
303.343
303.342
303.34
303.336
303.332
303.328
303.324
303.319
303.315
303.311
303.307
303.304
303.301
303.3
303.301
303.307
303.317
303.328
303.336
303.382
)
;

boundaryField
{
    floor
    {
        type            wallHeatTransfer;
        Tinf            uniform 305.2;
        alphaWall       uniform 0.24;
        value           nonuniform List<scalar> 
36
(
302.834
303.206
303.137
303.09
303.084
303.096
303.121
303.15
303.179
303.206
303.233
303.259
303.283
303.307
303.331
303.354
303.38
303.406
303.461
303.461
303.386
303.344
303.315
303.348
303.416
303.396
302.834
302.765
302.807
302.872
303.206
302.873
303.218
302.824
303.061
302.811
)
;
    }
    ceiling
    {
        type            wallHeatTransfer;
        Tinf            uniform 303.2;
        alphaWall       uniform 0.24;
        value           nonuniform List<scalar> 
43
(
299.792
299.749
299.742
300.805
301.556
302.161
302.594
302.85
303.007
303.113
303.184
303.231
303.259
303.278
303.29
303.3
303.308
303.314
303.319
303.321
303.321
303.319
303.317
303.314
303.311
303.308
303.305
303.302
303.299
303.296
303.293
303.291
303.289
303.289
303.29
303.297
303.306
303.315
303.321
303.362
304.41
304.122
298.13
)
;
    }
    sWall
    {
        type            wallHeatTransfer;
        Tinf            uniform 315.2;
        alphaWall       uniform 0.36;
        value           uniform 300.954;
    }
    nWall
    {
        type            wallHeatTransfer;
        Tinf            uniform 307.2;
        alphaWall       uniform 0.36;
        value           nonuniform List<scalar> 6(303.884 303.822 303.706 303.957 303.934 303.99);
    }
    sideWalls
    {
        type            empty;
    }
    glass1
    {
        type            wallHeatTransfer;
        Tinf            uniform 315.2;
        alphaWall       uniform 4.3;
        value           nonuniform List<scalar> 9(311.149 310.538 310.151 309.855 309.608 309.378 309.196 309.263 309.493);
    }
    glass2
    {
        type            wallHeatTransfer;
        Tinf            uniform 307.2;
        alphaWall       uniform 4.3;
        value           nonuniform List<scalar> 2(305.665 305.784);
    }
    sun
    {
        type            wallHeatTransfer;
        Tinf            uniform 305.2;
        alphaWall       uniform 0.24;
        value           nonuniform List<scalar> 
14
(
303.057
302.796
302.779
302.766
302.754
302.743
302.732
302.721
302.708
302.696
302.69
302.693
302.709
302.764
)
;
    }
    Table_master
    {
        type            zeroGradient;
    }
    Table_slave
    {
        type            zeroGradient;
    }
    inlet
    {
        type            fixedValue;
        value           uniform 295.15;
    }
    outlet
    {
        type            zeroGradient;
    }
}


// ************************************************************************* //
