/*--------------------------------*- C++ -*----------------------------------*\
  =========                 |
  \\      /  F ield         | OpenFOAM: The Open Source CFD Toolbox
   \\    /   O peration     | Website:  https://openfoam.org
    \\  /    A nd           | Version:  6
     \\/     M anipulation  |
\*---------------------------------------------------------------------------*/
FoamFile
{
    version     2.0;
    format      ascii;
    class       volVectorField;
    location    "240";
    object      U;
}
// * * * * * * * * * * * * * * * * * * * * * * * * * * * * * * * * * * * * * //

dimensions      [0 1 -1 0 0 0 0];

internalField   nonuniform List<vector> 
458
(
(0.0266777 0.090341 0)
(-0.176062 0.0287991 0)
(-0.20699 0.0193665 0)
(-0.241383 0.012226 0)
(-0.265589 0.0045671 0)
(-0.278133 -0.00366835 0)
(-0.276528 -0.0127032 0)
(-0.259169 -0.0228082 0)
(-0.226204 -0.0330108 0)
(-0.180137 -0.041441 0)
(-0.126389 -0.0462891 0)
(-0.0722225 -0.0461417 0)
(-0.0252763 -0.0394163 0)
(0.0156041 -0.0120491 0)
(0.00635183 0.0180645 0)
(-0.0154026 0.0115498 0)
(-0.0384887 -0.0162222 0)
(-0.0156676 -0.0291491 0)
(0.0130853 -0.0267495 0)
(0.0347194 -0.0194422 0)
(0.0505783 -0.010601 0)
(0.0603866 -0.00588699 0)
(0.0650136 -0.00418023 0)
(0.0669832 -0.00353929 0)
(0.0680724 -0.00313904 0)
(0.0687771 -0.00281815 0)
(0.0690802 -0.00250669 0)
(0.0687727 -0.0020021 0)
(0.067332 -0.000937644 0)
(0.0636038 0.00118388 0)
(0.0562687 0.00378203 0)
(0.0475369 0.00705234 0)
(-0.00439837 0.0234698 0)
(0.201521 0.184795 0)
(-0.161718 0.0761841 0)
(-0.16673 0.059537 0)
(-0.202221 0.0454145 0)
(-0.226539 0.0294885 0)
(-0.239885 0.0112081 0)
(-0.239744 -0.0100935 0)
(-0.224494 -0.0337768 0)
(-0.195037 -0.0564829 0)
(-0.154431 -0.0737102 0)
(-0.10817 -0.0818673 0)
(-0.0625865 -0.0790624 0)
(-0.0230104 -0.0641197 0)
(0.0125826 -0.0329148 0)
(0.0365941 0.000571175 0)
(0.0598063 0.0162114 0)
(0.0617063 0.037049 0)
(-0.0028614 0.0685948 0)
(0.0534912 0.0449621 0)
(0.0110631 -0.0230037 0)
(0.0277365 -0.0396414 0)
(0.0424173 -0.0379588 0)
(0.0555573 -0.0296026 0)
(0.0623294 -0.0135672 0)
(0.0641873 -0.00365019 0)
(0.0643546 5.79946e-05 0)
(0.0645853 0.00138493 0)
(0.0649587 0.00209898 0)
(0.0652207 0.00259328 0)
(0.0653319 0.00310831 0)
(0.0652514 0.00397323 0)
(0.0645128 0.00602579 0)
(0.0609528 0.0115059 0)
(0.051967 0.0168334 0)
(0.0465852 0.0223477 0)
(-0.0453214 0.0498462 0)
(0.363209 0.276352 0)
(-0.174985 0.120019 0)
(-0.124808 0.0956837 0)
(-0.159117 0.0710723 0)
(-0.181293 0.0448641 0)
(-0.194518 0.0151939 0)
(-0.195096 -0.0191016 0)
(-0.180418 -0.0566172 0)
(-0.152908 -0.0913777 0)
(-0.116733 -0.115877 0)
(-0.0775165 -0.125326 0)
(-0.0404922 -0.118467 0)
(-0.00859118 -0.09563 0)
(0.0191054 -0.0597268 0)
(0.0410619 -0.0267033 0)
(0.05423 -0.00424862 0)
(0.0556927 0.0230801 0)
(-0.00220426 0.0703871 0)
(0.113369 -0.00599049 0)
(0.0733728 -0.0343551 0)
(0.0680488 -0.04556 0)
(0.0715482 -0.0453684 0)
(0.0764433 -0.0411404 0)
(0.0773614 -0.0307131 0)
(0.0669957 -0.0197483 0)
(0.0590862 -0.0138303 0)
(0.0558971 -0.0105414 0)
(0.0547574 -0.00843409 0)
(0.0541053 -0.00701514 0)
(0.0537417 -0.00596836 0)
(0.0542075 -0.00472196 0)
(0.0565603 -0.0011113 0)
(0.0554346 0.0155982 0)
(0.0444095 0.0274224 0)
(0.049516 0.0373736 0)
(-0.0847022 0.0756852 0)
(0.511526 0.349834 0)
(-0.207536 0.157823 0)
(-0.0801116 0.126679 0)
(-0.112382 0.0937504 0)
(-0.129091 0.0605081 0)
(-0.140001 0.0218505 0)
(-0.139007 -0.0251071 0)
(-0.122552 -0.0769911 0)
(-0.0965631 -0.122862 0)
(-0.0660606 -0.152681 0)
(-0.035722 -0.161824 0)
(-0.00896647 -0.150683 0)
(0.0140797 -0.12127 0)
(0.0330788 -0.0826026 0)
(0.0496078 -0.0434562 0)
(0.0621978 -0.00914411 0)
(0.0755887 0.0247532 0)
(0.0780923 0.0640467 0)
(0.118224 0.0614069 0)
(0.114067 -0.000188089 0)
(0.0990769 -0.0295395 0)
(0.0899479 -0.0400267 0)
(0.0826201 -0.0410792 0)
(0.0741927 -0.0360501 0)
(0.0724492 -0.0213778 0)
(0.0821636 -0.013573 0)
(0.0897421 -0.00940574 0)
(0.0932 -0.00688477 0)
(0.0943465 -0.00487285 0)
(0.0935083 -0.00278352 0)
(0.090017 -0.000259296 0)
(0.0825687 0.00317402 0)
(0.0690559 0.00819298 0)
(0.0535613 0.0256832 0)
(0.0396645 0.0413738 0)
(0.0561874 0.0553517 0)
(-0.116726 0.0970571 0)
(0.642818 0.406147 0)
(-0.2505 0.187443 0)
(-0.0349941 0.144846 0)
(-0.0632997 0.1073 0)
(-0.0714909 0.0705811 0)
(-0.0773274 0.0264731 0)
(-0.0692343 -0.0315095 0)
(-0.0486355 -0.0967627 0)
(-0.0257568 -0.149594 0)
(-0.00396872 -0.180354 0)
(0.0145809 -0.18608 0)
(0.0284102 -0.170095 0)
(0.0394135 -0.138254 0)
(0.0487884 -0.0974364 0)
(0.0573525 -0.0558222 0)
(0.0656197 -0.0186281 0)
(0.0768737 0.013108 0)
(0.0908561 0.0298457 0)
(0.104731 0.00614871 0)
(0.103208 -0.0176422 0)
(0.094735 -0.0287998 0)
(0.0841819 -0.0327537 0)
(0.0737719 -0.0320358 0)
(0.0645789 -0.0263441 0)
(0.0606153 -0.0139264 0)
(0.0620778 -0.00647931 0)
(0.0642335 -0.00326475 0)
(0.0656526 -0.00147951 0)
(0.0667012 0.000588193 0)
(0.0673671 0.00362844 0)
(0.0667579 0.00799319 0)
(0.0642323 0.0141136 0)
(0.0593006 0.0227328 0)
(0.0528179 0.0368455 0)
(0.0433232 0.0528186 0)
(0.0680788 0.0717602 0)
(-0.00601267 0.102722 0)
(0.0553028 0.144319 0)
(-0.0791422 0.0681026 0)
(-0.271125 -0.00178885 0)
(0.741505 0.452279 0)
(-0.294988 0.206071 0)
(0.00116624 0.141679 0)
(-0.013593 0.110093 0)
(-0.0109655 0.0755133 0)
(-0.0101184 0.0278119 0)
(0.0161582 -0.0465868 0)
(0.0390145 -0.118249 0)
(0.0549768 -0.168853 0)
(0.0644349 -0.194365 0)
(0.0680388 -0.195644 0)
(0.0673124 -0.17641 0)
(0.0643032 -0.1425 0)
(0.0607746 -0.100958 0)
(0.0582681 -0.0595034 0)
(0.0580029 -0.0239106 0)
(0.0621384 0.00274592 0)
(0.0705109 0.0145532 0)
(0.0766156 0.00526643 0)
(0.0750701 -0.00722161 0)
(0.0676591 -0.0164883 0)
(0.0579327 -0.021271 0)
(0.0482638 -0.0218835 0)
(0.0400027 -0.0185488 0)
(0.0351251 -0.0119735 0)
(0.0340555 -0.00749675 0)
(0.0349094 -0.00551554 0)
(0.0366286 -0.00433557 0)
(0.0390083 -0.00251155 0)
(0.0421183 0.000990568 0)
(0.0450726 0.00661199 0)
(0.0472916 0.0144783 0)
(0.0488954 0.0248369 0)
(0.0508303 0.0383328 0)
(0.0511701 0.0537956 0)
(0.073215 0.0737217 0)
(0.0613283 0.0876219 0)
(0.0967047 0.0935123 0)
(0.114538 0.0555903 0)
(-0.132731 -0.0268427 0)
(0.800756 0.493946 0)
(-0.31908 0.188686 0)
(0.0321785 0.0890283 0)
(0.0481766 0.0882145 0)
(0.0599559 0.0652542 0)
(0.0778614 0.00918247 0)
(0.11421 -0.0708148 0)
(0.134485 -0.135778 0)
(0.140138 -0.177162 0)
(0.134387 -0.194222 0)
(0.12044 -0.189283 0)
(0.101658 -0.16636 0)
(0.081438 -0.131291 0)
(0.0623929 -0.0905667 0)
(0.0469448 -0.0514474 0)
(0.0367246 -0.0197215 0)
(0.0326242 0.0015749 0)
(0.0349994 0.0103162 0)
(0.0371142 0.00611994 0)
(0.0354779 -0.00210281 0)
(0.0300498 -0.00906189 0)
(0.0225575 -0.0129966 0)
(0.0147821 -0.0139385 0)
(0.00807087 -0.0123959 0)
(0.00388083 -0.00937197 0)
(0.00264913 -0.00740279 0)
(0.00341462 -0.00689366 0)
(0.00542937 -0.00683154 0)
(0.00851 -0.0060794 0)
(0.0127376 -0.00349567 0)
(0.0190456 0.00204984 0)
(0.0257537 0.0101656 0)
(0.0327897 0.0201666 0)
(0.0413216 0.0319634 0)
(0.0501308 0.04462 0)
(0.0701143 0.0602864 0)
(0.0838282 0.0663149 0)
(0.115737 0.0597772 0)
(0.158578 0.0493289 0)
(-0.020587 0.0927026 0)
(0.907983 0.493536 0)
(-0.0629442 0.167895 0)
(0.116447 0.0178343 0)
(0.177531 -0.000814658 0)
(0.184346 -0.0217718 0)
(0.214367 -0.0671713 0)
(0.239136 -0.112454 0)
(0.242521 -0.148813 0)
(0.22655 -0.170108 0)
(0.196898 -0.174216 0)
(0.159327 -0.162239 0)
(0.118746 -0.136782 0)
(0.0795498 -0.102632 0)
(0.0446296 -0.0652175 0)
(0.0176343 -0.0315132 0)
(0.000422586 -0.00706021 0)
(-0.0069649 0.00590454 0)
(-0.00649245 0.00961806 0)
(-0.00564619 0.0065414 0)
(-0.00714141 0.0010408 0)
(-0.0105643 -0.00371581 0)
(-0.0159126 -0.00657891 0)
(-0.0215777 -0.00771752 0)
(-0.0264151 -0.00767053 0)
(-0.0295138 -0.00723373 0)
(-0.0307508 -0.007421 0)
(-0.0307241 -0.00833704 0)
(-0.029923 -0.00947667 0)
(-0.0284497 -0.01022 0)
(-0.0260649 -0.00990714 0)
(-0.0219674 -0.00774262 0)
(-0.0137431 -0.00296904 0)
(-0.00370739 0.00383166 0)
(0.0078684 0.0113826 0)
(0.0195226 0.0174111 0)
(0.0364389 0.0237529 0)
(0.0521266 0.0191844 0)
(0.0760157 0.00349442 0)
(0.140501 0.0459022 0)
(-0.415225 0.206154 0)
(1.05582 0.438334 0)
(0.511291 0.293476 0)
(0.526065 0.235346 0)
(0.529156 0.16002 0)
(0.498311 0.0937215 0)
(0.460303 0.0271766 0)
(0.409711 -0.0370028 0)
(0.352347 -0.0859098 0)
(0.289272 -0.113111 0)
(0.22302 -0.119433 0)
(0.15765 -0.109411 0)
(0.0961903 -0.0870885 0)
(0.0422461 -0.0578329 0)
(-0.00318315 -0.026708 0)
(-0.0313505 -0.0054274 0)
(-0.0442387 0.00455067 0)
(-0.0475858 0.00841475 0)
(-0.0472697 0.00879849 0)
(-0.0467726 0.00655713 0)
(-0.0477497 0.00317796 0)
(-0.05014 0.000104406 0)
(-0.0535683 -0.00204855 0)
(-0.0575189 -0.00342479 0)
(-0.0611698 -0.00440633 0)
(-0.0641346 -0.00536685 0)
(-0.0665337 -0.0065967 0)
(-0.0688834 -0.00797557 0)
(-0.0717273 -0.00909824 0)
(-0.075552 -0.00940094 0)
(-0.080906 -0.00816932 0)
(-0.088482 -0.00452884 0)
(-0.0986402 0.00232289 0)
(-0.110105 0.0123894 0)
(-0.125538 0.0258636 0)
(-0.149864 0.0428561 0)
(-0.185633 0.0623351 0)
(-0.234449 0.0805053 0)
(-0.287736 0.0939858 0)
(-0.358763 0.10145 0)
(-0.629532 0.102695 0)
(0.247993 0.0248018 0)
(0.305979 0.0717028 0)
(0.315883 0.0409983 0)
(0.285987 -0.00555022 0)
(0.256554 -0.0394164 0)
(0.216147 -0.0583544 0)
(0.165926 -0.0645109 0)
(0.109815 -0.0600934 0)
(0.0532152 -0.0473171 0)
(-0.00336422 -0.0260138 0)
(-0.0472107 -0.00591452 0)
(-0.0713621 0.00444978 0)
(-0.0818577 0.00829558 0)
(-0.0848472 0.00948913 0)
(-0.0850055 0.00979045 0)
(-0.0841534 0.009386 0)
(-0.0836648 0.00818512 0)
(-0.0843031 0.00655007 0)
(-0.0860717 0.00502621 0)
(-0.0885479 0.00385467 0)
(-0.0912919 0.00287115 0)
(-0.0941907 0.00187977 0)
(-0.0972052 0.000779899 0)
(-0.100448 -0.000319836 0)
(-0.104101 -0.00110564 0)
(-0.108296 -0.00119596 0)
(-0.113032 -0.000171943 0)
(-0.118157 0.00238887 0)
(-0.123155 0.00697172 0)
(-0.127417 0.0142084 0)
(-0.131244 0.0251856 0)
(-0.134754 0.0405038 0)
(-0.138844 0.0594951 0)
(-0.14397 0.0788552 0)
(-0.146431 0.0893303 0)
(-0.130472 0.0697954 0)
(-0.093995 -0.0223024 0)
(-0.279101 -0.204359 0)
(0.132527 0.300202 0)
(-0.0047956 0.169678 0)
(0.0103613 0.0793027 0)
(0.0140627 0.0275848 0)
(0.0124356 0.00169364 0)
(0.00158397 -0.0105056 0)
(-0.0275219 -0.0112645 0)
(-0.0611084 -0.0057331 0)
(-0.0908035 0.00106312 0)
(-0.110481 0.00573202 0)
(-0.118638 0.00651666 0)
(-0.120276 0.00526428 0)
(-0.119306 0.00356661 0)
(-0.117283 0.0019831 0)
(-0.115039 0.000623641 0)
(-0.112978 -0.000868083 0)
(-0.111556 -0.00282648 0)
(-0.111051 -0.00520124 0)
(-0.111392 -0.00762015 0)
(-0.112258 -0.00965188 0)
(-0.113318 -0.0110367 0)
(-0.114395 -0.0117309 0)
(-0.115464 -0.0118136 0)
(-0.11663 -0.0113991 0)
(-0.117939 -0.0105034 0)
(-0.11932 -0.00912454 0)
(-0.120524 -0.00696878 0)
(-0.121146 -0.00361118 0)
(-0.120657 0.0013429 0)
(-0.118032 0.00856676 0)
(-0.111834 0.0189719 0)
(-0.10071 0.0334602 0)
(-0.0842586 0.0518968 0)
(-0.0631392 0.0708295 0)
(-0.0395404 0.083707 0)
(-0.00248603 0.0730983 0)
(0.14494 0.000168784 0)
(-0.207567 -0.116631 0)
(-0.398863 -0.498919 0)
(-0.619019 -0.145026 0)
(-0.445047 0.153707 0)
(-0.370859 0.0409975 0)
(-0.249451 -0.00477803 0)
(-0.201755 -0.0223724 0)
(-0.184613 -0.0220893 0)
(-0.181559 -0.014081 0)
(-0.182789 -0.00488315 0)
(-0.182197 0.0031224 0)
(-0.178193 0.00965801 0)
(-0.171483 0.014597 0)
(-0.163419 0.0178238 0)
(-0.15555 0.0201404 0)
(-0.148451 0.0224148 0)
(-0.141991 0.0250279 0)
(-0.135854 0.028064 0)
(-0.129883 0.0313755 0)
(-0.124198 0.0347043 0)
(-0.119047 0.0376933 0)
(-0.114643 0.0399005 0)
(-0.111113 0.0409315 0)
(-0.108507 0.0406192 0)
(-0.10681 0.0390726 0)
(-0.105954 0.0365733 0)
(-0.105822 0.0334755 0)
(-0.106229 0.0301296 0)
(-0.106845 0.0270119 0)
(-0.107238 0.0243261 0)
(-0.106731 0.0223192 0)
(-0.104155 0.0215173 0)
(-0.0976865 0.0224376 0)
(-0.084835 0.0257606 0)
(-0.0635471 0.032344 0)
(-0.0340442 0.0427713 0)
(0.0128553 0.0574039 0)
(0.0583454 0.0605498 0)
(0.101444 0.0458917 0)
(0.165426 0.0146699 0)
(-0.217355 -0.0419744 0)
)
;

boundaryField
{
    floor
    {
        type            noSlip;
    }
    ceiling
    {
        type            noSlip;
    }
    sWall
    {
        type            noSlip;
    }
    nWall
    {
        type            noSlip;
    }
    sideWalls
    {
        type            empty;
    }
    glass1
    {
        type            noSlip;
    }
    glass2
    {
        type            noSlip;
    }
    sun
    {
        type            noSlip;
    }
    Table_master
    {
        type            noSlip;
    }
    Table_slave
    {
        type            noSlip;
    }
    inlet
    {
        type            fixedValue;
        value           uniform (0.46194 -0.191342 0);
    }
    outlet
    {
        type            zeroGradient;
    }
}


// ************************************************************************* //
