/*--------------------------------*- C++ -*----------------------------------*\
  =========                 |
  \\      /  F ield         | OpenFOAM: The Open Source CFD Toolbox
   \\    /   O peration     | Website:  https://openfoam.org
    \\  /    A nd           | Version:  6
     \\/     M anipulation  |
\*---------------------------------------------------------------------------*/
FoamFile
{
    version     2.0;
    format      ascii;
    class       volScalarField;
    location    "200";
    object      epsilon;
}
// * * * * * * * * * * * * * * * * * * * * * * * * * * * * * * * * * * * * * //

dimensions      [0 2 -3 0 0 0 0];

internalField   nonuniform List<scalar> 
778
(
0.00193648
0.00275338
0.00330278
0.00404984
0.00444131
0.00430684
0.00375142
0.00317633
0.00270777
0.00229028
0.00191191
0.00156907
0.00130022
0.00105684
0.000812053
1.83993e-05
2.04349e-05
1.99855e-05
2.24686e-05
2.69193e-05
3.32563e-05
4.15851e-05
5.18415e-05
6.36273e-05
7.63316e-05
8.94651e-05
0.00010298
0.000117536
0.000133488
0.000150888
0.000160105
0.000160367
0.000102214
0.00333653
0.00402305
0.00321221
0.00406928
0.00430538
0.00406572
0.00352944
0.00299419
0.00250293
0.0020748
0.00172275
0.00144653
0.00124426
0.00110376
0.000915432
0.00133087
0.00103735
0.000693124
4.23654e-05
5.34385e-05
2.05747e-05
1.83003e-05
1.83826e-05
2.10168e-05
2.72062e-05
3.62803e-05
4.80639e-05
6.16764e-05
7.48886e-05
8.48329e-05
9.17812e-05
0.000106419
0.000132654
0.000155632
0.000200738
0.00022221
0.00499581
0.00742857
0.00576013
0.00562825
0.00481446
0.00421442
0.00363162
0.00307525
0.00257359
0.00214903
0.00180725
0.00153923
0.00132155
0.00114133
0.000957891
0.000919124
0.000956818
0.00100686
9.00978e-05
0.000221709
7.39309e-05
4.08215e-05
2.22408e-05
1.95175e-05
2.08591e-05
2.40164e-05
2.84285e-05
3.35985e-05
3.85875e-05
4.31841e-05
5.66689e-05
0.000118527
0.000119937
0.000153907
0.000244751
0.000288766
0.00688545
0.0118551
0.0109873
0.00689691
0.00535059
0.00441706
0.00366036
0.00301123
0.00247105
0.00204121
0.00171133
0.00145936
0.00126055
0.00109733
0.000948233
0.000854483
0.000850882
0.00088087
0.00114646
0.00059476
0.000439347
0.000292561
0.000207926
0.000118178
0.000103764
7.97812e-05
9.44812e-05
0.000118372
0.000127528
0.00012916
0.000128475
0.000128208
0.00013171
9.90043e-05
0.000100618
0.000154556
0.000368687
0.00712105
0.0098964
0.00898541
0.00676758
0.00551092
0.00449436
0.00361396
0.00287696
0.00229065
0.00184533
0.00151858
0.00127814
0.00110273
0.000969626
0.000858975
0.000772606
0.000726747
0.000708078
0.000743584
0.000597728
0.000479017
0.00037223
0.000290133
0.000218378
0.000186657
0.000193985
0.000205042
0.000198286
0.0001807
0.000160542
0.000140549
0.00012074
0.000100969
8.76904e-05
8.40017e-05
9.39173e-05
0.000315401
0.000427677
0.000440769
0.000376922
0.0067154
0.00730793
0.00729898
0.00666068
0.00562885
0.00450812
0.00349996
0.00268443
0.00206593
0.00161906
0.00131089
0.0010919
0.000937744
0.000827734
0.000744077
0.000677278
0.000630556
0.000602766
0.000594414
0.000528925
0.000450526
0.0003723
0.000303969
0.000246361
0.000207485
0.000186404
0.000172752
0.000161265
0.000149697
0.000137148
0.000124267
0.000111433
9.93795e-05
9.05368e-05
8.54637e-05
8.29841e-05
9.89315e-05
0.00019292
0.00107432
0.00061571
0.0085266
0.0133022
0.0112824
0.00869108
0.00623974
0.00437622
0.00308369
0.00220447
0.0016071
0.00121051
0.000967007
0.000825627
0.000738574
0.000677645
0.000629278
0.000587233
0.000553112
0.000528616
0.000510021
0.000468677
0.000413757
0.00035483
0.000299444
0.000251442
0.000213785
0.000185517
0.000163487
0.00014537
0.000130927
0.000119689
0.000110789
0.000103586
9.78136e-05
9.37191e-05
9.11556e-05
9.0274e-05
0.000103072
0.00026474
0.00298353
0.00115964
0.00996341
0.023984
0.012888
0.00708067
0.0038909
0.00228883
0.00146667
0.000995132
0.000708963
0.000545939
0.000474736
0.000500033
0.000523324
0.00052873
0.000521164
0.000505688
0.000488081
0.000472481
0.000455868
0.00042628
0.000385751
0.000340258
0.00029549
0.000255237
0.00022131
0.000193386
0.000170496
0.000151808
0.000136832
0.000126003
0.000118578
0.000113697
0.000110526
0.000108391
0.00010672
0.00010708
0.00013675
0.000677586
0.00993371
0.00287834
0.00972602
0.0152588
0.00483683
0.00238501
0.00137107
0.000789735
0.000494289
0.000348564
0.000282573
0.00025291
0.00025042
0.000292728
0.000368326
0.000410506
0.000430099
0.000435399
0.000433115
0.000427994
0.000417851
0.000397198
0.000367242
0.000332235
0.00029656
0.000263436
0.000234423
0.000209781
0.000189437
0.000173296
0.000161053
0.000152952
0.00014824
0.00014548
0.000143432
0.000141455
0.000139985
0.00014641
0.00023826
0.00174222
0.0221143
0.00411583
0.00650963
0.00545069
0.00238098
0.00164168
0.00118508
0.000577285
0.000309756
0.00021926
0.000189766
0.000181902
0.000187171
0.000211156
0.00026509
0.000324627
0.000362189
0.000380828
0.00038915
0.00039301
0.000390109
0.000377694
0.000356946
0.00033127
0.000304242
0.000278677
0.000256219
0.000237684
0.0002236
0.000214212
0.000209113
0.000205799
0.00020348
0.000200114
0.000194866
0.000188646
0.000185647
0.000210285
0.000456699
0.00403252
0.0176812
0.00437477
0.00662428
0.00652657
0.00221012
0.00185012
0.00153302
0.000702556
0.000326
0.000214082
0.000183887
0.000177186
0.000180085
0.000193006
0.000221695
0.000268446
0.000311563
0.00034186
0.000360587
0.000371401
0.000374323
0.000369354
0.000357347
0.000341205
0.000324007
0.00030839
0.000296143
0.000288193
0.000284593
0.000284209
0.00028454
0.000282053
0.000273504
0.000258995
0.000239479
0.000217377
0.000200312
0.000225863
0.000522263
0.00372259
0.0144671
0.0044085
0.00735812
0.00799092
0.0023886
0.00225777
0.00211708
0.00094385
0.000398002
0.000244428
0.000206313
0.000197687
0.000197946
0.000204665
0.000220774
0.000249552
0.00028627
0.00032058
0.00034787
0.000367433
0.000379051
0.000381756
0.000379399
0.000374747
0.000370334
0.000368031
0.000368525
0.000370908
0.00037281
0.0003709
0.000361851
0.000343564
0.00031602
0.000281307
0.000243279
0.000207384
0.000184213
0.00021734
0.00056838
0.00333713
0.0122057
0.00430932
0.00752374
0.00908856
0.00253314
0.00271613
0.00290354
0.00124806
0.000494947
0.000293669
0.000245848
0.00023466
0.000233099
0.000236822
0.000247135
0.000266282
0.000295342
0.000328464
0.000360574
0.000388533
0.000410873
0.00042597
0.000437634
0.000446243
0.00045365
0.000460522
0.00046502
0.000464147
0.000454877
0.000434966
0.000403859
0.000363021
0.0003157
0.000266236
0.000219421
0.000180806
0.000161775
0.000214638
0.000682579
0.00325476
0.0108061
0.00421443
0.00700744
0.00989972
0.00268488
0.0031267
0.00382003
0.00155629
0.000601616
0.000360018
0.000301857
0.000287156
0.000284261
0.000287362
0.000296657
0.000313443
0.000338405
0.000370527
0.000405839
0.000440782
0.000472732
0.000499535
0.00052173
0.000538065
0.000548321
0.000551411
0.000544578
0.000525279
0.000493612
0.000450748
0.000399306
0.000343159
0.00028671
0.000234263
0.000189853
0.000158595
0.000155753
0.000265005
0.000912368
0.00341753
0.0101341
0.00420697
0.00612618
0.00510728
0.00315841
0.0032536
0.00451857
0.00178867
0.000704152
0.000442795
0.000374828
0.000355597
0.000351207
0.000354354
0.00036415
0.000381111
0.000405349
0.000437187
0.000473627
0.000511252
0.00054662
0.00057644
0.000598463
0.000610432
0.00061092
0.000598729
0.000573045
0.000534439
0.000485355
0.000429414
0.000370749
0.000313526
0.000261496
0.000218024
0.000187091
0.000177256
0.000217985
0.000426505
0.00121329
0.00379215
0.0101078
0.00435111
0.00112954
0.00311659
0.00465281
0.00181514
0.000780757
0.000533294
0.000463175
0.000441769
0.000436604
0.000439582
0.000449007
0.000464797
0.000486873
0.00051566
0.000548481
0.000581835
0.000611861
0.00063471
0.000647273
0.00064738
0.0006341
0.000607651
0.000569487
0.000522379
0.00047008
0.000416705
0.000366187
0.000322056
0.000287581
0.00026663
0.000266043
0.000301937
0.000417805
0.000739519
0.00165051
0.00444245
0.0104345
0.00470438
0.00624555
0.00644727
0.0024072
0.00110683
0.000733253
0.000610288
0.000569869
0.00055716
0.000555121
0.00055901
0.000567865
0.000581707
0.000600362
0.000622994
0.00064852
0.000672893
0.00069247
0.000703999
0.000705167
0.000694951
0.000673753
0.000643326
0.000606584
0.000567244
0.000529323
0.000496735
0.000473021
0.000461378
0.00046512
0.000488994
0.000542817
0.000649158
0.000861662
0.0013137
0.00238893
0.00555602
0.0101169
0.0055492
0.00647579
0.00523396
0.00239144
0.00178905
0.00110969
0.000869415
0.000802491
0.000784798
0.000781145
0.00078231
0.000785197
0.000788618
0.000792174
0.000795921
0.000800215
0.000805573
0.000814265
0.000823922
0.000831327
0.000834871
0.000833617
0.000827633
0.000818175
0.000807503
0.000798532
0.000794428
0.000798306
0.000813159
0.000841776
0.000887987
0.000954354
0.0010443
0.00117386
0.00137676
0.00171609
0.00233411
0.00359482
0.0069079
0.00947568
0.00643231
0.00457056
0.00326376
0.0020146
0.00151153
0.00126474
0.00118099
0.00113336
0.0011079
0.00110478
0.00111987
0.00114806
0.0011855
0.00122937
0.00127727
0.0013267
0.00137445
0.00141605
0.00145137
0.00148126
0.00150779
0.00153261
0.00155756
0.00158494
0.00161733
0.00165736
0.00170777
0.00177188
0.00185489
0.00196193
0.00209787
0.00227059
0.00249113
0.00276959
0.00312745
0.00361737
0.00431675
0.00533219
0.00707746
0.00939591
0.00589353
0.00399582
0.00183123
0.00115703
0.00112162
0.00110596
0.00109874
0.00110199
0.0011178
0.00114305
0.00117357
0.00120583
0.00123725
0.00126606
0.00129115
0.00131207
0.00132901
0.001343
0.00135611
0.00137151
0.00138648
0.00140357
0.0014259
0.00145624
0.00149704
0.00155078
0.00162066
0.00171056
0.00182111
0.00195682
0.0021233
0.0023272
0.00257625
0.00287947
0.00324876
0.00370137
0.00426344
0.00493442
0.00578904
0.00676732
0.0048089
)
;

boundaryField
{
    floor
    {
        Cmu             0.09;
        kappa           0.41;
        E               9.8;
        type            epsilonWallFunction;
        value           nonuniform List<scalar> 
36
(
0.000812053
1.83993e-05
2.04349e-05
1.99855e-05
2.24686e-05
2.69193e-05
3.32563e-05
4.15851e-05
5.18415e-05
6.36273e-05
7.63316e-05
8.94651e-05
0.00010298
0.000117536
0.000133488
0.000150888
0.000160105
0.000160367
0.000102214
0.000102214
0.00022221
0.000288766
0.000368687
0.000427677
0.000440769
0.000376922
0.000812053
0.00133087
0.00103735
0.000693124
1.83993e-05
0.000693124
4.23654e-05
0.00100686
9.00978e-05
0.00114646
)
;
    }
    ceiling
    {
        Cmu             0.09;
        kappa           0.41;
        E               9.8;
        type            epsilonWallFunction;
        value           nonuniform List<scalar> 
43
(
0.00399582
0.00183123
0.00115703
0.00112162
0.00110596
0.00109874
0.00110199
0.0011178
0.00114305
0.00117357
0.00120583
0.00123725
0.00126606
0.00129115
0.00131207
0.00132901
0.001343
0.00135611
0.00137151
0.00138648
0.00140357
0.0014259
0.00145624
0.00149704
0.00155078
0.00162066
0.00171056
0.00182111
0.00195682
0.0021233
0.0023272
0.00257625
0.00287947
0.00324876
0.00370137
0.00426344
0.00493442
0.00578904
0.00676732
0.0048089
0.00612618
0.00510728
0.00624555
)
;
    }
    sWall
    {
        Cmu             0.09;
        kappa           0.41;
        E               9.8;
        type            epsilonWallFunction;
        value           nonuniform List<scalar> 9(0.00650963 0.00662428 0.00735812 0.00752374 0.00700744 0.00612618 0.00647579 0.00457056 0.00399582);
    }
    nWall
    {
        Cmu             0.09;
        kappa           0.41;
        E               9.8;
        type            epsilonWallFunction;
        value           nonuniform List<scalar> 
14
(
0.000376922
0.00061571
0.00115964
0.00437477
0.0044085
0.00430932
0.00421443
0.00420697
0.00435111
0.00470438
0.0055492
0.00643231
0.00589353
0.0048089
)
;
    }
    sideWalls
    {
        type            empty;
    }
    glass1
    {
        Cmu             0.09;
        kappa           0.41;
        E               9.8;
        type            epsilonWallFunction;
        value           nonuniform List<scalar> 9(0.00193648 0.00333653 0.00499581 0.00688545 0.00712105 0.0067154 0.0085266 0.00996341 0.00972602);
    }
    glass2
    {
        Cmu             0.09;
        kappa           0.41;
        E               9.8;
        type            epsilonWallFunction;
        value           nonuniform List<scalar> 2(0.00287834 0.00411583);
    }
    sun
    {
        Cmu             0.09;
        kappa           0.41;
        E               9.8;
        type            epsilonWallFunction;
        value           nonuniform List<scalar> 
14
(
0.00193648
0.00275338
0.00330278
0.00404984
0.00444131
0.00430684
0.00375142
0.00317633
0.00270777
0.00229028
0.00191191
0.00156907
0.00130022
0.00105684
)
;
    }
    Table_master
    {
        Cmu             0.09;
        kappa           0.41;
        E               9.8;
        type            epsilonWallFunction;
        value           nonuniform List<scalar> 9(1.95175e-05 2.08591e-05 2.40164e-05 2.84285e-05 3.35985e-05 3.85875e-05 4.31841e-05 5.66689e-05 0.000118527);
    }
    Table_slave
    {
        Cmu             0.09;
        kappa           0.41;
        E               9.8;
        type            epsilonWallFunction;
        value           nonuniform List<scalar> 9(0.000103764 7.97812e-05 9.44812e-05 0.000118372 0.000127528 0.00012916 0.000128475 0.000128208 0.00013171);
    }
    inlet
    {
        type            turbulentMixingLengthDissipationRateInlet;
        mixingLength    0.01;
        phi             phi;
        k               k;
        value           uniform 0.000471671;
    }
    outlet
    {
        type            zeroGradient;
    }
}


// ************************************************************************* //
