/*--------------------------------*- C++ -*----------------------------------*\
  =========                 |
  \\      /  F ield         | OpenFOAM: The Open Source CFD Toolbox
   \\    /   O peration     | Website:  https://openfoam.org
    \\  /    A nd           | Version:  6
     \\/     M anipulation  |
\*---------------------------------------------------------------------------*/
FoamFile
{
    version     2.0;
    format      ascii;
    class       volScalarField;
    location    "200";
    object      nut;
}
// * * * * * * * * * * * * * * * * * * * * * * * * * * * * * * * * * * * * * //

dimensions      [0 2 -1 0 0 0 0];

internalField   nonuniform List<scalar> 
778
(
0.00153767
0.00197392
0.00183749
0.00202352
0.00292552
0.00248006
0.00197563
0.0033978
0.00360414
0.00264666
0.00191319
0.00350275
0.00385545
0.00450624
0.00273936
0.00185242
0.00343943
0.00375484
0.00437329
0.0052311
0.0027997
0.00179535
0.00334307
0.00356478
0.00381955
0.00447651
0.00555636
0.00284703
0.00174152
0.00325013
0.00340684
0.00333989
0.00337318
0.00409163
0.0054108
0.00289875
0.00169095
0.00316543
0.00330083
0.0030219
0.00264035
0.00264128
0.00344895
0.00491527
0.00297153
0.00164239
0.0030673
0.00324087
0.00284571
0.00221935
0.00186875
0.00199826
0.0028474
0.00428919
0.00308189
0.00159342
0.00293974
0.003194
0.00278296
0.00200828
0.0015
0.00141096
0.00165032
0.00243617
0.00382219
0.00324181
0.00154146
0.00278706
0.00313684
0.00279394
0.00194441
0.00133913
0.00122878
0.00137226
0.00155743
0.00225028
0.00373204
0.00343858
0.00148276
0.00261157
0.00305997
0.00282241
0.00201642
0.00129126
0.00118169
0.0013682
0.00146446
0.00153508
0.00226135
0.00378642
0.00368966
0.00140983
0.00240813
0.00295202
0.00284842
0.00215906
0.00135206
0.00116504
0.00139062
0.00150749
0.00149213
0.00158657
0.00244845
0.00402179
0.00403381
0.00131819
0.00215221
0.002796
0.002853
0.00232952
0.00152747
0.00116607
0.00136767
0.00154312
0.00153689
0.00157052
0.00172188
0.00295414
0.0045687
0.00454781
0.00176946
0.00256271
0.00281261
0.00248928
0.00178609
0.0012185
0.00132171
0.00148302
0.00158413
0.0015925
0.00172974
0.00201068
0.0043251
0.00540457
0.00131453
0.00222073
0.00269232
0.00260138
0.00207188
0.00142904
0.00119095
0.00140923
0.00148801
0.00165143
0.00169475
0.00203931
0.00280477
0.0074896
0.00120947
0.00188031
0.00246283
0.00262449
0.00232175
0.00175489
0.00127416
0.00123257
0.00134899
0.00156597
0.00177529
0.00187111
0.00266686
0.00508737
0.0102341
0.00101652
0.00167295
0.00219969
0.0025253
0.00247729
0.00208988
0.00158331
0.0012526
0.0012792
0.00144953
0.00174626
0.00191317
0.00224878
0.00385798
0.00739174
0.00375617
0.00110865
0.00196421
0.00234698
0.00249585
0.0023403
0.00195843
0.00155275
0.0013725
0.00144268
0.00166871
0.00196184
0.0020768
0.00303864
0.00565096
0.00713863
0.00522491
0.00151884
0.00213558
0.00239883
0.00244488
0.00226177
0.00194631
0.00166065
0.00156915
0.00167311
0.00190634
0.00218786
0.00239877
0.00433452
0.007651
0.00775939
0.00454399
0.00833006
0.000964014
0.00178515
0.00222702
0.00240949
0.00241144
0.00225423
0.00200522
0.00181292
0.00177986
0.00190248
0.00215909
0.00240206
0.00310947
0.00599362
0.00871308
0.00964722
0.00290587
0.00817023
0.00248188
0.000925278
0.00143695
0.0019425
0.00227099
0.00240691
0.00239407
0.00226313
0.0020817
0.00196245
0.00197507
0.00212897
0.00244998
0.00266412
0.00448301
0.00779874
0.0102141
0.00260372
0.00349461
0.00264246
0.000566032
0.00119278
0.00129915
0.00173152
0.00204275
0.00228121
0.00238624
0.00237229
0.00227496
0.00215512
0.00209921
0.00216399
0.00238279
0.00276776
0.00347508
0.00674501
0.0101437
0.00262481
0.00273919
0.000488749
0.00129567
0.00089321
0.001563
0.00177904
0.00196658
0.00212747
0.00228516
0.00236188
0.00235294
0.00229086
0.00222955
0.00223961
0.00237698
0.00270839
0.00317623
0.00578922
0.00974316
0.00254611
0.000348003
0.00132067
0.000848205
0.000643654
0.00160618
0.00205189
0.00215904
0.00218883
0.00223521
0.00231013
0.00235417
0.00235002
0.00232394
0.00232401
0.00241304
0.00265978
0.00312171
0.00506692
0.00903568
0.00242373
0.000346256
0.000629667
0.000593084
0.000545209
0.00153425
0.00218589
0.00230516
0.00240755
0.00239469
0.00237026
0.00237005
0.00237798
0.00237772
0.00239145
0.00246409
0.00266206
0.00305729
0.00452323
0.00806266
0.0022842
0.000213431
0.000385037
0.000433354
0.000481021
0.00152311
0.00212297
0.00250447
0.00246365
0.00254896
0.00256729
0.0025197
0.0024625
0.00243733
0.00244545
0.00251192
0.00268731
0.00304567
0.00419676
0.00691941
0.00216059
0.000140978
0.000298075
0.000231007
0.000515713
0.00159167
0.00214759
0.00250056
0.00270906
0.00256713
0.00261718
0.00269282
0.00266226
0.00257245
0.00252701
0.00256124
0.00271674
0.00306224
0.00405157
0.006046
0.00208489
0.000125501
0.000261386
0.000176256
0.000552035
0.00173018
0.00225172
0.00254072
0.0027615
0.00286631
0.00265577
0.00264852
0.00276919
0.00277787
0.00268158
0.00264352
0.00275024
0.0030846
0.00399619
0.00547153
0.00201467
0.000120318
0.000207512
0.000143535
0.000590649
0.00188691
0.00238999
0.002638
0.00282468
0.00297821
0.00302064
0.00276059
0.00267618
0.00280598
0.00285585
0.00278357
0.00281005
0.00310424
0.0039778
0.00511489
0.00195501
0.000119751
0.000172656
0.000193065
0.00063324
0.00205035
0.00253096
0.00275236
0.00293014
0.00307909
0.00319217
0.0031952
0.00289957
0.00272474
0.00281999
0.00290675
0.00291395
0.00313876
0.00397764
0.00490416
0.0019089
0.000119533
0.000176711
0.000242326
0.000682589
0.00221552
0.00266349
0.00286096
0.00304922
0.00321635
0.0033349
0.00341705
0.00338907
0.00306882
0.00280381
0.00284007
0.00299637
0.00321749
0.00403573
0.00478926
0.00187501
0.000128472
0.000199835
0.000285338
0.000742309
0.00237612
0.0027834
0.00295523
0.00316561
0.00337195
0.0035086
0.0035901
0.00363587
0.00355746
0.00321421
0.00290145
0.00293925
0.00327743
0.00418196
0.00479076
0.00184858
0.000137093
0.000242031
0.000334645
0.00081458
0.00253118
0.00288876
0.00303268
0.00327241
0.00353529
0.00370196
0.00378245
0.0038119
0.00377743
0.00356994
0.00319593
0.00295892
0.00317924
0.00430827
0.0049818
0.00183148
0.000145377
0.000328296
0.000405181
0.000911858
0.0027016
0.00297841
0.00309378
0.00336573
0.00370223
0.00390568
0.00398612
0.00398958
0.00391942
0.00369347
0.00329733
0.0029701
0.00308046
0.00441437
0.0053476
0.00185097
0.000156551
0.000458033
0.000528964
0.00267887
0.00290058
0.00306181
0.00314123
0.00344201
0.0038699
0.00411401
0.0041899
0.00416432
0.00405512
0.00379038
0.00336941
0.00307341
0.00326795
0.00473913
0.00589462
0.00189546
0.000172822
0.000613435
0.00187485
0.0029923
0.00316037
0.00313505
0.00318065
0.00349749
0.00403365
0.0043209
0.00438516
0.00432631
0.00418722
0.0039139
0.00352689
0.00336317
0.00375721
0.0053474
0.00662423
0.00195882
0.000197626
0.00109657
0.00214756
0.00323762
0.003236
0.003191
0.00320399
0.00353447
0.00418418
0.00451763
0.0045649
0.00447095
0.00431404
0.0040664
0.00376649
0.00376297
0.00438467
0.00610779
0.00745199
0.00203604
0.000247692
0.00125652
0.00243916
0.000937105
0.00325948
0.00321134
0.00320847
0.00354361
0.00429525
0.00469158
0.00472406
0.00459969
0.00443866
0.0042437
0.00406735
0.00422011
0.00503596
0.00687496
0.008265
0.00212156
0.00029785
0.00145406
0.000734145
0.00316488
0.00319433
0.00318646
0.00352644
0.00438227
0.0048332
0.00486176
0.00471864
0.00456686
0.00443904
0.00440016
0.00469002
0.00565454
0.00756345
0.00898166
0.00220878
0.000377848
0.000532831
0.00116858
0.00310946
0.0031193
0.00348356
0.00444709
0.00496391
0.00499897
0.00485193
0.00471125
0.00464119
0.00472386
0.00513948
0.00619589
0.00813007
0.00956918
0.0022906
0.000376752
0.000992887
0.00261692
0.00296286
0.00340326
0.00449382
0.00508382
0.005143
0.00500397
0.00489284
0.00488013
0.00504409
0.00554606
0.00663575
0.00853847
0.010026
0.00236101
0.000855082
0.00217934
0.0026276
0.00326101
0.00453022
0.00518741
0.00529187
0.00516653
0.00508338
0.00512691
0.00534549
0.00589154
0.00697595
0.00881066
0.0103546
0.0024172
0.000960982
0.00210964
0.00304077
0.00456135
0.00527173
0.00543509
0.00533755
0.00526552
0.00534666
0.00560901
0.00617379
0.00722821
0.00897178
0.0105313
0.00245927
0.000950473
0.00266861
0.00463453
0.00536956
0.005541
0.00551783
0.00544072
0.00553163
0.0058227
0.00639362
0.00740469
0.00904781
0.0105941
0.00249196
0.00132779
0.00479271
0.00565326
0.00558011
0.00567937
0.00562675
0.00568833
0.00598612
0.00655411
0.00751703
0.00906138
0.0105851
0.00251247
0.00153299
0.00538304
0.00572148
0.00571557
0.00583689
0.0058396
0.00610621
0.00666043
0.00757572
0.00903031
0.010538
0.00252187
0.00156415
0.00569006
0.00565928
0.00597277
0.00602679
0.00620187
0.00671961
0.00758946
0.00896745
0.0104742
0.00252316
0.00153332
0.00569551
0.0058906
0.00623976
0.00631668
0.00674352
0.00756442
0.00888062
0.0104032
0.00251973
0.00157695
0.00594535
0.00627321
0.00650009
0.00676122
0.00750428
0.00877189
0.0103236
0.0025144
0.00164721
0.00635069
0.00660519
0.00683402
0.00741626
0.00863641
0.0102252
0.00250888
0.0017296
0.00671498
0.00692844
0.00733064
0.00846287
0.0100902
0.00250338
0.00182803
0.00694818
0.00726754
0.00823961
0.00989295
0.00249622
0.00196104
0.00692718
0.00793541
0.00959727
0.00248344
0.00216049
0.00700993
0.00912654
0.00245833
0.0024811
0.00844159
0.00241497
0.00303986
0.00240685
0.00222354
)
;

boundaryField
{
    floor
    {
        type            nutkWallFunction;
        Cmu             0.09;
        kappa           0.41;
        E               9.8;
        value           nonuniform List<scalar> 
36
(
0.000157645
3.98036e-05
3.95661e-05
2.12313e-05
1.06124e-05
8.25541e-06
7.45524e-06
7.36623e-06
7.33088e-06
8.70859e-06
1.00262e-05
1.12816e-05
1.29586e-05
1.53708e-05
1.89883e-05
2.61064e-05
3.3042e-05
4.37997e-05
4.36501e-05
4.365e-05
6.38678e-05
8.89019e-05
0.000113317
0.000140436
0.000119918
0.000103533
0.000157645
0.000157227
0.000145169
0.000122704
3.98035e-05
0.000122704
5.82258e-05
0.000133486
6.80552e-05
0.000116508
)
;
    }
    ceiling
    {
        type            nutkWallFunction;
        Cmu             0.09;
        kappa           0.41;
        E               9.8;
        value           nonuniform List<scalar> 
43
(
0.000312913
0.000302662
0.000285573
0.00029853
0.000300764
0.000292405
0.000279354
0.00026439
0.000251051
0.000242845
0.000235203
0.000228688
0.000223638
0.000219918
0.000217012
0.000215127
0.000217271
0.000222158
0.000229097
0.000237522
0.000246813
0.000256249
0.000265064
0.000272623
0.000278638
0.000283132
0.000286618
0.000288803
0.000289804
0.000289941
0.000289575
0.000289007
0.000288419
0.000287832
0.000287068
0.000285705
0.000283025
0.000278392
0.000277523
0.000257835
0.000498526
0.000583704
0.000418411
)
;
    }
    sWall
    {
        type            nutkWallFunction;
        Cmu             0.09;
        kappa           0.41;
        E               9.8;
        value           nonuniform List<scalar> 9(0.000348919 0.000365555 0.000385911 0.000411713 0.000446796 0.000498647 0.000330551 0.000391737 0.000313013);
    }
    nWall
    {
        type            nutkWallFunction;
        Cmu             0.09;
        kappa           0.41;
        E               9.8;
        value           nonuniform List<scalar> 
14
(
0.000103535
0.000116152
0.000114909
0.000185459
0.000182001
0.000186893
0.000194741
0.000203895
0.000214771
0.000229368
0.000251062
0.000285498
0.000344443
0.000257875
)
;
    }
    sideWalls
    {
        type            empty;
    }
    glass1
    {
        type            nutkWallFunction;
        Cmu             0.09;
        kappa           0.41;
        E               9.8;
        value           nonuniform List<scalar> 9(0.000182658 0.000216016 0.000285705 0.000303431 0.000313242 0.000319608 0.00032459 0.000330024 0.000337654);
    }
    glass2
    {
        type            nutkWallFunction;
        Cmu             0.09;
        kappa           0.41;
        E               9.8;
        value           nonuniform List<scalar> 2(0.000158764 0.000181989);
    }
    sun
    {
        type            nutkWallFunction;
        Cmu             0.09;
        kappa           0.41;
        E               9.8;
        value           nonuniform List<scalar> 
14
(
0.000182506
0.000230797
0.000236211
0.000230984
0.000224147
0.000217471
0.000211181
0.000205227
0.000199616
0.000194211
0.000188743
0.00018292
0.000176317
0.000168072
)
;
    }
    Table_master
    {
        type            nutkWallFunction;
        Cmu             0.09;
        kappa           0.41;
        E               9.8;
        value           nonuniform List<scalar> 9(2.37277e-05 1.58463e-05 1.09817e-05 1.83088e-05 2.53363e-05 3.13147e-05 3.80224e-05 4.74e-05 6.33792e-05);
    }
    Table_slave
    {
        type            nutkWallFunction;
        Cmu             0.09;
        kappa           0.41;
        E               9.8;
        value           nonuniform List<scalar> 9(5.72384e-05 6.16796e-05 6.62901e-05 7.11511e-05 7.64681e-05 8.25751e-05 8.98959e-05 9.86631e-05 0.000110322);
    }
    inlet
    {
        type            calculated;
        value           uniform 0.00591667;
    }
    outlet
    {
        type            calculated;
        value           nonuniform List<scalar> 2(0.00290587 0.00454399);
    }
}


// ************************************************************************* //
