/*--------------------------------*- C++ -*----------------------------------*\
  =========                 |
  \\      /  F ield         | OpenFOAM: The Open Source CFD Toolbox
   \\    /   O peration     | Website:  https://openfoam.org
    \\  /    A nd           | Version:  6
     \\/     M anipulation  |
\*---------------------------------------------------------------------------*/
FoamFile
{
    version     2.0;
    format      ascii;
    class       volScalarField;
    location    "200";
    object      nut;
}
// * * * * * * * * * * * * * * * * * * * * * * * * * * * * * * * * * * * * * //

dimensions      [0 2 -1 0 0 0 0];

internalField   nonuniform List<scalar> 
458
(
0.00125451
0.00138225
0.00143189
0.00150921
0.00158413
0.00166131
0.00173827
0.00180131
0.00183987
0.00184106
0.00178342
0.00161906
0.0014558
0.00127604
0.00110592
0.000578
0.000676694
0.000786256
0.000844188
0.000838097
0.000785063
0.000726319
0.000674081
0.000629135
0.000590393
0.000556848
0.000527524
0.000501684
0.000478299
0.000456138
0.000433596
0.000413436
0.00037663
0.00162612
0.00394702
0.00378835
0.00437244
0.00497009
0.0054933
0.00591669
0.00633684
0.00671297
0.00699941
0.00713767
0.00694957
0.00640095
0.00523736
0.00343378
0.00133224
0.00116794
0.000981043
0.000563032
0.00147286
0.00232442
0.00294973
0.00307461
0.00211585
0.0017556
0.00152301
0.00135651
0.00123164
0.00113445
0.00105714
0.000985319
0.00090724
0.000830885
0.000764532
0.000856334
0.000445317
0.00193037
0.00530495
0.00461961
0.00532999
0.00566378
0.00591209
0.00615758
0.00647454
0.00687545
0.00733864
0.00777479
0.00793766
0.00773899
0.00717865
0.00591183
0.00418458
0.0030968
0.00110526
0.00073738
0.001559
0.0025707
0.00352151
0.00366506
0.00104279
0.000905357
0.00079173
0.000700348
0.000627103
0.000568117
0.000520286
0.000482326
0.000454845
0.000519806
0.000628168
0.00101494
0.000498809
0.00221741
0.00655822
0.00461533
0.0054081
0.00546112
0.00548268
0.00561317
0.005863
0.0062973
0.00688493
0.00746738
0.00776396
0.00776241
0.00749908
0.00685653
0.00577994
0.00451061
0.00241474
0.00119901
0.00159809
0.00251527
0.00372892
0.00474932
0.00473798
0.00119209
0.00108785
0.00100957
0.000945092
0.000889255
0.000837331
0.00078518
0.000729671
0.000666269
0.000606439
0.000633091
0.00119441
0.000550837
0.0025082
0.00818626
0.00483742
0.00529365
0.00529127
0.00521504
0.00528748
0.00549397
0.00596616
0.00662158
0.00720004
0.00750746
0.00752147
0.00734962
0.0070237
0.00646186
0.00562679
0.00440883
0.00413062
0.00472958
0.00558097
0.00640074
0.00692361
0.00691418
0.00580223
0.00517554
0.00477162
0.0044373
0.00404686
0.00357155
0.00302911
0.0024415
0.00184523
0.00132828
0.00101058
0.00113838
0.000888069
0.000711418
0.000760094
0.000825279
0.00282093
0.0100262
0.00626138
0.0053125
0.00551428
0.0053044
0.00527025
0.00543351
0.0059045
0.0065711
0.00715393
0.00742022
0.00737378
0.00721245
0.00709167
0.00700185
0.00680719
0.00655746
0.00691283
0.00767095
0.00826596
0.00858326
0.00859455
0.00830774
0.00773136
0.00718173
0.00669414
0.00621291
0.0056629
0.00504846
0.00436772
0.00362767
0.00285745
0.00213664
0.00161115
0.00130306
0.0010896
0.000971531
0.00122861
0.000858868
0.00311674
0.0113253
0.00860923
0.00636801
0.00611167
0.00570621
0.00543515
0.00553292
0.00602831
0.00672991
0.00730572
0.00750606
0.00740565
0.00737416
0.00767468
0.00803407
0.00828117
0.0085605
0.00910739
0.00961598
0.00978103
0.00964343
0.00926741
0.00872768
0.00809449
0.00748251
0.00691626
0.00636755
0.00580792
0.00526687
0.00470572
0.0041046
0.00345635
0.00279118
0.00224527
0.00182942
0.00156415
0.00147346
0.00141436
0.00103885
0.00318638
0.0100509
0.00872065
0.00759158
0.00679133
0.0059041
0.00549046
0.00567246
0.00630454
0.00707583
0.00760583
0.00768664
0.00760696
0.00813546
0.00876305
0.0091392
0.00941954
0.00972173
0.010041
0.0101642
0.0099408
0.00944561
0.00876942
0.00799479
0.00720458
0.00647971
0.00583952
0.00527348
0.00478785
0.00440731
0.00413997
0.00392991
0.00361124
0.00321622
0.00293582
0.00283328
0.00296967
0.00323278
0.00392491
0.00159292
0.00311925
0.0037412
0.00417316
0.00429916
0.00429748
0.0044494
0.0049632
0.00582526
0.00681967
0.0076275
0.00793198
0.00777427
0.00807661
0.00877763
0.00922251
0.00941538
0.00953767
0.00961522
0.00956594
0.00927988
0.00872676
0.00796563
0.0070782
0.0061577
0.00530732
0.00459665
0.00402693
0.00357831
0.00323408
0.00297542
0.0027793
0.00263881
0.00254585
0.00248255
0.00245075
0.00243358
0.00237784
0.00225163
0.00209573
0.00146435
0.00137591
0.0023888
0.00361974
0.00506416
0.00641994
0.00746565
0.00805801
0.00815203
0.00788905
0.00767824
0.0080548
0.00841068
0.00851582
0.00848776
0.00838692
0.00817534
0.00778666
0.00718343
0.00638754
0.00547916
0.00457964
0.00381698
0.00325709
0.00287915
0.00263388
0.00248152
0.00239435
0.00235415
0.00235122
0.00236862
0.00239778
0.00242996
0.0024492
0.00242514
0.00231945
0.00212869
0.00186976
0.0011744
0.00216756
0.00513919
0.00736373
0.00851184
0.00858267
0.00802275
0.00714656
0.00638515
0.00608586
0.00610221
0.00617209
0.00614418
0.00605205
0.00591079
0.00568573
0.00532978
0.00482111
0.00418903
0.00351586
0.00291373
0.00246764
0.00219142
0.00204585
0.0019838
0.00197421
0.00200391
0.00205774
0.00212663
0.00221092
0.00230808
0.00241451
0.00252107
0.00260916
0.00266585
0.00263705
0.00261247
0.00235241
0.00118943
0.00230201
0.0023611
0.00241582
0.0027228
0.00243177
0.00201971
0.0017118
0.00151712
0.00135141
0.00121078
0.00110344
0.00102847
0.000977125
0.000938256
0.000903351
0.00086659
0.000824333
0.000775772
0.000724158
0.000676594
0.000640679
0.000620506
0.000615525
0.000622684
0.000638946
0.000662335
0.000691716
0.00072577
0.000764981
0.000810101
0.000860884
0.000917678
0.000980973
0.0010512
0.00112803
0.0012319
0.00125832
0.00122633
0.00114168
0.00105223
)
;

boundaryField
{
    floor
    {
        type            nutkWallFunction;
        Cmu             0.09;
        kappa           0.41;
        E               9.8;
        value           nonuniform List<scalar> 
36
(
0.0001331
6.96019e-05
8.18691e-05
9.52388e-05
0.000102218
0.000101488
9.50958e-05
8.79559e-05
8.15489e-05
7.59884e-05
7.11568e-05
6.69422e-05
6.32322e-05
5.99419e-05
5.69459e-05
5.40898e-05
5.11666e-05
4.85355e-05
4.36895e-05
4.36894e-05
5.2685e-05
5.95683e-05
6.61758e-05
8.61228e-05
9.20589e-05
9.99381e-05
0.0001331
0.000159128
0.000140287
0.000118483
6.96019e-05
0.000118483
6.77196e-05
0.000133022
8.92999e-05
0.000143872
)
;
    }
    ceiling
    {
        type            nutkWallFunction;
        Cmu             0.09;
        kappa           0.41;
        E               9.8;
        value           nonuniform List<scalar> 
43
(
0.00026582
0.000272143
0.000277986
0.00031064
0.000279868
0.000235533
0.000201755
0.000180053
0.000161335
0.000145248
0.000132828
0.000124073
0.000118034
0.000113438
0.000109291
0.000104903
9.98326e-05
9.39671e-05
8.76847e-05
8.18475e-05
7.74067e-05
7.48988e-05
7.42769e-05
7.51671e-05
7.71866e-05
8.00807e-05
8.36996e-05
8.78714e-05
9.26463e-05
9.81047e-05
0.000104206
0.000110979
0.000118471
0.000126719
0.00013567
0.000147664
0.000150696
0.000147024
0.000137255
0.000126843
0.000352436
0.000416497
0.000251239
)
;
    }
    sWall
    {
        type            nutkWallFunction;
        Cmu             0.09;
        kappa           0.41;
        E               9.8;
        value           uniform 0.000265892;
    }
    nWall
    {
        type            nutkWallFunction;
        Cmu             0.09;
        kappa           0.41;
        E               9.8;
        value           nonuniform List<scalar> 6(9.99392e-05 0.000103971 0.000125278 0.000141055 0.000142791 0.00012685);
    }
    sideWalls
    {
        type            empty;
    }
    glass1
    {
        type            nutkWallFunction;
        Cmu             0.09;
        kappa           0.41;
        E               9.8;
        value           nonuniform List<scalar> 9(0.000150427 0.000192498 0.000226142 0.000257357 0.000288542 0.00032166 0.000352633 0.000359892 0.000352926);
    }
    glass2
    {
        type            nutkWallFunction;
        Cmu             0.09;
        kappa           0.41;
        E               9.8;
        value           nonuniform List<scalar> 2(0.000188621 0.000174191);
    }
    sun
    {
        type            nutkWallFunction;
        Cmu             0.09;
        kappa           0.41;
        E               9.8;
        value           nonuniform List<scalar> 
14
(
0.000150253
0.000164809
0.000170426
0.000179133
0.000187524
0.000196123
0.000204653
0.00021161
0.000215852
0.000215982
0.000209633
0.00019142
0.000173124
0.000152714
)
;
    }
    Table_master
    {
        type            nutkWallFunction;
        Cmu             0.09;
        kappa           0.41;
        E               9.8;
        value           nonuniform List<scalar> 9(0.000125739 0.000109524 9.59014e-05 8.47788e-05 7.57387e-05 6.83659e-05 6.23187e-05 5.74706e-05 5.39313e-05);
    }
    Table_slave
    {
        type            nutkWallFunction;
        Cmu             0.09;
        kappa           0.41;
        E               9.8;
        value           nonuniform List<scalar> 9(0.000143083 0.000131004 0.000121845 0.000114241 0.000107607 0.000101394 9.51079e-05 8.83628e-05 8.05834e-05);
    }
    inlet
    {
        type            calculated;
        value           uniform 0.000167705;
    }
    outlet
    {
        type            calculated;
        value           nonuniform List<scalar> 2(0.00230201 0.0023611);
    }
}


// ************************************************************************* //
