/*--------------------------------*- C++ -*----------------------------------*=========                 |
  \      /  F ield         | OpenFOAM: The Open Source CFD Toolbox
   \    /   O peration     | Website:  https://openfoam.org
    \  /    A nd           | Version:  6
     \/     M anipulation  |
\*---------------------------------------------------------------------------*/
FoamFile
{
    version     2.0;
    format      ascii;
    class       volScalarField;
    location    "200";
    object      PMV;
}
// * * * * * * * * * * * * * * * * * * * * * * * * * * * * * * * * * * * * * //

dimensions      [0 0 0 0 0 0 0];

internalField   nonuniform List<scalar> 
458
(
1.2790488859128109
1.02907725773083
0.991906836845572
0.9643522719313308
0.9491100083072803
0.9473534770104979
0.959291829591656
0.9879060174804097
1.0374346322002919
1.1128147321063249
1.1969340374064605
1.2165354182362018
1.2112314812756138
1.2098977438112395
1.2196675057430364
1.4344463028988599
1.41581763037741
1.4076968560589167
1.4167729926419916
1.4263263452867387
1.433491032735863
1.4212189315664492
1.4187969768504156
1.4215809557957055
1.425978809781187
1.4310618331127785
1.4373472505409437
1.4443148589336303
1.453939447256271
1.4689532330226243
1.4920459827544572
1.5156243554466864
1.5380601513222425
1.204163593792916
1.043958921688668
1.0287909152881438
1.0022453184089846
0.9883504143877895
0.9855926081292812
0.992847829439293
1.0065752245361275
1.0296868798952459
1.0693732350851823
1.132330976938156
1.2134577704193008
1.2318332879840777
1.2077345255930694
1.166492864032984
1.147047696204313
1.1737002969530843
1.2210980178061004
1.4151811746431282
1.3933652433308816
1.3904987957420887
1.3967493654672005
1.398977469586815
1.4036881185310885
1.4080509828113859
1.413527159020035
1.4186711559438032
1.423485065010501
1.4285059839497949
1.4342842560339044
1.4403993873174
1.4485686145898315
1.4620827528003726
1.48761257852691
1.5051213080503956
1.51093998666385
1.2251600215838858
1.0382790959334178
1.0663832442477392
1.0558410048020013
1.0520437237981177
1.0513298619191744
1.04952471306981
1.0321788181976461
1.0103399967238176
1.0159789140884856
1.0694526085465055
1.1576578065126717
1.224633619194264
1.2365843856629832
1.2061469360603778
1.1952228741540247
1.20241203954611
1.2115673264247038
1.306999112486891
1.3301635513493817
1.3284255126255928
1.3450885976085407
1.3669793014598823
1.3762588012316816
1.4049498416266526
1.428919120077336
1.4427549975696212
1.4492523311027605
1.4554609352482677
1.4621468705407996
1.4688325384277696
1.475995452330915
1.4824340719997904
1.4950949895834318
1.4945839829239322
1.443773785900182
1.291284526763201
1.0341350106832081
1.0949706594747077
1.1169441731284138
1.1406035525230613
1.1527811317449939
1.1320012044930459
1.061684322887651
0.988596664609508
0.9701535647611628
1.0256621877099101
1.119756187907193
1.209875399559277
1.2593631882918717
1.2489123944052039
1.2241107782102012
1.1906765536655073
1.1639298667314424
1.1361260268595237
1.1992832954330432
1.2487757345893997
1.296088366341076
1.350407867443068
1.405670940181187
1.4487961281870536
1.4582913202728724
1.467182743754198
1.4794067041772643
1.494749067763903
1.511530211300054
1.530947852060326
1.5552451786779886
1.588779163889534
1.5695596219501406
1.5409240403115163
1.4888612576661007
1.4063649638401738
1.3802714983147204
1.044951080127592
1.1175414645715034
1.1735832615926167
1.2495101081615245
1.2975509373662868
1.213334354179354
1.0777120652215082
0.9655237260794115
0.9375825552481782
0.9955684927187651
1.102606568816792
1.2134957930234
1.2918700109376458
1.3041767392872206
1.2756852591750028
1.2359753495387598
1.2092495074345424
1.2176802088896423
1.2471565509935543
1.2966458190203143
1.3600895173768575
1.427453798679981
1.4922058898034487
1.545310337328389
1.5734685357724123
1.5926962362320973
1.608872167968725
1.6219013419656083
1.6312057851277102
1.6378798405954997
1.6417523458554644
1.6416626316328877
1.6145091332792576
1.5681050860151609
1.4876595956178642
1.4720122655798036
1.524694098429558
1.6317090209652556
1.5128616887660695
1.474489667460391
1.0771141350808668
1.1560276823937665
1.2165930315241196
1.3279050137043606
1.3795103700347346
1.2228495124203436
1.0615589762708426
0.9403513695817766
0.9113729006593284
0.9809160601565209
1.1100485573552228
1.2469114291557544
1.3553015941789928
1.3646989619593026
1.3584874205720678
1.3335793734265842
1.313339207192918
1.3286425928746817
1.3680907226284447
1.4261531698526622
1.4933208369117994
1.5618625807564328
1.606297967957737
1.6396880408470778
1.664008876721453
1.6821266943588606
1.6945212629083073
1.7011946288679558
1.7035778650052198
1.7011946288679558
1.6945212629083073
1.6821266943588606
1.6515482144192575
1.5985485421952303
1.5160542304173605
1.4965344002126206
1.5117237232633227
1.5475954870184658
1.5649325121074193
1.5690117807583293
1.167078986619818
1.2882379714872707
1.295058247304295
1.368962388211277
1.3093924446860101
1.175265094055655
1.0108549597432996
0.8929048628683052
0.8847801716819006
0.9864968649088529
1.1531390559050205
1.3258444290330635
1.4196390501489808
1.4354015679652006
1.4291922542580022
1.4244157143189298
1.4344463028988599
1.4673999180381199
1.5141921654177701
1.5647874510347033
1.6139308251004725
1.6563793944932843
1.6907077110049664
1.7159697561025786
1.73360160194018
1.7455131187273687
1.7521828854365327
1.7540884418296592
1.750753691439519
1.7436073804809813
1.7326486139384687
1.7169229127211203
1.6935678884941932
1.6470976466720704
1.5727253401232255
1.533317955582572
1.5173188959095107
1.4983212640968118
1.596247304517042
1.708217654280814
1.532246217892898
1.4823794415348621
1.3836241558815814
1.3569699821421066
1.2643432374905117
1.0822763813278564
0.8981607293959212
0.8097174855849454
0.8645790617281555
1.0354838706816496
1.2611553730791116
1.4492523311027605
1.5070310079373261
1.5208755993684353
1.518966077933921
1.5237398344952948
1.5442651695318423
1.5838736810407419
1.6315799105147606
1.6744985220780235
1.7121570351305497
1.7421780505393607
1.764091939500274
1.778856903607144
1.788381325754311
1.7931431289232853
1.7936192941410487
1.7912384405488813
1.7850479010889189
1.7755231017803461
1.7631392745260315
1.7478952350597394
1.7259774249491322
1.7021479302325824
1.6759288471043403
1.6611478843736065
1.635694672586806
1.5683309717728295
1.4882813583293015
1.9177801136812578
1.782565951736149
1.6332919561040293
1.508546070547537
1.3994064266916904
1.112787018387445
0.8156778595642624
0.6615592841410433
0.6993505601339279
0.9052521103834693
1.1969583551176202
1.4583263685534686
1.5686052016782754
1.60077582471517
1.602708964766325
1.6114158472106999
1.6326319293701332
1.664962523807864
1.7011946288679558
1.7383663945138483
1.7633515850995938
1.7776240258420397
1.7855352036452705
1.7896579040565828
1.7906498614001005
1.788893973230684
1.7842694475908516
1.7763215659062386
1.7648218950885515
1.751059671371161
1.7343073679172152
1.7162725338503106
1.697904698884378
1.6766091010566189
1.655449542897773
1.636875020770407
1.6272510029121494
1.6246062613089287
1.616251148369086
1.5933551127154346
-1.9385591120711718
-1.2734690561822763
-0.9741116079313996
-0.6398814100731682
-0.1923506160137229
0.2989014858470382
0.785586550479059
1.2347015599535172
1.5194434606361
1.5898977528570255
1.6205196713316097
1.6359264814404881
1.648804230921005
1.66554686244115
1.6880034422999557
1.7154319126320468
1.743040669094504
1.7664148744855872
1.7817694792228542
1.7900180279782756
1.7924396656315307
1.7904625595981143
1.7851233640763957
1.7780619846102954
1.769437074033069
1.7600123143688793
1.7502244392289859
1.7401971591251548
1.7302042525128336
1.7218561309752407
1.7142505546784177
1.707794793876372
1.7035017368565575
1.7037909269678675
1.7158692370348907
1.756947191463235
1.8434363685844448
1.7203271726199605
-1.9072176534849108
-0.8736291000762093
-0.18345387458658097
0.40221905764634536
0.8884824358544587
1.2324592762331303
1.4053866559374038
1.5351762058972327
1.6156139269184882
1.656236472871392
1.680218233959322
1.6977555545718366
1.7144315236292866
1.7316712643962202
1.7508974564107362
1.7703584792848492
1.7872199341893624
1.8003466513508024
1.807430682871268
1.8097935727000196
1.8087135459532175
1.805301373324654
1.8000116674097075
1.7941979798140888
1.7877589369047633
1.7806021322071397
1.77333975961479
1.766749164871588
1.7613207774441226
1.7584130484770988
1.7594372030161922
1.764530472116095
1.7722169557094793
1.7797892877376635
1.7914727908636303
1.832922039109097
1.7829431853046114
1.7521836664515196
-1.0040565486394175
-1.0128866947052715
-0.891720129382989
0.06321249208452791
0.7959654775981634
1.2643396047818987
1.4869325401107367
1.5907300940737217
1.6551715514682235
1.6984951326811732
1.7285395893936513
1.7503978881345692
1.7675917804277361
1.7822489754706032
1.7962228990709725
1.8093585010933542
1.8218251364327898
1.8335508093261765
1.843230680709862
1.8499686248932203
1.853374431793457
1.8531636617173826
1.8502167869303134
1.8441927610575712
1.836445135285095
1.8279220276721049
1.819044884197139
1.81061542507166
1.8036004240892358
1.7981020555293257
1.7955732330206045
1.7981369794241422
1.8109120485471932
1.8406013146692366
1.8493109133020273
1.850738370326579
1.8199182685391133
1.78724806756027
1.75436938729683
1.7648073779146305
)
;

boundaryField
{
    ".*"
    {
        type            zeroGradient;
    }
}


// ************************************************************************* //
