/*--------------------------------*- C++ -*----------------------------------*=========                 |
  \      /  F ield         | OpenFOAM: The Open Source CFD Toolbox
   \    /   O peration     | Website:  https://openfoam.org
    \  /    A nd           | Version:  6
     \/     M anipulation  |
\*---------------------------------------------------------------------------*/
FoamFile
{
    version     2.0;
    format      ascii;
    class       volScalarField;
    location    "200";
    object      PPD;
}
// * * * * * * * * * * * * * * * * * * * * * * * * * * * * * * * * * * * * * //

dimensions      [0 0 0 0 0 0 0];

internalField   nonuniform List<scalar> 
458
(
39.19080605397574
27.35742536610948
25.777969790255426
24.641052675995113
24.024829642617064
23.95440236845549
24.43545645653299
25.611079778428774
27.719634918403088
31.099335441472206
35.09375573358058
36.055234370785236
35.79399277214989
35.72842486644373
36.20987169545221
47.34909488648262
46.350146993880095
45.91608351209902
46.401270386953826
46.91313866615579
47.29776617427509
46.6393386292748
46.50961754692596
46.658735299589075
46.8944975144265
47.167288479657856
47.50503386187697
47.87996188867866
48.39871744698032
49.20975346562401
50.4608834907571
51.74188405775561
52.96304343594562
35.44710252996123
28.00417628432774
27.34506080615955
26.21205319901236
25.62958710455581
25.51485790877109
25.817311145652553
26.395057283119044
27.38375955417723
29.127216328234354
32.00607614186639
35.90355102741131
36.81307763831104
35.62218577396952
33.622826164627895
32.698030715772234
33.96857743977016
36.280589293431646
46.316095650788995
45.15231479899967
44.999919580225125
45.332392181401715
45.45104809295767
45.70214853897107
45.93499310052463
46.22762857424391
46.502880590210395
46.7607818122495
47.030084264243335
47.34038701050555
47.66920343193659
48.10911644318998
48.83835537986683
50.22038522609808
51.17089117308195
51.48715569442299
36.481702172353984
27.75637663900376
28.993892982829934
28.52635307965963
28.358921485393196
28.32750350476759
28.24813862264186
27.491547657544274
26.554750341901908
26.79493580702838
29.13075989226195
33.201174793734964
36.45561407192507
37.04973517607321
35.54430120492917
35.01034327549395
35.3613567355999
35.810511170538504
40.62380639915911
41.82443228059447
41.733962494642306
42.60378399195384
43.75444465099697
44.24475738675167
45.76945864655103
47.05225707283105
47.7959789726938
48.1459667656682
48.48081039502123
48.84181943292865
49.203225482563454
49.590855985691064
49.939639705554775
50.6263570470022
50.598619955937586
47.85082753335239
39.815924870564174
27.57632233757512
30.281419170976505
31.29014243742543
32.394182426187356
32.96947714417189
31.990650831554632
28.785009794054304
25.639845681808737
24.877976881609584
27.210156563240673
31.42040037403379
35.72732682774091
38.19259749416403
37.666592182771865
36.42970997728655
34.78914306735014
33.50025902734588
32.18384581695828
35.20841114888543
37.65973239438605
40.06229969946641
42.882579685375084
45.807937783061526
48.121378222393005
48.63358592489647
49.11400602037398
49.77560591078088
50.60758046983589
51.51924562889122
52.575758273303485
53.89920403762849
55.72597554748861
54.679127172734134
53.11902339217493
50.28810878312198
45.844979082066786
44.45722596240235
28.04758273500441
31.31778817857581
33.962950438542464
37.69660074185175
40.13741468379536
35.897473926801396
29.500709887139337
24.688789153102462
23.56486899872617
25.93124750553416
30.630105457357104
35.9054233726859
39.845924441110014
40.47830380091855
39.01957765722011
37.019364686374985
35.69657504276793
36.111723348479174
37.57849247805929
40.090923759823674
43.39135897067873
46.97362340031881
50.469560377572776
53.35794978746624
54.89208581749634
55.93922885473838
56.819306444289715
57.527302086763875
58.032287510387846
58.39414763037811
58.603957587764576
58.599098257418625
57.125726013017946
54.59988000376826
50.22293505868723
49.37524807891932
52.23534132474281
58.059583542677515
51.59164271024331
49.50933345324214
29.473847500819872
33.1236424593086
36.05807639070884
41.70688095569802
44.41690471605837
36.367251552055734
28.779448469956947
23.67486811704444
22.53877649753511
25.320973318627622
30.97183884706584
37.56619980657478
43.13953616137362
43.63418066619459
43.307050120021046
42.002412174415014
40.95129084247287
41.74525879396497
43.813093074122335
46.9038496744457
50.530064291469564
54.25975734080225
56.67932471012708
58.49212932873679
59.80730607043374
60.783207845801336
61.44859821974251
61.80602143011634
61.93351828618757
61.80602143011634
61.44859821974251
60.783207845801336
59.13414458939222
56.25774911025871
51.76526482893887
50.70449594311326
51.529767040325105
53.4824361750223
54.42702446046345
54.64927945666441
33.65088398892955
39.65995003664332
40.00942368769298
43.85910472799616
40.74732687842976
34.04385197594654
26.576635336636784
21.83238983147045
21.52602341736069
25.55244432730521
32.98645726061217
41.599722887506275
46.55471082194629
47.400433955421086
47.06691718427608
46.81067455105358
47.34909488648262
49.12574926394367
51.663993440454604
54.41912078318539
57.094297194700644
59.3953146521662
61.24407913489704
62.5951274111815
63.532387426763215
64.16259336863934
64.51435040664688
64.61469417228952
64.43904601779693
64.06193592495984
63.48186034127286
62.64592158801417
61.397487004593316
58.893364997501756
54.85159760816558
52.70480290770057
51.83405413920143
50.80151393750784
56.13251492153925
62.18150326461793
52.64644828147679
49.93667902223972
44.634946360270334
43.22723880741252
38.444221951558404
29.706176301988293
22.032012627394636
18.824630660135
20.7760126531317
27.63485918274222
38.28307893387708
48.1459667656682
51.27467090441144
52.02754977738453
51.923659672425345
52.183408164464346
53.30101546949827
55.45885263200281
58.052580626330055
60.37276831131237
62.391806919634995
63.98639829179948
65.1403088158882
65.91240281639108
66.40798639819994
66.65499881507324
66.67967088944144
66.55625727889199
66.2347658724281
65.73846970336825
65.0903379646409
64.28831874737438
63.12772833181842
61.85703009070074
60.449779176307494
59.65287987275329
58.27570595777526
54.612186996520954
50.25665594604567
72.90582570362909
66.10563218963006
58.14543200160478
51.35701793787052
45.473900249433996
31.098056809815716
19.03053218695878
14.193581819420544
15.28519533118785
22.30312933692626
35.094941739131826
48.63547820762871
54.627127885090054
56.37893999745817
56.48411029388369
56.95759781174661
58.10963844790644
59.858762124457975
61.80602143011634
63.78478026710012
65.10147602570088
65.84810806492305
66.26010384562922
66.47425760827717
66.52572786826406
66.43460395280749
66.19427820746847
65.78014925142898
65.17858538726551
64.45517137348554
63.56979687812646
62.61126410070113
61.629889416312125
60.486396926049466
59.345064317538906
58.33968827507039
57.817715970824416
57.67416487507747
57.22038707891608
55.97509487140469
73.90098879831098
38.90690836188093
25.040373380590296
13.595313009359714
5.767135245140835
6.856450042160148
18.00636672126575
36.955877258303396
51.9496309905836
55.78687832669813
57.4522676171651
58.28827227572908
58.98571309212201
59.890286738764075
61.098936796664844
62.5664593060419
64.0319906079842
65.26207884279502
66.06416377080826
66.4929461368747
66.6185399972332
66.51601093683308
66.23869001930893
65.87095141298212
65.42034052609631
64.92619003279101
64.41114990486544
63.88165100202012
63.3521907190461
62.90858878839583
62.50347509653583
62.158915312430786
61.92944686496491
61.94491265013872
62.58976988625593
64.76510125075285
69.23021021432383
62.82722097443442
72.3942759588576
21.109939486559895
5.697712062683394
8.370964499637438
21.665294194946398
36.84422421470952
45.79276697863019
52.80598912762519
57.18576236670235
59.3875915187433
60.68058546759157
61.62190121386752
62.51312485260121
63.43002556555141
64.44662275132205
65.46855386227239
66.34766311894757
67.02768216022608
67.39299024025439
67.51457028791026
67.45901551236256
67.28331279188578
67.01037819789116
66.70964796601532
66.37566295378048
66.00336075289945
65.62443112705228
65.27959360288253
64.99490063931486
64.842162875637
64.89597884187384
65.16330537126869
65.56574670520459
65.96100506235277
66.56841076487567
68.69721484989743
66.12526805042623
64.51439154786499
26.288518945915783
26.663077487278642
21.787547958532926
5.082730224534259
18.35528790259528
38.44403817826669
50.18350706767456
55.83219373486628
59.3300397438149
61.66151021501813
63.26382543864748
64.4202927230337
65.32373137445464
66.08913044986787
66.8144820936468
67.49219435710376
68.13149617823045
68.72917248315207
69.21981233878506
69.55981541987313
69.7311904415516
69.72059437143564
69.57231364487664
69.2684371059218
68.87614194012185
68.44271329813961
67.98926036994108
67.55682588101787
67.19562112598983
66.9116847379521
66.78085790239358
66.91349045816133
67.57207272592487
69.08679084824543
69.52668258940398
69.59857656873858
68.03396331702967
66.34912473737938
64.62948248609302
65.17782425700631
)
;

boundaryField
{
    ".*"
    {
        type            zeroGradient;
    }
}


// ************************************************************************* //
