/*--------------------------------*- C++ -*----------------------------------*\
  =========                 |
  \\      /  F ield         | OpenFOAM: The Open Source CFD Toolbox
   \\    /   O peration     | Website:  https://openfoam.org
    \\  /    A nd           | Version:  6
     \\/     M anipulation  |
\*---------------------------------------------------------------------------*/
FoamFile
{
    version     2.0;
    format      ascii;
    class       surfaceScalarField;
    location    "49200.0000010362346";
    object      phi;
}
// * * * * * * * * * * * * * * * * * * * * * * * * * * * * * * * * * * * * * //

dimensions      [1 0 -1 0 0 0 0];

internalField   nonuniform List<scalar> 
1482
(
-0.00279974
0.00286377
-0.00348387
0.000684135
-0.00414444
0.000660567
-0.00475835
0.000613911
-0.00527951
0.000521154
-0.00569117
0.000411661
-0.00598213
0.000290963
-0.00613937
0.000157237
-0.00614558
6.20772e-06
-0.00597479
-0.000170783
-0.00559708
-0.000377713
-0.00498138
-0.000615695
-0.00405749
-0.000923893
-0.00257917
-0.00147831
-0.00257625
-6.33973e-05
6.82523e-05
0.000781691
-0.000845088
0.00143536
-0.000653668
0.00183583
-0.000400472
0.00205832
-0.000222487
0.00216301
-0.000104694
0.00221036
-4.73524e-05
0.00223325
-2.28814e-05
0.00224312
-9.87916e-06
0.00224412
-9.96607e-07
0.00223709
7.03391e-06
0.00221803
1.90597e-05
0.00217363
4.43957e-05
0.00207066
0.000102974
0.00185359
0.000217071
0.00149534
0.000358249
0.00102264
0.000472694
0.00102908
-0.00204033
0.00507442
-0.00290836
0.00155217
-0.00369407
0.00144628
-0.00434493
0.00126477
-0.00488195
0.00105817
-0.00531043
0.000840144
-0.00562861
0.00060915
-0.00582974
0.000358361
-0.00590316
7.96302e-05
-0.00584107
-0.000232869
-0.00563766
-0.000581127
-0.00528157
-0.000971779
-0.00477162
-0.00143385
-0.00428578
-0.00196415
-0.00470156
-0.00216047
-0.00311606
-0.00158006
-0.00163381
-0.00147656
-0.00161897
0.00131835
-0.00123989
0.00166348
-0.00119022
0.00191622
-0.00090641
0.00210848
-0.000592734
0.00221679
-0.000330792
0.00222588
-0.000113785
0.00222778
-4.92568e-05
0.00222934
-2.44369e-05
0.00223027
-1.08148e-05
0.00223029
-1.01309e-06
0.00222895
8.37584e-06
0.00222476
2.32509e-05
0.0022121
5.70501e-05
0.00215008
0.000164998
0.00190009
0.00046706
0.00146987
0.000788472
0.000905005
0.00103756
0.00195097
-0.0014882
0.00682054
-0.00235898
0.00242295
-0.00312882
0.00221611
-0.00371286
0.00184881
-0.0041833
0.00152861
-0.00455447
0.00121132
-0.00482821
0.00088289
-0.00500131
0.000531461
-0.0050674
0.000145719
-0.00501742
-0.000282849
-0.00484062
-0.000757928
-0.00452952
-0.00128288
-0.00411487
-0.00184849
-0.00371732
-0.00236171
-0.00329685
-0.00258094
-0.0023657
-0.0025112
-0.00127235
-0.00256991
-0.00287848
0.00115135
-0.00237679
0.00165524
-0.00169411
0.00195413
-0.0012053
0.00214777
-0.000786373
0.0021796
-0.000362625
0.00206597
0.00201687
0.00199259
0.00198193
0.00198107
0.0019896
0.002013
0.00207021
0.00223536
0.00187687
0.00082555
0.00142838
0.00123696
0.00080756
0.00165837
0.00278455
-0.001106
0.00825774
-0.0019278
0.00324476
-0.00256967
0.00285798
-0.00302983
0.00230897
-0.00339715
0.00189593
-0.00368569
0.00149986
-0.00389845
0.00109566
-0.00403362
0.000666631
-0.0040837
0.000195802
-0.00403553
-0.000331025
-0.00387679
-0.000916663
-0.00360331
-0.00155636
-0.00323759
-0.00221421
-0.00281543
-0.00278388
-0.0022758
-0.00312057
-0.001556
-0.003231
-0.000867682
-0.00325823
-0.000687134
-0.00305903
0.00144919
-0.00212088
0.00137943
-0.00230702
0.00169428
-0.00200896
0.00200648
-0.0015175
0.00227249
-0.00105238
0.00254767
-0.000637807
0.00286342
-0.000315903
0.003032
-0.000168736
0.00309814
-6.62939e-05
0.00308239
1.56005e-05
0.0029935
8.87373e-05
0.00283239
0.000160956
0.00259115
0.000241089
0.00224674
0.000344249
0.00174178
0.000504805
0.00160509
0.000962243
0.00127738
0.00156468
0.000750063
0.00218569
0.0035689
-0.000803709
0.00945463
-0.00157975
0.0040208
-0.0020482
0.00332643
-0.00236372
0.00262449
-0.00260789
0.00214009
-0.0027932
0.00168517
-0.00292468
0.00122714
-0.00300305
0.000745001
-0.00302177
0.00021452
-0.00296423
-0.000388559
-0.00281717
-0.00106373
-0.00257352
-0.00180001
-0.00223978
-0.00254796
-0.00182304
-0.00320062
-0.00131745
-0.00362615
-0.000740703
-0.00380775
-0.000209237
-0.0037897
0.000267989
-0.00353626
0.0011286
-0.00298149
0.00149366
-0.00267209
0.00175162
-0.00226691
0.00200344
-0.00176932
0.00223299
-0.00128192
0.0024473
-0.000852119
0.00264949
-0.000518091
0.00276115
-0.000280397
0.00279911
-0.000104247
0.00277495
3.9752e-05
0.00269496
0.000168729
0.00256151
0.000294412
0.00237334
0.000429256
0.00212814
0.000589453
0.0018342
0.000798741
0.00162912
0.00116732
0.00148948
0.00170432
0.00131399
0.00236117
0.00230988
0.00257302
0.00134602
0.000998754
0.00189723
-0.000522618
0.00201564
-0.000575814
0.0104768
-0.00132463
0.00476962
-0.00158399
0.00358579
-0.00174969
0.00279019
-0.00186348
0.00225389
-0.0019348
0.00175649
-0.00197011
0.00126244
-0.0019737
0.000748597
-0.00194237
0.000183182
-0.00185439
-0.000476536
-0.0016999
-0.00121821
-0.00146882
-0.00203109
-0.00116402
-0.00285277
-0.000791339
-0.0035733
-0.000371228
-0.00404627
6.93153e-05
-0.0042483
0.000474626
-0.00419502
0.000848918
-0.00391056
0.00129933
-0.00343191
0.00159731
-0.00297007
0.00179967
-0.00246927
0.00197047
-0.00194013
0.00212195
-0.00143339
0.00225682
-0.000986992
0.00236279
-0.000624057
0.00242265
-0.000340256
0.0024357
-0.000117305
0.00240694
6.85143e-05
0.00234095
0.000234719
0.00224136
0.000394005
0.0021121
0.000558514
0.00196026
0.000741289
0.00180064
0.000958362
0.00171024
0.00125772
0.00176973
0.00164483
0.00198691
0.00214399
0.00224007
0.00231986
0.00176041
0.00147841
0.000831084
0.000406706
0.00294387
-0.000543525
0.0115126
-0.00124364
0.00546973
-0.00119163
0.00353378
-0.00119969
0.00279825
-0.00119182
0.00224602
-0.00115818
0.00172285
-0.00110095
0.00120521
-0.00102588
0.000673521
-0.000927356
8.46626e-05
-0.000778443
-0.000625448
-0.000589163
-0.00140749
-0.000348844
-0.00227141
-6.46188e-05
-0.00313699
0.000240628
-0.00387855
0.000550975
-0.00435661
0.000846394
-0.00454372
0.00110948
-0.0044581
0.00134264
-0.00414373
0.0015738
-0.00366307
0.00173259
-0.00312885
0.00183155
-0.00256824
0.00190092
-0.0020095
0.00195659
-0.00148907
0.00200384
-0.00103424
0.00203744
-0.000657654
0.0020515
-0.000354321
0.00204233
-0.000108129
0.00201034
0.000100498
0.00195831
0.000286755
0.00188967
0.00046264
0.00180935
0.000638831
0.00172574
0.000824905
0.00165407
0.00103003
0.00163857
0.00127322
0.00172646
0.00155695
0.00194345
0.001927
0.00221314
0.00205016
0.00224246
0.00144909
0.0016461
0.00100306
0.00469239
-0.000483789
0.0125318
-0.00105159
0.00603753
-0.000697191
0.00317938
-0.000636003
0.00273706
-0.000567359
0.00217737
-0.000462448
0.00161794
-0.000333247
0.00107601
-0.000181884
0.000522158
7.42238e-06
-0.000104644
0.000225549
-0.000843575
0.000465406
-0.00164735
0.000723427
-0.00252943
0.000980804
-0.00339437
0.00120981
-0.00410755
0.00140963
-0.00455644
0.0015712
-0.00470529
0.00168916
-0.00457607
0.00176818
-0.00422275
0.00182067
-0.00371557
0.00182992
-0.0031381
0.00180434
-0.00254266
0.00176318
-0.00196834
0.00172156
-0.00144745
0.00168712
-0.000999793
0.00165989
-0.00063043
0.00163587
-0.000330296
0.00160995
-8.22171e-05
0.00157956
0.000130893
0.00154447
0.000321845
0.00150554
0.00050157
0.00146539
0.000678975
0.00142971
0.000860593
0.00140907
0.00105067
0.00142752
0.00125477
0.00151655
0.00146792
0.0017352
0.00170835
0.00205976
0.0017256
0.00223371
0.00127514
0.00175145
0.0014853
0.00680982
0.00297915
0.0101398
0.00202372
0.00699297
0.000870099
0.00433299
0.000371597
0.00323557
0.000214794
0.00233417
0.00027139
0.00156135
0.000425499
0.000921899
0.000639535
0.000308122
0.000898908
-0.000364017
0.00116397
-0.00110864
0.00144272
-0.0019261
0.00171009
-0.00279679
0.00193662
-0.00362089
0.00209793
-0.00426886
0.00218816
-0.00464666
0.00220987
-0.00472699
0.00217182
-0.00453802
0.00208764
-0.00413857
0.00197255
-0.00360048
0.00183225
-0.0029978
0.00167909
-0.00238951
0.00153022
-0.00181946
0.00140052
-0.00131776
0.0012985
-0.000897774
0.00122556
-0.000557487
0.00117686
-0.00028159
0.00114489
-5.02542e-05
0.00112393
0.000151853
0.00110992
0.000335857
0.0011
0.000511496
0.00109331
0.000685663
0.00109128
0.000862622
0.00109802
0.00104393
0.00112395
0.00122884
0.00118742
0.00140444
0.00134969
0.00154609
0.00167725
0.00139804
0.00179782
0.00115457
0.000476785
0.00280629
0.00766947
0.00403345
0.00624662
0.00367003
0.00735639
0.00254413
0.0054589
0.0018905
0.0038892
0.00153385
0.00269082
0.00138907
0.00170613
0.00142302
0.000887952
0.00159763
0.000133507
0.0018499
-0.000616282
0.00212727
-0.00138601
0.00240726
-0.00220609
0.00265256
-0.00304209
0.00282145
-0.00378977
0.00288686
-0.00433425
0.00284551
-0.00460531
0.00271125
-0.00459272
0.00250633
-0.0043331
0.00225502
-0.00388726
0.00198006
-0.00332552
0.0016986
-0.00271635
0.00142805
-0.00211896
0.00118656
-0.00157797
0.000989236
-0.00112043
0.00084297
-0.000751507
0.000746973
-0.00046149
0.000692396
-0.000227013
0.000668013
-2.58713e-05
0.00066442
0.000155445
0.000674009
0.000326269
0.000691232
0.000494273
0.000712564
0.000664331
0.000735039
0.000840148
0.000754473
0.00102449
0.000762505
0.00122081
0.000735124
0.00143182
0.000598961
0.00168225
-4.38719e-05
0.00204093
-0.00193062
0.00304143
-0.00329887
0.00417448
0.00447403
0.00241054
0.00400061
0.00330611
0.00646082
0.00324989
0.00551511
0.00303891
0.00410018
0.00284795
0.00288179
0.00272488
0.0018292
0.00271124
0.000901599
0.00280052
4.42249e-05
0.00296277
-0.000778535
0.00317367
-0.00159691
0.00339144
-0.00242386
0.00355604
-0.00320669
0.00361262
-0.00384634
0.00353448
-0.0042561
0.00332709
-0.0043979
0.00301662
-0.00428224
0.00263744
-0.00395391
0.00222287
-0.00347268
0.00180243
-0.00290509
0.00139966
-0.00231358
0.00103632
-0.00175563
0.000732399
-0.00127405
0.000502486
-0.000890522
0.000346404
-0.000595425
0.0002559
-0.000370985
0.00021452
-0.000185633
0.00020759
-1.89415e-05
0.000223822
0.000139214
0.000254887
0.000295204
0.000295277
0.000453884
0.000341001
0.000618607
0.000386966
0.000794184
0.000425091
0.000986369
0.000438004
0.00120789
0.000384666
0.00148516
0.000180439
0.00188648
-0.000413768
0.00263535
-0.00159993
0.004228
-0.00210831
0.00468305
0.00248113
0.00145661
0.00273828
0.00274785
0.00516959
0.00343191
0.00483105
0.00371826
0.00381383
0.0038172
0.00278285
0.00384589
0.00180051
0.00388273
0.000864766
0.00395249
-2.55337e-05
0.00406277
-0.000888817
0.004203
-0.00173713
0.00432193
-0.00254279
0.00434888
-0.00323363
0.00423221
-0.00372966
0.00395972
-0.0039836
0.00355393
-0.00399211
0.00305468
-0.00378298
0.00250572
-0.00340494
0.00194557
-0.00291254
0.00140818
-0.00236769
0.000919867
-0.00182527
0.000507879
-0.00134364
0.000191526
-0.000957698
-2.18026e-05
-0.000677195
-0.000147042
-0.000470186
-0.000208521
-0.000309507
-0.000227756
-0.000166398
-0.000217772
-2.89259e-05
-0.000187058
0.000108501
-0.000141264
0.00024941
-8.40354e-05
0.000396655
-1.80672e-05
0.00055264
5.33006e-05
0.000722816
0.00012436
0.00091531
0.000183791
0.00114846
0.000203445
0.0014655
0.000127904
0.001962
-8.68468e-06
0.00277199
-3.7467e-05
0.00425719
-0.000106964
0.0047529
0.00250005
0.00216849
0.000795764
0.00293903
0.00439905
0.00359062
0.00417946
0.00416204
0.00324242
0.00449083
0.00245406
0.00466621
0.00162513
0.00478402
0.000746965
0.0048894
-0.000130921
0.00499593
-0.000995347
0.00507388
-0.00181509
0.00505802
-0.00252692
0.00488827
-0.00306388
0.00454219
-0.00338357
0.00403875
-0.00348015
0.00342295
-0.0033763
0.00274554
-0.00310555
0.00205469
-0.00271409
0.00138799
-0.00224583
0.000783791
-0.00176349
0.000267532
-0.00130901
-0.00012215
-0.000953956
-0.000378778
-0.000701072
-0.000527834
-0.00052814
-0.00060512
-0.000392902
-0.00063835
-0.000276277
-0.000640425
-0.000164323
-0.000618911
-5.04391e-05
-0.000579018
6.86078e-05
-0.000524086
0.000194479
-0.000456406
0.000328976
-0.00037778
0.000474015
-0.000288567
0.000633604
-0.000188667
0.000815411
-7.93421e-05
0.00103913
2.1265e-05
0.00136487
8.55703e-05
0.00189757
0.000241609
0.00261575
0.000816624
0.00368226
0.00119415
0.00437551
0.00382535
-0.00158091
0.00262176
0.00111491
0.00170324
0.00334753
0.00194684
0.00435092
0.00223903
0.00485598
0.001949
0.00517192
0.00130919
0.00540106
0.000517822
0.00557913
-0.000309002
0.00567786
-0.0010941
0.00563578
-0.00177304
0.00540236
-0.00229352
0.00496604
-0.00262756
0.00435487
-0.00277239
0.00362198
-0.00274724
0.00282746
-0.00258176
0.0020211
-0.00229919
0.00125031
-0.0019433
0.00054506
-0.00154058
-4.82795e-05
-0.00117015
-0.000486331
-0.000870962
-0.000764095
-0.000676196
-0.000926335
-0.000538839
-0.00101839
-0.00043609
-0.00106391
-0.000347383
-0.00107745
-0.000262742
-0.00106596
-0.000175809
-0.00103395
-8.24553e-05
-0.000985779
2.04436e-05
-0.000924511
0.000133213
-0.000852026
0.000256493
-0.000770848
0.000392838
-0.000682465
0.000545223
-0.000588258
0.000721207
-0.000494358
0.000945229
-0.0004185
0.00128894
-0.000342412
0.00182122
-8.60629e-05
0.0023589
0.000808613
0.00278721
0.00141158
0.0037722
0.00537662
0.00288346
0.00457151
0.00487073
0.00164763
0.00535726
0.00175249
0.00559447
0.00171179
0.00582664
0.00107703
0.00601379
0.000330654
0.00607875
-0.000373997
0.00595104
-0.000966445
0.00559793
-0.00141998
0.00503246
-0.00172807
0.00430192
-0.00189702
0.00346504
-0.00193551
0.00258083
-0.00186302
0.0017039
-0.00170482
0.000866857
-0.00146214
0.000109895
-0.00118633
-0.000509913
-0.000920772
-0.000951495
-0.000728569
-0.0012298
-0.000592661
-0.00140252
-0.000503495
-0.00150562
-0.000435758
-0.00156476
-0.00037696
-0.00159187
-0.000320279
-0.00159265
-0.000261961
-0.00157
-0.000198458
-0.00152683
-0.000125613
-0.00146772
-3.8656e-05
-0.00139837
6.38687e-05
-0.00132366
0.000181787
-0.00124925
0.000318425
-0.00118366
0.000479638
-0.00113966
0.000677238
-0.00113327
0.000938906
-0.00116614
0.00132186
-0.00119956
0.00185451
-0.00117049
0.00232933
-0.000894032
0.00250998
-0.000570431
0.00344777
0.00496113
0.00793566
0.00536065
0.00581696
0.00387123
0.00556853
0.00196025
0.00563915
0.00100641
0.0056016
0.000368156
0.00535549
-0.000127944
0.00489001
-0.000501016
0.00424623
-0.000776227
0.00347853
-0.000960384
0.00264041
-0.0010589
0.00177403
-0.00106913
0.000917092
-0.00100607
0.00010385
-0.000891571
-0.000609659
-0.000748621
-0.00116865
-0.000627332
-0.00156228
-0.000527142
-0.00182823
-0.000462632
-0.00200073
-0.000420184
-0.00211618
-0.000388087
-0.00219393
-0.000358048
-0.0022432
-0.000327717
-0.00226741
-0.000296078
-0.00226756
-0.000261802
-0.00224356
-0.000222431
-0.00219521
-0.000173914
-0.0021238
-0.000110027
-0.00203745
-2.2463e-05
-0.00194715
9.1484e-05
-0.00186108
0.000232332
-0.00179066
0.000409205
-0.00175207
0.000638674
-0.00176138
0.000948357
-0.00182128
0.00138205
-0.00194634
0.00197988
-0.00236743
0.00275062
-0.00339265
0.00353519
-0.00354351
0.00359838
0.00158823
0.0041191
0.00148809
0.00451958
0.00347076
0.00374458
0.00273525
0.00323708
0.00151387
0.00288762
0.000717549
0.00251832
0.000241305
0.00206918
-5.19026e-05
0.00152849
-0.000235545
0.000916285
-0.000348158
0.000250875
-0.000393467
-0.000428646
-0.00038959
-0.00106451
-0.000370191
-0.00160859
-0.000347463
-0.00203251
-0.000324685
-0.00234566
-0.000314183
-0.00256463
-0.000308193
-0.00272315
-0.000304157
-0.00284516
-0.000298238
-0.00294328
-0.000290044
-0.00302118
-0.000280218
-0.00307919
-0.000269741
-0.00311629
-0.000258976
-0.00313046
-0.000247582
-0.00311858
-0.000234227
-0.00307666
-0.00021573
-0.00300084
-0.00018575
-0.00288954
-0.000133705
-0.00275305
-4.502e-05
-0.00261157
9.07809e-05
-0.00247729
0.000274824
-0.00235346
0.000514766
-0.00223164
0.000826573
-0.00208732
0.00123796
-0.0018816
0.0017746
-0.00160886
0.00247838
-0.00145548
0.00338224
-0.0012565
0.00339984
0.000513588
-0.0025897
-0.00674799
-0.00740621
-0.00745512
-0.00374749
-0.00217069
-0.00166751
0.00139076
-0.000754574
0.00182226
-0.000558015
0.00131726
-0.000640069
0.000799564
-0.000827431
0.000428647
-0.00106778
0.000188438
-0.00135388
5.05588e-05
-0.00168882
-1.31803e-05
-0.00204893
-3.33217e-05
-0.00240296
-3.55103e-05
-0.00272726
-4.58473e-05
-0.00299448
-8.02202e-05
-0.00319299
-0.000126162
-0.00334159
-0.000165621
-0.00346396
-0.000185883
-0.00357753
-0.00019069
-0.0036874
-0.000188486
-0.00379182
-0.000185726
-0.0038866
-0.000185506
-0.00396749
-0.000188867
-0.00403034
-0.000196082
-0.00407033
-0.000207484
-0.0040813
-0.000223105
-0.00405605
-0.000240792
-0.00398803
-0.000253581
-0.00387326
-0.000248342
-0.00371088
-0.000207368
-0.00351021
-0.000110001
-0.0032925
5.69016e-05
-0.0030608
0.00028282
-0.00278035
0.000545906
-0.00239615
0.000853691
-0.00181436
0.00119296
-0.000889607
0.00155394
0.00042361
0.00206935
0.00127975
0.00254408
0.00197345
-0.00733748
0.00104293
-0.00811148
-0.00668119
-0.00716817
-0.00311407
-0.00564956
-0.000127914
-0.00455688
0.000729529
-0.00396523
0.000725562
-0.00370613
0.000540451
-0.0036395
0.000362023
-0.00368126
0.000230227
-0.00377472
0.000144055
-0.00387744
8.95914e-05
-0.00396259
5.18897e-05
-0.00402116
2.31317e-05
-0.00406216
-4.80179e-06
-0.0041027
-3.96645e-05
-0.00415468
-7.42137e-05
-0.00422211
-9.82794e-05
-0.0043002
-0.000107911
-0.00438287
-0.00010816
-0.00446521
-0.000106277
-0.00454375
-0.000107282
-0.00461598
-0.000113327
-0.00467991
-0.000124909
-0.00473374
-0.000142158
-0.00477541
-0.000165629
-0.00480246
-0.000195821
-0.00481189
-0.000231078
-0.00480024
-0.000264947
-0.00476302
-0.000285331
-0.00469314
-0.000277138
-0.00457648
-0.000226713
-0.00439461
-0.000125237
-0.00413837
2.61494e-05
-0.00379275
0.000199841
-0.00330393
0.000364487
-0.00259014
0.000478924
-0.00145072
0.000414442
0.000430834
0.000187864
0.00162476
0.00135032
0.00378193
0.0015846
-0.00503199
-0.00808289
-0.00815131
-0.00736729
-0.00659493
-0.00601427
-0.00561676
-0.00535407
-0.00517929
-0.00505968
-0.00497771
-0.00492395
-0.00489746
-0.00490541
-0.00494773
-0.00501407
-0.00509002
-0.00516618
-0.00524042
-0.00531567
-0.00539706
-0.00549029
-0.00560121
-0.00573627
-0.00590246
-0.0061051
-0.00634298
-0.00660272
-0.00685568
-0.00705944
-0.00716269
-0.00711527
-0.00689469
-0.00650992
-0.00601127
-0.00557784
-0.00537188
-0.00400441
)
;

boundaryField
{
    floor
    {
        type            calculated;
        value           nonuniform List<scalar> 
36
(
0
0
0
0
0
0
0
0
0
0
0
0
0
0
0
0
0
0
0
-6.43901e-06
-1.68823e-05
-2.6025e-05
-3.42901e-05
-3.48957e-05
-2.85971e-05
-2.85219e-05
-2.92053e-06
-5.44211e-06
-5.68845e-06
-5.90845e-06
-4.85475e-06
-8.93945e-06
-1.02087e-05
-1.2832e-05
-1.44559e-05
-1.54454e-05
)
;
    }
    ceiling
    {
        type            calculated;
        value           nonuniform List<scalar> 
43
(
-5.78087e-05
-6.4667e-05
-6.32571e-05
-5.95692e-05
-5.4556e-05
-4.68374e-05
-4.02117e-05
-3.5466e-05
-3.23976e-05
-3.06487e-05
-2.99192e-05
-2.99823e-05
-3.05615e-05
-3.12606e-05
-3.17308e-05
-3.19507e-05
-3.20332e-05
-3.20795e-05
-3.21196e-05
-3.2136e-05
-3.20898e-05
-3.19342e-05
-3.16212e-05
-3.11076e-05
-3.03621e-05
-2.93737e-05
-2.81651e-05
-2.68062e-05
-2.54145e-05
-2.41278e-05
-2.30541e-05
-2.22332e-05
-2.16324e-05
-2.1153e-05
-2.06466e-05
-1.99878e-05
-1.91273e-05
-1.81151e-05
-1.70816e-05
-1.66197e-05
1.93327e-05
1.5184e-05
-0.000246542
)
;
    }
    sWall
    {
        type            calculated;
        value           nonuniform List<scalar> 9(-0.000140238 -0.000164532 -0.000194272 -0.00022598 -0.000245094 -0.000281033 -0.000423414 -0.00045349 -0.000483867);
    }
    nWall
    {
        type            calculated;
        value           nonuniform List<scalar> 
14
(
-8.98842e-05
-9.71533e-05
-0.000102428
-0.000103494
-0.000115435
-0.000125674
-0.00013116
-0.000140148
-0.000155447
-0.000170949
-0.000181326
-0.00017984
-0.000183622
-0.000205755
)
;
    }
    sideWalls
    {
        type            empty;
        value           nonuniform 0();
    }
    glass1
    {
        type            calculated;
        value           nonuniform List<scalar> 9(-6.40339e-05 -0.00017032 -0.000257921 -0.000331203 -0.000393185 -0.000446388 -0.000492196 -0.000535476 -0.000587162);
    }
    glass2
    {
        type            calculated;
        value           nonuniform List<scalar> 2(-0.000365967 -0.000382904);
    }
    sun
    {
        type            calculated;
        value           uniform 0;
    }
    Table_master
    {
        type            calculated;
        value           nonuniform List<scalar> 9(-1.53991e-07 -1.54108e-07 -1.5414e-07 -1.5416e-07 -1.54173e-07 -1.54178e-07 -1.54177e-07 -1.54162e-07 -1.54109e-07);
    }
    Table_slave
    {
        type            calculated;
        value           nonuniform List<scalar> 9(1.53661e-07 1.53717e-07 1.53716e-07 1.53733e-07 1.53753e-07 1.53797e-07 1.53863e-07 1.53957e-07 1.54084e-07);
    }
    inlet
    {
        type            calculated;
        value           uniform -0.0116487;
    }
    outlet
    {
        type            calculated;
        value           nonuniform List<scalar> 2(0.00976106 0.0122716);
    }
}


// ************************************************************************* //
