/*--------------------------------*- C++ -*----------------------------------*\
  =========                 |
  \\      /  F ield         | OpenFOAM: The Open Source CFD Toolbox
   \\    /   O peration     | Website:  https://openfoam.org
    \\  /    A nd           | Version:  6
     \\/     M anipulation  |
\*---------------------------------------------------------------------------*/
FoamFile
{
    version     2.0;
    format      ascii;
    class       volScalarField;
    location    "19400";
    object      k;
}
// * * * * * * * * * * * * * * * * * * * * * * * * * * * * * * * * * * * * * //

dimensions      [0 2 -2 0 0 0 0];

internalField   nonuniform List<scalar> 
778
(
0.00158603
0.00180131
0.00178818
0.00194673
0.00209791
0.00224008
0.0023766
0.00251202
0.00265212
0.00280519
0.00295514
0.00310121
0.00324858
0.00341093
0.00358461
0.000792431
0.00162591
0.00165205
0.00157287
0.00144489
0.00128246
0.00113035
0.000998809
0.000887221
0.000792768
0.000713046
0.000645025
0.000586018
0.000533495
0.00048475
0.000436281
0.000397976
0.000326105
0.00340719
0.00643404
0.00268773
0.00274623
0.00288788
0.00305438
0.00323459
0.00343013
0.00364304
0.00387298
0.00412468
0.00437814
0.0045938
0.00469918
0.00459379
0.00429738
0.00390628
0.00357946
0.00253841
0.00281406
0.00295617
0.00289804
0.00266462
0.00226497
0.00190537
0.00160904
0.00136936
0.00117563
0.00101695
0.000885236
0.000774018
0.000681225
0.000615242
0.00057478
0.000864679
0.0005243
0.0054912
0.0127828
0.0034783
0.00321219
0.00329746
0.00345523
0.00363647
0.00384041
0.00407039
0.00432661
0.00463433
0.00500945
0.00544964
0.0059596
0.00653156
0.0068612
0.00627876
0.00538642
0.00403714
0.00416951
0.00417347
0.0039762
0.00357856
0.00266674
0.00201623
0.00157625
0.00126969
0.00104944
0.000887014
0.000764689
0.000671906
0.000603733
0.000551524
0.000548786
0.00116597
0.000678791
0.00797427
0.0217619
0.00449188
0.00339076
0.00334144
0.00343793
0.00354917
0.00366846
0.00380841
0.00399037
0.00425789
0.00464704
0.00516988
0.00582442
0.00655489
0.00713581
0.00722952
0.00724661
0.00534083
0.00554582
0.00537356
0.00512431
0.00478646
0.00434825
0.0034564
0.00285979
0.00243667
0.00211034
0.00185073
0.00163214
0.00143869
0.00125869
0.00107782
0.000800919
0.000659972
0.00142248
0.000823313
0.0108775
0.0336404
0.00621433
0.00342504
0.00315817
0.00316676
0.00318929
0.00320945
0.00325153
0.00336026
0.00359363
0.00398791
0.00455229
0.00527615
0.00608703
0.00681819
0.00728284
0.00764175
0.00751221
0.00665002
0.00607009
0.00557702
0.00509813
0.0046293
0.00412357
0.00366615
0.00327535
0.00293753
0.00263109
0.00234748
0.00207888
0.00181821
0.00155485
0.00122214
0.0009307
0.00119136
0.00121726
0.00117102
0.00204606
0.00188649
0.0141764
0.0476062
0.00928701
0.00349023
0.00290846
0.00282254
0.00276412
0.00269918
0.00266377
0.00273399
0.00298011
0.00341356
0.00402317
0.00479831
0.00565468
0.00646238
0.00706822
0.00740469
0.00731946
0.00678591
0.00621194
0.00563518
0.00507336
0.00455582
0.00409159
0.00369602
0.00336329
0.00307376
0.00280663
0.00255118
0.00229858
0.00204196
0.00177386
0.00147158
0.00117863
0.00111325
0.00111287
0.00171123
0.00509172
0.00269942
0.0179942
0.0606128
0.0143654
0.00382019
0.00271522
0.00252925
0.00241157
0.00229371
0.00222067
0.00231119
0.00263001
0.00313935
0.0038029
0.00463397
0.00553186
0.00636984
0.00700243
0.00732745
0.0072522
0.00681557
0.00621347
0.00555373
0.00491148
0.00434277
0.00387267
0.00350062
0.00320679
0.00296181
0.00274119
0.00252871
0.00231303
0.00208693
0.00184532
0.00158305
0.00132695
0.00116055
0.00109418
0.00156154
0.00631088
0.00374816
0.0216434
0.0704855
0.0214434
0.00510419
0.00274309
0.00237179
0.00220998
0.00208164
0.00202594
0.00221909
0.00264961
0.00323161
0.00393968
0.00477948
0.0057059
0.00658039
0.00722853
0.00751612
0.00738457
0.006896
0.00619839
0.00542763
0.00469235
0.00406516
0.00357491
0.00321277
0.00294779
0.00274112
0.00256413
0.00239543
0.00222147
0.00203484
0.00183186
0.00161263
0.00139552
0.00123014
0.00116154
0.00213784
0.0137285
0.00640133
0.0228344
0.0694871
0.0325418
0.011064
0.00406964
0.00258778
0.00223541
0.00210272
0.00218963
0.00251184
0.00300011
0.00360313
0.00433667
0.00522077
0.00619609
0.00709845
0.00772526
0.00792768
0.00766711
0.00702781
0.00616827
0.00525193
0.00441054
0.00372456
0.003218
0.00286977
0.0026362
0.00246967
0.00233652
0.00221101
0.00207848
0.00193191
0.00176877
0.0015908
0.00141201
0.00128767
0.00138224
0.0042273
0.0268755
0.00844776
0.0219176
0.051623
0.0336448
0.0174403
0.00859222
0.00476115
0.00326161
0.00272977
0.00285273
0.0032101
0.00367197
0.00424817
0.00500168
0.00595019
0.0069894
0.00790192
0.00845185
0.00848967
0.00800762
0.00712875
0.006048
0.0049613
0.00401765
0.00329508
0.00280079
0.0024908
0.00230405
0.00218599
0.00209748
0.00201192
0.00191593
0.00180389
0.00167442
0.0015301
0.00138438
0.00130733
0.00190766
0.0111116
0.0224421
0.00861795
0.0192303
0.0394247
0.0302353
0.0195692
0.0121859
0.00794118
0.00571837
0.00466949
0.00436165
0.00439854
0.00465193
0.00514802
0.00594401
0.0069965
0.00810695
0.00897989
0.00935276
0.00910145
0.00827803
0.00706868
0.00572305
0.0044719
0.00347123
0.00277532
0.00235308
0.00211906
0.00199473
0.00192689
0.0018766
0.00182231
0.00175412
0.00166797
0.00156368
0.00144529
0.00133033
0.00132686
0.00271609
0.0112731
0.0198096
0.00844532
0.0159447
0.0315785
0.0266476
0.0195398
0.0139778
0.0102856
0.00802821
0.00675218
0.00604852
0.00572979
0.00578293
0.00627927
0.00722201
0.00843638
0.00958528
0.0102952
0.0103149
0.00959474
0.00829105
0.00667706
0.00507201
0.00373588
0.00280207
0.00224188
0.00196139
0.00182133
0.00175222
0.00171802
0.00169017
0.00165465
0.00160456
0.00153641
0.00145198
0.00135769
0.00127593
0.00132345
0.0025378
0.00980649
0.0200038
0.00850908
0.013263
0.0256745
0.0233525
0.0186918
0.0145854
0.0115896
0.00954468
0.00820998
0.0072996
0.00683986
0.00696072
0.00772877
0.00899495
0.0103831
0.0114169
0.0117046
0.0110968
0.00968732
0.00779173
0.00577618
0.0040445
0.00284663
0.00220106
0.00186852
0.00170614
0.00162611
0.00158539
0.00156278
0.00154055
0.00151021
0.0014677
0.00141226
0.00134677
0.00128013
0.00124606
0.00141122
0.00271352
0.00913313
0.0172865
0.00967077
0.0133563
0.0224213
0.0220633
0.0177635
0.0143949
0.011896
0.0100855
0.00876917
0.00791798
0.00777569
0.00847968
0.00988244
0.0115425
0.0128798
0.0133918
0.0128149
0.0112438
0.00896473
0.00652256
0.00431402
0.00296223
0.00221973
0.00185157
0.00167033
0.00157764
0.00152514
0.00149022
0.00146211
0.00143184
0.00139501
0.00135003
0.00130008
0.00125713
0.00125925
0.00142246
0.00199279
0.00360557
0.00967366
0.0159723
0.00997209
0.0108798
0.0117671
0.0129254
0.0125537
0.0113748
0.0100743
0.0089456
0.00820162
0.00830182
0.00941923
0.0113028
0.0133752
0.0149563
0.0155072
0.0147824
0.0128093
0.0100888
0.00699216
0.00461428
0.00310857
0.00231884
0.00193514
0.00174712
0.00164466
0.00157914
0.00152861
0.00148266
0.00143646
0.00138862
0.00133939
0.00129057
0.00125575
0.00127798
0.00146875
0.00203864
0.00325335
0.00556373
0.0102284
0.0167766
0.00908544
0.00354249
0.00482087
0.0059896
0.00659182
0.00726779
0.00878471
0.0113054
0.014143
0.0165636
0.0179878
0.0180472
0.0166737
0.0141093
0.0105106
0.00722286
0.00475227
0.00325959
0.00250001
0.00215061
0.00198192
0.00188513
0.00181635
0.00175869
0.00170495
0.00165152
0.00159649
0.00153977
0.00149359
0.00146299
0.00146899
0.00157451
0.00192249
0.00276081
0.00439998
0.00714996
0.0109697
0.0145361
0.00831455
0.00444648
0.00627724
0.00808603
0.010991
0.0146649
0.0181259
0.0203742
0.0214448
0.0213642
0.0201138
0.0175287
0.0139915
0.0102929
0.00700245
0.00470048
0.00339826
0.00279311
0.00253899
0.00242584
0.0023628
0.00231847
0.00228398
0.00225835
0.00224242
0.00223532
0.00223233
0.00222437
0.00220043
0.00218815
0.00221784
0.00234434
0.00269231
0.00348028
0.00502486
0.00768686
0.0117478
0.0173022
0.00831982
0.0150818
0.024558
0.0181222
0.0143662
0.0169567
0.020645
0.0227711
0.0234771
0.0230338
0.0216866
0.0196497
0.0169497
0.0137027
0.0102986
0.00731749
0.00522642
0.00410251
0.00362725
0.00345531
0.00338896
0.00334775
0.00330567
0.00325994
0.0032175
0.00318852
0.00318254
0.00320638
0.00326257
0.00334733
0.00344813
0.00354392
0.00367068
0.00390943
0.00433019
0.00509755
0.00650036
0.00905469
0.0140168
0.0180926
0.0103515
0.0138091
0.0170648
0.0178211
0.0207248
0.0216436
0.0220567
0.0210624
0.0192579
0.0171504
0.0149824
0.0128415
0.0107443
0.0087289
0.00694898
0.00560364
0.004806
0.00443886
0.00431438
0.00430015
0.00432466
0.0043524
0.00436925
0.00437516
0.00437924
0.00439593
0.00444264
0.00453916
0.00470748
0.00496968
0.00534175
0.00582195
0.00636834
0.00693787
0.00759934
0.00854269
0.0100368
0.0124632
0.0172014
0.0193316
0.0113437
0.0121318
0.0089141
0.00882858
0.0093565
0.00980863
0.00925108
0.00819495
0.00703093
0.00593648
0.00495979
0.0041046
0.00338176
0.00282338
0.00245775
0.00227496
0.0022124
0.00221712
0.0022529
0.00230068
0.00235164
0.00240281
0.00245529
0.0025136
0.00258533
0.00268097
0.00281357
0.00299728
0.00324411
0.00355927
0.00393829
0.00436948
0.00484218
0.00535875
0.00592398
0.00654097
0.00723451
0.00802059
0.00893821
0.010012
0.00943157
)
;

boundaryField
{
    floor
    {
        type            kqRWallFunction;
        value           nonuniform List<scalar> 
36
(
0.00358461
0.000792431
0.00162591
0.00165205
0.00157287
0.00144489
0.00128246
0.00113035
0.000998809
0.000887221
0.000792768
0.000713046
0.000645025
0.000586018
0.000533495
0.00048475
0.000436281
0.000397976
0.000326105
0.000326105
0.0005243
0.000678791
0.000823313
0.00117102
0.00204606
0.00188649
0.00358461
0.00429738
0.00390628
0.00357946
0.000792431
0.00357946
0.00253841
0.00538642
0.00403714
0.00534083
)
;
    }
    ceiling
    {
        type            kqRWallFunction;
        value           nonuniform List<scalar> 
43
(
0.0121318
0.0089141
0.00882858
0.0093565
0.00980863
0.00925108
0.00819495
0.00703093
0.00593648
0.00495979
0.0041046
0.00338176
0.00282338
0.00245775
0.00227496
0.0022124
0.00221712
0.0022529
0.00230068
0.00235164
0.00240281
0.00245529
0.0025136
0.00258533
0.00268097
0.00281357
0.00299728
0.00324411
0.00355927
0.00393829
0.00436948
0.00484218
0.00535875
0.00592398
0.00654097
0.00723451
0.00802059
0.00893821
0.010012
0.00943157
0.0108798
0.0117671
0.00444648
)
;
    }
    sWall
    {
        type            kqRWallFunction;
        value           nonuniform List<scalar> 9(0.0219176 0.0192303 0.0159447 0.013263 0.0133563 0.0108798 0.0150818 0.0138091 0.0121318);
    }
    nWall
    {
        type            kqRWallFunction;
        value           nonuniform List<scalar> 
14
(
0.00188649
0.00269942
0.00374816
0.00861795
0.00844532
0.00850908
0.00967077
0.00997209
0.00908544
0.00831455
0.00831982
0.0103515
0.0113437
0.00943157
)
;
    }
    sideWalls
    {
        type            empty;
    }
    glass1
    {
        type            kqRWallFunction;
        value           nonuniform List<scalar> 9(0.00158603 0.00340719 0.0054912 0.00797427 0.0108775 0.0141764 0.0179942 0.0216434 0.0228344);
    }
    glass2
    {
        type            kqRWallFunction;
        value           nonuniform List<scalar> 2(0.00640133 0.00844776);
    }
    sun
    {
        type            kqRWallFunction;
        value           nonuniform List<scalar> 
14
(
0.00158603
0.00180131
0.00178818
0.00194673
0.00209791
0.00224008
0.0023766
0.00251202
0.00265212
0.00280519
0.00295514
0.00310121
0.00324858
0.00341093
)
;
    }
    Table_master
    {
        type            kqRWallFunction;
        value           nonuniform List<scalar> 9(0.00266674 0.00201623 0.00157625 0.00126969 0.00104944 0.000887014 0.000764689 0.000671906 0.000603733);
    }
    Table_slave
    {
        type            kqRWallFunction;
        value           nonuniform List<scalar> 9(0.0034564 0.00285979 0.00243667 0.00211034 0.00185073 0.00163214 0.00143869 0.00125869 0.00107782);
    }
    inlet
    {
        type            turbulentIntensityKineticEnergyInlet;
        intensity       0.05;
        value           uniform 0.0009375;
    }
    outlet
    {
        type            zeroGradient;
    }
}


// ************************************************************************* //
