/*--------------------------------*- C++ -*----------------------------------*\
  =========                 |
  \\      /  F ield         | OpenFOAM: The Open Source CFD Toolbox
   \\    /   O peration     | Website:  https://openfoam.org
    \\  /    A nd           | Version:  6
     \\/     M anipulation  |
\*---------------------------------------------------------------------------*/
FoamFile
{
    version     2.0;
    format      ascii;
    class       volScalarField;
    location    "500";
    object      alphat;
}
// * * * * * * * * * * * * * * * * * * * * * * * * * * * * * * * * * * * * * //

dimensions      [1 -1 -1 0 0 0 0];

internalField   nonuniform List<scalar> 
796
(
0.000691118
0.000682961
0.000556736
0.000569292
0.000589808
0.000610587
0.000630894
0.000650583
0.000669667
0.000688243
0.00070647
0.000724577
0.000742887
0.000761872
0.000780634
0.00079859
0.000815479
0.000830841
0.000843883
0.000853305
0.000857172
0.000853098
0.000839056
0.000814091
0.000778292
0.000730631
0.000687235
0.00064204
0.000594011
0.000550171
0.000515157
0.000485109
0.000460495
0.000444991
0.00045533
0.000479389
0.000532529
0.0006999
0.000969204
0.000870779
0.00129628
0.00219828
0.00100651
0.00156453
0.00171644
0.00183491
0.00197149
0.00212424
0.00229031
0.00246698
0.00265071
0.00283623
0.00301564
0.00317762
0.0033278
0.00347572
0.00362009
0.00375817
0.00388559
0.00399509
0.00407601
0.00411775
0.00411651
0.00407313
0.00398039
0.00385163
0.00370515
0.00354604
0.0033752
0.00315998
0.00293934
0.00276194
0.0026577
0.00263448
0.00258719
0.00241477
0.00186659
0.00186806
0.00323713
0.00127689
0.00181075
0.00412619
0.00124346
0.00199283
0.00270616
0.00292987
0.00311871
0.00331279
0.00350875
0.0037011
0.00388471
0.00405467
0.00420595
0.00433156
0.00444382
0.00454495
0.00463281
0.00470501
0.00475921
0.00479257
0.00480239
0.00479279
0.00477788
0.004761
0.00472416
0.00466834
0.00459824
0.00450919
0.00440006
0.00426553
0.00409132
0.00391587
0.00377013
0.00366902
0.00355372
0.0031466
0.00210986
0.00241634
0.00492099
0.0016345
0.0022684
0.00626838
0.00190021
0.00177599
0.00319726
0.00361045
0.00380611
0.0039752
0.00413219
0.00427518
0.00440214
0.00451173
0.00460255
0.00467284
0.00473108
0.00477421
0.00479708
0.00479503
0.00476505
0.00470644
0.00462466
0.00454663
0.0045126
0.00452613
0.00455265
0.00457926
0.00459338
0.00458985
0.00456623
0.00451892
0.00443971
0.00433258
0.00422185
0.00412412
0.00398872
0.00342182
0.0021803
0.00296506
0.00636854
0.00194381
0.00267405
0.00841749
0.00291826
0.00153144
0.00320652
0.00394923
0.00415877
0.00428682
0.00439179
0.00448025
0.0045545
0.00461669
0.004668
0.00471031
0.00474469
0.00476313
0.00475505
0.00470971
0.00461864
0.00447815
0.00430087
0.00414865
0.00409347
0.00412424
0.00418969
0.00425819
0.00431588
0.00435829
0.00438431
0.00439282
0.00438161
0.00434376
0.00429246
0.00423864
0.00411664
0.00345108
0.00222009
0.00354388
0.00760729
0.00220424
0.00303257
0.0104581
0.00419178
0.00154409
0.00287325
0.00403385
0.00429543
0.00438864
0.00444788
0.00449325
0.00453186
0.00456873
0.00460632
0.0046477
0.00468771
0.00471323
0.00470685
0.00464875
0.00452002
0.0043083
0.00403643
0.00382233
0.00376636
0.00381134
0.00389494
0.00398059
0.00405235
0.00410627
0.00414385
0.00416803
0.00418146
0.00418515
0.00418299
0.0041778
0.00407916
0.00332778
0.00226101
0.0041416
0.0086728
0.00242646
0.00334993
0.0123291
0.00561151
0.00184374
0.00240747
0.00392695
0.00429246
0.00436479
0.00438857
0.0044035
0.00442167
0.00444993
0.00449027
0.0045465
0.00460884
0.00465984
0.00467522
0.00462397
0.00447188
0.00419108
0.00382761
0.00359648
0.00354697
0.00360939
0.00371253
0.00381315
0.00389228
0.00394604
0.00397809
0.0039951
0.00400483
0.0040175
0.00403771
0.0040626
0.00397486
0.00315442
0.00233005
0.00471366
0.0095909
0.00261899
0.00363198
0.0140043
0.00709196
0.00240033
0.00200282
0.00367209
0.00419552
0.00426315
0.00426043
0.00425425
0.0042619
0.0042909
0.00434185
0.00442004
0.00451213
0.00459701
0.00464402
0.00460972
0.0044393
0.00408188
0.00366795
0.00342934
0.00339831
0.00349203
0.0036253
0.00374725
0.0038367
0.00389053
0.00391456
0.0039182
0.00391277
0.00391497
0.00393348
0.00396308
0.00385751
0.00296053
0.00244767
0.00530176
0.0104072
0.00278874
0.00388638
0.0154775
0.00859098
0.00319419
0.00178682
0.00330496
0.00403064
0.0041119
0.0040894
0.00406753
0.00406964
0.00410338
0.00417314
0.00427898
0.00440535
0.00452713
0.00460862
0.00459298
0.00439864
0.00398299
0.0035274
0.00329023
0.00329887
0.00344239
0.00361725
0.00376625
0.00386845
0.00392338
0.00393984
0.00392973
0.0039065
0.00389014
0.00389202
0.00390465
0.00374686
0.00276633
0.00263223
0.00592658
0.0111561
0.00294081
0.00410528
0.0167714
0.0101249
0.00425892
0.00185564
0.00286391
0.00380363
0.00392759
0.00389396
0.00386135
0.0038631
0.00390812
0.00400375
0.00414594
0.00431027
0.00446724
0.00457951
0.00457509
0.00436174
0.00388968
0.00338301
0.00316858
0.0032445
0.00345638
0.00368104
0.00385863
0.00397214
0.00402626
0.00403404
0.00400997
0.00396892
0.00393092
0.00390814
0.00388722
0.00363966
0.00258886
0.00290598
0.00660631
0.0118699
0.00307839
0.00430806
0.0177819
0.0117512
0.00572091
0.00240232
0.00243272
0.00345435
0.00369287
0.00368135
0.00365326
0.0036638
0.0037282
0.0038669
0.00405535
0.00425658
0.00444
0.0045721
0.004573
0.0043425
0.00378499
0.00322654
0.00306685
0.00324071
0.00353582
0.00381232
0.00401417
0.00413309
0.00418166
0.00417852
0.00414095
0.00408402
0.0040243
0.00397272
0.0039025
0.00352073
0.00245635
0.00329954
0.00735722
0.0125741
0.00320169
0.00449142
0.0186213
0.0135154
0.0076783
0.00379441
0.00240364
0.00282502
0.00324883
0.0033941
0.00345018
0.00350818
0.0036104
0.00381592
0.00404571
0.00427033
0.00446367
0.00460003
0.00460307
0.00433673
0.00365757
0.00305704
0.00299479
0.00329686
0.00368212
0.00400371
0.00421901
0.00433373
0.00437049
0.00435504
0.00430885
0.00424412
0.0041671
0.00408225
0.00393804
0.00337135
0.00242716
0.00385865
0.00819364
0.0132652
0.0033119
0.0046563
0.0194939
0.0153843
0.00997997
0.00617547
0.00364538
0.00267708
0.00268274
0.00297077
0.00325541
0.00344774
0.00365453
0.00391024
0.00414475
0.00435667
0.00454438
0.00467803
0.00466698
0.004338
0.00349457
0.00287838
0.00296611
0.00342114
0.00389044
0.00423995
0.00445281
0.00455281
0.00457212
0.00454372
0.00449837
0.00444336
0.004346
0.00420607
0.0039421
0.00318993
0.00262274
0.00465293
0.00913735
0.013898
0.0034216
0.00482548
0.0193058
0.0166515
0.0120825
0.00868084
0.00606744
0.00437265
0.00351884
0.00329499
0.00347177
0.00372071
0.00394691
0.00415719
0.00434851
0.00452742
0.00469164
0.00480466
0.00475737
0.00433218
0.00327996
0.00269937
0.00299515
0.00361424
0.00414275
0.00449409
0.00468934
0.00477055
0.00477265
0.00472772
0.00467474
0.00461937
0.00443867
0.0041767
0.00376988
0.00309928
0.00326179
0.00576275
0.0102196
0.0144473
0.00354516
0.00474708
0.0163691
0.0147889
0.0126063
0.0102251
0.00806655
0.00643634
0.00534661
0.0047277
0.00449743
0.00444815
0.00447303
0.00454488
0.00464652
0.0047671
0.00488944
0.00496294
0.00485341
0.0042909
0.00299709
0.00253513
0.00309135
0.00385905
0.00440003
0.00472682
0.00490278
0.00498121
0.00498649
0.00493355
0.00484115
0.00470179
0.00439958
0.00403861
0.00368066
0.00356658
0.00450992
0.00715996
0.0113875
0.0149364
0.00365735
0.00441983
0.00509452
0.00685968
0.00770384
0.00790739
0.00748292
0.00678992
0.00611014
0.00558199
0.00524805
0.00503965
0.00494329
0.00492592
0.00496104
0.00502753
0.00509857
0.00511376
0.00491149
0.00416368
0.00264026
0.00240741
0.00324729
0.00410514
0.00460077
0.00489216
0.00508554
0.00521283
0.00528114
0.00529239
0.0052472
0.00513332
0.00491589
0.00472689
0.00470401
0.00508208
0.00625799
0.00859634
0.0122391
0.0151171
0.00370764
0.00723642
0.0102672
0.008624
0.00785477
0.00721491
0.00664689
0.00618183
0.00583773
0.00559744
0.00542647
0.00532739
0.00528281
0.00526967
0.00525807
0.00518429
0.00484953
0.0038736
0.00223878
0.00233325
0.00341046
0.00421801
0.00467394
0.00498173
0.00522449
0.00543235
0.00561474
0.00577573
0.00591758
0.00603713
0.0061182
0.00625742
0.0065739
0.00719959
0.00832456
0.0102204
0.0131638
0.0151695
0.00375887
0.00415843
0.0102012
0.00886024
0.00806615
0.00749413
0.00700716
0.00658728
0.00624511
0.00598335
0.0057861
0.00562517
0.00548519
0.00535297
0.00521444
0.00501321
0.00450394
0.00333105
0.00186469
0.00227823
0.00330781
0.00407967
0.00454342
0.00487289
0.0051552
0.00542845
0.00571094
0.00601422
0.00634677
0.00671386
0.00711486
0.00756857
0.00815238
0.00896189
0.0101026
0.0117791
0.0144528
0.0156984
0.003858
0.00324327
0.00608782
0.00553796
0.00998467
0.00844736
0.00775136
0.00725969
0.00680554
0.00637189
0.00597842
0.0056362
0.0053454
0.00505996
0.00475723
0.00446055
0.00417761
0.00387161
0.0033886
0.00247157
0.00157126
0.001963
0.00264716
0.00322466
0.00364676
0.00399186
0.00431568
0.00464636
0.00499983
0.00538728
0.00581766
0.00629891
0.00684014
0.00745515
0.00817233
0.00901892
0.00997853
0.0110954
0.0128767
0.0143366
0.00383036
0.00312986
0.00337577
0.00349896
0.00332706
0.00277916
0.0025562
0.00233684
0.00216116
0.00200396
0.00186342
0.00173811
0.00162703
0.00153207
0.00145168
0.00138098
0.00131724
0.00125801
0.00119875
0.00113626
0.00120297
0.00136335
0.00146627
0.00155817
0.00164566
0.00173291
0.00182237
0.00191559
0.00201382
0.00211831
0.00223055
0.00235242
0.00248635
0.00263548
0.00280386
0.00299613
0.00321687
0.00346939
0.00375421
0.00405581
0.00355149
)
;

boundaryField
{
    floor
    {
        type            compressible::alphatWallFunction;
        Prt             0.85;
        value           nonuniform List<scalar> 
40
(
9.79902e-05
9.67772e-05
7.79469e-05
7.98416e-05
8.29268e-05
8.6038e-05
8.90661e-05
9.19907e-05
9.48151e-05
9.75547e-05
0.000100234
0.000102888
0.000105564
0.000108329
0.000111054
0.000113655
0.000116095
0.000118309
0.000120185
0.000121538
0.000122093
0.000121509
0.000119492
0.000115896
0.000110715
0.000103774
9.74046e-05
9.07201e-05
8.35532e-05
7.69492e-05
7.1628e-05
6.70255e-05
6.32286e-05
6.08248e-05
6.24314e-05
6.61476e-05
7.42756e-05
9.92664e-05
0.000138033
0.000124038
)
;
    }
    ceiling
    {
        type            compressible::alphatWallFunction;
        Prt             0.85;
        value           nonuniform List<scalar> 
43
(
0.000420688
0.000451102
0.000466258
0.000445113
0.00037686
0.000348696
0.000320728
0.000298128
0.000277737
0.000259359
0.000242846
0.000228098
0.000215402
0.000204585
0.000195018
0.000186344
0.000178243
0.000170093
0.000161448
0.000170657
0.000192608
0.000206539
0.000218885
0.000230565
0.000242144
0.000253951
0.000266188
0.000279013
0.000292583
0.000307079
0.00032273
0.000339828
0.000358751
0.00037998
0.000404057
0.000431503
0.000462659
0.000497532
0.000534172
0.00047277
0.000578071
0.000658408
0.000546495
)
;
    }
    sWall
    {
        type            compressible::alphatWallFunction;
        Prt             0.85;
        value           nonuniform List<scalar> 
18
(
9.65343e-05
0.000181729
0.000250554
0.000309993
0.000361616
0.000406562
0.000445892
0.000480526
0.000511532
0.000538049
0.000562486
0.000584484
0.000604191
0.000624338
0.000615018
0.000575932
0.00043268
0.000418606
)
;
    }
    nWall
    {
        type            compressible::alphatWallFunction;
        Prt             0.85;
        value           nonuniform List<scalar> 
20
(
0.00012343
0.000180138
0.000228367
0.000269142
0.000302926
0.000331417
0.000355877
0.000377287
0.000396351
0.000413509
0.000428816
0.000442455
0.000455996
0.000471199
0.00048488
0.000491003
0.000497269
0.000509391
0.000506032
0.000471971
)
;
    }
    sideWalls
    {
        type            empty;
    }
    inlet
    {
        type            fixedValue;
        value           uniform 1.94e-05;
    }
    outlet
    {
        type            zeroGradient;
    }
}


// ************************************************************************* //
