/*--------------------------------*- C++ -*----------------------------------*\
  =========                 |
  \\      /  F ield         | OpenFOAM: The Open Source CFD Toolbox
   \\    /   O peration     | Website:  https://openfoam.org
    \\  /    A nd           | Version:  6
     \\/     M anipulation  |
\*---------------------------------------------------------------------------*/
FoamFile
{
    version     2.0;
    format      ascii;
    class       volScalarField;
    location    "500";
    object      epsilon;
}
// * * * * * * * * * * * * * * * * * * * * * * * * * * * * * * * * * * * * * //

dimensions      [0 2 -3 0 0 0 0];

internalField   nonuniform List<scalar> 
778
(
0.00106785
0.00276961
0.00355622
0.002626
0.00339153
0.00553008
0.00238369
0.00293598
0.00483344
0.00662477
0.002162
0.00238705
0.00363092
0.00606422
0.00749288
0.00197299
0.0019271
0.0026063
0.00390356
0.00721486
0.00826577
0.00181022
0.00159207
0.00192942
0.00235917
0.00378518
0.00796082
0.00904383
0.0016672
0.00134688
0.00150564
0.00152146
0.0018221
0.00325098
0.00806006
0.00993931
0.00154013
0.00116252
0.00123114
0.00107152
0.000972692
0.00120288
0.00253003
0.00762813
0.0110993
0.0014217
0.0010255
0.00104646
0.000820126
0.000592115
0.000510024
0.000694751
0.00187485
0.00721796
0.0128077
0.00130616
0.000923819
0.000905418
0.000676912
0.000410824
0.000262163
0.000229638
0.0003729
0.00148731
0.00765665
0.0152274
0.00118817
0.000849571
0.000795692
0.000596629
0.000322558
0.000163808
0.000104707
0.000110813
0.000244129
0.00164905
0.0094087
0.0185936
0.00106122
0.000796755
0.000712138
0.000547583
0.000296986
0.000122413
6.31733e-05
5.40029e-05
8.96429e-05
0.000271398
0.00221333
0.0127066
0.0235761
0.000913675
0.0007579
0.000652204
0.000516
0.000303105
0.000121658
4.70172e-05
3.49297e-05
4.72107e-05
0.00010576
0.000342993
0.00354858
0.0193949
0.0317607
0.000747065
0.00071662
0.000612471
0.000495845
0.00032265
0.000149124
5.06305e-05
2.60336e-05
3.18916e-05
5.52815e-05
0.000142333
0.000490269
0.0073555
0.035198
0.0477665
0.000635739
0.000580723
0.000484511
0.000345888
0.00019111
7.63831e-05
2.79618e-05
2.37453e-05
3.96383e-05
7.25986e-05
0.00022129
0.000832579
0.023052
0.0807693
0.000696787
0.000538699
0.000475641
0.000368594
0.000237477
0.000119764
4.82084e-05
2.62681e-05
3.63517e-05
5.34073e-05
0.000105597
0.000423959
0.00224694
0.0978774
0.000518138
0.000559521
0.000463266
0.000386448
0.000281704
0.000172728
8.80442e-05
4.7981e-05
4.29299e-05
5.28645e-05
7.14273e-05
0.000186396
0.00106994
0.0203295
0.219609
0.000271803
0.000475638
0.000491828
0.000397719
0.000318244
0.000226771
0.00014149
8.6305e-05
6.25762e-05
6.14527e-05
6.92201e-05
0.000103821
0.000433791
0.00309937
0.0609357
0.0517712
0.000389184
0.000460089
0.000434835
0.000345143
0.000272638
0.00020027
0.000135836
9.59122e-05
7.93135e-05
7.83875e-05
8.86883e-05
0.000195848
0.00114194
0.00698286
0.0136063
0.0182208
0.000578344
0.00042987
0.000388656
0.000306832
0.00024609
0.000186965
0.000137574
0.000107156
9.46137e-05
9.60482e-05
0.000125215
0.000484514
0.00267899
0.00864272
0.0116766
0.00929642
0.013561
0.000198837
0.000578407
0.000398798
0.000354097
0.000281384
0.000227744
0.000179371
0.000140913
0.00011775
0.000110252
0.000120438
0.00022255
0.00128054
0.005269
0.0126299
0.0192591
0.00542833
0.0269723
0.00913074
8.76837e-05
0.000273948
0.000547783
0.000381792
0.000327079
0.00026288
0.000215007
0.000174969
0.000145149
0.000129321
0.000130376
0.000162048
0.000539708
0.00319993
0.00997406
0.0258192
0.009002
0.011847
0.01046
0.000117673
3.01158e-05
4.39145e-05
0.00026893
0.000510898
0.000372864
0.000309587
0.000250689
0.000207061
0.000173578
0.000151585
0.000144791
0.000160439
0.000254103
0.00171001
0.00757311
0.0219056
0.00997422
0.00734435
7.37212e-05
0.000134096
1.12182e-05
1.77459e-05
5.58325e-05
0.000261595
0.000475572
0.00036826
0.00030031
0.000243843
0.000203167
0.000175414
0.000161911
0.000167642
0.00021242
0.00070573
0.0057332
0.0181393
0.00925004
2.63495e-05
0.000130496
2.36181e-05
9.72514e-06
1.2307e-05
1.86527e-05
5.61485e-05
0.000242248
0.000437597
0.000362803
0.000295063
0.000239862
0.0002019
0.000180643
0.000178287
0.000204706
0.000411567
0.00375552
0.0163097
0.00788373
2.5128e-05
3.68988e-05
8.59494e-06
1.21621e-05
1.31535e-05
1.38244e-05
1.89437e-05
5.19611e-05
0.000209381
0.00039174
0.000350621
0.000288244
0.000235347
0.000201922
0.000190329
0.000205846
0.000320109
0.002131
0.0135387
0.00721679
6.0084e-06
1.29986e-05
6.65079e-06
1.65091e-05
1.53516e-05
1.45469e-05
1.48625e-05
1.90454e-05
4.61261e-05
0.000169451
0.000336375
0.00032726
0.000275022
0.000227993
0.000203763
0.000209006
0.000287029
0.00136013
0.00914905
0.00632221
1.9345e-06
4.95048e-06
6.19586e-06
2.10784e-05
1.83401e-05
1.65779e-05
1.57257e-05
1.58205e-05
1.93209e-05
4.03959e-05
0.000130801
0.000274982
0.000291935
0.000254046
0.00021911
0.000212531
0.000271303
0.00100123
0.00591698
0.00555635
8.84164e-07
1.5287e-06
3.69898e-06
2.69158e-05
2.21654e-05
1.93115e-05
1.77205e-05
1.69024e-05
1.70323e-05
2.01897e-05
3.64052e-05
9.96712e-05
0.000214845
0.000249064
0.000229867
0.000216492
0.000261698
0.00082647
0.00407809
0.00476655
6.26599e-07
8.04372e-07
2.31138e-06
3.43016e-05
2.66761e-05
2.2605e-05
2.03078e-05
1.89867e-05
1.84502e-05
1.90016e-05
2.24474e-05
3.56787e-05
7.93085e-05
0.000164361
0.000208699
0.000216045
0.000258447
0.00075761
0.00300354
0.00409901
3.56269e-07
8.37765e-07
1.53191e-06
4.38787e-05
3.21229e-05
2.6421e-05
2.34021e-05
2.163e-05
2.08085e-05
2.09598e-05
2.26413e-05
2.7631e-05
4.05106e-05
7.15408e-05
0.000131262
0.000188918
0.000253809
0.000783274
0.00233064
0.00351828
3.29284e-07
9.02438e-07
2.56982e-06
5.67521e-05
3.88654e-05
3.0892e-05
2.70279e-05
2.47951e-05
2.37496e-05
2.38571e-05
2.55154e-05
2.98861e-05
3.92047e-05
5.57697e-05
7.95737e-05
0.000126168
0.000237242
0.000843019
0.00222163
0.00314009
4.68249e-07
1.51368e-06
5.75452e-06
7.49068e-05
4.73991e-05
3.62028e-05
3.13009e-05
2.85372e-05
2.72782e-05
2.74338e-05
2.94127e-05
3.44903e-05
4.53389e-05
6.5386e-05
9.23662e-05
0.00011767
0.000239672
0.000957557
0.00246706
0.00302028
7.32903e-07
2.18639e-06
1.13847e-05
0.000102143
5.84518e-05
4.25826e-05
3.63914e-05
3.29669e-05
3.14769e-05
3.17471e-05
3.42029e-05
4.03458e-05
5.36712e-05
8.04886e-05
0.000126129
0.000183033
0.000331955
0.00119699
0.00311196
0.00306089
8.51291e-07
3.10492e-06
2.33153e-05
0.000146356
7.3199e-05
5.03399e-05
4.25309e-05
3.82394e-05
3.64692e-05
3.69247e-05
4.00224e-05
4.75101e-05
6.37443e-05
9.79243e-05
0.000164976
0.000280231
0.000526449
0.00163094
0.0042302
0.0032339
9.53624e-07
4.66148e-06
5.24338e-05
0.000116607
9.35909e-05
5.99419e-05
5.00516e-05
4.45646e-05
4.24183e-05
4.31337e-05
4.70746e-05
5.62471e-05
7.59043e-05
0.000118045
0.000206696
0.000385466
0.000784597
0.00224236
0.00576686
0.00352456
1.13157e-06
7.17331e-06
7.12651e-05
0.000172657
0.000122295
7.21537e-05
5.94596e-05
5.22396e-05
4.95401e-05
5.05863e-05
5.56081e-05
6.6882e-05
9.06159e-05
0.000141625
0.000252703
0.000493809
0.00106036
0.00293357
0.00751901
0.00392231
1.58352e-06
1.57581e-05
0.000138394
0.000300444
0.000169749
8.8383e-05
7.15672e-05
6.17116e-05
5.81323e-05
5.95582e-05
6.59277e-05
7.97965e-05
0.000108385
0.000169427
0.000304188
0.000609818
0.0013428
0.00359235
0.00922118
0.00441289
2.62207e-06
4.37983e-05
0.000351225
0.000266589
0.000251575
0.00011067
8.77047e-05
7.37101e-05
6.86247e-05
7.04208e-05
7.84242e-05
9.54375e-05
0.000129862
0.000201992
0.00036285
0.000733109
0.00161574
0.00417077
0.0106631
0.00496521
6.62595e-06
0.000133411
0.000172783
0.000397753
0.000142201
0.000110258
8.92697e-05
8.11218e-05
8.31049e-05
9.33116e-05
0.00011439
0.000155705
0.000241019
0.000426422
0.000837543
0.00182988
0.00462132
0.0117365
0.0055291
2.09059e-05
7.79724e-05
0.000314105
0.000188184
0.000143432
0.000111008
9.64791e-05
9.75304e-05
0.000109445
0.000134215
0.000181641
0.000276672
0.000477376
0.000916743
0.00197865
0.00492161
0.0124501
0.00605246
2.44344e-05
0.000313401
0.000251838
0.000193332
0.000144557
0.000116433
0.000114344
0.000127202
0.000155345
0.000207981
0.000310203
0.000520725
0.000977395
0.00207305
0.00507342
0.0128365
0.00648678
0.000227323
0.000341871
0.000264181
0.000201989
0.000145099
0.000134803
0.000146863
0.000177937
0.000235475
0.000343604
0.000560866
0.00102643
0.00213111
0.00512016
0.0129273
0.00681983
0.000189991
0.000349359
0.000308016
0.000193163
0.000162218
0.000169219
0.000201891
0.00026448
0.000378341
0.000600935
0.00107069
0.0021705
0.00511108
0.0128361
0.00706293
0.000331868
0.000500681
0.000294285
0.000206321
0.000196953
0.000227392
0.000294321
0.000415393
0.000643242
0.00111595
0.00220587
0.00508628
0.0126805
0.00720067
0.000428816
0.000504398
0.000299288
0.000239238
0.000256133
0.000324359
0.000452797
0.000688743
0.00116619
0.00224781
0.00507349
0.0125479
0.00724841
0.000474661
0.000456963
0.000326378
0.000296458
0.000354535
0.000488842
0.000735868
0.0012227
0.00230252
0.00508893
0.012489
0.00723578
0.000516322
0.000512287
0.000380425
0.000391125
0.000520598
0.000779775
0.00128245
0.00237089
0.00513899
0.0125232
0.00719331
0.000599947
0.000595556
0.000468388
0.000550437
0.000812334
0.00133576
0.00244622
0.0052207
0.0126475
0.00714461
0.000743179
0.000718032
0.00061207
0.000828901
0.00136475
0.00250975
0.00531924
0.0128408
0.00710325
0.000946592
0.00089264
0.000862012
0.00135036
0.00252511
0.00540094
0.0130636
0.00707203
0.00123858
0.00114839
0.0013188
0.00244231
0.00540166
0.0132507
0.00704284
0.00167908
0.00155691
0.00226041
0.00522122
0.013299
0.00699547
0.00239486
0.00231556
0.0047845
0.0130904
0.00689504
0.00366844
0.00453402
0.0126575
0.00669229
0.00620802
0.0135755
0.00634403
0.011857
0.00594334
0.00418011
)
;

boundaryField
{
    floor
    {
        Cmu             0.09;
        kappa           0.41;
        E               9.8;
        type            epsilonWallFunction;
        value           nonuniform List<scalar> 
36
(
0.000747065
2.63495e-05
2.5128e-05
6.0084e-06
1.9345e-06
8.84164e-07
6.26599e-07
3.56269e-07
3.29284e-07
4.68249e-07
7.32903e-07
8.51291e-07
9.53624e-07
1.13157e-06
1.58352e-06
2.62207e-06
6.62595e-06
2.09059e-05
2.44344e-05
2.44344e-05
7.79724e-05
0.000172783
0.000266589
0.000314105
0.000313401
0.000227323
0.000747065
0.000696787
0.000518138
0.000271803
2.63495e-05
0.000271803
7.37212e-05
0.000389184
0.000117673
0.000198837
)
;
    }
    ceiling
    {
        Cmu             0.09;
        kappa           0.41;
        E               9.8;
        type            epsilonWallFunction;
        value           nonuniform List<scalar> 
43
(
0.00734435
0.01046
0.00913074
0.009002
0.00997422
0.00925004
0.00788373
0.00721679
0.00632221
0.00555635
0.00476655
0.00409901
0.00351828
0.00314009
0.00302028
0.00306089
0.0032339
0.00352456
0.00392231
0.00441289
0.00496521
0.0055291
0.00605246
0.00648678
0.00681983
0.00706293
0.00720067
0.00724841
0.00723578
0.00719331
0.00714461
0.00710325
0.00707203
0.00704284
0.00699547
0.00689504
0.00669229
0.00634403
0.00594334
0.00418011
0.0477665
0.0807693
0.0517712
)
;
    }
    sWall
    {
        Cmu             0.09;
        kappa           0.41;
        E               9.8;
        type            epsilonWallFunction;
        value           nonuniform List<scalar> 9(0.0128077 0.0152274 0.0185936 0.0235761 0.0317607 0.0477665 0.00542833 0.011847 0.00734435);
    }
    nWall
    {
        Cmu             0.09;
        kappa           0.41;
        E               9.8;
        type            epsilonWallFunction;
        value           nonuniform List<scalar> 
14
(
0.000227323
0.000189991
0.000331868
0.000516322
0.000599947
0.000743179
0.000946592
0.00123858
0.00167908
0.00239486
0.00366844
0.00620802
0.011857
0.00418011
)
;
    }
    sideWalls
    {
        type            empty;
    }
    glass1
    {
        Cmu             0.09;
        kappa           0.41;
        E               9.8;
        type            epsilonWallFunction;
        value           nonuniform List<scalar> 9(0.00106785 0.00355622 0.00553008 0.00662477 0.00749288 0.00826577 0.00904383 0.00993931 0.0110993);
    }
    glass2
    {
        Cmu             0.09;
        kappa           0.41;
        E               9.8;
        type            epsilonWallFunction;
        value           nonuniform List<scalar> 2(0.000428816 0.000474661);
    }
    sun
    {
        Cmu             0.09;
        kappa           0.41;
        E               9.8;
        type            epsilonWallFunction;
        value           nonuniform List<scalar> 
14
(
0.00106785
0.00276961
0.002626
0.00238369
0.002162
0.00197299
0.00181022
0.0016672
0.00154013
0.0014217
0.00130616
0.00118817
0.00106122
0.000913675
)
;
    }
    Table_master
    {
        Cmu             0.09;
        kappa           0.41;
        E               9.8;
        type            epsilonWallFunction;
        value           nonuniform List<scalar> 9(6.19586e-06 3.69898e-06 2.31138e-06 1.53191e-06 2.56982e-06 5.75452e-06 1.13847e-05 2.33153e-05 5.24338e-05);
    }
    Table_slave
    {
        Cmu             0.09;
        kappa           0.41;
        E               9.8;
        type            epsilonWallFunction;
        value           nonuniform List<scalar> 9(1.65091e-05 2.10784e-05 2.69158e-05 3.43016e-05 4.38787e-05 5.67521e-05 7.49068e-05 0.000102143 0.000146356);
    }
    inlet
    {
        type            fixedValue;
        value           uniform 0.00082175;
    }
    outlet
    {
        type            zeroGradient;
    }
}


// ************************************************************************* //
