/*--------------------------------*- C++ -*----------------------------------*\
  =========                 |
  \\      /  F ield         | OpenFOAM: The Open Source CFD Toolbox
   \\    /   O peration     | Website:  https://openfoam.org
    \\  /    A nd           | Version:  6
     \\/     M anipulation  |
\*---------------------------------------------------------------------------*/
FoamFile
{
    version     2.0;
    format      ascii;
    class       volScalarField;
    location    "500";
    object      epsilon;
}
// * * * * * * * * * * * * * * * * * * * * * * * * * * * * * * * * * * * * * //

dimensions      [0 2 -3 0 0 0 0];

internalField   nonuniform List<scalar> 
662
(
9.91254e-05
0.000107916
0.000101079
0.000112296
0.00012294
0.000132653
0.000141529
0.00014978
0.0001577
0.000165695
0.000174099
0.000182829
0.000192542
0.000204725
0.000220446
8.61892e-05
7.47406e-05
6.50484e-05
5.75942e-05
5.1468e-05
4.59772e-05
4.12159e-05
3.71636e-05
3.37213e-05
3.07508e-05
2.81489e-05
2.58316e-05
2.37193e-05
2.17235e-05
1.97455e-05
1.76405e-05
1.59245e-05
1.24843e-05
0.000397463
0.00101026
9.71261e-05
8.22392e-05
8.23671e-05
8.37265e-05
8.57474e-05
8.90782e-05
9.45471e-05
0.000103093
0.000115102
0.000130378
0.000149347
0.000173362
0.000211461
0.000274988
0.000258674
0.000253718
0.000153224
9.51957e-05
6.67803e-05
5.05857e-05
4.04503e-05
3.53795e-05
3.04742e-05
2.65353e-05
2.33611e-05
2.06981e-05
1.84137e-05
1.64141e-05
1.46332e-05
1.31325e-05
1.25296e-05
1.29653e-05
3.16941e-05
2.2716e-05
0.00099232
0.00351458
0.000179059
8.05811e-05
7.69838e-05
7.84749e-05
8.06734e-05
8.39804e-05
8.89562e-05
9.60693e-05
0.000105624
0.000118016
0.000133507
0.000153537
0.000183358
0.00022199
0.000244061
0.000389638
0.000218701
0.00010732
6.65861e-05
4.78157e-05
3.95051e-05
7.11447e-05
5.30131e-05
4.08139e-05
3.2553e-05
2.68271e-05
2.27508e-05
1.98e-05
1.77011e-05
1.64035e-05
1.33872e-05
1.28809e-05
5.80814e-05
3.38396e-05
0.00204825
0.00837508
0.00044532
8.93731e-05
7.77367e-05
7.99355e-05
8.15727e-05
8.29723e-05
8.52684e-05
8.97277e-05
9.76193e-05
0.000109063
0.00012255
0.000135648
0.000149344
0.000165706
0.000184555
0.000262224
0.000347359
0.000190818
9.45311e-05
5.61124e-05
4.09319e-05
3.69497e-05
8.31556e-05
7.19857e-05
6.72655e-05
6.44318e-05
6.10737e-05
5.59396e-05
5.03915e-05
4.45929e-05
3.78847e-05
2.38837e-05
1.77515e-05
9.58064e-05
4.673e-05
0.00358115
0.0131972
0.00115236
0.000128386
8.39562e-05
8.26893e-05
8.27418e-05
8.27548e-05
8.41047e-05
8.85996e-05
9.80774e-05
0.000113466
0.000131064
0.000142748
0.000148908
0.000151148
0.000153774
0.000177403
0.000222112
0.000116079
6.77584e-05
4.5514e-05
3.80901e-05
3.73539e-05
4.177e-05
4.51428e-05
4.76853e-05
4.87057e-05
4.74749e-05
4.37157e-05
3.89687e-05
3.48645e-05
3.143e-05
2.59868e-05
2.14607e-05
6.46718e-05
9.42644e-05
0.000115542
0.000147524
0.000183113
0.00641495
0.0219204
0.00376129
0.000585826
0.000184625
0.000106381
8.69225e-05
8.11012e-05
8.0982e-05
8.68174e-05
0.000101174
0.000124714
0.000152166
0.000165849
0.000169891
0.000165547
0.000157899
0.000166559
0.000203559
0.000107133
6.28695e-05
4.63238e-05
4.30272e-05
4.51542e-05
5.02941e-05
5.64903e-05
6.21871e-05
6.61089e-05
6.67345e-05
6.25618e-05
5.28697e-05
4.31554e-05
3.50804e-05
2.86303e-05
2.57336e-05
4.47406e-05
7.54904e-05
9.88852e-05
0.000206973
0.000198058
0.0107132
0.0148419
0.0106386
0.00484359
0.00160362
0.000429769
0.000161939
0.000104344
9.00916e-05
9.00275e-05
0.000102074
0.000132542
0.000185923
0.000200841
0.000204601
0.000196317
0.000178739
0.000171541
0.000221724
0.000121269
7.13854e-05
5.61355e-05
5.40931e-05
5.74362e-05
6.38639e-05
7.22383e-05
8.14921e-05
9.04587e-05
9.69318e-05
9.84918e-05
9.06188e-05
7.36286e-05
5.91049e-05
4.80968e-05
4.4279e-05
5.45674e-05
8.1434e-05
0.000129809
0.000279935
0.000263925
0.00544738
0.00798678
0.00726566
0.00621967
0.00467738
0.00270827
0.00121596
0.000491096
0.000243603
0.000174117
0.000168261
0.000193942
0.00024282
0.000248945
0.000249809
0.000237642
0.000210513
0.000181198
0.000243201
0.00014414
8.93128e-05
7.324e-05
7.10388e-05
7.44309e-05
8.12563e-05
9.08602e-05
0.000102916
0.000117332
0.000133915
0.000152088
0.000169703
0.000176131
0.000173054
0.00018136
0.000209083
0.000306502
0.000546178
0.0010767
0.00450651
0.00113424
0.00115382
0.00337396
0.0035703
0.00297067
0.00202282
0.00121112
0.000721965
0.000483932
0.000379737
0.000332622
0.000327369
0.000315559
0.000307439
0.000285573
0.000246523
0.000192773
0.000258657
0.000179275
0.00012122
0.000102392
9.77033e-05
9.85304e-05
0.000102841
0.000110403
0.000121581
0.000137319
0.000159214
0.00018952
0.000231152
0.000287715
0.000363355
0.000479358
0.000658988
0.000914343
0.00122505
0.00152526
0.00175589
0.000967072
0.000829381
0.0016507
0.0022112
0.00228279
0.00189022
0.00137261
0.000963834
0.000704017
0.000549554
0.00045582
0.00041419
0.000388727
0.000367437
0.0003284
0.000276389
0.000198013
0.000271679
0.000245138
0.000185027
0.000160624
0.000151847
0.000147792
0.000146193
0.000147186
0.00015127
0.000159321
0.000172914
0.000194675
0.000228753
0.000281147
0.000357767
0.000467896
0.000621246
0.000815472
0.00102581
0.00120974
0.00116088
0.000612172
0.00589001
0.00549694
0.00150859
0.00176805
0.00218051
0.00219722
0.00191041
0.00150442
0.0011406
0.000875408
0.000695552
0.000577734
0.000524435
0.000451504
0.000389501
0.000333502
0.000291237
0.000193729
0.000217002
0.000245808
0.000239587
0.000223979
0.000212004
0.000201829
0.000193613
0.0001888
0.000188826
0.000194927
0.000208352
0.000230697
0.000264319
0.00031352
0.0003838
0.000481447
0.000611277
0.000771358
0.000965962
0.00139773
0.000709304
0.00069024
0.00302031
0.00319522
0.00316226
0.00397285
0.00425437
0.00397083
0.00309844
0.0024183
0.00190421
0.00152402
0.00125813
0.00108734
0.00083776
0.000701836
0.000584038
0.000478197
0.000376731
0.000194559
0.000155146
0.000158333
0.000152262
0.000149374
0.000149706
0.000152234
0.000157045
0.000164487
0.0001749
0.000188715
0.000206658
0.000230085
0.00026163
0.000301159
0.000351039
0.000413637
0.000492044
0.000590866
0.000677417
0.000526912
0.000444543
0.000636241
0.011406
0.0164132
0.00750728
0.00295157
0.000826378
0.000242549
0.000122091
9.34509e-05
8.76044e-05
9.28492e-05
0.00011555
0.000152651
0.00818731
0.00796323
0.00670997
0.00555671
0.00368292
0.00186249
0.000768008
0.000330197
0.000197303
0.00016479
0.000180026
0.000208105
0.00286421
0.00359385
0.00334623
0.00250595
0.00157945
0.000927484
0.000579468
0.000421642
0.000351753
0.000319889
0.00128611
0.00197217
0.00231974
0.00212453
0.00162718
0.00114865
0.000817412
0.000616906
0.000496669
0.000425357
0.0163115
0.00303698
0.00147938
0.00204922
0.00223485
0.00208202
0.00171014
0.00131118
0.000995761
0.000776461
0.000629468
0.000538492
0.00735554
0.00304017
0.00358195
0.00419607
0.00418188
0.00359112
0.00272278
0.00214493
0.00169793
0.00137863
0.0011607
0.00105871
0.0122877
0.0105174
0.00927406
0.00675753
0.00385414
0.00156619
0.00050499
0.000199086
0.000127136
0.000111271
0.000120329
0.000153674
0.00568917
0.0086054
0.00726705
0.00542954
0.00445664
0.00314209
0.00180764
0.000911498
0.000478134
0.000310496
0.000259763
0.000255916
0.00204312
0.00211678
0.00272676
0.00259771
0.00198951
0.00133695
0.000878302
0.000617924
0.000480312
0.000402225
0.000745597
0.00150766
0.0020105
0.00212597
0.00183952
0.00140651
0.00103448
0.000777472
0.000611945
0.000507246
0.00597427
0.00429565
0.0019629
0.00242209
0.00272561
0.00262283
0.00217577
0.00171795
0.00132061
0.00103309
0.000844086
0.000728819
0.00476163
0.00393205
0.00459699
0.00510443
0.00512784
0.00465883
0.00369829
0.00294774
0.00241436
0.00198352
0.0016337
0.00137011
0.0106402
0.0106425
0.00804565
0.00532778
0.00255785
0.000894016
0.00029692
0.000149595
0.00011519
0.000111851
0.000135763
0.00017204
0.006739
0.00917657
0.00606492
0.00496741
0.00383794
0.00243953
0.00129298
0.000648205
0.000372896
0.000275774
0.000255483
0.000258727
0.00159823
0.00251347
0.00274742
0.00232501
0.00164691
0.00107943
0.000727709
0.000538898
0.000435971
0.000378961
0.00132841
0.001804
0.00212668
0.00201941
0.00162454
0.00120648
0.000892369
0.000685437
0.000553099
0.000474869
0.0134982
0.00290457
0.00212073
0.00264755
0.00273035
0.00241102
0.00194465
0.00150668
0.00116309
0.000927781
0.000778496
0.000690232
0.00362365
0.00429671
0.0048878
0.00518078
0.00495089
0.00425246
0.0032715
0.00266595
0.00218783
0.00179936
0.00149059
0.00126694
)
;

boundaryField
{
    floor
    {
        Cmu             0.09;
        kappa           0.41;
        E               9.8;
        type            epsilonWallFunction;
        value           nonuniform List<scalar> 
36
(
0.000220446
8.61892e-05
7.47406e-05
6.50484e-05
5.75942e-05
5.1468e-05
4.59772e-05
4.12159e-05
3.71636e-05
3.37213e-05
3.07508e-05
2.81489e-05
2.58316e-05
2.37193e-05
2.17235e-05
1.97455e-05
1.76405e-05
1.59245e-05
1.24843e-05
1.24843e-05
2.2716e-05
3.38396e-05
4.673e-05
0.000115542
0.000147524
0.000183113
0.000220446
0.000274988
0.000258674
0.000253718
8.61892e-05
0.000253718
0.000153224
0.000389638
0.000218701
0.000347359
)
;
    }
    ceiling
    {
        Cmu             0.09;
        kappa           0.41;
        E               9.8;
        type            epsilonWallFunction;
        value           nonuniform List<scalar> 
58
(
0.00362365
0.00429671
0.0048878
0.00518078
0.00495089
0.00425246
0.0032715
0.00266595
0.00218783
0.00179936
0.00149059
0.00126694
0.00083776
0.000701836
0.000584038
0.000478197
0.000376731
0.000194559
0.000155146
0.000158333
0.000152262
0.000149374
0.000149706
0.000152234
0.000157045
0.000164487
0.0001749
0.000188715
0.000206658
0.000230085
0.00026163
0.000301159
0.000351039
0.000413637
0.000492044
0.000590866
0.000677417
0.000526912
0.000444543
0.000636241
0.006739
0.00917657
0.000745597
0.00302031
0.00393205
0.00459699
0.00510443
0.00512784
0.00465883
0.00369829
0.00294774
0.00241436
0.00198352
0.0016337
0.00137011
0.00544738
0.0086054
0.000829381
)
;
    }
    sWall
    {
        Cmu             0.09;
        kappa           0.41;
        E               9.8;
        type            epsilonWallFunction;
        value           nonuniform List<scalar> 4(0.00597427 0.00476163 0.00589001 0.00302031);
    }
    nWall
    {
        Cmu             0.09;
        kappa           0.41;
        E               9.8;
        type            epsilonWallFunction;
        value           nonuniform List<scalar> 6(0.000183113 0.000198058 0.000263925 0.000612172 0.00069024 0.000636241);
    }
    sideWalls
    {
        type            empty;
    }
    glass1
    {
        Cmu             0.09;
        kappa           0.41;
        E               9.8;
        type            epsilonWallFunction;
        value           nonuniform List<scalar> 10(9.91254e-05 0.000397463 0.00099232 0.00204825 0.00358115 0.00641495 0.0122877 0.00568917 0.0107132 0.00544738);
    }
    glass2
    {
        Cmu             0.09;
        kappa           0.41;
        E               9.8;
        type            epsilonWallFunction;
        value           nonuniform List<scalar> 2(0.00113424 0.000967072);
    }
    sun
    {
        Cmu             0.09;
        kappa           0.41;
        E               9.8;
        type            epsilonWallFunction;
        value           nonuniform List<scalar> 
14
(
9.91254e-05
0.000107916
0.000101079
0.000112296
0.00012294
0.000132653
0.000141529
0.00014978
0.0001577
0.000165695
0.000174099
0.000182829
0.000192542
0.000204725
)
;
    }
    Table_master
    {
        Cmu             0.09;
        kappa           0.41;
        E               9.8;
        type            epsilonWallFunction;
        value           nonuniform List<scalar> 9(7.11447e-05 5.30131e-05 4.08139e-05 3.2553e-05 2.68271e-05 2.27508e-05 1.98e-05 1.77011e-05 1.64035e-05);
    }
    Table_slave
    {
        Cmu             0.09;
        kappa           0.41;
        E               9.8;
        type            epsilonWallFunction;
        value           nonuniform List<scalar> 9(8.31556e-05 7.19857e-05 6.72655e-05 6.44318e-05 6.10737e-05 5.59396e-05 5.03915e-05 4.45929e-05 3.78847e-05);
    }
    inlet
    {
        type            turbulentMixingLengthDissipationRateInlet;
        mixingLength    0.01;
        phi             phi;
        k               k;
        value           uniform 0.000471671;
    }
    outlet
    {
        type            zeroGradient;
    }
}


// ************************************************************************* //
