/*--------------------------------*- C++ -*----------------------------------*\
  =========                 |
  \\      /  F ield         | OpenFOAM: The Open Source CFD Toolbox
   \\    /   O peration     | Website:  https://openfoam.org
    \\  /    A nd           | Version:  6
     \\/     M anipulation  |
\*---------------------------------------------------------------------------*/
FoamFile
{
    version     2.0;
    format      ascii;
    class       volScalarField;
    location    "500";
    object      k;
}
// * * * * * * * * * * * * * * * * * * * * * * * * * * * * * * * * * * * * * //

dimensions      [0 2 -2 0 0 0 0];

internalField   nonuniform List<scalar> 
662
(
0.000848918
0.000898395
0.000860045
0.000922551
0.000979962
0.00103092
0.00107641
0.00111785
0.00115692
0.00119569
0.00123579
0.00127677
0.0013216
0.00137677
0.00144639
0.00077329
0.000703214
0.000641027
0.000591069
0.000548374
0.000508642
0.00047289
0.000441362
0.000413668
0.000389003
0.000366739
0.000346325
0.000327178
0.000308558
0.000289531
0.000268571
0.000250859
0.000213287
0.00214257
0.00394303
0.00106705
0.00105937
0.00108338
0.00111769
0.00115651
0.00120283
0.00126009
0.00133073
0.00141509
0.00150436
0.00158654
0.00164012
0.00166058
0.00167609
0.00160913
0.00158851
0.00113487
0.00101307
0.000898927
0.000808203
0.000729391
0.000649078
0.000584648
0.000533367
0.000489454
0.000450433
0.000414959
0.000381749
0.000349362
0.000317983
0.000298206
0.00029265
0.000497341
0.000317893
0.00394308
0.00941794
0.00145336
0.00122549
0.00123709
0.00127782
0.00131884
0.00136423
0.00141905
0.00148602
0.00156487
0.00166113
0.00177169
0.00189995
0.00207276
0.00225079
0.00217011
0.00211449
0.0014387
0.00122749
0.00103779
0.000920978
0.000835654
0.00068049
0.000559308
0.000469824
0.00040407
0.000355177
0.000318219
0.00029007
0.00026919
0.000255868
0.000247054
0.000264737
0.000720658
0.000414647
0.00639228
0.018468
0.00231537
0.00136676
0.00135922
0.00140674
0.00143158
0.00144244
0.00145417
0.00148188
0.00153822
0.0016253
0.00172668
0.00182082
0.00191188
0.0020114
0.00211289
0.002609
0.00195851
0.00175285
0.00135824
0.00110388
0.00097848
0.000911167
0.000755077
0.000685849
0.00065553
0.000636988
0.000614659
0.000579711
0.000540717
0.000498399
0.00044707
0.000348157
0.00031031
0.000990135
0.000514195
0.00927716
0.0275699
0.00455296
0.0015626
0.00146691
0.0015066
0.00151103
0.00149367
0.00147815
0.00148817
0.00154462
0.00165237
0.00177593
0.00185468
0.00187972
0.00185918
0.00184594
0.00211052
0.00268483
0.00185901
0.00138677
0.00112641
0.00103434
0.00102413
0.00104102
0.00107818
0.00110991
0.00111897
0.0010936
0.00102778
0.000925404
0.000812088
0.000694249
0.000547159
0.000432931
0.000785131
0.000897204
0.000940215
0.00110656
0.00127804
0.0136834
0.0410693
0.0114722
0.00326164
0.00197703
0.0016992
0.00158966
0.00152613
0.00149456
0.00150784
0.00158687
0.00173425
0.0019096
0.00200538
0.0020148
0.00193049
0.00180294
0.00193817
0.00259143
0.0018672
0.00138723
0.00116306
0.00111253
0.00114483
0.00121692
0.0013023
0.00137484
0.00141817
0.00141731
0.00135671
0.0012182
0.00105016
0.000877251
0.00070606
0.000585031
0.000678328
0.000843127
0.000945915
0.00157927
0.00134667
0.0121337
0.0240503
0.0218075
0.012736
0.00598613
0.00289886
0.00198675
0.00170423
0.00160505
0.00159141
0.00164658
0.00179934
0.00210613
0.00221977
0.00223942
0.00212785
0.00189503
0.00187648
0.00270152
0.00201323
0.00148478
0.00127652
0.00123956
0.00128161
0.00136352
0.00146346
0.00156362
0.00165061
0.00170704
0.00171589
0.00163834
0.00144054
0.0012209
0.00100714
0.000872707
0.000866203
0.000988309
0.00123323
0.00178806
0.00163075
0.00772988
0.0131111
0.0146604
0.0146212
0.0126812
0.00888803
0.00530851
0.0032018
0.00235053
0.00208241
0.00205353
0.00215346
0.00241437
0.0024808
0.00249457
0.00236874
0.00205623
0.00184557
0.00281566
0.00222415
0.00167039
0.00145864
0.00141542
0.0014446
0.00151042
0.00159832
0.00170068
0.00181558
0.00194307
0.00208322
0.00222615
0.00229227
0.00221551
0.00212378
0.0021474
0.002531
0.00346038
0.00512589
0.012393
0.0043106
0.00198562
0.0073588
0.00941218
0.00920649
0.00747016
0.00547992
0.00405815
0.00329241
0.00294239
0.00278223
0.00282282
0.00280766
0.00277648
0.00259396
0.00220032
0.00182368
0.00285908
0.00252152
0.00197116
0.00173862
0.00166339
0.00164971
0.00166617
0.00170448
0.00176335
0.00184585
0.00195774
0.00210509
0.00229195
0.00251979
0.00279141
0.00317396
0.00373252
0.00446142
0.00522447
0.00579641
0.00606839
0.0038759
0.00220403
0.00384812
0.00610124
0.00729939
0.00700815
0.00594879
0.00487834
0.00410151
0.00360361
0.00329875
0.0032098
0.00311118
0.00299134
0.00269987
0.00222943
0.00173289
0.00289322
0.00302075
0.00249136
0.00222351
0.00211446
0.00204965
0.0019997
0.00196405
0.00194618
0.00195169
0.00198978
0.00207423
0.00222407
0.00246102
0.00278853
0.00321973
0.00376403
0.00437912
0.00496152
0.00539706
0.00507954
0.00285746
0.00814314
0.0115209
0.0041357
0.00459689
0.00641733
0.00732456
0.00722727
0.00648902
0.00560075
0.00484633
0.0042827
0.00388485
0.00356815
0.00317634
0.00280699
0.00242573
0.00206444
0.00155409
0.00241346
0.00279563
0.00265346
0.00248321
0.00237179
0.00227568
0.00219098
0.00213038
0.00210572
0.00212474
0.00219155
0.00230775
0.00247295
0.00271166
0.00303656
0.00345593
0.00396544
0.00453568
0.00518581
0.0065468
0.00383474
0.0030955
0.00521694
0.00766121
0.00867453
0.0104319
0.011462
0.0114894
0.0101415
0.0087549
0.00750949
0.00647118
0.00567346
0.00505211
0.00352219
0.00313008
0.00276923
0.00242364
0.00206735
0.00133066
0.00114435
0.00115995
0.0011301
0.00111577
0.00111742
0.00112997
0.00115366
0.00118982
0.00123952
0.00130396
0.00138536
0.00148818
0.00162127
0.00178072
0.00197228
0.00220028
0.00247021
0.00279077
0.00305705
0.00258557
0.00230855
0.00293188
0.0159523
0.0290734
0.0175603
0.00903345
0.00402464
0.0022932
0.00180192
0.00163361
0.00158122
0.00160031
0.00171014
0.00191641
0.0117763
0.0145436
0.0147174
0.013982
0.0108898
0.00694827
0.00405241
0.0026615
0.00217423
0.00204472
0.00209566
0.00222459
0.00550913
0.00868006
0.00956731
0.00845042
0.00643521
0.00467892
0.00360576
0.00308463
0.00284623
0.00274665
0.00285915
0.00501079
0.00690001
0.00730727
0.00651808
0.00538514
0.00444996
0.00382385
0.00342977
0.00320792
0.0215013
0.00757823
0.00381817
0.00557994
0.00700007
0.00738874
0.00690555
0.00603899
0.00519981
0.00454154
0.00406333
0.00373976
0.0121179
0.00799548
0.00960371
0.0110701
0.0116134
0.0109734
0.0094092
0.0081144
0.00695954
0.00604356
0.00534632
0.00481311
0.0132952
0.0167978
0.0186274
0.0160555
0.0110457
0.00604838
0.00319072
0.00215714
0.00184309
0.00175825
0.00178692
0.00193146
0.00795696
0.0104848
0.0112257
0.0116991
0.0116894
0.00979136
0.00693336
0.00455886
0.00321373
0.00264177
0.00246337
0.00245113
0.00345035
0.00470924
0.00732654
0.00815112
0.00731885
0.00584873
0.00458531
0.0037803
0.00332853
0.00306963
0.00205298
0.003726
0.00573325
0.00694615
0.00689377
0.00608273
0.00515242
0.00440814
0.00388582
0.00354608
0.00822061
0.00995089
0.00592549
0.00676587
0.00815589
0.00871768
0.00818469
0.00727871
0.00628045
0.00544725
0.00484405
0.00443192
0.00706672
0.00622005
0.00690288
0.00740195
0.00742457
0.00696465
0.00597103
0.00513303
0.00449348
0.00394159
0.00346334
0.00307999
0.0143144
0.0192182
0.0176877
0.0137828
0.00834589
0.00431069
0.00251398
0.00194758
0.00178068
0.00175626
0.00184897
0.00202879
0.00890795
0.0109438
0.0113525
0.0119132
0.0109536
0.00837883
0.00562329
0.00376225
0.00285826
0.0025208
0.00244708
0.00247299
0.00315102
0.00619101
0.0079871
0.00788567
0.0065969
0.0051628
0.00412775
0.00352313
0.00318025
0.00300344
0.00310825
0.00477158
0.00649827
0.00705992
0.00653739
0.00560463
0.00475107
0.00412157
0.00369404
0.00344801
0.0191412
0.00787183
0.00602367
0.00756196
0.00855842
0.00852977
0.00776403
0.00676994
0.00583594
0.005117
0.00462042
0.00425043
0.00589041
0.0065989
0.00719101
0.00747558
0.00725276
0.00655352
0.00550232
0.00480045
0.00420782
0.00369368
0.003258
0.00292337
)
;

boundaryField
{
    floor
    {
        type            kqRWallFunction;
        value           nonuniform List<scalar> 
36
(
0.00144639
0.00077329
0.000703214
0.000641027
0.000591069
0.000548374
0.000508642
0.00047289
0.000441362
0.000413668
0.000389003
0.000366739
0.000346325
0.000327178
0.000308558
0.000289531
0.000268571
0.000250859
0.000213287
0.000213287
0.000317893
0.000414647
0.000514195
0.000940215
0.00110656
0.00127804
0.00144639
0.00167609
0.00160913
0.00158851
0.00077329
0.00158851
0.00113487
0.00211449
0.0014387
0.00195851
)
;
    }
    ceiling
    {
        type            kqRWallFunction;
        value           nonuniform List<scalar> 
58
(
0.00589041
0.0065989
0.00719101
0.00747558
0.00725276
0.00655352
0.00550232
0.00480045
0.00420782
0.00369368
0.003258
0.00292337
0.00352219
0.00313008
0.00276923
0.00242364
0.00206735
0.00133066
0.00114435
0.00115995
0.0011301
0.00111577
0.00111742
0.00112997
0.00115366
0.00118982
0.00123952
0.00130396
0.00138536
0.00148818
0.00162127
0.00178072
0.00197228
0.00220028
0.00247021
0.00279077
0.00305705
0.00258557
0.00230855
0.00293188
0.00890795
0.0109438
0.00205298
0.00521694
0.00622005
0.00690288
0.00740195
0.00742457
0.00696465
0.00597103
0.00513303
0.00449348
0.00394159
0.00346334
0.00307999
0.00772988
0.0104848
0.00220403
)
;
    }
    sWall
    {
        type            kqRWallFunction;
        value           nonuniform List<scalar> 4(0.00822061 0.00706672 0.00814314 0.00521694);
    }
    nWall
    {
        type            kqRWallFunction;
        value           nonuniform List<scalar> 6(0.00127804 0.00134667 0.00163075 0.00285746 0.0030955 0.00293188);
    }
    sideWalls
    {
        type            empty;
    }
    glass1
    {
        type            kqRWallFunction;
        value           nonuniform List<scalar> 10(0.000848918 0.00214257 0.00394308 0.00639228 0.00927716 0.0136834 0.0132952 0.00795696 0.0121337 0.00772988);
    }
    glass2
    {
        type            kqRWallFunction;
        value           nonuniform List<scalar> 2(0.0043106 0.0038759);
    }
    sun
    {
        type            kqRWallFunction;
        value           nonuniform List<scalar> 
14
(
0.000848918
0.000898395
0.000860045
0.000922551
0.000979962
0.00103092
0.00107641
0.00111785
0.00115692
0.00119569
0.00123579
0.00127677
0.0013216
0.00137677
)
;
    }
    Table_master
    {
        type            kqRWallFunction;
        value           nonuniform List<scalar> 9(0.00068049 0.000559308 0.000469824 0.00040407 0.000355177 0.000318219 0.00029007 0.00026919 0.000255868);
    }
    Table_slave
    {
        type            kqRWallFunction;
        value           nonuniform List<scalar> 9(0.000755077 0.000685849 0.00065553 0.000636988 0.000614659 0.000579711 0.000540717 0.000498399 0.00044707);
    }
    inlet
    {
        type            turbulentIntensityKineticEnergyInlet;
        intensity       0.05;
        value           uniform 0.0009375;
    }
    outlet
    {
        type            zeroGradient;
    }
}


// ************************************************************************* //
