/*--------------------------------*- C++ -*----------------------------------*=========                 |
  \      /  F ield         | OpenFOAM: The Open Source CFD Toolbox
   \    /   O peration     | Website:  https://openfoam.org
    \  /    A nd           | Version:  6
     \/     M anipulation  |
\*---------------------------------------------------------------------------*/
FoamFile
{
    version     2.0;
    format      ascii;
    class       volScalarField;
    location    "500";
    object      PMV;
}
// * * * * * * * * * * * * * * * * * * * * * * * * * * * * * * * * * * * * * //

dimensions      [0 0 0 0 0 0 0];

internalField   nonuniform List<scalar> 
458
(
1.324822055732737
1.0789744192318376
1.0456172620124478
1.0167123647451077
0.998797720009879
0.9902467924614123
0.9929554284076522
1.0074418527352833
1.037017401936893
1.0855043209631539
1.1566072441546307
1.2258886784718956
1.2416443845110885
1.2502380665003827
1.2621733217189843
1.379109271694873
1.365271005636837
1.3614533908603534
1.3681341711815778
1.3733832055380875
1.377200600875803
1.3726198148564046
1.3687384813376942
1.3696610458009708
1.37198845212209
1.3749371793955842
1.3781720815796934
1.3829642356838525
1.3893772296083169
1.4006145553052876
1.4101225806552564
1.414416333596336
1.4287281149208666
1.2575718311069854
1.0910800310956048
1.0789182383772846
1.0504564386030568
1.0331834506643527
1.0253720381275115
1.0266441183911992
1.034701962486845
1.0492258310300575
1.0740594650562203
1.1144997719911087
1.1760127749180826
1.2383023314320882
1.2492832250986226
1.253709765709309
1.211942125876825
1.2131563926614537
1.2363136566824384
1.3332001878321846
1.3519090547873425
1.3519090547873425
1.3595445576531386
1.3625444997829972
1.3622481728626863
1.3623173676786442
1.3639152539918804
1.3646283291433736
1.3653674663546715
1.365811943077977
1.3670919625593103
1.3686784719992935
1.3717934595469976
1.3808479460117846
1.3896066365905946
1.3962864870161151
1.3807879237116123
1.2888033218777801
1.0822317184972534
1.1117179934501489
1.096766969779303
1.0896001710747867
1.0860961937448812
1.0861232447230011
1.0825339301653323
1.0687949993766692
1.057018539584155
1.0683736105383155
1.1179306683771815
1.2109345618868494
1.2559670500767968
1.2621733217189843
1.265515104559898
1.2639526933525127
1.246595137442538
1.2436191029022923
1.3060215344885215
1.314955828319379
1.3238082107579758
1.3350955504025166
1.3392995946929351
1.362394121297135
1.377200600875803
1.377677770265131
1.377677770265131
1.3781549385323688
1.3786321056760704
1.379109271694873
1.3800636003519067
1.382926559175299
1.3862666260080045
1.3793065605674826
1.3074123698342206
1.363022368023549
1.0760565339582122
1.1354163236814723
1.14658930720106
1.164352297577772
1.1755131694684062
1.1780367806208876
1.152520122255444
1.0943872921429971
1.040743827706211
1.02903881602483
1.076586917718073
1.1700062178510582
1.262439592206533
1.2760175910447886
1.2774497172732053
1.249353721890816
1.2247454365699106
1.1755912506913635
1.2416794906943358
1.2777312426373797
1.304309989436118
1.33504712197241
1.3702040986637134
1.3973290452030895
1.3917871193539442
1.3862723149991074
1.385782937627031
1.3871795673026166
1.3903744536846072
1.3975633519215893
1.410838994110196
1.4341653053770544
1.4330452951020243
1.4182329189488623
1.3598540663176755
1.2634230907702988
1.457105995668115
1.0844224560227678
1.1529994067756473
1.1912255116612214
1.247113435434433
1.294093211569813
1.3027568979029305
1.2277309061706325
1.1156350115735318
1.025771512726543
1.0003193304746014
1.0503165974713984
1.1460495279856584
1.2491014983454793
1.2960666585502516
1.2979760132595533
1.2839870740378603
1.2558060964719635
1.2547580541373002
1.2713340383397662
1.30284794855778
1.3442062971545743
1.3866393426772747
1.4275744645198873
1.456394255389814
1.4684478482040244
1.4696040698848276
1.4694533476872556
1.4684408866503633
1.4656801796643528
1.46378202909903
1.4636568005395805
1.4628440487999534
1.4474887134826169
1.4204582898414833
1.3449553968135328
1.3444907939450865
1.3430735571576145
1.4280514091488443
1.306817016408246
1.5547045900173924
1.1146071624521603
1.1843165600828796
1.2232930866614722
1.3089332915290033
1.3843580232453103
1.4161725251464081
1.2554195911575183
1.1131501439355065
1.0085503915724994
0.9799357675439648
1.0347099367081
1.1424079183729499
1.2617926734748757
1.324705438637045
1.3304327855591378
1.3280464081020036
1.3290009620273615
1.3395512214713672
1.3607700820333442
1.3955825618841218
1.4292051546851114
1.4573481797879337
1.4802406883310892
1.4974078868622502
1.509328406276122
1.5174338073011486
1.5222014774856985
1.5241085009345474
1.5231549924113439
1.5188641250248498
1.5117123946620763
1.494980206718691
1.4645534224728904
1.427496469415642
1.3562688302094847
1.3497939824521679
1.3432911642544274
1.3681548721123626
1.3765144602572132
1.6470290193952173
1.2014745334069004
1.3038228319084852
1.282417207310443
1.33812851860897
1.4182329189488623
1.3482658667761274
1.2248331623247113
1.081913241594668
0.9785824072167321
0.961003666231469
1.0354351838295253
1.1663691222572214
1.3102099536953395
1.3638394081956748
1.3743375610564423
1.374814737148172
1.3805407629872601
1.3991492095791276
1.4253888008156006
1.4540094204479141
1.4816713610388712
1.5050371295990355
1.5226782357479602
1.5350733843041104
1.5427006175978435
1.5465140741749748
1.5479440926170338
1.5474674214922501
1.5441306764035465
1.5374569402550702
1.5283992096886148
1.5174338073011486
1.5004066252108916
1.4556264957241105
1.3930399652818188
1.3637174507202479
1.3427380619340255
1.3151915701450483
1.420944300650808
1.7876351915727633
1.5745462875561669
1.5161751308008993
1.4002589637902163
1.3788992214469562
1.3670506946531815
1.293119143805157
1.1486946587408713
0.999359050720169
0.9192161880434245
0.9430691195222826
1.0648046834729272
1.2370994559958
1.374814737148172
1.4153704873728528
1.4272969879541006
1.4315903342523437
1.4416077342519593
1.461640771427729
1.4859633004193868
1.5098052070624253
1.5298294168492659
1.5455607201127246
1.5560472414722775
1.5622434317449954
1.5651031126206851
1.5655797199633599
1.5646265035216524
1.5617668121460038
1.5574771575089852
1.5512807430268634
1.5427006175978435
1.5322130629309676
1.5198176622509607
1.5059907574336568
1.4912088423247372
1.4814767167206073
1.4540826948519492
1.375073855359689
1.2892348747097206
1.9973149698184853
1.8498042974575306
1.6886326427895146
1.5461546127291008
1.4543008382058404
1.380644448753481
1.1814100330600814
0.9597774312049885
0.8304815513796336
0.835317991431814
0.9582342742335438
1.1679136337776632
1.3624078010260372
1.4406537210405064
1.4697486925328613
1.482148249033757
1.4907319822845042
1.5031298555110442
1.5202944284819486
1.5384103510786424
1.5541406626573424
1.5660563255478441
1.5718731945836948
1.5676413863973024
1.5620417198320433
1.5557968004699858
1.5481845365349172
1.5392468559136632
1.5291352095997386
1.5173146213855033
1.5042505444409469
1.4894294011092157
1.4755250453389557
1.4587658896860038
1.43890013431669
1.4212833331115413
1.4095057522401109
1.4054964194236328
1.3952000984960775
1.3640377055586896
-1.6690709969649675
-0.769148756036722
-0.21717358991406008
-0.02126762611740969
0.12694727702232794
0.32007604778098514
0.5703371899783662
0.8535368554163895
1.152903874770363
1.3643166084255254
1.461640771427729
1.477622455482688
1.487018107283472
1.4953490572653914
1.5066393894261312
1.5195400560118384
1.5319364624872402
1.5408123694602425
1.5450136855875185
1.545265618786385
1.543034239026144
1.5379804006687152
1.5319066235674719
1.5241663755068189
1.5157073929863853
1.5067804022481959
1.4983536680276235
1.4910745643664547
1.4849704598476656
1.4811957918019394
1.4779530314190341
1.4761382996094172
1.4742551618342754
1.474531028653409
1.4850707984359257
1.5218882751806564
1.5892980766882259
1.4370681814410793
-1.6798383709214753
-0.5968222897213259
-0.01806700464643749
0.3023187719746241
0.5185429419097991
0.7836016236864543
1.0620869390426484
1.2898611579316928
1.3798681322749213
1.4253752578818697
1.4539317816040986
1.4701706627428726
1.4816270382427008
1.4907865940408718
1.4994556505843195
1.506945832251563
1.5135509394220559
1.51858192979745
1.5209728128278952
1.521630453551315
1.5201508886452377
1.5181270678357364
1.5147245981036355
1.51156639209113
1.5083304738833931
1.5051974316716477
1.5028801226084134
1.5013493544381997
1.501551160552145
1.5042558704983005
1.5105745599229494
1.5221661300925342
1.5344162722951407
1.544765708125492
1.5554875247883226
1.590686273483468
1.538335388459405
1.4799079091609293
-1.1309200498190866
-1.130074687638819
-1.006973055232554
-0.20312435634806703
0.38424685759744137
0.8032164607018146
1.1005608998639616
1.2459513930299737
1.3339993869389806
1.3871138901331175
1.421596528683198
1.4459864884966427
1.460983630949335
1.4695079556864752
1.4747654229061733
1.47842671977043
1.4803457865958995
1.4803545597910286
1.4787597962745738
1.4764219167224168
1.4734270102509153
1.4702786629540439
1.4676446672274046
1.4651026193413965
1.4632771931445576
1.4623388472295111
1.462537492601109
1.4642363534956477
1.467445427982027
1.473923148073759
1.4832443867753768
1.4974989091452358
1.5212088283934866
1.561668950101766
1.6194232007923086
1.6256161840821548
1.5975452773500005
1.5381399513363407
1.4873365986854794
1.500194926358738
)
;

boundaryField
{
    ".*"
    {
        type            zeroGradient;
    }
}


// ************************************************************************* //
