/*--------------------------------*- C++ -*----------------------------------*\
  =========                 |
  \\      /  F ield         | OpenFOAM: The Open Source CFD Toolbox
   \\    /   O peration     | Website:  https://openfoam.org
    \\  /    A nd           | Version:  6
     \\/     M anipulation  |
\*---------------------------------------------------------------------------*/
FoamFile
{
    version     2.0;
    format      ascii;
    class       volScalarField;
    location    "500";
    object      T;
}
// * * * * * * * * * * * * * * * * * * * * * * * * * * * * * * * * * * * * * //

dimensions      [0 0 0 1 0 0 0];

internalField   nonuniform List<scalar> 
458
(
300.356
300.033
300.015
300.007
300.001
299.994
299.986
299.974
299.959
299.946
299.943
299.952
299.982
300.007
300.055
300.399
300.353
300.34
300.358
300.373
300.385
300.397
300.408
300.418
300.429
300.439
300.449
300.459
300.469
300.48
300.491
300.505
300.555
300.569
300.071
300.041
300.041
300.042
300.039
300.032
300.008
299.969
299.933
299.918
299.93
299.959
299.981
300.011
300.026
300.044
300.094
300.418
300.315
300.309
300.329
300.351
300.358
300.363
300.367
300.37
300.373
300.376
300.38
300.384
300.39
300.399
300.413
300.435
300.526
300.8
300.13
300.087
300.103
300.123
300.135
300.132
300.088
300.006
299.933
299.904
299.92
299.956
299.983
300.002
300.014
300.031
300.081
300.332
300.289
300.297
300.335
300.375
300.374
300.374
300.373
300.373
300.373
300.373
300.374
300.374
300.376
300.385
300.397
300.42
300.52
301.039
300.206
300.137
300.172
300.222
300.266
300.277
300.198
300.052
299.933
299.888
299.912
299.959
299.999
300.021
300.033
300.043
300.069
300.093
300.139
300.213
300.297
300.377
300.442
300.493
300.528
300.555
300.578
300.594
300.607
300.618
300.625
300.627
300.55
300.484
300.455
300.539
301.268
300.307
300.196
300.227
300.303
300.395
300.425
300.296
300.079
299.924
299.872
299.904
299.971
300.031
300.064
300.078
300.084
300.099
300.133
300.199
300.29
300.389
300.481
300.558
300.619
300.662
300.693
300.714
300.727
300.73
300.725
300.713
300.692
300.636
300.557
300.497
300.545
300.893
300.957
300.954
301.477
300.478
300.327
300.318
300.381
300.501
300.505
300.321
300.071
299.892
299.844
299.901
300
300.087
300.139
300.162
300.172
300.194
300.248
300.333
300.434
300.535
300.625
300.697
300.751
300.788
300.813
300.828
300.833
300.826
300.808
300.783
300.75
300.698
300.624
300.551
300.554
300.734
300.777
300.863
301.775
300.979
300.765
300.649
300.633
300.685
300.55
300.251
299.953
299.792
299.796
299.915
300.065
300.187
300.259
300.294
300.314
300.351
300.422
300.515
300.613
300.705
300.782
300.84
300.88
300.904
300.918
300.924
300.921
300.908
300.881
300.847
300.807
300.756
300.693
300.624
300.601
300.664
300.703
300.771
302.185
301.822
301.559
301.319
301.153
300.902
300.397
299.909
299.632
299.608
299.762
299.994
300.205
300.355
300.433
300.468
300.499
300.55
300.629
300.718
300.801
300.872
300.925
300.962
300.984
300.996
301
300.998
300.99
300.976
300.954
300.921
300.882
300.836
300.79
300.745
300.737
300.781
300.842
301.118
295.656
297.03
297.684
297.864
298.119
298.502
298.984
299.474
299.9
300.253
300.462
300.571
300.627
300.665
300.709
300.767
300.837
300.906
300.964
301.008
301.038
301.055
301.063
301.066
301.064
301.06
301.053
301.047
301.042
301.042
301.048
301.063
301.096
301.15
301.225
301.296
301.344
301.469
295.782
296.687
297.278
297.821
298.442
299.087
299.683
300.127
300.41
300.602
300.715
300.779
300.825
300.866
300.911
300.961
301.012
301.055
301.086
301.106
301.118
301.123
301.125
301.124
301.123
301.122
301.122
301.123
301.126
301.131
301.14
301.158
301.188
301.231
301.281
301.326
301.382
301.522
298.485
297.505
296.834
297.473
298.212
299.007
299.671
300.104
300.412
300.626
300.765
300.854
300.915
300.96
300.998
301.033
301.067
301.099
301.127
301.149
301.163
301.171
301.175
301.175
301.175
301.173
301.171
301.17
301.17
301.171
301.173
301.177
301.184
301.197
301.218
301.247
301.28
301.322
301.428
301.489
298.862
298.758
298.795
299.123
299.713
300.249
300.603
300.799
300.912
300.987
301.042
301.084
301.117
301.145
301.169
301.19
301.21
301.226
301.238
301.246
301.25
301.251
301.251
301.249
301.248
301.246
301.243
301.241
301.238
301.235
301.233
301.231
301.231
301.233
301.24
301.259
301.28
301.314
301.575
301.64
)
;

boundaryField
{
    floor
    {
        type            wallHeatTransfer;
        Tinf            uniform 305.2;
        alphaWall       uniform 0.36;
        value           nonuniform List<scalar> 
36
(
300.818
301.422
301.282
301.203
301.205
301.235
301.29
301.351
301.411
301.468
301.524
301.576
301.627
301.674
301.721
301.768
301.818
301.845
301.936
301.936
301.683
301.544
301.484
301.579
301.604
301.566
300.818
300.66
300.745
300.875
301.422
300.875
301.441
300.798
301.138
300.744
)
;
    }
    ceiling
    {
        type            wallHeatTransfer;
        Tinf            uniform 303.2;
        alphaWall       uniform 0.36;
        value           nonuniform List<scalar> 
43
(
299.238
299.122
299.145
299.441
299.995
300.507
300.849
301.042
301.152
301.227
301.282
301.325
301.358
301.385
301.408
301.429
301.448
301.465
301.479
301.489
301.495
301.498
301.499
301.499
301.499
301.498
301.497
301.495
301.493
301.488
301.481
301.474
301.467
301.46
301.457
301.463
301.48
301.524
301.772
301.814
302.255
301.904
296.507
)
;
    }
    sWall
    {
        type            wallHeatTransfer;
        Tinf            uniform 315.2;
        alphaWall       uniform 0.54;
        value           nonuniform List<scalar> 2(300.442 300.905);
    }
    nWall
    {
        type            wallHeatTransfer;
        Tinf            uniform 308.2;
        alphaWall       uniform 0.54;
        value           nonuniform List<scalar> 6(302.418 302.297 302.078 302.523 302.479 302.68);
    }
    sideWalls
    {
        type            empty;
    }
    glass1
    {
        type            wallHeatTransfer;
        Tinf            uniform 315.2;
        alphaWall       uniform 4.3;
        value           nonuniform List<scalar> 8(310.05 309.347 308.909 308.575 308.287 308.051 308.12 308.376);
    }
    glass2
    {
        type            wallHeatTransfer;
        Tinf            uniform 308.2;
        alphaWall       uniform 4.3;
        value           nonuniform List<scalar> 2(305.013 305.256);
    }
    sun
    {
        type            wallHeatTransfer;
        Tinf            uniform 305.2;
        alphaWall       uniform 0.36;
        value           nonuniform List<scalar> 
14
(
301.001
300.674
300.642
300.613
300.586
300.561
300.535
300.509
300.486
300.473
300.476
300.505
300.589
300.687
)
;
    }
    Table_master
    {
        type            zeroGradient;
    }
    Table_slave
    {
        type            zeroGradient;
    }
    inlet
    {
        type            fixedValue;
        value           uniform 293.15;
    }
    outlet
    {
        type            zeroGradient;
    }
}


// ************************************************************************* //
