/*--------------------------------*- C++ -*----------------------------------*\
  =========                 |
  \\      /  F ield         | OpenFOAM: The Open Source CFD Toolbox
   \\    /   O peration     | Website:  https://openfoam.org
    \\  /    A nd           | Version:  6
     \\/     M anipulation  |
\*---------------------------------------------------------------------------*/
FoamFile
{
    version     2.0;
    format      ascii;
    class       volScalarField;
    location    "500";
    object      T;
}
// * * * * * * * * * * * * * * * * * * * * * * * * * * * * * * * * * * * * * //

dimensions      [0 0 0 1 0 0 0];

internalField   nonuniform List<scalar> 
796
(
300.762
300.634
300.633
300.636
300.64
300.643
300.646
300.648
300.651
300.653
300.655
300.657
300.659
300.66
300.661
300.662
300.663
300.663
300.663
300.662
300.66
300.657
300.653
300.647
300.641
300.632
300.623
300.614
300.602
300.589
300.575
300.559
300.543
300.53
300.525
300.524
300.525
300.528
300.532
300.577
300.809
300.644
300.633
300.637
300.641
300.646
300.65
300.654
300.658
300.661
300.665
300.668
300.671
300.674
300.676
300.678
300.68
300.68
300.68
300.679
300.677
300.673
300.668
300.661
300.653
300.645
300.637
300.628
300.619
300.608
300.596
300.583
300.57
300.559
300.551
300.546
300.544
300.544
300.549
300.598
300.847
300.66
300.636
300.639
300.644
300.649
300.655
300.66
300.664
300.669
300.673
300.678
300.682
300.685
300.689
300.691
300.694
300.695
300.695
300.694
300.692
300.687
300.679
300.671
300.662
300.654
300.646
300.638
300.63
300.621
300.611
300.6
300.59
300.58
300.571
300.564
300.56
300.558
300.564
300.616
300.878
300.677
300.641
300.64
300.646
300.652
300.658
300.664
300.669
300.675
300.68
300.685
300.69
300.694
300.698
300.702
300.705
300.707
300.708
300.707
300.703
300.697
300.688
300.677
300.668
300.659
300.651
300.644
300.636
300.629
300.621
300.612
300.603
300.594
300.586
300.578
300.572
300.569
300.577
300.632
300.906
300.696
300.648
300.641
300.646
300.653
300.659
300.666
300.672
300.678
300.684
300.69
300.695
300.701
300.705
300.71
300.713
300.716
300.717
300.717
300.712
300.704
300.692
300.681
300.67
300.661
300.652
300.644
300.638
300.631
300.625
300.618
300.61
300.602
300.595
300.588
300.581
300.577
300.587
300.646
300.932
300.715
300.656
300.641
300.646
300.653
300.66
300.666
300.673
300.68
300.686
300.692
300.698
300.704
300.71
300.715
300.719
300.723
300.724
300.724
300.718
300.708
300.695
300.682
300.67
300.659
300.649
300.641
300.634
300.628
300.623
300.617
300.611
300.605
300.598
300.591
300.584
300.582
300.595
300.658
300.956
300.734
300.666
300.642
300.645
300.651
300.658
300.665
300.672
300.679
300.686
300.693
300.7
300.706
300.712
300.718
300.723
300.727
300.73
300.729
300.721
300.709
300.695
300.681
300.667
300.654
300.643
300.634
300.626
300.62
300.616
300.612
300.607
300.602
300.596
300.59
300.584
300.584
300.601
300.67
300.979
300.753
300.677
300.644
300.643
300.649
300.656
300.663
300.67
300.677
300.685
300.692
300.699
300.707
300.714
300.721
300.727
300.731
300.734
300.732
300.723
300.71
300.694
300.677
300.661
300.647
300.634
300.624
300.616
300.61
300.605
300.602
300.598
300.595
300.59
300.586
300.581
300.585
300.606
300.68
301
300.771
300.689
300.647
300.64
300.645
300.652
300.659
300.666
300.674
300.682
300.69
300.698
300.707
300.716
300.724
300.73
300.735
300.737
300.734
300.724
300.708
300.69
300.671
300.654
300.638
300.624
300.612
300.603
300.597
300.592
300.589
300.587
300.585
300.582
300.579
300.576
300.584
300.609
300.688
301.022
300.791
300.704
300.652
300.637
300.641
300.647
300.654
300.661
300.669
300.678
300.687
300.697
300.708
300.718
300.726
300.733
300.737
300.739
300.735
300.723
300.705
300.684
300.664
300.645
300.627
300.612
300.599
300.589
300.581
300.577
300.574
300.573
300.572
300.571
300.57
300.571
300.583
300.613
300.697
301.043
300.817
300.724
300.663
300.637
300.636
300.641
300.648
300.655
300.664
300.673
300.684
300.697
300.709
300.721
300.73
300.736
300.74
300.741
300.736
300.721
300.7
300.677
300.655
300.634
300.615
300.599
300.585
300.573
300.565
300.56
300.558
300.558
300.559
300.56
300.561
300.565
300.583
300.616
300.704
301.064
300.845
300.75
300.684
300.646
300.634
300.636
300.642
300.649
300.657
300.668
300.683
300.699
300.713
300.725
300.733
300.739
300.742
300.743
300.736
300.718
300.694
300.669
300.645
300.623
300.603
300.586
300.57
300.558
300.549
300.544
300.542
300.543
300.545
300.548
300.551
300.56
300.583
300.619
300.711
301.084
300.868
300.78
300.719
300.676
300.649
300.639
300.64
300.645
300.654
300.668
300.687
300.705
300.719
300.73
300.737
300.742
300.745
300.744
300.736
300.713
300.686
300.659
300.635
300.612
300.592
300.574
300.557
300.544
300.534
300.528
300.527
300.529
300.533
300.537
300.543
300.557
300.584
300.623
300.717
301.101
300.9
300.825
300.773
300.73
300.697
300.675
300.663
300.661
300.667
300.682
300.7
300.716
300.728
300.737
300.743
300.746
300.747
300.746
300.735
300.707
300.677
300.65
300.625
300.603
300.583
300.565
300.549
300.534
300.523
300.517
300.516
300.519
300.523
300.528
300.538
300.557
300.587
300.627
300.721
301.134
300.976
300.913
300.86
300.811
300.772
300.742
300.722
300.712
300.71
300.716
300.725
300.734
300.741
300.746
300.748
300.75
300.749
300.747
300.732
300.7
300.668
300.641
300.618
300.598
300.579
300.562
300.547
300.533
300.523
300.516
300.514
300.516
300.52
300.527
300.541
300.563
300.595
300.634
300.726
301.194
301.118
301.03
300.965
300.908
300.86
300.822
300.794
300.775
300.765
300.759
300.756
300.755
300.755
300.755
300.754
300.753
300.751
300.748
300.729
300.691
300.659
300.634
300.615
300.598
300.583
300.569
300.556
300.545
300.535
300.529
300.526
300.527
300.531
300.54
300.554
300.576
300.606
300.646
300.734
300.053
300.659
300.791
300.815
300.812
300.802
300.791
300.783
300.778
300.773
300.768
300.764
300.761
300.758
300.755
300.752
300.749
300.725
300.682
300.653
300.634
300.62
300.607
300.596
300.586
300.577
300.569
300.562
300.557
300.555
300.555
300.558
300.565
300.576
300.595
300.622
300.66
300.743
300.157
300.604
300.719
300.768
300.784
300.786
300.784
300.78
300.776
300.773
300.769
300.765
300.761
300.758
300.755
300.753
300.751
300.721
300.675
300.654
300.641
300.632
300.624
300.618
300.612
300.608
300.604
300.601
300.598
300.596
300.595
300.597
300.601
300.608
300.62
300.639
300.669
300.751
300.751
300.683
300.312
300.585
300.696
300.745
300.764
300.77
300.771
300.77
300.768
300.766
300.763
300.761
300.759
300.757
300.755
300.755
300.755
300.717
300.676
300.663
300.657
300.653
300.65
300.649
300.648
300.647
300.647
300.646
300.646
300.645
300.645
300.646
300.648
300.654
300.662
300.672
300.69
300.762
300.633
300.481
300.465
300.638
300.707
300.739
300.756
300.761
300.763
300.763
300.764
300.764
300.764
300.764
300.765
300.765
300.766
300.767
300.766
300.72
300.689
300.687
300.687
300.688
300.69
300.693
300.695
300.697
300.699
300.702
300.704
300.706
300.71
300.714
300.719
300.725
300.733
300.742
300.751
300.783
)
;

boundaryField
{
    floor
    {
        type            wallHeatTransfer;
        Tinf            uniform 301;
        alphaWall       uniform 0.36;
        value           nonuniform List<scalar> 
40
(
300.826
300.732
300.744
300.745
300.745
300.745
300.745
300.746
300.746
300.746
300.746
300.746
300.746
300.746
300.745
300.745
300.744
300.743
300.742
300.741
300.739
300.737
300.735
300.732
300.73
300.727
300.724
300.721
300.718
300.715
300.709
300.703
300.696
300.691
300.685
300.681
300.673
300.653
300.633
300.675
)
;
    }
    ceiling
    {
        type            wallHeatTransfer;
        Tinf            uniform 301;
        alphaWall       uniform 0.36;
        value           nonuniform List<scalar> 
43
(
300.667
300.526
300.51
300.669
300.736
300.767
300.784
300.79
300.793
300.796
300.798
300.8
300.801
300.803
300.805
300.806
300.808
300.81
300.811
300.772
300.742
300.737
300.736
300.735
300.735
300.735
300.736
300.736
300.737
300.737
300.738
300.739
300.74
300.742
300.746
300.75
300.756
300.762
300.77
300.801
301.18
301.11
300.219
)
;
    }
    sWall
    {
        type            wallHeatTransfer;
        Tinf            uniform 313.2;
        alphaWall       uniform 0.54;
        value           nonuniform List<scalar> 
18
(
305.187
303.851
303.272
302.941
302.731
302.589
302.489
302.417
302.362
302.324
302.294
302.272
302.257
302.239
302.284
302.405
302.349
302.291
)
;
    }
    nWall
    {
        type            wallHeatTransfer;
        Tinf            uniform 305.6;
        alphaWall       uniform 0.54;
        value           nonuniform List<scalar> 
20
(
302.142
301.833
301.662
301.557
301.49
301.444
301.411
301.385
301.366
301.35
301.337
301.327
301.317
301.305
301.295
301.297
301.299
301.294
301.307
301.359
)
;
    }
    sideWalls
    {
        type            empty;
    }
    inlet
    {
        type            fixedValue;
        value           uniform 298.15;
    }
    outlet
    {
        type            zeroGradient;
    }
}


// ************************************************************************* //
