/*--------------------------------*- C++ -*----------------------------------*\
  =========                 |
  \\      /  F ield         | OpenFOAM: The Open Source CFD Toolbox
   \\    /   O peration     | Website:  https://openfoam.org
    \\  /    A nd           | Version:  6
     \\/     M anipulation  |
\*---------------------------------------------------------------------------*/
FoamFile
{
    version     2.0;
    format      ascii;
    class       volScalarField;
    location    "16100";
    object      k;
}
// * * * * * * * * * * * * * * * * * * * * * * * * * * * * * * * * * * * * * //

dimensions      [0 2 -2 0 0 0 0];

internalField   nonuniform List<scalar> 
778
(
0.00158602
0.00180121
0.00178799
0.00194645
0.00209756
0.00223969
0.0023762
0.00251166
0.00265185
0.00280505
0.00295523
0.00310157
0.00324923
0.00341185
0.00358576
0.000792647
0.00162628
0.00165281
0.00157388
0.00144599
0.00128341
0.00113102
0.000999252
0.000887527
0.00079302
0.000713285
0.000645257
0.000586242
0.000533703
0.000484935
0.000436439
0.000398083
0.000326165
0.00340719
0.00643383
0.00268752
0.00274594
0.00288751
0.00305395
0.00323413
0.0034297
0.00364273
0.00387291
0.00412497
0.00437889
0.00459503
0.00470076
0.00459542
0.00429904
0.00390775
0.00358054
0.00253695
0.0028134
0.00295633
0.00289906
0.00266617
0.00226656
0.00190671
0.00161006
0.00137009
0.00117613
0.00101728
0.000885482
0.000774222
0.000681409
0.000615416
0.000574963
0.000864432
0.000524313
0.00549122
0.0127823
0.00347805
0.00321191
0.00329712
0.00345485
0.00363608
0.00384007
0.00407021
0.00432674
0.00463484
0.00501045
0.0054512
0.00596158
0.00653365
0.00686306
0.00628023
0.00538714
0.00403623
0.00416831
0.00417258
0.00397607
0.00357915
0.0026676
0.00201732
0.00157738
0.0012707
0.00105025
0.000887627
0.000765131
0.000672232
0.000603988
0.000551725
0.000548934
0.00116474
0.000678638
0.00797431
0.0217609
0.00449153
0.0033905
0.00334114
0.00343762
0.00354891
0.00366828
0.00380837
0.00399058
0.00425841
0.00464803
0.00517144
0.00582645
0.006557
0.00713747
0.00723057
0.00724553
0.00534157
0.00554687
0.00537326
0.00512358
0.00478598
0.00434818
0.00345652
0.00286023
0.00243742
0.00211133
0.00185179
0.00163316
0.00143961
0.0012595
0.00107855
0.000801444
0.00066035
0.00141946
0.00082308
0.0108775
0.0336383
0.0062137
0.00342479
0.00315791
0.00316653
0.00318914
0.00320941
0.00325161
0.00336049
0.0035941
0.00398885
0.00455393
0.00527852
0.00608982
0.00682084
0.00728543
0.00764414
0.00751513
0.00665154
0.00607054
0.00557683
0.00509785
0.00462923
0.00412372
0.00366657
0.00327603
0.0029384
0.00263209
0.00234854
0.00207992
0.0018191
0.0015555
0.00122275
0.000931683
0.00119026
0.00121696
0.00116923
0.0020056
0.00186251
0.0141763
0.047603
0.00928576
0.00348995
0.00290821
0.00282236
0.00276405
0.00269925
0.00266393
0.00273416
0.00298038
0.00341421
0.00402461
0.0048007
0.00565793
0.00646569
0.00707187
0.00740814
0.00732261
0.00678795
0.00621289
0.00563541
0.00507335
0.00455588
0.00409177
0.0036963
0.00336368
0.00307423
0.00280728
0.00255202
0.00229952
0.00204277
0.00177432
0.00147197
0.00118002
0.00111404
0.00111315
0.00169433
0.00501718
0.002674
0.0179939
0.0606094
0.0143629
0.00381984
0.00271501
0.00252912
0.00241158
0.00229388
0.00222093
0.00231127
0.00262995
0.00313944
0.0038037
0.00463558
0.00553465
0.00637324
0.00700609
0.00733105
0.00725538
0.00681781
0.00621466
0.00555416
0.0049116
0.00434286
0.00387278
0.00350067
0.0032068
0.00296183
0.00274145
0.00252931
0.00231389
0.00208776
0.00184576
0.00158335
0.00132871
0.00116337
0.0010953
0.00154275
0.00617454
0.00369443
0.0216429
0.070483
0.0214395
0.00510357
0.00274295
0.00237176
0.00221012
0.00208199
0.00202641
0.00221937
0.0026495
0.00323132
0.00393964
0.00478001
0.00570706
0.00658222
0.00723106
0.00751912
0.00738749
0.0068982
0.00619953
0.00542792
0.00469224
0.00406495
0.00357465
0.00321237
0.00294726
0.00274055
0.00256385
0.00239563
0.00222215
0.00203574
0.00183257
0.00161337
0.00139844
0.00123701
0.00116385
0.00207294
0.0133991
0.00622432
0.0228344
0.0694908
0.0325368
0.0110609
0.00406921
0.00258795
0.0022358
0.00210336
0.00219058
0.00251275
0.00300052
0.00360289
0.00433577
0.00521927
0.00619437
0.00709735
0.00772557
0.00792948
0.00766958
0.00702983
0.00616907
0.00525157
0.00440956
0.00372346
0.0032169
0.00286858
0.00263487
0.00246826
0.00233538
0.00221042
0.00207853
0.00193251
0.00176972
0.0015927
0.00141827
0.00130372
0.00138457
0.00389033
0.0253666
0.00822058
0.0219183
0.0516288
0.0336434
0.0174378
0.00859202
0.00476253
0.00326339
0.00273158
0.00285505
0.00321235
0.00367342
0.00424812
0.00499941
0.00594543
0.00698317
0.00789641
0.00844911
0.00849015
0.00800991
0.00713075
0.00604816
0.00495959
0.00401497
0.00329238
0.00279841
0.00248853
0.00230169
0.00218351
0.00209515
0.00200996
0.00191447
0.00180296
0.00167423
0.00153227
0.00139455
0.00133811
0.00188648
0.00957496
0.0227119
0.00840953
0.0192317
0.0394287
0.0302354
0.0195686
0.0121868
0.00794348
0.00572157
0.00467333
0.00436585
0.00440236
0.00465439
0.00514758
0.00593885
0.00698618
0.00809387
0.00896853
0.00934685
0.00910152
0.00828123
0.00707116
0.00572207
0.00446794
0.0034662
0.00277102
0.00234972
0.00211598
0.00199146
0.00192336
0.00187298
0.00181874
0.00175047
0.00166396
0.00155936
0.00144298
0.00134014
0.00141664
0.00349735
0.0105904
0.0184924
0.00811743
0.0159458
0.0315784
0.0266465
0.0195394
0.0139788
0.0102877
0.00803114
0.00675616
0.00605294
0.0057339
0.00578515
0.00627635
0.00721062
0.00841658
0.00956236
0.0102772
0.0103074
0.00959716
0.0082972
0.00668054
0.00506884
0.00372952
0.00279654
0.00223835
0.00195854
0.00181802
0.00174813
0.00171347
0.00168555
0.0016501
0.00159967
0.00153048
0.00144333
0.00134817
0.00128213
0.0015365
0.00396351
0.0103089
0.0166975
0.00767818
0.0132622
0.0256642
0.0233448
0.0186884
0.0145844
0.01159
0.00954603
0.00821212
0.00730243
0.00684282
0.00696055
0.00771921
0.00897139
0.0103482
0.0113816
0.0116819
0.0110929
0.00969723
0.00780255
0.00578033
0.00403853
0.00284338
0.0022004
0.00186929
0.00170602
0.0016237
0.00158073
0.0015571
0.00153515
0.0015061
0.00146492
0.00140938
0.00134076
0.00126944
0.00124028
0.00150236
0.00349602
0.00923193
0.017024
0.00790539
0.013351
0.0224045
0.0220506
0.0177569
0.0143912
0.011894
0.0100848
0.00876939
0.00791983
0.00777762
0.00847405
0.00985903
0.0114981
0.0128244
0.0133454
0.0127957
0.0112541
0.00898751
0.00653422
0.00432139
0.00296656
0.00222727
0.00186182
0.00168021
0.00158373
0.00152546
0.00148517
0.00145436
0.00142473
0.00139139
0.00135158
0.00130586
0.00125981
0.00123286
0.00128613
0.00161627
0.00328211
0.00880989
0.0146872
0.00878514
0.0108766
0.0117606
0.0129221
0.0125522
0.0113741
0.0100741
0.00894578
0.00820369
0.00830733
0.00942089
0.0112849
0.0133265
0.0148824
0.0154322
0.014737
0.0128109
0.0101249
0.00702143
0.00463795
0.0031283
0.00234149
0.00196306
0.0017776
0.00167275
0.00159955
0.00153753
0.00147933
0.00142464
0.00137559
0.00133057
0.00129101
0.00126905
0.00129493
0.0014232
0.00172802
0.00235199
0.00391033
0.00951509
0.0136002
0.00897326
0.00354546
0.00482609
0.00599706
0.00659899
0.00727418
0.00879808
0.0113192
0.014137
0.0165183
0.0179017
0.0179448
0.0165943
0.0140861
0.0105388
0.00727368
0.00479897
0.00330367
0.00254808
0.00220626
0.00204403
0.00194959
0.0018774
0.00180934
0.00173727
0.00165822
0.00157532
0.00150336
0.00145504
0.0014414
0.00149754
0.00168804
0.00209345
0.0027874
0.00388946
0.00579468
0.0101056
0.0153131
0.00875451
0.00444452
0.00628334
0.00809318
0.0110022
0.014684
0.0181388
0.0203724
0.0214092
0.0212833
0.0199989
0.0174196
0.0139165
0.0102708
0.00702727
0.0047587
0.00347926
0.00288948
0.00264391
0.00253317
0.00246772
0.0024173
0.00237243
0.00232893
0.00228229
0.00222665
0.00215818
0.0020842
0.00204362
0.0020623
0.00218679
0.00249633
0.00309195
0.00407317
0.00554455
0.00765939
0.0104841
0.0134828
0.00807843
0.015082
0.0244997
0.0180857
0.0143609
0.0169723
0.0206788
0.0228187
0.0235239
0.0230577
0.0216778
0.0196013
0.016905
0.0137099
0.0103875
0.00748761
0.00543669
0.00431624
0.00382098
0.00361055
0.0034946
0.003403
0.0033192
0.00324624
0.00319213
0.00316298
0.0031589
0.00317207
0.00318886
0.00319884
0.00322672
0.0033143
0.00349998
0.00385407
0.00447659
0.00548625
0.00701982
0.00927156
0.0123692
0.0162583
0.00826091
0.0138113
0.0170581
0.0178533
0.0207506
0.0216688
0.0220833
0.0210891
0.0192826
0.0171678
0.014985
0.0128237
0.0107099
0.0087287
0.00705886
0.00586756
0.00517461
0.00482034
0.00464019
0.00452385
0.00442379
0.00432817
0.00424313
0.00418388
0.00416942
0.0042182
0.00434316
0.00454655
0.00481489
0.00511453
0.0053864
0.0056275
0.00591171
0.00632662
0.00697008
0.00795829
0.00943847
0.0116249
0.0150149
0.0158469
0.0105612
0.0121323
0.00890932
0.00881988
0.00933973
0.00978101
0.00920438
0.00812577
0.00693921
0.00582892
0.00485211
0.00401933
0.00334063
0.00283193
0.00249959
0.00232183
0.00225181
0.00224608
0.00226449
0.00229362
0.00233174
0.00238344
0.00245686
0.00256097
0.00270259
0.00288337
0.00309849
0.00333806
0.00359105
0.00384999
0.00411543
0.00439116
0.00468278
0.00501227
0.00540553
0.00588449
0.00645793
0.00711329
0.00785038
0.00876601
0.00889404
)
;

boundaryField
{
    floor
    {
        type            kqRWallFunction;
        value           nonuniform List<scalar> 
36
(
0.00358576
0.000792647
0.00162628
0.00165281
0.00157388
0.00144599
0.00128341
0.00113102
0.000999252
0.000887527
0.00079302
0.000713285
0.000645257
0.000586242
0.000533703
0.000484935
0.000436439
0.000398083
0.000326165
0.000326165
0.000524313
0.000678638
0.00082308
0.00116923
0.0020056
0.00186251
0.00358576
0.00429904
0.00390775
0.00358054
0.000792647
0.00358054
0.00253695
0.00538714
0.00403623
0.00534157
)
;
    }
    ceiling
    {
        type            kqRWallFunction;
        value           nonuniform List<scalar> 
43
(
0.0121323
0.00890932
0.00881988
0.00933973
0.00978101
0.00920438
0.00812577
0.00693921
0.00582892
0.00485211
0.00401933
0.00334063
0.00283193
0.00249959
0.00232183
0.00225181
0.00224608
0.00226449
0.00229362
0.00233174
0.00238344
0.00245686
0.00256097
0.00270259
0.00288337
0.00309849
0.00333806
0.00359105
0.00384999
0.00411543
0.00439116
0.00468278
0.00501227
0.00540553
0.00588449
0.00645793
0.00711329
0.00785038
0.00876601
0.00889404
0.0108766
0.0117606
0.00444452
)
;
    }
    sWall
    {
        type            kqRWallFunction;
        value           nonuniform List<scalar> 9(0.0219183 0.0192317 0.0159458 0.0132622 0.013351 0.0108766 0.015082 0.0138113 0.0121323);
    }
    nWall
    {
        type            kqRWallFunction;
        value           nonuniform List<scalar> 
14
(
0.00186251
0.002674
0.00369443
0.00840953
0.00811743
0.00767818
0.00790539
0.00878514
0.00897326
0.00875451
0.00807843
0.00826091
0.0105612
0.00889404
)
;
    }
    sideWalls
    {
        type            empty;
    }
    glass1
    {
        type            kqRWallFunction;
        value           nonuniform List<scalar> 9(0.00158602 0.00340719 0.00549122 0.00797431 0.0108775 0.0141763 0.0179939 0.0216429 0.0228344);
    }
    glass2
    {
        type            kqRWallFunction;
        value           nonuniform List<scalar> 2(0.00622432 0.00822058);
    }
    sun
    {
        type            kqRWallFunction;
        value           nonuniform List<scalar> 
14
(
0.00158602
0.00180121
0.00178799
0.00194645
0.00209756
0.00223969
0.0023762
0.00251166
0.00265185
0.00280505
0.00295523
0.00310157
0.00324923
0.00341185
)
;
    }
    Table_master
    {
        type            kqRWallFunction;
        value           nonuniform List<scalar> 9(0.0026676 0.00201732 0.00157738 0.0012707 0.00105025 0.000887627 0.000765131 0.000672232 0.000603988);
    }
    Table_slave
    {
        type            kqRWallFunction;
        value           nonuniform List<scalar> 9(0.00345652 0.00286023 0.00243742 0.00211133 0.00185179 0.00163316 0.00143961 0.0012595 0.00107855);
    }
    inlet
    {
        type            turbulentIntensityKineticEnergyInlet;
        intensity       0.05;
        value           uniform 0.0009375;
    }
    outlet
    {
        type            zeroGradient;
    }
}


// ************************************************************************* //
