/*--------------------------------*- C++ -*----------------------------------*\
  =========                 |
  \\      /  F ield         | OpenFOAM: The Open Source CFD Toolbox
   \\    /   O peration     | Website:  https://openfoam.org
    \\  /    A nd           | Version:  6
     \\/     M anipulation  |
\*---------------------------------------------------------------------------*/
FoamFile
{
    version     2.0;
    format      ascii;
    class       surfaceScalarField;
    location    "16100";
    object      phi;
}
// * * * * * * * * * * * * * * * * * * * * * * * * * * * * * * * * * * * * * //

dimensions      [1 0 -1 0 0 0 0];

internalField   nonuniform List<scalar> 
1482
(
-0.00279978
0.00286382
-0.003484
0.000684214
-0.00414465
0.000660648
-0.00475869
0.000614042
-0.00528004
0.000521352
-0.00569197
0.000411927
-0.00598325
0.000291284
-0.00614083
0.000157581
-0.00614736
6.52998e-06
-0.00597684
-0.000170522
-0.00559926
-0.000377576
-0.00498352
-0.000615743
-0.00405935
-0.000924172
-0.00258042
-0.00147893
-0.0025775
-6.46989e-05
6.9553e-05
0.000779814
-0.000844513
0.00143326
-0.000653441
0.00183367
-0.000400419
0.00205619
-0.000222516
0.00216094
-0.000104751
0.00220818
-4.72389e-05
0.00223082
-2.26415e-05
0.00224049
-9.66532e-06
0.00224137
-8.86298e-07
0.00223433
7.0426e-06
0.00221532
1.90079e-05
0.002171
4.43175e-05
0.00206814
0.00010286
0.00185129
0.000216852
0.00149342
0.000357875
0.00102122
0.000472194
0.00102766
-0.00204038
0.00507451
-0.00290848
0.00155232
-0.00369426
0.00144642
-0.00434522
0.001265
-0.00488242
0.00105855
-0.00531116
0.000840674
-0.0056297
0.000609817
-0.00583123
0.00035911
-0.00590507
8.03728e-05
-0.00584335
-0.000232241
-0.00564021
-0.000580719
-0.00528427
-0.000971677
-0.00477433
-0.00143412
-0.00428844
-0.00196482
-0.00470452
-0.00216141
-0.00311809
-0.001581
-0.00163469
-0.00147771
-0.00161984
0.0013176
-0.00123783
0.00166186
-0.00118878
0.00191403
-0.000905612
0.00210596
-0.000592349
0.00221406
-0.000330611
0.00222323
-0.000113919
0.00222527
-4.92777e-05
0.00222687
-2.4244e-05
0.00222777
-1.05662e-05
0.00222771
-8.30549e-07
0.00222631
8.44265e-06
0.0022221
2.32228e-05
0.00220945
5.69672e-05
0.00214746
0.000164846
0.00189768
0.000466633
0.0014679
0.000787659
0.000903575
0.00103652
0.00194812
-0.00148827
0.0068207
-0.00235916
0.00242322
-0.00312908
0.00221635
-0.00371323
0.00184915
-0.00418382
0.00152914
-0.00455521
0.00121207
-0.00482924
0.000883843
-0.00500268
0.000532551
-0.00506913
0.000146821
-0.00501948
-0.000281884
-0.00484295
-0.000757248
-0.00453205
-0.00128259
-0.00411753
-0.00184863
-0.00372011
-0.00236225
-0.00329972
-0.0025818
-0.00236828
-0.00251244
-0.00127423
-0.00257176
-0.00288124
0.00115057
-0.00237395
0.00165397
-0.00169218
0.00195242
-0.00120406
0.00214555
-0.000785481
0.00217645
-0.000361512
0.00206268
0.00201356
0.00198947
0.00197906
0.00197838
0.00198698
0.00201036
0.00206748
0.00223248
0.00187421
0.000824897
0.00142638
0.00123549
0.000806065
0.00165683
0.00278021
-0.00110609
0.00825799
-0.00192802
0.00324516
-0.00257002
0.00285835
-0.0030303
0.00230943
-0.00339775
0.00189659
-0.00368644
0.00150076
-0.0038994
0.00109681
-0.00403482
0.000667968
-0.00408519
0.000197193
-0.00403732
-0.000329758
-0.00387888
-0.000915693
-0.00360569
-0.00155577
-0.00324032
-0.00221401
-0.00281858
-0.00278399
-0.00227934
-0.00312103
-0.00155983
-0.00323196
-0.000871791
-0.00325981
-0.000692486
-0.00306055
0.0014442
-0.00212124
0.00137666
-0.00230641
0.00169239
-0.00200791
0.00200498
-0.00151665
0.0022712
-0.0010517
0.0025469
-0.000637211
0.00286234
-0.000315596
0.00303063
-0.000168439
0.00309629
-6.58231e-05
0.00307991
1.62327e-05
0.0029903
8.94497e-05
0.00282856
0.000161587
0.00258697
0.000241442
0.00224266
0.000344159
0.00173835
0.000504149
0.0016025
0.000960749
0.00127585
0.00156214
0.000749711
0.00218297
0.00356422
-0.000803803
0.00945497
-0.00158
0.00402135
-0.00204864
0.00332699
-0.00236431
0.0026251
-0.00260859
0.00214086
-0.00279399
0.00168616
-0.00292556
0.00122838
-0.00300405
0.000746452
-0.00302292
0.00021607
-0.00296561
-0.000387078
-0.00281883
-0.00106247
-0.0025756
-0.001799
-0.00224245
-0.00254715
-0.00182649
-0.00319996
-0.00132161
-0.00362591
-0.000745386
-0.00380818
-0.000214285
-0.00379091
0.000263016
-0.00353785
0.00112437
-0.0029826
0.00149059
-0.00267263
0.00174963
-0.00226695
0.00200215
-0.00176917
0.00223211
-0.00128166
0.00244664
-0.000851741
0.00264865
-0.0005176
0.00275983
-0.000279622
0.0027971
-0.000103091
0.00277213
4.12072e-05
0.00269131
0.00017027
0.00255718
0.000295713
0.00236868
0.000429941
0.00212365
0.00058919
0.00183044
0.000797355
0.00162645
0.00116474
0.00148791
0.00170068
0.00131352
0.00235736
0.00230643
0.0025713
0.00133517
0.00100618
0.00187094
-0.000506936
0.00198989
-0.000575894
0.0104773
-0.00132486
0.00477031
-0.00158449
0.00358663
-0.00175039
0.002791
-0.0018643
0.00225477
-0.00193567
0.00175753
-0.00197097
0.00126368
-0.00197452
0.000750008
-0.00194313
0.000184682
-0.00185519
-0.00047502
-0.00170093
-0.00121673
-0.00147041
-0.00202952
-0.00116652
-0.00285104
-0.000795047
-0.00357143
-0.000375988
-0.00404497
6.3904e-05
-0.00424807
0.000469054
-0.00419606
0.00084361
-0.00391241
0.0012949
-0.00343389
0.00159404
-0.00297178
0.00179758
-0.00247049
0.00196929
-0.00194088
0.00212134
-0.00143372
0.00225647
-0.000986866
0.00236228
-0.000623409
0.0024216
-0.000338948
0.00243382
-0.000115312
0.002404
7.10315e-05
0.00233687
0.000237398
0.00223628
0.000396309
0.00210641
0.000559808
0.00195463
0.000740965
0.00179594
0.000956047
0.00170719
0.00125349
0.00176832
0.00163956
0.00198589
0.0021398
0.00223557
0.00232162
0.00174784
0.00149391
0.000825306
0.000415599
0.00291269
-0.000543521
0.011513
-0.00124379
0.00547058
-0.00119215
0.00353499
-0.00120049
0.00279934
-0.00119276
0.00224705
-0.00115916
0.00172392
-0.00110186
0.00120637
-0.00102662
0.000674775
-0.000927812
8.58712e-05
-0.000778697
-0.000624134
-0.000589543
-0.00140589
-0.000349927
-0.00226914
-6.69967e-05
-0.00313397
0.000236762
-0.00387518
0.000545842
-0.00435404
0.000840442
-0.00454266
0.00110325
-0.00445886
0.00133676
-0.00414592
0.00156887
-0.00366599
0.00172893
-0.00313184
0.00182924
-0.0025708
0.00189977
-0.00201141
0.00195629
-0.00149024
0.002004
-0.00103457
0.00203756
-0.000656977
0.00205107
-0.000352458
0.00204084
-0.000105073
0.00200738
0.000104491
0.00195364
0.000291133
0.00188337
0.000466581
0.00180186
0.000641316
0.00171798
0.000824844
0.00164749
0.00102654
0.00163485
0.00126613
0.00172659
0.00154782
0.00194608
0.00192031
0.002211
0.00205669
0.00222727
0.00147765
0.00165662
0.000986248
0.00467234
-0.000483712
0.0125322
-0.00105172
0.00603858
-0.000697701
0.00318097
-0.000636863
0.0027385
-0.000568411
0.0021786
-0.000463529
0.00161904
-0.000334193
0.00107704
-0.000182551
0.000523132
7.16789e-06
-0.000103848
0.000225628
-0.000842594
0.000465372
-0.00164563
0.000722578
-0.00252634
0.00097852
-0.0033899
0.0012059
-0.00410256
0.0014042
-0.00455233
0.00156473
-0.00470318
0.0016823
-0.00457643
0.00176166
-0.00422527
0.00181511
-0.00371945
0.00182574
-0.00314246
0.00180171
-0.00254677
0.00176204
-0.00197175
0.00172168
-0.00144988
0.00168807
-0.00100097
0.00166108
-0.000629986
0.00163652
-0.000327895
0.00160925
-7.78006e-05
0.00157677
0.000136971
0.0015391
0.000328797
0.00149747
0.000508213
0.00145503
0.000683761
0.00141823
0.000861642
0.00139882
0.00104595
0.00142218
0.00124277
0.00152035
0.00144965
0.00174898
0.00169168
0.00206819
0.00173748
0.00220429
0.00134154
0.00170544
0.00148509
0.00674592
0.00297768
0.0101417
0.00202229
0.00699396
0.00086915
0.00433412
0.000370671
0.00323698
0.000213738
0.00233553
0.000270313
0.00156247
0.00042462
0.000922728
0.000639043
0.000308709
0.000898829
-0.000363634
0.00116419
-0.00110796
0.00144278
-0.00192421
0.00170928
-0.00279284
0.00193432
-0.00361494
0.00209388
-0.00426211
0.00218246
-0.0046409
0.00220299
-0.00472371
0.00216445
-0.00453788
0.0020805
-0.00414132
0.00196632
-0.00360526
0.00182746
-0.0030036
0.00167607
-0.00239538
0.00152912
-0.0018248
0.00140128
-0.00132204
0.00130076
-0.000900442
0.00122853
-0.000557758
0.0011794
-0.000278762
0.00114571
-4.41113e-05
0.00112182
0.000160855
0.00110396
0.00034666
0.00108965
0.000522521
0.00107864
0.000694773
0.00107337
0.000866911
0.00107996
0.00103936
0.0011126
0.00121012
0.00119524
0.00136701
0.0013899
0.00149702
0.00172509
0.0014023
0.00186589
0.00120072
0.000539803
0.00281116
0.00767112
0.00403233
0.00624956
0.00366873
0.00735757
0.00254319
0.00545965
0.00188986
0.00389031
0.00153329
0.0026921
0.00138855
0.00170721
0.00142265
0.00088863
0.00159759
0.00013377
0.00185023
-0.000616273
0.00212782
-0.00138555
0.00240752
-0.00220392
0.00265184
-0.00303716
0.00281915
-0.00378225
0.00288272
-0.00432569
0.00283968
-0.00459785
0.00270414
-0.00458816
0.00249857
-0.0043323
0.00224729
-0.00389004
0.00197306
-0.00333102
0.00169302
-0.00272355
0.00142448
-0.00212684
0.00118558
-0.0015859
0.000991131
-0.0011276
0.000847479
-0.00075679
0.000753026
-0.000463305
0.00069826
-0.000223996
0.000671687
-1.7538e-05
0.000664039
0.000168503
0.000668041
0.000342659
0.000678496
0.000512066
0.000692201
0.000681068
0.000706838
0.000852274
0.000720142
0.00102606
0.000729761
0.0012005
0.000728888
0.00136788
0.000686243
0.00153967
0.00022557
0.00186297
-0.00122059
0.00264664
-0.00246402
0.00405444
0.00531185
0.00241033
0.00400376
0.00330585
0.00646205
0.00324983
0.00551566
0.00303898
0.00410117
0.00284803
0.00288304
0.00272501
0.00183023
0.00271152
0.000902122
0.0028011
4.41888e-05
0.00296377
-0.000778934
0.00317488
-0.00159666
0.00339227
-0.00242132
0.00355576
-0.00320064
0.00361067
-0.00383716
0.00353066
-0.00424567
0.00332149
-0.00438868
0.00300957
-0.00427623
0.0026294
-0.00395212
0.00221443
-0.00347507
0.00179429
-0.00291088
0.00139281
-0.00232208
0.00103188
-0.0017659
0.000731793
-0.00128581
0.000506589
-0.000902393
0.00035496
-0.000605161
0.000267204
-0.000375548
0.000225906
-0.000182698
0.0002161
-7.7316e-06
0.000226806
0.000157798
0.000250226
0.000319239
0.000281145
0.000481147
0.000315213
0.000647
0.000346426
0.000821061
0.000364936
0.00100755
0.000353484
0.00121195
0.00027793
0.00144343
4.36626e-05
0.00177395
-0.000671709
0.00257843
-0.00176703
0.00374188
-0.00204313
0.00433041
0.00338626
0.00145741
0.00274061
0.00274904
0.00517042
0.00343307
0.00483162
0.00371908
0.00381516
0.00381767
0.00278445
0.00384618
0.00180173
0.00388315
0.000865145
0.00395342
-2.60812e-05
0.00406442
-0.000889929
0.00420511
-0.00173736
0.00432376
-0.00253997
0.0043496
-0.00322649
0.00423128
-0.00371884
0.0039569
-0.0039713
0.00354916
-0.00398094
0.00304799
-0.00377506
0.00249731
-0.00340144
0.00193586
-0.00291361
0.00139785
-0.00237286
0.000910762
-0.00183498
0.000502165
-0.0013573
0.000192214
-0.000975863
-1.33973e-05
-0.000696781
-0.00013184
-0.000486718
-0.000189355
-0.000318033
-0.000208473
-0.00016358
-0.000202379
-1.38244e-05
-0.000178915
0.000134334
-0.000142736
0.00028306
-9.68362e-05
0.000435247
-4.45556e-05
0.000594719
7.92151e-06
0.000768584
4.826e-05
0.00096721
5.21688e-05
0.00120804
-2.93988e-05
0.001525
-0.00027743
0.00202206
-0.000780199
0.00308157
-0.00170186
0.00466379
-0.00201357
0.00464226
0.00150411
0.00217396
0.000792636
0.0029438
0.00440059
0.00359342
0.004182
0.00416344
0.00324513
0.00449125
0.00245664
0.00466603
0.00162695
0.00478379
0.00074738
0.00489007
-0.000132358
0.00499805
-0.000997912
0.00507707
-0.00181638
0.00506128
-0.0025242
0.00489071
-0.00305593
0.0045432
-0.00337134
0.00403785
-0.00346596
0.00341963
-0.00336272
0.00273926
-0.00309469
0.00204518
-0.00270736
0.00137541
-0.00224384
0.000769098
-0.00176655
0.000254451
-0.00132033
-0.000128866
-0.000973987
-0.000375343
-0.000729386
-0.000513371
-0.000558754
-0.000581263
-0.000418824
-0.000608811
-0.000290483
-0.000610484
-0.000161906
-0.000594223
-3.00838e-05
-0.000564001
0.000104112
-0.00052095
0.00024001
-0.000465215
0.000379512
-0.000397583
0.000527087
-0.000320669
0.00069167
-0.000242008
0.000888548
-0.000179473
0.0011455
-0.000167366
0.00151289
-0.000230666
0.0020854
-0.000222589
0.00307384
-0.00015659
0.00459818
-0.000163195
0.00464924
0.00148356
-0.00158164
0.00261941
0.00111636
0.00170259
0.00334893
0.00194943
0.00435141
0.00224266
0.00485538
0.00195267
0.00517066
0.00131168
0.00540025
0.000517789
0.00558016
-0.000312275
0.00568105
-0.0010988
0.00564047
-0.00177582
0.00540761
-0.00229137
0.00497103
-0.00261937
0.00435884
-0.00275916
0.00362384
-0.00273097
0.00282579
-0.00256467
0.00201427
-0.00228317
0.00123723
-0.00193032
0.000525485
-0.00153209
-7.03625e-05
-0.00117071
-0.000504476
-0.000886225
-0.000772262
-0.000706206
-0.000921081
-0.00058057
-0.000998283
-0.000481552
-0.00103061
-0.000386495
-0.00103553
-0.000285555
-0.00102255
-0.000174877
-0.000997473
-5.51599e-05
-0.000962766
6.94065e-05
-0.00091705
0.000194294
-0.000857273
0.000319735
-0.000780793
0.000450607
-0.000685672
0.00059655
-0.000573027
0.000775899
-0.000450926
0.00102338
-0.00032925
0.00139115
-0.000171936
0.00192798
0.000190652
0.00271131
0.000842918
0.0039462
0.00126475
0.00422772
0.00289737
0.00288115
0.00456855
0.00486898
0.00164901
0.00535521
0.00175642
0.00559155
0.00171633
0.00582355
0.00107969
0.00601222
0.000329117
0.00607969
-0.000379748
0.00595453
-0.000973655
0.0056036
-0.00142492
0.00503975
-0.00172754
0.00430997
-0.00188961
0.00347247
-0.00192168
0.00258526
-0.00184378
0.00170236
-0.00168179
0.000855837
-0.00143665
8.72324e-05
-0.00116172
-0.000541262
-0.000903606
-0.000983915
-0.000728065
-0.00125628
-0.000613873
-0.00141611
-0.000546383
-0.00150194
-0.00049474
-0.00154192
-0.000441564
-0.00155104
-0.000377357
-0.00153854
-0.000298037
-0.00151112
-0.000202282
-0.00147494
-9.13362e-05
-0.00143524
2.97048e-05
-0.00139131
0.000150365
-0.00133804
0.000266461
-0.00127117
0.000383732
-0.00118711
0.000512492
-0.00108307
0.000671866
-0.000953782
0.000894047
-0.000779979
0.00121719
-0.000496499
0.0016442
7.17203e-05
0.00214277
0.0010909
0.00292696
0.00163553
0.00368309
0.00469131
0.00793134
0.00536606
0.00581077
0.00387701
0.00556221
0.00196493
0.00563444
0.0010075
0.00559946
0.000364133
0.0053559
-0.000136167
0.00489333
-0.000511087
0.00425283
-0.000784435
0.00348804
-0.000962759
0.00265145
-0.00105305
0.00178384
-0.0010541
0.000920751
-0.00098071
9.53977e-05
-0.000856449
-0.000633959
-0.000707307
-0.0012073
-0.000588395
-0.0016089
-0.000502036
-0.00187467
-0.000462332
-0.00203857
-0.000449993
-0.0021384
-0.000446557
-0.00219559
-0.00043754
-0.00222138
-0.000415741
-0.00222169
-0.000376989
-0.00220114
-0.000318538
-0.00216474
-0.000238652
-0.00211889
-0.000137178
-0.00207158
-1.76193e-05
-0.00202905
0.00010781
-0.00199025
0.00022764
-0.0019513
0.000344779
-0.00190878
0.000470018
-0.00185608
0.000619242
-0.00177377
0.000811777
-0.00161973
0.00106304
-0.00132956
0.00135369
-0.000763915
0.00157654
0.000411565
0.00175091
0.000962461
0.0031317
0.00582299
0.00410207
0.00151059
0.00450315
0.00347595
0.00373328
0.00273484
0.00323198
0.00150885
0.00288793
0.00070821
0.00252174
0.000230032
0.00207499
-6.43353e-05
0.00153812
-0.000247568
0.000929199
-0.000353846
0.000264378
-0.000388239
-0.000420894
-0.000368838
-0.00107071
-0.000330912
-0.00163467
-0.000292512
-0.00207881
-0.000263194
-0.00240589
-0.000261362
-0.00262912
-0.000278858
-0.00278236
-0.000309141
-0.002891
-0.000341371
-0.00296941
-0.000368131
-0.00302254
-0.000384359
-0.00305166
-0.000386536
-0.00305731
-0.000371235
-0.00304088
-0.000334864
-0.00300528
-0.000274194
-0.00295501
-0.000187448
-0.00289685
-7.58474e-05
-0.002842
5.28668e-05
-0.0027993
0.000184854
-0.00276565
0.000311087
-0.00273685
0.00044127
-0.00271082
0.000593372
-0.00268211
0.00078331
-0.00263431
0.00101545
-0.00257253
0.00129197
-0.00263989
0.00164372
-0.00303523
0.00214582
-0.00283562
0.00293151
0.00317119
-0.00261145
-0.00678041
-0.00742484
-0.00747019
-0.00375376
-0.00216054
-0.00167697
0.00139918
-0.000763503
0.00182141
-0.00056456
0.00130994
-0.000643487
0.000787167
-0.000825739
0.000412308
-0.00106039
0.000170335
-0.00134251
3.45714e-05
-0.00167418
-2.21647e-05
-0.0020338
-2.86064e-05
-0.00239407
-8.59012e-06
-0.00273366
8.65174e-06
-0.00302807
1.84827e-06
-0.00325707
-3.42656e-05
-0.00342451
-9.39975e-05
-0.00355053
-0.0001529
-0.00365467
-0.000205042
-0.00374529
-0.000250742
-0.00382285
-0.000290499
-0.00388415
-0.000322939
-0.00392561
-0.00034492
-0.00394503
-0.000351649
-0.00394245
-0.000337302
-0.00392015
-0.00029642
-0.00388187
-0.000225741
-0.0038319
-0.000125959
-0.00377521
-4.03897e-06
-0.00371421
0.00012363
-0.00364123
0.000237931
-0.00354975
0.000349727
-0.00343234
0.000476046
-0.0032818
0.000632995
-0.00308728
0.000821263
-0.00282704
0.00103208
-0.0025643
0.00138128
-0.00269762
0.00227938
-0.00275522
0.00298931
0.000608893
-0.00736041
0.00103374
-0.00813302
-0.00669759
-0.00718318
-0.00311039
-0.00566094
-0.000123046
-0.00456867
0.000729183
-0.00397871
0.000720041
-0.00372168
0.000530192
-0.0036565
0.000347194
-0.00369827
0.000212166
-0.00379034
0.000126687
-0.00389182
7.93439e-05
-0.00398005
5.96297e-05
-0.00404349
5.48313e-05
-0.00408529
5.03804e-05
-0.00411958
3.6055e-05
-0.0041593
5.36052e-06
-0.00421161
-4.17704e-05
-0.00427428
-9.02805e-05
-0.00434488
-0.000134444
-0.00442082
-0.000174736
-0.00449939
-0.000211799
-0.00457786
-0.000244279
-0.00465354
-0.000269021
-0.00472335
-0.00028163
-0.00478317
-0.000277322
-0.00482743
-0.000252092
-0.00484933
-0.000203904
-0.00484206
-0.000133432
-0.004802
-4.44135e-05
-0.00472537
4.66383e-05
-0.0046088
0.000121044
-0.00444105
0.000181744
-0.00420636
0.000241256
-0.00388578
0.000312458
-0.00346186
0.000397505
-0.0028981
0.000468579
-0.00197002
0.000453471
3.15307e-05
0.000278086
0.00197575
0.00104538
0.00277228
0.00157567
-0.00505702
-0.00810393
-0.00816725
-0.00738343
-0.00661658
-0.00604629
-0.00566384
-0.00541953
-0.00526245
-0.00515339
-0.00506391
-0.00497856
-0.00489683
-0.00482873
-0.00479089
-0.00479997
-0.0048575
-0.00495928
-0.00510163
-0.00528154
-0.00549467
-0.00573352
-0.00598609
-0.00623551
-0.00646074
-0.00663863
-0.00674664
-0.00676602
-0.00669456
-0.00654884
-0.00634263
-0.00607729
-0.00574137
-0.00532129
-0.00483127
-0.00435765
-0.00406076
-0.0029979
)
;

boundaryField
{
    floor
    {
        type            calculated;
        value           nonuniform List<scalar> 
36
(
0
0
0
0
0
0
0
0
0
0
0
0
0
0
0
0
0
0
0
-6.43866e-06
-1.68822e-05
-2.6027e-05
-3.42936e-05
-3.49173e-05
-2.88395e-05
-2.8655e-05
-2.92009e-06
-5.44117e-06
-5.68746e-06
-5.90756e-06
-4.85432e-06
-8.93812e-06
-1.02104e-05
-1.28318e-05
-1.44573e-05
-1.54459e-05
)
;
    }
    ceiling
    {
        type            calculated;
        value           nonuniform List<scalar> 
43
(
-5.79191e-05
-6.49047e-05
-6.34539e-05
-5.96724e-05
-5.45516e-05
-4.67203e-05
-3.99874e-05
-3.51574e-05
-3.20545e-05
-3.03377e-05
-2.97011e-05
-2.98826e-05
-3.05827e-05
-3.14349e-05
-3.21303e-05
-3.25621e-05
-3.27499e-05
-3.27733e-05
-3.26322e-05
-3.22971e-05
-3.17387e-05
-3.09508e-05
-2.99703e-05
-2.88839e-05
-2.78128e-05
-2.68757e-05
-2.61492e-05
-2.56503e-05
-2.53429e-05
-2.51524e-05
-2.49751e-05
-2.46962e-05
-2.42279e-05
-2.35188e-05
-2.25543e-05
-2.13642e-05
-2.0031e-05
-1.86525e-05
-1.72616e-05
-1.60042e-05
1.93323e-05
1.51867e-05
-0.000246589
)
;
    }
    sWall
    {
        type            calculated;
        value           nonuniform List<scalar> 9(-0.000140236 -0.000164527 -0.000194267 -0.000225985 -0.000245136 -0.00028107 -0.000423694 -0.000453772 -0.000484034);
    }
    nWall
    {
        type            calculated;
        value           nonuniform List<scalar> 
14
(
-9.02831e-05
-9.74898e-05
-0.000103035
-0.000104743
-0.000117557
-0.000131383
-0.000142233
-0.000148878
-0.000158492
-0.000169664
-0.000184301
-0.000192994
-0.000187393
-0.000209363
)
;
    }
    sideWalls
    {
        type            empty;
        value           nonuniform 0();
    }
    glass1
    {
        type            calculated;
        value           nonuniform List<scalar> 9(-6.40341e-05 -0.00017032 -0.000257921 -0.000331203 -0.000393185 -0.000446389 -0.000492199 -0.000535481 -0.000587165);
    }
    glass2
    {
        type            calculated;
        value           nonuniform List<scalar> 2(-0.000368112 -0.000385361);
    }
    sun
    {
        type            calculated;
        value           uniform 0;
    }
    Table_master
    {
        type            calculated;
        value           nonuniform List<scalar> 9(-1.53992e-07 -1.54109e-07 -1.54141e-07 -1.54161e-07 -1.54174e-07 -1.54179e-07 -1.54177e-07 -1.54163e-07 -1.5411e-07);
    }
    Table_slave
    {
        type            calculated;
        value           nonuniform List<scalar> 9(1.53661e-07 1.53717e-07 1.53716e-07 1.53733e-07 1.53754e-07 1.53798e-07 1.53865e-07 1.53958e-07 1.54085e-07);
    }
    inlet
    {
        type            calculated;
        value           uniform -0.0116484;
    }
    outlet
    {
        type            calculated;
        value           nonuniform List<scalar> 2(0.0098155 0.0122835);
    }
}


// ************************************************************************* //
