/*--------------------------------*- C++ -*----------------------------------*\
  =========                 |
  \\      /  F ield         | OpenFOAM: The Open Source CFD Toolbox
   \\    /   O peration     | Website:  https://openfoam.org
    \\  /    A nd           | Version:  6
     \\/     M anipulation  |
\*---------------------------------------------------------------------------*/
FoamFile
{
    version     2.0;
    format      ascii;
    class       volScalarField;
    location    "34399.9999980210778";
    object      nut;
}
// * * * * * * * * * * * * * * * * * * * * * * * * * * * * * * * * * * * * * //

dimensions      [0 2 -1 0 0 0 0];

internalField   nonuniform List<scalar> 
778
(
0.00089431
0.000953041
0.000949541
0.000990733
0.00102849
0.00106278
0.00109472
0.00112552
0.00115653
0.0011895
0.00122095
0.00125082
0.00128025
0.00131189
0.00134489
0.000632356
0.000905452
0.00091285
0.000890825
0.000853908
0.00080452
0.000755271
0.000709901
0.000669013
0.00063237
0.000599729
0.000570413
0.000543707
0.000518777
0.000494512
0.000469138
0.000448052
0.000405564
0.00131079
0.00258107
0.00226501
0.0026143
0.00286768
0.0031363
0.00340426
0.00365126
0.00385015
0.00396607
0.00403424
0.00400633
0.00380659
0.00331159
0.00241854
0.00147251
0.00140391
0.00134381
0.00113084
0.00192653
0.00267067
0.00311047
0.00313128
0.00247096
0.00211328
0.00186543
0.00167727
0.00152752
0.00139978
0.0012869
0.0011819
0.00107919
0.000987016
0.000907549
0.00102195
0.000514135
0.00166405
0.0036043
0.00267219
0.0038223
0.0042709
0.00465048
0.00499523
0.00529871
0.00555593
0.00575776
0.00595324
0.00615892
0.00634784
0.0064601
0.00638509
0.0058457
0.00427491
0.00164823
0.00142676
0.00305203
0.00425932
0.00483093
0.0043938
0.00115955
0.00100838
0.000891725
0.00080042
0.000727733
0.000669048
0.000621175
0.000582239
0.000551887
0.000606714
0.000713615
0.00112936
0.000584838
0.00200529
0.00485829
0.0025572
0.00429817
0.00496254
0.00531801
0.00557939
0.00577282
0.00591728
0.00603452
0.006201
0.00648215
0.00689221
0.00740754
0.00792514
0.00817936
0.00767909
0.00572647
0.0016415
0.00380293
0.0056553
0.00659614
0.0068286
0.00582998
0.00132015
0.00120084
0.0011085
0.00103171
0.000966252
0.000907444
0.000851989
0.00079691
0.000737435
0.000688956
0.000713973
0.00122197
0.000643925
0.00234204
0.00643294
0.00258017
0.00408631
0.00510797
0.00541128
0.00552154
0.00552604
0.00547145
0.00542318
0.00549301
0.00576622
0.00626729
0.00697644
0.00779845
0.00855525
0.00903511
0.00902899
0.00810324
0.00824496
0.00843309
0.00845899
0.00828702
0.00775711
0.00617366
0.00533327
0.00475766
0.00428982
0.00383105
0.00338667
0.0029519
0.00251758
0.00207125
0.00159116
0.0012145
0.00121201
0.000959192
0.000767406
0.00100628
0.000966423
0.00267368
0.00819611
0.00303783
0.00344616
0.00489455
0.00523123
0.00520473
0.00501783
0.00475043
0.00452983
0.00452509
0.00481132
0.00538232
0.00620462
0.00716661
0.00812697
0.00894466
0.00946685
0.00956158
0.00946495
0.00929617
0.0090574
0.00875116
0.00836197
0.00779414
0.00724712
0.00675046
0.00627016
0.00575172
0.00519814
0.00460678
0.0039725
0.00329125
0.00256856
0.00191498
0.001438
0.00111613
0.00124811
0.00216172
0.00115747
0.00301223
0.0098276
0.00404856
0.00282348
0.00439816
0.00494859
0.00488803
0.00458539
0.00414608
0.00375935
0.00374814
0.00410932
0.00476278
0.00568168
0.00672724
0.00776174
0.00865197
0.00928953
0.00958261
0.00955923
0.00934845
0.00902978
0.00866534
0.00830213
0.00795103
0.00762891
0.00732638
0.00700341
0.00661352
0.00614426
0.00558853
0.00494354
0.00421184
0.00341265
0.00263275
0.00190583
0.00140372
0.00125178
0.00218986
0.00136176
0.00330357
0.0110646
0.00552099
0.00268876
0.00348423
0.00438701
0.00451331
0.00426464
0.00374531
0.00321917
0.00333847
0.00381601
0.00454641
0.00549319
0.00657868
0.0076616
0.00858538
0.00922733
0.00951887
0.00948042
0.00920859
0.00880793
0.00837725
0.00799552
0.00770135
0.00749121
0.00732741
0.00714943
0.00690199
0.00655567
0.00609661
0.00552189
0.00483722
0.00406397
0.00326248
0.00245456
0.00172702
0.00114117
0.00312601
0.00177251
0.00339336
0.0104838
0.00683712
0.00347746
0.0023628
0.0028952
0.00338783
0.00342968
0.0030286
0.00294434
0.0032504
0.00381172
0.00460078
0.00560396
0.00674098
0.00785707
0.00877783
0.00937071
0.00957918
0.00943604
0.0090423
0.00852578
0.00801348
0.00760495
0.00734569
0.00721831
0.00716051
0.00709204
0.00694984
0.00669983
0.00632832
0.00583368
0.00522265
0.00451339
0.00373836
0.00287202
0.00172357
0.00138233
0.00468987
0.00202345
0.00332468
0.00845811
0.00706644
0.00477625
0.00315351
0.00244168
0.00231254
0.00242119
0.0026251
0.00294962
0.00340914
0.00404022
0.00489725
0.00597764
0.00717568
0.00830731
0.00918037
0.00966202
0.00971309
0.00939043
0.00882141
0.00816629
0.00758179
0.00718163
0.00699829
0.00697655
0.00701585
0.00701483
0.00692256
0.00671982
0.00639992
0.00596228
0.00541132
0.0047535
0.00395684
0.00277328
0.00134525
0.00238051
0.00481895
0.00206059
0.00311439
0.00723105
0.00683519
0.00546858
0.0042074
0.00338693
0.0029815
0.00289019
0.0030587
0.00336812
0.00381664
0.00448148
0.00542632
0.00660936
0.00786749
0.00897512
0.0097283
0.0100099
0.00981446
0.00923957
0.00845743
0.00767417
0.00707973
0.00678174
0.00674701
0.00684384
0.00694166
0.00694315
0.00684568
0.00664884
0.00634817
0.00593911
0.00541845
0.0047661
0.00380217
0.00214697
0.00149142
0.00296078
0.00457767
0.0020373
0.00283601
0.00652065
0.00659513
0.00579083
0.004925
0.00427386
0.00389091
0.00375439
0.00378939
0.00397592
0.00438663
0.00512769
0.00621831
0.00752721
0.00881146
0.00980855
0.0103245
0.0102846
0.00974152
0.00885452
0.00786396
0.0070374
0.00657118
0.00647626
0.00655548
0.00668277
0.00676828
0.0067444
0.00663179
0.00643283
0.00613956
0.0057402
0.00521897
0.00451546
0.00318331
0.00154184
0.00190445
0.00322096
0.00420524
0.00197044
0.00258634
0.00583255
0.00629787
0.00591741
0.00536152
0.00489497
0.00458508
0.00443398
0.00438894
0.00454731
0.00506749
0.00603446
0.00735268
0.00876842
0.0099693
0.0106932
0.0108009
0.0102957
0.00931922
0.00811842
0.00703234
0.00633812
0.00603207
0.00598819
0.00606708
0.00617978
0.00625838
0.00624097
0.00613222
0.00593329
0.00563312
0.00521626
0.00466305
0.00388573
0.00256042
0.00151622
0.00210317
0.00335881
0.00423885
0.00192188
0.00259433
0.00578828
0.00643459
0.0059894
0.00553942
0.00517117
0.00490579
0.00473328
0.00472495
0.00510935
0.00602673
0.00739593
0.00894054
0.010307
0.0111828
0.011382
0.0108801
0.00978988
0.00838663
0.00703074
0.00605132
0.00547361
0.00519056
0.0051042
0.00513742
0.00522508
0.00530458
0.00530463
0.00519526
0.00497395
0.00462683
0.00415061
0.00356832
0.00290883
0.00215525
0.00162069
0.002152
0.00349172
0.00462438
0.00201794
0.00234169
0.0024352
0.00359198
0.00421907
0.00441225
0.00441436
0.00437056
0.00445018
0.00498763
0.00613217
0.0077384
0.00946878
0.0109484
0.0118667
0.0120412
0.0114343
0.0101909
0.00854125
0.00696743
0.0057406
0.00491292
0.00442192
0.00417268
0.00406579
0.00403715
0.00405003
0.00406795
0.00402928
0.00387418
0.00359533
0.00319779
0.00273799
0.00231905
0.00202591
0.00187328
0.00187641
0.0023906
0.00388169
0.00466121
0.00208105
0.000807874
0.00146587
0.00226198
0.00290206
0.00364254
0.00489996
0.00674635
0.00879018
0.0106449
0.0120268
0.0127465
0.0126828
0.0118414
0.0103083
0.0084818
0.00674886
0.00537393
0.00444172
0.00391137
0.00362925
0.00346319
0.00334721
0.00325594
0.00317823
0.00310013
0.00299185
0.00281217
0.00256195
0.00228353
0.00205815
0.00195409
0.00198408
0.00213126
0.00241851
0.00301516
0.00456903
0.00496823
0.00210728
0.0014971
0.00207678
0.00303164
0.00473914
0.0070597
0.00938381
0.0111883
0.0124869
0.0132663
0.0134777
0.0130289
0.0118281
0.0100619
0.00807642
0.00626565
0.00490568
0.00409033
0.00367221
0.00344711
0.00329853
0.00318396
0.00309148
0.00301681
0.0029538
0.00289015
0.00280558
0.00268486
0.00254233
0.0024157
0.00235629
0.00239982
0.00254732
0.00278423
0.00312398
0.00365006
0.00466755
0.00528751
0.00206542
0.00275766
0.00666432
0.00612061
0.00547484
0.00697129
0.00931479
0.0112985
0.0126389
0.0133431
0.0135146
0.0132376
0.0124834
0.0112177
0.00950546
0.00760058
0.00588386
0.00469019
0.00404281
0.00370836
0.00349977
0.00334102
0.0032146
0.00312292
0.00307041
0.00305596
0.00306988
0.00309336
0.00310073
0.00308038
0.00305617
0.00305119
0.00308749
0.00318051
0.00333001
0.00351799
0.00371779
0.0039016
0.00403299
0.00401846
0.00199177
0.00263916
0.00509873
0.00658281
0.00840535
0.00933936
0.0103134
0.0108875
0.011033
0.0108248
0.0103168
0.00953169
0.00848658
0.00725196
0.00599546
0.00495266
0.00425577
0.00381845
0.00353611
0.00332567
0.00315247
0.00301287
0.00291602
0.00287301
0.00289048
0.00296637
0.00308699
0.00322537
0.00334213
0.00341206
0.00346781
0.00353597
0.0036333
0.00376827
0.00394226
0.00415144
0.00438695
0.0046283
0.00484561
0.00454749
0.0020412
0.00247392
0.00211936
0.00210861
0.00216955
0.0022198
0.00215254
0.00202187
0.00186889
0.00171548
0.00157069
0.00143765
0.00131921
0.00122011
0.00114588
0.00109851
0.00107393
0.00106722
0.00106827
0.00107488
0.0010873
0.00110613
0.00113123
0.00116139
0.00119462
0.00122885
0.0012625
0.00129495
0.00132664
0.00135845
0.00139121
0.0014273
0.00146892
0.00151754
0.00157374
0.0016368
0.00170379
0.00177085
0.00184547
0.00196084
0.00197635
)
;

boundaryField
{
    floor
    {
        type            nutkWallFunction;
        Cmu             0.09;
        kappa           0.41;
        E               9.8;
        value           nonuniform List<scalar> 
36
(
0.000160579
7.63803e-05
0.000109532
0.000110412
0.00010779
0.000103378
9.74401e-05
9.14764e-05
8.59414e-05
8.09171e-05
7.6383e-05
7.23172e-05
6.86426e-05
6.52749e-05
6.21128e-05
5.90168e-05
5.57591e-05
5.30351e-05
4.74957e-05
4.74957e-05
6.15215e-05
7.04533e-05
7.78163e-05
9.29504e-05
0.000121446
0.000116761
0.000160579
0.000175022
0.000167276
0.000160455
7.63803e-05
0.000160455
0.000135997
0.000194686
0.000169859
0.000193936
)
;
    }
    ceiling
    {
        type            nutkWallFunction;
        Cmu             0.09;
        kappa           0.41;
        E               9.8;
        value           nonuniform List<scalar> 
43
(
0.000284342
0.00024629
0.00024513
0.000251723
0.00025715
0.000249912
0.000235758
0.00021905
0.000202139
0.000186019
0.000171061
0.000157616
0.00014627
0.000137712
0.000132227
0.000129375
0.000128596
0.000128721
0.000129489
0.000130928
0.000133108
0.000136016
0.00013951
0.000143357
0.000147314
0.000151197
0.000154931
0.000158566
0.000162204
0.000165934
0.000170025
0.000174726
0.000180199
0.000186509
0.000193568
0.000201043
0.000208495
0.000216696
0.000229237
0.000231066
0.000270425
0.000280416
0.00017758
)
;
    }
    sWall
    {
        type            nutkWallFunction;
        Cmu             0.09;
        kappa           0.41;
        E               9.8;
        value           nonuniform List<scalar> 9(0.000373892 0.000352077 0.000322964 0.000296603 0.000297447 0.000270514 0.000314409 0.000301933 0.000284443);
    }
    nWall
    {
        type            nutkWallFunction;
        Cmu             0.09;
        kappa           0.41;
        E               9.8;
        value           nonuniform List<scalar> 
14
(
0.000116768
0.000139101
0.000162516
0.000240022
0.00023746
0.000230166
0.000224936
0.000235645
0.000242306
0.000245144
0.00024031
0.000232493
0.000238281
0.000231102
)
;
    }
    sideWalls
    {
        type            empty;
    }
    glass1
    {
        type            nutkWallFunction;
        Cmu             0.09;
        kappa           0.41;
        E               9.8;
        value           nonuniform List<scalar> 9(0.000108248 0.000156883 0.000196739 0.000234353 0.000270798 0.000306148 0.000341763 0.000372083 0.00038138);
    }
    glass2
    {
        type            nutkWallFunction;
        Cmu             0.09;
        kappa           0.41;
        E               9.8;
        value           nonuniform List<scalar> 2(0.00020858 0.000236133);
    }
    sun
    {
        type            nutkWallFunction;
        Cmu             0.09;
        kappa           0.41;
        E               9.8;
        value           nonuniform List<scalar> 
14
(
0.000108207
0.000115178
0.000114764
0.000119627
0.000124063
0.000128077
0.000131801
0.000135381
0.000138975
0.000142783
0.000146404
0.000149835
0.000153206
0.00015682
)
;
    }
    Table_master
    {
        type            nutkWallFunction;
        Cmu             0.09;
        kappa           0.41;
        E               9.8;
        value           nonuniform List<scalar> 9(0.000139315 0.000121696 0.000107894 9.69448e-05 8.81235e-05 8.09251e-05 7.49969e-05 7.01348e-05 6.63171e-05);
    }
    Table_slave
    {
        type            nutkWallFunction;
        Cmu             0.09;
        kappa           0.41;
        E               9.8;
        value           nonuniform List<scalar> 9(0.00015775 0.00014408 0.000133396 0.000124434 0.000116734 0.000109765 0.000103146 9.65211e-05 8.93068e-05);
    }
    inlet
    {
        type            calculated;
        value           uniform 0.000167705;
    }
    outlet
    {
        type            calculated;
        value           nonuniform List<scalar> 2(0.00275766 0.00666432);
    }
}


// ************************************************************************* //
