/*--------------------------------*- C++ -*----------------------------------*\
  =========                 |
  \\      /  F ield         | OpenFOAM: The Open Source CFD Toolbox
   \\    /   O peration     | Website:  https://openfoam.org
    \\  /    A nd           | Version:  6
     \\/     M anipulation  |
\*---------------------------------------------------------------------------*/
FoamFile
{
    version     2.0;
    format      ascii;
    class       volScalarField;
    location    "2320";
    object      alphat;
}
// * * * * * * * * * * * * * * * * * * * * * * * * * * * * * * * * * * * * * //

dimensions      [1 -1 -1 0 0 0 0];

internalField   nonuniform List<scalar> 
458
(
0.00124408
0.00135521
0.00138589
0.00145221
0.00151329
0.00157113
0.00162899
0.00168774
0.00173578
0.00176599
0.00176944
0.00173734
0.00165865
0.00149202
0.00113177
0.000559102
0.000655481
0.000743168
0.000774876
0.00076273
0.00071375
0.000659562
0.000611075
0.000569074
0.000532592
0.000500738
0.000472862
0.000448143
0.00042563
0.000404276
0.000382833
0.000370089
0.000340107
0.00167643
0.00377466
0.0034817
0.00398933
0.0044954
0.00501601
0.00548316
0.00584447
0.00621576
0.00656347
0.00684251
0.00701206
0.00702791
0.00678331
0.0055129
0.00149401
0.00123944
0.00101118
0.000554583
0.00131631
0.00191864
0.00238488
0.00253222
0.00184543
0.00155788
0.00136222
0.00121785
0.00110722
0.00101946
0.000943786
0.00087264
0.000801625
0.000738192
0.000684997
0.000837916
0.000447116
0.00203692
0.00507264
0.0041865
0.00510443
0.00549006
0.00576088
0.00596908
0.00616133
0.0064292
0.00675504
0.00711117
0.00746004
0.00773531
0.00783154
0.00737922
0.00601396
0.0045578
0.00119428
0.00085432
0.00147432
0.00214538
0.00281286
0.0030034
0.000959295
0.000839852
0.000740463
0.000659964
0.000595003
0.000542359
0.000499566
0.000464961
0.000438044
0.00048544
0.00056218
0.000983089
0.000528393
0.00238378
0.00647836
0.00407213
0.00528779
0.00549872
0.00547758
0.00545802
0.00555024
0.00576827
0.00609094
0.0065009
0.00695773
0.00735744
0.00760851
0.0075514
0.00716065
0.00614562
0.00337383
0.0013758
0.00175208
0.00240867
0.00321253
0.00390912
0.00394324
0.00108041
0.000990317
0.000928945
0.000883649
0.000845347
0.0008073
0.000771164
0.000732984
0.00068836
0.000648441
0.000639018
0.00117166
0.000608554
0.00273781
0.00836908
0.00427093
0.00501916
0.00532064
0.00514037
0.0049937
0.00507736
0.0053077
0.00564378
0.00608608
0.00658719
0.00697892
0.00717344
0.00716814
0.00703109
0.00662588
0.00547892
0.00496579
0.0050016
0.00529288
0.0056398
0.00585234
0.0057559
0.00491074
0.00447602
0.00423635
0.00406466
0.00389093
0.00366721
0.00328719
0.00279773
0.00224095
0.00170472
0.00127865
0.00119126
0.00103423
0.000813331
0.000860759
0.000935587
0.00311664
0.0104979
0.00584854
0.00464666
0.00506411
0.00505341
0.00486618
0.00493539
0.00517063
0.00550728
0.00595618
0.00643689
0.00679937
0.00691464
0.00680415
0.00664672
0.00657606
0.00648164
0.00667663
0.00701469
0.00725159
0.0072934
0.00713313
0.00679846
0.00633151
0.00595208
0.0056566
0.00539629
0.00514079
0.00486966
0.00451942
0.00403946
0.00343224
0.00274546
0.00210979
0.00152981
0.00125746
0.00109686
0.00138114
0.000970513
0.0034894
0.0121022
0.00872425
0.00570996
0.00496869
0.00503993
0.00510358
0.00514045
0.00527434
0.00557164
0.00601372
0.00649028
0.00682259
0.00685873
0.00664921
0.00649792
0.00674743
0.00730063
0.00786347
0.00818076
0.00818115
0.00790826
0.00744641
0.00688444
0.0063251
0.0058749
0.00553406
0.00525774
0.00501611
0.00479914
0.0046017
0.00434373
0.00391926
0.00335233
0.00276327
0.00219731
0.00182797
0.00167459
0.00159618
0.00115309
0.00357897
0.0112156
0.009527
0.00799787
0.00682792
0.00630966
0.0058232
0.00549372
0.00548999
0.00577421
0.00623156
0.00670215
0.00698146
0.00691629
0.00665955
0.00672336
0.00743612
0.00802101
0.00832524
0.00831077
0.00797993
0.00740814
0.00670453
0.00599541
0.00540642
0.00499371
0.0047154
0.00451552
0.0043676
0.00426793
0.00422373
0.00422569
0.00411257
0.00377569
0.00344715
0.00326411
0.003344
0.00353001
0.00419309
0.00178523
0.00350477
0.00423041
0.0046753
0.00492486
0.00496213
0.00488889
0.00489231
0.00510041
0.00552022
0.00605389
0.00659922
0.007028
0.00716456
0.00691715
0.00684662
0.00720814
0.00762621
0.00776935
0.00766523
0.007302
0.00669368
0.00594245
0.00519269
0.00457761
0.0041523
0.00388144
0.00369973
0.00356168
0.00344396
0.00333341
0.00321994
0.00309532
0.00298233
0.00288456
0.00281976
0.00278318
0.00271362
0.00257062
0.00239701
0.00166669
0.00157982
0.00276063
0.00377669
0.00457222
0.00530087
0.00600985
0.00657123
0.00694692
0.00719086
0.0072238
0.0069858
0.00669694
0.00669768
0.00681711
0.00672527
0.00645433
0.0060272
0.00545219
0.00479064
0.00414461
0.00363045
0.00328423
0.00307199
0.00294169
0.00285518
0.00279217
0.00274382
0.0027081
0.00268803
0.00269431
0.00271003
0.00272402
0.00272475
0.00268162
0.00254862
0.00231435
0.00202417
0.00134113
0.00238087
0.0046535
0.00595106
0.00679152
0.00744516
0.00749555
0.00710353
0.00670946
0.0063723
0.00573423
0.00528039
0.0051746
0.00510284
0.00490297
0.00460191
0.00422878
0.00379131
0.00333113
0.00291631
0.00259354
0.00237113
0.00224295
0.00218291
0.00216999
0.00219126
0.0022385
0.0023045
0.00238085
0.00247028
0.00257293
0.00268274
0.00279057
0.00287828
0.00292215
0.00288124
0.00284556
0.00261988
0.0013586
0.0024916
0.0025535
0.00260944
0.00289324
0.00272908
0.00241435
0.0020336
0.00172835
0.00154177
0.00136495
0.00120949
0.00108786
0.000984931
0.000906919
0.000852701
0.000813093
0.000781236
0.000753825
0.000731194
0.000715925
0.000710231
0.000714521
0.000727207
0.000745856
0.000769421
0.000797345
0.000829471
0.000865987
0.000907499
0.000955307
0.0010097
0.00107027
0.00113734
0.00121122
0.00129193
0.00138865
0.00143096
0.00140162
0.00130369
0.00120559
)
;

boundaryField
{
    floor
    {
        type            compressible::alphatWallFunction;
        Prt             0.85;
        value           nonuniform List<scalar> 
36
(
0.000160683
7.82005e-05
9.26079e-05
0.000105492
0.000110106
0.000108342
0.000101192
9.32129e-05
8.60051e-05
7.97048e-05
7.41858e-05
6.93282e-05
6.50456e-05
6.12213e-05
5.77149e-05
5.4367e-05
5.09824e-05
4.89594e-05
4.41639e-05
4.41633e-05
6.10624e-05
7.35486e-05
8.56303e-05
0.00011568
0.000122504
0.000133176
0.000160681
0.000210146
0.000175549
0.000143834
7.81996e-05
0.000143833
7.75171e-05
0.00016933
0.000121565
0.000194173
)
;
    }
    ceiling
    {
        type            compressible::alphatWallFunction;
        Prt             0.85;
        value           nonuniform List<scalar> 
43
(
0.000340273
0.000348137
0.000355228
0.000391035
0.000370452
0.000330568
0.00028155
0.00024153
0.000216689
0.000192834
0.000171568
0.000154711
0.000140276
0.000129217
0.000121466
0.000115767
0.000111158
0.000107175
0.000103873
0.000101639
0.000100804
0.000101433
0.000103291
0.000106014
0.000109444
0.000113492
0.000118128
0.000123372
0.000129302
0.000136092
0.000143768
0.000152261
0.0001616
0.000171814
0.000182893
0.000196066
0.000201795
0.000197825
0.000184501
0.000171043
0.000467119
0.000555337
0.000326056
)
;
    }
    sWall
    {
        type            compressible::alphatWallFunction;
        Prt             0.85;
        value           uniform 0.000339031;
    }
    nWall
    {
        type            compressible::alphatWallFunction;
        Prt             0.85;
        value           nonuniform List<scalar> 6(0.000132957 0.000137898 0.000163425 0.000189266 0.000191641 0.000170702);
    }
    sideWalls
    {
        type            empty;
    }
    glass1
    {
        type            compressible::alphatWallFunction;
        Prt             0.85;
        value           nonuniform List<scalar> 9(0.000171655 0.000229163 0.000275988 0.000320288 0.000364869 0.000411952 0.000457744 0.00046881 0.000459996);
    }
    glass2
    {
        type            compressible::alphatWallFunction;
        Prt             0.85;
        value           nonuniform List<scalar> 2(0.000247083 0.00023154);
    }
    sun
    {
        type            compressible::alphatWallFunction;
        Prt             0.85;
        value           nonuniform List<scalar> 
14
(
0.000176205
0.000191374
0.000195541
0.000204514
0.000212738
0.000220491
0.000228216
0.000236027
0.000242393
0.000246386
0.000246841
0.000242599
0.000232161
0.000209877
)
;
    }
    Table_master
    {
        type            compressible::alphatWallFunction;
        Prt             0.85;
        value           nonuniform List<scalar> 9(0.00013667 0.000119635 0.00010524 9.34109e-05 8.37364e-05 7.58005e-05 6.92788e-05 6.39535e-05 5.97765e-05);
    }
    Table_slave
    {
        type            compressible::alphatWallFunction;
        Prt             0.85;
        value           nonuniform List<scalar> 9(0.000153695 0.000141055 0.000132369 0.000125915 0.000120428 0.000114947 0.000109713 0.000104151 9.76051e-05);
    }
    inlet
    {
        type            fixedValue;
        value           uniform 1.94e-05;
    }
    outlet
    {
        type            zeroGradient;
    }
}


// ************************************************************************* //
