/*--------------------------------*- C++ -*----------------------------------*\
  =========                 |
  \\      /  F ield         | OpenFOAM: The Open Source CFD Toolbox
   \\    /   O peration     | Website:  https://openfoam.org
    \\  /    A nd           | Version:  6
     \\/     M anipulation  |
\*---------------------------------------------------------------------------*/
FoamFile
{
    version     2.0;
    format      ascii;
    class       surfaceScalarField;
    location    "48300.0000008528805";
    object      phi;
}
// * * * * * * * * * * * * * * * * * * * * * * * * * * * * * * * * * * * * * //

dimensions      [1 0 -1 0 0 0 0];

internalField   nonuniform List<scalar> 
1482
(
-0.00279972
0.00286376
-0.00348386
0.000684135
-0.00414448
0.000660621
-0.00475846
0.000613982
-0.00527968
0.000521215
-0.00569137
0.000411691
-0.00598231
0.000290945
-0.00613947
0.000157162
-0.00614556
6.08067e-06
-0.00597461
-0.000170947
-0.00559673
-0.000377878
-0.00498093
-0.000615804
-0.00405703
-0.000923891
-0.00257886
-0.00147817
-0.00257594
-6.31147e-05
6.79696e-05
0.000781529
-0.000844644
0.00143469
-0.000653165
0.00183459
-0.000399901
0.00205658
-0.000221988
0.0021611
-0.000104522
0.00220857
-4.74625e-05
0.00223157
-2.3e-05
0.00224148
-9.90985e-06
0.00224244
-9.66636e-07
0.00223537
7.07578e-06
0.00221629
1.90767e-05
0.00217193
4.43653e-05
0.00206905
0.000102878
0.00185217
0.00021688
0.00149431
0.000357857
0.00102231
0.000471996
0.00102875
-0.00204031
0.00507439
-0.00290834
0.00155216
-0.00369411
0.00144639
-0.00434505
0.00126492
-0.00488216
0.00105832
-0.0053107
0.000840236
-0.0056289
0.000609146
-0.00582997
0.000358233
-0.00590327
7.93778e-05
-0.00584101
-0.00023321
-0.0056374
-0.000581486
-0.00528114
-0.000972064
-0.00477105
-0.00143398
-0.00428512
-0.0019641
-0.00470068
-0.00216037
-0.00311521
-0.00158003
-0.00163307
-0.00147645
-0.00161822
0.00131862
-0.00124045
0.00166364
-0.00118966
0.00191585
-0.000905373
0.00210742
-0.000591467
0.00221508
-0.000329648
0.00222397
-0.000113414
0.00222588
-4.93754e-05
0.00222749
-2.46052e-05
0.00222848
-1.09011e-05
0.00222853
-1.0171e-06
0.00222719
8.41209e-06
0.00222299
2.32751e-05
0.00221034
5.70216e-05
0.00214834
0.000164874
0.00189844
0.000466783
0.00146848
0.000787813
0.000904359
0.00103612
0.00195
-0.00148818
0.00682049
-0.00235895
0.00242293
-0.00312883
0.00221627
-0.00371294
0.00184903
-0.00418345
0.00152883
-0.00455469
0.00121148
-0.00482846
0.000882914
-0.00500153
0.000531306
-0.00506753
0.000145377
-0.00501741
-0.000283327
-0.00484045
-0.00075844
-0.00452924
-0.00128328
-0.00411455
-0.00184866
-0.00371703
-0.00236162
-0.00329666
-0.00258074
-0.00236569
-0.002511
-0.00127249
-0.00256965
-0.00287788
0.0011511
-0.00237709
0.001655
-0.00169356
0.00195368
-0.00120406
0.00214686
-0.000784645
0.00217775
-0.000360534
0.00206449
0.00201527
0.00199082
0.00198007
0.00197921
0.00198777
0.0020112
0.00206838
0.0022334
0.00187472
0.000825467
0.00142613
0.0012364
0.000806058
0.00165619
0.00278208
-0.00110597
0.00825767
-0.00192774
0.0032447
-0.00256963
0.00285815
-0.00302983
0.00230923
-0.00339721
0.00189622
-0.00368581
0.00150008
-0.00389863
0.00109573
-0.00403381
0.000666488
-0.00408385
0.000195417
-0.00403558
-0.000331601
-0.00387672
-0.000917294
-0.00360315
-0.00155685
-0.00323743
-0.00221438
-0.00281536
-0.0027837
-0.00227585
-0.00312025
-0.00155617
-0.00323068
-0.000867857
-0.00325797
-0.00068703
-0.00305871
0.00144917
-0.00212075
0.00137906
-0.00230698
0.00169382
-0.00200831
0.002006
-0.00151623
0.00227202
-0.00105067
0.00254754
-0.000636053
0.00286216
-0.000314774
0.00303004
-0.00016803
0.00309572
-6.58382e-05
0.00307972
1.58518e-05
0.00299073
8.88371e-05
0.0028296
0.000160975
0.00258833
0.000241112
0.00224384
0.000344339
0.00173871
0.000504973
0.00160161
0.000962563
0.00127335
0.00156467
0.00074589
0.00218365
0.00356227
-0.000803675
0.00945453
-0.00157967
0.0040207
-0.00204811
0.00332659
-0.00236365
0.00262476
-0.00260786
0.00214043
-0.00279325
0.00168547
-0.00292481
0.00122729
-0.00300324
0.000744921
-0.00302198
0.000214157
-0.00296441
-0.000389175
-0.00281726
-0.00106444
-0.00257353
-0.00180057
-0.00223977
-0.00254815
-0.00182309
-0.00320037
-0.00131757
-0.00362578
-0.000740877
-0.00380737
-0.000209428
-0.00378942
0.000267899
-0.00353603
0.00112843
-0.00298128
0.00149324
-0.00267179
0.00175107
-0.00226615
0.00200285
-0.001768
0.00223234
-0.00128017
0.0024465
-0.000850211
0.00264814
-0.000516416
0.00275923
-0.000279115
0.00279674
-0.000103347
0.00277229
4.03001e-05
0.00269215
0.000168977
0.00255866
0.000294465
0.00237048
0.000429289
0.00212514
0.000589683
0.00183074
0.000799375
0.00162472
0.00116858
0.0014835
0.00170588
0.00130538
0.00236177
0.00229829
0.00256936
0.00134176
0.000991427
0.00191282
-0.00054256
0.00203117
-0.000575771
0.0104767
-0.00132453
0.00476946
-0.00158385
0.00358591
-0.00174955
0.00279046
-0.00186339
0.00225428
-0.0019348
0.00175688
-0.00197022
0.00126271
-0.00197394
0.000748635
-0.00194272
0.000182945
-0.0018548
-0.000477097
-0.00170029
-0.00121895
-0.00146915
-0.00203172
-0.00116425
-0.00285305
-0.000791496
-0.00357313
-0.000371289
-0.00404598
6.93079e-05
-0.00424797
0.000474622
-0.00419473
0.000848876
-0.00391029
0.00129918
-0.00343159
0.00159696
-0.00296957
0.00179917
-0.00246836
0.00196984
-0.00193867
0.00212112
-0.00143145
0.00225569
-0.000984775
0.00236117
-0.000621901
0.00242049
-0.000338429
0.0024331
-0.00011596
0.00240407
6.93262e-05
0.00233803
0.000235022
0.00223856
0.000393934
0.00210949
0.000558355
0.00195769
0.000741486
0.00179758
0.000959487
0.00170574
0.00126041
0.00176237
0.00164926
0.00197504
0.00214911
0.00222321
0.00232119
0.00174434
0.00147029
0.000814067
0.000387713
0.00294242
-0.000543455
0.0115124
-0.00124349
0.0054695
-0.0011914
0.00353381
-0.00119947
0.00279854
-0.00119168
0.00224648
-0.00115817
0.00172337
-0.00110111
0.00120565
-0.0010262
0.000673729
-0.000927969
8.47135e-05
-0.000779226
-0.00062584
-0.000590017
-0.00140816
-0.000349639
-0.0022721
-6.52083e-05
-0.00313748
0.000240377
-0.00387872
0.000551037
-0.00435665
0.000846664
-0.0045436
0.00110981
-0.00445789
0.00134294
-0.00414341
0.00157397
-0.00366262
0.00173256
-0.00312816
0.00183131
-0.00256711
0.00190042
-0.00200778
0.00195573
-0.00148676
0.00200249
-0.00103154
0.00203549
-0.000654892
0.00204893
-0.000351872
0.00203927
-0.000106298
0.00200706
0.000101539
0.00195512
0.000286962
0.0018869
0.000462145
0.00180724
0.000638023
0.00172422
0.000824503
0.00165256
0.00103115
0.00163561
0.00127736
0.00171941
0.00156546
0.0019287
0.00193982
0.00218934
0.00206055
0.00222077
0.00143886
0.00163487
0.000973611
0.00467958
-0.000483699
0.0125315
-0.00105141
0.00603722
-0.000696896
0.0031793
-0.000635728
0.00273737
-0.00056718
0.00217793
-0.000462461
0.00161866
-0.000333538
0.00107672
-0.000182544
0.000522736
6.4132e-06
-0.000104244
0.000224287
-0.000843714
0.000464003
-0.00164788
0.000722124
-0.00253022
0.000979865
-0.00339522
0.00120943
-0.00410829
0.00140978
-0.004557
0.00157174
-0.00470558
0.00168993
-0.00457607
0.00176899
-0.00422249
0.00182139
-0.00371503
0.00183044
-0.00313721
0.00180459
-0.00254126
0.00176304
-0.00196623
0.00172086
-0.00144459
0.00168568
-0.000996356
0.0016576
-0.00062681
0.00163274
-0.000327007
0.00160619
-7.97506e-05
0.00157554
0.000132193
0.0015407
0.000321795
0.00150263
0.000500222
0.00146391
0.000676742
0.00142999
0.00085842
0.00141082
0.00105032
0.00142899
0.00125918
0.00151308
0.00148137
0.00171755
0.00173535
0.00201701
0.0017611
0.00219696
0.00125891
0.00176007
0.00141049
0.00680417
0.00297917
0.0101395
0.00202365
0.00699273
0.000869994
0.00433296
0.000371577
0.00323579
0.00021481
0.0023347
0.000271261
0.0015622
0.000425054
0.000922929
0.000638681
0.000309108
0.00089766
-0.000363223
0.00116229
-0.00110834
0.00144084
-0.00192643
0.00170835
-0.00279773
0.00193536
-0.00362223
0.00209739
-0.00427031
0.00218834
-0.00464795
0.00221065
-0.00472789
0.00217302
-0.00453844
0.00208904
-0.00413851
0.00197397
-0.00359997
0.00183355
-0.00299679
0.00168012
-0.00238783
0.00153074
-0.00181685
0.00140026
-0.00131412
0.00129716
-0.000893251
0.00122293
-0.000552581
0.00117296
-0.000277039
0.00114002
-4.68083e-05
0.00111863
0.000153587
0.00110496
0.00033546
0.00109637
0.000508813
0.00109219
0.000680925
0.00109392
0.000856688
0.00110532
0.00103892
0.00113524
0.00122926
0.00119676
0.00141985
0.00133528
0.00159682
0.00158759
0.00150879
0.00169037
0.00115615
0.000376996
0.00272385
0.00756309
0.00403294
0.00624683
0.00366934
0.00735634
0.00254343
0.00545886
0.00188988
0.00388934
0.00153329
0.00269129
0.00138848
0.00170702
0.00142222
0.000889183
0.00159644
0.000134894
0.00184822
-0.000615003
0.00212515
-0.00138527
0.00240496
-0.00220624
0.00265046
-0.00304323
0.00281992
-0.00379168
0.00288613
-0.00433652
0.00284566
-0.00460748
0.00271217
-0.0045944
0.00250785
-0.00433413
0.00225696
-0.00388763
0.00198226
-0.00332528
0.0017009
-0.00271544
0.00143021
-0.00211714
0.00118817
-0.00157481
0.000989829
-0.00111577
0.000841934
-0.000745356
0.000743936
-0.000454582
0.000687352
-0.000220455
0.000661364
-2.082e-05
0.000656933
0.000158018
0.000666752
0.000325642
0.000685617
0.000489947
0.000710517
0.000656026
0.000739352
0.000827854
0.000768968
0.00100931
0.000792375
0.00120585
0.000785917
0.00142631
0.000672992
0.00170974
6.93057e-05
0.0021125
-0.00191506
0.00314086
-0.00338411
0.00419298
0.0042818
0.00240984
0.00400152
0.00330511
0.00646107
0.00324901
0.00551497
0.0030382
0.00410015
0.0028473
0.0028822
0.00272413
0.00183019
0.00271023
0.000903087
0.00279905
4.60695e-05
0.00296073
-0.00077668
0.00317117
-0.00159571
0.00338878
-0.00242385
0.00355362
-0.00320806
0.0036108
-0.00384885
0.00353349
-0.00425921
0.003327
-0.00440098
0.00301741
-0.00428481
0.00263903
-0.00395575
0.0022252
-0.0034738
0.00180546
-0.00290554
0.00140325
-0.00231323
0.00104018
-0.00175407
0.000735773
-0.0012704
0.000504485
-0.000884486
0.000345881
-0.000586752
0.000252232
-0.000360934
0.00020767
-0.000175893
0.000198175
-1.13242e-05
0.000212897
0.000143295
0.000243725
0.000294814
0.000285484
0.000448189
0.000334827
0.000606683
0.000388283
0.000774397
0.000440208
0.000957382
0.000479206
0.00116686
0.000474157
0.00143135
0.000356229
0.00182766
-4.17937e-05
0.00251054
-0.000865333
0.00396489
-0.00129185
0.00461984
0.00310366
0.00145591
0.00273988
0.00274704
0.00516994
0.00343143
0.00483058
0.00371808
0.0038135
0.00381716
0.00278313
0.00384571
0.00180164
0.00388202
0.000866782
0.00395103
-2.29406e-05
0.00406061
-0.000886259
0.0042003
-0.0017354
0.00431903
-0.00254258
0.00434616
-0.00323519
0.00422998
-0.00373267
0.00395818
-0.00398739
0.00355318
-0.00399598
0.00305481
-0.00378643
0.00250689
-0.00340783
0.00194803
-0.00291494
0.00141215
-0.00236967
0.000925334
-0.00182642
0.000514434
-0.00134317
0.000197647
-0.000953614
-1.79628e-05
-0.000668876
-0.00014705
-0.000457665
-0.000213141
-0.000294844
-0.000236959
-0.000152076
-0.000230796
-1.74867e-05
-0.000202633
0.000115132
-0.000157926
0.000250108
-0.000100311
0.000390574
-3.24062e-05
0.000538778
4.32914e-05
0.0006987
0.000123424
0.00087725
0.000203199
0.00108708
0.000266238
0.00136831
0.000257887
0.00183597
0.000200086
0.0025682
0.000436378
0.00372872
0.000555148
0.00450126
0.00377897
0.00216659
0.00079926
0.00293837
0.00439816
0.00359087
0.00417809
0.00416283
0.00324154
0.00449195
0.00245401
0.00466724
0.00162635
0.00478447
0.000749552
0.00488882
-0.000127294
0.00499423
-0.000991666
0.00507136
-0.00181254
0.00505508
-0.00252629
0.00488526
-0.00306536
0.00453929
-0.00338668
0.00403608
-0.00348417
0.00342072
-0.0033806
0.00274413
-0.00310983
0.00205478
-0.00271848
0.00139037
-0.00225054
0.000789315
-0.00176861
0.000276289
-0.00131339
-0.000111678
-0.000955206
-0.000369196
-0.000696096
-0.00052177
-0.000516304
-0.000604386
-0.000375052
-0.000644078
-0.000255153
-0.000652693
-0.000143462
-0.000636798
-3.33822e-05
-0.000600744
7.90777e-05
-0.000547688
0.000197052
-0.000480544
0.00032343
-0.000402266
0.000460501
-0.000315316
0.000611751
-0.000221122
0.000783058
-0.000121662
0.000987621
-3.80356e-05
0.00128465
-1.63968e-05
0.00181416
7.20777e-05
0.00247932
0.000728083
0.00307238
0.00121024
0.00401886
0.00511664
-0.00157805
0.00262241
0.00111632
0.00170378
0.00334868
0.00194574
0.0043527
0.00223751
0.00485837
0.00194834
0.00517424
0.00131048
0.00540248
0.00052131
0.00557916
-0.000303983
0.00567667
-0.00108918
0.0056337
-0.00176957
0.00539961
-0.0022922
0.00496265
-0.00262838
0.00435074
-0.00277476
0.00361717
-0.00275058
0.00282247
-0.0025859
0.002017
-0.00230435
0.00124876
-0.00195023
0.000548051
-0.00154983
-3.95087e-05
-0.00118105
-0.000472771
-0.000880124
-0.000748694
-0.000679283
-0.000912262
-0.000532531
-0.00100896
-0.000419607
-0.00106165
-0.000322376
-0.00108391
-0.000232892
-0.00108155
-0.000145824
-0.0010577
-5.72319e-05
-0.00101493
3.63046e-05
-0.000955626
0.00013775
-0.000883002
0.000250807
-0.000802031
0.000379531
-0.000719441
0.000529162
-0.000645628
0.000709252
-0.000600614
0.000942626
-0.000616592
0.00130064
-0.000691339
0.00188875
-0.000712303
0.00249978
-0.000369824
0.00272911
-8.28917e-05
0.0037311
0.00517672
0.00288412
0.00457271
0.00487194
0.00164651
0.00535954
0.00174992
0.0055977
0.00171018
0.00582969
0.00107848
0.00601573
0.000335256
0.00607963
-0.000367908
0.00595108
-0.00096066
0.00559706
-0.00141556
0.00503026
-0.00172539
0.00429783
-0.00189594
0.00345861
-0.00193552
0.0025723
-0.00186425
0.0016946
-0.00170817
0.000859221
-0.00146896
0.000107619
-0.00119862
-0.000504034
-0.000938172
-0.000937453
-0.000747622
-0.00121011
-0.000607461
-0.00138086
-0.000508542
-0.00148583
-0.000427571
-0.00155049
-0.000354969
-0.00158613
-0.000286748
-0.00159766
-0.000221369
-0.00158683
-0.000156658
-0.00155477
-8.92901e-05
-0.00150416
-1.43006e-05
-0.00143776
7.13517e-05
-0.00135874
0.00017179
-0.00127437
0.000295167
-0.00119664
0.000451428
-0.00114522
0.000657849
-0.00115176
0.000949244
-0.00124694
0.001396
-0.00144436
0.00208639
-0.00191561
0.00297109
-0.00288436
0.00369769
-0.00299836
0.00384473
0.00233774
0.00793748
0.00535789
0.00581989
0.00386751
0.00557161
0.00195843
0.00564137
0.00100867
0.00560333
0.000373202
0.00535752
-0.000122155
0.00489198
-0.000495162
0.00424692
-0.000770515
0.00347636
-0.000954822
0.00263422
-0.00105378
0.00176329
-0.00106457
0.000902923
-0.00100386
8.94936e-05
-0.000894726
-0.000618879
-0.000760579
-0.00116806
-0.000649422
-0.00155063
-0.000555583
-0.00180718
-0.000491056
-0.00197366
-0.00044099
-0.00208711
-0.000395122
-0.00216675
-0.000347963
-0.00222146
-0.000300308
-0.00225435
-0.000253892
-0.00226632
-0.000209419
-0.0022571
-0.000165876
-0.00222582
-0.000120549
-0.00217108
-6.90115e-05
-0.00209499
-4.71167e-06
-0.00200058
7.73817e-05
-0.00189104
0.000185616
-0.00177596
0.000336323
-0.00167047
0.000552325
-0.00159093
0.00086975
-0.0015403
0.00134559
-0.00149651
0.00204302
-0.00151627
0.00299137
-0.00193986
0.00412172
-0.00204614
0.00395146
0.000466094
0.00411961
0.00148484
0.00451932
0.00346779
0.00374351
0.00273419
0.00323663
0.00151546
0.00288869
0.000721058
0.00252085
0.000245639
0.00207196
-4.62824e-05
0.00152872
-0.00022727
0.000911291
-0.000337382
0.000239099
-0.000381564
-0.000446325
-0.000379131
-0.00108427
-0.000365884
-0.00162429
-0.000354675
-0.00203799
-0.000346846
-0.00233777
-0.000349601
-0.00254362
-0.000349715
-0.00269236
-0.000342328
-0.00280909
-0.000324294
-0.00290621
-0.000298073
-0.00298655
-0.000267706
-0.00304986
-0.00023708
-0.0030953
-0.000208506
-0.00312197
-0.000182775
-0.00312816
-0.000159658
-0.00311048
-0.000138165
-0.00306331
-0.000116098
-0.00297922
-8.87184e-05
-0.00285528
-4.65133e-05
-0.00269429
2.46119e-05
-0.00250086
0.000142806
-0.00228112
0.000332457
-0.00203516
0.00062368
-0.00173302
0.00104343
-0.00130609
0.00161632
-0.000673538
0.00235926
0.000190563
0.00325803
0.000916592
0.00322592
0.00155893
-0.00259314
-0.00674971
-0.00740181
-0.00745396
-0.00374696
-0.00217
-0.00166792
0.00138871
-0.000754656
0.00182085
-0.000556665
0.0013174
-0.000637339
0.000801684
-0.000825106
0.000433376
-0.00106795
0.000196542
-0.00135774
6.2508e-05
-0.00169792
2.80269e-06
-0.00206471
-1.47531e-05
-0.00242484
-1.89695e-05
-0.00275244
-3.82287e-05
-0.00301473
-9.23279e-05
-0.00319921
-0.000162305
-0.00332943
-0.000219354
-0.00343505
-0.0002441
-0.00353702
-0.000240411
-0.00364119
-0.00022022
-0.00374515
-0.000194237
-0.00384351
-0.000169475
-0.00393092
-0.000149783
-0.00400305
-0.000136441
-0.00405669
-0.000129132
-0.00408893
-0.000127347
-0.00409549
-0.000131479
-0.00406902
-0.000142401
-0.00399841
-0.000159146
-0.00386966
-0.000175108
-0.00367123
-0.000173728
-0.00340113
-0.00012733
-0.00306746
-1.39676e-06
-0.00267337
0.000229337
-0.00218089
0.000550677
-0.00148334
0.000918595
-0.000458349
0.00133428
0.000827664
0.00197219
0.00135052
0.00270333
0.00309064
-0.00733929
0.00104298
-0.00811034
-0.00668294
-0.00716721
-0.00311317
-0.00564915
-0.000129401
-0.00455631
0.000727939
-0.00396383
0.000724844
-0.00370352
0.000541321
-0.00363581
0.000365624
-0.00367728
0.000237987
-0.00377187
0.000157105
-0.00387697
0.000107938
-0.00396349
7.18079e-05
-0.00401929
3.68942e-05
-0.00405386
-3.57863e-06
-0.00408851
-5.75964e-05
-0.00413796
-0.00011281
-0.00420793
-0.000149382
-0.00429327
-0.000158821
-0.00438533
-0.000148467
-0.00447634
-0.000129356
-0.00456101
-0.000109739
-0.00463617
-9.44589e-05
-0.00470012
-8.59419e-05
-0.00475183
-8.47701e-05
-0.00479049
-9.04403e-05
-0.004815
-0.000102727
-0.00482332
-0.000122957
-0.00481174
-0.000153717
-0.00477456
-0.000196031
-0.00470434
-0.000245017
-0.00459131
-0.000286494
-0.00441988
-0.000298613
-0.00416439
-0.000256919
-0.00379605
-0.000139282
-0.00330788
6.20623e-05
-0.00265185
0.00026207
-0.001609
0.000291031
0.00017082
0.000192164
0.00123246
0.00164169
0.00450898
0.00158456
-0.0050339
-0.00808412
-0.00815429
-0.00737212
-0.00660073
-0.00601942
-0.00561846
-0.0053481
-0.00516027
-0.00502228
-0.00492032
-0.0048527
-0.00482488
-0.00485071
-0.0049317
-0.00504941
-0.00517673
-0.00529381
-0.0053918
-0.00547016
-0.00553322
-0.0055878
-0.00564134
-0.00570085
-0.00577314
-0.00586638
-0.00599136
-0.00615988
-0.00637883
-0.00664083
-0.00691654
-0.00715198
-0.00727097
-0.00718955
-0.00690886
-0.00659983
-0.00639031
-0.0047319
)
;

boundaryField
{
    floor
    {
        type            calculated;
        value           nonuniform List<scalar> 
36
(
0
0
0
0
0
0
0
0
0
0
0
0
0
0
0
0
0
0
0
-6.43921e-06
-1.68839e-05
-2.60287e-05
-3.42996e-05
-3.48998e-05
-2.8495e-05
-2.85085e-05
-2.92054e-06
-5.44246e-06
-5.68883e-06
-5.90892e-06
-4.85451e-06
-8.94015e-06
-1.02094e-05
-1.28332e-05
-1.44556e-05
-1.54451e-05
)
;
    }
    ceiling
    {
        type            calculated;
        value           nonuniform List<scalar> 
43
(
-5.77872e-05
-6.45124e-05
-6.30239e-05
-5.93296e-05
-5.43286e-05
-4.66424e-05
-4.00674e-05
-3.53873e-05
-3.23892e-05
-3.06989e-05
-2.99992e-05
-3.00611e-05
-3.06271e-05
-3.13123e-05
-3.17102e-05
-3.17972e-05
-3.17076e-05
-3.15897e-05
-3.15183e-05
-3.15018e-05
-3.15118e-05
-3.15031e-05
-3.14249e-05
-3.12264e-05
-3.08614e-05
-3.02929e-05
-2.94961e-05
-2.84614e-05
-2.72015e-05
-2.57652e-05
-2.4251e-05
-2.27957e-05
-2.15271e-05
-2.05069e-05
-1.97083e-05
-1.90288e-05
-1.83451e-05
-1.75928e-05
-1.68231e-05
-1.68048e-05
1.93371e-05
1.51846e-05
-0.000246562
)
;
    }
    sWall
    {
        type            calculated;
        value           nonuniform List<scalar> 9(-0.000140238 -0.00016453 -0.000194264 -0.000225969 -0.000245103 -0.000281043 -0.000423432 -0.000453409 -0.000483797);
    }
    nWall
    {
        type            calculated;
        value           nonuniform List<scalar> 
14
(
-8.98462e-05
-9.71922e-05
-0.000102302
-0.000102911
-0.000113728
-0.000120155
-0.000127808
-0.000143387
-0.000159699
-0.000174009
-0.000175855
-0.000181015
-0.000185857
-0.000206113
)
;
    }
    sideWalls
    {
        type            empty;
        value           nonuniform 0();
    }
    glass1
    {
        type            calculated;
        value           nonuniform List<scalar> 9(-6.40342e-05 -0.000170321 -0.000257923 -0.000331207 -0.00039319 -0.000446394 -0.000492204 -0.000535483 -0.000587167);
    }
    glass2
    {
        type            calculated;
        value           nonuniform List<scalar> 2(-0.000364545 -0.000382032);
    }
    sun
    {
        type            calculated;
        value           uniform 0;
    }
    Table_master
    {
        type            calculated;
        value           nonuniform List<scalar> 9(-1.53992e-07 -1.54109e-07 -1.54141e-07 -1.54161e-07 -1.54174e-07 -1.54179e-07 -1.54177e-07 -1.54163e-07 -1.5411e-07);
    }
    Table_slave
    {
        type            calculated;
        value           nonuniform List<scalar> 9(1.53662e-07 1.53718e-07 1.53717e-07 1.53733e-07 1.53754e-07 1.53798e-07 1.53864e-07 1.53958e-07 1.54085e-07);
    }
    inlet
    {
        type            calculated;
        value           uniform -0.0116489;
    }
    outlet
    {
        type            calculated;
        value           nonuniform List<scalar> 2(0.0097663 0.0122626);
    }
}


// ************************************************************************* //
