/*--------------------------------*- C++ -*----------------------------------*\
  =========                 |
  \\      /  F ield         | OpenFOAM: The Open Source CFD Toolbox
   \\    /   O peration     | Website:  https://openfoam.org
    \\  /    A nd           | Version:  6
     \\/     M anipulation  |
\*---------------------------------------------------------------------------*/
FoamFile
{
    version     2.0;
    format      ascii;
    class       volVectorField;
    location    "48300.0000008528805";
    object      U;
}
// * * * * * * * * * * * * * * * * * * * * * * * * * * * * * * * * * * * * * //

dimensions      [0 1 -1 0 0 0 0];

internalField   nonuniform List<vector> 
778
(
(0.0656029 0.0794067 0)
(-0.155173 0.0157641 0)
(-0.164297 0.0146233 0)
(-0.192412 0.0122723 0)
(-0.216843 0.00872061 0)
(-0.236897 0.0047382 0)
(-0.252015 0.000410177 0)
(-0.261775 -0.0043756 0)
(-0.265664 -0.00981746 0)
(-0.262679 -0.0161957 0)
(-0.250869 -0.0242663 0)
(-0.226169 -0.0348805 0)
(-0.186056 -0.0503951 0)
(-0.144135 -0.075155 0)
(-0.150024 -0.108532 0)
(0.0546861 0.0354509 0)
(0.0158213 -0.0268758 0)
(0.0450237 -0.0232615 0)
(0.0694375 -0.016158 0)
(0.0845023 -0.0103523 0)
(0.0917115 -0.0064158 0)
(0.0945474 -0.00434043 0)
(0.095588 -0.00331845 0)
(0.096051 -0.00273037 0)
(0.0962278 -0.00231579 0)
(0.0961041 -0.00195022 0)
(0.0955758 -0.00150923 0)
(0.0943153 -0.000755248 0)
(0.0914646 0.00084926 0)
(0.0852531 0.0040742 0)
(0.0736984 0.00778363 0)
(0.0600211 0.0116277 0)
(-0.00791547 0.0300142 0)
(0.258405 0.167391 0)
(-0.161233 0.0483885 0)
(-0.141598 0.0459774 0)
(-0.174 0.04161 0)
(-0.199359 0.03566 0)
(-0.220074 0.0291177 0)
(-0.236095 0.0220434 0)
(-0.247336 0.0142114 0)
(-0.2535 0.00527895 0)
(-0.253806 -0.00516887 0)
(-0.247644 -0.0170945 0)
(-0.233934 -0.0308556 0)
(-0.214027 -0.0480726 0)
(-0.19745 -0.069946 0)
(-0.193932 -0.0826197 0)
(-0.166332 -0.042536 0)
(-0.105307 -0.036349 0)
(-0.0983253 -0.0444358 0)
(0.10936 -0.042165 0)
(0.0645143 -0.0412094 0)
(0.0719843 -0.0322942 0)
(0.0859846 -0.0207329 0)
(0.0939027 -0.0104794 0)
(0.0961432 -0.00364015 0)
(0.0959003 -0.000203717 0)
(0.0955089 0.00123592 0)
(0.0954725 0.00188545 0)
(0.0955547 0.00226416 0)
(0.0955635 0.00259055 0)
(0.0954644 0.00313491 0)
(0.0951736 0.00441682 0)
(0.0939155 0.00773421 0)
(0.0883132 0.0167757 0)
(0.0745384 0.025372 0)
(0.0631892 0.032999 0)
(-0.0519828 0.0636678 0)
(0.42999 0.25395 0)
(-0.194233 0.0847532 0)
(-0.112771 0.0784266 0)
(-0.148234 0.0669465 0)
(-0.170661 0.0554856 0)
(-0.18875 0.0437072 0)
(-0.202579 0.0313192 0)
(-0.212261 0.0179798 0)
(-0.217602 0.00337159 0)
(-0.217948 -0.0126557 0)
(-0.212683 -0.0303419 0)
(-0.201571 -0.0499184 0)
(-0.185926 -0.0715694 0)
(-0.169384 -0.0932026 0)
(-0.151008 -0.104543 0)
(-0.120174 -0.0931123 0)
(-0.0794956 -0.0948933 0)
(-0.0714281 -0.107521 0)
(0.0921543 -0.088261 0)
(0.0626076 -0.0658224 0)
(0.0744282 -0.0461744 0)
(0.0880838 -0.0292842 0)
(0.0949566 -0.0149465 0)
(0.092074 -0.0119962 0)
(0.087835 -0.00793135 0)
(0.0854645 -0.00577959 0)
(0.0847637 -0.00456582 0)
(0.0847307 -0.00380436 0)
(0.0849822 -0.00322949 0)
(0.0856357 -0.00259962 0)
(0.0874008 -0.0014384 0)
(0.092092 0.00292306 0)
(0.090251 0.0251242 0)
(0.0734242 0.042411 0)
(0.0701819 0.0575364 0)
(-0.0900789 0.101063 0)
(0.578564 0.325834 0)
(-0.240107 0.1218 0)
(-0.0808232 0.109213 0)
(-0.121561 0.0898409 0)
(-0.138991 0.0740507 0)
(-0.153047 0.0586104 0)
(-0.163801 0.0427208 0)
(-0.171388 0.0257722 0)
(-0.17559 0.00715939 0)
(-0.175644 -0.0135665 0)
(-0.170947 -0.036497 0)
(-0.16137 -0.061471 0)
(-0.147493 -0.0873749 0)
(-0.130503 -0.110291 0)
(-0.109532 -0.12318 0)
(-0.082044 -0.124505 0)
(-0.0524212 -0.126317 0)
(-0.0332724 -0.123128 0)
(0.016513 -0.0568015 0)
(0.0609313 -0.0930815 0)
(0.0685453 -0.0792419 0)
(0.079145 -0.058867 0)
(0.0916309 -0.0396213 0)
(0.102959 -0.0209648 0)
(0.115705 -0.0132026 0)
(0.126889 -0.00880696 0)
(0.132512 -0.00560404 0)
(0.133524 -0.00310699 0)
(0.131033 -0.000889715 0)
(0.125604 0.00127838 0)
(0.117101 0.00366379 0)
(0.10475 0.00672786 0)
(0.0854838 0.0111712 0)
(0.0715858 0.0368767 0)
(0.0602547 0.0606427 0)
(0.0763984 0.0834572 0)
(-0.117957 0.137366 0)
(0.705751 0.38367 0)
(-0.287688 0.156991 0)
(-0.0476828 0.133767 0)
(-0.0962761 0.106903 0)
(-0.107723 0.0875759 0)
(-0.116753 0.069148 0)
(-0.12354 0.0504147 0)
(-0.128197 0.030548 0)
(-0.13055 0.00867967 0)
(-0.129735 -0.0158635 0)
(-0.125226 -0.0431137 0)
(-0.116589 -0.0727083 0)
(-0.103849 -0.102836 0)
(-0.087351 -0.129085 0)
(-0.0673744 -0.145768 0)
(-0.0440093 -0.15223 0)
(-0.0201341 -0.152317 0)
(0.000420789 -0.143662 0)
(0.0309356 -0.114985 0)
(0.0570809 -0.109371 0)
(0.0706284 -0.0924605 0)
(0.0807379 -0.0712855 0)
(0.090783 -0.0508305 0)
(0.100333 -0.0327934 0)
(0.109449 -0.0194121 0)
(0.116495 -0.0100425 0)
(0.119949 -0.00335765 0)
(0.120183 0.00188887 0)
(0.117807 0.00643235 0)
(0.113189 0.0107898 0)
(0.106349 0.0154745 0)
(0.0972141 0.0211883 0)
(0.0852766 0.0292286 0)
(0.07369 0.0472868 0)
(0.0631313 0.0713857 0)
(0.0948146 0.0995181 0)
(0.0167133 0.138519 0)
(0.0963343 0.182936 0)
(0.140962 0.14417 0)
(-0.218813 0.201628 0)
(0.810464 0.431961 0)
(-0.331333 0.190656 0)
(-0.0172994 0.150228 0)
(-0.0733491 0.117502 0)
(-0.0785693 0.0954925 0)
(-0.0821895 0.0749214 0)
(-0.0844445 0.0543119 0)
(-0.0854835 0.032681 0)
(-0.0852289 0.00881537 0)
(-0.0825523 -0.0184566 0)
(-0.0773781 -0.0490659 0)
(-0.0687342 -0.0825334 0)
(-0.0567081 -0.116528 0)
(-0.0416046 -0.146327 0)
(-0.0245697 -0.166004 0)
(-0.00613992 -0.17448 0)
(0.0122621 -0.1727 0)
(0.0281826 -0.160947 0)
(0.0463287 -0.139277 0)
(0.062744 -0.122318 0)
(0.0733734 -0.102485 0)
(0.0810137 -0.0804448 0)
(0.0877451 -0.0591113 0)
(0.093913 -0.0402475 0)
(0.0992479 -0.0250861 0)
(0.102957 -0.0137492 0)
(0.104594 -0.0050786 0)
(0.104209 0.00209469 0)
(0.102102 0.00855206 0)
(0.0985169 0.0148178 0)
(0.0936037 0.0214238 0)
(0.0875821 0.0290058 0)
(0.0807022 0.0384754 0)
(0.0749 0.0529738 0)
(0.0695484 0.0730339 0)
(0.0916411 0.0987531 0)
(0.0734206 0.107362 0)
(0.0903036 0.0472974 0)
(0.146745 -0.0367078 0)
(-0.325867 0.108218 0)
(0.879937 0.474671 0)
(-0.368659 0.220933 0)
(0.00373744 0.155528 0)
(-0.0526402 0.121547 0)
(-0.0521806 0.0978317 0)
(-0.0509994 0.0758 0)
(-0.0489976 0.0540179 0)
(-0.0464864 0.0315032 0)
(-0.043307 0.00673524 0)
(-0.0373542 -0.02234 0)
(-0.0302784 -0.0554109 0)
(-0.0204768 -0.0919876 0)
(-0.00862993 -0.128948 0)
(0.00464208 -0.161305 0)
(0.01776 -0.181923 0)
(0.0305965 -0.190218 0)
(0.0424321 -0.187186 0)
(0.0527409 -0.174342 0)
(0.0626865 -0.153977 0)
(0.0712187 -0.132326 0)
(0.0766915 -0.109323 0)
(0.0801014 -0.0858389 0)
(0.0826588 -0.0636809 0)
(0.0848692 -0.0442043 0)
(0.0866932 -0.0281339 0)
(0.0877982 -0.015376 0)
(0.0879606 -0.00514835 0)
(0.0870318 0.00347429 0)
(0.0851928 0.0111823 0)
(0.0825851 0.0185075 0)
(0.0793732 0.0259591 0)
(0.0758208 0.0340464 0)
(0.0723099 0.0433273 0)
(0.0701932 0.0550832 0)
(0.0688143 0.0696644 0)
(0.0816883 0.0887139 0)
(0.0846109 0.0916847 0)
(0.0901319 0.0534677 0)
(0.182059 0.0257278 0)
(-0.280917 0.156591 0)
(0.927981 0.517128 0)
(-0.383178 0.234123 0)
(0.0169149 0.132921 0)
(-0.0272986 0.116621 0)
(-0.0265174 0.0948979 0)
(-0.0227088 0.072407 0)
(-0.0176002 0.0500813 0)
(-0.0123328 0.0272254 0)
(-0.00538699 0.00183697 0)
(0.00458264 -0.0307749 0)
(0.0143025 -0.065378 0)
(0.0256207 -0.103406 0)
(0.0373051 -0.140954 0)
(0.0480378 -0.172239 0)
(0.057188 -0.192408 0)
(0.0647275 -0.199843 0)
(0.0704755 -0.195357 0)
(0.07443 -0.181104 0)
(0.0771026 -0.159982 0)
(0.0784148 -0.135974 0)
(0.0779947 -0.110968 0)
(0.0764275 -0.0864618 0)
(0.0745516 -0.0639261 0)
(0.0728981 -0.0443615 0)
(0.0716103 -0.0281483 0)
(0.0705582 -0.0150052 0)
(0.0695489 -0.00422926 0)
(0.0682942 0.0049644 0)
(0.0668978 0.0131682 0)
(0.0653262 0.0208811 0)
(0.0636471 0.0285447 0)
(0.062026 0.0365281 0)
(0.0607323 0.0451325 0)
(0.0605875 0.0548213 0)
(0.0613717 0.0655034 0)
(0.0697782 0.0786043 0)
(0.0792114 0.0811731 0)
(0.0797341 0.0593454 0)
(0.240164 0.0539051 0)
(-0.542741 0.233633 0)
(1.01134 0.50677 0)
(-0.137125 0.296304 0)
(0.041104 0.161466 0)
(0.040648 0.122028 0)
(0.0131303 0.0919292 0)
(0.00871116 0.0653302 0)
(0.0141334 0.04136 0)
(0.020754 0.0169493 0)
(0.0325483 -0.011052 0)
(0.0440072 -0.0421872 0)
(0.0558827 -0.0769731 0)
(0.0681812 -0.114742 0)
(0.0793598 -0.151244 0)
(0.0879127 -0.180718 0)
(0.0931841 -0.198714 0)
(0.095275 -0.203815 0)
(0.0945857 -0.197085 0)
(0.0916597 -0.180966 0)
(0.0871737 -0.158518 0)
(0.0815821 -0.133062 0)
(0.0751846 -0.107029 0)
(0.0685875 -0.0822381 0)
(0.0625202 -0.0600414 0)
(0.0575112 -0.0411665 0)
(0.053762 -0.0257039 0)
(0.051181 -0.0131579 0)
(0.0495055 -0.00274681 0)
(0.0483398 0.00623594 0)
(0.0476463 0.0143074 0)
(0.0471905 0.0219262 0)
(0.0469075 0.0294531 0)
(0.0468207 0.0371411 0)
(0.0470135 0.0451381 0)
(0.0478348 0.0535535 0)
(0.0490866 0.0620386 0)
(0.0539909 0.070685 0)
(0.0623106 0.0685226 0)
(0.0562021 0.0364699 0)
(0.287724 0.0691333 0)
(-0.762396 0.307809 0)
(0.779342 0.395598 0)
(0.00093174 0.319425 0)
(0.0934228 0.218859 0)
(0.110658 0.1551 0)
(0.0772243 0.106748 0)
(0.0598439 0.0674772 0)
(0.0582638 0.0357034 0)
(0.0624314 0.00636354 0)
(0.0738529 -0.0234794 0)
(0.0854239 -0.0550972 0)
(0.0976288 -0.0898437 0)
(0.109519 -0.126409 0)
(0.118932 -0.160244 0)
(0.124083 -0.185973 0)
(0.124361 -0.200009 0)
(0.120183 -0.201523 0)
(0.112493 -0.1919 0)
(0.10236 -0.173713 0)
(0.0908243 -0.15001 0)
(0.0787268 -0.123831 0)
(0.0667604 -0.0977138 0)
(0.0556606 -0.0735708 0)
(0.0461611 -0.0526553 0)
(0.0387487 -0.0354161 0)
(0.0335476 -0.021649 0)
(0.0303395 -0.0105742 0)
(0.0286751 -0.00126984 0)
(0.0280882 0.00691362 0)
(0.0282937 0.0144433 0)
(0.0289466 0.0217082 0)
(0.0298972 0.0289732 0)
(0.0310507 0.0364169 0)
(0.0322913 0.0441575 0)
(0.0334684 0.0522974 0)
(0.0335984 0.0607613 0)
(0.0321742 0.0698555 0)
(0.0172318 0.0746661 0)
(0.00399862 0.103219 0)
(0.0163368 0.175344 0)
(-0.648102 0.292457 0)
(0.617254 0.220627 0)
(0.00470133 0.298019 0)
(0.113041 0.241483 0)
(0.148327 0.17747 0)
(0.130904 0.123408 0)
(0.117887 0.0777363 0)
(0.115029 0.038805 0)
(0.117196 0.00332328 0)
(0.123557 -0.0307806 0)
(0.131784 -0.0650761 0)
(0.141481 -0.100611 0)
(0.150388 -0.135556 0)
(0.155559 -0.165495 0)
(0.155055 -0.186053 0)
(0.148554 -0.194904 0)
(0.136947 -0.192081 0)
(0.121701 -0.179352 0)
(0.104312 -0.159312 0)
(0.0861519 -0.13489 0)
(0.0683188 -0.10888 0)
(0.0517575 -0.0837664 0)
(0.0373374 -0.0614118 0)
(0.025818 -0.0429253 0)
(0.0175138 -0.0283754 0)
(0.0122626 -0.0171824 0)
(0.0094518 -0.00818828 0)
(0.00838491 -0.000398469 0)
(0.0086243 0.00672904 0)
(0.00967967 0.0135661 0)
(0.0112724 0.0203841 0)
(0.0132496 0.027351 0)
(0.0154764 0.0346166 0)
(0.0177647 0.0423796 0)
(0.0198299 0.0509974 0)
(0.0208145 0.0611844 0)
(0.0200157 0.0750798 0)
(0.000742858 0.0972945 0)
(-0.00408312 0.15052 0)
(0.0877773 0.185422 0)
(-0.547158 0.163139 0)
(0.570781 0.118273 0)
(-0.0203609 0.258522 0)
(0.113685 0.229817 0)
(0.165045 0.175961 0)
(0.166734 0.126068 0)
(0.164419 0.080988 0)
(0.16542 0.0398797 0)
(0.168344 0.00155459 0)
(0.172293 -0.0354506 0)
(0.177859 -0.0719799 0)
(0.184035 -0.1077 0)
(0.187751 -0.139836 0)
(0.185983 -0.164469 0)
(0.177344 -0.178743 0)
(0.162274 -0.181847 0)
(0.142312 -0.174683 0)
(0.11939 -0.159306 0)
(0.0952572 -0.13818 0)
(0.0715055 -0.114041 0)
(0.0493385 -0.0893787 0)
(0.0299176 -0.0666025 0)
(0.0142212 -0.0474404 0)
(0.00290452 -0.0327008 0)
(-0.00435397 -0.0216677 0)
(-0.0082161 -0.0135468 0)
(-0.00999649 -0.00669779 0)
(-0.0103239 -0.000390081 0)
(-0.00947162 0.00571053 0)
(-0.00786495 0.0118309 0)
(-0.00563818 0.0181258 0)
(-0.00292092 0.0246976 0)
(0.000189623 0.0317295 0)
(0.00357633 0.0394934 0)
(0.00710129 0.0484462 0)
(0.0105292 0.059978 0)
(0.014075 0.077949 0)
(0.00499075 0.109751 0)
(-0.0104434 0.168604 0)
(0.179275 0.196319 0)
(-0.439239 0.129915 0)
(0.628424 0.0536269 0)
(0.00893653 0.197253 0)
(0.11371 0.196865 0)
(0.175058 0.157804 0)
(0.191357 0.117542 0)
(0.198059 0.0771365 0)
(0.203418 0.0371653 0)
(0.208623 -0.00158273 0)
(0.213104 -0.0397077 0)
(0.217391 -0.0765906 0)
(0.219206 -0.110081 0)
(0.215389 -0.136993 0)
(0.204044 -0.154673 0)
(0.185256 -0.162091 0)
(0.160641 -0.159797 0)
(0.132364 -0.149205 0)
(0.102664 -0.132406 0)
(0.0732437 -0.111514 0)
(0.0458711 -0.0890768 0)
(0.0216626 -0.0672452 0)
(0.00219351 -0.0484106 0)
(-0.0116799 -0.0341169 0)
(-0.0199323 -0.0245123 0)
(-0.0246916 -0.0173682 0)
(-0.0271336 -0.011505 0)
(-0.0280863 -0.00615336 0)
(-0.0279086 -0.000959831 0)
(-0.026711 0.00427008 0)
(-0.0247808 0.00968446 0)
(-0.0221679 0.0153987 0)
(-0.0190075 0.0214957 0)
(-0.0154238 0.0281125 0)
(-0.0115037 0.0355019 0)
(-0.00723284 0.0441322 0)
(-0.00282317 0.0558678 0)
(0.000342914 0.0771336 0)
(-0.00327537 0.108761 0)
(-0.0158304 0.14855 0)
(0.204533 0.184541 0)
(-0.386428 0.181955 0)
(0.472739 0.0748607 0)
(-0.13233 0.137482 0)
(0.0941643 0.133119 0)
(0.172656 0.116589 0)
(0.20381 0.0951286 0)
(0.218145 0.0642095 0)
(0.228152 0.0282607 0)
(0.237202 -0.00901838 0)
(0.243537 -0.0453262 0)
(0.245005 -0.0782992 0)
(0.239005 -0.105265 0)
(0.224182 -0.12412 0)
(0.201052 -0.133955 0)
(0.171539 -0.135191 0)
(0.13823 -0.129072 0)
(0.103425 -0.116882 0)
(0.0694281 -0.100491 0)
(0.0374214 -0.0815354 0)
(0.00975748 -0.0625391 0)
(-0.0130802 -0.0452711 0)
(-0.0275123 -0.0335761 0)
(-0.0365112 -0.0254918 0)
(-0.0417532 -0.019585 0)
(-0.0447677 -0.0146963 0)
(-0.0462826 -0.0103141 0)
(-0.046676 -0.00609953 0)
(-0.0461152 -0.00185899 0)
(-0.044608 0.00255239 0)
(-0.0424198 0.00725752 0)
(-0.0395451 0.012389 0)
(-0.0361811 0.0180665 0)
(-0.0325986 0.0244475 0)
(-0.0291599 0.031806 0)
(-0.0262575 0.0408831 0)
(-0.0250149 0.0548246 0)
(-0.0288121 0.078898 0)
(-0.0370578 0.105311 0)
(-0.0311104 0.122488 0)
(0.138079 0.170809 0)
(-0.470716 0.231044 0)
(0.724105 0.134556 0)
(0.0819353 0.115272 0)
(0.14976 0.0990873 0)
(0.222398 0.080233 0)
(0.244099 0.0696359 0)
(0.248939 0.0474321 0)
(0.25523 0.0174288 0)
(0.261286 -0.0147057 0)
(0.260241 -0.0446668 0)
(0.249684 -0.0695459 0)
(0.229384 -0.0876092 0)
(0.200924 -0.0983341 0)
(0.166693 -0.101975 0)
(0.129268 -0.0995109 0)
(0.0911699 -0.0921964 0)
(0.0538695 -0.0807173 0)
(0.0200489 -0.0667208 0)
(-0.010716 -0.0513214 0)
(-0.0326932 -0.0390994 0)
(-0.0474383 -0.0303762 0)
(-0.0564586 -0.0245568 0)
(-0.0620358 -0.020144 0)
(-0.0654834 -0.0164284 0)
(-0.0675448 -0.0130058 0)
(-0.0685177 -0.00973481 0)
(-0.0685274 -0.00648993 0)
(-0.067624 -0.00313049 0)
(-0.0657504 0.000520166 0)
(-0.0632586 0.00457085 0)
(-0.060101 0.00918983 0)
(-0.0565062 0.0146315 0)
(-0.0529307 0.0212153 0)
(-0.0501288 0.0295504 0)
(-0.0488204 0.0410795 0)
(-0.0498082 0.059199 0)
(-0.0581959 0.087406 0)
(-0.0759288 0.11831 0)
(-0.0734002 0.136965 0)
(-0.0573121 0.164265 0)
(-0.544548 0.191183 0)
(0.192264 0.0878765 0)
(0.226034 0.0995217 0)
(0.246772 0.0698321 0)
(0.242814 0.0396045 0)
(0.239895 0.0121204 0)
(0.234816 -0.0127227 0)
(0.220024 -0.0331416 0)
(0.196228 -0.0483411 0)
(0.165771 -0.0582747 0)
(0.131126 -0.0633614 0)
(0.0941259 -0.0638745 0)
(0.0568121 -0.0605584 0)
(0.0211722 -0.0542818 0)
(-0.0133636 -0.0451848 0)
(-0.0399959 -0.0364671 0)
(-0.059915 -0.0292914 0)
(-0.0732513 -0.0245078 0)
(-0.0819116 -0.0211956 0)
(-0.0876154 -0.0186449 0)
(-0.0915991 -0.0162347 0)
(-0.0944053 -0.0138658 0)
(-0.0962494 -0.0115525 0)
(-0.0971973 -0.0092952 0)
(-0.09726 -0.00702072 0)
(-0.0964124 -0.00458632 0)
(-0.0946016 -0.00178859 0)
(-0.0916857 0.00158213 0)
(-0.088091 0.00568772 0)
(-0.0836714 0.0108841 0)
(-0.0788148 0.017746 0)
(-0.0742073 0.0271689 0)
(-0.0701903 0.0407861 0)
(-0.0658732 0.0614589 0)
(-0.0636272 0.0926746 0)
(-0.0700818 0.133425 0)
(-0.0518316 0.169147 0)
(0.000993152 0.157174 0)
(-0.571338 0.0353706 0)
(0.451757 0.209042 0)
(0.207291 0.178386 0)
(0.153391 0.118611 0)
(0.140019 0.0640207 0)
(0.128474 0.0260442 0)
(0.114203 0.00206512 0)
(0.0988127 -0.0126311 0)
(0.0776522 -0.02178 0)
(0.0527832 -0.0274946 0)
(0.0254152 -0.0301752 0)
(-0.00463515 -0.0297592 0)
(-0.0336076 -0.0272843 0)
(-0.0590612 -0.0240331 0)
(-0.079979 -0.021005 0)
(-0.0951781 -0.0191594 0)
(-0.105692 -0.0179142 0)
(-0.112935 -0.0168724 0)
(-0.118409 -0.0154232 0)
(-0.122901 -0.0135395 0)
(-0.126678 -0.0114162 0)
(-0.12975 -0.00930878 0)
(-0.132078 -0.00739388 0)
(-0.133627 -0.00574856 0)
(-0.134351 -0.00436128 0)
(-0.134156 -0.00314657 0)
(-0.132854 -0.00193442 0)
(-0.130145 -0.00043034 0)
(-0.125641 0.00179124 0)
(-0.119534 0.00528473 0)
(-0.111999 0.0108709 0)
(-0.103299 0.0196896 0)
(-0.0934717 0.0332817 0)
(-0.080841 0.0535418 0)
(-0.06347 0.0824208 0)
(-0.0456123 0.121767 0)
(-0.0208494 0.169873 0)
(0.137006 0.164009 0)
(-0.423566 0.0455664 0)
(0.36294 -0.412995 0)
(-0.345255 -0.512234 0)
(-0.218498 -0.0288021 0)
(-0.0923684 0.110622 0)
(-0.0532659 0.0926467 0)
(-0.0310184 0.0548844 0)
(-0.0262731 0.028899 0)
(-0.0313975 0.0122701 0)
(-0.0404759 0.00151882 0)
(-0.0511471 -0.00557168 0)
(-0.0649013 -0.0100082 0)
(-0.0804245 -0.0125572 0)
(-0.0964466 -0.0144053 0)
(-0.111588 -0.0166312 0)
(-0.12453 -0.0193242 0)
(-0.134197 -0.0221655 0)
(-0.140746 -0.0247449 0)
(-0.145538 -0.0265097 0)
(-0.149825 -0.0275268 0)
(-0.154199 -0.027982 0)
(-0.158678 -0.0280402 0)
(-0.163051 -0.0277806 0)
(-0.167068 -0.0272277 0)
(-0.170515 -0.0263756 0)
(-0.173235 -0.0252165 0)
(-0.175109 -0.0237532 0)
(-0.176 -0.0219835 0)
(-0.175671 -0.0198611 0)
(-0.173723 -0.0172426 0)
(-0.169611 -0.0138224 0)
(-0.162737 -0.00906469 0)
(-0.152755 -0.00214778 0)
(-0.139792 0.00800291 0)
(-0.124389 0.0222126 0)
(-0.105177 0.0402666 0)
(-0.078936 0.0616743 0)
(-0.0448653 0.0864068 0)
(-0.00601213 0.119928 0)
(0.176588 0.130914 0)
(-0.398673 0.100331 0)
(0.125 -0.184334 0)
(-0.387018 -0.297095 0)
(-0.342612 -0.0968899 0)
(-0.264427 0.0510279 0)
(-0.210772 0.0833691 0)
(-0.178635 0.0745962 0)
(-0.162313 0.0612138 0)
(-0.156261 0.0513004 0)
(-0.156288 0.0461221 0)
(-0.159546 0.0454377 0)
(-0.164125 0.0483877 0)
(-0.168374 0.0536577 0)
(-0.171558 0.0597869 0)
(-0.173531 0.0645556 0)
(-0.174993 0.065509 0)
(-0.176687 0.0639854 0)
(-0.179214 0.0622696 0)
(-0.18259 0.0619057 0)
(-0.186454 0.0628636 0)
(-0.190425 0.0644435 0)
(-0.194214 0.065941 0)
(-0.197649 0.0668419 0)
(-0.200634 0.0668274 0)
(-0.203117 0.0657627 0)
(-0.205064 0.063644 0)
(-0.206434 0.060488 0)
(-0.207162 0.0562166 0)
(-0.207132 0.0506464 0)
(-0.206148 0.0436434 0)
(-0.20394 0.0353826 0)
(-0.200162 0.0265422 0)
(-0.194363 0.018272 0)
(-0.185842 0.0119385 0)
(-0.172876 0.00873045 0)
(-0.154242 0.00878897 0)
(-0.130114 0.00923388 0)
(-0.094673 0.00777403 0)
(-0.0433722 0.0121768 0)
(0.178407 0.0719034 0)
(-0.422923 0.15682 0)
(1.14654 -0.0109267 0)
(-0.29434 -0.322023 0)
(-0.352441 -0.232908 0)
(-0.351882 -0.148584 0)
(-0.328297 -0.107225 0)
(-0.296604 -0.0985041 0)
(-0.269109 -0.1005 0)
(-0.248886 -0.105935 0)
(-0.234981 -0.113273 0)
(-0.225419 -0.12264 0)
(-0.218534 -0.13459 0)
(-0.213355 -0.149311 0)
(-0.20956 -0.165556 0)
(-0.207336 -0.18012 0)
(-0.207244 -0.189025 0)
(-0.209782 -0.192679 0)
(-0.214372 -0.192638 0)
(-0.219864 -0.19081 0)
(-0.225218 -0.188493 0)
(-0.229848 -0.186214 0)
(-0.233588 -0.18403 0)
(-0.236546 -0.181789 0)
(-0.238981 -0.179268 0)
(-0.241219 -0.176236 0)
(-0.243574 -0.172487 0)
(-0.24633 -0.167859 0)
(-0.249787 -0.16224 0)
(-0.25435 -0.155521 0)
(-0.260554 -0.147489 0)
(-0.268904 -0.137709 0)
(-0.279482 -0.125465 0)
(-0.291488 -0.109878 0)
(-0.303065 -0.0902357 0)
(-0.311764 -0.0664336 0)
(-0.314862 -0.0396044 0)
(-0.308422 -0.0123047 0)
(-0.287765 0.013966 0)
(-0.242761 0.0465065 0)
(-0.212671 0.0979733 0)
(-0.576755 0.165631 0)
)
;

boundaryField
{
    floor
    {
        type            noSlip;
    }
    ceiling
    {
        type            noSlip;
    }
    sWall
    {
        type            noSlip;
    }
    nWall
    {
        type            noSlip;
    }
    sideWalls
    {
        type            empty;
    }
    glass1
    {
        type            noSlip;
    }
    glass2
    {
        type            noSlip;
    }
    sun
    {
        type            noSlip;
    }
    Table_master
    {
        type            noSlip;
    }
    Table_slave
    {
        type            noSlip;
    }
    inlet
    {
        type            fixedValue;
        value           uniform (0.5 0 0);
    }
    outlet
    {
        type            zeroGradient;
    }
}


// ************************************************************************* //
