/*--------------------------------*- C++ -*----------------------------------*\
  =========                 |
  \\      /  F ield         | OpenFOAM: The Open Source CFD Toolbox
   \\    /   O peration     | Website:  https://openfoam.org
    \\  /    A nd           | Version:  6
     \\/     M anipulation  |
\*---------------------------------------------------------------------------*/
FoamFile
{
    version     2.0;
    format      ascii;
    class       surfaceScalarField;
    location    "11800";
    object      phi;
}
// * * * * * * * * * * * * * * * * * * * * * * * * * * * * * * * * * * * * * //

dimensions      [1 0 -1 0 0 0 0];

internalField   nonuniform List<scalar> 
1482
(
-0.00279983
0.00286387
-0.00348417
0.000684334
-0.00414502
0.000660848
-0.0047593
0.000614287
-0.00528092
0.000521614
-0.00569309
0.000412175
-0.00598457
0.000291482
-0.00614227
0.000157698
-0.00614882
6.54505e-06
-0.0059782
-0.000170612
-0.00560045
-0.000377755
-0.00498448
-0.000615968
-0.00406008
-0.000924398
-0.0025809
-0.00147918
-0.00257798
-6.53175e-05
7.01709e-05
0.00077805
-0.000843367
0.00143047
-0.000652422
0.0018299
-0.000399428
0.0020516
-0.000221704
0.00215608
-0.000104478
0.00220338
-4.73021e-05
0.00222606
-2.26778e-05
0.00223566
-9.60235e-06
0.00223645
-7.86587e-07
0.00222934
7.1104e-06
0.00221034
1.90042e-05
0.00216612
4.42166e-05
0.00206351
0.000102614
0.00184716
0.000216344
0.00149025
0.000356909
0.00101959
0.000470664
0.00102603
-0.00204044
0.00507463
-0.00290866
0.00155256
-0.00369463
0.00144682
-0.00434585
0.0012655
-0.00488334
0.0010591
-0.00531237
0.000841209
-0.00563115
0.000610262
-0.00583285
0.000359393
-0.00590675
8.04457e-05
-0.00584498
-0.000232381
-0.00564171
-0.000581022
-0.00528563
-0.000972054
-0.00477554
-0.00143448
-0.00428954
-0.00196519
-0.00470565
-0.00216188
-0.00311865
-0.00158156
-0.00163454
-0.00147842
-0.00161969
0.0013172
-0.00123682
0.0016606
-0.00118676
0.00191157
-0.000903392
0.00210222
-0.000590077
0.00220915
-0.000328635
0.00221804
-0.00011337
0.00222014
-4.94003e-05
0.00222183
-2.43642e-05
0.00222279
-1.05653e-05
0.00222275
-7.47335e-07
0.00222133
8.52864e-06
0.0022171
2.32405e-05
0.00220445
5.68641e-05
0.00214254
0.000164523
0.00189308
0.000465802
0.00146413
0.00078586
0.00090144
0.00103336
0.00194435
-0.00148833
0.00682088
-0.00235934
0.00242356
-0.00312944
0.00221693
-0.00371382
0.00184988
-0.00418467
0.00152995
-0.00455634
0.00121287
-0.0048306
0.000884528
-0.00500422
0.000533008
-0.00507075
0.000146979
-0.00502111
-0.000282028
-0.00484453
-0.000757607
-0.00453358
-0.001283
-0.00411912
-0.00184894
-0.00372188
-0.00236242
-0.00330173
-0.00258203
-0.00237032
-0.00251297
-0.00127597
-0.00257278
-0.00288283
0.00114928
-0.00237164
0.00165219
-0.00168968
0.00195
-0.0012012
0.00214208
-0.00078216
0.00217087
-0.000357427
0.00205766
0.00200841
0.0019842
0.00197379
0.0019732
0.00198188
0.00200528
0.00206229
0.00222697
0.00186863
0.000824143
0.00142124
0.00123325
0.000802572
0.00165202
0.00277296
-0.00110615
0.00825824
-0.00192819
0.00324561
-0.00257036
0.0028591
-0.00303084
0.00231036
-0.00339852
0.00189763
-0.00368746
0.00150181
-0.00390065
0.00109772
-0.00403626
0.000668618
-0.00408676
0.000197472
-0.00403893
-0.000329859
-0.00388048
-0.00091605
-0.00360736
-0.00155613
-0.0032422
-0.0022141
-0.00282089
-0.00278374
-0.00228212
-0.0031208
-0.00156301
-0.00323207
-0.000875315
-0.00326048
-0.000696971
-0.00306117
0.00143966
-0.00212118
0.00137352
-0.0023055
0.00168974
-0.00200591
0.00200251
-0.00151396
0.00226886
-0.00104851
0.00254544
-0.000634014
0.0028589
-0.000313607
0.00302587
-0.000167122
0.00309053
-6.48219e-05
0.00307341
1.69682e-05
0.0029833
8.9958e-05
0.00282125
0.000161901
0.00257949
0.000241598
0.00223517
0.000344173
0.00173106
0.000503951
0.00159512
0.000960083
0.0012683
0.00156008
0.000742842
0.00217748
0.00355011
-0.000803859
0.00945529
-0.00158014
0.00402189
-0.00204896
0.00332791
-0.00236481
0.00262621
-0.00260929
0.00214212
-0.00279493
0.00168744
-0.00292672
0.00122952
-0.00300541
0.000747309
-0.00302445
0.000216509
-0.00296722
-0.000387093
-0.00282049
-0.00106278
-0.00257739
-0.00179922
-0.00224457
-0.00254692
-0.00182916
-0.00319915
-0.00132479
-0.00362516
-0.000749038
-0.00380782
-0.000218349
-0.00379116
0.000258897
-0.00353842
0.00112048
-0.00298277
0.00148714
-0.00267217
0.00174671
-0.00226547
0.00199954
-0.00176679
0.00222963
-0.00127861
0.00244404
-0.000848421
0.00264506
-0.000514625
0.00275507
-0.000277131
0.00279128
-0.000101039
0.00276544
4.281e-05
0.002684
0.000171402
0.00254951
0.000296387
0.00236088
0.000430236
0.00211579
0.000589257
0.00182235
0.000797389
0.00161754
0.0011649
0.0014771
0.00170052
0.00129909
0.00235548
0.00228473
0.00256447
0.00132165
0.000998015
0.00187902
-0.000528558
0.00199817
-0.000575927
0.0104776
-0.00132497
0.00477093
-0.00158479
0.00358773
-0.00175087
0.00279229
-0.00186499
0.00225624
-0.00193659
0.00175903
-0.00197212
0.00126505
-0.0019759
0.000751083
-0.00194473
0.000185336
-0.00185692
-0.000474895
-0.00170277
-0.00121693
-0.00147246
-0.00202954
-0.00116893
-0.00285044
-0.000798001
-0.00357008
-0.000379392
-0.00404376
6.0171e-05
-0.00424738
0.000465137
-0.00419613
0.000839642
-0.00391292
0.00129118
-0.0034343
0.00159069
-0.00297168
0.00179467
-0.00246945
0.00196664
-0.00193876
0.00211867
-0.00143064
0.00225341
-0.000983159
0.00235835
-0.000619564
0.00241654
-0.000335322
0.00242765
-0.00011215
0.0023969
7.35599e-05
0.00232913
0.000239166
0.00222824
0.000397277
0.00209839
0.000560093
0.00194673
0.000740912
0.00178784
0.000956286
0.00169781
0.00125493
0.00175542
0.00164291
0.00196616
0.00214473
0.00220629
0.00232435
0.00171536
0.00148895
0.00079854
0.00038826
0.00289441
-0.000543459
0.0115133
-0.00124379
0.00547126
-0.00119237
0.00353631
-0.00120095
0.00280088
-0.00119348
0.00224877
-0.00116016
0.00172571
-0.00110314
0.00120804
-0.00102814
0.00067609
-0.000929685
8.68782e-05
-0.000780775
-0.000623806
-0.000591822
-0.00140588
-0.000352486
-0.00226887
-6.99057e-05
-0.00313302
0.000233601
-0.00387358
0.000542488
-0.00435265
0.000836937
-0.00454183
0.00109962
-0.00445881
0.00133318
-0.00414647
0.00156554
-0.00366666
0.00172597
-0.0031321
0.00182663
-0.00257011
0.00189733
-0.00200946
0.00195367
-0.00148699
0.00200079
-0.00103028
0.00203335
-0.000652122
0.00204559
-0.000347565
0.00203408
-0.000100637
0.00199956
0.000108083
0.00194515
0.000293576
0.00187471
0.000467713
0.00179358
0.000641228
0.00171046
0.000824034
0.00164059
0.00102615
0.00162731
0.00126821
0.00171498
0.00155524
0.00192412
0.00193559
0.00217203
0.00207644
0.00217929
0.00148168
0.00164045
0.000927106
0.00463806
-0.000483609
0.0125324
-0.00105172
0.00603937
-0.000697878
0.00318247
-0.000637322
0.00274032
-0.000569169
0.00218062
-0.000464653
0.00162119
-0.000335738
0.00107912
-0.000184588
0.00052494
4.73002e-06
-0.000102439
0.000222905
-0.00084198
0.000462341
-0.00164532
0.000719293
-0.00252583
0.000975096
-0.00338882
0.00120256
-0.00410105
0.00140087
-0.00455096
0.00156145
-0.00470241
0.00167912
-0.00457647
0.00175866
-0.004226
0.00181244
-0.00372044
0.00182345
-0.00314311
0.00179975
-0.00254641
0.00176016
-0.00196987
0.00171949
-0.00144631
0.00168507
-0.000995864
0.00165678
-0.000623835
0.00163061
-0.000321394
0.0016017
-7.17236e-05
0.00156784
0.000141942
0.00152934
0.000332075
0.00148766
0.000509392
0.00144615
0.000682738
0.00141135
0.000858839
0.00139469
0.00104281
0.00142024
0.00124266
0.0015162
0.00145928
0.00172977
0.00172202
0.00200989
0.00179632
0.00211439
0.00137719
0.00165203
0.00138947
0.00665791
0.00297639
0.0101432
0.00202094
0.00699482
0.00086811
0.0043353
0.000369725
0.00323871
0.000212712
0.00233763
0.000268991
0.00156491
0.000422843
0.000925269
0.000636748
0.000311035
0.000896049
-0.00036174
0.00116081
-0.00110674
0.00143896
-0.00192347
0.00170526
-0.00279213
0.00193035
-0.00361391
0.00209016
-0.00426087
0.00217907
-0.00463986
0.00219993
-0.00472327
0.00216173
-0.00453827
0.00207819
-0.00414246
0.00196448
-0.00360673
0.00182613
-0.00300476
0.00167516
-0.00239543
0.00152832
-0.00182303
0.00140009
-0.00131808
0.00129847
-0.000894246
0.00122447
-0.000549832
0.0011731
-0.000270029
0.00113709
-3.57108e-05
0.00111121
0.000167818
0.00109209
0.000351192
0.00107766
0.000523828
0.00106811
0.000692287
0.00106653
0.000860415
0.00107968
0.00102966
0.00112161
0.00120072
0.00121184
0.00136906
0.00139214
0.00154172
0.00163885
0.00154961
0.00174159
0.00127443
0.000403192
0.00272789
0.00744702
0.00403096
0.00625244
0.00366691
0.00735887
0.00254149
0.00546072
0.0018883
0.00389189
0.00153172
0.00269421
0.00138683
0.0017098
0.00142059
0.000891505
0.00159497
0.000136656
0.00184694
-0.000613705
0.00212385
-0.00138365
0.00240308
-0.0022027
0.0026472
-0.00303626
0.00281465
-0.00378137
0.00287864
-0.00432486
0.00283614
-0.00459736
0.00270117
-0.00458831
0.00249619
-0.00433329
0.00224558
-0.00389185
0.00197212
-0.00333326
0.00169293
-0.00272557
0.00142516
-0.00212766
0.00118662
-0.00158449
0.000991842
-0.0011233
0.000846718
-0.000749122
0.000749693
-0.000452808
0.00069164
-0.000211976
0.000661609
-5.68004e-06
0.000650931
0.000178495
0.000652833
0.00034929
0.00066255
0.000514111
0.000677577
0.00067726
0.000697076
0.000840916
0.000721563
0.00100517
0.000753901
0.00116839
0.000794854
0.00132811
0.000821932
0.00151464
0.000518737
0.00185277
-0.000683201
0.00247611
-0.00191342
0.00395801
0.00563825
0.00240958
0.00400738
0.00330455
0.0064639
0.00324851
0.00551675
0.00303769
0.00410271
0.00284661
0.00288529
0.00272332
0.0018331
0.00270942
0.000905399
0.00279836
4.77101e-05
0.00296023
-0.000775569
0.00317061
-0.00159403
0.00338748
-0.00241957
0.00355074
-0.00319953
0.00360579
-0.00383643
0.00352621
-0.00424529
0.00331762
-0.00438878
0.00300634
-0.00427704
0.00262695
-0.0039539
0.00221297
-0.00347787
0.00179411
-0.0029144
0.00139423
-0.00232568
0.00103495
-0.00176837
0.00073593
-0.00128547
0.000510674
-0.000898045
0.000356911
-0.000595359
0.000265191
-0.000361088
0.000218749
-0.000165534
0.000203782
9.28719e-06
0.000210105
0.000172172
0.000230141
0.000329255
0.000258909
0.000485342
0.000292397
0.000643772
0.000326097
0.000807215
0.000353831
0.000977436
0.000368119
0.0011541
0.000355269
0.00134096
0.000237352
0.00163256
-0.000225811
0.00231575
-0.000881749
0.00313172
-0.00109049
0.00416651
0.00466451
0.00145709
0.00274454
0.00274868
0.00517231
0.00343286
0.00483257
0.00371881
0.00381675
0.00381717
0.00278693
0.00384522
0.00180504
0.00388142
0.000869193
0.00395079
-2.16603e-05
0.00406098
-0.000885765
0.00420094
-0.00173399
0.004319
-0.00253763
0.00434452
-0.00322505
0.00422617
-0.00371809
0.00395197
-0.0039711
0.00354452
-0.00398135
0.00304381
-0.00377633
0.00249395
-0.00340405
0.00193393
-0.00291785
0.00139813
-0.0023786
0.000914165
-0.00184172
0.000509113
-0.00136332
0.000201623
-0.000977982
-4.12911e-06
-0.000692292
-0.000125969
-0.000473518
-0.00018956
-0.000297496
-0.000216186
-0.000138907
-0.0002175
1.06006e-05
-0.000200248
0.00015492
-0.000168836
0.000297842
-0.00012674
0.000443246
-7.83746e-05
0.000595406
-3.09075e-05
0.000759747
3.23451e-06
0.000943294
2.24419e-06
0.00115509
-7.63433e-05
0.00141956
-0.00032557
0.00188184
-0.000877092
0.00286727
-0.00159305
0.00384749
-0.00160428
0.00417753
0.00319097
0.00217364
0.000796867
0.00294494
0.00440101
0.00359484
0.00418267
0.00416468
0.00324691
0.00449218
0.00245943
0.00466641
0.00163081
0.00478338
0.00075222
0.0048886
-0.000126885
0.00499552
-0.000992675
0.00507363
-0.00181209
0.0050571
-0.00252111
0.00488594
-0.00305391
0.00453791
-0.00337007
0.00403201
-0.00346521
0.00341329
-0.00336264
0.00273274
-0.00309579
0.00203939
-0.0027107
0.00137179
-0.00225025
0.00076962
-0.00177642
0.000261297
-0.00133339
-0.00011575
-0.000986269
-0.000358563
-0.000735169
-0.000497297
-0.000553556
-0.000570244
-0.000400568
-0.000606732
-0.000261007
-0.00061933
-0.000126309
-0.000613558
4.82838e-06
-0.00059146
0.000132822
-0.000553803
0.000260185
-0.00050203
0.000391472
-0.000439786
0.000533162
-0.000374702
0.000694663
-0.00032119
0.00088978
-0.000307081
0.00114098
-0.000383157
0.00149566
-0.000601071
0.00209995
-0.000993168
0.00325976
-0.00188081
0.0047354
-0.00225825
0.00455518
0.00107767
-0.00157775
0.00261978
0.00111935
0.00170391
0.00335132
0.0019507
0.0043537
0.00224453
0.00485749
0.00195564
0.00517222
0.00131609
0.00540085
0.000523587
0.00557972
-0.000305741
0.00567974
-0.00109268
0.00563836
-0.0017707
0.00540461
-0.00228736
0.00496689
-0.00261618
0.00435308
-0.00275628
0.00361602
-0.00272817
0.00281592
-0.00256256
0.00200308
-0.00228296
0.00122679
-0.00193441
0.000519003
-0.00154247
-6.8496e-05
-0.00118893
-0.000492221
-0.000909671
-0.000751297
-0.000727192
-0.000895323
-0.000591137
-0.000973414
-0.000475458
-0.00101275
-0.000361226
-0.00103019
-0.000243566
-0.00103291
-0.000123583
-0.00102272
-5.36444e-06
-0.000998187
0.000108284
-0.000956909
0.000218905
-0.000897529
0.00033209
-0.000821199
0.000456831
-0.000732871
0.000606334
-0.000643135
0.000800037
-0.000570032
0.00106787
-0.000534685
0.00146032
-0.000515038
0.00208045
-0.000353133
0.00309831
-0.000108978
0.00449163
0.000112629
0.00433397
0.00134447
0.00288155
0.00457027
0.0048708
0.00165016
0.00535724
0.0017581
0.00559364
0.00171924
0.00582524
0.0010845
0.0060133
0.000335532
0.00608056
-0.000372963
0.00595524
-0.000967321
0.00560375
-0.00141918
0.00503852
-0.00172212
0.00430629
-0.00188396
0.00346502
-0.00191501
0.00257312
-0.00183628
0.00168586
-0.00167531
0.000836731
-0.00143384
7.01904e-05
-0.00116787
-0.000549781
-0.000922505
-0.000979147
-0.000759566
-0.00123798
-0.000650839
-0.00138654
-0.000578614
-0.00146595
-0.000511711
-0.00150631
-0.000435083
-0.00152364
-0.000343877
-0.00152697
-0.000240238
-0.00152083
-0.000129724
-0.00150644
-1.97648e-05
-0.00148142
8.32555e-05
-0.00144107
0.000178552
-0.0013812
0.000272218
-0.00129972
0.000375347
-0.00119692
0.000503534
-0.0010747
0.000677798
-0.000932386
0.000925491
-0.000752169
0.00127999
-0.00046035
0.00178857
9.03758e-05
0.00254774
0.000873735
0.00370858
0.00131836
0.00388972
0.00282457
0.00793008
0.00536828
0.00580965
0.00387854
0.00556182
0.0019671
0.00563444
0.00101192
0.00560044
0.000369599
0.00535845
-0.000130922
0.00489682
-0.000505654
0.00425555
-0.000777896
0.00348781
-0.000954379
0.00264622
-0.00104238
0.00177139
-0.0010402
0.000899909
-0.000964817
6.75471e-05
-0.000842966
-0.000662811
-0.000703491
-0.00122902
-0.000601678
-0.00161718
-0.00053436
-0.00186626
-0.000510486
-0.0020131
-0.000503985
-0.00209851
-0.000493163
-0.0021467
-0.000463476
-0.00217123
-0.000410514
-0.00217964
-0.00033544
-0.002177
-0.000242877
-0.00216702
-0.000139733
-0.00215209
-3.4727e-05
-0.00213191
6.30443e-05
-0.00210251
0.000149133
-0.00205871
0.000228418
-0.001995
0.000311653
-0.00190392
0.000412479
-0.00177313
0.000546996
-0.00158183
0.000734086
-0.00129441
0.000992342
-0.000836564
0.00133042
-5.8995e-05
0.00176991
0.00110655
0.00254306
0.00165102
0.00334533
0.00464639
0.00409063
0.00152424
0.00449241
0.00347678
0.00372553
0.00273402
0.00322845
0.00150906
0.00288879
0.000709318
0.00252595
0.000231966
0.00208053
-6.02192e-05
0.00154123
-0.000238599
0.000926122
-0.00033929
0.000251765
-0.00036805
-0.000444904
-0.000343545
-0.00110455
-0.000305196
-0.00167284
-0.000274709
-0.0021132
-0.000263163
-0.00242896
-0.000285942
-0.00263423
-0.00032909
-0.00276622
-0.000378466
-0.00285353
-0.000416619
-0.00291378
-0.000432824
-0.00295515
-0.000422017
-0.00298181
-0.000383793
-0.00299635
-0.000320871
-0.00300077
-0.000238475
-0.0029968
-0.000143786
-0.00298646
-4.51642e-05
-0.00297289
4.93718e-05
-0.00295625
0.000132443
-0.00293213
0.000204303
-0.00289384
0.000273443
-0.00283065
0.000349403
-0.00272467
0.000441112
-0.00254696
0.000556373
-0.00225248
0.000697681
-0.00177239
0.00084996
-0.000979575
0.000976581
0.000362269
0.00120074
0.000931821
0.00277541
0.00575994
-0.00263324
-0.00680801
-0.00743409
-0.00747987
-0.00375795
-0.0021519
-0.00168365
0.00140251
-0.000769338
0.00181976
-0.000567192
0.00130697
-0.000642514
0.000784682
-0.000822714
0.00041219
-0.001058
0.000175085
-0.00134367
4.70652e-05
-0.00168383
8.52905e-07
-0.00205729
5.37736e-06
-0.00243125
3.03855e-05
-0.0027797
4.32111e-05
-0.0030777
2.32392e-05
-0.0033043
-3.66012e-05
-0.00345588
-0.000134371
-0.0035558
-0.000229126
-0.00362962
-0.000304561
-0.00369089
-0.00035523
-0.00374461
-0.00037897
-0.00379175
-0.000374752
-0.00383225
-0.000343222
-0.00386609
-0.000287024
-0.00389357
-0.000211084
-0.00391467
-0.000122837
-0.00392738
-3.26539e-05
-0.00392528
4.70785e-05
-0.00390485
0.000111881
-0.00386807
0.000167486
-0.00381528
0.000220729
-0.00374417
0.000278471
-0.00365055
0.000347718
-0.0035278
0.000433858
-0.00336177
0.000531804
-0.00314057
0.000628794
-0.0029847
0.000820568
-0.00331099
0.00152671
-0.00312284
0.00258681
0.00283395
-0.00737966
0.00102542
-0.00814768
-0.00671181
-0.00719382
-0.00310571
-0.00566946
-0.000121793
-0.00457682
0.000727185
-0.00398633
0.000716543
-0.00372839
0.000526786
-0.00366226
0.000346085
-0.00370375
0.000216576
-0.00379689
0.000140179
-0.00390081
0.000104733
-0.00398947
9.39777e-05
-0.00404944
9.02719e-05
-0.00408464
7.8346e-05
-0.0041099
4.84436e-05
-0.00414054
-5.97781e-06
-0.00418515
-8.97238e-05
-0.00424528
-0.000168903
-0.00432075
-0.000228953
-0.0044091
-0.000266703
-0.00450569
-0.00028222
-0.00460385
-0.000276472
-0.00469561
-0.000251413
-0.00477295
-0.000209745
-0.00482932
-0.000154867
-0.00486092
-9.14836e-05
-0.00486745
-2.64039e-05
-0.00484797
2.73199e-05
-0.00479758
6.12759e-05
-0.00471727
8.70701e-05
-0.00460763
0.000111084
-0.00446631
0.000137258
-0.00428683
0.000168441
-0.00405923
0.000206513
-0.00377185
0.000244702
-0.00339047
0.000247653
-0.00272076
0.000151039
-0.00122155
2.75635e-05
0.000170032
0.0011951
0.00320957
0.00156738
-0.00507959
-0.00812204
-0.0081844
-0.00740294
-0.00663997
-0.00607349
-0.00569251
-0.00544408
-0.0052737
-0.00513935
-0.00501554
-0.00489472
-0.00478492
-0.00470425
-0.00467754
-0.00473452
-0.00487088
-0.00506777
-0.00530312
-0.00555484
-0.00580171
-0.00602433
-0.00620592
-0.00633305
-0.00639704
-0.00639605
-0.00634137
-0.00625281
-0.00613865
-0.00600086
-0.00583749
-0.00564377
-0.005413
-0.00514523
-0.00487579
-0.0047043
-0.00465771
-0.00344522
)
;

boundaryField
{
    floor
    {
        type            calculated;
        value           nonuniform List<scalar> 
36
(
0
0
0
0
0
0
0
0
0
0
0
0
0
0
0
0
0
0
0
-6.43871e-06
-1.68839e-05
-2.60324e-05
-3.43068e-05
-3.49343e-05
-2.88175e-05
-2.87059e-05
-2.9199e-06
-5.44114e-06
-5.68739e-06
-5.90763e-06
-4.85379e-06
-8.93823e-06
-1.02121e-05
-1.28329e-05
-1.44575e-05
-1.54453e-05
)
;
    }
    ceiling
    {
        type            calculated;
        value           nonuniform List<scalar> 
43
(
-5.79351e-05
-6.47747e-05
-6.31754e-05
-5.93393e-05
-5.41867e-05
-4.63507e-05
-3.96467e-05
-3.48829e-05
-3.18764e-05
-3.02621e-05
-2.97019e-05
-2.99199e-05
-3.06363e-05
-3.15209e-05
-3.22586e-05
-3.26712e-05
-3.26918e-05
-3.2429e-05
-3.19157e-05
-3.12003e-05
-3.03699e-05
-2.95399e-05
-2.8819e-05
-2.82762e-05
-2.79263e-05
-2.77384e-05
-2.76523e-05
-2.759e-05
-2.74665e-05
-2.72014e-05
-2.67403e-05
-2.60602e-05
-2.51645e-05
-2.40776e-05
-2.28417e-05
-2.15134e-05
-2.01482e-05
-1.87354e-05
-1.71764e-05
-1.57581e-05
1.93375e-05
1.51881e-05
-0.00024658
)
;
    }
    sWall
    {
        type            calculated;
        value           nonuniform List<scalar> 9(-0.000140236 -0.000164521 -0.000194252 -0.00022597 -0.000245165 -0.000281098 -0.000423769 -0.000453737 -0.000484015);
    }
    nWall
    {
        type            calculated;
        value           nonuniform List<scalar> 
14
(
-9.04379e-05
-9.76944e-05
-0.00010319
-0.000104592
-0.00011674
-0.00013078
-0.000144861
-0.000153633
-0.000161498
-0.000170774
-0.000182018
-0.000197227
-0.000205586
-0.00021972
)
;
    }
    sideWalls
    {
        type            empty;
        value           nonuniform 0();
    }
    glass1
    {
        type            calculated;
        value           nonuniform List<scalar> 9(-6.40346e-05 -0.000170322 -0.000257924 -0.000331207 -0.000393192 -0.000446397 -0.00049221 -0.000535492 -0.000587173);
    }
    glass2
    {
        type            calculated;
        value           nonuniform List<scalar> 2(-0.000367795 -0.000385828);
    }
    sun
    {
        type            calculated;
        value           uniform 0;
    }
    Table_master
    {
        type            calculated;
        value           nonuniform List<scalar> 9(-1.53994e-07 -1.54111e-07 -1.54143e-07 -1.54163e-07 -1.54176e-07 -1.54181e-07 -1.54179e-07 -1.54165e-07 -1.54112e-07);
    }
    Table_slave
    {
        type            calculated;
        value           nonuniform List<scalar> 9(1.53662e-07 1.53719e-07 1.53718e-07 1.53735e-07 1.53756e-07 1.538e-07 1.53867e-07 1.5396e-07 1.54088e-07);
    }
    inlet
    {
        type            calculated;
        value           uniform -0.0116482;
    }
    outlet
    {
        type            calculated;
        value           nonuniform List<scalar> 2(0.00986503 0.0122808);
    }
}


// ************************************************************************* //
