/*--------------------------------*- C++ -*----------------------------------*\
  =========                 |
  \\      /  F ield         | OpenFOAM: The Open Source CFD Toolbox
   \\    /   O peration     | Website:  https://openfoam.org
    \\  /    A nd           | Version:  6
     \\/     M anipulation  |
\*---------------------------------------------------------------------------*/
FoamFile
{
    version     2.0;
    format      ascii;
    class       volScalarField;
    location    "35199.9999981840592";
    object      k;
}
// * * * * * * * * * * * * * * * * * * * * * * * * * * * * * * * * * * * * * //

dimensions      [0 2 -2 0 0 0 0];

internalField   nonuniform List<scalar> 
778
(
0.00158588
0.00180108
0.001788
0.00194661
0.00209792
0.00224026
0.002377
0.00251266
0.00265304
0.0028064
0.00295663
0.00310289
0.00325037
0.00341273
0.00358633
0.000793072
0.00162462
0.00165106
0.00157213
0.00144445
0.00128235
0.00113038
0.000998784
0.00088708
0.000792551
0.000712823
0.000644822
0.000585852
0.000533366
0.000484651
0.000436208
0.000397932
0.000326073
0.00340687
0.00643318
0.00268757
0.00274624
0.00288797
0.0030546
0.00323501
0.00343084
0.00364412
0.00387448
0.00412655
0.00438022
0.0045958
0.00470077
0.00459481
0.00429845
0.00390739
0.00358004
0.00253551
0.00281137
0.00295327
0.0028955
0.00266273
0.00226408
0.00190512
0.00160909
0.0013695
0.00117575
0.00101697
0.000885181
0.00077393
0.000681122
0.000615103
0.000574557
0.000864199
0.000523938
0.00549054
0.0127804
0.00347797
0.00321232
0.00329769
0.00345557
0.00363699
0.00384122
0.00407159
0.00432824
0.00463629
0.0050115
0.00545134
0.00596035
0.00653073
0.00685883
0.00627672
0.00538529
0.00403732
0.00416863
0.00417135
0.00397353
0.00357551
0.00266332
0.00201372
0.00157472
0.00126887
0.00104905
0.000886829
0.000764566
0.000671783
0.000603596
0.000551419
0.000548613
0.00116558
0.000677869
0.00797309
0.0217567
0.00449097
0.00339094
0.00334176
0.00343835
0.00354975
0.00366926
0.00380954
0.0039919
0.00425975
0.00464904
0.00517155
0.00582513
0.0065541
0.00713343
0.00722705
0.00724186
0.00534318
0.00555064
0.00537618
0.00512518
0.00478635
0.00434734
0.00345483
0.00285779
0.00243467
0.0021088
0.00184957
0.00163126
0.00143796
0.00125802
0.00107714
0.000800131
0.000659395
0.00142201
0.000821309
0.0108756
0.0336316
0.00621208
0.00342512
0.00315848
0.00316719
0.00318983
0.00321015
0.00325246
0.0033615
0.00359519
0.00398962
0.00455368
0.00527658
0.0060864
0.00681665
0.00728262
0.0076439
0.00751784
0.00665442
0.00607348
0.00557905
0.0050989
0.00462897
0.00412241
0.00366477
0.00327415
0.00293653
0.00263041
0.00234707
0.00207859
0.00181784
0.00155424
0.00122108
0.000929385
0.00118989
0.00121558
0.0011681
0.00205377
0.00186696
0.0141736
0.0475945
0.00928211
0.00348998
0.00290866
0.00282288
0.00276456
0.00269973
0.00266444
0.0027348
0.00298109
0.00341448
0.00402344
0.00479702
0.00565243
0.00645941
0.0070674
0.00740647
0.00732346
0.00678986
0.00621511
0.00563718
0.00507422
0.00455576
0.00409094
0.00369525
0.0033627
0.00307327
0.00280639
0.00255114
0.00229853
0.00204163
0.00177315
0.00147066
0.00117739
0.0011117
0.00111011
0.001726
0.00514918
0.00266361
0.0179902
0.0606018
0.0143563
0.00381909
0.00271519
0.00252943
0.00241186
0.00229414
0.00222119
0.00231173
0.00263051
0.00313937
0.00380153
0.00462961
0.00552621
0.00636405
0.00699847
0.00732643
0.00725356
0.00681765
0.00621517
0.00555465
0.00491173
0.00434259
0.00387232
0.00350031
0.00320668
0.00296178
0.00274142
0.00252914
0.00231335
0.00208676
0.0018446
0.00158242
0.00132683
0.00115848
0.00109071
0.00157155
0.00635683
0.00371591
0.0216389
0.0704787
0.021431
0.00510042
0.00274238
0.00237166
0.00221006
0.00208192
0.00202637
0.00221967
0.00265009
0.00323098
0.00393639
0.00477243
0.00569575
0.00656978
0.00722029
0.00751152
0.00738282
0.00689537
0.0061976
0.00542644
0.00469111
0.00406419
0.00357429
0.00321247
0.0029478
0.00274124
0.00256463
0.0023963
0.00222234
0.00203522
0.00183163
0.00161272
0.00139727
0.00122716
0.00115083
0.00214805
0.0146606
0.00645565
0.0228318
0.0694971
0.032528
0.011049
0.00406373
0.00258638
0.00223513
0.00210286
0.00218994
0.00251278
0.003001
0.00360213
0.00433132
0.00520968
0.00618065
0.00708259
0.00771276
0.00791977
0.00766234
0.00702391
0.00616394
0.0052474
0.0044067
0.00372192
0.00321642
0.00286888
0.00263578
0.00246943
0.00233688
0.00221206
0.00207995
0.00193336
0.00177013
0.0015931
0.00141652
0.00127905
0.00131501
0.00410137
0.029846
0.00814245
0.0219177
0.0516423
0.0336412
0.0174255
0.00857984
0.00475445
0.00325898
0.00272928
0.00285286
0.00321127
0.0036729
0.00424604
0.00499313
0.00593389
0.00696813
0.00788134
0.00843648
0.00847988
0.00800042
0.00712099
0.00603872
0.00495191
0.0040101
0.00329001
0.00279761
0.00248862
0.00230241
0.00218464
0.00209694
0.00201234
0.00191727
0.00180613
0.00167811
0.00153708
0.00139545
0.00129893
0.00159988
0.00816201
0.0271255
0.00860488
0.0192342
0.0394442
0.0302384
0.0195614
0.0121762
0.00793346
0.00571339
0.00466688
0.00436082
0.00439906
0.00465174
0.00514312
0.00593026
0.00697357
0.00808016
0.00895701
0.00933809
0.00909274
0.0082694
0.00705612
0.00570703
0.00445636
0.0034599
0.00276791
0.002348
0.00211481
0.00199024
0.00192351
0.00187413
0.00182066
0.00175313
0.00166799
0.00156614
0.00145388
0.00134817
0.00133586
0.00205773
0.00839385
0.0259145
0.00872373
0.0159512
0.0315915
0.0266525
0.0195371
0.0139727
0.0102805
0.00802375
0.00674756
0.00604636
0.00572895
0.0057802
0.00626918
0.00720055
0.00840619
0.00955592
0.0102762
0.010308
0.00959184
0.00828195
0.00665841
0.00504874
0.00371595
0.00279108
0.00223309
0.00195377
0.00181411
0.00174554
0.0017123
0.00168528
0.00164994
0.00159903
0.00153002
0.00144523
0.00135689
0.00130261
0.00154254
0.00326476
0.00925121
0.0231049
0.00844522
0.0132673
0.0256737
0.0233523
0.0186895
0.0145822
0.011586
0.00954095
0.0082073
0.00729806
0.00683799
0.00695377
0.0077103
0.00896376
0.0103484
0.0113941
0.0117023
0.0111092
0.0096957
0.00778224
0.0057527
0.00402302
0.00283203
0.00219265
0.00186074
0.0016967
0.00161557
0.00157568
0.00155491
0.00153449
0.00150465
0.00146004
0.00139922
0.00132805
0.00127301
0.00135841
0.00217068
0.0048113
0.010251
0.0184914
0.00785509
0.0133466
0.022421
0.0220589
0.0177603
0.0143921
0.0118931
0.0100826
0.00876813
0.00791744
0.00777178
0.00846492
0.0098519
0.0115035
0.0128527
0.0133959
0.0128502
0.0112894
0.00898687
0.00651549
0.00430471
0.00296019
0.00222324
0.00185351
0.00166562
0.00156567
0.0015091
0.00147509
0.00145165
0.0014266
0.00139343
0.00134889
0.00129387
0.00123955
0.00123225
0.00146057
0.00254923
0.00542038
0.0103736
0.0162004
0.00738193
0.0108737
0.0117646
0.0129245
0.012554
0.0113764
0.0100771
0.00894968
0.00820603
0.00830343
0.00941013
0.011275
0.0133337
0.0149249
0.0155175
0.0148478
0.0129034
0.010174
0.00702755
0.00464328
0.00314053
0.00235261
0.0019635
0.00176243
0.00164284
0.0015612
0.0015007
0.00145426
0.00141725
0.00138129
0.00134295
0.00130321
0.00126823
0.00125482
0.0013126
0.00159958
0.00257097
0.00505009
0.00955365
0.0167821
0.00794847
0.0035446
0.00482685
0.00600316
0.00661263
0.00729355
0.00880413
0.0113115
0.0141257
0.016527
0.0179578
0.0180633
0.0167653
0.0142638
0.0106498
0.00735209
0.00485208
0.00334696
0.00257795
0.00221453
0.00202561
0.00190331
0.00180592
0.00171997
0.0016433
0.00157855
0.00153005
0.00149733
0.00148375
0.00149741
0.00154623
0.0016391
0.00180511
0.00214529
0.00293786
0.00486124
0.00991634
0.0150603
0.00883689
0.00444578
0.00630062
0.00812531
0.0110444
0.0147188
0.0181692
0.0203894
0.021436
0.0213542
0.0201395
0.0176161
0.0141625
0.0105176
0.00723374
0.00491228
0.00357111
0.00292176
0.00262269
0.00246725
0.00236587
0.00228549
0.00221373
0.00214712
0.00208827
0.00204493
0.00202879
0.00205019
0.00212131
0.00225122
0.00244241
0.00269603
0.00303076
0.00351933
0.00435597
0.00607554
0.0114826
0.0148558
0.00919799
0.0150716
0.0244248
0.0180951
0.0144133
0.0170454
0.0207441
0.0228696
0.0235588
0.023087
0.0217183
0.0196989
0.0170635
0.0139089
0.0106126
0.00767706
0.00551269
0.00426276
0.00365917
0.0033773
0.00323316
0.00315458
0.00311242
0.00308899
0.00306999
0.00304679
0.00302133
0.0030079
0.00302781
0.00309965
0.0032383
0.0034527
0.00374903
0.00413705
0.00464696
0.00536054
0.00646704
0.00842913
0.0133164
0.0176026
0.00896799
0.0138084
0.0170473
0.0178858
0.0207942
0.0217405
0.022163
0.0211662
0.0193508
0.0172281
0.0150504
0.0129208
0.0108897
0.00901223
0.00738967
0.00612439
0.00521194
0.00460756
0.00423131
0.00401063
0.00390689
0.00389812
0.00396402
0.00408011
0.00421851
0.00435289
0.004466
0.00455686
0.00464423
0.00476432
0.00494176
0.00519761
0.00555392
0.00604046
0.00671083
0.00765901
0.00900565
0.0109108
0.0145728
0.0207107
0.00871916
0.0121405
0.00891105
0.00882527
0.00934812
0.00979377
0.00922481
0.00816452
0.00701299
0.00595407
0.00503491
0.00424735
0.00357943
0.00303628
0.00263454
0.00238256
0.00226995
0.00223666
0.00225261
0.00230412
0.0023815
0.00247574
0.00257848
0.00268302
0.00278522
0.00288398
0.00298131
0.00308184
0.00319165
0.0033169
0.00346308
0.0036347
0.00383897
0.00409082
0.00441914
0.00487322
0.00551748
0.00640402
0.00753325
0.00881687
0.00773305
)
;

boundaryField
{
    floor
    {
        type            kqRWallFunction;
        value           nonuniform List<scalar> 
36
(
0.00358633
0.000793072
0.00162462
0.00165106
0.00157213
0.00144445
0.00128235
0.00113038
0.000998784
0.00088708
0.000792551
0.000712823
0.000644822
0.000585852
0.000533366
0.000484651
0.000436208
0.000397932
0.000326073
0.000326073
0.000523938
0.000677869
0.000821309
0.0011681
0.00205377
0.00186696
0.00358633
0.00429845
0.00390739
0.00358004
0.000793072
0.00358004
0.00253551
0.00538529
0.00403732
0.00534318
)
;
    }
    ceiling
    {
        type            kqRWallFunction;
        value           nonuniform List<scalar> 
43
(
0.0121405
0.00891105
0.00882527
0.00934812
0.00979377
0.00922481
0.00816452
0.00701299
0.00595407
0.00503491
0.00424735
0.00357943
0.00303628
0.00263454
0.00238256
0.00226995
0.00223666
0.00225261
0.00230412
0.0023815
0.00247574
0.00257848
0.00268302
0.00278522
0.00288398
0.00298131
0.00308184
0.00319165
0.0033169
0.00346308
0.0036347
0.00383897
0.00409082
0.00441914
0.00487322
0.00551748
0.00640402
0.00753325
0.00881687
0.00773305
0.0108737
0.0117646
0.00444578
)
;
    }
    sWall
    {
        type            kqRWallFunction;
        value           nonuniform List<scalar> 9(0.0219177 0.0192342 0.0159512 0.0132673 0.0133466 0.0108737 0.0150716 0.0138084 0.0121405);
    }
    nWall
    {
        type            kqRWallFunction;
        value           nonuniform List<scalar> 
14
(
0.00186696
0.00266361
0.00371591
0.00860488
0.00872373
0.00844522
0.00785509
0.00738193
0.00794847
0.00883689
0.00919799
0.00896799
0.00871916
0.00773305
)
;
    }
    sideWalls
    {
        type            empty;
    }
    glass1
    {
        type            kqRWallFunction;
        value           nonuniform List<scalar> 9(0.00158588 0.00340687 0.00549054 0.00797309 0.0108756 0.0141736 0.0179902 0.0216389 0.0228318);
    }
    glass2
    {
        type            kqRWallFunction;
        value           nonuniform List<scalar> 2(0.00645565 0.00814245);
    }
    sun
    {
        type            kqRWallFunction;
        value           nonuniform List<scalar> 
14
(
0.00158588
0.00180108
0.001788
0.00194661
0.00209792
0.00224026
0.002377
0.00251266
0.00265304
0.0028064
0.00295663
0.00310289
0.00325037
0.00341273
)
;
    }
    Table_master
    {
        type            kqRWallFunction;
        value           nonuniform List<scalar> 9(0.00266332 0.00201372 0.00157472 0.00126887 0.00104905 0.000886829 0.000764566 0.000671783 0.000603596);
    }
    Table_slave
    {
        type            kqRWallFunction;
        value           nonuniform List<scalar> 9(0.00345483 0.00285779 0.00243467 0.0021088 0.00184957 0.00163126 0.00143796 0.00125802 0.00107714);
    }
    inlet
    {
        type            turbulentIntensityKineticEnergyInlet;
        intensity       0.05;
        value           uniform 0.0009375;
    }
    outlet
    {
        type            zeroGradient;
    }
}


// ************************************************************************* //
