/*--------------------------------*- C++ -*----------------------------------*\
  =========                 |
  \\      /  F ield         | OpenFOAM: The Open Source CFD Toolbox
   \\    /   O peration     | Website:  https://openfoam.org
    \\  /    A nd           | Version:  6
     \\/     M anipulation  |
\*---------------------------------------------------------------------------*/
FoamFile
{
    version     2.0;
    format      ascii;
    class       volScalarField;
    location    "540";
    object      nut;
}
// * * * * * * * * * * * * * * * * * * * * * * * * * * * * * * * * * * * * * //

dimensions      [0 2 -1 0 0 0 0];

internalField   nonuniform List<scalar> 
458
(
0.00107421
0.00116964
0.00119658
0.00125406
0.00130704
0.00135727
0.0014076
0.00145855
0.00150013
0.0015261
0.00152875
0.00150045
0.00143152
0.00128383
0.00097738
0.000482582
0.000565633
0.000641935
0.000670227
0.000660037
0.000617448
0.000570337
0.00052823
0.000491803
0.000460192
0.000432614
0.000408488
0.00038712
0.000367677
0.000349248
0.000330744
0.000319498
0.000293452
0.00144653
0.00326408
0.00301418
0.00345442
0.00389477
0.00434708
0.00475179
0.00506676
0.00538955
0.00569082
0.00593156
0.00607627
0.00608605
0.00586507
0.0047477
0.0012905
0.00107127
0.000873417
0.000478045
0.00113703
0.00166015
0.00206494
0.00219277
0.00159544
0.00134557
0.00117561
0.00105018
0.000954193
0.000878063
0.000812949
0.000751741
0.000690508
0.000635629
0.000589865
0.000720883
0.000384231
0.00175754
0.00438897
0.003631
0.00442175
0.00475843
0.00499554
0.00517807
0.00534808
0.00558272
0.00586695
0.00617703
0.00647965
0.00671443
0.00678772
0.00638681
0.00520612
0.0039382
0.00103413
0.000733754
0.00126913
0.00185238
0.00243316
0.00260005
0.000830665
0.000726861
0.000640491
0.000570534
0.000514075
0.000468326
0.000431128
0.000401058
0.00037769
0.000418355
0.000484861
0.000847066
0.000453489
0.00205707
0.00560093
0.00353709
0.00458237
0.00476788
0.00475274
0.00473921
0.00482243
0.00501373
0.00529597
0.00565472
0.00605343
0.00639553
0.00660179
0.0065459
0.0062039
0.00532033
0.0029199
0.00119009
0.00150663
0.00207211
0.00277068
0.00337993
0.00341521
0.000937169
0.000858733
0.000804988
0.0007651
0.000731283
0.000697959
0.000666288
0.000632852
0.000593843
0.000558758
0.000550687
0.00100986
0.000522044
0.00236326
0.00722959
0.00371234
0.00435294
0.00461699
0.00446495
0.00434209
0.0044165
0.00461632
0.0049098
0.00529791
0.00573627
0.0060687
0.00622943
0.00621917
0.00609699
0.00574165
0.00474629
0.00428705
0.00432266
0.00457962
0.00488619
0.00507721
0.004999
0.00426697
0.00388717
0.00367597
0.00352401
0.00337028
0.00316941
0.00283743
0.00241223
0.00192996
0.00146653
0.0010999
0.00102774
0.000887968
0.000697772
0.000739232
0.000803708
0.00269121
0.00906393
0.00507835
0.00403892
0.00439852
0.00439731
0.00423524
0.00429899
0.00449928
0.00479286
0.00518743
0.00560638
0.00591565
0.00600722
0.00590684
0.0057699
0.00570777
0.00562273
0.00578571
0.00608093
0.00629225
0.00633681
0.00620632
0.00592275
0.00552023
0.00519
0.00493049
0.00470026
0.00447322
0.00423141
0.00391837
0.00349481
0.00296347
0.00236653
0.00181725
0.00132046
0.00108369
0.000943748
0.00118794
0.000833722
0.00301333
0.0104463
0.00755309
0.0049701
0.00433811
0.00440723
0.00445384
0.00447648
0.00458838
0.00484986
0.00524087
0.00565718
0.0059391
0.00596014
0.00577474
0.0056472
0.00586575
0.00634077
0.00682608
0.00710775
0.00711729
0.00689144
0.00650122
0.00602161
0.00553834
0.00514317
0.00483882
0.00458935
0.00437016
0.00417332
0.00399453
0.00376232
0.00338894
0.00289485
0.00238452
0.00189683
0.00157797
0.00144466
0.00137616
0.00099142
0.00309252
0.00967687
0.00822831
0.00692587
0.00593568
0.00550281
0.00506355
0.00477091
0.00477005
0.00502722
0.00543636
0.00584793
0.00608024
0.00600957
0.00578598
0.00585136
0.0064694
0.00697058
0.00723883
0.00723885
0.00696459
0.00648037
0.00587792
0.00526265
0.00474272
0.00437105
0.00411611
0.0039311
0.00379317
0.003699
0.00365453
0.00365126
0.00354901
0.00325704
0.00297386
0.00281626
0.00288416
0.00304286
0.0036097
0.00153467
0.00303132
0.00365367
0.00403419
0.00424615
0.00427801
0.00421428
0.00422326
0.00441384
0.00479403
0.00527955
0.00576977
0.0061398
0.00623781
0.00600178
0.00595917
0.00627336
0.00663292
0.00675982
0.00667927
0.00637826
0.00586167
0.00521466
0.00455882
0.00401138
0.00362634
0.00337802
0.00321066
0.00308396
0.0029769
0.00287756
0.00277693
0.0026676
0.00256958
0.00248516
0.002429
0.00239679
0.00233617
0.00221263
0.00206305
0.00143359
0.00132705
0.00233503
0.00321738
0.00392133
0.00457248
0.00521339
0.00573056
0.00608928
0.00630556
0.00630647
0.00606511
0.00578607
0.00579586
0.00591228
0.00584433
0.00561895
0.00525521
0.00475896
0.00418577
0.00361626
0.0031563
0.00284382
0.00265174
0.00253438
0.00245735
0.0024021
0.00236043
0.00233017
0.00231351
0.00231966
0.00233355
0.00234598
0.00234684
0.00230985
0.00219558
0.00199448
0.0017452
0.00115375
0.00201488
0.00398162
0.00513722
0.00589756
0.00648966
0.0065469
0.00623732
0.00592691
0.00557464
0.00496297
0.00455072
0.00445315
0.00439873
0.00423389
0.00397637
0.00365118
0.00326667
0.00286052
0.00249491
0.00221606
0.00202237
0.00191221
0.00186223
0.00185331
0.00187378
0.00191632
0.00197485
0.00204212
0.00212096
0.00221059
0.00230614
0.00239983
0.00247605
0.00251433
0.002479
0.00244834
0.00225921
0.00116887
0.00212056
0.00217345
0.00222133
0.00247201
0.00233592
0.00206943
0.00175129
0.00149828
0.00133871
0.00118408
0.00104557
0.000937181
0.000844201
0.000775285
0.000728085
0.000693669
0.000665948
0.000642132
0.000622553
0.000609463
0.000604743
0.000608574
0.000620005
0.000636517
0.000657201
0.000681585
0.000709543
0.000741248
0.000777235
0.00081862
0.000865597
0.000917881
0.000975752
0.0010395
0.00110918
0.00119273
0.00122883
0.00120343
0.00111944
0.00103536
)
;

boundaryField
{
    floor
    {
        type            nutkWallFunction;
        Cmu             0.09;
        kappa           0.41;
        E               9.8;
        value           nonuniform List<scalar> 
36
(
0.000118054
5.74854e-05
6.80392e-05
7.75682e-05
8.10658e-05
7.98082e-05
7.4526e-05
6.8631e-05
6.33116e-05
5.86676e-05
5.46028e-05
5.10279e-05
4.78769e-05
4.50663e-05
4.24916e-05
4.00348e-05
3.75512e-05
3.60329e-05
3.24888e-05
3.24887e-05
4.46839e-05
5.37354e-05
6.25247e-05
8.44529e-05
8.95233e-05
9.73425e-05
0.000118054
0.000154381
0.000129069
0.000105713
5.74854e-05
0.000105713
5.69023e-05
0.000124727
8.88559e-05
0.000142854
)
;
    }
    ceiling
    {
        type            nutkWallFunction;
        Cmu             0.09;
        kappa           0.41;
        E               9.8;
        value           nonuniform List<scalar> 
43
(
0.000246342
0.000252053
0.000257213
0.000284108
0.000269615
0.000240915
0.000206106
0.000177925
0.000159882
0.000142164
0.000126068
0.000113302
0.000102215
9.39049e-05
8.81635e-05
8.39493e-05
8.05368e-05
7.75913e-05
7.51601e-05
7.35294e-05
7.29404e-05
7.34185e-05
7.4843e-05
7.6895e-05
7.94565e-05
8.24638e-05
8.58961e-05
8.97689e-05
9.41413e-05
9.91399e-05
0.000104778
0.000111012
0.000117864
0.000125358
0.00013349
0.000143164
0.000147321
0.000144399
0.000134683
0.000124874
0.000343342
0.000407637
0.000234806
)
;
    }
    sWall
    {
        type            nutkWallFunction;
        Cmu             0.09;
        kappa           0.41;
        E               9.8;
        value           uniform 0.000246409;
    }
    nWall
    {
        type            nutkWallFunction;
        Cmu             0.09;
        kappa           0.41;
        E               9.8;
        value           nonuniform List<scalar> 6(9.7343e-05 0.000100958 0.000119715 0.000138672 0.000140421 0.000124881);
    }
    sideWalls
    {
        type            empty;
    }
    glass1
    {
        type            nutkWallFunction;
        Cmu             0.09;
        kappa           0.41;
        E               9.8;
        value           nonuniform List<scalar> 9(0.000129521 0.000172325 0.000207122 0.000239999 0.000273078 0.000308007 0.000341883 0.000350162 0.00034379);
    }
    glass2
    {
        type            nutkWallFunction;
        Cmu             0.09;
        kappa           0.41;
        E               9.8;
        value           nonuniform List<scalar> 2(0.000182108 0.000170723);
    }
    sun
    {
        type            nutkWallFunction;
        Cmu             0.09;
        kappa           0.41;
        E               9.8;
        value           nonuniform List<scalar> 
14
(
0.000129415
0.000140493
0.000143602
0.000150209
0.00015627
0.00016199
0.000167699
0.000173455
0.000178135
0.000181051
0.000181348
0.00017817
0.000170402
0.000153618
)
;
    }
    Table_master
    {
        type            nutkWallFunction;
        Cmu             0.09;
        kappa           0.41;
        E               9.8;
        value           nonuniform List<scalar> 9(0.000100589 8.80157e-05 7.73917e-05 6.86601e-05 6.15179e-05 5.56596e-05 5.08437e-05 4.69123e-05 4.38315e-05);
    }
    Table_slave
    {
        type            nutkWallFunction;
        Cmu             0.09;
        kappa           0.41;
        E               9.8;
        value           nonuniform List<scalar> 9(0.000113299 0.000103956 9.74968e-05 9.26704e-05 8.85552e-05 8.44778e-05 8.05812e-05 7.64431e-05 7.15819e-05);
    }
    inlet
    {
        type            calculated;
        value           uniform 0.000167705;
    }
    outlet
    {
        type            calculated;
        value           nonuniform List<scalar> 2(0.00212056 0.00217345);
    }
}


// ************************************************************************* //
