/*--------------------------------*- C++ -*----------------------------------*\
  =========                 |
  \\      /  F ield         | OpenFOAM: The Open Source CFD Toolbox
   \\    /   O peration     | Website:  https://openfoam.org
    \\  /    A nd           | Version:  6
     \\/     M anipulation  |
\*---------------------------------------------------------------------------*/
FoamFile
{
    version     2.0;
    format      ascii;
    class       volScalarField;
    location    "42499.999999671265";
    object      nut;
}
// * * * * * * * * * * * * * * * * * * * * * * * * * * * * * * * * * * * * * //

dimensions      [0 2 -1 0 0 0 0];

internalField   nonuniform List<scalar> 
778
(
0.000894297
0.000953033
0.000949548
0.000990755
0.00102853
0.00106284
0.00109479
0.0011256
0.00115662
0.00118959
0.00122104
0.0012509
0.00128031
0.00131193
0.00134491
0.000632408
0.000905291
0.000912672
0.000890634
0.000853725
0.00080438
0.000755176
0.000709829
0.000668945
0.000632299
0.000599655
0.00057034
0.000543637
0.000518713
0.000494455
0.000469088
0.000448018
0.000405541
0.00131077
0.002581
0.00226496
0.00261423
0.00286762
0.00313627
0.00340431
0.00365138
0.00385035
0.00396627
0.00403442
0.00400641
0.00380651
0.00331138
0.00241833
0.00147246
0.00140387
0.00134377
0.00113075
0.00192635
0.00267015
0.00310962
0.00313029
0.00247052
0.00211284
0.00186506
0.00167702
0.00152739
0.00139968
0.00128681
0.00118181
0.0010791
0.000986933
0.000907459
0.001022
0.000514073
0.00166402
0.00360416
0.00267222
0.00382221
0.00427079
0.00465043
0.00499529
0.0052989
0.00555624
0.00575812
0.00595359
0.00615914
0.00634776
0.00645952
0.00638393
0.00584408
0.00427351
0.00164812
0.00142683
0.00305258
0.00425955
0.00483043
0.00439259
0.00115922
0.00100805
0.000891446
0.000800199
0.000727567
0.000668925
0.000621081
0.000582161
0.000551816
0.000606708
0.000713647
0.00112974
0.000584733
0.00200524
0.00485803
0.00255725
0.00429821
0.00496247
0.00531797
0.00557946
0.00577302
0.00591764
0.006035
0.00620158
0.00648271
0.00689255
0.00740742
0.00792441
0.00817792
0.00767688
0.00572362
0.00164156
0.00380485
0.00565768
0.00659774
0.00682913
0.00582939
0.00132004
0.00120065
0.00110828
0.00103148
0.000966032
0.00090724
0.0008518
0.00079673
0.000737252
0.000688875
0.000714038
0.00122282
0.000643701
0.00234197
0.00643255
0.00258011
0.00408654
0.00510797
0.00541126
0.00552158
0.00552619
0.00547173
0.00542363
0.0054936
0.00576684
0.0062677
0.0069764
0.00779797
0.00855445
0.00903437
0.00902855
0.00810338
0.00824614
0.00843465
0.00846028
0.00828765
0.00775682
0.00617262
0.00533197
0.00475628
0.00428813
0.00382942
0.00338523
0.00295065
0.00251653
0.00207039
0.00159042
0.00121378
0.00121202
0.00095889
0.000767333
0.00101119
0.0009674
0.00267359
0.00819563
0.00303755
0.00344649
0.00489469
0.00523124
0.00520474
0.00501787
0.00475055
0.00453008
0.00452545
0.00481165
0.00538228
0.00620386
0.00716536
0.00812552
0.00894369
0.00946657
0.00956193
0.00946588
0.00929738
0.00905849
0.00875183
0.00836204
0.00779356
0.00724614
0.00674926
0.00626852
0.00574992
0.00519633
0.00460504
0.00397088
0.00328981
0.00256727
0.00191345
0.00143677
0.00111497
0.00125247
0.00217574
0.00115725
0.00301212
0.00982712
0.00404803
0.00282369
0.00439849
0.00494867
0.00488797
0.00458527
0.00414595
0.00375932
0.00374826
0.00410935
0.0047622
0.00567997
0.00672485
0.00775915
0.00864984
0.00928827
0.00958219
0.00955945
0.00934904
0.00903044
0.00866585
0.00830234
0.00795093
0.0076286
0.00732593
0.00700258
0.00661243
0.00614297
0.00558707
0.00494197
0.00421029
0.00341116
0.00263076
0.0019026
0.00140072
0.00125363
0.00220564
0.00136393
0.00330347
0.0110642
0.00552027
0.00268858
0.00348487
0.00438751
0.00451339
0.00426444
0.00374557
0.00321902
0.00333853
0.00381589
0.00454545
0.00549095
0.00657537
0.00765794
0.00858212
0.00922493
0.00951736
0.00947959
0.00920821
0.00880782
0.00837729
0.00799559
0.0077014
0.00749125
0.00732747
0.00714931
0.00690169
0.00655512
0.00609575
0.00552076
0.00483601
0.00406279
0.00326047
0.00244852
0.00171788
0.00113643
0.00320042
0.00178491
0.00339329
0.0104839
0.00683655
0.00347655
0.00236279
0.00289641
0.00338886
0.0034301
0.00302897
0.00294454
0.00325066
0.00381162
0.00459961
0.00560135
0.0067372
0.00785291
0.00877402
0.0093676
0.00957673
0.00943407
0.00904074
0.00852466
0.00801284
0.00760466
0.00734557
0.00721831
0.00716067
0.00709225
0.00695009
0.0067
0.00632827
0.00583344
0.00522248
0.00451331
0.00373709
0.00286704
0.0017071
0.00137768
0.00490103
0.00202074
0.00332466
0.00845865
0.00706629
0.00477532
0.00315243
0.00244108
0.00231264
0.00242167
0.00262538
0.00294988
0.00340937
0.00403995
0.00489587
0.00597493
0.00717205
0.0083035
0.00917688
0.00965887
0.00971004
0.00938733
0.00881852
0.00816403
0.00758035
0.00718073
0.00699754
0.00697593
0.00701552
0.00701477
0.00692288
0.00672039
0.00640064
0.00596334
0.00541314
0.00475569
0.0039605
0.00281232
0.00136568
0.00226197
0.00505129
0.00207027
0.00311446
0.00723177
0.00683536
0.005468
0.00420638
0.00338582
0.00298055
0.00288945
0.00305816
0.00336785
0.00381641
0.00448079
0.00542476
0.00660703
0.00786497
0.0089729
0.0097263
0.0100075
0.00981113
0.00923533
0.0084532
0.00767081
0.00707736
0.00677956
0.00674467
0.00684189
0.00694046
0.00694221
0.00684543
0.00664903
0.00634872
0.00594067
0.00542149
0.00476497
0.00379433
0.00222913
0.00143468
0.00286312
0.00503725
0.00206363
0.00283617
0.00652134
0.00659551
0.00579059
0.0049243
0.00427289
0.0038898
0.00375299
0.0037883
0.0039751
0.00438579
0.00512655
0.00621698
0.00752633
0.00881167
0.00980971
0.0103254
0.0102838
0.00973811
0.0088492
0.00785888
0.00703315
0.00656645
0.00647095
0.00655062
0.00668006
0.00676634
0.00674304
0.00663096
0.00643168
0.00613801
0.00573988
0.00521905
0.00447827
0.00308222
0.00155304
0.00185348
0.00321532
0.00466436
0.00200713
0.00258652
0.00583342
0.00629851
0.00591742
0.00536107
0.00489421
0.00458408
0.00443297
0.004388
0.00454625
0.00506618
0.00603331
0.00735281
0.00877112
0.00997487
0.0107002
0.0108063
0.0102969
0.00931613
0.00811299
0.0070275
0.00633099
0.00602047
0.00597515
0.0060589
0.00617958
0.00626183
0.0062433
0.00613351
0.00593211
0.0056306
0.0052153
0.00464699
0.00373381
0.00222474
0.00150182
0.00220382
0.00337481
0.00419173
0.00193519
0.00259424
0.00578952
0.00643511
0.00598943
0.00553912
0.00517061
0.00490507
0.00473278
0.00472419
0.0051079
0.00602514
0.00739601
0.00894475
0.0103169
0.0111975
0.0113973
0.0108909
0.00979356
0.00838608
0.00702656
0.00604073
0.0054522
0.00516271
0.00508111
0.00512984
0.00523565
0.00532397
0.00531649
0.00520114
0.00497451
0.00463261
0.0041781
0.00360806
0.00285496
0.00192928
0.00159589
0.00233014
0.00350096
0.00461799
0.0019298
0.00234163
0.00243543
0.00359194
0.00421893
0.00441217
0.00441444
0.00437089
0.00445019
0.00498631
0.00612982
0.0077375
0.00947316
0.0109615
0.0118892
0.0120691
0.0114598
0.0102075
0.00854953
0.0069672
0.0057267
0.00488235
0.00438094
0.00413279
0.00404005
0.00403633
0.00407503
0.00410295
0.00404897
0.00387702
0.00359003
0.00321246
0.00280084
0.00242178
0.00210722
0.00185403
0.00181806
0.00244282
0.00379251
0.00477253
0.00207099
0.000807821
0.00146604
0.00226286
0.00290411
0.00364557
0.00490055
0.00674456
0.00878874
0.010649
0.0120418
0.0127752
0.0127233
0.0118857
0.0103457
0.00850586
0.00675509
0.0053569
0.00440358
0.00386079
0.00357627
0.00341878
0.00332149
0.00325465
0.00319788
0.00312335
0.00299432
0.00279002
0.00253585
0.00228788
0.00210755
0.0020245
0.00203246
0.00212414
0.00235031
0.00293344
0.00447323
0.00497929
0.00210453
0.00149725
0.00207855
0.00303573
0.00474522
0.00706484
0.00938824
0.0111906
0.0124922
0.013282
0.0135089
0.0130771
0.0118892
0.0101266
0.00812879
0.00628765
0.00488848
0.00403933
0.00359926
0.00336662
0.00322551
0.00313057
0.00306377
0.00301281
0.00296266
0.00289342
0.00278761
0.00265252
0.00251977
0.00242979
0.0024128
0.00247459
0.00260549
0.0028078
0.00312795
0.00370278
0.00508173
0.00540065
0.00213925
0.00275733
0.00666482
0.00612411
0.00548181
0.00698059
0.00932248
0.0113029
0.0126413
0.0133474
0.0135253
0.0132617
0.0125223
0.0112706
0.00956509
0.00764543
0.00587916
0.00462656
0.00393233
0.00357207
0.00336194
0.00322581
0.00314159
0.00310236
0.00310006
0.00312034
0.00314276
0.00314556
0.00311771
0.00308133
0.00305888
0.00306672
0.00311455
0.00320213
0.00332205
0.00347097
0.00366524
0.0039564
0.0044303
0.00465324
0.00203992
0.00263906
0.0051003
0.00658834
0.00841224
0.0093483
0.010322
0.0108946
0.0110386
0.0108312
0.0103299
0.00956079
0.0085401
0.00732467
0.00606467
0.0049836
0.00421319
0.00370205
0.00337202
0.0031456
0.00298974
0.00289775
0.00287028
0.00290492
0.00299126
0.00310929
0.00323081
0.00332524
0.0033758
0.00341276
0.00345762
0.00352228
0.00361159
0.00372553
0.00386299
0.00402809
0.00423087
0.00446316
0.00484655
0.00514654
0.00199188
0.0024742
0.00211949
0.00210898
0.00217012
0.00222067
0.00215397
0.00202447
0.00187362
0.00172337
0.00158224
0.00145226
0.00133471
0.00123338
0.00115421
0.00110126
0.00107388
0.00106554
0.00106695
0.00107611
0.00109215
0.00111393
0.00113968
0.00116739
0.00119529
0.00122228
0.00124806
0.0012732
0.00129874
0.00132545
0.00135519
0.00138933
0.0014286
0.00147318
0.00152291
0.00157758
0.0016387
0.00171804
0.00183207
0.00198029
0.00191952
)
;

boundaryField
{
    floor
    {
        type            nutkWallFunction;
        Cmu             0.09;
        kappa           0.41;
        E               9.8;
        value           nonuniform List<scalar> 
36
(
0.000160581
7.63868e-05
0.000109513
0.000110391
0.000107767
0.000103356
9.74235e-05
9.14651e-05
8.59328e-05
8.09089e-05
7.63742e-05
7.23081e-05
6.86335e-05
6.52662e-05
6.21047e-05
5.90096e-05
5.57528e-05
5.30308e-05
4.74928e-05
4.74928e-05
6.15137e-05
7.04401e-05
7.77884e-05
9.29409e-05
0.000122017
0.00011687
0.000160581
0.000175016
0.000167272
0.000160451
7.63868e-05
0.000160451
0.000135987
0.000194674
0.000169867
0.000193943
)
;
    }
    ceiling
    {
        type            nutkWallFunction;
        Cmu             0.09;
        kappa           0.41;
        E               9.8;
        value           nonuniform List<scalar> 
43
(
0.000284373
0.000246304
0.000245169
0.000251784
0.000257242
0.000250062
0.000236034
0.00021956
0.000203002
0.000187303
0.000172709
0.00015939
0.000147811
0.000138698
0.000132566
0.000129378
0.000128407
0.000128568
0.000129629
0.000131491
0.000134022
0.000137014
0.000140231
0.000143467
0.000146592
0.00014957
0.000152465
0.000155397
0.000158452
0.000161841
0.000165721
0.000170173
0.000175215
0.000180819
0.000186949
0.000193738
0.00020243
0.000214901
0.000231108
0.000224644
0.000270418
0.00028044
0.000177597
)
;
    }
    sWall
    {
        type            nutkWallFunction;
        Cmu             0.09;
        kappa           0.41;
        E               9.8;
        value           nonuniform List<scalar> 9(0.00037389 0.000352084 0.00032298 0.000296622 0.000297438 0.000270507 0.000314375 0.000301922 0.000284474);
    }
    nWall
    {
        type            nutkWallFunction;
        Cmu             0.09;
        kappa           0.41;
        E               9.8;
        value           nonuniform List<scalar> 
14
(
0.000116878
0.00013907
0.000162755
0.000241062
0.000240296
0.000234115
0.000226296
0.000225871
0.00024119
0.000244785
0.000248493
0.000237699
0.000232483
0.000224678
)
;
    }
    sideWalls
    {
        type            empty;
    }
    glass1
    {
        type            nutkWallFunction;
        Cmu             0.09;
        kappa           0.41;
        E               9.8;
        value           nonuniform List<scalar> 9(0.000108246 0.000156881 0.000196735 0.000234348 0.00027079 0.000306139 0.000341752 0.000372072 0.000381373);
    }
    glass2
    {
        type            nutkWallFunction;
        Cmu             0.09;
        kappa           0.41;
        E               9.8;
        value           nonuniform List<scalar> 2(0.000209928 0.000235826);
    }
    sun
    {
        type            nutkWallFunction;
        Cmu             0.09;
        kappa           0.41;
        E               9.8;
        value           nonuniform List<scalar> 
14
(
0.000108205
0.000115177
0.000114765
0.000119629
0.000124068
0.000128083
0.00013181
0.000135391
0.000138985
0.000142794
0.000146415
0.000149845
0.000153213
0.000156824
)
;
    }
    Table_master
    {
        type            nutkWallFunction;
        Cmu             0.09;
        kappa           0.41;
        E               9.8;
        value           nonuniform List<scalar> 9(0.000139277 0.000121658 0.000107861 9.69185e-05 8.81034e-05 8.09102e-05 7.49854e-05 7.01251e-05 6.63082e-05);
    }
    Table_slave
    {
        type            nutkWallFunction;
        Cmu             0.09;
        kappa           0.41;
        E               9.8;
        value           nonuniform List<scalar> 9(0.000157737 0.000144059 0.00013337 0.000124408 0.000116709 0.000109741 0.000103123 9.64996e-05 8.92847e-05);
    }
    inlet
    {
        type            calculated;
        value           uniform 0.000167705;
    }
    outlet
    {
        type            calculated;
        value           nonuniform List<scalar> 2(0.00275733 0.00666482);
    }
}


// ************************************************************************* //
