/*--------------------------------*- C++ -*----------------------------------*\
  =========                 |
  \\      /  F ield         | OpenFOAM: The Open Source CFD Toolbox
   \\    /   O peration     | Website:  https://openfoam.org
    \\  /    A nd           | Version:  6
     \\/     M anipulation  |
\*---------------------------------------------------------------------------*/
FoamFile
{
    version     2.0;
    format      ascii;
    class       volScalarField;
    location    "2100";
    object      k;
}
// * * * * * * * * * * * * * * * * * * * * * * * * * * * * * * * * * * * * * //

dimensions      [0 2 -2 0 0 0 0];

internalField   nonuniform List<scalar> 
778
(
0.00140507
0.00157679
0.00301995
0.00157371
0.00559023
0.00489582
0.00170802
0.00218766
0.0112032
0.00719052
0.00183232
0.0022248
0.0027681
0.0195219
0.00994678
0.00194638
0.00230599
0.00257163
0.00356854
0.0310115
0.0131473
0.00205324
0.00240753
0.0026144
0.00270596
0.00503237
0.0449695
0.0169118
0.0021566
0.00252155
0.00271778
0.00265341
0.00271992
0.00782446
0.0582917
0.0206888
0.00226081
0.0026504
0.00283971
0.00271728
0.00250385
0.00276043
0.0127297
0.0685047
0.0220192
0.00237152
0.00279692
0.00297727
0.00278549
0.00250538
0.00230038
0.00303104
0.0199106
0.0687841
0.021337
0.00248573
0.00296288
0.00313027
0.00285039
0.00250553
0.00223455
0.00214222
0.00417263
0.031322
0.0513416
0.0189303
0.00260236
0.00315067
0.00329751
0.00291888
0.00249215
0.00217535
0.00200403
0.00215715
0.00987467
0.0329722
0.0392443
0.0158304
0.00272846
0.00335134
0.00348939
0.00300741
0.00248207
0.00209909
0.00190397
0.00187806
0.00332608
0.01654
0.0298298
0.0313493
0.0131919
0.00287718
0.00354592
0.00373521
0.00314446
0.00250906
0.0020319
0.00179228
0.00174883
0.00206219
0.00779903
0.0189905
0.0263446
0.0253258
0.0131919
0.00304781
0.00368602
0.00405019
0.00337364
0.00261695
0.00203087
0.00170203
0.00163122
0.00177612
0.00413752
0.0115854
0.0191632
0.023054
0.0221008
0.010777
0.00370561
0.00445421
0.00371976
0.00284184
0.00216001
0.0017214
0.00156291
0.001654
0.00273965
0.00738407
0.0135737
0.018413
0.0218124
0.0116188
0.00364372
0.00494594
0.00420037
0.00319992
0.00242367
0.00192473
0.00167708
0.00168467
0.00223692
0.00520079
0.00988156
0.0143099
0.0175387
0.0121918
0.00346298
0.00530146
0.0047923
0.00370333
0.00280826
0.00226651
0.0019919
0.00194746
0.00230576
0.00416518
0.00762853
0.0113131
0.0141699
0.0117023
0.0196549
0.00333617
0.00505165
0.00535352
0.00434013
0.00332061
0.00269233
0.00240429
0.00234073
0.00262766
0.00385902
0.00634691
0.0092634
0.0116603
0.0105772
0.00549856
0.0145719
0.00472497
0.00567302
0.0050369
0.0039655
0.00321944
0.00285707
0.00276729
0.00299742
0.0038586
0.00564098
0.00790969
0.00982606
0.00930783
0.00299725
0.00573505
0.0106699
0.00598774
0.005723
0.00470376
0.003876
0.00337896
0.00321009
0.00335284
0.00395622
0.00521358
0.00691742
0.00842999
0.00810376
0.00253853
0.00297375
0.00580733
0.0174356
0.0126173
0.0050426
0.00652955
0.00547769
0.00463468
0.00403241
0.00373607
0.0037415
0.00411204
0.00495141
0.00614499
0.00719774
0.00683923
0.00215701
0.00261975
0.00807476
0.0142502
0.0116876
0.0134159
0.00674069
0.00552792
0.00698604
0.00619612
0.00540834
0.00481214
0.00442145
0.00427655
0.0044212
0.00490709
0.00565607
0.00628956
0.00585541
0.00234028
0.00471711
0.0137241
0.0154857
0.00710354
0.0111355
0.00730173
0.00405874
0.00539104
0.00625963
0.00651939
0.00605206
0.00560332
0.00524736
0.00503022
0.00501004
0.00522996
0.00564683
0.00600889
0.00572037
0.00399725
0.00952061
0.0178766
0.0170785
0.00750965
0.0106775
0.00276141
0.00430423
0.00519158
0.00585601
0.00625453
0.00635548
0.00622262
0.00606497
0.00593432
0.00589416
0.00600185
0.00626599
0.0065829
0.00673566
0.00700709
0.0145581
0.0201153
0.0173872
0.0074058
0.0015237
0.00299976
0.0043563
0.00487291
0.00547934
0.00589056
0.00624065
0.00649266
0.00665809
0.0067786
0.00690419
0.0071028
0.00743324
0.00793563
0.00871861
0.0106206
0.0179403
0.0206078
0.0166194
0.00682101
0.00163175
0.00315188
0.00414811
0.00443576
0.00506302
0.00544775
0.00587332
0.00636052
0.00685192
0.00730789
0.00774108
0.00820726
0.00879708
0.00963879
0.0110207
0.0137876
0.0193094
0.0199139
0.0152772
0.00602549
0.00165955
0.00307063
0.00372648
0.00351641
0.00462451
0.00496027
0.00535787
0.00591783
0.00660507
0.00735016
0.00811482
0.00892267
0.00985377
0.0110655
0.0128244
0.0156003
0.018914
0.0183223
0.0137193
0.00523218
0.00160979
0.00281545
0.00277526
0.00291824
0.00412302
0.00447937
0.00479007
0.00529472
0.00601202
0.00689206
0.0078813
0.00896175
0.0101799
0.0116343
0.0134953
0.0156802
0.016809
0.0159519
0.0120864
0.00452594
0.00150428
0.00239941
0.00209713
0.00249775
0.0036658
0.00402934
0.00425183
0.00462412
0.00523252
0.00606796
0.00708928
0.00826626
0.00958695
0.0110848
0.012712
0.0141711
0.013684
0.0130187
0.0104353
0.00391553
0.00135295
0.0020278
0.00164029
0.00217144
0.00327637
0.00363927
0.00378978
0.00401111
0.00443156
0.0050817
0.0059484
0.00699572
0.0082005
0.00947644
0.0107081
0.011172
0.0103239
0.0100276
0.00885564
0.00340528
0.00120478
0.00172191
0.00132292
0.00191182
0.00294464
0.00331201
0.00341863
0.00351252
0.00373217
0.00413323
0.00472124
0.00547843
0.0063377
0.00725331
0.00784723
0.00789487
0.00727422
0.0074818
0.00750727
0.0030124
0.00107373
0.00147348
0.00109543
0.00169295
0.00264518
0.0030331
0.00312774
0.00313827
0.0031937
0.00335689
0.00364669
0.00403979
0.00451264
0.00487123
0.00519156
0.00528786
0.00506592
0.00570666
0.00653586
0.00274884
0.000960819
0.00127043
0.000927931
0.00149869
0.00236932
0.00277906
0.00289248
0.00286726
0.00281663
0.00280343
0.00285038
0.00296049
0.00305616
0.0032456
0.00343642
0.00361167
0.00377271
0.00471539
0.00594765
0.00260211
0.000864663
0.00110293
0.000801997
0.00131718
0.00210917
0.0025387
0.00268687
0.00266406
0.00256636
0.0024502
0.0023512
0.00227646
0.00227307
0.00233492
0.00248735
0.00273411
0.00313908
0.00424739
0.00560911
0.0025387
0.000782313
0.000962853
0.000706885
0.00113377
0.00185709
0.00230211
0.00249284
0.00249889
0.00239582
0.00224059
0.00207343
0.00193523
0.00186976
0.00188835
0.00202379
0.00232126
0.00285627
0.00402537
0.00539923
0.00252805
0.000711081
0.000843265
0.000638028
0.000849759
0.00160146
0.00206082
0.00229667
0.00234743
0.00227007
0.00211564
0.00193048
0.0017691
0.00167353
0.00166738
0.00179462
0.00211771
0.00271734
0.00388837
0.00523792
0.00253904
0.000648529
0.000741868
0.000587453
0.00070337
0.00127105
0.0018054
0.0020887
0.00219272
0.00215907
0.00203322
0.00185949
0.00169059
0.00157721
0.00155112
0.00166354
0.00199484
0.00262841
0.00377304
0.00508987
0.00256044
0.000592192
0.000669721
0.000589224
0.00145811
0.00097491
0.00150975
0.00186138
0.00202414
0.00204384
0.0019605
0.00181663
0.00165693
0.00153027
0.00148334
0.00157325
0.00189978
0.00255645
0.00366541
0.00494949
0.00259192
0.000539347
0.000626213
0.00120553
0.000857165
0.00123488
0.00121429
0.0016071
0.00183524
0.00191387
0.00187971
0.00177424
0.00163672
0.00150898
0.00144046
0.00150077
0.00181253
0.00249111
0.0035701
0.00482702
0.00263894
0.000486225
0.000906511
0.000710472
0.00123794
0.00115176
0.00135034
0.00162401
0.00176386
0.0017822
0.00171895
0.00161184
0.00149407
0.00141242
0.0014384
0.00172488
0.00242765
0.00349557
0.00474021
0.00271002
0.000441187
0.000556766
0.00119223
0.00114025
0.00118658
0.00140772
0.00159378
0.00166446
0.00164439
0.00157262
0.00147419
0.00138957
0.00138591
0.00163487
0.00236087
0.00344691
0.00470905
0.00281388
0.000360329
0.00201373
0.00170689
0.00111756
0.00124305
0.00141742
0.00152831
0.00154862
0.0015136
0.00144244
0.0013647
0.00134378
0.00154757
0.00228504
0.00342196
0.00475114
0.0029563
0.0018777
0.00503798
0.0015643
0.00116985
0.00129322
0.00138804
0.0014362
0.00143307
0.00139475
0.00133343
0.00130733
0.0014812
0.00219894
0.00341045
0.00487665
0.00313755
0.00269719
0.00618573
0.0020626
0.00135972
0.00131647
0.00132867
0.00133877
0.0013308
0.00129463
0.00127618
0.00144086
0.00211629
0.0033981
0.00508292
0.00335155
0.00371652
0.0134414
0.00380813
0.00178571
0.0013718
0.00126618
0.00126001
0.00125229
0.00126005
0.00143559
0.00207846
0.00337921
0.00534938
0.00358795
0.00624132
0.0255653
0.00914479
0.00318115
0.00148457
0.00122618
0.00122338
0.00128404
0.0014972
0.00210524
0.00339469
0.0056327
0.00383621
0.00823053
0.0233265
0.0104389
0.0037876
0.00147524
0.00126518
0.00139504
0.00168327
0.00224197
0.00347896
0.00586735
0.00409022
0.00846099
0.0192599
0.010353
0.00345712
0.00157978
0.00166802
0.00206736
0.00256399
0.0036726
0.00607812
0.00435267
0.00822278
0.0172487
0.00942728
0.0032325
0.0022661
0.00272833
0.00316566
0.0040455
0.0063486
0.00462462
0.00781292
0.0178014
0.00902754
0.00383994
0.00380902
0.00414337
0.00469353
0.00676652
0.00491423
0.0079114
0.0155469
0.00975207
0.00575352
0.00561022
0.00572908
0.0074255
0.00524515
0.00893055
0.0141367
0.0105207
0.00775204
0.00728326
0.00843667
0.00564262
0.00916979
0.0154926
0.0107585
0.00953695
0.00994201
0.00612633
0.00911063
0.0141295
0.0125247
0.0121324
0.00670083
0.00836127
0.0159261
0.0153577
0.00734411
0.00832564
0.0157669
0.00802952
0.010501
0.00883823
0.00895315
)
;

boundaryField
{
    floor
    {
        type            kqRWallFunction;
        value           nonuniform List<scalar> 
36
(
0.00304781
0.0015237
0.00163175
0.00165955
0.00160979
0.00150428
0.00135295
0.00120478
0.00107373
0.000960819
0.000864663
0.000782313
0.000711081
0.000648529
0.000592192
0.000539347
0.000486225
0.000441187
0.000360329
0.000360329
0.000556766
0.000710472
0.000857165
0.00119223
0.00201373
0.0018777
0.00304781
0.00364372
0.00346298
0.00333617
0.0015237
0.00333617
0.00276141
0.00472497
0.00405874
0.0050426
)
;
    }
    ceiling
    {
        type            kqRWallFunction;
        value           nonuniform List<scalar> 
43
(
0.0106775
0.00730173
0.00674069
0.00710354
0.00750965
0.0074058
0.00682101
0.00602549
0.00523218
0.00452594
0.00391553
0.00340528
0.0030124
0.00274884
0.00260211
0.0025387
0.00252805
0.00253904
0.00256044
0.00259192
0.00263894
0.00271002
0.00281388
0.0029563
0.00313755
0.00335155
0.00358795
0.00383621
0.00409022
0.00435267
0.00462462
0.00491423
0.00524515
0.00564262
0.00612633
0.00670083
0.00734411
0.00802952
0.00883823
0.00895315
0.010777
0.0116188
0.0145719
)
;
    }
    sWall
    {
        type            kqRWallFunction;
        value           nonuniform List<scalar> 9(0.021337 0.0189303 0.0158304 0.0131919 0.0131919 0.010777 0.0116876 0.0111355 0.0106775);
    }
    nWall
    {
        type            kqRWallFunction;
        value           nonuniform List<scalar> 
14
(
0.0018777
0.00269719
0.00371652
0.00846099
0.00822278
0.00781292
0.0079114
0.00893055
0.00916979
0.00911063
0.00836127
0.00832564
0.010501
0.00895315
)
;
    }
    sideWalls
    {
        type            empty;
    }
    glass1
    {
        type            kqRWallFunction;
        value           nonuniform List<scalar> 9(0.00140507 0.00301995 0.00489582 0.00719052 0.00994678 0.0131473 0.0169118 0.0206888 0.0220192);
    }
    glass2
    {
        type            kqRWallFunction;
        value           nonuniform List<scalar> 2(0.00624132 0.00823053);
    }
    sun
    {
        type            kqRWallFunction;
        value           nonuniform List<scalar> 
14
(
0.00140507
0.00157679
0.00157371
0.00170802
0.00183232
0.00194638
0.00205324
0.0021566
0.00226081
0.00237152
0.00248573
0.00260236
0.00272846
0.00287718
)
;
    }
    Table_master
    {
        type            kqRWallFunction;
        value           nonuniform List<scalar> 9(0.00277526 0.00209713 0.00164029 0.00132292 0.00109543 0.000927931 0.000801997 0.000706885 0.000638028);
    }
    Table_slave
    {
        type            kqRWallFunction;
        value           nonuniform List<scalar> 9(0.00351641 0.00291824 0.00249775 0.00217144 0.00191182 0.00169295 0.00149869 0.00131718 0.00113377);
    }
    inlet
    {
        type            turbulentIntensityKineticEnergyInlet;
        intensity       0.5;
        value           uniform 0.09375;
    }
    outlet
    {
        type            zeroGradient;
    }
}


// ************************************************************************* //
