/*--------------------------------*- C++ -*----------------------------------*\
  =========                 |
  \\      /  F ield         | OpenFOAM: The Open Source CFD Toolbox
   \\    /   O peration     | Website:  https://openfoam.org
    \\  /    A nd           | Version:  6
     \\/     M anipulation  |
\*---------------------------------------------------------------------------*/
FoamFile
{
    version     2.0;
    format      ascii;
    class       volVectorField;
    location    "2100";
    object      U;
}
// * * * * * * * * * * * * * * * * * * * * * * * * * * * * * * * * * * * * * //

dimensions      [0 1 -1 0 0 0 0];

internalField   nonuniform List<vector> 
778
(
(0.0702509 0.0788135 0)
(-0.154482 0.0145395 0)
(0.2666 0.167792 0)
(-0.163176 0.0146873 0)
(-0.164875 0.0476305 0)
(0.442216 0.255744 0)
(-0.192745 0.0123123 0)
(-0.144409 0.0485267 0)
(-0.200785 0.0847725 0)
(0.594978 0.329201 0)
(-0.218903 0.00868979 0)
(-0.179398 0.0446109 0)
(-0.115007 0.0828946 0)
(-0.249566 0.122609 0)
(0.725926 0.388429 0)
(-0.240876 0.004565 0)
(-0.207107 0.0391311 0)
(-0.153607 0.0717171 0)
(-0.0807256 0.115262 0)
(-0.300181 0.158381 0)
(0.833712 0.437804 0)
(-0.258004 4.9919e-05 0)
(-0.230224 0.032959 0)
(-0.177851 0.0605007 0)
(-0.12525 0.0962168 0)
(-0.0447937 0.140442 0)
(-0.346477 0.192489 0)
(0.905094 0.481434 0)
(-0.26981 -0.00494947 0)
(-0.248627 0.0261545 0)
(-0.197675 0.0487569 0)
(-0.143488 0.0806645 0)
(-0.0983244 0.11397 0)
(-0.0116569 0.156482 0)
(-0.385491 0.223219 0)
(0.949276 0.524465 0)
(-0.275813 -0.0106279 0)
(-0.262181 0.0185078 0)
(-0.213134 0.036224 0)
(-0.158492 0.065271 0)
(-0.109371 0.0948692 0)
(-0.0742637 0.124467 0)
(0.0114293 0.160626 0)
(-0.40128 0.236162 0)
(1.03051 0.51631 0)
(-0.27507 -0.0172793 0)
(-0.270622 0.00967563 0)
(-0.224376 0.022635 0)
(-0.170089 0.0493443 0)
(-0.118666 0.0763616 0)
(-0.0779272 0.102807 0)
(-0.0529582 0.127997 0)
(0.0240536 0.135855 0)
(-0.154179 0.298987 0)
(0.796862 0.406885 0)
(-0.26517 -0.025708 0)
(-0.273245 -0.000785774 0)
(-0.231335 0.00776209 0)
(-0.178512 0.0323717 0)
(-0.125574 0.0575133 0)
(-0.0813972 0.0820718 0)
(-0.0500283 0.10479 0)
(-0.0279734 0.12262 0)
(0.0422873 0.161085 0)
(-0.00629165 0.324369 0)
(0.630888 0.230421 0)
(-0.241285 -0.0370984 0)
(-0.269017 -0.0130522 0)
(-0.233576 -0.00846181 0)
(-0.183712 0.0138247 0)
(-0.130299 0.0376722 0)
(-0.0833484 0.0612775 0)
(-0.0485531 0.0825969 0)
(-0.0238954 0.101424 0)
(0.039187 0.125327 0)
(0.0934913 0.219792 0)
(0.00313765 0.303622 0)
(0.57855 0.123241 0)
(-0.200351 -0.0542606 0)
(-0.256965 -0.0277242 0)
(-0.230176 -0.0262645 0)
(-0.185246 -0.00671888 0)
(-0.132857 0.0161408 0)
(-0.0839599 0.0397375 0)
(-0.0461897 0.0605896 0)
(-0.0196107 0.0788628 0)
(0.0141573 0.0969303 0)
(0.110431 0.156875 0)
(0.114867 0.243553 0)
(-0.0175748 0.263815 0)
(0.632146 0.0538506 0)
(-0.158064 -0.0822636 0)
(-0.238433 -0.047229 0)
(-0.221242 -0.0465416 0)
(-0.182367 -0.029484 0)
(-0.132836 -0.00765622 0)
(-0.0832954 0.0166012 0)
(-0.0432546 0.0381423 0)
(-0.0141563 0.0564213 0)
(0.011164 0.0710579 0)
(0.0772695 0.109854 0)
(0.150335 0.179452 0)
(0.117291 0.232741 0)
(0.0143515 0.200815 0)
(0.478729 0.0727695 0)
(-0.169764 -0.120619 0)
(-0.223915 -0.0733755 0)
(-0.208153 -0.0703917 0)
(-0.17546 -0.0548596 0)
(-0.129967 -0.0338809 0)
(-0.0807195 -0.00910329 0)
(-0.0397698 0.0143747 0)
(-0.00863432 0.0336338 0)
(0.017194 0.0476676 0)
(0.0608042 0.0718599 0)
(0.13238 0.126218 0)
(0.169198 0.17851 0)
(0.118614 0.19985 0)
(-0.131112 0.140646 0)
(0.731413 0.131154 0)
(-0.222607 -0.0903302 0)
(-0.194515 -0.0961174 0)
(-0.165062 -0.0828098 0)
(-0.124178 -0.0628919 0)
(-0.0770375 -0.0376045 0)
(-0.0336964 -0.0123123 0)
(-0.00317878 0.00882686 0)
(0.0241264 0.0241982 0)
(0.0599605 0.0414242 0)
(0.119323 0.081609 0)
(0.170461 0.129189 0)
(0.180775 0.160519 0)
(0.0974786 0.137095 0)
(0.0765639 0.113837 0)
(-0.191461 -0.0506688 0)
(-0.177809 -0.111777 0)
(-0.151776 -0.109904 0)
(-0.115211 -0.0944023 0)
(-0.0710703 -0.0692751 0)
(-0.0280492 -0.0422091 0)
(0.00742181 -0.0208884 0)
(0.0339888 -0.0023936 0)
(0.0644352 0.013738 0)
(0.116695 0.043977 0)
(0.167893 0.0850325 0)
(0.197102 0.120705 0)
(0.178025 0.119976 0)
(0.147275 0.099085 0)
(-0.121384 -0.0496157 0)
(-0.144907 -0.103223 0)
(-0.133322 -0.128355 0)
(-0.102497 -0.124922 0)
(-0.0623947 -0.104002 0)
(-0.0202753 -0.0758809 0)
(0.0159244 -0.051486 0)
(0.0455294 -0.0316349 0)
(0.0754446 -0.0148305 0)
(0.119046 0.0100995 0)
(0.168999 0.0450609 0)
(0.203736 0.0811652 0)
(0.210127 0.098451 0)
(0.225257 0.0822071 0)
(0.212085 0.0777776 0)
(-0.110831 -0.0612065 0)
(-0.0997994 -0.111653 0)
(-0.106667 -0.13592 0)
(-0.0851662 -0.148361 0)
(-0.0503823 -0.138488 0)
(-0.0104436 -0.113199 0)
(0.0262792 -0.0862801 0)
(0.0567564 -0.0628731 0)
(0.0868209 -0.0442272 0)
(0.125822 -0.0221968 0)
(0.172003 0.00815863 0)
(0.209249 0.0422687 0)
(0.224953 0.0681538 0)
(0.250065 0.0726154 0)
(0.242911 0.0907337 0)
(0.361448 0.203512 0)
(-0.0926417 -0.130479 0)
(-0.0782519 -0.144143 0)
(-0.0633631 -0.162542 0)
(-0.0353484 -0.166303 0)
(0.00131743 -0.15089 0)
(0.0377529 -0.12448 0)
(0.0690604 -0.0979798 0)
(0.0987792 -0.0759192 0)
(0.1341 -0.0541225 0)
(0.176387 -0.0269307 0)
(0.214282 0.00499137 0)
(0.235275 0.0331321 0)
(0.256777 0.0512918 0)
(0.264172 0.0661398 0)
(0.181808 0.174633 0)
(-0.242593 -0.0150337 0)
(-0.0618456 -0.140846 0)
(-0.0408394 -0.169486 0)
(-0.0182137 -0.18356 0)
(0.0137944 -0.181009 0)
(0.0490466 -0.16155 0)
(0.0815259 -0.135758 0)
(0.111542 -0.110935 0)
(0.144193 -0.0874243 0)
(0.182267 -0.0613978 0)
(0.219355 -0.0314977 0)
(0.244843 -0.00314046 0)
(0.264739 0.0216022 0)
(0.264125 0.0374139 0)
(0.14945 0.116187 0)
(-0.110055 0.0913332 0)
(-0.368875 -0.541998 0)
(-0.348965 -0.105575 0)
(-0.018353 -0.0656152 0)
(-0.0206694 -0.163178 0)
(-0.000707068 -0.189229 0)
(0.0262394 -0.198859 0)
(0.0590286 -0.191139 0)
(0.0923614 -0.171423 0)
(0.123563 -0.147215 0)
(0.155133 -0.122409 0)
(0.18994 -0.0962496 0)
(0.225144 -0.0674736 0)
(0.253386 -0.0391829 0)
(0.275097 -0.0117047 0)
(0.268268 0.0100483 0)
(0.144371 0.0636002 0)
(-0.066507 0.0673695 0)
(-0.275532 0.0454947 0)
(0.43659 -0.397094 0)
(-0.387715 -0.291053 0)
(-0.344583 -0.254981 0)
(0.0428793 -0.102256 0)
(0.0122795 -0.129029 0)
(0.0158456 -0.18031 0)
(0.0379729 -0.203439 0)
(0.0672602 -0.208482 0)
(0.100066 -0.198828 0)
(0.132466 -0.179693 0)
(0.164295 -0.156233 0)
(0.19734 -0.130373 0)
(0.230654 -0.102164 0)
(0.259529 -0.0734125 0)
(0.281194 -0.0438408 0)
(0.269382 -0.0152825 0)
(0.13518 0.0222487 0)
(-0.0491645 0.0359505 0)
(-0.225284 0.0836731 0)
(-0.342685 -0.175046 0)
(0.148728 -0.173934 0)
(-0.254644 -0.31548 0)
(0.0787071 -0.0917088 0)
(0.056028 -0.0855223 0)
(0.0440948 -0.122965 0)
(0.0361039 -0.157877 0)
(0.048739 -0.194714 0)
(0.0735488 -0.211926 0)
(0.104032 -0.213577 0)
(0.136419 -0.202829 0)
(0.168683 -0.183955 0)
(0.20095 -0.160161 0)
(0.232582 -0.132873 0)
(0.26016 -0.103411 0)
(0.278572 -0.0712988 0)
(0.258962 -0.0370362 0)
(0.120314 -0.0067558 0)
(-0.0477727 0.0175171 0)
(-0.198115 0.0798777 0)
(-0.328257 -0.133632 0)
(1.13684 0.00350163 0)
(0.0967745 -0.0546907 0)
(0.0518987 -0.0660134 0)
(0.0720737 -0.0642205 0)
(0.0617828 -0.103879 0)
(0.0558716 -0.140078 0)
(0.0600926 -0.175305 0)
(0.0780402 -0.202336 0)
(0.104433 -0.214427 0)
(0.134858 -0.213137 0)
(0.166438 -0.201144 0)
(0.197721 -0.181395 0)
(0.227381 -0.156006 0)
(0.251995 -0.126309 0)
(0.264335 -0.0918015 0)
(0.235656 -0.053351 0)
(0.101005 -0.0210231 0)
(-0.0535341 0.00548258 0)
(-0.18414 0.0691807 0)
(-0.301349 -0.1213 0)
(0.0779154 -0.0137247 0)
(0.0529531 -0.0406732 0)
(0.0685575 -0.0466234 0)
(0.088479 -0.0443505 0)
(0.0763649 -0.0809292 0)
(0.0697936 -0.118071 0)
(0.0707165 -0.152833 0)
(0.0814709 -0.182738 0)
(0.101941 -0.202774 0)
(0.128378 -0.2101 0)
(0.157395 -0.205651 0)
(0.186468 -0.191328 0)
(0.213181 -0.16897 0)
(0.233448 -0.139946 0)
(0.2384 -0.104263 0)
(0.201558 -0.0632305 0)
(0.0770994 -0.0260141 0)
(-0.06144 -0.00314658 0)
(-0.179267 0.0601957 0)
(-0.277152 -0.123341 0)
(0.0367435 -0.0181093 0)
(0.0687483 -0.0295958 0)
(0.085501 -0.0306079 0)
(0.102378 -0.0250492 0)
(0.0900383 -0.0588566 0)
(0.0807059 -0.0936826 0)
(0.0783543 -0.12767 0)
(0.0837291 -0.158003 0)
(0.0974918 -0.181775 0)
(0.118209 -0.195565 0)
(0.142751 -0.197938 0)
(0.167938 -0.189405 0)
(0.190448 -0.171093 0)
(0.20532 -0.143936 0)
(0.203021 -0.108543 0)
(0.160922 -0.0671195 0)
(0.0505485 -0.0275608 0)
(-0.0718552 -0.00900224 0)
(-0.179807 0.0559176 0)
(-0.259624 -0.130917 0)
(0.0596925 -0.01563 0)
(0.0866348 -0.0195147 0)
(0.0948907 -0.016741 0)
(0.117503 -0.0163426 0)
(0.102298 -0.0391713 0)
(0.0901734 -0.0700202 0)
(0.083794 -0.101488 0)
(0.084235 -0.130787 0)
(0.091706 -0.155455 0)
(0.105771 -0.172759 0)
(0.124313 -0.18028 0)
(0.144128 -0.177072 0)
(0.16125 -0.163222 0)
(0.170261 -0.139331 0)
(0.161615 -0.105852 0)
(0.117248 -0.0657208 0)
(0.021852 -0.0275275 0)
(-0.0850263 -0.0123309 0)
(-0.182799 0.0565618 0)
(-0.248276 -0.140282 0)
(0.0827654 -0.0115528 0)
(0.0965018 -0.010412 0)
(0.0933366 -0.0131149 0)
(0.131367 -0.0109743 0)
(0.113728 -0.0239502 0)
(0.0984356 -0.0488633 0)
(0.0880077 -0.0765072 0)
(0.0834348 -0.103327 0)
(0.084947 -0.127052 0)
(0.0922468 -0.145349 0)
(0.103992 -0.155911 0)
(0.117351 -0.156864 0)
(0.128385 -0.147441 0)
(0.131333 -0.127512 0)
(0.117774 -0.0978427 0)
(0.0735468 -0.0606197 0)
(-0.0104504 -0.0250802 0)
(-0.0995471 -0.0139648 0)
(-0.186181 0.0608026 0)
(-0.240945 -0.150559 0)
(0.0962849 -0.00778646 0)
(0.0998153 -0.00344682 0)
(0.0892579 -0.00847413 0)
(0.138929 -0.00706817 0)
(0.12268 -0.0130462 0)
(0.105391 -0.0314634 0)
(0.0914333 -0.0542783 0)
(0.08207 -0.0776245 0)
(0.0778295 -0.0990973 0)
(0.0785971 -0.116642 0)
(0.0833648 -0.128193 0)
(0.0899011 -0.131896 0)
(0.0943663 -0.126173 0)
(0.0916994 -0.11058 0)
(0.0738321 -0.0853549 0)
(0.0318151 -0.0529076 0)
(-0.0407078 -0.0211853 0)
(-0.11442 -0.0151803 0)
(-0.188761 0.0671391 0)
(-0.235645 -0.162162 0)
(0.102432 -0.00474491 0)
(0.0999897 0.000154748 0)
(0.0868178 -0.00600497 0)
(0.141094 -0.00407487 0)
(0.127497 -0.00521075 0)
(0.110329 -0.0181824 0)
(0.0941066 -0.0356326 0)
(0.0806639 -0.0549914 0)
(0.0711048 -0.0735323 0)
(0.0656987 -0.0891947 0)
(0.0638076 -0.100311 0)
(0.0635136 -0.105119 0)
(0.0617355 -0.102264 0)
(0.0533844 -0.0904753 0)
(0.0329911 -0.0701077 0)
(-0.00892595 -0.0424504 0)
(-0.0677893 -0.0165964 0)
(-0.128306 -0.0172641 0)
(-0.190173 0.074182 0)
(-0.231143 -0.175127 0)
(0.104595 -0.00310944 0)
(0.099772 0.00159379 0)
(0.0862393 -0.00463101 0)
(0.139095 -0.00146519 0)
(0.128567 0.00094023 0)
(0.112801 -0.0079306 0)
(0.095783 -0.0205846 0)
(0.0794255 -0.035969 0)
(0.0653636 -0.0514448 0)
(0.0544247 -0.0648738 0)
(0.0464027 -0.074637 0)
(0.0399374 -0.0795679 0)
(0.0320573 -0.0781702 0)
(0.0193873 -0.0698211 0)
(-0.00459942 -0.0534479 0)
(-0.041462 -0.0327132 0)
(-0.0902669 -0.0126617 0)
(-0.140366 -0.0200196 0)
(-0.190669 0.0804904 0)
(-0.226889 -0.188477 0)
(0.105134 -0.00239183 0)
(0.0998796 0.00217914 0)
(0.0864282 -0.00376615 0)
(0.133681 0.00103804 0)
(0.126481 0.00621507 0)
(0.112871 0.000540965 0)
(0.0962675 -0.00840723 0)
(0.0782994 -0.0203463 0)
(0.0608918 -0.0331067 0)
(0.0453997 -0.0444847 0)
(0.0322 -0.0529349 0)
(0.0203263 -0.0572988 0)
(0.00781079 -0.0569841 0)
(-0.00961567 -0.0505112 0)
(-0.0329926 -0.039952 0)
(-0.065283 -0.0257466 0)
(-0.106802 -0.0109832 0)
(-0.149804 -0.0230413 0)
(-0.1908 0.0848621 0)
(-0.222821 -0.200539 0)
(0.105192 -0.00203028 0)
(0.100093 0.00249735 0)
(0.0868898 -0.00311356 0)
(0.124797 0.00372822 0)
(0.121734 0.0111953 0)
(0.110799 0.00813398 0)
(0.0953996 0.00187891 0)
(0.0771265 -0.00742768 0)
(0.0576628 -0.0180601 0)
(0.0388626 -0.0279931 0)
(0.021716 -0.0355846 0)
(0.00601093 -0.039992 0)
(-0.0103435 -0.0401404 0)
(-0.0282373 -0.0376595 0)
(-0.051219 -0.0315173 0)
(-0.0811512 -0.022134 0)
(-0.118151 -0.011247 0)
(-0.156667 -0.0257865 0)
(-0.191117 0.0863107 0)
(-0.219207 -0.209742 0)
(0.105036 -0.00176381 0)
(0.100205 0.00279856 0)
(0.0877465 -0.00240634 0)
(0.111687 0.00710647 0)
(0.114412 0.0164309 0)
(0.106918 0.0154044 0)
(0.0933198 0.0110445 0)
(0.0755583 0.00364415 0)
(0.0554317 -0.005471 0)
(0.0346329 -0.0145996 0)
(0.0149323 -0.0221304 0)
(-0.00331206 -0.0269379 0)
(-0.0205351 -0.0295208 0)
(-0.0392258 -0.0295177 0)
(-0.0619634 -0.0268339 0)
(-0.0908964 -0.0208111 0)
(-0.125711 -0.0128228 0)
(-0.161682 -0.02804 0)
(-0.191996 0.0841948 0)
(-0.216549 -0.215403 0)
(0.104629 -0.00149415 0)
(0.10018 0.00336391 0)
(0.0897823 -0.00112564 0)
(0.0913147 0.0119497 0)
(0.104488 0.0226684 0)
(0.101436 0.0229023 0)
(0.0902389 0.0196349 0)
(0.0737019 0.013504 0)
(0.0536823 0.00545871 0)
(0.0322233 -0.00325405 0)
(0.0111222 -0.0112345 0)
(-0.00820702 -0.0173267 0)
(-0.0262255 -0.0216293 0)
(-0.0451135 -0.0238667 0)
(-0.0679817 -0.0236727 0)
(-0.0968011 -0.0204116 0)
(-0.13096 -0.0147775 0)
(-0.165766 -0.0297257 0)
(-0.193572 0.0803997 0)
(-0.21546 -0.217329 0)
(0.103827 -0.00110728 0)
(0.0999337 0.00474441 0)
(0.0949519 0.00354404 0)
(0.0758949 0.0387876 0)
(0.0915353 0.0312869 0)
(0.0946359 0.0312879 0)
(0.0863739 0.0281721 0)
(0.0715461 0.0226429 0)
(0.0524343 0.0152523 0)
(0.0309955 0.00679033 0)
(0.00940444 -0.0016722 0)
(-0.0105827 -0.00904388 0)
(-0.0290329 -0.0148224 0)
(-0.0482042 -0.0187783 0)
(-0.0711978 -0.0207928 0)
(-0.100382 -0.0198236 0)
(-0.134817 -0.0164121 0)
(-0.169416 -0.0308823 0)
(-0.195781 0.0757726 0)
(-0.21641 -0.217093 0)
(0.102254 -0.000361107 0)
(0.098655 0.0083101 0)
(0.0933815 0.0268543 0)
(0.0639679 0.0638789 0)
(0.0788049 0.0502411 0)
(0.0868479 0.0415089 0)
(0.0820479 0.0371813 0)
(0.0691821 0.0315029 0)
(0.0513839 0.0243616 0)
(0.0306977 0.0160033 0)
(0.00913278 0.00716651 0)
(-0.0113536 -0.00117381 0)
(-0.0302333 -0.00816525 0)
(-0.0495886 -0.0135721 0)
(-0.072723 -0.0174019 0)
(-0.102401 -0.0185597 0)
(-0.137616 -0.0173455 0)
(-0.172711 -0.0314985 0)
(-0.198498 0.0706612 0)
(-0.219462 -0.21538 0)
(0.0989715 0.00130346 0)
(0.0928066 0.0179158 0)
(0.0762998 0.0451917 0)
(0.0782558 0.0884866 0)
(0.0675902 0.0754119 0)
(0.0801123 0.0568102 0)
(0.0777121 0.0472366 0)
(0.0668151 0.0404534 0)
(0.0504445 0.0331373 0)
(0.030823 0.0247798 0)
(0.00977834 0.0156429 0)
(-0.0109022 0.00656044 0)
(-0.0303653 -0.0013901 0)
(-0.0499253 -0.00795817 0)
(-0.0730804 -0.0132799 0)
(-0.103209 -0.0163879 0)
(-0.139418 -0.0173731 0)
(-0.175498 -0.0315112 0)
(-0.201577 0.0652685 0)
(-0.224591 -0.212326 0)
(0.0920745 0.00469783 0)
(0.0783885 0.0272737 0)
(0.0714954 0.0617571 0)
(-0.11344 0.144617 0)
(0.0981926 0.104932 0)
(0.0740696 0.0777499 0)
(0.0748173 0.0596764 0)
(0.0647722 0.0497912 0)
(0.0496475 0.0418039 0)
(0.0311664 0.0333541 0)
(0.0109106 0.0240223 0)
(-0.00969508 0.0143248 0)
(-0.0295658 0.00552243 0)
(-0.0495275 -0.00195753 0)
(-0.0726182 -0.00841179 0)
(-0.102995 -0.0132394 0)
(-0.140205 -0.0163372 0)
(-0.177571 -0.0308381 0)
(-0.20486 0.0598029 0)
(-0.231711 -0.207821 0)
(0.0794142 0.00873668 0)
(0.0652337 0.0359657 0)
(-0.0871055 0.106226 0)
(0.0215326 0.14626 0)
(0.0955106 0.104391 0)
(0.0727836 0.0749459 0)
(0.0639871 0.06001 0)
(0.0491215 0.0504563 0)
(0.0316007 0.0418348 0)
(0.0123185 0.0324269 0)
(-0.00790311 0.0222482 0)
(-0.0281068 0.0126073 0)
(-0.0484421 0.00428058 0)
(-0.071583 -0.00293784 0)
(-0.101959 -0.0091279 0)
(-0.139986 -0.0141167 0)
(-0.17877 -0.0293899 0)
(-0.208189 0.0545657 0)
(-0.240635 -0.201711 0)
(0.0635901 0.0131841 0)
(-0.048737 0.0670587 0)
(0.100647 0.188128 0)
(0.0773417 0.114543 0)
(0.0852228 0.0947563 0)
(0.0643093 0.071138 0)
(0.0493634 0.0591534 0)
(0.0320049 0.0502135 0)
(0.0137831 0.0409343 0)
(-0.00567638 0.0304142 0)
(-0.0259352 0.0199434 0)
(-0.046861 0.0106679 0)
(-0.0700531 0.00285816 0)
(-0.100347 -0.00417331 0)
(-0.138848 -0.010643 0)
(-0.179037 -0.0270801 0)
(-0.211391 0.0499849 0)
(-0.251025 -0.193966 0)
(-0.00419583 0.0319124 0)
(0.141784 0.152684 0)
(0.093817 0.0544873 0)
(0.0877777 0.0988756 0)
(0.0727126 0.0849267 0)
(0.0503959 0.0675696 0)
(0.0323413 0.0583655 0)
(0.0149736 0.0496032 0)
(-0.00322684 0.0389856 0)
(-0.0231018 0.0276527 0)
(-0.0445154 0.0172556 0)
(-0.0683904 0.00866632 0)
(-0.0982818 0.00132299 0)
(-0.13697 -0.00595741 0)
(-0.178421 -0.023835 0)
(-0.214254 0.0465612 0)
(-0.26234 -0.184782 0)
(-0.228165 0.207927 0)
(0.148397 -0.034931 0)
(0.0927644 0.0603684 0)
(0.0822217 0.0888537 0)
(0.0561096 0.0762627 0)
(0.0320303 0.0658336 0)
(0.0153899 0.058438 0)
(-0.000920846 0.0482857 0)
(-0.0197089 0.0360155 0)
(-0.0413276 0.0242103 0)
(-0.0661505 0.0144635 0)
(-0.0962552 0.00685882 0)
(-0.134541 -0.00033977 0)
(-0.17708 -0.0196006 0)
(-0.216507 0.0447207 0)
(-0.27382 -0.174585 0)
(-0.328782 0.106116 0)
(0.183044 0.0288475 0)
(0.0818293 0.0681355 0)
(0.0661554 0.0758341 0)
(0.0321963 0.0725455 0)
(0.0140738 0.0673529 0)
(0.000495059 0.0586643 0)
(-0.0159761 0.0455671 0)
(-0.0372362 0.0318849 0)
(-0.0631462 0.020454 0)
(-0.0943216 0.0122057 0)
(-0.131704 0.00546984 0)
(-0.175206 -0.0143379 0)
(-0.217847 0.0446208 0)
(-0.2845 -0.163898 0)
(-0.280874 0.156619 0)
(0.241002 0.0587279 0)
(0.0612989 0.0487497 0)
(0.0207377 0.0732851 0)
(0.0107748 0.0773748 0)
(8.32786e-06 0.0707754 0)
(-0.0125009 0.0571331 0)
(-0.0322383 0.0409319 0)
(-0.0592383 0.0270182 0)
(-0.0921019 0.0175337 0)
(-0.12949 0.0107814 0)
(-0.172785 -0.00798852 0)
(-0.218007 0.0459587 0)
(-0.293286 -0.153142 0)
(-0.557404 0.236648 0)
(0.29554 0.0756743 0)
(0.0186652 0.0910567 0)
(-0.0192943 0.100189 0)
(-0.0030644 0.088671 0)
(-0.0101515 0.0722694 0)
(-0.0266259 0.0525099 0)
(-0.0542867 0.0349145 0)
(-0.0895091 0.0232659 0)
(-0.12755 0.015864 0)
(-0.170149 -0.000559801 0)
(-0.216704 0.0476957 0)
(-0.299084 -0.142441 0)
(-0.761459 0.309094 0)
(0.089033 0.172542 0)
(-0.0139344 0.14207 0)
(-0.032299 0.128533 0)
(-0.00659921 0.0953799 0)
(-0.0209353 0.0687348 0)
(-0.0482566 0.0455621 0)
(-0.0862596 0.0301501 0)
(-0.12565 0.0213384 0)
(-0.167163 0.00687394 0)
(-0.213743 0.0476528 0)
(-0.301039 -0.131541 0)
(-0.644609 0.313707 0)
(0.0372932 0.190491 0)
(-0.0264179 0.181761 0)
(-0.0191111 0.139843 0)
(-0.0118814 0.0930249 0)
(-0.0410512 0.0609704 0)
(-0.0818358 0.0392519 0)
(-0.12349 0.0279035 0)
(-0.163387 0.0143224 0)
(-0.209455 0.0460879 0)
(-0.29879 -0.119998 0)
(-0.554608 0.223136 0)
(0.00999456 0.1874 0)
(-0.0189697 0.207961 0)
(-0.00435828 0.132935 0)
(-0.0299102 0.0824743 0)
(-0.0756862 0.0514607 0)
(-0.12075 0.0361853 0)
(-0.158463 0.0223959 0)
(-0.203194 0.0445156 0)
(-0.293076 -0.108938 0)
(-0.526492 0.108298 0)
(0.106287 0.205863 0)
(-0.00498108 0.199029 0)
(-0.0115824 0.111039 0)
(-0.0656872 0.0660242 0)
(-0.117914 0.0464067 0)
(-0.152024 0.0317228 0)
(-0.194371 0.0436404 0)
(-0.284838 -0.0993079 0)
(-0.503913 0.045233 0)
(0.162727 0.205108 0)
(0.000750275 0.160416 0)
(-0.0456903 0.0798977 0)
(-0.115769 0.0576994 0)
(-0.144657 0.0425173 0)
(-0.182442 0.0438816 0)
(-0.27416 -0.0903514 0)
(-0.374571 0.0982572 0)
(0.182923 0.180644 0)
(-0.017128 0.0978645 0)
(-0.109028 0.0683694 0)
(-0.13795 0.0547059 0)
(-0.167252 0.0450722 0)
(-0.26112 -0.0813217 0)
(-0.335043 0.158253 0)
(0.183601 0.146537 0)
(-0.0788041 0.0867004 0)
(-0.125637 0.0698211 0)
(-0.147517 0.0465309 0)
(-0.246271 -0.0720976 0)
(-0.400695 0.224378 0)
(-0.0261146 0.150619 0)
(-0.0820606 0.0932914 0)
(-0.114103 0.050151 0)
(-0.228179 -0.0629003 0)
(-0.521834 0.243677 0)
(-0.0749406 0.117649 0)
(-0.0483895 0.0645719 0)
(-0.195857 -0.0518691 0)
(-0.605287 0.0987835 0)
(0.123316 0.0960242 0)
(-0.135209 -0.0303723 0)
(-0.365331 0.0659375 0)
(-0.114326 0.0135574 0)
(-0.583977 0.052037 0)
)
;

boundaryField
{
    floor
    {
        type            noSlip;
    }
    ceiling
    {
        type            noSlip;
    }
    sWall
    {
        type            noSlip;
    }
    nWall
    {
        type            noSlip;
    }
    sideWalls
    {
        type            empty;
    }
    glass1
    {
        type            noSlip;
    }
    glass2
    {
        type            noSlip;
    }
    sun
    {
        type            noSlip;
    }
    Table_master
    {
        type            noSlip;
    }
    Table_slave
    {
        type            noSlip;
    }
    inlet
    {
        type            fixedValue;
        value           uniform (0.5 0 0);
    }
    outlet
    {
        type            zeroGradient;
    }
}


// ************************************************************************* //
