/*--------------------------------*- C++ -*----------------------------------*\
  =========                 |
  \\      /  F ield         | OpenFOAM: The Open Source CFD Toolbox
   \\    /   O peration     | Website:  https://openfoam.org
    \\  /    A nd           | Version:  6
     \\/     M anipulation  |
\*---------------------------------------------------------------------------*/
FoamFile
{
    version     2.0;
    format      ascii;
    class       volScalarField;
    location    "48600.0000009139985";
    object      k;
}
// * * * * * * * * * * * * * * * * * * * * * * * * * * * * * * * * * * * * * //

dimensions      [0 2 -2 0 0 0 0];

internalField   nonuniform List<scalar> 
778
(
0.00158588
0.00180106
0.00178795
0.00194653
0.00209781
0.00224013
0.00237686
0.00251253
0.00265292
0.0028063
0.00295658
0.00310291
0.00325047
0.00341291
0.00358658
0.000793085
0.00162485
0.00165138
0.00157252
0.00144486
0.0012827
0.00113063
0.00099896
0.000887216
0.000792668
0.00071293
0.000644924
0.000585947
0.000533452
0.000484727
0.000436273
0.000397976
0.000326099
0.00340689
0.00643317
0.00268751
0.00274614
0.00288785
0.00305446
0.00323486
0.00343068
0.00364398
0.00387439
0.00412654
0.00438033
0.00459606
0.00470117
0.00459526
0.00429891
0.00390781
0.00358039
0.00253536
0.00281144
0.00295359
0.00289604
0.00266339
0.00226468
0.0019056
0.00160945
0.00136976
0.00117594
0.0010171
0.000885283
0.000774016
0.000681199
0.000615177
0.000574644
0.000864176
0.000523979
0.0054906
0.0127804
0.0034779
0.00321222
0.00329757
0.00345543
0.00363685
0.00384108
0.00407149
0.00432821
0.00463635
0.0050117
0.00545174
0.00596095
0.0065315
0.00685968
0.00627749
0.0053858
0.00403714
0.00416844
0.00417134
0.00397377
0.00357598
0.00266392
0.00201431
0.00157524
0.00126929
0.00104936
0.000887064
0.00076474
0.000671915
0.000603703
0.000551502
0.000548685
0.00116524
0.00067791
0.00797322
0.0217568
0.00449091
0.00339084
0.00334165
0.00343824
0.00354965
0.00366917
0.00380948
0.00399189
0.00425982
0.00464924
0.00517195
0.00582574
0.00655485
0.00713418
0.00722766
0.00724199
0.00534341
0.00555077
0.00537603
0.00512501
0.00478629
0.00434743
0.00345502
0.00285812
0.00243509
0.00210926
0.00185003
0.00163169
0.00143835
0.00125837
0.00107747
0.000800412
0.000659594
0.0014211
0.000821425
0.0108758
0.0336316
0.00621204
0.00342504
0.00315838
0.0031671
0.00318976
0.00321011
0.00325244
0.00336151
0.00359525
0.00398981
0.00455409
0.00527725
0.00608725
0.00681753
0.00728343
0.00764455
0.00751848
0.00665474
0.00607353
0.00557898
0.00509886
0.00462905
0.00412259
0.00366504
0.00327449
0.00293691
0.00263081
0.00234747
0.00207897
0.00181818
0.00155453
0.00122143
0.000929874
0.0011897
0.00121559
0.00116773
0.00204051
0.00186062
0.0141739
0.0475942
0.00928205
0.00348991
0.00290857
0.00282281
0.00276452
0.00269973
0.00266445
0.0027348
0.00298111
0.0034146
0.00402381
0.00479772
0.00565341
0.00646044
0.00706845
0.00740736
0.00732419
0.0067903
0.00621529
0.00563722
0.00507426
0.00455586
0.0040911
0.00369543
0.0033629
0.00307349
0.00280664
0.00255144
0.00229886
0.00204194
0.00177339
0.00147093
0.00117804
0.00111212
0.0011104
0.00171943
0.00512371
0.00265854
0.0179905
0.0606012
0.0143561
0.00381905
0.00271512
0.00252938
0.00241185
0.00229417
0.00222124
0.00231173
0.00263046
0.00313936
0.00380176
0.00463018
0.00552714
0.00636516
0.00699959
0.00732743
0.00725438
0.00681821
0.00621547
0.00555479
0.00491181
0.00434269
0.00387241
0.00350038
0.00320672
0.00296182
0.00274152
0.00252933
0.00231362
0.00208705
0.00184483
0.00158264
0.00132752
0.00115958
0.00109128
0.00156445
0.00631072
0.00370096
0.0216391
0.0704779
0.0214306
0.00510051
0.0027424
0.00237166
0.0022101
0.00208202
0.0020265
0.00221973
0.00265004
0.0032309
0.00393645
0.00477276
0.00569637
0.00657061
0.00722124
0.00751249
0.00738369
0.006896
0.00619798
0.0054266
0.00469117
0.0040642
0.00357427
0.00321238
0.00294766
0.00274109
0.00256455
0.00239634
0.00222252
0.0020355
0.00183191
0.00161302
0.00139816
0.00122947
0.00115205
0.00212312
0.0144522
0.00638306
0.0228321
0.0694973
0.0325272
0.0110491
0.00406403
0.00258654
0.00223528
0.00210306
0.00219023
0.00251304
0.00300111
0.0036021
0.00433123
0.00520959
0.00618063
0.00708276
0.00771324
0.00792054
0.0076632
0.00702462
0.00616433
0.00524747
0.00440657
0.00372172
0.00321617
0.00286857
0.00263542
0.00246905
0.00233655
0.00221186
0.00207992
0.0019335
0.00177039
0.0015936
0.00141811
0.00128415
0.00131911
0.00398984
0.0289385
0.00810859
0.021918
0.0516425
0.0336409
0.0174259
0.00858071
0.00475535
0.00325972
0.00272989
0.00285359
0.00321193
0.00367332
0.00424614
0.00499279
0.00593307
0.00696704
0.00788044
0.00843622
0.00848038
0.00800135
0.00712184
0.00603909
0.00495173
0.00400958
0.00328941
0.00279704
0.00248805
0.00230181
0.00218401
0.00209631
0.00201178
0.00191681
0.00180577
0.00167789
0.00153735
0.00139767
0.00130781
0.00162285
0.00778111
0.0268008
0.00855119
0.0192343
0.0394438
0.0302382
0.0195618
0.0121772
0.00793469
0.00571471
0.00466825
0.00436218
0.00440022
0.00465252
0.00514323
0.00592932
0.00697142
0.00807731
0.00895451
0.00933692
0.00909313
0.00827069
0.00705729
0.00570727
0.0044557
0.00345881
0.0027669
0.0023472
0.00211409
0.00198953
0.00192269
0.00187326
0.00181977
0.00175217
0.00166683
0.00156472
0.00145277
0.00135027
0.00135946
0.00221145
0.00865016
0.024693
0.00858067
0.015951
0.0315906
0.0266519
0.0195373
0.0139734
0.0102814
0.00802494
0.00674907
0.00604787
0.00573028
0.00578103
0.0062688
0.00719812
0.00840159
0.00955031
0.0102716
0.0103061
0.00959277
0.00828414
0.00666004
0.00504853
0.00371472
0.00278985
0.00223233
0.00195318
0.00181341
0.00174468
0.00171133
0.00168431
0.001649
0.001598
0.00152854
0.00144293
0.001354
0.00130594
0.00162808
0.00363454
0.0095832
0.0211894
0.00819597
0.0132668
0.025671
0.0233503
0.0186887
0.0145821
0.0115864
0.00954164
0.00820819
0.00729907
0.00683901
0.00695406
0.00770834
0.00895822
0.0103396
0.0113845
0.0116957
0.0111077
0.00969848
0.00778582
0.00575466
0.00402197
0.00283155
0.00219271
0.00186116
0.0016969
0.00161518
0.00157475
0.00155376
0.0015335
0.00150408
0.0014599
0.00139914
0.00132697
0.00126926
0.00134887
0.00217487
0.0049444
0.0101959
0.016977
0.00760078
0.0133457
0.0224163
0.0220555
0.0177586
0.0143911
0.0118927
0.0100826
0.00876833
0.00791804
0.00777248
0.00846388
0.00984642
0.0114922
0.0128376
0.013382
0.0128431
0.0112909
0.00899303
0.00651927
0.00430726
0.00296165
0.00222543
0.00185644
0.00166851
0.00156756
0.00150945
0.0014741
0.00145012
0.00142536
0.00139315
0.00134997
0.00129611
0.00124096
0.00122391
0.00140464
0.00236611
0.00512466
0.0100011
0.0164979
0.00732453
0.0108732
0.011763
0.0129235
0.0125534
0.0113759
0.0100767
0.00894928
0.00820613
0.00830456
0.00941053
0.0112708
0.0133213
0.0149048
0.015495
0.0148314
0.0129001
0.0101818
0.00703525
0.00464969
0.00314576
0.00235862
0.00197107
0.00177087
0.0016507
0.00156686
0.00150313
0.00145363
0.00141502
0.00137889
0.00134152
0.00130374
0.00127179
0.00126097
0.0013117
0.00155014
0.00236847
0.0046449
0.00927528
0.0159726
0.00837544
0.00354582
0.0048284
0.00600443
0.00661291
0.00729314
0.00880597
0.0113139
0.0141236
0.0165151
0.0179347
0.0180337
0.0167385
0.0142503
0.0106525
0.00736252
0.00486305
0.00335816
0.00259087
0.00222987
0.00204283
0.00192109
0.00182242
0.00173299
0.00165089
0.00158007
0.00152703
0.00149129
0.00147657
0.00149312
0.00155214
0.00166307
0.001847
0.00218329
0.00290985
0.00467545
0.0100011
0.014462
0.00881942
0.00444556
0.00630092
0.00812501
0.0110448
0.0147218
0.0181704
0.020387
0.0214255
0.0213324
0.0201086
0.0175844
0.0141352
0.0105017
0.0072323
0.00492349
0.00359157
0.00294824
0.00265205
0.00249691
0.00239428
0.00231187
0.00223711
0.00216559
0.00209909
0.00204559
0.00201853
0.00202898
0.00209251
0.0022244
0.00243356
0.00272354
0.00310858
0.00365059
0.00452863
0.00625047
0.0114848
0.0147023
0.00915034
0.0150736
0.0244177
0.0180882
0.0144112
0.0170471
0.020751
0.0228803
0.0235697
0.0230933
0.021719
0.0196928
0.0170529
0.0139006
0.010617
0.00770703
0.00556471
0.00432139
0.0037163
0.00342584
0.00326745
0.00317264
0.00311694
0.00308622
0.00306692
0.00304753
0.00302449
0.00300795
0.00301778
0.00307678
0.00320558
0.00341958
0.00373037
0.00414811
0.00469378
0.00542686
0.00649822
0.00828061
0.0118977
0.0160702
0.00839088
0.0138094
0.0170469
0.0178921
0.0207988
0.0217442
0.0221668
0.0211699
0.0193537
0.017229
0.0150478
0.0129136
0.0108796
0.00900608
0.00740108
0.00617007
0.00530519
0.00471692
0.00433243
0.00408506
0.00394384
0.00389596
0.00393023
0.00402958
0.00416977
0.00432241
0.00446133
0.00457108
0.00466205
0.00477585
0.00494145
0.00518123
0.0055164
0.00597372
0.00659912
0.00747542
0.00871857
0.0104798
0.0136382
0.0185812
0.0081034
0.01214
0.0089093
0.00882234
0.00934301
0.00978567
0.00921151
0.00814472
0.00698639
0.00592233
0.00500211
0.00421935
0.00356218
0.00303325
0.00264429
0.00239794
0.00228025
0.00224452
0.00225472
0.00230029
0.00237481
0.00247127
0.00258152
0.0026977
0.00281382
0.00292684
0.00303724
0.00314907
0.00326722
0.00339817
0.00354988
0.00372788
0.00393591
0.00417806
0.00446395
0.00482105
0.00530982
0.00601557
0.00698662
0.00816697
0.00740503
)
;

boundaryField
{
    floor
    {
        type            kqRWallFunction;
        value           nonuniform List<scalar> 
36
(
0.00358658
0.000793085
0.00162485
0.00165138
0.00157252
0.00144486
0.0012827
0.00113063
0.00099896
0.000887216
0.000792668
0.00071293
0.000644924
0.000585947
0.000533452
0.000484727
0.000436273
0.000397976
0.000326099
0.000326099
0.000523979
0.00067791
0.000821425
0.00116773
0.00204051
0.00186062
0.00358658
0.00429891
0.00390781
0.00358039
0.000793085
0.00358039
0.00253536
0.0053858
0.00403714
0.00534341
)
;
    }
    ceiling
    {
        type            kqRWallFunction;
        value           nonuniform List<scalar> 
43
(
0.01214
0.0089093
0.00882234
0.00934301
0.00978567
0.00921151
0.00814472
0.00698639
0.00592233
0.00500211
0.00421935
0.00356218
0.00303325
0.00264429
0.00239794
0.00228025
0.00224452
0.00225472
0.00230029
0.00237481
0.00247127
0.00258152
0.0026977
0.00281382
0.00292684
0.00303724
0.00314907
0.00326722
0.00339817
0.00354988
0.00372788
0.00393591
0.00417806
0.00446395
0.00482105
0.00530982
0.00601557
0.00698662
0.00816697
0.00740503
0.0108732
0.011763
0.00444556
)
;
    }
    sWall
    {
        type            kqRWallFunction;
        value           nonuniform List<scalar> 9(0.021918 0.0192343 0.015951 0.0132668 0.0133457 0.0108732 0.0150736 0.0138094 0.01214);
    }
    nWall
    {
        type            kqRWallFunction;
        value           nonuniform List<scalar> 
14
(
0.00186062
0.00265854
0.00370096
0.00855119
0.00858067
0.00819597
0.00760078
0.00732453
0.00837544
0.00881942
0.00915034
0.00839088
0.0081034
0.00740503
)
;
    }
    sideWalls
    {
        type            empty;
    }
    glass1
    {
        type            kqRWallFunction;
        value           nonuniform List<scalar> 9(0.00158588 0.00340689 0.0054906 0.00797322 0.0108758 0.0141739 0.0179905 0.0216391 0.0228321);
    }
    glass2
    {
        type            kqRWallFunction;
        value           nonuniform List<scalar> 2(0.00638306 0.00810859);
    }
    sun
    {
        type            kqRWallFunction;
        value           nonuniform List<scalar> 
14
(
0.00158588
0.00180106
0.00178795
0.00194653
0.00209781
0.00224013
0.00237686
0.00251253
0.00265292
0.0028063
0.00295658
0.00310291
0.00325047
0.00341291
)
;
    }
    Table_master
    {
        type            kqRWallFunction;
        value           nonuniform List<scalar> 9(0.00266392 0.00201431 0.00157524 0.00126929 0.00104936 0.000887064 0.00076474 0.000671915 0.000603703);
    }
    Table_slave
    {
        type            kqRWallFunction;
        value           nonuniform List<scalar> 9(0.00345502 0.00285812 0.00243509 0.00210926 0.00185003 0.00163169 0.00143835 0.00125837 0.00107747);
    }
    inlet
    {
        type            turbulentIntensityKineticEnergyInlet;
        intensity       0.05;
        value           uniform 0.0009375;
    }
    outlet
    {
        type            zeroGradient;
    }
}


// ************************************************************************* //
