/*--------------------------------*- C++ -*----------------------------------*\
  =========                 |
  \\      /  F ield         | OpenFOAM: The Open Source CFD Toolbox
   \\    /   O peration     | Website:  https://openfoam.org
    \\  /    A nd           | Version:  6
     \\/     M anipulation  |
\*---------------------------------------------------------------------------*/
FoamFile
{
    version     2.0;
    format      ascii;
    class       volScalarField;
    location    "36999.9999985507675";
    object      k;
}
// * * * * * * * * * * * * * * * * * * * * * * * * * * * * * * * * * * * * * //

dimensions      [0 2 -2 0 0 0 0];

internalField   nonuniform List<scalar> 
778
(
0.00158597
0.00180126
0.0017882
0.00194682
0.00209809
0.00224036
0.00237698
0.00251249
0.00265268
0.00280581
0.00295576
0.00310177
0.00324902
0.0034112
0.0035847
0.000792576
0.00162507
0.00165114
0.00157195
0.00144407
0.00128188
0.00112998
0.000998546
0.000886979
0.00079252
0.000712805
0.000644798
0.000585814
0.000533317
0.000484598
0.000436155
0.000397891
0.000326054
0.00340704
0.00643382
0.00268776
0.00274637
0.0028881
0.0030547
0.00323502
0.00343068
0.0036437
0.00387372
0.00412538
0.00437867
0.004594
0.00469896
0.00459325
0.00429678
0.00390574
0.00357886
0.00253806
0.0028132
0.0029547
0.00289624
0.00266283
0.00226364
0.00190449
0.00160848
0.00136901
0.00117541
0.00101677
0.000885065
0.000773857
0.000681071
0.000615082
0.000574578
0.000864641
0.000524122
0.00549089
0.0127822
0.0034783
0.00321237
0.00329772
0.00345557
0.00363691
0.00384095
0.00407104
0.00432728
0.00463494
0.0050098
0.0054495
0.00595874
0.00652991
0.006859
0.00627691
0.00538537
0.00403793
0.00416991
0.00417305
0.00397504
0.00357683
0.00266475
0.00201448
0.0015749
0.00126873
0.00104879
0.000886582
0.000764381
0.000671663
0.000603524
0.000551362
0.000548626
0.00116659
0.000678453
0.00797373
0.0217608
0.00449174
0.00339096
0.00334172
0.00343826
0.00354957
0.00366892
0.00380894
0.00399094
0.00425844
0.00464739
0.00516975
0.0058236
0.00655341
0.007134
0.00722818
0.00724589
0.00534155
0.00554726
0.00537496
0.00512516
0.00478668
0.00434788
0.00345569
0.00285871
0.00243539
0.0021091
0.00184961
0.00163116
0.00143784
0.00125792
0.00107707
0.000800239
0.00065946
0.0014242
0.000822525
0.0108767
0.0336387
0.00621387
0.00342521
0.00315844
0.00316707
0.00318961
0.00320979
0.00325191
0.00336069
0.00359407
0.00398817
0.00455202
0.00527508
0.0060853
0.00681622
0.00728155
0.00764157
0.00751312
0.00665119
0.00607142
0.00557809
0.00509867
0.00462921
0.004123
0.0036653
0.00327441
0.00293657
0.0026302
0.00234668
0.00207815
0.00181753
0.00155421
0.00122129
0.000929479
0.0011913
0.00121673
0.00117074
0.00207294
0.00189145
0.0141753
0.0476045
0.00928596
0.00349028
0.00290867
0.00282279
0.00276436
0.0026994
0.00266398
0.00273426
0.00298039
0.00341361
0.00402251
0.00479647
0.00565196
0.00645939
0.00706597
0.00740366
0.00731955
0.00678662
0.00621292
0.00563603
0.00507381
0.0045558
0.00409122
0.00369551
0.0033628
0.00307326
0.00280615
0.00255068
0.00229803
0.00204135
0.00177328
0.00147092
0.00117719
0.001112
0.00111142
0.00172814
0.00516459
0.00269714
0.0179928
0.0606119
0.0143637
0.00381995
0.00271533
0.00252941
0.0024117
0.00229382
0.00222076
0.00231138
0.00263025
0.00313928
0.00380183
0.00463119
0.00552782
0.00636541
0.00699869
0.00732505
0.00725111
0.00681536
0.00621368
0.00555399
0.00491159
0.00434268
0.00387248
0.00350046
0.00320673
0.00296177
0.00274114
0.00252857
0.00231269
0.00208639
0.00184474
0.00158258
0.00132582
0.00115787
0.00109192
0.00157801
0.00641598
0.00376707
0.021642
0.0704862
0.0214416
0.00510303
0.00274286
0.00237175
0.00220994
0.00208159
0.00202589
0.00221921
0.00264986
0.00323144
0.00393816
0.00477596
0.00570064
0.00657457
0.00722342
0.00751241
0.00738222
0.0068946
0.00619751
0.00542702
0.00469192
0.00406487
0.00357479
0.00321286
0.00294808
0.00274148
0.00256451
0.00239571
0.00222149
0.00203451
0.00183136
0.00161226
0.00139464
0.00122467
0.00115559
0.00219017
0.0143436
0.00657055
0.0228333
0.0694892
0.0325407
0.0110602
0.0040675
0.00258712
0.00223509
0.00210245
0.00218929
0.00251178
0.00300026
0.00360274
0.00433463
0.00521644
0.00618992
0.00709178
0.00771936
0.00792308
0.00766362
0.00702502
0.00616597
0.00525016
0.00440938
0.003724
0.00321789
0.00287001
0.00263672
0.00247031
0.00233728
0.00221182
0.00207913
0.00193225
0.00176888
0.00159084
0.00141064
0.00127386
0.00135104
0.00442628
0.0291907
0.00854809
0.0219171
0.0516276
0.0336449
0.0174359
0.0085871
0.00475752
0.00325953
0.00272862
0.00285161
0.00320945
0.00367159
0.00424714
0.00499887
0.00594517
0.00698296
0.00789544
0.00844628
0.00848492
0.00800313
0.00712424
0.00604383
0.00495806
0.00401572
0.00329424
0.00280062
0.00249099
0.00230452
0.00218665
0.00209846
0.00201319
0.00191738
0.00180549
0.00167631
0.00153229
0.00138423
0.00128589
0.00172633
0.0111088
0.0242101
0.00876747
0.019231
0.0394313
0.030237
0.0195663
0.0121812
0.00793665
0.00571459
0.00466638
0.0043591
0.00439677
0.00465052
0.00514594
0.00594032
0.00699138
0.00810164
0.00897552
0.00934923
0.00909744
0.00827246
0.00706181
0.00571649
0.00446708
0.0034688
0.00277424
0.00235253
0.0021187
0.00199455
0.00192712
0.00187732
0.00182347
0.00175573
0.00167036
0.00156736
0.00145071
0.00133365
0.00128844
0.00196787
0.0104037
0.0235528
0.00886337
0.0159468
0.031585
0.0266508
0.0195389
0.0139752
0.0102824
0.00802492
0.00674825
0.00604529
0.00572727
0.00578052
0.00627613
0.00721808
0.00843298
0.00958411
0.0102962
0.0103158
0.00959217
0.00828382
0.00666703
0.00506341
0.00373036
0.00280012
0.00223975
0.00195938
0.00181966
0.00175109
0.00171755
0.00169018
0.00165484
0.0016048
0.00153723
0.00145381
0.00136266
0.00128344
0.00132347
0.00227823
0.009219
0.0216781
0.00984102
0.0132653
0.0256799
0.0233567
0.0186926
0.0145846
0.0115881
0.00954258
0.00820778
0.00729748
0.00683755
0.00695774
0.00772534
0.00899303
0.0103857
0.0114255
0.0117158
0.0111045
0.00968593
0.007782
0.00576373
0.00403824
0.00284183
0.00219767
0.00186467
0.00170195
0.00162243
0.00158294
0.00156168
0.00154017
0.00150959
0.00146575
0.00140829
0.00134203
0.00128177
0.00128351
0.00161317
0.0030918
0.00963073
0.0195886
0.0104578
0.0133547
0.02243
0.0220682
0.0177658
0.014396
0.0118962
0.0100849
0.00876882
0.00791707
0.00777335
0.00847627
0.00988089
0.0115481
0.012897
0.0134188
0.0128414
0.0112589
0.0089627
0.00651355
0.00430598
0.00295899
0.00221741
0.00184732
0.00166344
0.00156942
0.0015177
0.00148533
0.00146031
0.00143225
0.00139567
0.00134878
0.00129477
0.00124918
0.00126904
0.00155252
0.00254032
0.00489278
0.010386
0.0194664
0.00932277
0.0108785
0.0117686
0.0129256
0.0125537
0.0113753
0.0100755
0.00894751
0.00820314
0.00830075
0.00941542
0.0113001
0.0133819
0.014981
0.0155522
0.0148371
0.0128513
0.0101075
0.00699242
0.00461419
0.00311195
0.00232187
0.00193353
0.00173893
0.00163058
0.00156197
0.00151219
0.0014706
0.00143109
0.00138998
0.00134481
0.00129676
0.00125582
0.00125676
0.00140785
0.00198871
0.00348581
0.00644174
0.0111376
0.0160558
0.00830946
0.00353987
0.00481747
0.00598827
0.00659548
0.00727604
0.00878784
0.011303
0.0141395
0.0165702
0.0180181
0.0181082
0.0167585
0.014193
0.0105589
0.00725273
0.00477035
0.00327347
0.00250841
0.00215017
0.00197069
0.0018629
0.00178449
0.00171997
0.00166345
0.00161281
0.00156793
0.00152947
0.00150417
0.00149059
0.00149771
0.00155952
0.00177574
0.00238366
0.00382083
0.0066159
0.0111318
0.0171712
0.00795498
0.0044462
0.006283
0.00809901
0.011009
0.0146794
0.0181391
0.020382
0.0214571
0.0213971
0.020181
0.0176249
0.0141115
0.0104081
0.007091
0.00476019
0.00342916
0.00279861
0.00252308
0.00239265
0.0023157
0.00225927
0.00221293
0.00217549
0.00215011
0.00214156
0.0021531
0.00218352
0.00222498
0.00227949
0.00235267
0.00246454
0.00269138
0.00320186
0.00432631
0.00666557
0.0113647
0.0173011
0.00945578
0.0150754
0.0245398
0.0181347
0.0143891
0.0169857
0.0206697
0.022789
0.0234883
0.0230427
0.0217008
0.0196965
0.0170379
0.013819
0.0104169
0.00739644
0.00524296
0.00405931
0.00353862
0.00334123
0.00327027
0.00324066
0.00321739
0.00318812
0.00315375
0.0031238
0.00311142
0.00312853
0.003183
0.0032786
0.00341608
0.00359239
0.00380507
0.00407595
0.00449864
0.00518524
0.00637196
0.00865715
0.0147123
0.0178538
0.0102636
0.0138064
0.0170614
0.0178265
0.0207385
0.0216713
0.0220895
0.0210952
0.0192871
0.0171748
0.0150059
0.0128749
0.0108182
0.00886085
0.0071084
0.00570445
0.0047903
0.00430871
0.00410626
0.00406108
0.00409945
0.00417494
0.00425691
0.004328
0.004384
0.00443224
0.00448762
0.00456811
0.00469231
0.00488004
0.00515499
0.00554685
0.00608941
0.00681135
0.00771147
0.00887215
0.0104286
0.0127445
0.017322
0.0203461
0.0109476
0.0121352
0.0089155
0.00883101
0.00936096
0.00981588
0.00926385
0.00821756
0.00707011
0.00599866
0.00504712
0.0042109
0.0034902
0.00291104
0.00251092
0.00230044
0.00221724
0.00221205
0.00224875
0.00230582
0.00237111
0.00243779
0.00250269
0.0025657
0.00262948
0.00269912
0.00278184
0.0028872
0.00302813
0.00322208
0.00349046
0.00385425
0.00432629
0.004906
0.00558504
0.00636831
0.00727031
0.0082599
0.00936244
0.0105092
0.00939014
)
;

boundaryField
{
    floor
    {
        type            kqRWallFunction;
        value           nonuniform List<scalar> 
36
(
0.0035847
0.000792576
0.00162507
0.00165114
0.00157195
0.00144407
0.00128188
0.00112998
0.000998546
0.000886979
0.00079252
0.000712805
0.000644798
0.000585814
0.000533317
0.000484598
0.000436155
0.000397891
0.000326054
0.000326054
0.000524122
0.000678453
0.000822525
0.00117074
0.00207294
0.00189145
0.0035847
0.00429678
0.00390574
0.00357886
0.000792576
0.00357886
0.00253806
0.00538537
0.00403793
0.00534155
)
;
    }
    ceiling
    {
        type            kqRWallFunction;
        value           nonuniform List<scalar> 
43
(
0.0121352
0.0089155
0.00883101
0.00936096
0.00981588
0.00926385
0.00821756
0.00707011
0.00599866
0.00504712
0.0042109
0.0034902
0.00291104
0.00251092
0.00230044
0.00221724
0.00221205
0.00224875
0.00230582
0.00237111
0.00243779
0.00250269
0.0025657
0.00262948
0.00269912
0.00278184
0.0028872
0.00302813
0.00322208
0.00349046
0.00385425
0.00432629
0.004906
0.00558504
0.00636831
0.00727031
0.0082599
0.00936244
0.0105092
0.00939014
0.0108785
0.0117686
0.0044462
)
;
    }
    sWall
    {
        type            kqRWallFunction;
        value           nonuniform List<scalar> 9(0.0219171 0.019231 0.0159468 0.0132653 0.0133547 0.0108785 0.0150754 0.0138064 0.0121352);
    }
    nWall
    {
        type            kqRWallFunction;
        value           nonuniform List<scalar> 
14
(
0.00189145
0.00269714
0.00376707
0.00876747
0.00886337
0.00984102
0.0104578
0.00932277
0.00830946
0.00795498
0.00945578
0.0102636
0.0109476
0.00939014
)
;
    }
    sideWalls
    {
        type            empty;
    }
    glass1
    {
        type            kqRWallFunction;
        value           nonuniform List<scalar> 9(0.00158597 0.00340704 0.00549089 0.00797373 0.0108767 0.0141753 0.0179928 0.021642 0.0228333);
    }
    glass2
    {
        type            kqRWallFunction;
        value           nonuniform List<scalar> 2(0.00657055 0.00854809);
    }
    sun
    {
        type            kqRWallFunction;
        value           nonuniform List<scalar> 
14
(
0.00158597
0.00180126
0.0017882
0.00194682
0.00209809
0.00224036
0.00237698
0.00251249
0.00265268
0.00280581
0.00295576
0.00310177
0.00324902
0.0034112
)
;
    }
    Table_master
    {
        type            kqRWallFunction;
        value           nonuniform List<scalar> 9(0.00266475 0.00201448 0.0015749 0.00126873 0.00104879 0.000886582 0.000764381 0.000671663 0.000603524);
    }
    Table_slave
    {
        type            kqRWallFunction;
        value           nonuniform List<scalar> 9(0.00345569 0.00285871 0.00243539 0.0021091 0.00184961 0.00163116 0.00143784 0.00125792 0.00107707);
    }
    inlet
    {
        type            turbulentIntensityKineticEnergyInlet;
        intensity       0.05;
        value           uniform 0.0009375;
    }
    outlet
    {
        type            zeroGradient;
    }
}


// ************************************************************************* //
