/*--------------------------------*- C++ -*----------------------------------*\
  =========                 |
  \\      /  F ield         | OpenFOAM: The Open Source CFD Toolbox
   \\    /   O peration     | Website:  https://openfoam.org
    \\  /    A nd           | Version:  6
     \\/     M anipulation  |
\*---------------------------------------------------------------------------*/
FoamFile
{
    version     2.0;
    format      ascii;
    class       volScalarField;
    location    "33599.9999978580963";
    object      epsilon;
}
// * * * * * * * * * * * * * * * * * * * * * * * * * * * * * * * * * * * * * //

dimensions      [0 2 -3 0 0 0 0];

internalField   nonuniform List<scalar> 
778
(
0.000253145
0.000306379
0.000303016
0.000344177
0.000385025
0.000424811
0.000464231
0.000504476
0.000547285
0.000595375
0.000643806
0.000692195
0.000742194
0.000798595
0.000860418
8.94233e-05
0.00026285
0.000269285
0.000250212
0.000220331
0.000184231
0.000152417
0.000126578
0.000105959
8.94953e-05
7.6343e-05
6.56857e-05
5.68831e-05
4.94099e-05
4.27945e-05
3.65384e-05
3.18297e-05
2.36068e-05
0.000797072
0.00144333
0.000286991
0.000259567
0.000261655
0.000267617
0.000276503
0.000289923
0.000310166
0.000340361
0.000379578
0.000430718
0.000499156
0.000600447
0.00078572
0.00112954
0.000978892
0.000858582
0.000512246
0.000369766
0.000294501
0.000243141
0.000204266
0.000187079
0.000154788
0.000125043
0.000100716
8.15006e-05
6.65362e-05
5.48326e-05
4.56426e-05
3.87198e-05
3.4532e-05
3.27804e-05
6.58137e-05
4.81187e-05
0.00163082
0.00407962
0.000407434
0.000242904
0.00022907
0.000230978
0.000238191
0.000250455
0.000268356
0.000292624
0.000324758
0.000366852
0.000421294
0.000495089
0.000601587
0.000724924
0.00082996
0.00158463
0.00102773
0.000512501
0.000367929
0.000294502
0.000262319
0.000552208
0.000363128
0.000251054
0.000181511
0.000136386
0.000105968
8.48088e-05
6.98438e-05
5.94843e-05
4.51561e-05
3.80051e-05
0.000108154
7.08672e-05
0.00285393
0.00877176
0.000710038
0.000240712
0.00020245
0.000199981
0.000203153
0.000209779
0.000220594
0.000237511
0.000263208
0.000299982
0.000349253
0.000412473
0.00048824
0.000560461
0.000612482
0.000824238
0.00156443
0.000728977
0.00045982
0.000358308
0.00030192
0.000291828
0.000814465
0.000613076
0.000482277
0.000388788
0.000319339
0.000264482
0.000218885
0.000179121
0.000141943
8.39086e-05
5.4974e-05
0.000148511
9.46692e-05
0.00454674
0.0158297
0.00134676
0.000258357
0.000175711
0.000166763
0.000165773
0.000167751
0.000173915
0.00018742
0.00021167
0.000248378
0.000297857
0.000359496
0.000428043
0.000489451
0.000528722
0.000582466
0.000627301
0.000483082
0.000393398
0.000330963
0.000282259
0.000248619
0.000247852
0.000226803
0.000202957
0.000181053
0.000162662
0.0001465
0.000131839
0.000118259
0.000105114
8.45546e-05
6.43098e-05
0.000105241
0.00013894
0.00016034
0.000361661
0.000323612
0.00676476
0.0248815
0.00255433
0.000318138
0.000155528
0.000137046
0.000132108
0.000130679
0.00013445
0.000148539
0.000176692
0.000218089
0.000270891
0.000334334
0.000402042
0.000462975
0.00050325
0.000521806
0.000504786
0.000438214
0.000373773
0.00031561
0.000264725
0.000223394
0.00019331
0.000169648
0.000150819
0.000135615
0.000123272
0.000112722
0.000103273
9.45206e-05
8.60807e-05
7.59177e-05
6.54291e-05
7.76741e-05
9.98797e-05
0.000207918
0.00105451
0.000556387
0.00967375
0.0336396
0.00458524
0.000465179
0.000150859
0.000116336
0.00010708
0.000103276
0.000107072
0.000127894
0.000166093
0.000215883
0.000273408
0.000340349
0.000409759
0.000470931
0.000510581
0.000520718
0.000494456
0.000437697
0.000371879
0.000307505
0.00025057
0.000204458
0.000169762
0.00014456
0.000126316
0.000112718
0.000102257
9.36899e-05
8.62078e-05
7.93422e-05
7.27975e-05
6.61251e-05
6.03546e-05
6.38925e-05
7.6893e-05
0.000172089
0.00157744
0.00090423
0.0127609
0.0404073
0.0074919
0.000871865
0.000194403
0.000115417
9.7403e-05
9.14688e-05
9.86779e-05
0.000137689
0.000189236
0.000246248
0.000307192
0.000374222
0.000445407
0.000508767
0.00054801
0.000551387
0.000515998
0.000451759
0.000375661
0.000301066
0.000236545
0.000185995
0.000149321
0.000123969
0.000106685
9.45409e-05
8.57073e-05
7.87806e-05
7.28858e-05
6.75374e-05
6.24842e-05
5.76601e-05
5.39656e-05
5.60851e-05
7.07537e-05
0.000339364
0.00524307
0.00198094
0.0138288
0.0414566
0.0139345
0.00316581
0.000630956
0.000208339
0.000132829
0.000116086
0.000142576
0.000192968
0.000249272
0.000306453
0.000367607
0.000437235
0.000511958
0.000576675
0.000611701
0.000603736
0.000552576
0.000471304
0.000378769
0.000291116
0.000218372
0.000164067
0.000126781
0.000102589
8.72534e-05
7.73093e-05
7.06264e-05
6.56299e-05
6.14358e-05
5.76082e-05
5.39691e-05
5.0595e-05
4.84292e-05
5.33229e-05
0.000102481
0.000980222
0.0127178
0.00301255
0.0130048
0.0283656
0.0144159
0.00572887
0.00210641
0.000836037
0.000414562
0.000277405
0.000279463
0.000314865
0.000356232
0.000401917
0.000459081
0.000531792
0.000611131
0.000675066
0.000699495
0.000671194
0.000594315
0.000487206
0.00037312
0.000271041
0.000191338
0.000135838
0.000100699
7.98746e-05
6.7949e-05
6.1162e-05
5.70662e-05
5.41055e-05
5.15387e-05
4.90628e-05
4.66171e-05
4.44428e-05
4.41186e-05
5.87586e-05
0.000258258
0.00326121
0.0101228
0.00310611
0.0106882
0.0193516
0.0120376
0.00630159
0.00317632
0.00167637
0.000988054
0.00068006
0.000560843
0.000517894
0.000510813
0.00053195
0.000584562
0.000664014
0.000748782
0.000806045
0.000807846
0.000744517
0.000628635
0.000486836
0.00034829
0.000234063
0.000152735
0.000101898
7.36259e-05
5.88537e-05
5.1402e-05
4.79381e-05
4.6115e-05
4.47735e-05
4.34392e-05
4.19584e-05
4.03977e-05
3.92488e-05
4.15005e-05
7.96906e-05
0.000719226
0.00332468
0.00731273
0.00294547
0.0080694
0.0137649
0.00968987
0.00593332
0.0035704
0.00222834
0.00149165
0.00109398
0.000870087
0.000744194
0.000686525
0.000691031
0.000751891
0.000846269
0.000933322
0.00096872
0.00092587
0.000805771
0.000635763
0.000453385
0.000293963
0.000177903
0.000107114
6.95927e-05
5.26065e-05
4.44725e-05
4.06225e-05
3.91675e-05
3.85546e-05
3.80922e-05
3.75044e-05
3.6743e-05
3.60117e-05
3.60896e-05
4.11324e-05
0.000101897
0.000723392
0.00289428
0.00625245
0.00275441
0.00612084
0.0101635
0.00778787
0.00531148
0.00357002
0.00246934
0.00178838
0.00136868
0.00109342
0.000926647
0.000860153
0.000888066
0.000984403
0.00109849
0.00116915
0.0011486
0.00102545
0.000821969
0.000587794
0.000370326
0.000208881
0.000114846
7.21349e-05
5.23173e-05
4.29846e-05
3.82933e-05
3.59272e-05
3.49745e-05
3.46173e-05
3.44221e-05
3.42834e-05
3.43486e-05
3.50649e-05
3.75855e-05
4.66302e-05
9.92975e-05
0.000525317
0.00224861
0.00545284
0.00309151
0.00618373
0.00780513
0.00680025
0.0047374
0.00336444
0.00246177
0.00186557
0.00146223
0.00119476
0.00106533
0.00107177
0.00118199
0.00133022
0.0014361
0.00143406
0.00129561
0.00104841
0.000742953
0.000458593
0.000239319
0.000130989
8.13107e-05
5.95525e-05
4.9121e-05
4.34079e-05
3.98444e-05
3.74726e-05
3.60002e-05
3.52928e-05
3.50782e-05
3.55439e-05
3.74225e-05
4.21674e-05
5.25384e-05
7.51698e-05
0.000137351
0.000454241
0.00195436
0.00412859
0.0034359
0.00454676
0.0051123
0.00418408
0.00336103
0.00263899
0.00206937
0.0016483
0.00136141
0.00124529
0.00130204
0.00148019
0.0016874
0.00182113
0.00180802
0.00162589
0.00129417
0.000906955
0.000520897
0.000278714
0.000153717
0.000100011
7.73231e-05
6.65795e-05
6.02884e-05
5.58026e-05
5.21006e-05
4.87913e-05
4.59206e-05
4.43364e-05
4.42132e-05
4.64176e-05
5.3496e-05
7.0308e-05
0.000104617
0.000168472
0.000291579
0.00060692
0.00200642
0.00362312
0.00353581
0.00140061
0.00143048
0.00143188
0.00135186
0.00130897
0.0014225
0.00170901
0.00204533
0.00230638
0.00239932
0.00227714
0.00195934
0.00151342
0.000973976
0.000564361
0.000309136
0.000183603
0.000131061
0.000110203
0.000100702
9.52444e-05
9.13661e-05
8.80765e-05
8.47362e-05
8.08802e-05
7.65301e-05
7.29812e-05
7.30594e-05
7.85217e-05
9.49839e-05
0.000133252
0.000210423
0.000351142
0.000599726
0.00107282
0.00214965
0.00425605
0.00316348
0.00118764
0.00171256
0.00194799
0.00230327
0.0027522
0.00315758
0.00333904
0.00330391
0.00307528
0.00267633
0.00210468
0.00148373
0.000953112
0.000557706
0.000330101
0.00022432
0.000183278
0.000168119
0.000161813
0.000158659
0.000157098
0.000156637
0.000156822
0.000156898
0.000155804
0.000152589
0.000147501
0.000145977
0.000153129
0.000175746
0.000228137
0.000335039
0.000536284
0.000899746
0.00154945
0.00262472
0.00406647
0.00289541
0.00742332
0.00811148
0.00481219
0.00339566
0.00372595
0.00413733
0.00415057
0.00394084
0.00358541
0.00312979
0.00261628
0.00206773
0.00151672
0.00103126
0.00067349
0.000459831
0.000360529
0.000321841
0.000306704
0.000298735
0.000292864
0.000288274
0.000285551
0.000285516
0.000288635
0.000294569
0.000301859
0.000308083
0.000311209
0.000313418
0.000327036
0.000357342
0.000416361
0.000527676
0.000731284
0.00109531
0.0017495
0.00295025
0.00525513
0.00321803
0.00650477
0.00514158
0.00436427
0.00461671
0.00453205
0.00426267
0.00368191
0.00303656
0.0024526
0.00196102
0.00155702
0.00122578
0.000961342
0.000767476
0.00064367
0.000576718
0.000544958
0.000530331
0.000522535
0.000517297
0.00051363
0.000512388
0.000515489
0.00052537
0.000544455
0.00057451
0.000615884
0.000666818
0.000723105
0.000778008
0.000828832
0.000887968
0.000973072
0.00111037
0.00133865
0.00171935
0.00236713
0.00364117
0.00450006
0.00458506
0.00535522
0.00337096
0.00332078
0.00361964
0.00388054
0.00354521
0.0029438
0.00232583
0.00179186
0.00135997
0.00102225
0.000770284
0.000597423
0.000493561
0.000442339
0.00042464
0.000424554
0.000431274
0.000440736
0.000451953
0.000465805
0.000484472
0.000511039
0.000548967
0.000601291
0.000669619
0.000753415
0.000850143
0.000956536
0.00107064
0.00119422
0.0013282
0.00147888
0.00165988
0.00188677
0.00217128
0.00251481
0.00293157
0.00349165
0.00348235
)
;

boundaryField
{
    floor
    {
        Cmu             0.09;
        kappa           0.41;
        E               9.8;
        type            epsilonWallFunction;
        value           nonuniform List<scalar> 
36
(
0.000860418
8.94233e-05
0.00026285
0.000269285
0.000250212
0.000220331
0.000184231
0.000152417
0.000126578
0.000105959
8.94953e-05
7.6343e-05
6.56857e-05
5.68831e-05
4.94099e-05
4.27945e-05
3.65384e-05
3.18297e-05
2.36068e-05
2.36068e-05
4.81187e-05
7.08672e-05
9.46692e-05
0.00016034
0.000361661
0.000323612
0.000860418
0.00112954
0.000978892
0.000858582
8.94233e-05
0.000858582
0.000512246
0.00158463
0.00102773
0.00156443
)
;
    }
    ceiling
    {
        Cmu             0.09;
        kappa           0.41;
        E               9.8;
        type            epsilonWallFunction;
        value           nonuniform List<scalar> 
43
(
0.00535522
0.00337096
0.00332078
0.00361964
0.00388054
0.00354521
0.0029438
0.00232583
0.00179186
0.00135997
0.00102225
0.000770284
0.000597423
0.000493561
0.000442339
0.00042464
0.000424554
0.000431274
0.000440736
0.000451953
0.000465805
0.000484472
0.000511039
0.000548967
0.000601291
0.000669619
0.000753415
0.000850143
0.000956536
0.00107064
0.00119422
0.0013282
0.00147888
0.00165988
0.00188677
0.00217128
0.00251481
0.00293157
0.00349165
0.00348235
0.00454676
0.0051123
0.00118764
)
;
    }
    sWall
    {
        Cmu             0.09;
        kappa           0.41;
        E               9.8;
        type            epsilonWallFunction;
        value           nonuniform List<scalar> 9(0.0130048 0.0106882 0.0080694 0.00612084 0.00618373 0.00454676 0.00742332 0.00650477 0.00535522);
    }
    nWall
    {
        Cmu             0.09;
        kappa           0.41;
        E               9.8;
        type            epsilonWallFunction;
        value           nonuniform List<scalar> 
14
(
0.000323612
0.000556387
0.00090423
0.00310611
0.00294547
0.00275441
0.00309151
0.0034359
0.00353581
0.00316348
0.00289541
0.00321803
0.00458506
0.00348235
)
;
    }
    sideWalls
    {
        type            empty;
    }
    glass1
    {
        Cmu             0.09;
        kappa           0.41;
        E               9.8;
        type            epsilonWallFunction;
        value           nonuniform List<scalar> 9(0.000253145 0.000797072 0.00163082 0.00285393 0.00454674 0.00676476 0.00967375 0.0127609 0.0138288);
    }
    glass2
    {
        Cmu             0.09;
        kappa           0.41;
        E               9.8;
        type            epsilonWallFunction;
        value           nonuniform List<scalar> 2(0.00198094 0.00301255);
    }
    sun
    {
        Cmu             0.09;
        kappa           0.41;
        E               9.8;
        type            epsilonWallFunction;
        value           nonuniform List<scalar> 
14
(
0.000253145
0.000306379
0.000303016
0.000344177
0.000385025
0.000424811
0.000464231
0.000504476
0.000547285
0.000595375
0.000643806
0.000692195
0.000742194
0.000798595
)
;
    }
    Table_master
    {
        Cmu             0.09;
        kappa           0.41;
        E               9.8;
        type            epsilonWallFunction;
        value           nonuniform List<scalar> 9(0.000552208 0.000363128 0.000251054 0.000181511 0.000136386 0.000105968 8.48088e-05 6.98438e-05 5.94843e-05);
    }
    Table_slave
    {
        Cmu             0.09;
        kappa           0.41;
        E               9.8;
        type            epsilonWallFunction;
        value           nonuniform List<scalar> 9(0.000814465 0.000613076 0.000482277 0.000388788 0.000319339 0.000264482 0.000218885 0.000179121 0.000141943);
    }
    inlet
    {
        type            turbulentMixingLengthDissipationRateInlet;
        mixingLength    0.01;
        phi             phi;
        k               k;
        value           uniform 0.000471671;
    }
    outlet
    {
        type            zeroGradient;
    }
}


// ************************************************************************* //
