/*--------------------------------*- C++ -*----------------------------------*\
  =========                 |
  \\      /  F ield         | OpenFOAM: The Open Source CFD Toolbox
   \\    /   O peration     | Website:  https://openfoam.org
    \\  /    A nd           | Version:  6
     \\/     M anipulation  |
\*---------------------------------------------------------------------------*/
FoamFile
{
    version     2.0;
    format      ascii;
    class       surfaceScalarField;
    location    "33599.9999978580963";
    object      phi;
}
// * * * * * * * * * * * * * * * * * * * * * * * * * * * * * * * * * * * * * //

dimensions      [1 0 -1 0 0 0 0];

internalField   nonuniform List<scalar> 
1482
(
-0.00279978
0.00286381
-0.00348397
0.000684192
-0.00414458
0.000660613
-0.00475857
0.000613992
-0.00527986
0.000521289
-0.00569172
0.000411856
-0.00598293
0.000291212
-0.00614045
0.000157518
-0.00614693
6.48458e-06
-0.00597639
-0.000170543
-0.00559882
-0.000377566
-0.00498312
-0.000615701
-0.00405902
-0.000924101
-0.0025802
-0.00147881
-0.00257728
-6.44753e-05
6.93297e-05
0.000780259
-0.000844734
0.00143386
-0.000653601
0.00183442
-0.000400557
0.00205703
-0.000222619
0.00216181
-0.000104774
0.00220905
-4.72381e-05
0.00223171
-2.26674e-05
0.00224142
-9.70641e-06
0.00224234
-9.19363e-07
0.00223531
7.02921e-06
0.0022163
1.90138e-05
0.00217196
4.43395e-05
0.00206905
0.000102902
0.00185212
0.000216935
0.00149408
0.00035804
0.00102162
0.000472458
0.00102806
-0.00204037
0.0050745
-0.00290845
0.00155228
-0.0036942
0.00144636
-0.00434511
0.00126491
-0.00488225
0.00105842
-0.00531091
0.000840524
-0.00562936
0.000609661
-0.00583081
0.000358966
-0.00590459
8.02619e-05
-0.00584283
-0.000232302
-0.00563967
-0.000580723
-0.00528374
-0.000971628
-0.00477383
-0.00143402
-0.00428796
-0.00196468
-0.00470403
-0.00216122
-0.0031178
-0.00158079
-0.00163465
-0.00147747
-0.0016198
0.0013177
-0.00123816
0.00166217
-0.00118921
0.00191459
-0.000906012
0.00210674
-0.000592713
0.00221503
-0.000330907
0.00222423
-0.00011397
0.00222623
-4.92462e-05
0.00222782
-2.42479e-05
0.00222871
-1.06013e-05
0.00222866
-8.71345e-07
0.00222727
8.41746e-06
0.00222307
2.32212e-05
0.00221042
5.69887e-05
0.00214842
0.000164899
0.00189859
0.000466766
0.00146866
0.000787974
0.000904049
0.00103706
0.00194899
-0.00148825
0.00682067
-0.00235913
0.00242315
-0.00312901
0.00221625
-0.00371312
0.00184901
-0.00418365
0.00152895
-0.00455497
0.00121185
-0.00482893
0.000883612
-0.00500229
0.000532334
-0.00506868
0.00014665
-0.005019
-0.000281989
-0.00484244
-0.000757278
-0.00453152
-0.00128255
-0.00411698
-0.00184856
-0.00371951
-0.00236215
-0.00329909
-0.00258165
-0.00236768
-0.0025122
-0.00127376
-0.00257139
-0.00288073
0.00115079
-0.00237449
0.00165429
-0.00169271
0.00195287
-0.0012046
0.00214622
-0.00078606
0.00217755
-0.000362232
0.00206373
0.00201464
0.00199055
0.0019801
0.00197938
0.00198795
0.00201133
0.00206847
0.00223352
0.00187529
0.000824999
0.00142735
0.00123592
0.000806755
0.00165766
0.00278177
-0.00110607
0.00825794
-0.00192798
0.00324506
-0.00256995
0.00285821
-0.00303018
0.00230925
-0.00339758
0.00189635
-0.00368622
0.00150049
-0.00389912
0.00109652
-0.00403448
0.000667691
-0.0040848
0.000196965
-0.00403688
-0.000329907
-0.0038784
-0.000915759
-0.00360517
-0.00155578
-0.00323971
-0.00221401
-0.00281785
-0.00278401
-0.0022785
-0.003121
-0.0015589
-0.0032318
-0.000870797
-0.00325949
-0.000691279
-0.00306025
0.00144532
-0.00212116
0.00137735
-0.00230652
0.0016929
-0.00200826
0.0020054
-0.0015171
0.00227157
-0.00105222
0.00254707
-0.000637736
0.00286284
-0.000315919
0.00303135
-0.000168666
0.00309722
-6.60292e-05
0.00308103
1.60417e-05
0.0029916
8.9278e-05
0.00282999
0.00016145
0.00258848
0.000241359
0.00224418
0.000344145
0.00173981
0.000504221
0.00160386
0.000960949
0.00127712
0.00156266
0.000750759
0.00218401
0.00356682
-0.000803788
0.00945492
-0.00157995
0.00402123
-0.00204855
0.00332681
-0.00236418
0.00262488
-0.00260842
0.00214059
-0.00279378
0.00168585
-0.00292531
0.00122804
-0.00300375
0.000746133
-0.00302259
0.000215801
-0.00296523
-0.000387266
-0.00281841
-0.00106258
-0.0025751
-0.00179909
-0.00224182
-0.00254729
-0.00182567
-0.00320017
-0.00132061
-0.00362605
-0.000744253
-0.00380816
-0.00021307
-0.00379067
0.00026418
-0.0035375
0.00112537
-0.00298235
0.00149138
-0.00267253
0.00175019
-0.00226707
0.00200255
-0.00176947
0.00223243
-0.0012821
0.00244694
-0.00085225
0.00264911
-0.000518088
0.00276053
-0.000280085
0.00279805
-0.000103546
0.00277332
4.07736e-05
0.00269271
0.000169891
0.00255873
0.000295429
0.0023703
0.000429788
0.00212526
0.000589179
0.00183202
0.000797468
0.00162802
0.00116494
0.00148965
0.00170103
0.0013157
0.00235797
0.00231008
0.00257244
0.00133867
0.00100632
0.0018733
-0.000505822
0.00199213
-0.000575885
0.0104772
-0.00132482
0.00477016
-0.0015844
0.00358639
-0.00175025
0.00279073
-0.00186412
0.00225446
-0.00193545
0.00175718
-0.00197072
0.00126332
-0.00197426
0.000749668
-0.00194285
0.000184394
-0.00185489
-0.000475228
-0.00170059
-0.00121689
-0.00146995
-0.00202973
-0.00116587
-0.00285137
-0.000794138
-0.0035719
-0.000374861
-0.00404533
6.51636e-05
-0.00424819
0.000470342
-0.00419585
0.000844837
-0.003912
0.00129594
-0.00343345
0.00159485
-0.00297144
0.00179814
-0.00247037
0.00196967
-0.001941
0.00212164
-0.00143406
0.00225678
-0.000987389
0.00236273
-0.000624044
0.0024223
-0.000339654
0.00243481
-0.000116051
0.00240527
7.03115e-05
0.00233839
0.000236768
0.00223797
0.000395849
0.00210818
0.00055958
0.00195637
0.000740984
0.0017976
0.000956246
0.00170884
0.0012537
0.00177034
0.00163953
0.00198899
0.00213932
0.00224074
0.00232068
0.00175478
0.00149229
0.000830737
0.000418216
0.00292028
-0.000543536
0.0115129
-0.00124378
0.0054704
-0.00119207
0.00353467
-0.00120034
0.002799
-0.00119256
0.00224668
-0.00115892
0.00172354
-0.00110159
0.00120599
-0.00102635
0.000674428
-0.000927535
8.55791e-05
-0.000778426
-0.000624337
-0.000589227
-0.00140609
-0.000349466
-0.00226949
-6.62886e-05
-0.00313454
0.00023773
-0.00387592
0.000547023
-0.00435462
0.000841756
-0.00454291
0.0011046
-0.0044587
0.00133804
-0.00414544
0.00156995
-0.00366536
0.00172975
-0.00313124
0.00182979
-0.00257041
0.00190011
-0.00201133
0.00195653
-0.00149048
0.00200424
-0.00103511
0.00203796
-0.000657762
0.00205174
-0.000353434
0.00204185
-0.000106156
0.00200875
0.000103403
0.00195535
0.000290171
0.00188532
0.000465885
0.00180389
0.000641004
0.00171991
0.000824968
0.00164915
0.00102701
0.00163623
0.00126661
0.00172814
0.00154762
0.00194905
0.00191842
0.00221747
0.00205226
0.00223676
0.001473
0.00165832
0.000996648
0.00468152
-0.000483741
0.0125321
-0.00105171
0.00603838
-0.000697627
0.00318059
-0.000636708
0.00273808
-0.000568192
0.00217817
-0.000463256
0.0016186
-0.000333882
0.00107661
-0.000182211
0.000522756
7.50214e-06
-0.000104134
0.000225949
-0.000842784
0.000465752
-0.00164589
0.000723116
-0.00252685
0.000979295
-0.00339072
0.00120691
-0.00410353
0.00140542
-0.00455313
0.00156609
-0.00470357
0.0016837
-0.0045763
0.00176295
-0.00422469
0.0018162
-0.00371861
0.00182654
-0.00314159
0.00180221
-0.00254608
0.00176229
-0.00197141
0.00172177
-0.00144996
0.00168816
-0.00100149
0.00166133
-0.00063093
0.00163709
-0.000329196
0.00161027
-7.9335e-05
0.0015783
0.000135375
0.00154111
0.000327356
0.00149983
0.000507162
0.00145752
0.000683321
0.00142051
0.00086198
0.00140045
0.00104707
0.00142278
0.00124428
0.00152011
0.00145028
0.00174999
0.00168854
0.00207654
0.00172571
0.00222145
0.00132808
0.00172028
0.00149782
0.00676969
0.00297806
0.0101412
0.00202267
0.00699376
0.000869409
0.00433385
0.000370903
0.00323659
0.000213993
0.00233508
0.000270611
0.00156199
0.000424955
0.000922268
0.000639395
0.000308316
0.000899191
-0.000363929
0.0011646
-0.00110819
0.00144327
-0.00192455
0.00170992
-0.0027935
0.00193518
-0.00361597
0.00209496
-0.0042633
0.00218373
-0.0046419
0.00220438
-0.00472421
0.00216585
-0.00453776
0.0020818
-0.00414063
0.00196739
-0.00360419
0.00182821
-0.00300241
0.00167647
-0.00239435
0.00152919
-0.00182413
0.00140112
-0.00132189
0.00130053
-0.000900897
0.00122846
-0.000558867
0.00117975
-0.00028048
0.00114668
-4.62703e-05
0.00112354
0.000158524
0.0011064
0.000344491
0.00109268
0.000520879
0.00108196
0.00069404
0.00107646
0.000867485
0.00108192
0.0010416
0.00111209
0.00121411
0.0011909
0.00137147
0.00138386
0.00149558
0.00173373
0.00137584
0.00187474
0.00118705
0.000548579
0.00282394
0.00770328
0.00403268
0.0062488
0.00366916
0.00735728
0.00254355
0.00545946
0.00189015
0.00388999
0.00153356
0.00269166
0.00138883
0.00170672
0.00142295
0.000888147
0.00159792
0.000133342
0.00185061
-0.000616614
0.00212827
-0.00138585
0.00240808
-0.00220437
0.00265257
-0.00303799
0.00282009
-0.00378348
0.00288387
-0.00432707
0.002841
-0.00459901
0.00270556
-0.00458876
0.00249998
-0.00433218
0.00224859
-0.00388923
0.00197411
-0.00332971
0.0016937
-0.002722
0.00142472
-0.00212536
0.00118534
-0.00158475
0.000990485
-0.00112703
0.00084665
-0.000757062
0.000752368
-0.000464585
0.000698172
-0.000226283
0.000672498
-2.05964e-05
0.000665935
0.000165087
0.000671057
0.00033937
0.000682524
0.000509413
0.000696968
0.000679596
0.000711745
0.000852707
0.000723939
0.00102941
0.000729479
0.00120857
0.000717788
0.00138316
0.000650489
0.00156289
0.000141186
0.00188515
-0.00139443
0.00272248
-0.00265216
0.00408153
0.00515572
0.00241049
0.00400284
0.00330609
0.00646168
0.00325003
0.00551551
0.00303913
0.00410089
0.00284819
0.00288261
0.00272518
0.00182972
0.00271172
0.000901609
0.00280136
4.3707e-05
0.00296408
-0.000779341
0.00317527
-0.00159704
0.00339281
-0.0024219
0.00355648
-0.00320167
0.00361161
-0.00383861
0.00353181
-0.00424727
0.00332282
-0.00439001
0.00301101
-0.00427695
0.00263087
-0.00395203
0.0022158
-0.00347416
0.0017954
-0.00290931
0.00139347
-0.00232006
0.00103187
-0.00176377
0.000731005
-0.00128388
0.000505051
-0.000901077
0.000353056
-0.000605067
0.000265514
-0.000377042
0.000225055
-0.000185824
0.000216575
-1.21161e-05
0.000228867
0.000152795
0.000253941
0.000314296
0.000286471
0.000476883
0.000322098
0.000643969
0.000354686
0.000820119
0.000374238
0.00100986
0.000361841
0.00122097
0.00027871
0.00146629
3.061e-05
0.001811
-0.000710802
0.00262672
-0.00188211
0.00389379
-0.00219391
0.00439324
0.00307923
0.00145739
0.00273972
0.00274896
0.00517011
0.00343294
0.00483153
0.00371896
0.00381487
0.00381761
0.00278397
0.00384619
0.00180115
0.00388325
0.000864545
0.00395359
-2.66311e-05
0.00406461
-0.000890362
0.00420536
-0.00173779
0.00432414
-0.00254069
0.00435018
-0.00322772
0.0042321
-0.00372053
0.00395797
-0.00397313
0.00355048
-0.00398251
0.00304953
-0.00377599
0.00249899
-0.00340148
0.00193752
-0.00291268
0.00139925
-0.00237104
0.000911466
-0.00183227
0.000501755
-0.00135406
0.000190379
-0.000972506
-1.64537e-05
-0.000694244
-0.000135437
-0.000486084
-0.000192572
-0.000319906
-0.000210406
-0.00016799
-0.000202375
-2.01462e-05
-0.000176696
0.000127117
-0.000138307
0.000275907
-9.02825e-05
0.000428859
-3.57154e-05
0.000589402
1.97919e-05
0.000764611
6.49663e-05
0.000964682
7.71429e-05
0.00120879
9.84593e-06
0.00153359
-0.000212228
0.00203313
-0.000637886
0.00305277
-0.00143541
0.00469167
-0.00175379
0.00471185
0.00145631
0.00217325
0.000792461
0.00294294
0.00440041
0.00359277
0.00418171
0.00416298
0.00324466
0.00449094
0.00245601
0.00466586
0.00162623
0.00478374
0.000746661
0.00489007
-0.000132952
0.00499801
-0.000998313
0.00507702
-0.00181681
0.00506135
-0.00252503
0.00489099
-0.00305737
0.00454377
-0.00337331
0.00403879
-0.00346815
0.003421
-0.00336472
0.00274111
-0.0030961
0.00204741
-0.00270778
0.00137778
-0.00224304
0.00077115
-0.00176441
0.000255248
-0.00131637
-0.000130082
-0.000968729
-0.000378783
-0.000723807
-0.000518497
-0.000554531
-0.000587108
-0.000417472
-0.000614079
-0.000292934
-0.000613862
-0.000168205
-0.000594777
-3.92292e-05
-0.000561497
9.38368e-05
-0.000515712
0.000230123
-0.000457767
0.000370914
-0.000388172
0.000519808
-0.000308306
0.000684745
-0.000223626
0.000880002
-0.0001484
0.00113356
-0.000112682
0.00149785
-0.000140476
0.00206093
-7.76666e-05
0.00299021
0.000131844
0.00448255
0.000254424
0.00458966
0.00185048
-0.00158214
0.00261973
0.00111571
0.00170257
0.00334833
0.00194908
0.0043509
0.00224209
0.004855
0.00195191
0.00517042
0.00131082
0.00540009
0.000516998
0.00557991
-0.000312778
0.00568063
-0.00109905
0.00563997
-0.00177617
0.00540719
-0.00229227
0.00497084
-0.00262104
0.00435906
-0.00276155
0.00362469
-0.0027338
0.00282748
-0.00256751
0.00201694
-0.00228556
0.00124075
-0.00193158
0.000529397
-0.00153169
-6.73516e-05
-0.00116766
-0.000503702
-0.000880025
-0.000774448
-0.000697989
-0.000926221
-0.000572039
-0.00100576
-0.000474996
-0.00103917
-0.000384057
-0.00104344
-0.000288662
-0.00102787
-0.000183762
-0.000998686
-6.84127e-05
-0.000959655
5.48081e-05
-0.000910626
0.000181095
-0.000849093
0.000309381
-0.000772548
0.000443263
-0.000678178
0.000590374
-0.000565167
0.000766988
-0.000439401
0.00100778
-0.000311174
0.00136955
-0.000146253
0.00189585
0.000225404
0.00261849
0.000953285
0.00375489
0.00138153
0.00416166
0.00337953
0.00288146
0.00456884
0.00486895
0.00164896
0.00535511
0.00175593
0.0055915
0.00171553
0.00582354
0.00107879
0.00601208
0.000328455
0.00607923
-0.000379937
0.00595372
-0.000973574
0.00560258
-0.00142506
0.00503872
-0.00172845
0.00430926
-0.0018916
0.00347248
-0.00192479
0.00258645
-0.00184778
0.00170509
-0.00168616
0.000860381
-0.00144086
9.32336e-05
-0.00116444
-0.000535215
-0.000903249
-0.000979705
-0.000723185
-0.00125505
-0.000604692
-0.00141869
-0.00053437
-0.0015084
-0.000482336
-0.00155162
-0.000431768
-0.00156258
-0.000373082
-0.00154978
-0.00030145
-0.00151939
-0.000214129
-0.00147762
-0.000110177
-0.00143123
8.42086e-06
-0.00138217
0.000132036
-0.00132701
0.00025422
-0.00126254
0.000378791
-0.00118582
0.000513663
-0.00109455
0.000675723
-0.000983865
0.000897068
-0.000835197
0.00122074
-0.00058701
0.00164733
-6.13802e-05
0.00209241
0.00100926
0.00268406
0.00161321
0.00355756
0.00514924
0.00793207
0.00536534
0.00581168
0.00387634
0.00556296
0.00196429
0.0056349
0.00100689
0.00559943
0.000363954
0.00535524
-0.000135747
0.00489207
-0.000510413
0.0042512
-0.000784212
0.00348649
-0.000963763
0.00265059
-0.00105573
0.00178439
-0.0010586
0.000923494
-0.000986905
0.000100919
-0.000863597
-0.000625947
-0.000714005
-0.0011982
-0.000592208
-0.00160054
-0.000500934
-0.00186872
-0.000455032
-0.00203645
-0.000436996
-0.00214099
-0.000429845
-0.00220314
-0.000420184
-0.00223343
-0.000401455
-0.00223689
-0.000369583
-0.00221706
-0.000321234
-0.00217793
-0.000253206
-0.00212529
-0.000162797
-0.00206724
-4.96299e-05
-0.00201417
7.89514e-05
-0.00196881
0.000208837
-0.00192888
0.000338852
-0.00189368
0.000478495
-0.00186111
0.000643235
-0.00181808
0.000854131
-0.00172605
0.00112868
-0.00152326
0.00144428
-0.00110731
0.00167588
-0.000244558
0.00182057
0.000189936
0.00312237
0.00550954
0.00410591
0.00150602
0.00450683
0.00347545
0.00373588
0.00273527
0.00323311
0.0015097
0.00288756
0.000709515
0.00252032
0.000231491
0.00207293
-6.30352e-05
0.00153586
-0.00024714
0.000927521
-0.000355429
0.000264367
-0.000392577
-0.000418122
-0.000376114
-0.00106434
-0.000340692
-0.00162499
-0.000302965
-0.00206678
-0.000272242
-0.00239348
-0.000265553
-0.00261858
-0.000275886
-0.00277545
-0.000298218
-0.00288905
-0.000323429
-0.00297336
-0.000345549
-0.00303286
-0.000360653
-0.00306814
-0.000366105
-0.00307864
-0.000358987
-0.0030643
-0.000335472
-0.00302653
-0.000290881
-0.00296875
-0.00022054
-0.00289717
-0.000121236
-0.00282436
6.04901e-06
-0.00276357
0.000147955
-0.00271751
0.000292727
-0.00268135
0.000442339
-0.00265371
0.00061573
-0.00263308
0.000833743
-0.00260933
0.00110522
-0.00260506
0.00144022
-0.00284711
0.00191797
-0.00364227
0.00261552
-0.00364354
0.00312318
0.00204952
-0.00260524
-0.00677209
-0.00742165
-0.00746684
-0.00375256
-0.00216314
-0.00167481
0.0013977
-0.000761486
0.00182197
-0.000563391
0.00131163
-0.000643402
0.000789544
-0.00082682
0.000414927
-0.00106229
0.000172452
-0.0013445
3.5093e-05
-0.00167545
-2.44565e-05
-0.0020332
-3.48111e-05
-0.00239024
-1.9071e-05
-0.00272586
-5.09035e-06
-0.00301592
-1.29438e-05
-0.00324056
-4.76712e-05
-0.0034073
-9.88922e-05
-0.00353618
-0.00014709
-0.00364561
-0.000188848
-0.00374324
-0.000225828
-0.00382911
-0.000259647
-0.00389949
-0.000290192
-0.00394966
-0.00031579
-0.00397562
-0.000332859
-0.00397531
-0.000335614
-0.00394938
-0.000316673
-0.00390103
-0.000268837
-0.00383496
-0.000187358
-0.0037563
-7.27882e-05
-0.00367536
6.67869e-05
-0.00358924
0.000206392
-0.00348613
0.000339093
-0.00335455
0.000484141
-0.00318172
0.000661072
-0.00295166
0.000875475
-0.00263002
0.00111895
-0.00218185
0.00147016
-0.00180386
0.00223782
-0.00159114
0.00291075
0.000649014
-0.00735443
0.00103603
-0.00812821
-0.00669308
-0.0071798
-0.00311158
-0.00565826
-0.000123843
-0.00456591
0.000729649
-0.00397575
0.000721506
-0.00371851
0.000532367
-0.00365323
0.000349707
-0.003695
0.000214281
-0.00378703
0.000127185
-0.00388818
7.67407e-05
-0.00397569
5.27158e-05
-0.00403864
4.38692e-05
-0.00408127
3.74999e-05
-0.00411789
2.35967e-05
-0.0041613
-4.35671e-06
-0.0042169
-4.33939e-05
-0.00428212
-8.19544e-05
-0.00435407
-0.000116939
-0.00442989
-0.00014999
-0.00450674
-0.000182704
-0.00458189
-0.000214886
-0.00465284
-0.000244637
-0.00471717
-0.000268291
-0.00477209
-0.000280474
-0.00481367
-0.000274936
-0.00483625
-0.000246217
-0.00483237
-0.000191334
-0.00479492
-0.000110482
-0.00471948
-9.00894e-06
-0.00460227
8.88055e-05
-0.00443429
0.000170791
-0.00419415
0.000243792
-0.00385672
0.000323581
-0.00339677
0.000415613
-0.00276442
0.000486793
-0.00173311
0.000439112
0.00027898
0.000225981
0.00208736
0.00110265
0.00292179
0.00157791
-0.00505031
-0.00809842
-0.00816252
-0.00737821
-0.00660982
-0.00603728
-0.00565222
-0.0054057
-0.00524804
-0.00514153
-0.00505892
-0.00498452
-0.0049157
-0.00486013
-0.00483212
-0.00484294
-0.00489222
-0.00497652
-0.00509403
-0.00524462
-0.00542799
-0.00564195
-0.00588064
-0.00613271
-0.00638045
-0.00660055
-0.00676662
-0.00685245
-0.0068372
-0.00672437
-0.00652974
-0.00626242
-0.00591581
-0.00547792
-0.00496989
-0.00451075
-0.00426606
-0.003146
)
;

boundaryField
{
    floor
    {
        type            calculated;
        value           nonuniform List<scalar> 
36
(
0
0
0
0
0
0
0
0
0
0
0
0
0
0
0
0
0
0
0
-6.4387e-06
-1.68819e-05
-2.60258e-05
-3.42908e-05
-3.49115e-05
-2.88076e-05
-2.86273e-05
-2.92019e-06
-5.4413e-06
-5.6876e-06
-5.90766e-06
-4.85447e-06
-8.93827e-06
-1.02099e-05
-1.28316e-05
-1.4457e-05
-1.54459e-05
)
;
    }
    ceiling
    {
        type            calculated;
        value           nonuniform List<scalar> 
43
(
-5.78988e-05
-6.48891e-05
-6.34691e-05
-5.9711e-05
-5.4612e-05
-4.67988e-05
-4.00776e-05
-3.52498e-05
-3.21357e-05
-3.0396e-05
-2.97312e-05
-2.98884e-05
-3.05694e-05
-3.13983e-05
-3.20606e-05
-3.24609e-05
-3.26562e-05
-3.27201e-05
-3.26538e-05
-3.24265e-05
-3.1999e-05
-3.13424e-05
-3.04571e-05
-2.93887e-05
-2.82326e-05
-2.71151e-05
-2.61532e-05
-2.54163e-05
-2.49111e-05
-2.45919e-05
-2.43719e-05
-2.41326e-05
-2.37575e-05
-2.31656e-05
-2.23155e-05
-2.12143e-05
-1.99335e-05
-1.85814e-05
-1.72246e-05
-1.61257e-05
1.93314e-05
1.5186e-05
-0.000246582
)
;
    }
    sWall
    {
        type            calculated;
        value           nonuniform List<scalar> 9(-0.000140236 -0.000164529 -0.00019427 -0.000225987 -0.000245125 -0.00028106 -0.000423638 -0.000453733 -0.000484011);
    }
    nWall
    {
        type            calculated;
        value           nonuniform List<scalar> 
14
(
-9.01995e-05
-9.74055e-05
-0.000102921
-0.000104611
-0.000117435
-0.00013082
-0.00013938
-0.000147413
-0.000156729
-0.000170766
-0.000183989
-0.000190364
-0.000185204
-0.000207855
)
;
    }
    sideWalls
    {
        type            empty;
        value           nonuniform 0();
    }
    glass1
    {
        type            calculated;
        value           nonuniform List<scalar> 9(-6.4034e-05 -0.00017032 -0.00025792 -0.000331202 -0.000393184 -0.000446387 -0.000492197 -0.000535478 -0.000587163);
    }
    glass2
    {
        type            calculated;
        value           nonuniform List<scalar> 2(-0.000367868 -0.000384997);
    }
    sun
    {
        type            calculated;
        value           uniform 0;
    }
    Table_master
    {
        type            calculated;
        value           nonuniform List<scalar> 9(-1.53992e-07 -1.54109e-07 -1.54141e-07 -1.54161e-07 -1.54174e-07 -1.54179e-07 -1.54177e-07 -1.54163e-07 -1.5411e-07);
    }
    Table_slave
    {
        type            calculated;
        value           nonuniform List<scalar> 9(1.53661e-07 1.53717e-07 1.53716e-07 1.53733e-07 1.53753e-07 1.53797e-07 1.53864e-07 1.53957e-07 1.54085e-07);
    }
    inlet
    {
        type            calculated;
        value           uniform -0.0116484;
    }
    outlet
    {
        type            calculated;
        value           nonuniform List<scalar> 2(0.0098009 0.0122832);
    }
}


// ************************************************************************* //
