/*--------------------------------*- C++ -*----------------------------------*\
  =========                 |
  \\      /  F ield         | OpenFOAM: The Open Source CFD Toolbox
   \\    /   O peration     | Website:  https://openfoam.org
    \\  /    A nd           | Version:  6
     \\/     M anipulation  |
\*---------------------------------------------------------------------------*/
FoamFile
{
    version     2.0;
    format      ascii;
    class       surfaceScalarField;
    location    "25399.9999988680029";
    object      phi;
}
// * * * * * * * * * * * * * * * * * * * * * * * * * * * * * * * * * * * * * //

dimensions      [1 0 -1 0 0 0 0];

internalField   nonuniform List<scalar> 
1482
(
-0.00279977
0.00286381
-0.00348396
0.000684186
-0.00414457
0.000660605
-0.00475855
0.000613981
-0.00527982
0.000521274
-0.00569166
0.000411839
-0.00598285
0.000291195
-0.00614035
0.000157501
-0.00614682
6.47131e-06
-0.00597627
-0.000170551
-0.00559871
-0.000377567
-0.00498301
-0.000615693
-0.00405893
-0.000924084
-0.00258014
-0.00147878
-0.00257722
-6.44103e-05
6.92647e-05
0.000780376
-0.000844786
0.00143401
-0.000653636
0.0018346
-0.000400585
0.00205724
-0.000222639
0.00216202
-0.000104779
0.00220926
-4.72405e-05
0.00223193
-2.26757e-05
0.00224165
-9.71663e-06
0.00224257
-9.26541e-07
0.00223555
7.02698e-06
0.00221653
1.90159e-05
0.00217219
4.4345e-05
0.00206927
0.000102913
0.00185232
0.000216955
0.00149424
0.00035808
0.00102172
0.000472519
0.00102816
-0.00204036
0.00507449
-0.00290844
0.00155227
-0.00369418
0.00144634
-0.00434509
0.00126488
-0.0048822
0.00105839
-0.00531085
0.000840489
-0.00562928
0.000609622
-0.00583071
0.000358929
-0.00590447
8.02304e-05
-0.00584269
-0.000232324
-0.00563953
-0.000580731
-0.0052836
-0.000971622
-0.00477369
-0.001434
-0.00428783
-0.00196464
-0.00470389
-0.00216117
-0.00311771
-0.00158073
-0.00163462
-0.0014774
-0.00161977
0.00131773
-0.00123826
0.00166227
-0.00118932
0.00191473
-0.000906102
0.00210694
-0.000592789
0.00221527
-0.000330967
0.00222447
-0.000113979
0.00222647
-4.92415e-05
0.00222804
-2.42518e-05
0.00222894
-1.06111e-05
0.00222889
-8.8093e-07
0.00222751
8.41237e-06
0.0022233
2.32217e-05
0.00221065
5.69943e-05
0.00214865
0.000164913
0.0018988
0.000466801
0.00146883
0.000788051
0.000904162
0.00103719
0.0019492
-0.00148825
0.00682066
-0.00235911
0.00242313
-0.00312899
0.00221622
-0.00371309
0.00184898
-0.00418361
0.00152891
-0.00455492
0.0012118
-0.00482885
0.000883556
-0.0050022
0.000532279
-0.00506857
0.000146602
-0.00501887
-0.000282023
-0.00484231
-0.000757295
-0.00453138
-0.00128255
-0.00411683
-0.00184854
-0.00371936
-0.00236212
-0.00329893
-0.0025816
-0.00236752
-0.00251214
-0.00127364
-0.00257129
-0.00288059
0.00115085
-0.00237465
0.00165438
-0.00169285
0.001953
-0.00120472
0.0021464
-0.000786184
0.00217781
-0.000362386
0.00206399
0.0020149
0.0019908
0.00198035
0.00197962
0.00198819
0.00201156
0.00206871
0.00223378
0.00187554
0.000825034
0.00142757
0.00123603
0.00080691
0.00165785
0.00278214
-0.00110607
0.00825793
-0.00192797
0.00324504
-0.00256992
0.00285818
-0.00303015
0.0023092
-0.00339754
0.0018963
-0.00368616
0.00150042
-0.00389905
0.00109645
-0.0040344
0.00066762
-0.0040847
0.000196903
-0.00403677
-0.000329955
-0.00387827
-0.000915788
-0.00360503
-0.0015558
-0.00323956
-0.00221402
-0.00281767
-0.00278401
-0.00227829
-0.00312098
-0.00155867
-0.00323176
-0.000870545
-0.00325941
-0.000690958
-0.00306017
0.00144563
-0.00212114
0.00137754
-0.00230656
0.00169304
-0.00200835
0.00200552
-0.00151721
0.00227167
-0.00105233
0.00254713
-0.000637844
0.00286296
-0.000315984
0.00303152
-0.000168712
0.00309744
-6.60748e-05
0.00308129
1.59963e-05
0.0029919
8.92347e-05
0.00283033
0.000161414
0.00258884
0.000241337
0.00224454
0.000344143
0.00174015
0.000504245
0.00160416
0.000961016
0.00127739
0.0015628
0.000750968
0.00218427
0.0035674
-0.000803783
0.00945489
-0.00157994
0.00402119
-0.00204853
0.00332676
-0.00236414
0.00262482
-0.00260837
0.00214053
-0.00279373
0.00168578
-0.00292525
0.00122796
-0.00300368
0.000746053
-0.0030225
0.000215728
-0.00296514
-0.000387324
-0.0028183
-0.00106263
-0.00257497
-0.00179912
-0.00224166
-0.00254733
-0.00182546
-0.00320022
-0.00132036
-0.00362608
-0.000743972
-0.00380815
-0.000212765
-0.00379062
0.000264481
-0.00353742
0.00112563
-0.0029823
0.00149158
-0.00267251
0.00175034
-0.00226711
0.00200266
-0.00176954
0.00223252
-0.00128219
0.00244703
-0.000852352
0.00264923
-0.000518186
0.0027607
-0.000280182
0.00279827
-0.000103648
0.0027736
4.06713e-05
0.00269304
0.000169796
0.0025591
0.000295355
0.00237069
0.000429746
0.00212565
0.000589178
0.00183239
0.00079751
0.00162838
0.00116503
0.00149002
0.00170116
0.00131613
0.00235816
0.00231083
0.0025727
0.00133949
0.00100625
0.00187415
-0.000505861
0.00199295
-0.000575881
0.0104772
-0.00132481
0.00477012
-0.00158437
0.00358633
-0.00175021
0.00279067
-0.00186407
0.00225439
-0.00193539
0.0017571
-0.00197066
0.00126323
-0.00197419
0.000749584
-0.00194278
0.000184317
-0.00185481
-0.000475291
-0.0017005
-0.00121694
-0.00146983
-0.00202979
-0.00116571
-0.00285145
-0.000793912
-0.00357202
-0.00037458
-0.00404541
6.54779e-05
-0.00424821
0.000470666
-0.00419581
0.00084515
-0.00391191
0.00129621
-0.00343335
0.00159506
-0.00297137
0.00179829
-0.00247034
0.00196978
-0.00194102
0.00212172
-0.00143413
0.00225686
-0.00098749
0.00236284
-0.00062417
0.00242246
-0.000339802
0.00243503
-0.000116215
0.00240556
7.01412e-05
0.00233875
0.00023661
0.00223838
0.000395725
0.00210861
0.000559511
0.00195681
0.000740985
0.001798
0.000956313
0.00170923
0.0012538
0.00177077
0.00163962
0.00198959
0.00213933
0.00224175
0.00232054
0.00175619
0.00149181
0.000831795
0.000418529
0.00292214
-0.000543536
0.0115129
-0.00124377
0.00547035
-0.00119204
0.00353459
-0.0012003
0.00279892
-0.00119251
0.0022466
-0.00115886
0.00172345
-0.00110152
0.0012059
-0.00102628
0.000674344
-0.000927469
8.55051e-05
-0.000778364
-0.000624397
-0.000589155
-0.00140615
-0.000349357
-0.00226958
-6.61172e-05
-0.00313469
0.000237969
-0.0038761
0.000547318
-0.00435476
0.000842087
-0.00454298
0.00110495
-0.00445866
0.00133837
-0.00414533
0.00157023
-0.00366522
0.00172997
-0.00313111
0.00182995
-0.00257032
0.00190021
-0.00201129
0.00195659
-0.00149051
0.00200431
-0.0010352
0.00203805
-0.000657915
0.00205189
-0.000353638
0.00204207
-0.000106398
0.00200907
0.000103144
0.00195575
0.000289926
0.00188578
0.000465691
0.0018044
0.000640898
0.00172041
0.000824976
0.00164959
0.00102713
0.00163659
0.0012668
0.00172848
0.00154773
0.00194958
0.00191823
0.00221865
0.00205147
0.00223861
0.00147184
0.00165856
0.000998579
0.00468359
-0.000483745
0.0125321
-0.00105171
0.00603831
-0.000697603
0.00318049
-0.000636663
0.00273798
-0.000568131
0.00217807
-0.000463185
0.0016185
-0.000333805
0.00107652
-0.000182132
0.000522671
7.57423e-06
-0.000104201
0.000226015
-0.000842837
0.00046583
-0.00164597
0.000723235
-0.00252699
0.000979476
-0.00339093
0.00120715
-0.00410377
0.00140573
-0.00455333
0.00156644
-0.00470367
0.00168406
-0.00457628
0.00176329
-0.00422456
0.00181649
-0.00371842
0.00182677
-0.00314139
0.00180236
-0.00254592
0.00176238
-0.00197131
0.00172181
-0.00144995
0.00168818
-0.00100157
0.00166138
-0.000631107
0.0016372
-0.000329465
0.00161048
-7.96764e-05
0.00157863
0.000134995
0.00154157
0.000326986
0.0015004
0.000506861
0.00145815
0.000683151
0.00142113
0.000861997
0.00140095
0.00104731
0.00142304
0.00124471
0.0015201
0.00145067
0.00175003
0.0016883
0.00207788
0.00172363
0.00222472
0.001325
0.0017234
0.00149989
0.00677481
0.00297814
0.0101411
0.00202276
0.0069937
0.00086947
0.00433378
0.000370962
0.00323649
0.00021406
0.00233497
0.000270687
0.00156188
0.000425035
0.000922168
0.000639474
0.000308232
0.000899265
-0.000363992
0.00116468
-0.00110825
0.00144336
-0.00192465
0.00171006
-0.00279368
0.00193537
-0.00361624
0.00209522
-0.00426361
0.00218405
-0.00464216
0.00220474
-0.00472436
0.00216622
-0.00453775
0.00208214
-0.00414048
0.00196768
-0.00360395
0.00182843
-0.00300213
0.00167661
-0.0023941
0.00152925
-0.00182395
0.00140111
-0.00132181
0.00130048
-0.000900943
0.00122843
-0.000559061
0.00117979
-0.000280826
0.00114686
-4.67456e-05
0.00112389
0.000157972
0.00110694
0.000343934
0.00109339
0.000520404
0.0010828
0.000693744
0.00107732
0.000867481
0.00108261
0.00104201
0.00111228
0.00121504
0.00119017
0.00137278
0.00138237
0.00149611
0.00173459
0.00137141
0.00187517
0.0011844
0.000548785
0.00282624
0.00770851
0.00403275
0.00624862
0.00366925
0.0073572
0.00254363
0.0054594
0.00189021
0.00388991
0.00153362
0.00269156
0.00138889
0.00170661
0.00142302
0.000888044
0.00159799
0.000133256
0.00185068
-0.00061668
0.00212835
-0.00138592
0.00240819
-0.00220449
0.00265272
-0.00303821
0.0028203
-0.00378381
0.00288415
-0.00432745
0.00284133
-0.00459933
0.00270592
-0.00458894
0.00250036
-0.00433218
0.00224894
-0.00388906
0.00197442
-0.00332942
0.00169393
-0.00272164
0.00142484
-0.00212501
0.00118534
-0.00158445
0.000990371
-0.00112684
0.000846464
-0.000757036
0.000752186
-0.000464782
0.000698088
-0.000226728
0.000672601
-2.12584e-05
0.000666287
0.000164286
0.00067169
0.000338532
0.000683438
0.000508656
0.000698132
0.00067905
0.000713067
0.000852546
0.000725187
0.00102989
0.000730047
0.00121018
0.000716159
0.00138667
0.000643305
0.00156896
0.000123191
0.00189153
-0.00143332
0.00274074
-0.00269512
0.00408789
0.00511795
0.00241052
0.00400263
0.00330614
0.00646158
0.00325007
0.00551546
0.00303917
0.00410081
0.00284822
0.00288251
0.00272522
0.00182961
0.00271176
0.000901502
0.0028014
4.36159e-05
0.00296414
-0.000779412
0.00317534
-0.00159712
0.0033929
-0.00242205
0.00355662
-0.00320194
0.00361182
-0.003839
0.00353208
-0.0042477
0.00332314
-0.00439038
0.00301138
-0.00427717
0.00263126
-0.00395205
0.00221618
-0.00347398
0.00179574
-0.00290897
0.0013937
-0.00231961
0.00103197
-0.00176327
0.000730907
-0.00128339
0.000504754
-0.000900684
0.000352627
-0.000604909
0.000265074
-0.00037723
0.000224752
-0.000186406
0.000216541
-1.30465e-05
0.000229189
0.000151637
0.000254666
0.000313056
0.00028762
0.000475702
0.000323697
0.000642973
0.000356753
0.00081949
0.000376802
0.00100985
0.000364664
0.00122232
0.000280645
0.00147069
3.08191e-05
0.0018188
-0.000713305
0.00263583
-0.00189942
0.00392687
-0.00222136
0.00440976
0.00301396
0.00145738
0.00273952
0.00274893
0.00517003
0.0034329
0.00483149
0.00371894
0.00381478
0.0038176
0.00278384
0.0038462
0.00180102
0.00388328
0.000864424
0.00395362
-2.67267e-05
0.00406464
-0.000890427
0.00420538
-0.00173786
0.00432419
-0.00254086
0.00435029
-0.00322804
0.00423227
-0.00372099
0.00395821
-0.00397364
0.00355079
-0.00398295
0.00304991
-0.00377628
0.00249942
-0.00340155
0.00193796
-0.00291252
0.00139967
-0.00237067
0.000911748
-0.00183169
0.000501802
-0.00135332
0.00019009
-0.000971678
-1.70685e-05
-0.000693525
-0.000136254
-0.000485723
-0.000193396
-0.000320088
-0.000211021
-0.000168779
-0.000202604
-2.14628e-05
-0.000176434
0.000125468
-0.000137516
0.000274138
-8.89515e-05
0.000427138
-3.37852e-05
0.000587807
2.25231e-05
0.000763181
6.89869e-05
0.000963381
8.34206e-05
0.00120788
2.0127e-05
0.00153398
-0.000194964
0.00203395
-0.000602133
0.00304339
-0.00136503
0.00469014
-0.00168041
0.00472539
0.00146427
0.00217304
0.000792464
0.00294273
0.00440035
0.00359262
0.00418159
0.0041629
0.00324451
0.0044909
0.00245584
0.00466585
0.00162607
0.00478376
0.000746518
0.00489007
-0.000133043
0.00499799
-0.000998351
0.00507698
-0.00181687
0.00506132
-0.00252521
0.00489101
-0.00305774
0.00454386
-0.00337384
0.00403897
-0.00346875
0.0034213
-0.00336527
0.00274153
-0.00309651
0.00204795
-0.00270797
0.00137839
-0.00224295
0.000771741
-0.00176402
0.00025561
-0.00131556
-0.000130149
-0.000967565
-0.000379376
-0.000722453
-0.000519548
-0.000553354
-0.000588437
-0.000416833
-0.000615416
-0.000293108
-0.0006149
-0.000169293
-0.000595259
-4.11029e-05
-0.000561301
9.15107e-05
-0.000514857
0.000227695
-0.000456346
0.000368627
-0.000386253
0.000517715
-0.000305714
0.000682642
-0.000219712
0.000877378
-0.000141638
0.0011298
-0.00010052
0.00149284
-0.00012023
0.00205365
-4.61638e-05
0.00296954
0.00019238
0.00445201
0.000336499
0.00458166
0.0019399
-0.00158222
0.00261981
0.00111557
0.00170256
0.00334821
0.00194895
0.00435083
0.0022419
0.00485497
0.0019517
0.00517042
0.00131062
0.00540009
0.000516849
0.00557987
-0.000312827
0.00568053
-0.00109903
0.00563983
-0.00177619
0.00540705
-0.00229246
0.00497074
-0.00262145
0.00435905
-0.00276216
0.00362482
-0.00273453
0.0028278
-0.00256825
0.00201751
-0.00228622
0.00124154
-0.001932
0.000530364
-0.00153177
-6.64876e-05
-0.00116717
-0.00050326
-0.00087879
-0.000774645
-0.000696187
-0.000927115
-0.000569987
-0.00100728
-0.000473191
-0.0010411
-0.000383011
-0.00104542
-0.000288783
-0.00102947
-0.000185236
-0.000999483
-7.10873e-05
-0.000959489
5.1519e-05
-0.000909634
0.00017784
-0.00084759
0.000306582
-0.000770966
0.00044109
-0.000676848
0.000588525
-0.000564068
0.000764596
-0.000438052
0.00100377
-0.000309227
0.00136394
-0.000143695
0.00188795
0.00022961
0.00259614
0.000976003
0.00370581
0.00140803
0.00414985
0.00349505
0.00288153
0.00456891
0.00486898
0.00164887
0.00535515
0.00175573
0.00559156
0.00171529
0.00582361
0.00107858
0.0060121
0.000328349
0.00607916
-0.000379897
0.00595356
-0.00097346
0.00560234
-0.00142501
0.00503846
-0.00172861
0.00430903
-0.00189205
0.00347238
-0.00192552
0.00258659
-0.00184875
0.00170557
-0.00168725
0.000861312
-0.00144196
9.45854e-05
-0.00116528
-0.000533716
-0.000903478
-0.000978482
-0.00072242
-0.0012544
-0.000602888
-0.00141885
-0.000531752
-0.00150947
-0.000479377
-0.00155354
-0.000429112
-0.00156512
-0.000371416
-0.00155252
-0.000301366
-0.00152177
-0.000215971
-0.001479
-0.000113852
-0.00143113
3.65327e-06
-0.0013807
0.000127415
-0.00132486
0.000250734
-0.0012607
0.000376931
-0.00118559
0.000513421
-0.00109749
0.000676515
-0.000991864
0.000898116
-0.000850342
0.00122228
-0.000611892
0.00164916
-9.74408e-05
0.00208123
0.000987672
0.00262047
0.00159598
0.00354136
0.00524707
0.00793228
0.00536507
0.00581195
0.00387609
0.00556321
0.00196407
0.00563508
0.00100674
0.00559949
0.000363964
0.00535516
-0.000135567
0.00489183
-0.000510154
0.00425085
-0.00078405
0.00348611
-0.000963893
0.0026503
-0.00105627
0.00178434
-0.00105958
0.000923905
-0.000988322
0.00010197
-0.000865323
-0.000624243
-0.000715756
-0.00119609
-0.000593451
-0.00159842
-0.000501169
-0.00186699
-0.000453884
-0.00203546
-0.000434453
-0.002141
-0.000426233
-0.00220428
-0.000416095
-0.00223571
-0.000397668
-0.00224011
-0.00036697
-0.0022208
-0.000320631
-0.00218148
-0.000255245
-0.00212765
-0.000167657
-0.00206733
-5.66667e-05
-0.00201168
7.17509e-05
-0.00196438
0.000203415
-0.00192358
0.000336127
-0.00188933
0.0004792
-0.00186067
0.000647938
-0.00182637
0.000863916
-0.00174973
0.00114564
-0.00157197
0.00147115
-0.00120459
0.00171329
-0.000451344
0.00186648
-3.71776e-05
0.00312643
0.00538013
0.00410684
0.00150481
0.00450772
0.00347523
0.00373652
0.00273531
0.00323341
0.00150989
0.00288753
0.000709854
0.00252006
0.000231895
0.00207253
-6.26305e-05
0.00153536
-0.00024688
0.000927063
-0.000355601
0.000264175
-0.000393381
-0.000417752
-0.00037766
-0.00106318
-0.0003429
-0.00162298
-0.000305533
-0.00206407
-0.000274695
-0.0023905
-0.000267063
-0.00261584
-0.000275883
-0.00277336
-0.000296418
-0.00288795
-0.00031991
-0.00297349
-0.00034071
-0.00303441
-0.000355147
-0.0030712
-0.000360814
-0.0030831
-0.000354981
-0.00306971
-0.00033391
-0.00303207
-0.000292787
-0.00297324
-0.000226443
-0.00289918
-0.000130743
-0.00282222
-5.30018e-06
-0.00275658
0.00013769
-0.00270686
0.000286328
-0.00266807
0.00044041
-0.00263873
0.000618716
-0.00261769
0.000843128
-0.00259555
0.0011238
-0.00259612
0.00147196
-0.00285837
0.00197561
-0.00371023
0.00271818
-0.00375499
0.00317078
0.00180849
-0.00260378
-0.00677005
-0.00742069
-0.00746599
-0.0037522
-0.00216375
-0.00167425
0.00139729
-0.000760963
0.00182205
-0.000563051
0.001312
-0.000643295
0.000790114
-0.000826991
0.000415607
-0.00106269
0.000173086
-0.00134499
3.54356e-05
-0.00167587
-2.46876e-05
-0.00203333
-3.59052e-05
-0.00238976
-2.12214e-05
-0.00272447
-8.20429e-06
-0.00301343
-1.66152e-05
-0.00323684
-5.13483e-05
-0.0034032
-0.000100782
-0.00353248
-0.00014669
-0.00364287
-0.000186092
-0.00374187
-0.00022095
-0.00382945
-0.000253104
-0.00390184
-0.000282681
-0.00395419
-0.000308336
-0.00398212
-0.000326879
-0.00398306
-0.00033279
-0.00395715
-0.000318551
-0.00390724
-0.000276289
-0.0038379
-0.000200123
-0.00375437
-8.89782e-05
-0.00366788
5.09626e-05
-0.00357793
0.000196163
-0.0034717
0.000334022
-0.00333667
0.000483666
-0.00315867
0.000665264
-0.00292012
0.00088555
-0.00258409
0.00113631
-0.00209633
0.00148822
-0.00159831
0.00222046
-0.00130683
0.0028796
0.000691671
-0.00735301
0.00103664
-0.00812698
-0.00669205
-0.00717891
-0.00311185
-0.00565757
-0.000124073
-0.00456521
0.000729713
-0.003975
0.000721821
-0.00371771
0.000532877
-0.0036524
0.000350351
-0.00369416
0.000214915
-0.00378621
0.000127545
-0.00388733
7.64787e-05
-0.00397467
5.14608e-05
-0.00403747
4.15764e-05
-0.00408021
3.44955e-05
-0.00411733
2.04349e-05
-0.00416158
-7.20834e-06
-0.00421791
-4.45495e-05
-0.00428376
-8.09374e-05
-0.0043561
-0.000113797
-0.00443202
-0.000145024
-0.00450865
-0.000176392
-0.00458326
-0.000207931
-0.00465333
-0.000238058
-0.00471653
-0.000263441
-0.00477026
-0.000278836
-0.00481091
-0.000277718
-0.00483321
-0.000253918
-0.00482988
-0.000203529
-0.00479324
-0.000125839
-0.00471804
-2.45921e-05
-0.00460029
7.80365e-05
-0.00443235
0.00016574
-0.00419165
0.000242742
-0.00385149
0.000325007
-0.00338475
0.00041888
-0.00273875
0.000490485
-0.0016868
0.000436525
0.000319617
0.000214302
0.00208588
0.00111362
0.00296263
0.00157851
-0.00504869
-0.00809708
-0.00816142
-0.00737704
-0.00660833
-0.00603526
-0.00564953
-0.00540236
-0.00524433
-0.00513806
-0.0050567
-0.00498459
-0.00491877
-0.00486638
-0.00484125
-0.00485326
-0.00490155
-0.00498272
-0.00509525
-0.00523949
-0.00541584
-0.00562312
-0.00585683
-0.00610713
-0.00635755
-0.00658529
-0.00676356
-0.00686481
-0.00686525
-0.00676333
-0.00657391
-0.00630777
-0.00595984
-0.00551877
-0.00500709
-0.00455058
-0.00431759
-0.00318657
)
;

boundaryField
{
    floor
    {
        type            calculated;
        value           nonuniform List<scalar> 
36
(
0
0
0
0
0
0
0
0
0
0
0
0
0
0
0
0
0
0
0
-6.43871e-06
-1.68819e-05
-2.60255e-05
-3.42903e-05
-3.49102e-05
-2.87986e-05
-2.86207e-05
-2.92021e-06
-5.44133e-06
-5.68764e-06
-5.90769e-06
-4.8545e-06
-8.93831e-06
-1.02098e-05
-1.28316e-05
-1.4457e-05
-1.54459e-05
)
;
    }
    ceiling
    {
        type            calculated;
        value           nonuniform List<scalar> 
43
(
-5.78937e-05
-6.48827e-05
-6.34684e-05
-5.97157e-05
-5.46219e-05
-4.68134e-05
-4.0096e-05
-3.52698e-05
-3.21545e-05
-3.04104e-05
-2.97394e-05
-2.98906e-05
-3.05665e-05
-3.13893e-05
-3.20433e-05
-3.24346e-05
-3.263e-05
-3.27007e-05
-3.26487e-05
-3.24436e-05
-3.20449e-05
-3.14203e-05
-3.05631e-05
-2.95098e-05
-2.8347e-05
-2.71984e-05
-2.61868e-05
-2.53931e-05
-2.48361e-05
-2.44779e-05
-2.42378e-05
-2.39993e-05
-2.36407e-05
-2.30738e-05
-2.22506e-05
-2.11722e-05
-1.99068e-05
-1.85648e-05
-1.72193e-05
-1.61537e-05
1.93313e-05
1.51858e-05
-0.000246581
)
;
    }
    sWall
    {
        type            calculated;
        value           nonuniform List<scalar> 9(-0.000140236 -0.000164529 -0.00019427 -0.000225987 -0.000245122 -0.000281058 -0.000423625 -0.000453723 -0.000484004);
    }
    nWall
    {
        type            calculated;
        value           nonuniform List<scalar> 
14
(
-9.01795e-05
-9.73862e-05
-0.000102893
-0.000104573
-0.000117388
-0.000130657
-0.000138794
-0.000147033
-0.000156308
-0.000170619
-0.000183806
-0.000189681
-0.000184869
-0.000207571
)
;
    }
    sideWalls
    {
        type            empty;
        value           nonuniform 0();
    }
    glass1
    {
        type            calculated;
        value           nonuniform List<scalar> 9(-6.40339e-05 -0.00017032 -0.00025792 -0.000331202 -0.000393184 -0.000446387 -0.000492197 -0.000535478 -0.000587163);
    }
    glass2
    {
        type            calculated;
        value           nonuniform List<scalar> 2(-0.000367798 -0.000384906);
    }
    sun
    {
        type            calculated;
        value           uniform 0;
    }
    Table_master
    {
        type            calculated;
        value           nonuniform List<scalar> 9(-1.53992e-07 -1.54109e-07 -1.54141e-07 -1.54161e-07 -1.54174e-07 -1.54179e-07 -1.54177e-07 -1.54163e-07 -1.5411e-07);
    }
    Table_slave
    {
        type            calculated;
        value           nonuniform List<scalar> 9(1.53661e-07 1.53717e-07 1.53716e-07 1.53733e-07 1.53753e-07 1.53797e-07 1.53864e-07 1.53957e-07 1.54085e-07);
    }
    inlet
    {
        type            calculated;
        value           uniform -0.0116485;
    }
    outlet
    {
        type            calculated;
        value           nonuniform List<scalar> 2(0.00979739 0.0122828);
    }
}


// ************************************************************************* //
