/*--------------------------------*- C++ -*----------------------------------*\
  =========                 |
  \\      /  F ield         | OpenFOAM: The Open Source CFD Toolbox
   \\    /   O peration     | Website:  https://openfoam.org
    \\  /    A nd           | Version:  6
     \\/     M anipulation  |
\*---------------------------------------------------------------------------*/
FoamFile
{
    version     2.0;
    format      ascii;
    class       surfaceScalarField;
    location    "220";
    object      phi;
}
// * * * * * * * * * * * * * * * * * * * * * * * * * * * * * * * * * * * * * //

dimensions      [1 0 -1 0 0 0 0];

internalField   nonuniform List<scalar> 
850
(
-0.00311485
0.00317366
-0.00431629
0.00120143
-0.00522261
0.000906313
-0.005904
0.000681382
-0.00632625
0.000422235
-0.00645234
0.000126082
-0.00623918
-0.000213168
-0.00565144
-0.000587754
-0.00470656
-0.000944885
-0.00349363
-0.00121293
-0.00215952
-0.00133413
-0.000883293
-0.00127624
0.000118563
-0.00100187
0.000478715
-0.000360163
0.000480823
-0.000939549
0.000942656
-0.000742501
-0.000197078
-0.000100149
-0.000642379
0.000552762
-0.000652939
0.00106433
-0.000511593
0.00135834
-0.000294047
0.00148862
-0.000130308
0.0015575
-6.89104e-05
0.00160168
-4.42094e-05
0.00162908
-2.74324e-05
0.00164402
-1.49682e-05
0.00164715
-3.16525e-06
0.00163116
1.59502e-05
0.0015739
5.723e-05
0.001437
0.000136859
0.00119856
0.000238405
0.00084947
0.000349046
0.000853429
-0.00224102
0.00557421
-0.00337947
0.00233987
-0.00430182
0.00182865
-0.00498178
0.00136134
-0.00541158
0.00085203
-0.00556119
0.000275684
-0.00538672
-0.00038765
-0.00486137
-0.00111311
-0.00402051
-0.00178575
-0.00297082
-0.00226263
-0.00186072
-0.00244423
-0.000837708
-0.00229926
-1.74937e-05
-0.0018221
0.00063843
-0.0010161
0.00140942
-0.00029018
0.00141998
-7.16519e-06
0.00101773
0.000406112
0.00102907
-5.52318e-06
0.000957674
0.000415908
-0.000618536
0.000820811
-0.00104731
0.00116223
-0.000994388
0.00143481
-0.000784197
0.00150051
-0.000359772
0.00151134
-0.00014117
0.00152405
-8.16508e-05
0.00153462
-5.48128e-05
0.0015411
-3.39363e-05
0.00154474
-1.86449e-05
0.00154562
-4.08254e-06
0.00154051
2.10281e-05
0.00150192
9.57872e-05
0.00133929
0.000299449
0.001053
0.000524654
0.000679116
0.000722885
0.00154324
-0.00156999
0.00738939
-0.00252833
0.0032982
-0.00334777
0.00264808
-0.00394295
0.0019565
-0.00433679
0.00124586
-0.00449311
0.000432
-0.00434153
-0.000539237
-0.00384961
-0.00160504
-0.0030848
-0.00255056
-0.00217403
-0.00317341
-0.00125605
-0.00336222
-0.000436601
-0.00311872
0.000224768
-0.00248348
0.000807741
-0.00159909
0.001263
-0.000745457
0.00131124
-5.5412e-05
0.00100126
0.000716078
0.00204014
0.00141818
-0.000448193
0.00167432
-0.000874706
0.00167766
-0.00105066
0.00173754
-0.0010543
0.00194931
-0.000995996
0.00158967
0.00144862
0.00136709
0.0013124
0.00127859
0.00126007
0.0012561
0.00127725
0.00137315
0.00114572
0.000526837
0.000864384
0.000805952
0.000506857
0.00108037
0.00206657
-0.00108346
0.00879161
-0.00181663
0.00403136
-0.00237076
0.0032022
-0.00277809
0.00236382
-0.00306515
0.00153291
-0.00318237
0.000549214
-0.0030078
-0.000713823
-0.00251985
-0.00209299
-0.00184144
-0.00322898
-0.0011044
-0.00391044
-0.000414955
-0.00405167
0.000170094
-0.00370378
0.000650117
-0.00296351
0.00107177
-0.00202076
0.00140183
-0.00107553
0.00157903
-0.000232626
0.0017676
0.000527498
0.00280982
0.000997899
0.00256681
0.00025344
0.00242022
-0.000301624
0.00226375
-0.000718256
0.00208216
-0.00086909
0.00189582
-0.000867986
0.00161257
-0.000712779
0.00192424
-0.000311847
0.00206381
-0.00013976
0.00214391
-8.02836e-05
0.00218728
-4.35558e-05
0.00218768
-5.87697e-07
0.00213145
5.60374e-05
0.00199801
0.000133248
0.00175331
0.000244508
0.00133671
0.000416401
0.00112149
0.000742021
0.000801869
0.00112553
0.000383794
0.0014984
0.00247166
-0.000737154
0.00991035
-0.00126199
0.00455619
-0.00140266
0.00334286
-0.00152442
0.00248557
-0.00162304
0.00163152
-0.00161711
0.000543278
-0.00133486
-0.000996085
-0.000844197
-0.00258366
-0.000302868
-0.0037703
0.000187429
-0.00440073
0.000582136
-0.00444638
0.000879352
-0.004001
0.00111974
-0.00320391
0.00132688
-0.00222791
0.00150816
-0.00125683
0.00169297
-0.000417453
0.00198783
0.000232614
0.00243462
0.000551095
0.0024516
0.000236444
0.00235072
-0.000200761
0.00212959
-0.000497153
0.00188614
-0.000625671
0.00164853
-0.0006304
0.00145847
-0.000522749
0.0014621
-0.000315511
0.00149164
-0.000169341
0.00151291
-0.000101595
0.00153127
-6.19502e-05
0.00154334
-1.27019e-05
0.00153562
6.37146e-05
0.00149106
0.000177766
0.00139601
0.000339516
0.0012523
0.000560071
0.00112001
0.000874266
0.000983605
0.00126189
0.00071453
0.00176743
0.00101308
0.00217307
-0.00103577
0.00206769
-0.00170235
0.000683513
-0.00163561
-0.000618834
0.0109638
-0.000940641
0.00487799
-0.000514784
0.00291699
-0.000233348
0.00220412
-6.44271e-05
0.00146259
0.000208461
0.000270375
0.00067106
-0.00145869
0.00111251
-0.00302511
0.00142788
-0.00408566
0.00159169
-0.00456454
0.00163663
-0.00449132
0.00159934
-0.00396372
0.00152418
-0.00312877
0.00144768
-0.00215144
0.00140211
-0.00121129
0.00142525
-0.000440614
0.00155804
9.98012e-05
0.00177197
0.000337152
0.00182129
0.000187095
0.00170286
-8.23519e-05
0.00149593
-0.000290255
0.00126767
-0.000397443
0.00105153
-0.000414294
0.000883545
-0.000354804
0.000811533
-0.00024354
0.000801346
-0.000159196
0.000820797
-0.00012109
0.000860908
-0.000102106
0.000918862
-7.07009e-05
0.000981569
9.61745e-07
0.00103347
0.000125823
0.00107249
0.000300444
0.00110444
0.000528076
0.00116314
0.000815521
0.00129462
0.00113036
0.00153088
0.00153112
0.00194038
0.00176352
0.00225659
0.00175143
0.00177247
0.00116758
0.000198131
-0.000685573
0.0121311
-0.000505905
0.00469831
0.000666475
0.0017446
0.00130096
0.00156962
0.00179894
0.000964596
0.00240527
-0.000335975
0.00294186
-0.00199529
0.00322122
-0.00330446
0.00322559
-0.00409002
0.00299918
-0.00433812
0.00261901
-0.00411115
0.00216241
-0.00350713
0.00170216
-0.00266854
0.00129036
-0.00173966
0.000979729
-0.000900684
0.000805233
-0.000266146
0.000785231
0.000119776
0.000863088
0.000259266
0.000878745
0.000171408
0.000789815
6.54438e-06
0.000633628
-0.000134105
0.000451688
-0.000215543
0.00027605
-0.000238697
0.000138439
-0.000217237
6.85883e-05
-0.000173735
5.72937e-05
-0.000147948
8.41325e-05
-0.000147978
0.000139749
-0.000157772
0.000225071
-0.000156073
0.000345104
-0.000119121
0.000487877
-1.69998e-05
0.000641414
0.000146856
0.000815958
0.000353482
0.00103448
0.000596949
0.0013259
0.000838896
0.00173937
0.0011176
0.00230323
0.00119961
0.00306029
0.000994319
0.00322326
0.00100457
0.00348543
0.0028267
0.00984236
0.00354748
0.00397752
0.00375397
0.0015381
0.00409287
0.0012307
0.0046998
0.000357651
0.00537741
-0.0010136
0.00565087
-0.00226875
0.00548143
-0.003135
0.00494039
-0.00354897
0.00414584
-0.00354356
0.00322595
-0.00319126
0.00228288
-0.00256408
0.00141628
-0.00180197
0.000684993
-0.00100841
0.000170337
-0.000386063
-0.000100629
4.78393e-06
-0.000170109
0.000189223
-0.000141212
0.000230334
-0.000137504
0.000167661
-0.000195489
6.44885e-05
-0.000303007
-2.66313e-05
-0.000434542
-8.40542e-05
-0.00056187
-0.000111418
-0.000660662
-0.000118496
-0.000714528
-0.00011992
-0.000729984
-0.000132545
-0.000720377
-0.000157638
-0.000692553
-0.000185649
-0.000643936
-0.000204745
-0.000560999
-0.000202113
-0.000418281
-0.000159772
-0.000219991
-5.14865e-05
1.93383e-05
0.000114099
0.000302915
0.000313321
0.000619779
0.000521982
0.000999977
0.000737354
0.00142611
0.000773427
0.00181008
0.000610302
0.00115378
0.00166081
0.00490506
0.0104358
0.0144087
0.0127226
0.00322418
0.0117744
0.00217896
0.0110421
0.00108991
0.0101235
-9.49721e-05
0.00889909
-0.00104432
0.00746411
-0.00169998
0.0059173
-0.00200214
0.00435267
-0.00197892
0.00286825
-0.00170685
0.00150571
-0.00120157
0.00034795
-0.00064425
-0.000480218
-0.000180288
-0.000933704
6.73808e-05
-0.00110436
0.000175404
-0.00113028
0.000215101
-0.00111162
0.000211625
-0.00111089
0.000166881
-0.00114907
0.000102628
-0.00121926
4.35071e-05
-0.00130594
2.5653e-06
-0.00139454
-2.28648e-05
-0.00147187
-4.12289e-05
-0.00153262
-5.92234e-05
-0.00158436
-8.08621e-05
-0.00163999
-0.000102067
-0.00171225
-0.000113445
-0.00181388
-0.000103173
-0.00195872
-5.73281e-05
-0.00215698
3.84302e-05
-0.00240423
0.000195713
-0.00272226
0.000432069
-0.00317729
0.000768302
-0.00386105
0.00120568
-0.00484172
0.00171797
-0.00624314
0.00217479
-0.00790264
0.00226975
-0.00744229
0.00120041
-0.00224509
0.00900682
0.00491779
0.00744184
0.00374402
0.006879
0.00165287
0.00632833
0.000455784
0.00547852
-0.000194444
0.00435145
-0.000572897
0.00305846
-0.000709165
0.00170704
-0.000627531
0.000390684
-0.000390547
-0.000731512
-7.94412e-05
-0.00148381
0.000107993
-0.00184918
0.000185033
-0.00198574
0.000203902
-0.00201588
0.000205489
-0.00200392
0.000203095
-0.00198432
0.000191969
-0.00198353
0.000166043
-0.00201101
0.000130048
-0.00206126
9.3708e-05
-0.00212248
6.37258e-05
-0.00218616
4.07528e-05
-0.00225028
2.28282e-05
-0.00231636
6.8008e-06
-0.00238917
-8.11906e-06
-0.00247278
-1.8515e-05
-0.00256867
-1.76175e-05
-0.00267469
2.79645e-06
-0.00278385
5.17657e-05
-0.00288785
0.000142372
-0.00298539
0.000293201
-0.00308194
0.000528562
-0.00318124
0.000867549
-0.00327975
0.00130413
-0.00333735
0.00177552
-0.00329754
0.00213493
-0.00298124
0.0019534
-0.00166094
-0.000119945
-0.00383047
-0.000900347
0.00587346
0.00026679
0.00257694
0.000505899
0.00141378
0.00035852
0.00060313
1.53327e-05
0.000148672
-0.000542436
-1.52098e-05
-0.0012553
3.63779e-06
-0.00195721
7.43169e-05
-0.00248994
0.000142128
-0.00275957
0.000190129
-0.00284623
0.00019461
-0.00284158
0.000180329
-0.00280029
0.000162554
-0.00274662
0.000151768
-0.00269191
0.000148331
-0.00264616
0.000146157
-0.00261938
0.000139204
-0.00261534
0.000125957
-0.00262984
0.000108144
-0.00265442
8.82391e-05
-0.00268184
6.81057e-05
-0.00270804
4.89658e-05
-0.00273251
3.1214e-05
-0.00275675
1.60523e-05
-0.0027809
5.57956e-06
-0.00280163
3.04589e-06
-0.00281238
1.34825e-05
-0.0028051
4.4429e-05
-0.00276553
0.000102741
-0.00267102
0.000198631
-0.00249005
0.000347543
-0.00219342
0.000570853
-0.00176275
0.000873414
-0.00117046
0.00118317
-0.000220194
0.00118461
0.001135
0.000598149
0.00161814
-0.000603149
-0.00212934
-0.0115636
-0.0151084
-0.00919702
-0.00659624
-0.00516557
-0.00455092
-0.0043949
-0.0044056
-0.00439942
-0.0043241
-0.00418226
-0.00399346
-0.00380099
-0.00362342
-0.0034641
-0.003316
-0.00317173
-0.00303002
-0.00289564
-0.00277484
-0.00267209
-0.00258937
-0.0025268
-0.00248328
-0.00245734
-0.00244634
-0.00244555
-0.00244702
-0.00243776
-0.00239725
-0.00229813
-0.00210286
-0.00175842
-0.00119045
-0.000319757
0.00086078
0.00204265
0.00263779
0.00203127
)
;

boundaryField
{
    floor
    {
        type            calculated;
        value           nonuniform List<scalar> 
36
(
0
0
0
0
0
0
0
0
0
0
0
0
0
0
0
0
0
0
0
-4.0023e-06
-1.07409e-05
-1.65145e-05
-2.1346e-05
-1.88918e-05
-1.69891e-05
-1.5973e-05
-2.11932e-06
-3.40706e-06
-3.87503e-06
-4.51158e-06
-3.13809e-06
-6.84411e-06
-9.52635e-06
-9.82155e-06
-1.23394e-05
-1.04401e-05
)
;
    }
    ceiling
    {
        type            calculated;
        value           nonuniform List<scalar> 
43
(
-3.94802e-05
-3.87025e-05
-3.79334e-05
-2.38834e-05
-1.6959e-05
-1.15935e-05
-7.41341e-06
-4.56624e-06
-2.59613e-06
-1.05521e-06
2.31021e-07
1.27658e-06
2.08095e-06
2.69219e-06
3.18103e-06
3.60385e-06
3.99952e-06
4.38663e-06
4.75976e-06
5.08884e-06
5.3324e-06
5.46013e-06
5.46849e-06
5.37645e-06
5.20959e-06
4.98944e-06
4.73229e-06
4.45084e-06
4.15602e-06
3.85826e-06
3.56794e-06
3.29366e-06
3.04355e-06
2.82722e-06
2.66053e-06
2.57226e-06
2.68435e-06
2.94665e-06
3.31095e-06
4.52065e-06
7.26443e-06
4.54443e-06
-5.52937e-05
)
;
    }
    sWall
    {
        type            calculated;
        value           uniform -0.000234086;
    }
    nWall
    {
        type            calculated;
        value           nonuniform List<scalar> 6(-5.08263e-05 -6.13238e-05 -6.40988e-05 -7.56239e-05 -8.30453e-05 -0.000102646);
    }
    sideWalls
    {
        type            empty;
        value           nonuniform 0();
    }
    glass1
    {
        type            calculated;
        value           nonuniform List<scalar> 9(-5.88223e-05 -0.000159533 -0.000245199 -0.000318766 -0.000381594 -0.000434573 -0.000481737 -0.00053801 -0.000600661);
    }
    glass2
    {
        type            calculated;
        value           nonuniform List<scalar> 2(-0.000265892 -0.000292196);
    }
    sun
    {
        type            calculated;
        value           uniform 0;
    }
    Table_master
    {
        type            calculated;
        value           nonuniform List<scalar> 9(-1.53357e-07 -1.53529e-07 -1.53584e-07 -1.53616e-07 -1.53636e-07 -1.53646e-07 -1.5365e-07 -1.5364e-07 -1.53602e-07);
    }
    Table_slave
    {
        type            calculated;
        value           nonuniform List<scalar> 9(1.53191e-07 1.53194e-07 1.53157e-07 1.53132e-07 1.53124e-07 1.53118e-07 1.53135e-07 1.5318e-07 1.53266e-07);
    }
    inlet
    {
        type            calculated;
        value           uniform -0.0107004;
    }
    outlet
    {
        type            calculated;
        value           nonuniform List<scalar> 2(0.0118371 0.00358348);
    }
}


// ************************************************************************* //
