/*--------------------------------*- C++ -*----------------------------------*\
  =========                 |
  \\      /  F ield         | OpenFOAM: The Open Source CFD Toolbox
   \\    /   O peration     | Website:  https://openfoam.org
    \\  /    A nd           | Version:  6
     \\/     M anipulation  |
\*---------------------------------------------------------------------------*/
FoamFile
{
    version     2.0;
    format      ascii;
    class       volScalarField;
    location    "220";
    object      T;
}
// * * * * * * * * * * * * * * * * * * * * * * * * * * * * * * * * * * * * * //

dimensions      [0 0 0 1 0 0 0];

internalField   nonuniform List<scalar> 
458
(
302.827
302.558
302.544
302.54
302.536
302.532
302.527
302.521
302.513
302.503
302.496
302.497
302.507
302.532
302.561
302.812
302.783
302.77
302.779
302.791
302.801
302.811
302.821
302.831
302.84
302.85
302.861
302.871
302.882
302.893
302.906
302.922
302.956
303.003
302.593
302.568
302.569
302.57
302.569
302.565
302.554
302.534
302.507
302.486
302.481
302.494
302.517
302.537
302.546
302.557
302.579
302.819
302.748
302.742
302.755
302.773
302.782
302.79
302.798
302.806
302.814
302.822
302.83
302.839
302.849
302.861
302.876
302.898
302.945
303.192
302.641
302.602
302.612
302.624
302.633
302.635
302.62
302.58
302.525
302.481
302.468
302.486
302.514
302.534
302.546
302.555
302.573
302.757
302.722
302.725
302.752
302.782
302.787
302.792
302.799
302.806
302.813
302.821
302.83
302.839
302.848
302.862
302.876
302.897
302.944
303.387
302.701
302.638
302.657
302.688
302.717
302.732
302.714
302.645
302.549
302.476
302.454
302.478
302.516
302.546
302.562
302.569
302.576
302.588
302.616
302.66
302.715
302.772
302.821
302.862
302.892
302.917
302.939
302.958
302.974
302.99
303.003
303.013
302.977
302.942
302.925
302.951
303.579
302.778
302.676
302.695
302.742
302.796
302.837
302.812
302.706
302.567
302.467
302.441
302.471
302.525
302.571
302.597
302.606
302.613
302.634
302.672
302.726
302.788
302.851
302.907
302.956
302.993
303.023
303.047
303.066
303.077
303.083
303.083
303.075
303.046
303.001
302.962
302.961
303.083
303.186
303.182
303.756
302.88
302.739
302.733
302.779
302.851
302.922
302.874
302.73
302.564
302.451
302.423
302.469
302.546
302.616
302.658
302.677
302.694
302.726
302.774
302.834
302.898
302.959
303.013
303.058
303.093
303.12
303.141
303.154
303.158
303.156
303.147
303.13
303.1
303.055
303.008
302.987
303.04
303.082
303.129
303.916
303.044
302.89
302.856
302.879
302.948
302.986
302.89
302.702
302.512
302.401
302.397
302.476
302.59
302.69
302.754
302.79
302.816
302.856
302.909
302.967
303.025
303.079
303.124
303.16
303.187
303.207
303.22
303.227
303.226
303.216
303.2
303.178
303.147
303.107
303.063
303.034
303.044
303.064
303.097
304.146
303.495
303.318
303.207
303.162
303.169
303.065
302.835
302.57
302.374
302.307
302.37
302.514
302.68
302.81
302.888
302.931
302.961
303.004
303.055
303.105
303.152
303.192
303.224
303.247
303.264
303.274
303.278
303.277
303.271
303.26
303.242
303.22
303.191
303.16
303.127
303.107
303.113
303.133
303.267
304.475
304.168
303.931
303.712
303.533
303.328
302.912
302.484
302.197
302.106
302.191
302.399
302.635
302.854
302.982
303.043
303.075
303.107
303.146
303.188
303.226
303.257
303.282
303.301
303.312
303.317
303.317
303.313
303.306
303.297
303.287
303.279
303.272
303.27
303.277
303.294
303.323
303.356
303.382
303.444
297.351
298.757
299.57
299.893
300.291
300.782
301.303
301.798
302.243
302.67
302.939
303.075
303.141
303.177
303.205
303.234
303.265
303.295
303.32
303.338
303.349
303.354
303.355
303.352
303.348
303.342
303.335
303.33
303.324
303.32
303.318
303.321
303.33
303.347
303.373
303.404
303.439
303.482
297.752
298.958
299.849
300.508
301.145
301.743
302.219
302.599
302.879
303.069
303.173
303.23
303.265
303.29
303.313
303.335
303.355
303.372
303.383
303.39
303.391
303.39
303.386
303.381
303.376
303.37
303.365
303.359
303.354
303.35
303.348
303.349
303.354
303.365
303.382
303.408
303.421
303.462
299.603
299.562
299.559
300.725
301.539
302.181
302.629
302.895
303.058
303.171
303.251
303.303
303.337
303.359
303.376
303.389
303.4
303.409
303.415
303.419
303.421
303.42
303.417
303.413
303.409
303.404
303.399
303.394
303.389
303.384
303.379
303.375
303.372
303.37
303.37
303.376
303.386
303.397
303.406
303.454
)
;

boundaryField
{
    floor
    {
        type            wallHeatTransfer;
        Tinf            uniform 305.2;
        alphaWall       uniform 0.24;
        value           nonuniform List<scalar> 
36
(
302.843
303.23
303.161
303.113
303.106
303.119
303.144
303.173
303.202
303.23
303.256
303.282
303.307
303.331
303.355
303.379
303.406
303.434
303.491
303.491
303.424
303.386
303.36
303.403
303.474
303.453
302.843
302.777
302.819
302.883
303.23
302.883
303.243
302.835
303.086
302.824
)
;
    }
    ceiling
    {
        type            wallHeatTransfer;
        Tinf            uniform 303.2;
        alphaWall       uniform 0.24;
        value           nonuniform List<scalar> 
43
(
299.819
299.776
299.768
300.855
301.63
302.243
302.667
302.917
303.069
303.174
303.246
303.293
303.322
303.341
303.354
303.365
303.374
303.381
303.385
303.388
303.387
303.386
303.383
303.38
303.376
303.373
303.369
303.366
303.362
303.359
303.356
303.353
303.352
303.351
303.352
303.358
303.367
303.377
303.384
303.426
304.416
304.13
298.095
)
;
    }
    sWall
    {
        type            wallHeatTransfer;
        Tinf            uniform 315.2;
        alphaWall       uniform 0.36;
        value           uniform 300.972;
    }
    nWall
    {
        type            wallHeatTransfer;
        Tinf            uniform 307.2;
        alphaWall       uniform 0.36;
        value           nonuniform List<scalar> 6(303.94 303.878 303.761 304.02 303.997 304.055);
    }
    sideWalls
    {
        type            empty;
    }
    glass1
    {
        type            wallHeatTransfer;
        Tinf            uniform 315.2;
        alphaWall       uniform 4.3;
        value           nonuniform List<scalar> 9(311.13 310.525 310.141 309.848 309.603 309.376 309.196 309.264 309.495);
    }
    glass2
    {
        type            wallHeatTransfer;
        Tinf            uniform 307.2;
        alphaWall       uniform 4.3;
        value           nonuniform List<scalar> 2(305.694 305.812);
    }
    sun
    {
        type            wallHeatTransfer;
        Tinf            uniform 305.2;
        alphaWall       uniform 0.24;
        value           nonuniform List<scalar> 
14
(
303.064
302.804
302.786
302.773
302.762
302.751
302.739
302.728
302.715
302.704
302.698
302.702
302.722
302.776
)
;
    }
    Table_master
    {
        type            zeroGradient;
    }
    Table_slave
    {
        type            zeroGradient;
    }
    inlet
    {
        type            fixedValue;
        value           uniform 295.15;
    }
    outlet
    {
        type            zeroGradient;
    }
}


// ************************************************************************* //
