/*--------------------------------*- C++ -*----------------------------------*\
  =========                 |
  \\      /  F ield         | OpenFOAM: The Open Source CFD Toolbox
   \\    /   O peration     | Website:  https://openfoam.org
    \\  /    A nd           | Version:  6
     \\/     M anipulation  |
\*---------------------------------------------------------------------------*/
FoamFile
{
    version     2.0;
    format      ascii;
    class       volScalarField;
    location    "44900.0000001602093";
    object      k;
}
// * * * * * * * * * * * * * * * * * * * * * * * * * * * * * * * * * * * * * //

dimensions      [0 2 -2 0 0 0 0];

internalField   nonuniform List<scalar> 
778
(
0.00158604
0.00180125
0.00178805
0.00194652
0.00209763
0.00223976
0.00237625
0.00251167
0.00265182
0.00280497
0.00295508
0.00310134
0.00324894
0.00341151
0.00358537
0.000792553
0.00162632
0.00165274
0.00157374
0.0014458
0.00128321
0.00113087
0.000999156
0.000887472
0.000792984
0.000713253
0.000645225
0.000586209
0.000533669
0.000484904
0.000436411
0.000398064
0.000326155
0.00340722
0.00643394
0.00268758
0.00274601
0.00288758
0.00305402
0.00323419
0.00342972
0.00364269
0.00387279
0.00412474
0.00437855
0.0045946
0.0047003
0.00459501
0.00429862
0.00390737
0.00358028
0.00253746
0.00281375
0.00295655
0.00289908
0.00266602
0.00226631
0.00190645
0.00160984
0.00136992
0.00117601
0.00101721
0.000885433
0.000774186
0.000681379
0.00061539
0.000574942
0.000864513
0.00052434
0.00549126
0.0127826
0.00347813
0.00321196
0.00329718
0.0034549
0.00363611
0.00384007
0.00407014
0.00432657
0.00463455
0.00501006
0.00545073
0.00596111
0.00653328
0.00686286
0.00628006
0.00538705
0.00403635
0.00416859
0.00417292
0.00397631
0.00357928
0.0026677
0.0020173
0.00157727
0.00127056
0.00105012
0.000887512
0.000765046
0.000672172
0.000603945
0.000551691
0.000548917
0.00116501
0.000678744
0.00797438
0.0217614
0.00449167
0.00339055
0.00334118
0.00343765
0.00354891
0.00366824
0.00380827
0.0039904
0.00425813
0.00464764
0.00517096
0.00582596
0.00655661
0.00713728
0.00723047
0.00724601
0.00534116
0.00554621
0.00537306
0.00512362
0.00478607
0.00434827
0.00345661
0.0028603
0.00243742
0.00211125
0.00185167
0.00163302
0.00143948
0.00125938
0.00107846
0.000801398
0.000660319
0.00142008
0.000823291
0.0108776
0.0336394
0.006214
0.00342484
0.00315794
0.00316655
0.00318912
0.00320936
0.00325151
0.00336033
0.00359386
0.0039885
0.00455346
0.00527798
0.00608929
0.0068204
0.00728486
0.0076434
0.00751399
0.0066508
0.00607011
0.00557665
0.00509782
0.00462926
0.00412377
0.00366659
0.00327599
0.0029383
0.00263194
0.00234836
0.00207973
0.00181895
0.00155541
0.00122271
0.000931588
0.0011906
0.00121718
0.00116984
0.00201318
0.00186916
0.0141765
0.0476045
0.00928638
0.00349002
0.00290825
0.00282237
0.00276403
0.00269918
0.00266383
0.00273405
0.00298024
0.003414
0.0040243
0.00480033
0.00565747
0.00646528
0.00707119
0.00740726
0.00732158
0.00678715
0.00621237
0.00563514
0.00507324
0.00455585
0.00409177
0.0036963
0.00336364
0.00307418
0.00280716
0.00255185
0.00229933
0.00204263
0.00177428
0.00147196
0.00117984
0.00111401
0.00111334
0.00169652
0.00502594
0.00268232
0.0179942
0.0606109
0.0143641
0.00382
0.00271506
0.00252913
0.00241155
0.0022938
0.00222083
0.0023112
0.00262992
0.00313944
0.00380368
0.00463567
0.00553463
0.00637311
0.00700573
0.00733042
0.0072546
0.00681714
0.00621423
0.00555395
0.00491152
0.00434284
0.00387278
0.00350069
0.0032068
0.00296183
0.00274137
0.00252915
0.00231368
0.0020876
0.00184572
0.00158333
0.00132835
0.00116298
0.00109538
0.00154578
0.00619777
0.00370822
0.0216433
0.0704841
0.0214412
0.00510398
0.00274304
0.00237178
0.00221008
0.00208189
0.00202627
0.00221925
0.00264949
0.00323145
0.00393999
0.0047806
0.00570782
0.00658289
0.00723135
0.00751896
0.00738706
0.0068978
0.00619935
0.00542795
0.00469236
0.00406507
0.00357475
0.00321248
0.00294736
0.00274066
0.00256385
0.00239551
0.00222193
0.00203551
0.00183243
0.00161319
0.00139768
0.00123593
0.00116432
0.00208537
0.0134105
0.00625692
0.0228345
0.0694895
0.0325388
0.0110626
0.00406975
0.00258803
0.00223574
0.00210321
0.00219035
0.00251246
0.00300035
0.00360305
0.0043365
0.0052207
0.00619625
0.00709913
0.00772673
0.00792988
0.00766954
0.00702978
0.0061693
0.00525206
0.00441011
0.00372393
0.00321727
0.00286891
0.00263518
0.00246857
0.00233557
0.00221043
0.00207838
0.00193225
0.00176939
0.00159208
0.00141662
0.00130155
0.00138996
0.00396493
0.0255245
0.00827513
0.0219181
0.0516263
0.0336439
0.0174394
0.00859304
0.0047628
0.00326323
0.00273124
0.00285454
0.00321175
0.00367302
0.00424835
0.00500073
0.00594804
0.00698655
0.00789956
0.00845117
0.008491
0.00801013
0.00713107
0.00604901
0.00496084
0.00401625
0.00329343
0.00279921
0.00248922
0.00230234
0.00218415
0.00209567
0.0020103
0.00191462
0.00180292
0.0016739
0.00153116
0.00139151
0.00133314
0.00190881
0.0100877
0.0223716
0.00844316
0.0192311
0.0394263
0.0302351
0.0195693
0.0121874
0.00794366
0.00572132
0.00467273
0.00436502
0.00440149
0.00465388
0.00514814
0.00594127
0.00699059
0.0080992
0.0089731
0.00934948
0.00910232
0.00828136
0.00707183
0.00572381
0.00447027
0.00346836
0.00277264
0.00235093
0.00211704
0.00199252
0.00192441
0.00187395
0.0018196
0.00175127
0.00166473
0.00155999
0.00144266
0.00133644
0.00139694
0.00343626
0.0108647
0.0183624
0.00815108
0.0159451
0.0315771
0.0266462
0.0195396
0.013979
0.0102877
0.00803088
0.0067557
0.00605218
0.00573309
0.00578491
0.00627791
0.00721508
0.00842364
0.00956997
0.0102828
0.0103096
0.00959687
0.00829672
0.00668156
0.00507174
0.00373279
0.00279876
0.00223996
0.00195991
0.00181946
0.00174967
0.00171499
0.00168695
0.00165142
0.00160109
0.00153215
0.00144574
0.00135025
0.00127759
0.00145175
0.00360393
0.0103217
0.0173506
0.00781056
0.013262
0.0256661
0.0233462
0.0186893
0.0145849
0.0115902
0.00954603
0.00821187
0.00730194
0.00684233
0.00696119
0.00772293
0.00897929
0.0103588
0.0113911
0.0116869
0.0110925
0.00969425
0.00780108
0.00578166
0.00404185
0.00284548
0.00220135
0.00186989
0.00170701
0.00162533
0.00158278
0.00155912
0.00153683
0.00150737
0.00146604
0.001411
0.00134367
0.00127291
0.00123635
0.00142679
0.00314597
0.00920885
0.016722
0.00848896
0.0133529
0.0224078
0.0220536
0.0177585
0.0143922
0.0118946
0.0100851
0.00876936
0.0079194
0.00777749
0.00847653
0.00986676
0.011511
0.0128385
0.0133547
0.0127963
0.0112476
0.0089805
0.00653235
0.0043207
0.00296581
0.00222528
0.00185938
0.00167852
0.00158364
0.00152714
0.00148801
0.00145723
0.0014267
0.00139209
0.00135106
0.00130496
0.00126056
0.00123973
0.00130815
0.00164569
0.00319612
0.00895377
0.0145195
0.00906886
0.0108778
0.0117622
0.0129231
0.0125526
0.0113743
0.0100741
0.00894545
0.00820285
0.00830596
0.00942132
0.0112912
0.0133406
0.0149007
0.0154468
0.0147404
0.0128018
0.0101093
0.00701186
0.0046302
0.00312102
0.00233327
0.00195411
0.00176931
0.00166666
0.0015969
0.00153873
0.00148357
0.0014296
0.00137908
0.00133164
0.00128908
0.00126476
0.00129412
0.00144703
0.00182088
0.00256312
0.00423084
0.00973104
0.014056
0.00923727
0.00354465
0.00482461
0.00599477
0.00659621
0.00727091
0.00879371
0.0113159
0.0141401
0.0165315
0.0179226
0.0179644
0.0166021
0.0140767
0.01052
0.00725114
0.00477999
0.00328612
0.00253013
0.00218759
0.00202564
0.00193309
0.00186466
0.00180232
0.00173773
0.00166676
0.00158973
0.00151585
0.00146324
0.00144048
0.00148154
0.00165883
0.0020816
0.00286486
0.00414064
0.00624208
0.0100997
0.0152571
0.00854415
0.00444492
0.00628028
0.00808841
0.0109951
0.014675
0.0181321
0.0203718
0.0214184
0.021302
0.0200204
0.0174331
0.0139151
0.0102546
0.00700118
0.00472715
0.00344577
0.00285595
0.00261209
0.00250464
0.00244378
0.0023991
0.00236135
0.00232713
0.00229294
0.00225309
0.00220067
0.00213294
0.00207943
0.00207622
0.00216279
0.00242066
0.00297405
0.00396907
0.00555581
0.00789356
0.0108659
0.0135541
0.00805924
0.0150822
0.0245222
0.018094
0.0143572
0.0169608
0.0206624
0.0227994
0.0235064
0.0230477
0.0216759
0.0196028
0.0168969
0.0136809
0.0103352
0.00741769
0.00536501
0.00425582
0.00377629
0.00358359
0.00348544
0.00340937
0.00333679
0.00326956
0.00321601
0.00318457
0.0031797
0.0031989
0.00323141
0.00326199
0.00328557
0.0033588
0.00351642
0.00382219
0.00438633
0.00536024
0.00692873
0.00932906
0.0128338
0.017574
0.00871624
0.0138108
0.0170612
0.0178414
0.0207391
0.0216546
0.0220677
0.0210738
0.0192691
0.017158
0.0149797
0.0128213
0.0107024
0.00869975
0.00699355
0.00576864
0.00505991
0.00472346
0.0045771
0.00450084
0.00444026
0.00437766
0.00431437
0.00426195
0.00423765
0.00426141
0.00435241
0.00452441
0.00477978
0.00510274
0.00545023
0.0057614
0.00607147
0.00647691
0.00709749
0.00807878
0.00960143
0.0119301
0.01588
0.0170677
0.0109833
0.0121316
0.00891075
0.00882223
0.00934421
0.0097884
0.00921688
0.00814363
0.00696091
0.00585069
0.00486813
0.00402361
0.00332999
0.00280906
0.00247202
0.00229786
0.00223724
0.0022376
0.00226198
0.00229566
0.00233474
0.00238177
0.00244359
0.00252974
0.00265043
0.00281357
0.00302163
0.00326985
0.00354775
0.00384353
0.00414988
0.00446945
0.00480426
0.0051655
0.00558102
0.00607959
0.00667712
0.00736536
0.00816076
0.00917365
0.00913574
)
;

boundaryField
{
    floor
    {
        type            kqRWallFunction;
        value           nonuniform List<scalar> 
36
(
0.00358537
0.000792553
0.00162632
0.00165274
0.00157374
0.0014458
0.00128321
0.00113087
0.000999156
0.000887472
0.000792984
0.000713253
0.000645225
0.000586209
0.000533669
0.000484904
0.000436411
0.000398064
0.000326155
0.000326155
0.00052434
0.000678744
0.000823291
0.00116984
0.00201318
0.00186916
0.00358537
0.00429862
0.00390737
0.00358028
0.000792553
0.00358028
0.00253746
0.00538705
0.00403635
0.00534116
)
;
    }
    ceiling
    {
        type            kqRWallFunction;
        value           nonuniform List<scalar> 
43
(
0.0121316
0.00891075
0.00882223
0.00934421
0.0097884
0.00921688
0.00814363
0.00696091
0.00585069
0.00486813
0.00402361
0.00332999
0.00280906
0.00247202
0.00229786
0.00223724
0.0022376
0.00226198
0.00229566
0.00233474
0.00238177
0.00244359
0.00252974
0.00265043
0.00281357
0.00302163
0.00326985
0.00354775
0.00384353
0.00414988
0.00446945
0.00480426
0.0051655
0.00558102
0.00607959
0.00667712
0.00736536
0.00816076
0.00917365
0.00913574
0.0108778
0.0117622
0.00444492
)
;
    }
    sWall
    {
        type            kqRWallFunction;
        value           nonuniform List<scalar> 9(0.0219181 0.0192311 0.0159451 0.013262 0.0133529 0.0108778 0.0150822 0.0138108 0.0121316);
    }
    nWall
    {
        type            kqRWallFunction;
        value           nonuniform List<scalar> 
14
(
0.00186916
0.00268232
0.00370822
0.00844316
0.00815108
0.00781056
0.00848896
0.00906886
0.00923727
0.00854415
0.00805924
0.00871624
0.0109833
0.00913574
)
;
    }
    sideWalls
    {
        type            empty;
    }
    glass1
    {
        type            kqRWallFunction;
        value           nonuniform List<scalar> 9(0.00158604 0.00340722 0.00549126 0.00797438 0.0108776 0.0141765 0.0179942 0.0216433 0.0228345);
    }
    glass2
    {
        type            kqRWallFunction;
        value           nonuniform List<scalar> 2(0.00625692 0.00827513);
    }
    sun
    {
        type            kqRWallFunction;
        value           nonuniform List<scalar> 
14
(
0.00158604
0.00180125
0.00178805
0.00194652
0.00209763
0.00223976
0.00237625
0.00251167
0.00265182
0.00280497
0.00295508
0.00310134
0.00324894
0.00341151
)
;
    }
    Table_master
    {
        type            kqRWallFunction;
        value           nonuniform List<scalar> 9(0.0026677 0.0020173 0.00157727 0.00127056 0.00105012 0.000887512 0.000765046 0.000672172 0.000603945);
    }
    Table_slave
    {
        type            kqRWallFunction;
        value           nonuniform List<scalar> 9(0.00345661 0.0028603 0.00243742 0.00211125 0.00185167 0.00163302 0.00143948 0.00125938 0.00107846);
    }
    inlet
    {
        type            turbulentIntensityKineticEnergyInlet;
        intensity       0.05;
        value           uniform 0.0009375;
    }
    outlet
    {
        type            zeroGradient;
    }
}


// ************************************************************************* //
