/*--------------------------------*- C++ -*----------------------------------*\
  =========                 |
  \\      /  F ield         | OpenFOAM: The Open Source CFD Toolbox
   \\    /   O peration     | Website:  https://openfoam.org
    \\  /    A nd           | Version:  6
     \\/     M anipulation  |
\*---------------------------------------------------------------------------*/
FoamFile
{
    version     2.0;
    format      ascii;
    class       volScalarField;
    location    "3360";
    object      nut;
}
// * * * * * * * * * * * * * * * * * * * * * * * * * * * * * * * * * * * * * //

dimensions      [0 2 -1 0 0 0 0];

internalField   nonuniform List<scalar> 
458
(
0.0010694
0.00116385
0.00119015
0.00124709
0.00129953
0.00134918
0.00139887
0.00144929
0.00149052
0.00151641
0.00151934
0.00149177
0.00142422
0.00128121
0.00097197
0.000480388
0.000563159
0.000638481
0.000665734
0.000655315
0.000613245
0.000566695
0.000525046
0.000488962
0.000457624
0.000430261
0.000406311
0.000385078
0.000365739
0.000347395
0.000328976
0.000318032
0.00029229
0.00144198
0.00324227
0.00299034
0.00342634
0.00386106
0.00430823
0.00470924
0.00501947
0.00533809
0.00563625
0.00587541
0.00602084
0.00603444
0.00582462
0.00473439
0.00128297
0.0010644
0.000868435
0.00047652
0.00113085
0.00164828
0.00204891
0.00217555
0.00158548
0.00133848
0.00117036
0.00104633
0.000951287
0.000875915
0.000810923
0.000749807
0.000688804
0.000634316
0.000588569
0.000719995
0.000384248
0.00175321
0.00435758
0.00359594
0.00438457
0.00471612
0.00494882
0.00512782
0.00529291
0.00552249
0.00580158
0.00610646
0.00640538
0.00664157
0.00672476
0.00633676
0.00516468
0.00391427
0.00102566
0.000734004
0.00126657
0.00184315
0.00241683
0.00258071
0.00082421
0.000721588
0.000636191
0.000567028
0.000511215
0.000465984
0.000429217
0.000399486
0.000376359
0.000417091
0.00048304
0.000844728
0.00045409
0.00205322
0.00556662
0.00349819
0.00454298
0.00472456
0.00470682
0.00469031
0.00476963
0.00495623
0.0052321
0.00558273
0.00597401
0.00631703
0.00653316
0.00648476
0.00614969
0.00527798
0.00289766
0.00118162
0.0015049
0.00206904
0.00275995
0.00335865
0.00338831
0.000928426
0.000851044
0.000798336
0.000759433
0.000726534
0.000693867
0.00066282
0.000630015
0.000591666
0.000557335
0.00054916
0.00100685
0.000522989
0.00235968
0.00719301
0.00366947
0.00431265
0.00457239
0.00441826
0.00429277
0.00436486
0.00456181
0.00484881
0.00522693
0.00565584
0.00599212
0.00615983
0.00615623
0.00603912
0.0056912
0.00470614
0.00426545
0.00429673
0.00454752
0.00484626
0.00502959
0.00494734
0.00422133
0.00384794
0.00364193
0.00349444
0.00334515
0.00315278
0.00282603
0.0024052
0.00192648
0.00146542
0.00109905
0.0010238
0.000888768
0.000699211
0.000740174
0.000804525
0.00268783
0.00902586
0.00502604
0.00399304
0.00435237
0.00434402
0.00418416
0.00424404
0.0044451
0.00473213
0.00511543
0.00552686
0.00583806
0.00593771
0.00584396
0.00570977
0.00564941
0.00556854
0.00573647
0.00602757
0.00623194
0.00626851
0.00613145
0.00584444
0.00544351
0.00511762
0.00486359
0.00463986
0.0044204
0.00418746
0.00388618
0.00347333
0.00295108
0.00236037
0.00181364
0.00131491
0.00108078
0.000942861
0.00118734
0.000834447
0.00301099
0.0104107
0.00750057
0.00490813
0.00427124
0.00433313
0.00438918
0.00442095
0.00453411
0.00478694
0.0051642
0.00557209
0.0058577
0.00589003
0.00571162
0.00558305
0.00579811
0.00627372
0.00675796
0.0070316
0.00703292
0.00679921
0.00640263
0.00591982
0.00543922
0.00505229
0.00475928
0.0045217
0.00431389
0.00412723
0.00395731
0.00373523
0.00336991
0.00288242
0.0023758
0.00188899
0.00157134
0.00143955
0.00137216
0.000991352
0.00309063
0.00966353
0.00820306
0.00688317
0.00587491
0.00542885
0.00501049
0.00472529
0.00471877
0.00495955
0.00534991
0.00575334
0.00599421
0.00594029
0.00572207
0.00577842
0.00639211
0.00689546
0.00715755
0.00714578
0.00686202
0.00637098
0.00576592
0.00515637
0.00464999
0.00429513
0.00405579
0.00388384
0.00375666
0.00367088
0.00363276
0.0036342
0.00353671
0.00324687
0.00296415
0.00280655
0.00287507
0.00303512
0.00360529
0.00153578
0.0030299
0.00365339
0.0040343
0.00424626
0.0042757
0.00421072
0.00421089
0.00438508
0.00474088
0.00519566
0.00566265
0.00603197
0.00615237
0.00594288
0.00588504
0.00619709
0.00655726
0.00668081
0.00659178
0.00627984
0.00575708
0.00511095
0.00446655
0.0039376
0.00357182
0.00333884
0.00318253
0.00306375
0.00296245
0.00286729
0.00276962
0.00266239
0.00256523
0.00248129
0.00242565
0.00239433
0.00233475
0.00221199
0.00206273
0.00143461
0.0013353
0.00234707
0.00322218
0.00390672
0.0045318
0.00514101
0.00562546
0.00595208
0.00616652
0.00620111
0.00600185
0.00575704
0.00575911
0.00586275
0.00578415
0.00555142
0.00518431
0.00468994
0.00412091
0.00356527
0.00312302
0.00282524
0.00264269
0.00253071
0.00245629
0.00240208
0.00236047
0.00232975
0.00231248
0.00231791
0.00233146
0.00234359
0.00234432
0.00230729
0.00219306
0.00199167
0.00174211
0.00115434
0.00201499
0.00395727
0.00507489
0.00580015
0.00636513
0.00641534
0.00608706
0.0057571
0.00547362
0.00492871
0.00454045
0.00445026
0.00438894
0.00421725
0.00395841
0.00363756
0.00326119
0.00286541
0.00250865
0.00223109
0.00203984
0.0019296
0.00187799
0.0018669
0.00188529
0.00192593
0.00198272
0.00204841
0.00212522
0.00221361
0.00230812
0.00240098
0.00247654
0.0025144
0.00247937
0.00244882
0.0022546
0.00116931
0.00211915
0.0021715
0.00221907
0.00246888
0.00233372
0.00206823
0.00174483
0.00148453
0.00132511
0.00117365
0.00104026
0.000935814
0.000847358
0.000780295
0.00073367
0.000699602
0.000672206
0.000648631
0.000629166
0.000616033
0.000611136
0.000614824
0.00062574
0.000641786
0.000662061
0.000686087
0.000713713
0.000745132
0.000780869
0.000822016
0.000868815
0.000920937
0.00097865
0.00104222
0.00111169
0.00119495
0.0012314
0.00120618
0.00112192
0.00103762
)
;

boundaryField
{
    floor
    {
        type            nutkWallFunction;
        Cmu             0.09;
        kappa           0.41;
        E               9.8;
        value           nonuniform List<scalar> 
36
(
0.000117415
5.72036e-05
6.77278e-05
7.71398e-05
8.05114e-05
7.92243e-05
7.40021e-05
6.81728e-05
6.29072e-05
5.83036e-05
5.42711e-05
5.07216e-05
4.75915e-05
4.47967e-05
4.22341e-05
3.97871e-05
3.73132e-05
3.58347e-05
3.233e-05
3.23299e-05
4.46863e-05
5.38133e-05
6.26451e-05
8.46297e-05
8.96381e-05
9.74411e-05
0.000117415
0.00015352
0.000128266
0.000105117
5.72036e-05
0.000105117
5.67064e-05
0.000123732
8.88863e-05
0.000141876
)
;
    }
    ceiling
    {
        type            nutkWallFunction;
        Cmu             0.09;
        kappa           0.41;
        E               9.8;
        value           nonuniform List<scalar> 
43
(
0.000246189
0.000251843
0.000256969
0.000283773
0.000269378
0.000240783
0.000205391
0.000176377
0.000158332
0.000140959
0.000125446
0.00011314
0.000102594
9.4512e-05
8.88454e-05
8.46779e-05
8.1309e-05
7.83968e-05
7.59828e-05
7.43489e-05
7.37386e-05
7.41983e-05
7.55569e-05
7.75488e-05
8.00572e-05
8.30179e-05
8.64069e-05
9.02423e-05
9.45816e-05
9.95489e-05
0.000105163
0.000111375
0.000118206
0.000125677
0.000133782
0.000143421
0.000147616
0.000144715
0.00013497
0.000125139
0.000343193
0.000407608
0.000234818
)
;
    }
    sWall
    {
        type            nutkWallFunction;
        Cmu             0.09;
        kappa           0.41;
        E               9.8;
        value           uniform 0.000246255;
    }
    nWall
    {
        type            nutkWallFunction;
        Cmu             0.09;
        kappa           0.41;
        E               9.8;
        value           nonuniform List<scalar> 6(9.74417e-05 0.000101045 0.000119707 0.000138739 0.000140471 0.000125146);
    }
    sideWalls
    {
        type            empty;
    }
    glass1
    {
        type            nutkWallFunction;
        Cmu             0.09;
        kappa           0.41;
        E               9.8;
        value           nonuniform List<scalar> 9(0.000128958 0.00017181 0.000206643 0.00023958 0.000272694 0.000307648 0.000341638 0.000349965 0.000343641);
    }
    glass2
    {
        type            nutkWallFunction;
        Cmu             0.09;
        kappa           0.41;
        E               9.8;
        value           nonuniform List<scalar> 2(0.000182232 0.00017084);
    }
    sun
    {
        type            nutkWallFunction;
        Cmu             0.09;
        kappa           0.41;
        E               9.8;
        value           nonuniform List<scalar> 
14
(
0.000128854
0.000139823
0.00014286
0.000149409
0.000155412
0.00016107
0.00016671
0.00017241
0.000177053
0.000179963
0.000180291
0.000177193
0.000169577
0.000153317
)
;
    }
    Table_master
    {
        type            nutkWallFunction;
        Cmu             0.09;
        kappa           0.41;
        E               9.8;
        value           nonuniform List<scalar> 9(9.98119e-05 8.73713e-05 7.68583e-05 6.82191e-05 6.11536e-05 5.53579e-05 5.0595e-05 4.67059e-05 4.36554e-05);
    }
    Table_slave
    {
        type            nutkWallFunction;
        Cmu             0.09;
        kappa           0.41;
        E               9.8;
        value           nonuniform List<scalar> 9(0.000112261 0.000103034 9.66935e-05 9.1982e-05 8.79753e-05 8.39754e-05 8.01531e-05 7.60908e-05 7.13095e-05);
    }
    inlet
    {
        type            calculated;
        value           uniform 0.000167705;
    }
    outlet
    {
        type            calculated;
        value           nonuniform List<scalar> 2(0.00211915 0.0021715);
    }
}


// ************************************************************************* //
