/*--------------------------------*- C++ -*----------------------------------*\
  =========                 |
  \\      /  F ield         | OpenFOAM: The Open Source CFD Toolbox
   \\    /   O peration     | Website:  https://openfoam.org
    \\  /    A nd           | Version:  6
     \\/     M anipulation  |
\*---------------------------------------------------------------------------*/
FoamFile
{
    version     2.0;
    format      ascii;
    class       volScalarField;
    location    "48800.0000009547439";
    object      epsilon;
}
// * * * * * * * * * * * * * * * * * * * * * * * * * * * * * * * * * * * * * //

dimensions      [0 2 -3 0 0 0 0];

internalField   nonuniform List<scalar> 
778
(
0.000253125
0.000306342
0.000302977
0.000344138
0.000384995
0.000424802
0.000464255
0.000504543
0.000547402
0.000595552
0.000644049
0.000692497
0.000742542
0.000798973
0.000860809
8.94763e-05
0.000262737
0.000269228
0.000250206
0.000220367
0.000184292
0.000152472
0.000126611
0.000105971
8.94964e-05
7.63416e-05
6.5685e-05
5.6884e-05
4.94123e-05
4.27977e-05
3.65416e-05
3.18321e-05
2.36077e-05
0.000797022
0.00144323
0.000286974
0.000259568
0.000261667
0.000267644
0.000276547
0.000289988
0.000310258
0.000340488
0.000379747
0.00043093
0.000499406
0.000600727
0.000786021
0.00112989
0.000979214
0.000858767
0.000511816
0.000369509
0.000294316
0.000243031
0.000204223
0.00018709
0.000154841
0.000125094
0.000100752
8.1522e-05
6.65484e-05
5.48389e-05
4.56459e-05
3.87217e-05
3.45322e-05
3.27779e-05
6.57849e-05
4.80992e-05
0.0016307
0.00407921
0.000407389
0.000242908
0.000229087
0.000231006
0.00023823
0.000250509
0.000268429
0.000292722
0.000324881
0.000366993
0.000421439
0.000495218
0.000601679
0.000725007
0.000830189
0.00158463
0.00102779
0.000512331
0.00036777
0.000294385
0.000262238
0.000551861
0.00036294
0.000250984
0.000181505
0.000136406
0.000105992
8.48273e-05
6.98548e-05
5.94898e-05
4.51553e-05
3.79998e-05
0.000108083
7.08021e-05
0.00285369
0.00877068
0.000709901
0.000240709
0.000202463
0.000200006
0.000203188
0.000209825
0.000220654
0.000237587
0.000263301
0.000300084
0.000349347
0.000412533
0.000488251
0.000560446
0.000612618
0.000824653
0.00156515
0.000728834
0.000459737
0.000358269
0.000301904
0.000291828
0.000814271
0.000612868
0.000482103
0.000388694
0.000319299
0.000264474
0.000218887
0.000179122
0.000141938
8.38728e-05
5.49477e-05
0.00014834
9.45172e-05
0.0045463
0.0158276
0.0013464
0.000258334
0.000175718
0.000166782
0.0001658
0.000167787
0.000173959
0.000187474
0.000211734
0.000248446
0.000297908
0.000359503
0.000428003
0.000489381
0.000528753
0.000582646
0.00062773
0.000483277
0.000393517
0.000331033
0.000282295
0.000248632
0.000247852
0.000226803
0.00020297
0.000181099
0.000162724
0.000146564
0.00013189
0.000118288
0.000105115
8.45306e-05
6.42798e-05
0.000105098
0.000138789
0.000159973
0.000359677
0.000319562
0.00676403
0.0248782
0.0025535
0.000318072
0.000155525
0.000137056
0.000132127
0.000130704
0.000134478
0.000148567
0.000176721
0.000218108
0.000270872
0.000334239
0.000401899
0.000462803
0.000503192
0.000521888
0.000504992
0.00043839
0.000373901
0.00031569
0.000264768
0.00022341
0.000193314
0.00016965
0.000150829
0.00013564
0.000123309
0.000112764
0.000103308
9.45345e-05
8.60687e-05
7.58954e-05
6.54164e-05
7.76014e-05
9.97129e-05
0.00020808
0.00105768
0.000549375
0.00967254
0.0336364
0.00458359
0.000465007
0.000150838
0.000116338
0.000107092
0.000103295
0.000107095
0.000127913
0.000166104
0.000215857
0.000273302
0.000340095
0.000409434
0.000470601
0.000510351
0.000520646
0.000494509
0.000437782
0.000371943
0.000307539
0.000250585
0.000204465
0.000169766
0.000144565
0.000126325
0.000112734
0.000102284
9.37246e-05
8.62386e-05
7.93536e-05
7.27822e-05
6.61057e-05
6.03753e-05
6.38451e-05
7.67104e-05
0.000171524
0.00157213
0.000893648
0.0127593
0.0404053
0.00748953
0.000871368
0.000194317
0.000115402
9.74103e-05
9.14915e-05
9.8701e-05
0.00013774
0.000189271
0.000246202
0.000306989
0.00037381
0.000444825
0.000508167
0.000547553
0.000551139
0.000515906
0.000451721
0.000375614
0.000301006
0.000236495
0.000185965
0.000149309
0.000123967
0.00010669
9.4549e-05
8.57279e-05
7.88148e-05
7.29238e-05
6.75627e-05
6.24862e-05
5.76611e-05
5.40327e-05
5.60278e-05
7.00272e-05
0.000336656
0.00538805
0.0019644
0.013828
0.0414598
0.0139307
0.00316307
0.000630081
0.000208146
0.000132802
0.000116115
0.000142638
0.000193081
0.000249363
0.000306406
0.000367287
0.000436569
0.000511036
0.000575746
0.000611001
0.000603329
0.000552354
0.000471124
0.000378563
0.000290906
0.000218207
0.000163966
0.000126729
0.000102563
8.72411e-05
7.73008e-05
7.06345e-05
6.56593e-05
6.14814e-05
5.76582e-05
5.40158e-05
5.06622e-05
4.85838e-05
5.30176e-05
9.62011e-05
0.000941095
0.0130636
0.00293873
0.0130051
0.0283714
0.0144148
0.00572607
0.00210457
0.000835207
0.000414287
0.000277387
0.000279544
0.000315027
0.000356357
0.00040182
0.000458552
0.000530749
0.000609769
0.000673785
0.000698608
0.000670709
0.000594007
0.000486862
0.000372683
0.000270604
0.000191007
0.000135637
0.000100591
7.98127e-05
6.79061e-05
6.11264e-05
5.70489e-05
5.41126e-05
5.15709e-05
4.91201e-05
4.67109e-05
4.46371e-05
4.45638e-05
5.80846e-05
0.000214709
0.0025709
0.0111015
0.00308815
0.0106899
0.0193569
0.0120383
0.00630022
0.00317496
0.0016755
0.000987617
0.000679924
0.000560889
0.000518039
0.000510889
0.000531675
0.000583639
0.000662408
0.000746897
0.000804494
0.000806973
0.000744146
0.000628314
0.000486276
0.000347516
0.000233331
0.000152241
0.000101623
7.34803e-05
5.87552e-05
5.13125e-05
4.78658e-05
4.60576e-05
4.47329e-05
4.34133e-05
4.19487e-05
4.04274e-05
3.94957e-05
4.29722e-05
8.56869e-05
0.000597555
0.00291225
0.0081998
0.00296815
0.00807169
0.0137684
0.00969108
0.00593309
0.0035699
0.00222791
0.00149137
0.00109373
0.000870055
0.000744253
0.000686429
0.000690353
0.000750276
0.000843886
0.000930959
0.000967242
0.000925487
0.000805852
0.00063549
0.000452508
0.000292777
0.00017696
0.000106689
6.93456e-05
5.24503e-05
4.43303e-05
4.04804e-05
3.9048e-05
3.84503e-05
3.79969e-05
3.73973e-05
3.65828e-05
3.57479e-05
3.60865e-05
4.70073e-05
0.000169484
0.000894321
0.00284679
0.00612028
0.00268146
0.00612204
0.0101632
0.00778795
0.0053114
0.00356989
0.00246918
0.00178822
0.00136859
0.00109341
0.000926609
0.000859708
0.000886605
0.000981692
0.00109524
0.00116678
0.00114808
0.00102643
0.000822898
0.000587487
0.000369093
0.00020768
0.000114233
7.19573e-05
5.22872e-05
4.29286e-05
3.81444e-05
3.57137e-05
3.47939e-05
3.44703e-05
3.43109e-05
3.4153e-05
3.40248e-05
3.42706e-05
3.67578e-05
5.48335e-05
0.000191411
0.000852171
0.00254856
0.00562444
0.00252587
0.00617972
0.0078043
0.00679917
0.00473696
0.00336419
0.00246157
0.00186538
0.00146216
0.00119477
0.00106511
0.00107057
0.00117912
0.00132608
0.00143253
0.0014331
0.00129769
0.00105185
0.00074474
0.000458003
0.000238693
0.000130833
8.16803e-05
6.01405e-05
4.96225e-05
4.36064e-05
3.96714e-05
3.7055e-05
3.56475e-05
3.50718e-05
3.50416e-05
3.55866e-05
3.69775e-05
3.98292e-05
4.6275e-05
6.76087e-05
0.000170142
0.000639115
0.00204306
0.00478601
0.00302381
0.00454442
0.00511036
0.00418309
0.0033606
0.00263884
0.0020694
0.00164846
0.00136169
0.00124551
0.00130134
0.00147739
0.00168246
0.00181617
0.00180627
0.00162918
0.0013006
0.000913057
0.000522505
0.000279811
0.000155043
0.000101865
7.95405e-05
6.87442e-05
6.19117e-05
5.64627e-05
5.16393e-05
4.75302e-05
4.47738e-05
4.37848e-05
4.44897e-05
4.74664e-05
5.38144e-05
6.50163e-05
8.35884e-05
0.000118174
0.000208471
0.000540976
0.00188787
0.00369881
0.00321727
0.00140133
0.00143134
0.00143321
0.0013536
0.00131107
0.00142437
0.00170982
0.00204333
0.00230118
0.00239328
0.00227444
0.00196317
0.00152299
0.00098208
0.000571316
0.000313585
0.000187676
0.000135669
0.000115397
0.000106025
9.9937e-05
9.44997e-05
8.8744e-05
8.24409e-05
7.61282e-05
7.13896e-05
7.03721e-05
7.3898e-05
8.39968e-05
0.000103818
0.000136927
0.000187444
0.000264856
0.000402564
0.000723927
0.00205762
0.0033776
0.00333908
0.00118737
0.00171617
0.00195269
0.00230915
0.00275848
0.00316246
0.00334003
0.00330086
0.00307029
0.00267343
0.00210623
0.00149074
0.000962698
0.000567331
0.000339457
0.000233394
0.000192492
0.000177405
0.000170738
0.000166526
0.000162906
0.000159008
0.000154146
0.000147924
0.000140849
0.000135154
0.000135175
0.000143511
0.000164311
0.000203884
0.000270249
0.000373406
0.000529716
0.00077685
0.0012132
0.00218565
0.004141
0.00300311
0.00742155
0.0080737
0.00480617
0.00340166
0.00373764
0.00415133
0.00416553
0.00395412
0.0035945
0.00313538
0.0026231
0.00207897
0.00153213
0.00105052
0.000694239
0.000477199
0.000372676
0.000329639
0.000311102
0.000300645
0.00029337
0.000288353
0.000285475
0.000284209
0.00028335
0.000281432
0.000277892
0.00027495
0.000278457
0.000292093
0.000320791
0.000372492
0.000458885
0.000596915
0.000813245
0.00115573
0.00171471
0.00261588
0.00393481
0.00278511
0.00650509
0.00513319
0.00437218
0.00462514
0.00454411
0.00427541
0.00369375
0.00304658
0.00246026
0.00196627
0.00156075
0.00123297
0.000977824
0.000794655
0.000678221
0.000612085
0.000571418
0.000543612
0.000522791
0.00050729
0.000497811
0.000495862
0.000502641
0.000518286
0.000541524
0.000569758
0.000599625
0.000627818
0.000653073
0.000682024
0.00072355
0.000787397
0.000884953
0.00103206
0.00125411
0.00159314
0.00211358
0.00292277
0.00368425
0.00322465
0.00535768
0.00336892
0.00331777
0.0036138
0.00387076
0.00352944
0.00292427
0.00230778
0.00178208
0.00136432
0.00104276
0.000803351
0.000634953
0.000526976
0.000466246
0.000437516
0.000430109
0.000431794
0.000439376
0.000453449
0.000475667
0.000507411
0.000548911
0.000598935
0.00065514
0.000714903
0.000776322
0.000839131
0.000905241
0.00097542
0.00105478
0.0011503
0.00126913
0.00141794
0.00160121
0.00181676
0.00205272
0.00231711
0.00273097
0.00285411
)
;

boundaryField
{
    floor
    {
        Cmu             0.09;
        kappa           0.41;
        E               9.8;
        type            epsilonWallFunction;
        value           nonuniform List<scalar> 
36
(
0.000860809
8.94763e-05
0.000262737
0.000269228
0.000250206
0.000220367
0.000184292
0.000152472
0.000126611
0.000105971
8.94964e-05
7.63416e-05
6.5685e-05
5.6884e-05
4.94123e-05
4.27977e-05
3.65416e-05
3.18321e-05
2.36077e-05
2.36077e-05
4.80992e-05
7.08021e-05
9.45172e-05
0.000159973
0.000359677
0.000319562
0.000860809
0.00112989
0.000979214
0.000858767
8.94763e-05
0.000858767
0.000511816
0.00158463
0.00102779
0.00156515
)
;
    }
    ceiling
    {
        Cmu             0.09;
        kappa           0.41;
        E               9.8;
        type            epsilonWallFunction;
        value           nonuniform List<scalar> 
43
(
0.00535768
0.00336892
0.00331777
0.0036138
0.00387076
0.00352944
0.00292427
0.00230778
0.00178208
0.00136432
0.00104276
0.000803351
0.000634953
0.000526976
0.000466246
0.000437516
0.000430109
0.000431794
0.000439376
0.000453449
0.000475667
0.000507411
0.000548911
0.000598935
0.00065514
0.000714903
0.000776322
0.000839131
0.000905241
0.00097542
0.00105478
0.0011503
0.00126913
0.00141794
0.00160121
0.00181676
0.00205272
0.00231711
0.00273097
0.00285411
0.00454442
0.00511036
0.00118737
)
;
    }
    sWall
    {
        Cmu             0.09;
        kappa           0.41;
        E               9.8;
        type            epsilonWallFunction;
        value           nonuniform List<scalar> 9(0.0130051 0.0106899 0.00807169 0.00612204 0.00617972 0.00454442 0.00742155 0.00650509 0.00535768);
    }
    nWall
    {
        Cmu             0.09;
        kappa           0.41;
        E               9.8;
        type            epsilonWallFunction;
        value           nonuniform List<scalar> 
14
(
0.000319562
0.000549375
0.000893648
0.00308815
0.00296815
0.00268146
0.00252587
0.00302381
0.00321727
0.00333908
0.00300311
0.00278511
0.00322465
0.00285411
)
;
    }
    sideWalls
    {
        type            empty;
    }
    glass1
    {
        Cmu             0.09;
        kappa           0.41;
        E               9.8;
        type            epsilonWallFunction;
        value           nonuniform List<scalar> 9(0.000253125 0.000797022 0.0016307 0.00285369 0.0045463 0.00676403 0.00967254 0.0127593 0.013828);
    }
    glass2
    {
        Cmu             0.09;
        kappa           0.41;
        E               9.8;
        type            epsilonWallFunction;
        value           nonuniform List<scalar> 2(0.0019644 0.00293873);
    }
    sun
    {
        Cmu             0.09;
        kappa           0.41;
        E               9.8;
        type            epsilonWallFunction;
        value           nonuniform List<scalar> 
14
(
0.000253125
0.000306342
0.000302977
0.000344138
0.000384995
0.000424802
0.000464255
0.000504543
0.000547402
0.000595552
0.000644049
0.000692497
0.000742542
0.000798973
)
;
    }
    Table_master
    {
        Cmu             0.09;
        kappa           0.41;
        E               9.8;
        type            epsilonWallFunction;
        value           nonuniform List<scalar> 9(0.000551861 0.00036294 0.000250984 0.000181505 0.000136406 0.000105992 8.48273e-05 6.98548e-05 5.94898e-05);
    }
    Table_slave
    {
        Cmu             0.09;
        kappa           0.41;
        E               9.8;
        type            epsilonWallFunction;
        value           nonuniform List<scalar> 9(0.000814271 0.000612868 0.000482103 0.000388694 0.000319299 0.000264474 0.000218887 0.000179122 0.000141938);
    }
    inlet
    {
        type            turbulentMixingLengthDissipationRateInlet;
        mixingLength    0.01;
        phi             phi;
        k               k;
        value           uniform 0.000471671;
    }
    outlet
    {
        type            zeroGradient;
    }
}


// ************************************************************************* //
