/*--------------------------------*- C++ -*----------------------------------*\
  =========                 |
  \\      /  F ield         | OpenFOAM: The Open Source CFD Toolbox
   \\    /   O peration     | Website:  https://openfoam.org
    \\  /    A nd           | Version:  6
     \\/     M anipulation  |
\*---------------------------------------------------------------------------*/
FoamFile
{
    version     2.0;
    format      ascii;
    class       volScalarField;
    location    "260";
    object      nut;
}
// * * * * * * * * * * * * * * * * * * * * * * * * * * * * * * * * * * * * * //

dimensions      [0 2 -1 0 0 0 0];

internalField   nonuniform List<scalar> 
458
(
0.00119364
0.00130928
0.00134963
0.00141957
0.0014863
0.00155317
0.0016239
0.00168463
0.00172757
0.00174228
0.00171686
0.00160285
0.00142658
0.00122381
0.00104676
0.000545449
0.000639624
0.000733378
0.000774398
0.000763447
0.000714665
0.000661286
0.000613619
0.000572344
0.000536535
0.000505329
0.000477996
0.000453806
0.00043179
0.0004109
0.000389817
0.000374368
0.000342422
0.00157127
0.00371518
0.00351059
0.00404097
0.00458398
0.00509527
0.00547237
0.00586581
0.00624042
0.00654906
0.00674614
0.00675727
0.00638148
0.0055031
0.00357778
0.00128945
0.00112079
0.00093915
0.000532673
0.00138364
0.00210588
0.00263858
0.0027494
0.00192628
0.00160723
0.00139886
0.00124817
0.00113402
0.00104409
0.000968694
0.000896857
0.00082248
0.000753418
0.000695739
0.000824328
0.000428998
0.00188109
0.00496872
0.00423833
0.00497595
0.00529547
0.00552754
0.00572181
0.0059991
0.00635502
0.00677668
0.00721065
0.00754685
0.00753528
0.00709919
0.0059903
0.00433436
0.00318079
0.00105629
0.000739425
0.00148257
0.00234268
0.00315345
0.00327951
0.00094955
0.000826005
0.000724242
0.000642596
0.00057725
0.000524663
0.00048215
0.000448265
0.000422889
0.000476339
0.000567651
0.000975382
0.000496739
0.00217398
0.00618653
0.00416113
0.00503901
0.00509985
0.00507648
0.00516602
0.00538108
0.00573842
0.00625132
0.00682957
0.00730226
0.00744381
0.00727902
0.00678104
0.00582466
0.0045681
0.0023964
0.00115317
0.00160004
0.00243571
0.00346749
0.00430048
0.00424625
0.00107472
0.000981424
0.000914827
0.000862558
0.000815972
0.000773414
0.00073142
0.00068659
0.000634509
0.000584652
0.0005984
0.00116978
0.000559648
0.0024701
0.00779563
0.00430692
0.00483404
0.00486627
0.00471319
0.00478488
0.0049861
0.0053564
0.00593337
0.00656583
0.00700666
0.00714693
0.00703868
0.00677429
0.00630537
0.00552259
0.00428806
0.00399826
0.00448416
0.00517453
0.00581539
0.00618449
0.00610413
0.00510353
0.00457714
0.00426605
0.00402727
0.00377962
0.00341989
0.002965
0.00244245
0.00189122
0.0013941
0.00104885
0.00110852
0.000935596
0.000743782
0.000785059
0.000850265
0.00278719
0.00961708
0.00562374
0.00464899
0.00484342
0.00474705
0.00473125
0.00489756
0.00527169
0.0058571
0.00648543
0.00689892
0.00697085
0.00681902
0.00666384
0.00657362
0.00641185
0.00614635
0.00642845
0.00704494
0.00748737
0.00765905
0.00755616
0.00721347
0.00666829
0.00619921
0.00581657
0.00546761
0.00511579
0.00471062
0.00421202
0.0036177
0.00294625
0.0022665
0.00171472
0.00129997
0.00111041
0.00100519
0.00126737
0.000885236
0.00309469
0.0109462
0.00796969
0.00551238
0.00513172
0.00509731
0.00495615
0.00500978
0.00536403
0.00596576
0.0065998
0.00697166
0.00696429
0.00681037
0.00690568
0.00728691
0.00758788
0.00784492
0.00830534
0.00868253
0.00872202
0.00846634
0.00799468
0.00739608
0.00675983
0.00620977
0.0057525
0.00535274
0.00499332
0.00466988
0.00437885
0.00397527
0.00345812
0.00286023
0.0023165
0.00185568
0.00158528
0.00150632
0.00145771
0.00107568
0.00317023
0.00992807
0.00845003
0.00710082
0.00636847
0.00566622
0.00519004
0.00517485
0.00558145
0.00624189
0.00687604
0.00716408
0.00707515
0.0071325
0.00774664
0.00826253
0.00857204
0.0088352
0.00907067
0.00907855
0.00873709
0.00812599
0.00735439
0.00653799
0.00579794
0.00521676
0.00477752
0.00443706
0.00417619
0.00399396
0.00389217
0.00383455
0.0036271
0.00328031
0.00300107
0.00289747
0.00306709
0.00336987
0.00410111
0.00163968
0.00310707
0.00374311
0.00419536
0.00436781
0.00433778
0.00436025
0.00461983
0.00516793
0.00592253
0.00671019
0.00727213
0.00734063
0.00731131
0.0077305
0.00829243
0.00855802
0.0086808
0.00872381
0.00861124
0.00823779
0.00758643
0.00672505
0.0058041
0.00497662
0.00434062
0.00389197
0.00356997
0.00332545
0.00313245
0.00297596
0.00284424
0.00273015
0.00264352
0.00257912
0.00254589
0.00252895
0.00246907
0.00232989
0.00216055
0.0015031
0.0014822
0.00254644
0.0035809
0.00458576
0.00557439
0.00641082
0.00705203
0.00742986
0.0074855
0.00732717
0.00737757
0.00766478
0.00776657
0.00772928
0.00762616
0.00741649
0.0070226
0.00641313
0.0056499
0.0048612
0.00415826
0.00362861
0.0032716
0.00303079
0.00285701
0.00272429
0.00262301
0.00255247
0.00251715
0.00251419
0.00252679
0.002545
0.00255196
0.00251408
0.00238818
0.00216793
0.00188027
0.00120738
0.00215888
0.00463179
0.00623889
0.00731198
0.00752229
0.00731283
0.00692552
0.00629527
0.00588872
0.00585399
0.00588615
0.00581911
0.0057024
0.00557431
0.00540174
0.00513443
0.00475186
0.00428978
0.00382242
0.00341508
0.00309251
0.00285941
0.00270112
0.00259443
0.00252451
0.00248349
0.00246544
0.00246205
0.00249032
0.00254517
0.00261945
0.00270103
0.00276936
0.00281019
0.00277668
0.00273186
0.00238432
0.00122329
0.00227253
0.00232396
0.0023729
0.00266388
0.00240346
0.00200392
0.00167074
0.00149395
0.00134474
0.00123179
0.00113526
0.00106354
0.00101514
0.00098295
0.000959281
0.000937491
0.000912794
0.00088301
0.000849485
0.000816784
0.000790134
0.000772964
0.000766422
0.000768166
0.00077607
0.000789426
0.00080806
0.000832278
0.000862922
0.000901682
0.000947131
0.000999737
0.00105957
0.00112674
0.00120063
0.00129917
0.00132823
0.00129634
0.00120679
0.00111217
)
;

boundaryField
{
    floor
    {
        type            nutkWallFunction;
        Cmu             0.09;
        kappa           0.41;
        E               9.8;
        value           nonuniform List<scalar> 
36
(
0.000126197
6.55006e-05
7.72867e-05
8.88131e-05
9.38002e-05
9.24723e-05
8.6528e-05
7.99677e-05
7.40555e-05
6.88908e-05
6.43732e-05
6.0406e-05
5.69061e-05
5.37878e-05
5.09315e-05
4.82042e-05
4.54338e-05
4.33912e-05
3.91325e-05
3.91325e-05
5.05658e-05
5.93056e-05
6.72896e-05
9.00776e-05
9.5088e-05
0.00010294
0.000126197
0.000154245
0.000134824
0.00011353
6.55005e-05
0.00011353
6.38832e-05
0.000127312
8.95482e-05
0.000138577
)
;
    }
    ceiling
    {
        type            nutkWallFunction;
        Cmu             0.09;
        kappa           0.41;
        E               9.8;
        value           nonuniform List<scalar> 
43
(
0.000262645
0.000268157
0.00027339
0.000304393
0.00027681
0.000233787
0.00019718
0.000177433
0.000160561
0.00014765
0.000136509
0.000128162
0.000122494
0.000118707
0.000115913
0.000113333
0.000110401
0.000106853
0.000102843
9.89131e-05
9.5697e-05
9.36182e-05
9.28247e-05
9.30366e-05
9.39954e-05
9.56124e-05
9.7863e-05
0.000100779
0.000104454
0.00010908
0.000114476
0.000120684
0.0001277
0.000135522
0.000144066
0.000155369
0.000158684
0.000155047
0.000144776
0.000133831
0.000351169
0.000416694
0.000250314
)
;
    }
    sWall
    {
        type            nutkWallFunction;
        Cmu             0.09;
        kappa           0.41;
        E               9.8;
        value           uniform 0.000262717;
    }
    nWall
    {
        type            nutkWallFunction;
        Cmu             0.09;
        kappa           0.41;
        E               9.8;
        value           nonuniform List<scalar> 6(0.000102942 0.000107125 0.000129587 0.000144857 0.000146688 0.00013384);
    }
    sideWalls
    {
        type            empty;
    }
    glass1
    {
        type            nutkWallFunction;
        Cmu             0.09;
        kappa           0.41;
        E               9.8;
        value           nonuniform List<scalar> 9(0.000143409 0.000186361 0.000220733 0.000252663 0.000284479 0.000318105 0.000350336 0.000358212 0.000351657);
    }
    glass2
    {
        type            nutkWallFunction;
        Cmu             0.09;
        kappa           0.41;
        E               9.8;
        value           nonuniform List<scalar> 2(0.000193841 0.000178556);
    }
    sun
    {
        type            nutkWallFunction;
        Cmu             0.09;
        kappa           0.41;
        E               9.8;
        value           nonuniform List<scalar> 
14
(
0.000143254
0.000156509
0.000161103
0.000169032
0.000176556
0.000184059
0.000191957
0.000198708
0.000203465
0.000205092
0.00020228
0.000189608
0.000169823
0.000146723
)
;
    }
    Table_master
    {
        type            nutkWallFunction;
        Cmu             0.09;
        kappa           0.41;
        E               9.8;
        value           nonuniform List<scalar> 9(0.000114762 0.000100029 8.76998e-05 7.76589e-05 6.95121e-05 6.28744e-05 5.74482e-05 5.30808e-05 4.9783e-05);
    }
    Table_slave
    {
        type            nutkWallFunction;
        Cmu             0.09;
        kappa           0.41;
        E               9.8;
        value           nonuniform List<scalar> 9(0.000129466 0.000118527 0.000110646 0.000104414 9.88221e-05 9.3681e-05 8.8575e-05 8.30855e-05 7.66538e-05);
    }
    inlet
    {
        type            calculated;
        value           uniform 0.000167705;
    }
    outlet
    {
        type            calculated;
        value           nonuniform List<scalar> 2(0.00227253 0.00232396);
    }
}


// ************************************************************************* //
