/*--------------------------------*- C++ -*----------------------------------*=========                 |
  \      /  F ield         | OpenFOAM: The Open Source CFD Toolbox
   \    /   O peration     | Website:  https://openfoam.org
    \  /    A nd           | Version:  6
     \/     M anipulation  |
\*---------------------------------------------------------------------------*/
FoamFile
{
    version     2.0;
    format      ascii;
    class       volScalarField;
    location    "260";
    object      PPD;
}
// * * * * * * * * * * * * * * * * * * * * * * * * * * * * * * * * * * * * * //

dimensions      [0 0 0 0 0 0 0];

internalField   nonuniform List<scalar> 
458
(
40.99516481826571
29.009504610517368
27.478913883719784
26.26006140007202
25.54008167933864
25.28115838651236
25.545605090352723
26.371715772717053
27.972782007720568
30.587378378867996
34.388076883941366
36.80352659418448
37.42341029573648
37.80687672441015
38.36070930456494
45.89942341423006
45.11085511970112
44.882516300341806
45.364887846756055
45.74655491741138
46.0268996596453
45.66362311713605
45.49578503000112
45.56644570972086
45.71577203535572
45.89864199439199
46.14459090425725
46.42400762471978
46.839868530095686
47.4893488883494
48.48795155230977
48.87450322988907
49.778157783866746
37.41144160869476
29.602323703904645
28.974237445782578
27.739242403569577
27.072629534391382
26.789937479343337
26.971852635522524
27.421336289876507
28.209358442199104
29.550090141200968
31.788194581506474
35.49233116765478
37.44733279294214
37.90297700907911
36.30777502261817
34.869531131584
35.55887890094765
37.31051158691912
44.07763415415612
44.224479130415006
44.249742797246
44.80646574364615
44.90601697236696
44.99727481168794
45.09897217561801
45.247797483874905
45.37822044843669
45.48926463017414
45.585751751785445
45.723922378806684
45.90465636676619
46.167482392991225
46.72110872179474
47.536600630537755
48.05044799999092
47.70156927912832
38.747319512142965
29.272588731188407
30.522740507546317
29.913882269286688
29.65204575368486
29.526803060040933
29.57810068476813
29.204744633099395
28.42257665198818
28.061100553997903
29.221279539089238
32.50764193458805
36.88238658133687
38.43317042310126
38.1409867670981
37.34924886912949
37.39638498146461
37.40828044263972
39.013515285524534
41.49996352000105
41.81782914494841
42.51118951961196
43.39239634217502
43.72566495889028
45.03167088546019
46.070219648304615
46.28208136731536
46.384237974087036
46.51199984027402
46.639834066064395
46.79332899751554
46.921318274941925
47.22703667364272
47.536600630537755
47.37687208965078
43.91899715598099
42.39896304452807
29.050591406841306
31.69374329311306
32.41158953929532
33.338656139328364
33.89865154385457
33.82113081276819
31.739123972195543
28.66495202743164
26.68480036861135
27.27428018421766
30.60314612798072
35.113053638689436
38.99161393521395
39.599294549743554
38.61271858423365
36.74167477887021
35.489054455497296
33.70672199655513
36.79495537505151
38.95768915300041
40.845406464300446
43.00973357319961
45.34757160307598
47.18247080228679
47.29194608720125
47.3852806060582
47.72112126045402
48.12135907441025
48.64707589389449
49.325936869636
50.30584955993167
51.820187934503146
51.20213372410429
49.726461469952795
46.72147162055581
41.68573408982853
47.223032340523325
29.46244084744258
32.60853748474017
34.753330420794924
37.88737488964153
40.38638137764049
39.4633870234601
34.083811067293226
28.63842559869566
25.55038743628708
25.98676704277682
29.392736244741158
34.391577672161944
39.2186256474161
40.97502973513067
40.84991883061987
38.72258703884526
37.35972735531581
37.578851090691295
38.754175990107626
40.836750049074965
43.536345045427915
46.40090279865316
49.22328264223196
51.49948291728269
52.503714063848726
53.074900710113646
53.490852942250186
53.78112117969566
53.92041775233973
53.98356613211112
54.034801559851665
53.95081968219604
52.742191856821464
50.67679945817311
46.296236474426586
45.818244762023916
46.818799772997075
51.751415942021175
45.31540744799062
52.40927266374485
30.908956368908818
34.28783775061575
36.555710641926794
41.71905060162278
45.00933678395534
42.05140642546399
34.30945050460342
27.93290591686859
24.604247001138233
25.11754850465634
28.9725499040657
34.85482184299801
40.89130007891849
42.99128500238522
43.01635622236866
42.765831559737705
42.07882149285145
42.561012003747486
44.15771778238956
46.614244831670646
49.495409530484345
51.746808270854544
53.48673725595336
54.86386720566039
55.85062313815154
56.55114900025813
57.017748286334076
57.276797957834084
57.276797957834084
57.04365909478604
56.62894119172705
56.03230364899519
54.152716786470236
51.674494624401376
47.42867357989168
46.67818890643826
46.652732594256314
48.10830823795974
48.746548105351174
57.51870767095837
35.08820894920083
40.57462924083754
40.05620906837988
43.55824389639912
44.810837225906006
39.50802940610571
32.424191160313825
26.150708391967356
23.27345415570592
24.59165389592596
29.642833049964608
37.08941947741019
44.32555600890205
45.79749848747509
46.0268996596453
45.89942341423006
46.30761607440765
47.61361548699598
49.51974430623293
51.61708465800071
53.642640744410805
55.38327940215919
56.784495675881146
57.82034454615051
58.49232207747381
58.90522856851381
59.137260738037504
59.163031498064214
59.008374944179785
58.569779964938846
58.00137549655306
57.250898961683575
56.23988736071628
53.68015367976973
49.92841378973588
48.03582182671549
46.884061962419246
45.501226292175225
51.010445794741855
65.00201136826315
54.44456497850188
51.462031535670626
45.608491420434255
44.38357578881092
42.269014705320565
36.08479577246871
28.08330755223568
22.539061608364477
21.367423775873903
24.852005673206605
32.375904791704684
42.529759641999675
47.87049181038957
49.416427696006004
49.75230879073464
49.959146721509036
50.735654503230606
52.23995013970252
54.08438520855805
55.85062313815154
57.40627222435393
58.621409032478404
59.49785102058014
60.063570798186916
60.34597715862566
60.474238229761745
60.42294186261217
60.26898853140996
59.986496962088545
59.57506274466621
59.008374944179785
58.31152185775811
57.43216285909211
56.4214742065833
55.305368790627824
54.65602583630378
53.28114727989854
49.1683818758893
44.44983774506302
75.4044399553952
68.46956567664611
60.25091300137163
52.90205807911849
47.85513029326611
39.92928347993668
27.47541876975268
19.23227306129064
16.964530844164955
19.822965466767016
28.0469424420658
40.24561954713549
49.08085110922936
52.26591254152977
53.40878798102542
53.85051896505249
54.422182957615576
55.38327940215919
56.73264871125665
58.15647990367486
59.343365778234805
60.1186921887392
60.27150232482262
60.267616636459195
60.13529774729768
59.882546632208644
59.5312405002254
59.04328392976054
58.469370458993325
57.75487866860316
56.934493136914234
56.04086697641001
55.159785027877405
54.117056932900226
52.97867015408629
51.96306695833522
51.3297109893429
51.09355495749583
50.57071890662309
49.04663061047292
66.09234551091436
25.229224572250544
10.71708486098585
7.155205624026394
5.101384359634082
6.385800570127586
13.145803457125169
25.835881663406198
41.07389148398371
50.65794698771949
52.800065934296
53.73778390060992
54.32486432492291
54.96965986990057
55.81836284755898
56.86193482040059
57.92039775531829
58.76014498407345
59.27661530235422
59.44924776657941
59.41674106377588
59.189001829911334
58.892782568836324
58.47938493046849
58.03746308750857
57.538986729515166
57.04960184352607
56.59353156181623
56.19337215983748
55.8764953103493
55.57786618758303
55.360520392118055
55.15599622499222
55.14008620969725
55.725587808984706
57.7869585622745
61.992850356897755
53.97176892197597
65.95788897945893
16.156298789841358
5.127494333463915
6.350266828704818
12.39957423174657
25.235747068080173
38.40901108349733
45.39394270987257
49.80587835158973
52.53912098208597
54.01084718757296
54.94060720124505
55.64379265075704
56.32534686799967
57.00516674529121
57.69858069128804
58.27987571768215
58.712628146052054
58.92548260042639
58.96571669208067
58.91124837085496
58.778360227195805
58.599632494934205
58.37308473715115
58.12852580123625
57.872583617401446
57.64296351393235
57.46574214008307
57.36246115326807
57.387776752253515
57.62381372213855
58.09733082485149
58.61166074797306
59.080693123753434
59.62564339042096
61.64732560161703
58.71758823049944
56.10484905978453
29.87254393079911
30.061805358073244
24.72462384235675
5.210492150615195
11.424654396894269
26.830842430843887
39.39324372847837
45.96591841625795
50.03306478629918
52.54955370875691
54.366302831045154
55.596514947548805
56.454763706522996
57.065293226107926
57.58291327070349
57.988375106788595
58.326020030015776
58.51738405956369
58.571754602715004
58.446034203762814
58.209524873385966
57.94100026614219
57.64905394201194
57.40649179349709
57.172812487270456
57.006372233357446
56.85995825458046
56.80416019661077
56.83640164133995
56.99271705648407
57.30762095348469
57.891487554963476
58.97509018415147
61.01350525875424
62.7700282229737
62.99809480272791
61.31124586672986
58.756053683981825
56.455349751550266
57.136857728847325
)
;

boundaryField
{
    ".*"
    {
        type            zeroGradient;
    }
}


// ************************************************************************* //
