/*--------------------------------*- C++ -*----------------------------------*\
  =========                 |
  \\      /  F ield         | OpenFOAM: The Open Source CFD Toolbox
   \\    /   O peration     | Website:  https://openfoam.org
    \\  /    A nd           | Version:  6
     \\/     M anipulation  |
\*---------------------------------------------------------------------------*/
FoamFile
{
    version     2.0;
    format      ascii;
    class       volVectorField;
    location    "2820";
    object      U;
}
// * * * * * * * * * * * * * * * * * * * * * * * * * * * * * * * * * * * * * //

dimensions      [0 1 -1 0 0 0 0];

internalField   nonuniform List<vector> 
458
(
(0.0348251 0.0885226 0)
(-0.172081 0.0265842 0)
(-0.199349 0.0191133 0)
(-0.233224 0.0130812 0)
(-0.258397 0.00641376 0)
(-0.273601 -0.000804866 0)
(-0.276731 -0.00877823 0)
(-0.265483 -0.0177782 0)
(-0.239425 -0.0274272 0)
(-0.199713 -0.0361121 0)
(-0.150447 -0.0420519 0)
(-0.0978299 -0.0436519 0)
(-0.0487294 -0.0390819 0)
(-0.0062703 -0.0236849 0)
(-0.0102629 0.00977249 0)
(-0.0102384 0.0105133 0)
(-0.0372611 -0.0174866 0)
(-0.0145115 -0.029103 0)
(0.0136677 -0.0251833 0)
(0.0334392 -0.0178893 0)
(0.0480557 -0.00955481 0)
(0.056815 -0.0051762 0)
(0.0606938 -0.00363236 0)
(0.0621293 -0.00308268 0)
(0.0627787 -0.00275984 0)
(0.0630887 -0.00250939 0)
(0.0630279 -0.00224144 0)
(0.0624302 -0.00179743 0)
(0.0608388 -0.000838867 0)
(0.0572371 0.00107437 0)
(0.050518 0.00317041 0)
(0.0451139 0.00508608 0)
(-0.0141475 0.0219478 0)
(0.214272 0.18189 0)
(-0.162149 0.0709935 0)
(-0.162942 0.0577628 0)
(-0.198658 0.0457437 0)
(-0.224134 0.0319886 0)
(-0.24011 0.0161758 0)
(-0.244613 -0.00240986 0)
(-0.235117 -0.0239667 0)
(-0.211868 -0.0461701 0)
(-0.176486 -0.0649273 0)
(-0.133356 -0.0764277 0)
(-0.0881268 -0.0782 0)
(-0.0462598 -0.068731 0)
(-0.0100265 -0.0460176 0)
(0.0194102 -0.0133805 0)
(0.0442432 0.00784967 0)
(0.0548478 0.0347583 0)
(-0.0118084 0.0706831 0)
(0.0670397 0.0439824 0)
(0.0102863 -0.0218339 0)
(0.0265175 -0.0378984 0)
(0.0407456 -0.035645 0)
(0.0531347 -0.0273417 0)
(0.0595569 -0.0120938 0)
(0.0611771 -0.00275361 0)
(0.0612269 0.000745442 0)
(0.0613916 0.00202302 0)
(0.0617169 0.0027217 0)
(0.0619419 0.00322153 0)
(0.0619994 0.00367485 0)
(0.0618954 0.00440709 0)
(0.0611844 0.00620489 0)
(0.0577879 0.0112232 0)
(0.0490972 0.0155321 0)
(0.0476926 0.0187034 0)
(-0.0584294 0.0475493 0)
(0.379535 0.272956 0)
(-0.180118 0.113734 0)
(-0.123512 0.0941098 0)
(-0.159198 0.0724349 0)
(-0.1826 0.0495032 0)
(-0.19841 0.0236429 0)
(-0.204063 -0.00653487 0)
(-0.195374 -0.0409798 0)
(-0.173591 -0.0757813 0)
(-0.141425 -0.10365 0)
(-0.103841 -0.118954 0)
(-0.065895 -0.119157 0)
(-0.0318227 -0.10412 0)
(-0.00227674 -0.0743985 0)
(0.0220312 -0.0400738 0)
(0.0375976 -0.0152197 0)
(0.0431795 0.0131637 0)
(-0.0236597 0.0623203 0)
(0.12249 -0.00753035 0)
(0.0725103 -0.0320897 0)
(0.0643123 -0.0419284 0)
(0.0672609 -0.0417568 0)
(0.0718712 -0.0380441 0)
(0.0734894 -0.0282282 0)
(0.0643662 -0.0183292 0)
(0.0574117 -0.0130271 0)
(0.0548131 -0.0100786 0)
(0.0541217 -0.00818604 0)
(0.0538876 -0.00689747 0)
(0.0539579 -0.00590255 0)
(0.0547572 -0.00475352 0)
(0.0572079 -0.00139888 0)
(0.0561024 0.0149935 0)
(0.0445866 0.0258686 0)
(0.0541326 0.0332457 0)
(-0.0993794 0.0727931 0)
(0.530028 0.346653 0)
(-0.216669 0.151756 0)
(-0.0801996 0.125837 0)
(-0.115538 0.0962973 0)
(-0.133417 0.0672245 0)
(-0.146929 0.0337634 0)
(-0.152515 -0.0071113 0)
(-0.142621 -0.0550543 0)
(-0.121288 -0.102309 0)
(-0.0929783 -0.137841 0)
(-0.0625313 -0.155426 0)
(-0.0335719 -0.153428 0)
(-0.00879751 -0.133438 0)
(0.0128655 -0.0979239 0)
(0.0304331 -0.0589731 0)
(0.0443573 -0.022897 0)
(0.0599558 0.0131494 0)
(0.0588238 0.0534414 0)
(0.100335 0.061506 0)
(0.0988171 -0.00244017 0)
(0.0851524 -0.0293879 0)
(0.0784688 -0.03769 0)
(0.0736174 -0.038394 0)
(0.0670217 -0.0341077 0)
(0.0666024 -0.0208387 0)
(0.0772782 -0.0138303 0)
(0.0862412 -0.0101073 0)
(0.0916402 -0.00782433 0)
(0.0948797 -0.00591656 0)
(0.0962858 -0.00385546 0)
(0.0945176 -0.00119009 0)
(0.0882554 0.00248032 0)
(0.0757133 0.00774301 0)
(0.0597993 0.0250976 0)
(0.0440617 0.0405827 0)
(0.0629782 0.0533438 0)
(-0.131389 0.0942769 0)
(0.662682 0.403811 0)
(-0.262353 0.182679 0)
(-0.0350339 0.145258 0)
(-0.0687492 0.11132 0)
(-0.0779457 0.0792336 0)
(-0.0862933 0.04125 0)
(-0.0890485 -0.00798757 0)
(-0.0740281 -0.0688147 0)
(-0.0534821 -0.125902 0)
(-0.0315785 -0.165074 0)
(-0.0112746 -0.181843 0)
(0.00616204 -0.175991 0)
(0.019326 -0.151483 0)
(0.0303441 -0.114539 0)
(0.0401941 -0.0729583 0)
(0.0494385 -0.033723 0)
(0.0619372 0.000675238 0)
(0.0760398 0.0197173 0)
(0.0903289 -0.000566315 0)
(0.0896863 -0.0213718 0)
(0.0826198 -0.0300332 0)
(0.0738132 -0.0325492 0)
(0.0655683 -0.0316291 0)
(0.0586238 -0.0266318 0)
(0.0568423 -0.0155116 0)
(0.0603957 -0.00902625 0)
(0.0647369 -0.00637174 0)
(0.06846 -0.00482947 0)
(0.0717026 -0.00274929 0)
(0.0742093 0.000781405 0)
(0.0750586 0.00596834 0)
(0.0731645 0.0129866 0)
(0.0682553 0.0224378 0)
(0.0612083 0.0371776 0)
(0.0500561 0.053629 0)
(0.0748591 0.0727478 0)
(-0.0068463 0.10138 0)
(0.0557879 0.150674 0)
(-0.0835197 0.0748405 0)
(-0.277797 0.000487998 0)
(0.761893 0.451325 0)
(-0.30855 0.203339 0)
(0.0024301 0.143886 0)
(-0.0205837 0.116259 0)
(-0.0197893 0.0857223 0)
(-0.0214989 0.0472956 0)
(-0.0143129 -0.00693692 0)
(0.0103169 -0.0859258 0)
(0.0269257 -0.146193 0)
(0.0388277 -0.182424 0)
(0.0460476 -0.194554 0)
(0.0488956 -0.185052 0)
(0.0486308 -0.158121 0)
(0.0472259 -0.119918 0)
(0.0460521 -0.0779393 0)
(0.046469 -0.0397074 0)
(0.050821 -0.00999104 0)
(0.0599696 0.00482463 0)
(0.0662465 -0.00105135 0)
(0.0649936 -0.0110134 0)
(0.0586081 -0.0188059 0)
(0.0504373 -0.0229107 0)
(0.0427991 -0.0236605 0)
(0.036823 -0.0211343 0)
(0.0342715 -0.0157702 0)
(0.0354206 -0.0122938 0)
(0.0383744 -0.0108626 0)
(0.0420304 -0.00977458 0)
(0.0460902 -0.00763843 0)
(0.0502726 -0.00338429 0)
(0.0544833 0.00368386 0)
(0.0570003 0.0131865 0)
(0.0581666 0.0249441 0)
(0.0592915 0.0395783 0)
(0.0583677 0.0559998 0)
(0.079709 0.0766953 0)
(0.0654483 0.0889838 0)
(0.0997221 0.0967314 0)
(0.117478 0.0571988 0)
(-0.136895 -0.029928 0)
(0.815614 0.494189 0)
(-0.334123 0.187371 0)
(0.0322412 0.0938002 0)
(0.0390632 0.101054 0)
(0.045932 0.0830001 0)
(0.0516247 0.0393705 0)
(0.0790994 -0.0311716 0)
(0.103112 -0.103704 0)
(0.113288 -0.157016 0)
(0.112863 -0.186332 0)
(0.104583 -0.192432 0)
(0.0907912 -0.178776 0)
(0.0740954 -0.149769 0)
(0.0575016 -0.111563 0)
(0.0429719 -0.0709099 0)
(0.0326168 -0.0356958 0)
(0.0281007 -0.0107569 0)
(0.0295011 0.000991114 0)
(0.0311371 -0.000280101 0)
(0.0296359 -0.00656849 0)
(0.0249844 -0.0126299 0)
(0.018865 -0.016369 0)
(0.0128395 -0.0177423 0)
(0.0080331 -0.017104 0)
(0.00567187 -0.015195 0)
(0.00601386 -0.0141007 0)
(0.008053 -0.0139675 0)
(0.0110513 -0.0137417 0)
(0.0148465 -0.012361 0)
(0.0195244 -0.00873948 0)
(0.0256932 -0.00163544 0)
(0.0333028 0.00886895 0)
(0.0400693 0.0208902 0)
(0.0478782 0.03416 0)
(0.0558776 0.0479596 0)
(0.0754521 0.0644567 0)
(0.0882331 0.0697704 0)
(0.11967 0.0632093 0)
(0.163391 0.0513056 0)
(-0.0203524 0.095488 0)
(0.921869 0.497288 0)
(-0.076678 0.16742 0)
(0.110608 0.0261617 0)
(0.163738 0.0227928 0)
(0.1614 0.0155466 0)
(0.162866 -0.0293635 0)
(0.19649 -0.0804109 0)
(0.211273 -0.125543 0)
(0.205362 -0.158278 0)
(0.185093 -0.173983 0)
(0.155586 -0.171675 0)
(0.121086 -0.153974 0)
(0.0852905 -0.124274 0)
(0.0523633 -0.088074 0)
(0.0244578 -0.0510592 0)
(0.0051132 -0.0219289 0)
(-0.00463305 -0.00442852 0)
(-0.00655974 0.00175814 0)
(-0.00644056 0.00066312 0)
(-0.0076412 -0.00366301 0)
(-0.0109409 -0.00801289 0)
(-0.0154391 -0.011077 0)
(-0.0200735 -0.0128475 0)
(-0.0239379 -0.0136838 0)
(-0.02632 -0.0141349 0)
(-0.0272116 -0.0148861 0)
(-0.0271756 -0.0158702 0)
(-0.0265939 -0.0165839 0)
(-0.0254664 -0.0164982 0)
(-0.023487 -0.0150358 0)
(-0.0198617 -0.0114653 0)
(-0.011709 -0.00490944 0)
(-9.39265e-05 0.00445922 0)
(0.0110863 0.0137604 0)
(0.0226898 0.0208655 0)
(0.0398997 0.0277363 0)
(0.05543 0.0224379 0)
(0.079569 0.0056481 0)
(0.146408 0.047978 0)
(-0.428338 0.212666 0)
(1.06591 0.444166 0)
(0.518238 0.298301 0)
(0.529534 0.249858 0)
(0.518392 0.182906 0)
(0.469839 0.122438 0)
(0.433159 0.0601127 0)
(0.392049 -0.00742404 0)
(0.342844 -0.0669803 0)
(0.289085 -0.107862 0)
(0.232747 -0.126612 0)
(0.175364 -0.125099 0)
(0.118904 -0.108912 0)
(0.0654558 -0.0822842 0)
(0.0202344 -0.0512615 0)
(-0.0161039 -0.0208444 0)
(-0.0329488 -0.00607242 0)
(-0.0401268 0.000441558 0)
(-0.0416833 0.0022069 0)
(-0.0420616 0.00100796 0)
(-0.0432035 -0.00163947 0)
(-0.0458313 -0.004517 0)
(-0.0494802 -0.00704474 0)
(-0.0535053 -0.00913469 0)
(-0.0573699 -0.0108633 0)
(-0.0608173 -0.0123653 0)
(-0.0640104 -0.0137468 0)
(-0.0673529 -0.0148454 0)
(-0.0712204 -0.0153017 0)
(-0.0759668 -0.0146314 0)
(-0.0820651 -0.0121813 0)
(-0.0902075 -0.00711436 0)
(-0.101118 0.00142847 0)
(-0.112752 0.0133222 0)
(-0.127984 0.0284141 0)
(-0.152908 0.0467844 0)
(-0.190232 0.0673933 0)
(-0.241634 0.0862252 0)
(-0.297563 0.0999182 0)
(-0.371647 0.106911 0)
(-0.65067 0.106304 0)
(0.233924 0.0528319 0)
(0.30589 0.115962 0)
(0.321218 0.0913658 0)
(0.299643 0.0395757 0)
(0.275047 -0.0106047 0)
(0.244386 -0.0469409 0)
(0.203097 -0.0684136 0)
(0.154002 -0.0754154 0)
(0.100436 -0.0686987 0)
(0.0461619 -0.0529158 0)
(-0.00863378 -0.0295123 0)
(-0.0451362 -0.0114963 0)
(-0.0635941 -0.00313911 0)
(-0.0709247 -0.000757881 0)
(-0.0731604 -0.000284093 0)
(-0.0734785 -0.000982543 0)
(-0.0737802 -0.0025837 0)
(-0.0749184 -0.00467905 0)
(-0.0771333 -0.00676772 0)
(-0.0803885 -0.00854752 0)
(-0.0841844 -0.0100191 0)
(-0.0882912 -0.0111408 0)
(-0.0927204 -0.0119153 0)
(-0.0976256 -0.0123094 0)
(-0.103157 -0.0121328 0)
(-0.109348 -0.0110404 0)
(-0.116066 -0.00856327 0)
(-0.122967 -0.00415724 0)
(-0.129429 0.00273879 0)
(-0.134402 0.0123366 0)
(-0.13837 0.0256174 0)
(-0.141807 0.0431792 0)
(-0.146018 0.0642222 0)
(-0.151773 0.0850512 0)
(-0.155359 0.0955473 0)
(-0.141303 0.0734013 0)
(-0.110248 -0.0250085 0)
(-0.286611 -0.213741 0)
(0.120027 0.324336 0)
(0.00839047 0.203592 0)
(0.0392635 0.118448 0)
(0.0584763 0.0604329 0)
(0.0631232 0.0216226 0)
(0.0601088 -0.00478701 0)
(0.0401943 -0.0199127 0)
(0.00541348 -0.0189519 0)
(-0.0366017 -0.00171649 0)
(-0.0701196 0.0128802 0)
(-0.0912305 0.0208818 0)
(-0.100244 0.0232648 0)
(-0.102468 0.0233925 0)
(-0.102413 0.0234451 0)
(-0.101541 0.0241591 0)
(-0.100509 0.0252856 0)
(-0.099787 0.0264267 0)
(-0.0996597 0.0271768 0)
(-0.100185 0.0271116 0)
(-0.101326 0.0259065 0)
(-0.10312 0.0238732 0)
(-0.105496 0.0216293 0)
(-0.108388 0.01945 0)
(-0.111706 0.017481 0)
(-0.115314 0.0158323 0)
(-0.118997 0.0146131 0)
(-0.122445 0.0139602 0)
(-0.125176 0.0140307 0)
(-0.126372 0.0155216 0)
(-0.124865 0.0198898 0)
(-0.119076 0.0282963 0)
(-0.107619 0.0417408 0)
(-0.0903519 0.0602414 0)
(-0.0683172 0.0804254 0)
(-0.0434463 0.0948377 0)
(-0.00758435 0.0857779 0)
(0.14694 0.00930489 0)
(-0.209929 -0.129684 0)
(-0.422119 -0.516031 0)
(-0.637319 -0.143276 0)
(-0.449399 0.177758 0)
(-0.357935 0.0560776 0)
(-0.2139 -0.00554172 0)
(-0.145613 -0.0477909 0)
(-0.11717 -0.0705393 0)
(-0.11299 -0.0713624 0)
(-0.122349 -0.0626884 0)
(-0.134864 -0.054977 0)
(-0.140348 -0.0505065 0)
(-0.138588 -0.049067 0)
(-0.134127 -0.0499524 0)
(-0.128945 -0.0527748 0)
(-0.124483 -0.0563026 0)
(-0.121039 -0.0599462 0)
(-0.118239 -0.0635881 0)
(-0.115827 -0.0672847 0)
(-0.113758 -0.070886 0)
(-0.112108 -0.0739026 0)
(-0.111009 -0.0756829 0)
(-0.110623 -0.0757901 0)
(-0.111053 -0.0743576 0)
(-0.112259 -0.0719864 0)
(-0.11407 -0.0689146 0)
(-0.116261 -0.065275 0)
(-0.118549 -0.0610876 0)
(-0.120566 -0.0562786 0)
(-0.121832 -0.0506321 0)
(-0.12171 -0.0438019 0)
(-0.119187 -0.0358148 0)
(-0.112354 -0.0266901 0)
(-0.0984063 -0.0158834 0)
(-0.0748447 -0.00248661 0)
(-0.0415508 0.0143642 0)
(0.00931625 0.0362843 0)
(0.061866 0.042347 0)
(0.109598 0.0240443 0)
(0.172058 -0.0159431 0)
(-0.19629 -0.0826847 0)
)
;

boundaryField
{
    floor
    {
        type            noSlip;
    }
    ceiling
    {
        type            noSlip;
    }
    sWall
    {
        type            noSlip;
    }
    nWall
    {
        type            noSlip;
    }
    sideWalls
    {
        type            empty;
    }
    glass1
    {
        type            noSlip;
    }
    glass2
    {
        type            noSlip;
    }
    sun
    {
        type            noSlip;
    }
    Table_master
    {
        type            noSlip;
    }
    Table_slave
    {
        type            noSlip;
    }
    inlet
    {
        type            fixedValue;
        value           uniform (0.46194 -0.191342 0);
    }
    outlet
    {
        type            zeroGradient;
    }
}


// ************************************************************************* //
