/*--------------------------------*- C++ -*----------------------------------*\
  =========                 |
  \\      /  F ield         | OpenFOAM: The Open Source CFD Toolbox
   \\    /   O peration     | Website:  https://openfoam.org
    \\  /    A nd           | Version:  6
     \\/     M anipulation  |
\*---------------------------------------------------------------------------*/
FoamFile
{
    version     2.0;
    format      ascii;
    class       volScalarField;
    location    "1280";
    object      k;
}
// * * * * * * * * * * * * * * * * * * * * * * * * * * * * * * * * * * * * * //

dimensions      [0 2 -2 0 0 0 0];

internalField   nonuniform List<scalar> 
458
(
0.0022679
0.0026862
0.002809
0.00308421
0.00334908
0.0036099
0.00388061
0.00416545
0.00440579
0.0045602
0.00457771
0.0044129
0.00402208
0.00325456
0.00187345
0.000457627
0.000628886
0.000808354
0.000878866
0.000851585
0.00074574
0.000636819
0.000546645
0.000474097
0.000415274
0.000367095
0.000327374
0.000294053
0.00026526
0.00023932
0.000214616
0.000200572
0.000169416
0.00412318
0.00755201
0.00415066
0.00437466
0.0047166
0.00513596
0.00563312
0.00619752
0.00680156
0.00731399
0.00758929
0.00753184
0.00712438
0.00635504
0.0051387
0.00326433
0.00224682
0.00149567
0.000450295
0.000973151
0.00130331
0.00145843
0.00147281
0.00125945
0.00102441
0.000834069
0.000688785
0.000577358
0.00049069
0.000421531
0.000364712
0.000317449
0.000283517
0.000264388
0.000493859
0.000292751
0.0060953
0.0136488
0.00491192
0.00472559
0.00494229
0.00528684
0.00575176
0.00634192
0.00699506
0.00755176
0.00789375
0.00795098
0.0076944
0.0070613
0.00603764
0.00488877
0.00391891
0.00208649
0.00106811
0.0013997
0.00160362
0.00173047
0.00172293
0.00134724
0.00103261
0.000802675
0.000637638
0.000518287
0.000430631
0.000365356
0.00031649
0.000280906
0.000262151
0.000265448
0.000780325
0.000408854
0.00835909
0.0222354
0.00592751
0.00470757
0.0047472
0.00501728
0.00547457
0.00616905
0.00689365
0.00746426
0.0078351
0.00795495
0.0077495
0.00714668
0.00628771
0.00543618
0.00463277
0.00350054
0.00276925
0.00250709
0.00237427
0.00233836
0.00228983
0.00215212
0.00170963
0.00143655
0.00126415
0.00114396
0.00104702
0.000954885
0.000871335
0.000787205
0.000694275
0.000530238
0.000422781
0.0011325
0.000542377
0.0110414
0.0339557
0.0084243
0.00475045
0.00448364
0.00470891
0.00530046
0.00635613
0.00718595
0.00774051
0.0080962
0.00819844
0.00790154
0.00718345
0.00621673
0.00530976
0.00458015
0.00397881
0.00379487
0.00347975
0.00325279
0.00307096
0.00285956
0.00259064
0.00230299
0.00210689
0.00198682
0.00189212
0.00179006
0.00166131
0.00149204
0.00129925
0.00109396
0.000865736
0.000664796
0.000922204
0.00106383
0.000969422
0.00108637
0.00128348
0.0143257
0.0466865
0.0149502
0.00592394
0.00474325
0.00478412
0.00570866
0.00726815
0.00803287
0.0084753
0.00873972
0.00874882
0.00832134
0.00737969
0.00612527
0.0049667
0.00418411
0.00384204
0.00381436
0.00382338
0.00373221
0.00350914
0.00318967
0.00283529
0.00254819
0.00239567
0.002322
0.00226338
0.00218525
0.00206535
0.00187853
0.00164899
0.00140043
0.00114685
0.000935646
0.000900734
0.00103005
0.00105444
0.00165139
0.00138073
0.0179758
0.0550453
0.027077
0.0123617
0.00830996
0.00741398
0.00850689
0.00921115
0.00948713
0.00964674
0.00973088
0.00958473
0.0089482
0.00771017
0.00611081
0.00469937
0.00388737
0.00373635
0.00389866
0.0039831
0.00385399
0.00355085
0.00317148
0.00281238
0.00256784
0.00246889
0.00245197
0.00245726
0.00245513
0.00242469
0.0023362
0.0021474
0.0019108
0.00165907
0.00145732
0.00136467
0.00145102
0.00168154
0.00223396
0.00194888
0.0189406
0.0568416
0.0383012
0.0271723
0.019744
0.0158834
0.0137273
0.01229
0.0115375
0.0112134
0.011011
0.0106111
0.0096475
0.00799554
0.00597475
0.00439285
0.00367769
0.00365566
0.00378015
0.00375053
0.00351721
0.00317049
0.00282053
0.00255093
0.00240837
0.00238396
0.00243151
0.0025176
0.00263034
0.0027672
0.00292549
0.00306708
0.00310941
0.00313903
0.00329218
0.00386916
0.00511947
0.0068157
0.0128314
0.00467708
0.0182041
0.0264659
0.024362
0.0217105
0.0188865
0.0164648
0.0146547
0.0135916
0.0130881
0.0127694
0.0123587
0.0115975
0.0100723
0.0077697
0.00515959
0.00385794
0.00340289
0.00330988
0.00325332
0.00309167
0.00282376
0.00252808
0.0022829
0.00213457
0.00208915
0.0021234
0.00220969
0.00233311
0.00249005
0.00268166
0.00290931
0.00317118
0.00348974
0.00390093
0.00444783
0.00509757
0.00569693
0.00606931
0.0062485
0.00408129
0.00718462
0.0110945
0.0135428
0.014774
0.0154386
0.0157098
0.0153795
0.0144544
0.0132151
0.0115874
0.00880985
0.00585871
0.0040362
0.00322554
0.00288146
0.00270037
0.00252806
0.00231822
0.00209096
0.00188815
0.00175207
0.00169312
0.00169786
0.00174768
0.00182976
0.00193923
0.00207748
0.00225113
0.00247287
0.00276576
0.00313122
0.003567
0.0040509
0.00449042
0.0047126
0.00457286
0.00410684
0.00264226
0.00805085
0.0194706
0.021613
0.0215033
0.0207306
0.0184788
0.0153398
0.012016
0.00883385
0.00623609
0.00435119
0.00326393
0.00271616
0.00241226
0.00221048
0.00203243
0.00184769
0.00166476
0.0015091
0.00139881
0.0013381
0.00132616
0.00135491
0.00141869
0.00151587
0.00164788
0.00181798
0.00203048
0.00229591
0.00262433
0.00302437
0.00349683
0.00401537
0.00451214
0.00481678
0.00510141
0.00428744
0.00271138
0.00890516
0.00935062
0.00976453
0.0120866
0.0107988
0.00848024
0.00603567
0.00437038
0.00348234
0.00273182
0.00214605
0.00173654
0.00142359
0.00120709
0.00106714
0.000970334
0.000895818
0.000834081
0.000784766
0.000752337
0.000740414
0.000749354
0.000776201
0.000816527
0.00086894
0.000933163
0.00100988
0.00110077
0.00120884
0.00133956
0.00149647
0.00168145
0.00189884
0.00215362
0.00245037
0.00283123
0.00300661
0.00288474
0.00249571
0.00213483
)
;

boundaryField
{
    floor
    {
        type            kqRWallFunction;
        value           nonuniform List<scalar> 
36
(
0.00187345
0.000457627
0.000628886
0.000808354
0.000878866
0.000851585
0.00074574
0.000636819
0.000546645
0.000474097
0.000415274
0.000367095
0.000327374
0.000294053
0.00026526
0.00023932
0.000214616
0.000200572
0.000169416
0.000169416
0.000292751
0.000408854
0.000542377
0.000969422
0.00108637
0.00128348
0.00187345
0.00326433
0.00224682
0.00149567
0.000457627
0.00149567
0.000450295
0.00208649
0.00106811
0.00276925
)
;
    }
    ceiling
    {
        type            kqRWallFunction;
        value           nonuniform List<scalar> 
43
(
0.00890516
0.00935062
0.00976453
0.0120866
0.0107988
0.00848024
0.00603567
0.00437038
0.00348234
0.00273182
0.00214605
0.00173654
0.00142359
0.00120709
0.00106714
0.000970334
0.000895818
0.000834081
0.000784766
0.000752337
0.000740414
0.000749354
0.000776201
0.000816527
0.00086894
0.000933163
0.00100988
0.00110077
0.00120884
0.00133956
0.00149647
0.00168145
0.00189884
0.00215362
0.00245037
0.00283123
0.00300661
0.00288474
0.00249571
0.00213483
0.0182041
0.0264659
0.00805085
)
;
    }
    sWall
    {
        type            kqRWallFunction;
        value           uniform 0.00890516;
    }
    nWall
    {
        type            kqRWallFunction;
        value           nonuniform List<scalar> 6(0.00128348 0.00138073 0.00194888 0.00264226 0.00271138 0.00213483);
    }
    sideWalls
    {
        type            empty;
    }
    glass1
    {
        type            kqRWallFunction;
        value           nonuniform List<scalar> 9(0.0022679 0.00412318 0.0060953 0.00835909 0.0110414 0.0143257 0.0179758 0.0189406 0.0182041);
    }
    glass2
    {
        type            kqRWallFunction;
        value           nonuniform List<scalar> 2(0.00467708 0.00408129);
    }
    sun
    {
        type            kqRWallFunction;
        value           nonuniform List<scalar> 
14
(
0.0022679
0.0026862
0.002809
0.00308421
0.00334908
0.0036099
0.00388061
0.00416545
0.00440579
0.0045602
0.00457771
0.0044129
0.00402208
0.00325456
)
;
    }
    Table_master
    {
        type            kqRWallFunction;
        value           nonuniform List<scalar> 9(0.00134724 0.00103261 0.000802675 0.000637638 0.000518287 0.000430631 0.000365356 0.00031649 0.000280906);
    }
    Table_slave
    {
        type            kqRWallFunction;
        value           nonuniform List<scalar> 9(0.00170963 0.00143655 0.00126415 0.00114396 0.00104702 0.000954885 0.000871335 0.000787205 0.000694275);
    }
    inlet
    {
        type            turbulentIntensityKineticEnergyInlet;
        intensity       0.05;
        value           uniform 0.000937501;
    }
    outlet
    {
        type            zeroGradient;
    }
}


// ************************************************************************* //
