/*--------------------------------*- C++ -*----------------------------------*\
  =========                 |
  \\      /  F ield         | OpenFOAM: The Open Source CFD Toolbox
   \\    /   O peration     | Website:  https://openfoam.org
    \\  /    A nd           | Version:  6
     \\/     M anipulation  |
\*---------------------------------------------------------------------------*/
FoamFile
{
    version     2.0;
    format      ascii;
    class       volVectorField;
    location    "1560";
    object      U;
}
// * * * * * * * * * * * * * * * * * * * * * * * * * * * * * * * * * * * * * //

dimensions      [0 1 -1 0 0 0 0];

internalField   nonuniform List<vector> 
458
(
(0.0348239 0.0885226 0)
(-0.172081 0.0265843 0)
(-0.19935 0.0191138 0)
(-0.233226 0.0130815 0)
(-0.258399 0.00641399 0)
(-0.273604 -0.000804663 0)
(-0.276733 -0.00877804 0)
(-0.265486 -0.017778 0)
(-0.239428 -0.0274267 0)
(-0.199717 -0.0361111 0)
(-0.150453 -0.0420504 0)
(-0.0978367 -0.04365 0)
(-0.0487369 -0.0390806 0)
(-0.00627998 -0.0236885 0)
(-0.0102714 0.00976857 0)
(-0.0102218 0.0105024 0)
(-0.0372391 -0.0175021 0)
(-0.0144873 -0.0291227 0)
(0.0137213 -0.0251901 0)
(0.033486 -0.0178939 0)
(0.0481063 -0.00955811 0)
(0.0568654 -0.00517899 0)
(0.0607416 -0.00363475 0)
(0.0621749 -0.00308478 0)
(0.0628226 -0.00276152 0)
(0.063131 -0.00251079 0)
(0.0630686 -0.00224254 0)
(0.0624691 -0.00179798 0)
(0.0608752 -0.000838581 0)
(0.0572697 0.0010759 0)
(0.0505446 0.00317411 0)
(0.045128 0.00509328 0)
(-0.0141288 0.0219551 0)
(0.214273 0.18189 0)
(-0.162149 0.0709937 0)
(-0.162943 0.0577638 0)
(-0.198658 0.0457444 0)
(-0.224135 0.031989 0)
(-0.240111 0.0161761 0)
(-0.244613 -0.00240981 0)
(-0.235118 -0.0239667 0)
(-0.211869 -0.0461695 0)
(-0.176487 -0.0649258 0)
(-0.133358 -0.0764254 0)
(-0.0881301 -0.0781975 0)
(-0.0462643 -0.0687296 0)
(-0.0100339 -0.0460206 0)
(0.0194024 -0.0133866 0)
(0.0442336 0.00784697 0)
(0.0548402 0.0347566 0)
(-0.011817 0.0706802 0)
(0.0670572 0.0439645 0)
(0.0103165 -0.0218363 0)
(0.026529 -0.0379068 0)
(0.0407624 -0.0356537 0)
(0.0531549 -0.0273471 0)
(0.0595837 -0.0120928 0)
(0.0612048 -0.0027505 0)
(0.0612531 0.000748909 0)
(0.0614166 0.00202621 0)
(0.0617415 0.0027251 0)
(0.0619664 0.00322497 0)
(0.0620236 0.00367809 0)
(0.0619192 0.00441066 0)
(0.0612075 0.00620955 0)
(0.0578093 0.0112303 0)
(0.049115 0.0155428 0)
(0.0476985 0.0187193 0)
(-0.058407 0.0475627 0)
(0.379536 0.272957 0)
(-0.180118 0.113734 0)
(-0.123512 0.0941109 0)
(-0.159197 0.0724355 0)
(-0.182599 0.0495035 0)
(-0.198409 0.0236429 0)
(-0.204061 -0.00653505 0)
(-0.195371 -0.0409801 0)
(-0.173588 -0.0757806 0)
(-0.141422 -0.103648 0)
(-0.103838 -0.11895 0)
(-0.0658937 -0.119153 0)
(-0.031823 -0.104117 0)
(-0.00228007 -0.0743985 0)
(0.0220244 -0.0400754 0)
(0.0375873 -0.015221 0)
(0.043168 0.0131593 0)
(-0.0236757 0.0623072 0)
(0.122497 -0.00756285 0)
(0.0724903 -0.0321086 0)
(0.0642883 -0.0419406 0)
(0.0672391 -0.0417684 0)
(0.0718512 -0.0380574 0)
(0.0734843 -0.028232 0)
(0.0643618 -0.0183287 0)
(0.0574064 -0.0130254 0)
(0.0548089 -0.010077 0)
(0.0541196 -0.00818438 0)
(0.0538874 -0.006896 0)
(0.0539597 -0.00590077 0)
(0.0547613 -0.00475104 0)
(0.0572155 -0.00139489 0)
(0.0561121 0.0150018 0)
(0.0445963 0.0258824 0)
(0.0541311 0.0332667 0)
(-0.099354 0.0728123 0)
(0.530033 0.346654 0)
(-0.216671 0.151756 0)
(-0.0801981 0.125837 0)
(-0.115536 0.0962973 0)
(-0.133415 0.067224 0)
(-0.146926 0.0337626 0)
(-0.152511 -0.00711238 0)
(-0.142614 -0.0550559 0)
(-0.12128 -0.102309 0)
(-0.09297 -0.137838 0)
(-0.0625238 -0.155421 0)
(-0.0335656 -0.153422 0)
(-0.00879298 -0.133433 0)
(0.0128667 -0.0979198 0)
(0.0304291 -0.0589693 0)
(0.0443466 -0.0228936 0)
(0.0599366 0.0131485 0)
(0.0587942 0.0534317 0)
(0.100294 0.0615057 0)
(0.0987657 -0.00245056 0)
(0.0850901 -0.029398 0)
(0.0784047 -0.0376987 0)
(0.0735532 -0.0384051 0)
(0.066955 -0.0341228 0)
(0.0665327 -0.0208445 0)
(0.0772156 -0.013834 0)
(0.0861866 -0.0101111 0)
(0.0915944 -0.00782866 0)
(0.0948433 -0.00592126 0)
(0.0962598 -0.00386011 0)
(0.0944993 -0.00119378 0)
(0.088242 0.00247796 0)
(0.0757011 0.00774221 0)
(0.05979 0.025104 0)
(0.0440572 0.0405954 0)
(0.062971 0.0533624 0)
(-0.131361 0.0943001 0)
(0.662688 0.403812 0)
(-0.262357 0.182678 0)
(-0.0350319 0.145257 0)
(-0.0687469 0.111319 0)
(-0.077942 0.0792319 0)
(-0.0862884 0.0412481 0)
(-0.0890416 -0.00799001 0)
(-0.0740163 -0.068819 0)
(-0.0534694 -0.125903 0)
(-0.0315652 -0.165071 0)
(-0.0112621 -0.181837 0)
(0.00617372 -0.175983 0)
(0.0193358 -0.151475 0)
(0.030351 -0.11453 0)
(0.0401955 -0.0729477 0)
(0.0494311 -0.0337104 0)
(0.0619181 0.000686768 0)
(0.076005 0.0197254 0)
(0.0902811 -0.000556298 0)
(0.0896267 -0.0213679 0)
(0.08255 -0.0300335 0)
(0.073738 -0.0325533 0)
(0.0654911 -0.0316375 0)
(0.0585456 -0.0266429 0)
(0.0567665 -0.0155206 0)
(0.0603271 -0.00903709 0)
(0.0646774 -0.00638553 0)
(0.0684107 -0.00484501 0)
(0.0716638 -0.00276525 0)
(0.074179 0.000767277 0)
(0.0750379 0.00595837 0)
(0.0731495 0.0129812 0)
(0.0682425 0.0224364 0)
(0.0611962 0.0371812 0)
(0.0500455 0.0536384 0)
(0.0748514 0.072762 0)
(-0.0068468 0.101403 0)
(0.0557808 0.150676 0)
(-0.0835289 0.0748307 0)
(-0.277795 0.000480124 0)
(0.761897 0.451327 0)
(-0.308554 0.203338 0)
(0.00243179 0.143884 0)
(-0.0205819 0.116257 0)
(-0.0197853 0.0857191 0)
(-0.0214931 0.0472924 0)
(-0.014302 -0.00694053 0)
(0.0103343 -0.085936 0)
(0.0269422 -0.146195 0)
(0.0388451 -0.182421 0)
(0.0460646 -0.194547 0)
(0.048912 -0.185043 0)
(0.0486463 -0.158111 0)
(0.0472393 -0.119906 0)
(0.0460603 -0.0779217 0)
(0.0464674 -0.0396838 0)
(0.0508062 -0.00996472 0)
(0.0599359 0.00485092 0)
(0.0661976 -0.00102945 0)
(0.0649339 -0.0110003 0)
(0.0585398 -0.0188016 0)
(0.0503649 -0.0229133 0)
(0.0427256 -0.0236684 0)
(0.0367497 -0.0211462 0)
(0.0342017 -0.0157847 0)
(0.0353579 -0.0123126 0)
(0.0383204 -0.0108854 0)
(0.0419856 -0.00979922 0)
(0.0460543 -0.00766292 0)
(0.0502445 -0.00340661 0)
(0.0544634 0.00366732 0)
(0.0569857 0.0131775 0)
(0.0581536 0.0249416 0)
(0.0592784 0.0395811 0)
(0.0583544 0.0560072 0)
(0.0797001 0.0767066 0)
(0.0654399 0.089002 0)
(0.0997187 0.0967398 0)
(0.117478 0.0571991 0)
(-0.136902 -0.0299357 0)
(0.815621 0.494191 0)
(-0.334127 0.187369 0)
(0.0322413 0.093797 0)
(0.0390645 0.101049 0)
(0.0459366 0.0829929 0)
(0.0516333 0.0393616 0)
(0.0791164 -0.0311832 0)
(0.103131 -0.103713 0)
(0.113307 -0.15702 0)
(0.112883 -0.186329 0)
(0.104603 -0.192425 0)
(0.0908109 -0.178767 0)
(0.074115 -0.149759 0)
(0.0575204 -0.111548 0)
(0.0429862 -0.0708862 0)
(0.0326204 -0.0356605 0)
(0.0280888 -0.0107146 0)
(0.0294699 0.00103544 0)
(0.0310923 -0.00024462 0)
(0.0295828 -0.00654614 0)
(0.0249258 -0.0126207 0)
(0.018805 -0.0163699 0)
(0.0127799 -0.01775 0)
(0.0079745 -0.0171177 0)
(0.00561648 -0.015215 0)
(0.00596411 -0.0141272 0)
(0.00800958 -0.013999 0)
(0.0110141 -0.0137748 0)
(0.0148144 -0.0123931 0)
(0.0194963 -0.00876876 0)
(0.0256647 -0.00165985 0)
(0.0332838 0.00885564 0)
(0.0400536 0.0208864 0)
(0.047863 0.0341624 0)
(0.0558623 0.0479656 0)
(0.0754409 0.0644654 0)
(0.0882245 0.0697814 0)
(0.119668 0.0632133 0)
(0.163391 0.0513031 0)
(-0.0203428 0.0954838 0)
(0.921878 0.49729 0)
(-0.0766837 0.167417 0)
(0.110607 0.0261544 0)
(0.16374 0.0227809 0)
(0.161408 0.0155304 0)
(0.16288 -0.0293838 0)
(0.196512 -0.0804269 0)
(0.211295 -0.125555 0)
(0.205383 -0.158283 0)
(0.185113 -0.17398 0)
(0.155605 -0.171667 0)
(0.121105 -0.153965 0)
(0.0853099 -0.124264 0)
(0.0523831 -0.0880587 0)
(0.0244732 -0.0510288 0)
(0.00511501 -0.0218783 0)
(-0.0046485 -0.00436887 0)
(-0.00658577 0.00181571 0)
(-0.00647415 0.000706435 0)
(-0.00767887 -0.00363691 0)
(-0.0109799 -0.00800338 0)
(-0.015477 -0.0110793 0)
(-0.0201096 -0.0128566 0)
(-0.0239728 -0.0136997 0)
(-0.0263534 -0.0141593 0)
(-0.0272425 -0.0149174 0)
(-0.0272042 -0.0159067 0)
(-0.02662 -0.0166206 0)
(-0.0254915 -0.0165319 0)
(-0.0235122 -0.0150649 0)
(-0.0198879 -0.0114894 0)
(-0.011741 -0.00492814 0)
(-0.000114074 0.00444926 0)
(0.0110698 0.0137612 0)
(0.0226743 0.02087 0)
(0.0398885 0.0277432 0)
(0.0554233 0.0224452 0)
(0.0795673 0.00564905 0)
(0.146406 0.0479749 0)
(-0.428343 0.212663 0)
(1.06591 0.44417 0)
(0.518241 0.298304 0)
(0.529537 0.249855 0)
(0.518401 0.182897 0)
(0.469855 0.122426 0)
(0.433184 0.0600998 0)
(0.392069 -0.00743734 0)
(0.342863 -0.0669902 0)
(0.289103 -0.107865 0)
(0.232762 -0.126607 0)
(0.175376 -0.12509 0)
(0.118915 -0.108902 0)
(0.0654669 -0.0822745 0)
(0.0202455 -0.0512429 0)
(-0.0161025 -0.0207966 0)
(-0.0329596 -0.00600329 0)
(-0.0401501 0.000509912 0)
(-0.0416955 0.0022666 0)
(-0.0420707 0.00105181 0)
(-0.0432103 -0.0016137 0)
(-0.0458362 -0.00450884 0)
(-0.0494843 -0.00704949 0)
(-0.0535083 -0.00914565 0)
(-0.0573729 -0.0108813 0)
(-0.0608205 -0.0123929 0)
(-0.0640135 -0.0137808 0)
(-0.0673565 -0.0148842 0)
(-0.0712246 -0.0153391 0)
(-0.0759726 -0.0146639 0)
(-0.0820733 -0.0122083 0)
(-0.0902174 -0.00713579 0)
(-0.101129 0.0014129 0)
(-0.112767 0.013314 0)
(-0.127994 0.0284113 0)
(-0.152914 0.046784 0)
(-0.190236 0.0673929 0)
(-0.241637 0.0862227 0)
(-0.297567 0.099912 0)
(-0.371651 0.106901 0)
(-0.650667 0.106291 0)
(0.233935 0.0528196 0)
(0.305894 0.115941 0)
(0.32122 0.0913402 0)
(0.299645 0.0395499 0)
(0.275051 -0.0106248 0)
(0.244386 -0.0469526 0)
(0.203095 -0.0684164 0)
(0.153997 -0.0754083 0)
(0.100426 -0.0686875 0)
(0.0461516 -0.0529062 0)
(-0.00864548 -0.0294962 0)
(-0.0451505 -0.0114578 0)
(-0.063616 -0.00307107 0)
(-0.0709378 -0.000678791 0)
(-0.0731551 -0.000209726 0)
(-0.0734608 -0.000916131 0)
(-0.0737519 -0.00253013 0)
(-0.074886 -0.00464101 0)
(-0.0770974 -0.0067449 0)
(-0.0803534 -0.00853619 0)
(-0.0841482 -0.0100139 0)
(-0.0882524 -0.0111436 0)
(-0.0926797 -0.0119289 0)
(-0.097585 -0.01233 0)
(-0.10312 -0.0121598 0)
(-0.109316 -0.0110684 0)
(-0.116041 -0.00858849 0)
(-0.12295 -0.00417928 0)
(-0.12942 0.00272037 0)
(-0.1344 0.0123233 0)
(-0.13837 0.0256084 0)
(-0.141807 0.0431745 0)
(-0.146017 0.0642211 0)
(-0.15177 0.0850521 0)
(-0.155355 0.0955484 0)
(-0.141297 0.0734011 0)
(-0.110231 -0.0250109 0)
(-0.286613 -0.213744 0)
(0.120036 0.324324 0)
(0.00838513 0.203575 0)
(0.0392514 0.118427 0)
(0.0584566 0.0604115 0)
(0.0630969 0.0216064 0)
(0.0600794 -0.00479911 0)
(0.0401629 -0.0199132 0)
(0.00537746 -0.0189382 0)
(-0.0366297 -0.00171433 0)
(-0.0701432 0.0128684 0)
(-0.0912496 0.0208664 0)
(-0.100255 0.0232526 0)
(-0.10246 0.0233815 0)
(-0.102388 0.0234312 0)
(-0.101497 0.0241345 0)
(-0.100449 0.0252483 0)
(-0.0997149 0.0263757 0)
(-0.0995847 0.0271191 0)
(-0.100113 0.0270524 0)
(-0.101255 0.0258443 0)
(-0.103048 0.0238134 0)
(-0.105421 0.0215733 0)
(-0.108314 0.0193987 0)
(-0.111637 0.0174378 0)
(-0.115253 0.0157949 0)
(-0.118946 0.0145849 0)
(-0.122406 0.0139423 0)
(-0.125146 0.01402 0)
(-0.126351 0.0155129 0)
(-0.12485 0.0198818 0)
(-0.119066 0.0282896 0)
(-0.107612 0.0417363 0)
(-0.090346 0.0602394 0)
(-0.0683122 0.0804248 0)
(-0.043442 0.0948369 0)
(-0.00757665 0.0857743 0)
(0.14694 0.00930141 0)
(-0.209929 -0.129686 0)
(-0.42211 -0.516023 0)
(-0.637312 -0.143277 0)
(-0.449398 0.177745 0)
(-0.357944 0.056067 0)
(-0.213921 -0.00554688 0)
(-0.145648 -0.0477855 0)
(-0.117217 -0.0705185 0)
(-0.113044 -0.0713355 0)
(-0.122403 -0.0626579 0)
(-0.134909 -0.0549447 0)
(-0.140386 -0.0504723 0)
(-0.138625 -0.0490227 0)
(-0.13416 -0.0498848 0)
(-0.128964 -0.0526741 0)
(-0.124474 -0.0561671 0)
(-0.120996 -0.0597839 0)
(-0.118161 -0.0634127 0)
(-0.115718 -0.0671087 0)
(-0.113624 -0.0707103 0)
(-0.111952 -0.0737064 0)
(-0.110838 -0.0754963 0)
(-0.110449 -0.0756479 0)
(-0.110889 -0.0742596 0)
(-0.112113 -0.0719321 0)
(-0.113946 -0.0688911 0)
(-0.116161 -0.0652711 0)
(-0.118472 -0.0611076 0)
(-0.12051 -0.0562985 0)
(-0.12179 -0.0506504 0)
(-0.121679 -0.0438197 0)
(-0.119163 -0.0358285 0)
(-0.112336 -0.0267008 0)
(-0.0983936 -0.0158914 0)
(-0.0748355 -0.00249264 0)
(-0.0415444 0.01436 0)
(0.00932353 0.036283 0)
(0.0618705 0.0423443 0)
(0.109602 0.0240414 0)
(0.17206 -0.0159453 0)
(-0.19629 -0.0826866 0)
)
;

boundaryField
{
    floor
    {
        type            noSlip;
    }
    ceiling
    {
        type            noSlip;
    }
    sWall
    {
        type            noSlip;
    }
    nWall
    {
        type            noSlip;
    }
    sideWalls
    {
        type            empty;
    }
    glass1
    {
        type            noSlip;
    }
    glass2
    {
        type            noSlip;
    }
    sun
    {
        type            noSlip;
    }
    Table_master
    {
        type            noSlip;
    }
    Table_slave
    {
        type            noSlip;
    }
    inlet
    {
        type            fixedValue;
        value           uniform (0.46194 -0.191342 0);
    }
    outlet
    {
        type            zeroGradient;
    }
}


// ************************************************************************* //
