/*--------------------------------*- C++ -*----------------------------------*\
  =========                 |
  \\      /  F ield         | OpenFOAM: The Open Source CFD Toolbox
   \\    /   O peration     | Website:  https://openfoam.org
    \\  /    A nd           | Version:  6
     \\/     M anipulation  |
\*---------------------------------------------------------------------------*/
FoamFile
{
    version     2.0;
    format      ascii;
    class       volScalarField;
    location    "290";
    object      alphat;
}
// * * * * * * * * * * * * * * * * * * * * * * * * * * * * * * * * * * * * * //

dimensions      [1 -1 -1 0 0 0 0];

internalField   nonuniform List<scalar> 
458
(
0.00130275
0.00142576
0.00146403
0.00153685
0.00160455
0.00166952
0.00173572
0.00180045
0.00185221
0.00188269
0.00188224
0.0018417
0.00174896
0.00150787
0.00119252
0.000591143
0.000695313
0.00079753
0.000840897
0.000830223
0.000775297
0.000714737
0.000660888
0.000614545
0.000574539
0.000539815
0.000509428
0.000482676
0.000458441
0.000435529
0.000412466
0.000395371
0.00036065
0.0017329
0.00405056
0.00379283
0.00436015
0.00494007
0.00552658
0.00603269
0.00645129
0.00687255
0.00725736
0.00755571
0.0077172
0.00769723
0.00731369
0.00563048
0.00156988
0.00131319
0.00106574
0.000580853
0.00143729
0.00215222
0.00270013
0.00285575
0.00203355
0.00170122
0.00147902
0.00131679
0.00119357
0.00109659
0.0010175
0.000942466
0.000865548
0.000794454
0.000735592
0.000871325
0.000453492
0.00209033
0.00546122
0.00463509
0.00559096
0.00603774
0.00635612
0.00660195
0.00684949
0.00717662
0.00757095
0.00799975
0.00839555
0.00869415
0.00870217
0.00808459
0.00657196
0.00486936
0.00128618
0.000880431
0.00159114
0.0024058
0.0032054
0.00340717
0.00104973
0.000912647
0.000799402
0.000708208
0.000634962
0.000575853
0.000527864
0.000489382
0.00046002
0.000513212
0.000604128
0.0010233
0.000525415
0.00243235
0.0069009
0.00456764
0.00580239
0.00604759
0.00604554
0.00605632
0.00618796
0.00645951
0.0068685
0.00739478
0.00792827
0.00837579
0.00856751
0.00844256
0.00795053
0.00672941
0.00365032
0.00147014
0.00183536
0.00259021
0.0035653
0.00442744
0.00447581
0.00119401
0.0010884
0.00101342
0.000955737
0.000905948
0.000859808
0.000815457
0.00076884
0.000715216
0.000665408
0.000660994
0.00120652
0.000597856
0.00278161
0.00880843
0.00481019
0.00554799
0.00587489
0.00569478
0.00558096
0.005685
0.00594803
0.00637591
0.00696678
0.00754216
0.00795292
0.00812798
0.00809891
0.00792608
0.00740841
0.0060988
0.00541567
0.00554934
0.00596353
0.00643287
0.00673588
0.00664779
0.00561837
0.00506298
0.00473351
0.00448751
0.00424158
0.00390377
0.00344599
0.00289122
0.0022808
0.0017082
0.0012775
0.00123246
0.00101083
0.000793135
0.000848186
0.000924333
0.00315668
0.0109486
0.0064867
0.00525267
0.00566315
0.00571107
0.00545732
0.00556017
0.00580227
0.00623435
0.00682036
0.00739557
0.00776738
0.0078486
0.00773463
0.00761805
0.00757006
0.00745108
0.00763673
0.00804546
0.00835601
0.0084613
0.0083375
0.00799202
0.00743835
0.00694996
0.00654362
0.00617198
0.00580107
0.00539623
0.00489091
0.00427474
0.00355482
0.00279112
0.00212685
0.00158137
0.00127777
0.00109889
0.00138146
0.000960098
0.00351759
0.0125134
0.00934523
0.00647239
0.0058066
0.00592047
0.00579778
0.00574644
0.00589616
0.00631905
0.00692582
0.00750184
0.00782148
0.00779874
0.00760554
0.00758835
0.00798284
0.00856818
0.0091468
0.0095255
0.00957522
0.00933869
0.00888997
0.00830541
0.0076662
0.0070816
0.00657544
0.00612771
0.00572217
0.00535676
0.00502871
0.00463386
0.00410493
0.00346146
0.00283329
0.00226514
0.0018864
0.001721
0.00163291
0.00115202
0.00360049
0.0113748
0.00981913
0.00847848
0.00751312
0.0069493
0.00629913
0.0059631
0.00608308
0.00658569
0.00725668
0.00781546
0.00803084
0.00787296
0.00769075
0.00802656
0.00885602
0.00941674
0.00975758
0.009817
0.00953723
0.00898787
0.00826044
0.00745288
0.00667987
0.00603587
0.00552977
0.00513072
0.0048196
0.00459379
0.00445683
0.00438899
0.00421696
0.00385147
0.00352066
0.00334348
0.00342195
0.00360304
0.00423453
0.0017698
0.00352034
0.00423227
0.00467189
0.0049127
0.00495962
0.00493578
0.00505671
0.00548146
0.00621069
0.00708434
0.00785071
0.00826698
0.00820576
0.00783119
0.00799018
0.00851868
0.00896861
0.00914674
0.00909489
0.00878632
0.00821594
0.00742736
0.00653394
0.00567404
0.00496974
0.00445508
0.00408727
0.00381468
0.00360293
0.00342892
0.00327429
0.00312619
0.0030058
0.00290668
0.00283905
0.00279482
0.00271543
0.00256547
0.00238914
0.00165187
0.00148381
0.00261961
0.0037277
0.00477406
0.00584824
0.00694842
0.00788662
0.00850911
0.00867778
0.00837226
0.00785996
0.00744678
0.00760969
0.00782094
0.00781523
0.00760239
0.00719477
0.00658716
0.00582292
0.00501194
0.00426865
0.00368728
0.00329737
0.00305377
0.00290164
0.00280444
0.00274205
0.00270422
0.00268964
0.00270293
0.00272272
0.00274109
0.00274503
0.00270419
0.00257492
0.00234995
0.00206819
0.00133505
0.00238821
0.00497665
0.00676564
0.0080327
0.00893751
0.0090429
0.00885569
0.00834453
0.00735415
0.00636537
0.00583011
0.00564754
0.00558471
0.0054223
0.00513563
0.00472891
0.00420663
0.0036147
0.00304808
0.00260227
0.00231363
0.00216096
0.00209154
0.00207979
0.00210757
0.00216284
0.00223731
0.0023227
0.00242404
0.00253579
0.00265359
0.00276868
0.00286232
0.00291173
0.00286845
0.00283468
0.00267988
0.00135443
0.00251799
0.00258726
0.00264854
0.00294736
0.00278284
0.00247214
0.00214602
0.00189644
0.00170442
0.00150461
0.00132256
0.00115498
0.00102342
0.000932328
0.000869375
0.000820741
0.000778365
0.000739066
0.000704143
0.000677908
0.000664201
0.000663593
0.000673928
0.000692585
0.000717711
0.000747667
0.000781945
0.000820717
0.000864608
0.000914931
0.000971114
0.00103337
0.0011022
0.00117809
0.00126108
0.00136108
0.00139813
0.00136617
0.0012726
0.00117754
)
;

boundaryField
{
    floor
    {
        type            compressible::alphatWallFunction;
        Prt             0.85;
        value           nonuniform List<scalar> 
36
(
0.000169095
8.30294e-05
9.84927e-05
0.000113395
0.000119649
0.000118114
0.000110176
0.000101346
9.34178e-05
8.65319e-05
8.05364e-05
7.52905e-05
7.06655e-05
6.65653e-05
6.2826e-05
5.92678e-05
5.56621e-05
5.29729e-05
4.74641e-05
4.74634e-05
6.20597e-05
7.31036e-05
8.40379e-05
0.00011277
0.000120711
0.000131588
0.000169093
0.00022033
0.000185654
0.00015149
8.30284e-05
0.000151488
8.14836e-05
0.000181963
0.000125311
0.00020694
)
;
    }
    ceiling
    {
        type            compressible::alphatWallFunction;
        Prt             0.85;
        value           nonuniform List<scalar> 
43
(
0.000343635
0.000352424
0.000360182
0.00039782
0.000377238
0.000337961
0.000296151
0.000263689
0.000238393
0.000211729
0.000187087
0.000164059
0.000145713
0.00013285
0.000123875
0.000116888
0.00011076
0.000105041
9.99267e-05
9.60646e-05
9.4039e-05
9.39481e-05
9.54746e-05
9.82237e-05
0.000101912
0.00010629
0.000111273
0.000116878
0.000123186
0.000130371
0.000138339
0.000147106
0.000156726
0.000167255
0.000178678
0.000192333
0.000197362
0.000193026
0.00018026
0.000167183
0.000469034
0.000555564
0.000326987
)
;
    }
    sWall
    {
        type            compressible::alphatWallFunction;
        Prt             0.85;
        value           uniform 0.000342393;
    }
    nWall
    {
        type            compressible::alphatWallFunction;
        Prt             0.85;
        value           nonuniform List<scalar> 6(0.000131374 0.00013644 0.000163291 0.000188457 0.000191093 0.000166848);
    }
    sideWalls
    {
        type            empty;
    }
    glass1
    {
        type            compressible::alphatWallFunction;
        Prt             0.85;
        value           nonuniform List<scalar> 9(0.000179578 0.00023657 0.000282863 0.000326449 0.000370354 0.000416908 0.000461208 0.000471454 0.00046192);
    }
    glass2
    {
        type            compressible::alphatWallFunction;
        Prt             0.85;
        value           nonuniform List<scalar> 2(0.00024514 0.000229661);
    }
    sun
    {
        type            compressible::alphatWallFunction;
        Prt             0.85;
        value           nonuniform List<scalar> 
14
(
0.000184246
0.000200949
0.000206115
0.000215907
0.000224964
0.000233616
0.000242393
0.000250941
0.000257751
0.00026175
0.000261691
0.000256367
0.000244142
0.000212012
)
;
    }
    Table_master
    {
        type            compressible::alphatWallFunction;
        Prt             0.85;
        value           nonuniform List<scalar> 9(0.000149405 0.000130051 0.000113805 0.000100522 8.97034e-05 8.08614e-05 7.36e-05 6.77175e-05 6.319e-05);
    }
    Table_slave
    {
        type            compressible::alphatWallFunction;
        Prt             0.85;
        value           nonuniform List<scalar> 9(0.000169463 0.000154813 0.000144312 0.000136172 0.0001291 0.000122505 0.000116126 0.000109377 0.000101551);
    }
    inlet
    {
        type            fixedValue;
        value           uniform 1.94e-05;
    }
    outlet
    {
        type            zeroGradient;
    }
}


// ************************************************************************* //
