/*--------------------------------*- C++ -*----------------------------------*\
  =========                 |
  \\      /  F ield         | OpenFOAM: The Open Source CFD Toolbox
   \\    /   O peration     | Website:  https://openfoam.org
    \\  /    A nd           | Version:  6
     \\/     M anipulation  |
\*---------------------------------------------------------------------------*/
FoamFile
{
    version     2.0;
    format      ascii;
    class       surfaceScalarField;
    location    "290";
    object      phi;
}
// * * * * * * * * * * * * * * * * * * * * * * * * * * * * * * * * * * * * * //

dimensions      [1 0 -1 0 0 0 0];

internalField   nonuniform List<scalar> 
850
(
-0.00308867
0.00314813
-0.00424602
0.00115735
-0.00513806
0.000892033
-0.00582552
0.000687452
-0.00627385
0.00044832
-0.00644763
0.000173778
-0.00630572
-0.000141917
-0.00580812
-0.000497614
-0.00495771
-0.000850411
-0.00382486
-0.00113286
-0.00253814
-0.00128673
-0.00126381
-0.00127433
-0.000199083
-0.00106474
0.000305568
-0.00050466
0.000307772
-0.000932153
0.000935508
-0.000718788
-0.00021338
-8.67753e-05
-0.000632026
0.000540746
-0.000627535
0.00102671
-0.000485979
0.00130304
-0.000276345
0.00142326
-0.000120238
0.00148501
-6.17654e-05
0.00152312
-3.81247e-05
0.00154498
-2.18748e-05
0.00155461
-9.65105e-06
0.00155284
1.75674e-06
0.00153327
1.95496e-05
0.00147538
5.78738e-05
0.00134401
0.000131345
0.00112318
0.000220813
0.000819646
0.000303517
0.00082402
-0.0022263
0.00553547
-0.00334395
0.00227498
-0.00426319
0.00181127
-0.00495304
0.00137729
-0.00540929
0.000904569
-0.00560563
0.000370104
-0.00549953
-0.000248017
-0.00505771
-0.00093945
-0.00429743
-0.00161069
-0.00330706
-0.00212324
-0.00221957
-0.00237423
-0.00118051
-0.0023134
-0.000318236
-0.00192701
0.000366175
-0.00118908
0.00113687
-0.000462932
0.00127792
-0.000137505
0.000978051
0.000303926
0.000989943
9.53669e-06
0.000936157
0.000411163
-0.000615019
0.000799632
-0.00102051
0.00112739
-0.000955305
0.00138861
-0.000747211
0.00144981
-0.00033756
0.00145945
-0.000129898
0.00147124
-7.35718e-05
0.00148109
-4.79866e-05
0.00148696
-2.77665e-05
0.00148997
-1.26807e-05
0.00149016
1.55148e-06
0.00148472
2.49704e-05
0.00144711
9.54668e-05
0.00128921
0.000289229
0.00101229
0.000497717
0.000659863
0.000655919
0.00149538
-0.00156574
0.0073484
-0.00251953
0.00322877
-0.0033445
0.00263623
-0.00395259
0.00198537
-0.00437313
0.0013251
-0.00457593
0.000572893
-0.00449587
-0.000328085
-0.00408546
-0.00134986
-0.0033878
-0.00230836
-0.00251719
-0.00299385
-0.00160403
-0.00328739
-0.000761807
-0.00315563
-6.00043e-05
-0.00262883
0.00054402
-0.00179311
0.00102466
-0.000943585
0.00112091
-0.00023376
0.000867337
0.000557491
0.00186766
0.00143185
-0.000482699
0.00165672
-0.0008399
0.00163041
-0.000994214
0.0016769
-0.00100181
0.00188199
-0.000952312
0.00154457
0.00141481
0.00134137
0.00129352
0.00126589
0.00125335
0.00125504
0.00128014
0.00137574
0.00114728
0.000517677
0.000861798
0.000783174
0.000499884
0.00101781
0.00201273
-0.00108722
0.00875662
-0.00182939
0.00397093
-0.0023954
0.00320223
-0.00281895
0.00240891
-0.00313329
0.00163943
-0.00330199
0.000741585
-0.00321093
-0.000419153
-0.00279961
-0.00176119
-0.00216614
-0.00294183
-0.00144427
-0.00371573
-0.000739944
-0.00399172
-0.000123213
-0.00377237
0.000384166
-0.00313621
0.000828808
-0.00223776
0.00118143
-0.00129622
0.00137824
-0.000430579
0.00156789
0.000367833
0.00256821
0.000867329
0.00239615
0.000183081
0.00223618
-0.00032274
0.00211001
-0.000713743
0.00195852
-0.000842733
0.00179516
-0.000838459
0.00153571
-0.000692873
0.00184916
-0.00031362
0.00200353
-0.000154542
0.00210485
-0.000101497
0.00217306
-6.83777e-05
0.0021999
-2.70139e-05
0.00216788
3.18415e-05
0.00205306
0.000114647
0.00181972
0.000233168
0.00140746
0.000412085
0.00118216
0.000742951
0.000840255
0.00112506
0.000376359
0.00148169
0.00241148
-0.000743917
0.00988442
-0.0012865
0.0045135
-0.00144335
0.00335908
-0.00158684
0.00255239
-0.00171145
0.00176404
-0.00177942
0.000809538
-0.00159643
-0.000602145
-0.00116214
-0.00219549
-0.000635223
-0.00346875
-0.000126967
-0.00422399
0.000301928
-0.00442062
0.000632876
-0.00410332
0.000896288
-0.00339963
0.00112654
-0.00246802
0.00132576
-0.00149545
0.00152059
-0.00062542
0.00182211
6.63034e-05
0.00226388
0.000425552
0.0022863
0.000160647
0.00219821
-0.000234662
0.00199225
-0.000507793
0.00177224
-0.000622731
0.00156021
-0.000626452
0.00139619
-0.000528873
0.00142203
-0.000339476
0.00147567
-0.000208202
0.00152397
-0.000149817
0.00157039
-0.00011482
0.00160969
-6.63349e-05
0.00162394
1.75622e-05
0.00159223
0.000146335
0.00150129
0.000324082
0.001354
0.000559348
0.00121117
0.000885761
0.00105529
0.00128091
0.000748495
0.00178846
0.00100715
0.0021528
-0.00106165
0.00208869
-0.00174153
0.000698079
-0.00167203
-0.000626656
0.0109479
-0.000969555
0.00485639
-0.000562505
0.00295202
-0.000321122
0.002311
-0.000193509
0.00163641
-1.94341e-05
0.000635453
0.000350688
-0.000972277
0.000776733
-0.00262154
0.00112006
-0.00381207
0.00133204
-0.00443596
0.00141947
-0.00450804
0.00142235
-0.00410621
0.00137807
-0.00335536
0.001325
-0.00241497
0.00129145
-0.00146191
0.00131614
-0.000650115
0.00144752
-6.50959e-05
0.00165573
0.000217335
0.00170187
0.000114491
0.00159004
-0.000122838
0.0013956
-0.000313369
0.00118708
-0.000414228
0.000995468
-0.000434862
0.000854218
-0.000387644
0.000808301
-0.00029358
0.000823957
-0.000223881
0.000868649
-0.000194534
0.000931697
-0.000177893
0.00100788
-0.00014254
0.00108628
-6.08671e-05
0.00114875
8.38398e-05
0.0011879
0.000284901
0.00121324
0.000533983
0.00126154
0.000837438
0.00137936
0.00116306
0.00160052
0.00156728
0.0019813
0.00177199
0.00229225
0.00177772
0.00179962
0.00119069
0.000190682
-0.00071686
0.0121485
-0.000553848
0.00469337
0.000589274
0.00180888
0.00114114
0.00175913
0.00149686
0.00128068
0.00201569
0.000116609
0.00257032
-0.00152692
0.0028966
-0.00294783
0.00297012
-0.00388559
0.00281945
-0.00428528
0.00250534
-0.00419394
0.00210277
-0.00370365
0.00167764
-0.00293025
0.00128562
-0.00202297
0.000972857
-0.00114916
0.000785506
-0.000462778
0.000743242
-2.28464e-05
0.000801605
0.000158958
0.00080986
0.000106221
0.000724063
-3.70576e-05
0.000578572
-0.000167897
0.000413545
-0.000249221
0.000259172
-0.000280512
0.000144477
-0.000272973
9.61516e-05
-0.00024528
0.00010393
-0.000231685
0.00014671
-0.000237341
0.000214557
-0.000245768
0.000308099
-0.000236109
0.000432409
-0.000185206
0.000579601
-6.33808e-05
0.000734865
0.000129609
0.000904029
0.000364792
0.00111541
0.000626033
0.00139973
0.000878717
0.00180782
0.00115916
0.00235659
0.00122319
0.00311944
0.00101485
0.00328725
0.00102285
0.00354385
0.00278797
0.00990046
0.00348123
0.00400011
0.00362117
0.00166893
0.00384908
0.0015312
0.00430097
0.000828778
0.00493176
-0.000514195
0.00528092
-0.00187609
0.00522719
-0.00289409
0.00480703
-0.00346542
0.00411891
-0.00359716
0.00328091
-0.00335594
0.00240025
-0.00282299
0.00155811
-0.00208811
0.000828529
-0.00129341
0.000273182
-0.000593834
-4.72271e-05
-0.000142386
-0.00015624
8.61484e-05
-0.000147909
0.000150609
-0.000149324
0.000107615
-0.00020557
1.91668e-05
-0.000306893
-6.65968e-05
-0.000427582
-0.000128556
-0.000541827
-0.000166292
-0.000628163
-0.000186664
-0.000672938
-0.000200532
-0.000683695
-0.000220957
-0.000673548
-0.000247516
-0.000648511
-0.000270834
-0.000604973
-0.000279677
-0.000528051
-0.000262158
-0.000388546
-0.000202915
-0.000186163
-7.28027e-05
5.69343e-05
0.000121665
0.000340039
0.0003429
0.000656414
0.000562314
0.00103464
0.000780907
0.00145038
0.000807422
0.00183329
0.000631921
0.00116637
0.00168974
0.0049853
0.0104958
0.0144915
0.0126414
0.003519
0.011524
0.00264862
0.0107405
0.00161228
0.00989091
0.000335375
0.00878175
-0.000766919
0.0074761
-0.00158842
0.00605837
-0.00204768
0.00459568
-0.00213446
0.00317052
-0.00193079
0.0018558
-0.00150829
0.000681702
-0.000914033
-0.000221195
-0.000390532
-0.000766794
-4.82571e-05
-0.00100147
9.22641e-05
-0.00106168
0.000146344
-0.00106014
0.000149045
-0.00106563
0.000113077
-0.00110362
5.71281e-05
-0.00117288
2.64199e-06
-0.00126017
-4.12903e-05
-0.0013494
-7.70986e-05
-0.00142905
-0.00010704
-0.00149551
-0.000134106
-0.00155654
-0.000159954
-0.0016237
-0.000180384
-0.00170781
-0.000186752
-0.00182011
-0.000167416
-0.00197443
-0.000107859
-0.00218431
6.9307e-06
-0.00244311
0.00018597
-0.00276667
0.000445195
-0.00322933
0.000805534
-0.0039326
0.00126556
-0.00494505
0.00179333
-0.00638831
0.00225065
-0.00808252
0.0023261
-0.00760039
0.00120759
-0.00231145
0.00898006
0.00522002
0.00746361
0.00416512
0.00699539
0.00208057
0.00656876
0.000762072
0.00584444
-4.25386e-05
0.00483197
-0.00057591
0.00362759
-0.000843296
0.00231672
-0.000823597
0.000998734
-0.000612823
-0.000208503
-0.000301085
-0.00112026
-2.30784e-06
-0.00162522
0.000114407
-0.00182682
0.000153311
-0.00188892
0.000154342
-0.00189294
0.000150345
-0.00188301
0.000139088
-0.0018864
0.000116439
-0.0019148
8.54939e-05
-0.00196533
5.31415e-05
-0.00203059
2.3938e-05
-0.00210587
-1.8504e-06
-0.00218673
-2.62133e-05
-0.00227204
-4.88241e-05
-0.00236535
-6.66751e-05
-0.00247039
-7.53762e-05
-0.00258815
-6.90215e-05
-0.00271546
-4.01315e-05
-0.00284334
1.99855e-05
-0.00295989
0.000123454
-0.00306342
0.000289475
-0.00316259
0.000544337
-0.00326398
0.000906896
-0.00336848
0.00137003
-0.00343849
0.00186331
-0.00341463
0.00222676
-0.003121
0.00203244
-0.00178788
-0.000125561
-0.0040201
-0.000864939
0.00613962
0.000490126
0.00281009
0.000927145
0.00164358
0.000939444
0.000749793
0.000709079
0.000187824
0.000223714
-9.0564e-05
-0.000506163
-0.000113459
-0.00131129
-1.84956e-05
-0.00200252
7.83749e-05
-0.00244578
0.000142143
-0.00261832
0.000170204
-0.00265826
0.000154324
-0.00264154
0.000136564
-0.00260917
0.000121939
-0.00257297
0.000114117
-0.00254186
0.000107945
-0.00252354
9.80883e-05
-0.00252105
8.29743e-05
-0.00253202
6.40791e-05
-0.00255166
4.3544e-05
-0.00257664
2.31034e-05
-0.00260719
4.30089e-06
-0.0026449
-1.11487e-05
-0.0026897
-2.1909e-05
-0.00273905
-2.60521e-05
-0.00278728
-2.08284e-05
-0.0028253
-2.134e-06
-0.00284116
3.58151e-05
-0.00281908
0.000101338
-0.00273542
0.000205793
-0.00255632
0.00036521
-0.00225193
0.000602476
-0.00180975
0.000927824
-0.00120862
0.00126215
-0.000242456
0.00126057
0.0011434
0.000646561
0.00161831
-0.000600502
-0.00231467
-0.0117714
-0.0153214
-0.00914248
-0.00630671
-0.00464366
-0.00387924
-0.00368092
-0.00376389
-0.0038718
-0.0038862
-0.00380471
-0.00366019
-0.00348811
-0.00333226
-0.00319445
-0.00307148
-0.00295652
-0.0028479
-0.00274925
-0.00266578
-0.00260122
-0.00255718
-0.00253351
-0.00252859
-0.00253903
-0.00256016
-0.00258537
-0.00260529
-0.00260647
-0.00256965
-0.00246728
-0.00226044
-0.00189418
-0.0012907
-0.000361925
0.00090102
0.0021622
0.0028092
0.00220902
)
;

boundaryField
{
    floor
    {
        type            calculated;
        value           nonuniform List<scalar> 
36
(
0
0
0
0
0
0
0
0
0
0
0
0
0
0
0
0
0
0
0
-4.39482e-06
-1.15198e-05
-1.74823e-05
-2.24123e-05
-1.99104e-05
-1.82263e-05
-1.71302e-05
-2.21121e-06
-3.55042e-06
-4.06658e-06
-4.72952e-06
-3.37071e-06
-7.17103e-06
-1.02004e-05
-1.03835e-05
-1.30094e-05
-1.10331e-05
)
;
    }
    ceiling
    {
        type            calculated;
        value           nonuniform List<scalar> 
43
(
-4.08097e-05
-4.00853e-05
-3.93507e-05
-2.56931e-05
-1.94969e-05
-1.46689e-05
-1.05362e-05
-7.61669e-06
-5.5851e-06
-4.12604e-06
-3.13737e-06
-2.41461e-06
-1.90536e-06
-1.55138e-06
-1.28251e-06
-1.06018e-06
-8.70775e-07
-7.13088e-07
-5.94893e-07
-5.26199e-07
-5.09472e-07
-5.35809e-07
-5.90496e-07
-6.60243e-07
-7.35659e-07
-8.0878e-07
-8.75999e-07
-9.35972e-07
-9.88133e-07
-1.03229e-06
-1.06356e-06
-1.07848e-06
-1.07316e-06
-1.04193e-06
-9.7442e-07
-8.19136e-07
-6.33803e-07
-4.68058e-07
-3.50599e-07
5.33819e-07
7.1482e-06
4.40954e-06
-5.46431e-05
)
;
    }
    sWall
    {
        type            calculated;
        value           uniform -0.000238494;
    }
    nWall
    {
        type            calculated;
        value           nonuniform List<scalar> 6(-5.23919e-05 -6.31232e-05 -6.5938e-05 -7.92662e-05 -8.71467e-05 -0.000106211);
    }
    sideWalls
    {
        type            empty;
        value           nonuniform 0();
    }
    glass1
    {
        type            calculated;
        value           nonuniform List<scalar> 9(-5.94687e-05 -0.000161042 -0.000247206 -0.000320996 -0.000383886 -0.000436866 -0.000483742 -0.000539908 -0.000602499);
    }
    glass2
    {
        type            calculated;
        value           nonuniform List<scalar> 2(-0.000275108 -0.000303654);
    }
    sun
    {
        type            calculated;
        value           uniform 0;
    }
    Table_master
    {
        type            calculated;
        value           nonuniform List<scalar> 9(-1.53488e-07 -1.5365e-07 -1.53703e-07 -1.53734e-07 -1.53754e-07 -1.53766e-07 -1.5377e-07 -1.53762e-07 -1.53728e-07);
    }
    Table_slave
    {
        type            calculated;
        value           nonuniform List<scalar> 9(1.53347e-07 1.53342e-07 1.53301e-07 1.5327e-07 1.53255e-07 1.53252e-07 1.53263e-07 1.53305e-07 1.5339e-07);
    }
    inlet
    {
        type            calculated;
        value           uniform -0.0106811;
    }
    outlet
    {
        type            calculated;
        value           nonuniform List<scalar> 2(0.0120506 0.00359016);
    }
}


// ************************************************************************* //
