/*--------------------------------*- C++ -*----------------------------------*\
  =========                 |
  \\      /  F ield         | OpenFOAM: The Open Source CFD Toolbox
   \\    /   O peration     | Website:  https://openfoam.org
    \\  /    A nd           | Version:  6
     \\/     M anipulation  |
\*---------------------------------------------------------------------------*/
FoamFile
{
    version     2.0;
    format      ascii;
    class       volScalarField;
    location    "290";
    object      T;
}
// * * * * * * * * * * * * * * * * * * * * * * * * * * * * * * * * * * * * * //

dimensions      [0 0 0 1 0 0 0];

internalField   nonuniform List<scalar> 
458
(
302.794
302.521
302.507
302.503
302.5
302.496
302.491
302.486
302.478
302.468
302.46
302.458
302.465
302.487
302.52
302.714
302.689
302.679
302.687
302.696
302.704
302.712
302.72
302.728
302.736
302.743
302.751
302.759
302.767
302.775
302.785
302.796
302.825
302.975
302.556
302.531
302.532
302.533
302.532
302.529
302.521
302.503
302.477
302.454
302.443
302.45
302.47
302.49
302.5
302.51
302.533
302.721
302.66
302.656
302.667
302.681
302.688
302.693
302.698
302.703
302.708
302.713
302.718
302.724
302.731
302.739
302.751
302.767
302.81
303.167
302.603
302.563
302.573
302.586
302.595
302.598
302.589
302.556
302.504
302.456
302.432
302.439
302.465
302.485
302.497
302.506
302.525
302.669
302.642
302.645
302.665
302.69
302.693
302.696
302.7
302.704
302.708
302.712
302.717
302.722
302.727
302.736
302.747
302.762
302.807
303.363
302.662
302.598
302.617
302.647
302.676
302.693
302.684
302.629
302.541
302.459
302.421
302.43
302.463
302.492
302.509
302.516
302.525
302.535
302.558
302.594
302.638
302.684
302.724
302.757
302.781
302.801
302.818
302.833
302.845
302.856
302.865
302.871
302.838
302.805
302.787
302.812
303.558
302.739
302.634
302.652
302.697
302.749
302.793
302.787
302.702
302.572
302.457
302.408
302.421
302.465
302.509
302.536
302.545
302.553
302.571
302.602
302.646
302.697
302.749
302.795
302.835
302.865
302.889
302.908
302.923
302.931
302.934
302.932
302.923
302.897
302.856
302.82
302.818
302.923
303.012
303.011
303.735
302.839
302.694
302.686
302.728
302.791
302.875
302.859
302.739
302.577
302.447
302.392
302.412
302.475
302.541
302.585
302.605
302.619
302.646
302.686
302.735
302.788
302.838
302.883
302.919
302.948
302.969
302.985
302.995
302.998
302.994
302.984
302.968
302.941
302.902
302.859
302.84
302.884
302.918
302.962
303.894
303.003
302.842
302.799
302.814
302.865
302.937
302.888
302.727
302.538
302.402
302.36
302.407
302.502
302.596
302.661
302.697
302.721
302.754
302.796
302.844
302.892
302.936
302.974
303.003
303.025
303.04
303.049
303.053
303.052
303.042
303.026
303.006
302.979
302.944
302.905
302.879
302.886
302.902
302.934
304.124
303.459
303.272
303.148
303.089
303.1
303.051
302.873
302.626
302.413
302.302
302.314
302.42
302.563
302.689
302.771
302.816
302.842
302.875
302.915
302.956
302.995
303.028
303.054
303.072
303.085
303.091
303.094
303.091
303.085
303.075
303.06
303.04
303.016
302.989
302.961
302.944
302.949
302.968
303.109
304.454
304.142
303.9
303.671
303.489
303.333
303.01
302.609
302.29
302.139
302.153
302.292
302.498
302.695
302.837
302.902
302.934
302.96
302.99
303.022
303.052
303.078
303.099
303.113
303.121
303.124
303.124
303.12
303.114
303.107
303.1
303.096
303.093
303.094
303.103
303.123
303.155
303.189
303.216
303.279
297.485
299.045
299.987
300.35
300.609
300.934
301.32
301.72
302.095
302.446
302.756
302.907
302.981
303.016
303.039
303.061
303.085
303.107
303.126
303.139
303.147
303.151
303.152
303.151
303.148
303.144
303.141
303.138
303.136
303.135
303.136
303.141
303.152
303.171
303.197
303.226
303.255
303.287
297.863
299.17
300.02
300.542
301.031
301.501
301.995
302.396
302.684
302.88
302.997
303.054
303.086
303.107
303.124
303.14
303.154
303.166
303.173
303.177
303.178
303.177
303.175
303.173
303.17
303.168
303.165
303.163
303.161
303.16
303.161
303.164
303.172
303.184
303.201
303.224
303.23
303.267
299.534
299.494
299.491
300.593
301.329
301.936
302.403
302.689
302.866
302.986
303.061
303.11
303.141
303.16
303.173
303.183
303.19
303.196
303.201
303.203
303.203
303.203
303.201
303.198
303.196
303.193
303.19
303.188
303.185
303.182
303.18
303.179
303.178
303.178
303.181
303.189
303.199
303.208
303.214
303.258
)
;

boundaryField
{
    floor
    {
        type            wallHeatTransfer;
        Tinf            uniform 305.2;
        alphaWall       uniform 0.24;
        value           nonuniform List<scalar> 
36
(
302.814
303.164
303.096
303.05
303.043
303.055
303.079
303.108
303.136
303.163
303.19
303.215
303.239
303.263
303.286
303.309
303.335
303.358
303.411
303.411
303.323
303.274
303.24
303.259
303.32
303.301
302.814
302.74
302.784
302.851
303.164
302.851
303.175
302.802
303.016
302.784
)
;
    }
    ceiling
    {
        type            wallHeatTransfer;
        Tinf            uniform 303.2;
        alphaWall       uniform 0.24;
        value           nonuniform List<scalar> 
43
(
299.758
299.715
299.708
300.733
301.435
302.014
302.458
302.728
302.894
303.006
303.075
303.12
303.148
303.165
303.177
303.185
303.192
303.197
303.201
303.203
303.203
303.202
303.201
303.199
303.196
303.194
303.192
303.189
303.187
303.185
303.183
303.181
303.181
303.181
303.183
303.19
303.199
303.207
303.213
303.251
304.396
304.105
298.203
)
;
    }
    sWall
    {
        type            wallHeatTransfer;
        Tinf            uniform 315.2;
        alphaWall       uniform 0.36;
        value           uniform 300.93;
    }
    nWall
    {
        type            wallHeatTransfer;
        Tinf            uniform 307.2;
        alphaWall       uniform 0.36;
        value           nonuniform List<scalar> 6(303.792 303.732 303.616 303.85 303.827 303.879);
    }
    sideWalls
    {
        type            empty;
    }
    glass1
    {
        type            wallHeatTransfer;
        Tinf            uniform 315.2;
        alphaWall       uniform 4.3;
        value           nonuniform List<scalar> 9(311.191 310.568 310.172 309.871 309.618 309.385 309.196 309.261 309.489);
    }
    glass2
    {
        type            wallHeatTransfer;
        Tinf            uniform 307.2;
        alphaWall       uniform 4.3;
        value           nonuniform List<scalar> 2(305.619 305.739);
    }
    sun
    {
        type            wallHeatTransfer;
        Tinf            uniform 305.2;
        alphaWall       uniform 0.24;
        value           nonuniform List<scalar> 
14
(
303.041
302.778
302.76
302.747
302.736
302.725
302.714
302.703
302.69
302.679
302.671
302.673
302.688
302.735
)
;
    }
    Table_master
    {
        type            zeroGradient;
    }
    Table_slave
    {
        type            zeroGradient;
    }
    inlet
    {
        type            fixedValue;
        value           uniform 295.15;
    }
    outlet
    {
        type            zeroGradient;
    }
}


// ************************************************************************* //
