/*--------------------------------*- C++ -*----------------------------------*\
  =========                 |
  \\      /  F ield         | OpenFOAM: The Open Source CFD Toolbox
   \\    /   O peration     | Website:  https://openfoam.org
    \\  /    A nd           | Version:  6
     \\/     M anipulation  |
\*---------------------------------------------------------------------------*/
FoamFile
{
    version     2.0;
    format      ascii;
    class       volVectorField;
    location    "290";
    object      U;
}
// * * * * * * * * * * * * * * * * * * * * * * * * * * * * * * * * * * * * * //

dimensions      [0 1 -1 0 0 0 0];

internalField   nonuniform List<vector> 
458
(
(0.0292718 0.0897669 0)
(-0.174752 0.0281305 0)
(-0.204538 0.019343 0)
(-0.238821 0.0125967 0)
(-0.263459 0.00530319 0)
(-0.277073 -0.00255146 0)
(-0.277333 -0.0111847 0)
(-0.262343 -0.0208785 0)
(-0.232024 -0.0308915 0)
(-0.188331 -0.0394583 0)
(-0.136157 -0.04478 0)
(-0.0824394 -0.0452973 0)
(-0.0346914 -0.0391548 0)
(0.00744309 -0.0161715 0)
(-0.000620774 0.0145825 0)
(-0.0136532 0.0112077 0)
(-0.0381021 -0.0165997 0)
(-0.0153405 -0.029035 0)
(0.0130992 -0.0261698 0)
(0.0341086 -0.0188835 0)
(0.0495266 -0.0102254 0)
(0.0589774 -0.00563283 0)
(0.0633623 -0.00398509 0)
(0.065166 -0.0033773 0)
(0.0661195 -0.00300157 0)
(0.0666996 -0.00270131 0)
(0.0668841 -0.00240585 0)
(0.0664815 -0.00192192 0)
(0.064995 -0.000894734 0)
(0.0613201 0.00115129 0)
(0.0542155 0.00356994 0)
(0.046632 0.00637014 0)
(-0.00790166 0.0229271 0)
(0.205519 0.183836 0)
(-0.161797 0.0745437 0)
(-0.165512 0.0590074 0)
(-0.201122 0.0456408 0)
(-0.225928 0.0305243 0)
(-0.240328 0.0131782 0)
(-0.242018 -0.00709145 0)
(-0.229 -0.0299845 0)
(-0.201923 -0.052545 0)
(-0.163277 -0.0704361 0)
(-0.118103 -0.0800031 0)
(-0.0725518 -0.0789933 0)
(-0.0320387 -0.0660982 0)
(0.00399901 -0.0378118 0)
(0.0296547 -0.00496544 0)
(0.0535785 0.0125826 0)
(0.058767 0.0357102 0)
(-0.00633169 0.0689699 0)
(0.0582062 0.0447515 0)
(0.0105997 -0.0227431 0)
(0.0272736 -0.0390424 0)
(0.0417714 -0.0371384 0)
(0.0546442 -0.0288121 0)
(0.0612773 -0.0130671 0)
(0.06305 -0.00336126 0)
(0.063181 0.000268994 0)
(0.0633914 0.00157275 0)
(0.0637486 0.00228234 0)
(0.0639978 0.00278067 0)
(0.0640941 0.0032843 0)
(0.0640028 0.00410545 0)
(0.063272 0.00606918 0)
(0.0597712 0.0113835 0)
(0.0508985 0.0163482 0)
(0.0469179 0.0210421 0)
(-0.0500715 0.0490098 0)
(0.368292 0.275213 0)
(-0.176525 0.11804 0)
(-0.124386 0.0952526 0)
(-0.159147 0.0717205 0)
(-0.181811 0.0467579 0)
(-0.196077 0.0185511 0)
(-0.19866 -0.0141984 0)
(-0.186272 -0.0505843 0)
(-0.160914 -0.0854354 0)
(-0.126225 -0.11132 0)
(-0.0874947 -0.123201 0)
(-0.0500923 -0.119095 0)
(-0.0174757 -0.0993786 0)
(0.0115034 -0.0649501 0)
(0.0340832 -0.0318953 0)
(0.0482234 -0.00847725 0)
(0.0512053 0.019382 0)
(-0.00921734 0.0672461 0)
(0.116725 -0.00632198 0)
(0.0732575 -0.0334141 0)
(0.0668903 -0.0442213 0)
(0.0701702 -0.0440725 0)
(0.0749506 -0.0400343 0)
(0.0760624 -0.0298415 0)
(0.0661204 -0.0192586 0)
(0.0585372 -0.0135544 0)
(0.055539 -0.0103818 0)
(0.0545377 -0.00834353 0)
(0.0540172 -0.00696595 0)
(0.0537925 -0.00594079 0)
(0.0543726 -0.00472594 0)
(0.0567555 -0.00120794 0)
(0.0556287 0.0153744 0)
(0.0444166 0.026849 0)
(0.0511284 0.0358607 0)
(-0.0900897 0.0746077 0)
(0.517266 0.348741 0)
(-0.210319 0.155913 0)
(-0.0801284 0.126493 0)
(-0.113334 0.0948246 0)
(-0.130471 0.0632009 0)
(-0.14248 0.0266005 0)
(-0.144099 -0.0181125 0)
(-0.130027 -0.0685751 0)
(-0.105695 -0.115099 0)
(-0.0759783 -0.147196 0)
(-0.0453861 -0.159821 0)
(-0.0179466 -0.152228 0)
(0.00601014 -0.126098 0)
(0.0259139 -0.0885541 0)
(0.042986 -0.0495131 0)
(0.0561351 -0.014511 0)
(0.0703388 0.0202606 0)
(0.0718691 0.0599299 0)
(0.112349 0.0607028 0)
(0.109192 -0.0011399 0)
(0.0946677 -0.0294663 0)
(0.0863241 -0.0391595 0)
(0.0797916 -0.0400835 0)
(0.0719479 -0.0353078 0)
(0.0706157 -0.0211429 0)
(0.0806014 -0.0136238 0)
(0.0886055 -0.00961509 0)
(0.0926916 -0.00718029 0)
(0.0945261 -0.00520811 0)
(0.0944517 -0.00314112 0)
(0.0915457 -0.000573667 0)
(0.0845038 0.0029414 0)
(0.0713292 0.00804774 0)
(0.0556688 0.025483 0)
(0.0410823 0.0410901 0)
(0.0585829 0.0545556 0)
(-0.122323 0.0959587 0)
(0.648962 0.405297 0)
(-0.254125 0.185931 0)
(-0.0349917 0.145048 0)
(-0.0648988 0.108837 0)
(-0.0733592 0.0739424 0)
(-0.0804456 0.0324804 0)
(-0.0765362 -0.0220731 0)
(-0.0577638 -0.0861125 0)
(-0.0356081 -0.140759 0)
(-0.013754 -0.174797 0)
(0.00577874 -0.185064 0)
(0.0207662 -0.172709 0)
(0.0325987 -0.143613 0)
(0.0426381 -0.104136 0)
(0.0517642 -0.0625334 0)
(0.0604188 -0.024543 0)
(0.0722177 0.00830586 0)
(0.0862181 0.0259709 0)
(0.100175 0.00377971 0)
(0.0989362 -0.0188319 0)
(0.0909094 -0.0290949 0)
(0.0809148 -0.0325474 0)
(0.071201 -0.0317605 0)
(0.06273 -0.0263171 0)
(0.0594588 -0.0143685 0)
(0.0615838 -0.00727016 0)
(0.0644457 -0.00426841 0)
(0.0666292 -0.00259207 0)
(0.0684174 -0.000548444 0)
(0.0697789 0.00265589 0)
(0.0696278 0.00730072 0)
(0.0673003 0.0137307 0)
(0.0623691 0.0226406 0)
(0.0556853 0.0369769 0)
(0.0455682 0.053115 0)
(0.0704376 0.0720573 0)
(-0.00664022 0.102096 0)
(0.0553221 0.146558 0)
(-0.0807416 0.0706276 0)
(-0.273389 -0.0009132 0)
(0.747766 0.451842 0)
(-0.299139 0.205175 0)
(0.00152977 0.142429 0)
(-0.0157275 0.112255 0)
(-0.0134797 0.0792852 0)
(-0.014597 0.0366164 0)
(0.00579826 -0.0327316 0)
(0.028967 -0.106472 0)
(0.0453273 -0.160574 0)
(0.0558841 -0.190168 0)
(0.060868 -0.195637 0)
(0.0614332 -0.180102 0)
(0.0594782 -0.148756 0)
(0.0567318 -0.108393 0)
(0.0547172 -0.0667225 0)
(0.0546637 -0.0301033 0)
(0.0588739 -0.00227467 0)
(0.067398 0.0108665 0)
(0.0734536 0.00302078 0)
(0.0719452 -0.00845391 0)
(0.0648239 -0.0171428 0)
(0.0555762 -0.0216598 0)
(0.0465527 -0.0223107 0)
(0.0390312 -0.0192647 0)
(0.0349162 -0.0131308 0)
(0.0345846 -0.00902607 0)
(0.0361504 -0.00726382 0)
(0.0385347 -0.00614846 0)
(0.0414928 -0.00425002 0)
(0.0448952 -0.000496537 0)
(0.0483067 0.00563373 0)
(0.0506228 0.0140563 0)
(0.0520755 0.0248912 0)
(0.0537365 0.0387883 0)
(0.0536214 0.0545892 0)
(0.075469 0.0747528 0)
(0.0626611 0.0879683 0)
(0.0977142 0.0945041 0)
(0.115555 0.0560515 0)
(-0.134118 -0.0279902 0)
(0.805269 0.493876 0)
(-0.323685 0.188249 0)
(0.032037 0.090704 0)
(0.0450388 0.0927638 0)
(0.0551631 0.0721947 0)
(0.065683 0.0221883 0)
(0.101972 -0.0564646 0)
(0.123855 -0.12436 0)
(0.131323 -0.170081 0)
(0.127707 -0.191626 0)
(0.115864 -0.190857 0)
(0.0989021 -0.171488 0)
(0.0799868 -0.138593 0)
(0.0617465 -0.0987242 0)
(0.0465298 -0.0589995 0)
(0.0361266 -0.0259184 0)
(0.0318605 -0.00315739 0)
(0.0335515 0.00695185 0)
(0.0353418 0.00396827 0)
(0.03368 -0.00348527 0)
(0.0284469 -0.010083 0)
(0.021376 -0.0139306 0)
(0.0141692 -0.0150284 0)
(0.00810217 -0.0138258 0)
(0.00455316 -0.0112207 0)
(0.00389154 -0.0095887 0)
(0.0051322 -0.00924412 0)
(0.00751771 -0.00915577 0)
(0.010863 -0.00819893 0)
(0.0152319 -0.00525165 0)
(0.0214885 0.00083758 0)
(0.0284321 0.00975819 0)
(0.0353317 0.0204405 0)
(0.0436001 0.0327498 0)
(0.0521191 0.0458041 0)
(0.0719855 0.0617311 0)
(0.0853777 0.0673999 0)
(0.117171 0.0607687 0)
(0.160295 0.0498969 0)
(-0.0201083 0.0936192 0)
(0.912152 0.494578 0)
(-0.0672043 0.167788 0)
(0.114481 0.0209831 0)
(0.172801 0.00791388 0)
(0.176292 -0.00739714 0)
(0.197773 -0.0535008 0)
(0.225723 -0.100841 0)
(0.232902 -0.140588 0)
(0.220508 -0.166123 0)
(0.194263 -0.174389 0)
(0.159482 -0.166019 0)
(0.121047 -0.143649 0)
(0.083076 -0.111019 0)
(0.0486569 -0.073931 0)
(0.0210128 -0.0388876 0)
(0.00261852 -0.0125665 0)
(-0.00612428 0.00223056 0)
(-0.00640102 0.00691867 0)
(-0.00587052 0.00461563 0)
(-0.00720499 -0.000389793 0)
(-0.0106849 -0.00494387 0)
(-0.0157784 -0.00787775 0)
(-0.0210864 -0.0092639 0)
(-0.0255564 -0.00956679 0)
(-0.0283551 -0.00948174 0)
(-0.0294156 -0.00991091 0)
(-0.0293383 -0.0108921 0)
(-0.0285866 -0.0119089 0)
(-0.027231 -0.0123631 0)
(-0.0250054 -0.0116318 0)
(-0.0210927 -0.0089591 0)
(-0.0128796 -0.00354277 0)
(-0.00246048 0.00411982 0)
(0.00894366 0.0122636 0)
(0.0205526 0.0186512 0)
(0.0375484 0.0251406 0)
(0.0531257 0.0202278 0)
(0.0770647 0.00410649 0)
(0.142202 0.0466306 0)
(-0.419796 0.208527 0)
(1.0588 0.440053 0)
(0.513412 0.294939 0)
(0.526974 0.24026 0)
(0.525164 0.167964 0)
(0.488044 0.103694 0)
(0.451388 0.0389782 0)
(0.404589 -0.0265663 0)
(0.350606 -0.0795287 0)
(0.291235 -0.111632 0)
(0.228579 -0.122156 0)
(0.16566 -0.115226 0)
(0.105844 -0.0955583 0)
(0.0519301 -0.0670269 0)
(0.0062459 -0.0356643 0)
(-0.0256495 -0.0106517 0)
(-0.0403112 0.000997448 0)
(-0.0452923 0.00570174 0)
(-0.045541 0.00652846 0)
(-0.0453642 0.0047084 0)
(-0.0464215 0.00169647 0)
(-0.0486952 -0.00118834 0)
(-0.052268 -0.00339636 0)
(-0.056228 -0.00503184 0)
(-0.0599316 -0.00632269 0)
(-0.0630252 -0.00754302 0)
(-0.0656588 -0.0089021 0)
(-0.0683194 -0.0102416 0)
(-0.0714931 -0.01116 0)
(-0.0756222 -0.011124 0)
(-0.0812299 -0.00945218 0)
(-0.0889961 -0.00529622 0)
(-0.099524 0.00218492 0)
(-0.111044 0.0128645 0)
(-0.126488 0.0268806 0)
(-0.151119 0.0443272 0)
(-0.187545 0.0641454 0)
(-0.23738 0.0824449 0)
(-0.29163 0.0958619 0)
(-0.363621 0.103034 0)
(-0.637025 0.103583 0)
(0.242559 0.0345317 0)
(0.306033 0.087364 0)
(0.318833 0.0590107 0)
(0.292968 0.010385 0)
(0.266757 -0.0297275 0)
(0.229483 -0.0549916 0)
(0.182025 -0.0665368 0)
(0.127781 -0.0657365 0)
(0.0712703 -0.0553419 0)
(0.0158869 -0.0368683 0)
(-0.0343871 -0.0132588 0)
(-0.0628109 -0.000157827 0)
(-0.0765088 0.00511272 0)
(-0.080757 0.00652236 0)
(-0.0815707 0.0068042 0)
(-0.0810879 0.00627199 0)
(-0.080815 0.00495877 0)
(-0.0815506 0.00315233 0)
(-0.0833698 0.00132079 0)
(-0.0858746 -0.000322323 0)
(-0.0889535 -0.00179444 0)
(-0.092368 -0.00310569 0)
(-0.0959134 -0.00423191 0)
(-0.0997126 -0.00507365 0)
(-0.103966 -0.00541865 0)
(-0.108788 -0.0049447 0)
(-0.114151 -0.0032479 0)
(-0.119842 0.000119741 0)
(-0.125336 0.00560083 0)
(-0.129749 0.0136687 0)
(-0.133628 0.0254652 0)
(-0.137124 0.0415796 0)
(-0.141284 0.061283 0)
(-0.146674 0.0811062 0)
(-0.149562 0.0914717 0)
(-0.13419 0.0708468 0)
(-0.0993287 -0.0236785 0)
(-0.282235 -0.207853 0)
(0.128282 0.308876 0)
(8.85046e-05 0.181608 0)
(0.0212601 0.0924702 0)
(0.0304093 0.0372279 0)
(0.0283484 0.0066701 0)
(0.0228238 -0.0104991 0)
(-0.00399082 -0.0151313 0)
(-0.0393095 -0.00861695 0)
(-0.0734686 0.000685809 0)
(-0.0984499 0.00777053 0)
(-0.111292 0.0108067 0)
(-0.114355 0.0100723 0)
(-0.114443 0.00884529 0)
(-0.113122 0.00768321 0)
(-0.111484 0.00696057 0)
(-0.109917 0.00639275 0)
(-0.108818 0.00569403 0)
(-0.10842 0.0048162 0)
(-0.108685 0.00390368 0)
(-0.109399 0.00307812 0)
(-0.11038 0.0023295 0)
(-0.111535 0.00159813 0)
(-0.112997 0.000913018 0)
(-0.114795 0.000370199 0)
(-0.11688 0.000106088 0)
(-0.119084 0.000305676 0)
(-0.121103 0.00122768 0)
(-0.12246 0.00322712 0)
(-0.122535 0.00689595 0)
(-0.120272 0.0130686 0)
(-0.114184 0.0227282 0)
(-0.1029 0.0368088 0)
(-0.086141 0.0552238 0)
(-0.0647066 0.0745124 0)
(-0.0407016 0.0878162 0)
(-0.0039528 0.0776856 0)
(0.145455 0.00356072 0)
(-0.208733 -0.121498 0)
(-0.406211 -0.504677 0)
(-0.625369 -0.144778 0)
(-0.446675 0.160896 0)
(-0.366773 0.0441207 0)
(-0.237912 -0.0075409 0)
(-0.184005 -0.0324055 0)
(-0.164007 -0.0372823 0)
(-0.161025 -0.030875 0)
(-0.165008 -0.0215332 0)
(-0.1681 -0.0136608 0)
(-0.166089 -0.0079998 0)
(-0.160996 -0.00425588 0)
(-0.15395 -0.00223994 0)
(-0.146784 -0.00156073 0)
(-0.140459 -0.00105328 0)
(-0.134851 -0.00054378 0)
(-0.129702 2.73639e-06 0)
(-0.124839 0.000357985 0)
(-0.120343 0.000302093 0)
(-0.11641 -0.000257596 0)
(-0.113219 -0.00126745 0)
(-0.110878 -0.00256483 0)
(-0.109426 -0.00394358 0)
(-0.108832 -0.00520906 0)
(-0.109 -0.00621112 0)
(-0.109758 -0.00687447 0)
(-0.110865 -0.00713067 0)
(-0.111989 -0.00688664 0)
(-0.112668 -0.00600194 0)
(-0.112258 -0.00426049 0)
(-0.109623 -0.00143201 0)
(-0.102908 0.00287573 0)
(-0.0895349 0.00929308 0)
(-0.067324 0.0186719 0)
(-0.0364194 0.0316726 0)
(0.0121666 0.0492089 0)
(0.0600562 0.0532358 0)
(0.104856 0.0371965 0)
(0.167783 0.00282014 0)
(-0.208415 -0.0578037 0)
)
;

boundaryField
{
    floor
    {
        type            noSlip;
    }
    ceiling
    {
        type            noSlip;
    }
    sWall
    {
        type            noSlip;
    }
    nWall
    {
        type            noSlip;
    }
    sideWalls
    {
        type            empty;
    }
    glass1
    {
        type            noSlip;
    }
    glass2
    {
        type            noSlip;
    }
    sun
    {
        type            noSlip;
    }
    Table_master
    {
        type            noSlip;
    }
    Table_slave
    {
        type            noSlip;
    }
    inlet
    {
        type            fixedValue;
        value           uniform (0.46194 -0.191342 0);
    }
    outlet
    {
        type            zeroGradient;
    }
}


// ************************************************************************* //
