/*--------------------------------*- C++ -*----------------------------------*\
  =========                 |
  \\      /  F ield         | OpenFOAM: The Open Source CFD Toolbox
   \\    /   O peration     | Website:  https://openfoam.org
    \\  /    A nd           | Version:  6
     \\/     M anipulation  |
\*---------------------------------------------------------------------------*/
FoamFile
{
    version     2.0;
    format      ascii;
    class       volScalarField;
    location    "100";
    object      alphat;
}
// * * * * * * * * * * * * * * * * * * * * * * * * * * * * * * * * * * * * * //

dimensions      [1 -1 -1 0 0 0 0];

internalField   nonuniform List<scalar> 
459
(
0.000845103
0.000864611
0.000733294
0.000750313
0.000777901
0.000806365
0.000834956
0.000864032
0.000894693
0.000924284
0.000949245
0.000967469
0.000976606
0.000973722
0.000951484
0.000426175
0.000465234
0.000393169
0.000309813
0.000264847
0.00023648
0.000219856
0.000216689
0.000228481
0.000255096
0.000293983
0.000342869
0.000400571
0.000468314
0.000547262
0.000624098
0.00064291
0.000595269
0.000492014
0.00150771
0.00295623
0.00195774
0.00285197
0.00315847
0.00338654
0.00362169
0.00384612
0.00402874
0.00416683
0.00423921
0.00419908
0.00396712
0.00340999
0.00236986
0.00102361
0.000705921
0.000514743
0.00156826
0.00113305
0.000781402
0.000521718
0.000389904
0.000363241
0.000357432
0.000366732
0.000408331
0.000505979
0.000671506
0.000900119
0.00116834
0.00146566
0.00203989
0.00186705
0.00139339
0.000534961
0.00207475
0.00505416
0.00220395
0.00369369
0.00474056
0.00509871
0.00535829
0.00558198
0.0057569
0.00588153
0.00593177
0.0058529
0.0055551
0.00490887
0.00380263
0.00235962
0.00105769
0.000756665
0.00188553
0.00141131
0.000972899
0.000665367
0.000439346
0.000235001
0.00022882
0.000253197
0.000302955
0.000376379
0.00046752
0.000573277
0.000698501
0.000856171
0.00252629
0.00232185
0.00167851
0.000895996
0.00259358
0.00751341
0.00294423
0.00356135
0.00535144
0.00592425
0.00621926
0.00646472
0.00667786
0.00685931
0.00701615
0.00709764
0.00700859
0.0066002
0.00568463
0.00415361
0.00230929
0.0011072
0.0023316
0.00264247
0.00227972
0.00190161
0.00156477
0.00124066
0.00091315
0.000914168
0.000914245
0.000913635
0.00091488
0.000922349
0.000943329
0.000989983
0.00108424
0.003294
0.00337432
0.00290196
0.0012305
0.00306102
0.010011
0.00441446
0.00341616
0.0051537
0.00597698
0.00636203
0.00665889
0.00693059
0.00720757
0.00755711
0.00794693
0.00831011
0.00855467
0.00857574
0.00828834
0.00768313
0.00684921
0.00610548
0.00574812
0.00557137
0.0055208
0.00549384
0.00534152
0.00515264
0.00501808
0.00485533
0.00466125
0.00444898
0.00424884
0.00410449
0.00405312
0.00409996
0.00423318
0.00414015
0.00393865
0.00343392
0.00147085
0.00126651
0.00109307
0.00348973
0.0121641
0.0069013
0.00423797
0.00449501
0.00524107
0.00579319
0.00618984
0.00647236
0.00680895
0.00729885
0.00792469
0.00862812
0.00931731
0.00988262
0.0102153
0.0102284
0.00990665
0.00937212
0.00882596
0.00848068
0.0082956
0.00815397
0.00798984
0.00779572
0.00756097
0.00726945
0.00691109
0.00648431
0.00601069
0.00554584
0.00516014
0.00488345
0.00467722
0.00447621
0.00422473
0.00382334
0.00325492
0.00233197
0.00114086
0.00386035
0.013555
0.0102094
0.00680118
0.00502423
0.00472716
0.0051217
0.00557098
0.00578089
0.00605397
0.00648416
0.00711987
0.00795239
0.00889437
0.0098045
0.0105326
0.0109533
0.0110114
0.0107827
0.010435
0.0101193
0.00987863
0.00969041
0.00952408
0.00935386
0.00915934
0.00892373
0.00862486
0.00823326
0.00772405
0.00710515
0.00644411
0.00583641
0.00533041
0.00489642
0.00446052
0.00393117
0.00329053
0.0025484
0.00116258
0.00389457
0.0126344
0.0109746
0.00961517
0.00766332
0.00631389
0.00578357
0.00571461
0.00567806
0.00568728
0.00582216
0.00615121
0.00673699
0.00758887
0.00860561
0.00959429
0.0103633
0.0107702
0.0108576
0.0107473
0.0105661
0.0103887
0.0102395
0.0101185
0.0100163
0.00992384
0.00983292
0.00972784
0.00957834
0.00933815
0.00895681
0.00841241
0.00771636
0.00693845
0.00617598
0.00548133
0.00476977
0.00411765
0.00362187
0.00180669
0.00372445
0.00431928
0.00838121
0.00907797
0.0083256
0.00735042
0.00657446
0.006053
0.00570334
0.00550438
0.00544952
0.00554
0.00580621
0.00629571
0.00702186
0.00789786
0.00874483
0.00938963
0.00977119
0.00992909
0.0099465
0.00989738
0.00982889
0.0097665
0.00972273
0.00970539
0.00972064
0.00976947
0.00984131
0.00990689
0.00991166
0.00979921
0.00956799
0.00927228
0.00901049
0.00866004
0.00808778
0.0070341
0.00689984
0.00196757
0.0175042
0.0172484
0.0106221
0.00847545
0.00733666
0.00660347
0.00610822
0.00577866
0.0055773
0.00549413
0.00553012
0.00569553
0.00600226
0.00644668
0.00698447
0.00752797
0.00798831
0.00831804
0.00851909
0.00862137
0.00866081
0.00866864
0.00866884
0.00867997
0.00871758
0.00879415
0.00891592
0.00907576
0.00923557
0.00936632
0.00943048
0.00939243
0.00919456
0.00873048
0.00798464
0.00694028
0.00585859
0.00188746
0.00664746
0.0144078
0.0104774
0.008404
0.00720189
0.00642931
0.00592441
0.00560988
0.00543581
0.00537617
0.00542188
0.00556104
0.0057649
0.00600874
0.00627505
0.00654291
0.00678858
0.00699302
0.00714806
0.00725616
0.00732641
0.00737
0.00739739
0.00741715
0.00743575
0.00745742
0.00748399
0.00751529
0.00755183
0.00758462
0.00759729
0.00756365
0.00736453
0.00698629
0.00641381
0.00559924
0.00524674
0.00175635
0.00195525
0.00278079
0.0048384
0.0044058
0.00376335
0.00322778
0.00281259
0.00249267
0.00224248
0.00204433
0.00188889
0.00176929
0.00167916
0.00161435
0.00157323
0.0015524
0.00154654
0.0015501
0.00155787
0.00156573
0.00157113
0.00157301
0.00157144
0.0015671
0.00156089
0.00155376
0.00154655
0.00153997
0.00153448
0.00153031
0.00152746
0.00152428
0.00151736
0.00150181
0.00148238
0.00145767
0.00142445
0.00138082
0.001399
0.00126944
)
;

boundaryField
{
    floor
    {
        type            compressible::alphatWallFunction;
        Prt             0.85;
        value           nonuniform List<scalar> 
29
(
0.000135494
5.78725e-05
6.39511e-05
5.27026e-05
3.93349e-05
3.19283e-05
2.71661e-05
2.43346e-05
2.37837e-05
2.57844e-05
3.02642e-05
3.67045e-05
4.46461e-05
5.38335e-05
6.44047e-05
7.64824e-05
8.80298e-05
9.08278e-05
8.37223e-05
6.80597e-05
6.80589e-05
7.46057e-05
0.00012758
0.000174424
0.000135492
5.78717e-05
7.1538e-05
0.000107541
0.000157341
)
;
    }
    ceiling
    {
        type            compressible::alphatWallFunction;
        Prt             0.85;
        value           nonuniform List<scalar> 
43
(
0.000271699
0.000377393
0.000628265
0.000576581
0.000498876
0.000433068
0.000381279
0.000340826
0.00030881
0.000283179
0.000262885
0.000247146
0.000235206
0.000226575
0.000221076
0.000218284
0.000217495
0.000217968
0.000219006
0.000220057
0.000220776
0.000221026
0.000220815
0.000220231
0.000219398
0.000218441
0.000217473
0.000216588
0.00021585
0.00021529
0.000214907
0.000214479
0.00021355
0.000211458
0.000208842
0.000205511
0.000201021
0.000195106
0.000197568
0.000179911
0.000494104
0.000566135
0.000839813
)
;
    }
    sWall
    {
        type            compressible::alphatWallFunction;
        Prt             0.85;
        value           uniform 0.000270752;
    }
    nWall
    {
        type            compressible::alphatWallFunction;
        Prt             0.85;
        value           nonuniform List<scalar> 6(0.000155222 0.000161862 0.000164873 0.000262303 0.000245043 0.000179609);
    }
    sideWalls
    {
        type            empty;
    }
    glass1
    {
        type            compressible::alphatWallFunction;
        Prt             0.85;
        value           nonuniform List<scalar> 9(0.000117191 0.000207622 0.000281644 0.000347603 0.000405931 0.000458672 0.000503775 0.000508053 0.000487651);
    }
    glass2
    {
        type            compressible::alphatWallFunction;
        Prt             0.85;
        value           nonuniform List<scalar> 2(0.000250714 0.000271757);
    }
    sun
    {
        type            compressible::alphatWallFunction;
        Prt             0.85;
        value           nonuniform List<scalar> 
14
(
0.000120341
0.000123123
0.00010413
0.000106614
0.000110625
0.000114746
0.000118867
0.000123042
0.000127426
0.000131639
0.000135181
0.00013776
0.00013905
0.000138641
)
;
    }
    heatsource1
    {
        type            compressible::alphatWallFunction;
        Prt             0.85;
        value           nonuniform List<scalar> 3(0.000207205 0.000179438 0.000155468);
    }
    heatsource2
    {
        type            compressible::alphatWallFunction;
        Prt             0.85;
        value           nonuniform List<scalar> 4(0.000145739 0.000100189 0.000100188 0.000150514);
    }
    Table_master
    {
        type            compressible::alphatWallFunction;
        Prt             0.85;
        value           nonuniform List<scalar> 9(2.69674e-05 2.5904e-05 2.99933e-05 3.82051e-05 5.0025e-05 6.43032e-05 8.04429e-05 9.90847e-05 0.000121987);
    }
    Table_slave
    {
        type            compressible::alphatWallFunction;
        Prt             0.85;
        value           nonuniform List<scalar> 9(0.000130138 0.000130288 0.000130304 0.00013022 0.000130399 0.000131461 0.000134435 0.000141025 0.000154239);
    }
    inlet
    {
        type            fixedValue;
        value           uniform 1.94e-05;
    }
    outlet
    {
        type            zeroGradient;
    }
}


// ************************************************************************* //
