/*--------------------------------*- C++ -*----------------------------------*\
  =========                 |
  \\      /  F ield         | OpenFOAM: The Open Source CFD Toolbox
   \\    /   O peration     | Website:  https://openfoam.org
    \\  /    A nd           | Version:  6
     \\/     M anipulation  |
\*---------------------------------------------------------------------------*/
FoamFile
{
    version     2.0;
    format      ascii;
    class       volScalarField;
    location    "100";
    object      epsilon;
}
// * * * * * * * * * * * * * * * * * * * * * * * * * * * * * * * * * * * * * //

dimensions      [0 2 -3 0 0 0 0];

internalField   nonuniform List<scalar> 
459
(
0.000137698
0.000147025
8.96959e-05
9.60987e-05
0.000107104
0.000119306
0.000132462
0.000146796
0.000162994
0.000179711
0.000194665
0.000206082
0.000211956
0.000210055
0.000195955
1.75668e-05
2.2859e-05
1.38057e-05
6.75494e-06
4.21909e-06
3.00197e-06
2.41034e-06
2.30526e-06
2.70026e-06
3.75725e-06
5.75246e-06
9.13115e-06
1.45708e-05
2.32992e-05
3.72021e-05
5.52018e-05
6.03428e-05
4.78885e-05
2.70277e-05
0.000783671
0.00173807
0.00016782
7.58867e-05
7.5448e-05
8.16772e-05
8.92007e-05
9.79758e-05
0.000108607
0.000121035
0.000134716
0.000149161
0.000163042
0.000173745
0.000183459
0.000243932
7.99382e-05
3.09407e-05
8.53022e-05
2.22033e-05
9.51092e-06
5.27824e-06
3.12131e-06
1.93149e-06
1.8959e-06
2.39103e-06
3.71753e-06
6.47514e-06
1.15711e-05
2.02423e-05
3.42769e-05
5.40476e-05
6.37476e-05
6.4011e-05
6.46974e-05
3.47277e-05
0.00204636
0.00578523
0.000510962
0.000106144
8.22761e-05
8.66134e-05
9.51887e-05
0.000105686
0.000117998
0.000132111
0.000147181
0.0001626
0.000177319
0.000189434
0.000198309
0.000213234
0.000269002
9.83145e-05
9.05907e-05
3.91703e-05
2.87597e-05
2.49279e-05
2.1758e-05
2.93974e-06
2.70939e-06
3.66427e-06
6.27197e-06
1.20349e-05
2.31029e-05
4.2675e-05
7.73312e-05
0.000142628
0.000106359
0.000109882
0.000128218
0.000163443
0.00400508
0.0123339
0.00130834
0.000180597
0.000101259
0.000101083
0.000111297
0.000124609
0.000139828
0.000156685
0.000173396
0.000189341
0.000203859
0.00021542
0.000222593
0.000228317
0.000247203
0.000308345
0.000122521
8.34707e-05
7.54006e-05
8.40078e-05
0.000100318
0.000126203
0.000173307
0.000173918
0.000173992
0.000173672
0.000174406
0.000178727
0.000191205
0.000220997
0.000290353
0.000177291
0.000203913
0.000246449
0.00042485
0.00659593
0.0203195
0.00280964
0.000361855
0.000146684
0.000131422
0.000142156
0.000159633
0.00018027
0.00020192
0.00022138
0.000239328
0.000256455
0.000270822
0.0002772
0.000269307
0.000244211
0.000199416
0.00013476
0.000106877
9.9531e-05
0.000102199
0.000108357
0.000114723
0.000119824
0.000122011
0.000124646
0.000128714
0.000135426
0.000146671
0.000165132
0.00019379
0.000233713
0.000277427
0.000344052
0.000425543
0.000507531
0.000727025
0.000463915
0.000298107
0.00978877
0.0269071
0.00537326
0.000951137
0.000327642
0.000232144
0.000226105
0.000241892
0.000267155
0.000287296
0.000300193
0.00031191
0.000327353
0.000346217
0.000362137
0.000364305
0.000341798
0.000292812
0.000232865
0.000186138
0.000162889
0.00015508
0.000153968
0.00015533
0.000157172
0.000159002
0.000161773
0.000166226
0.000173481
0.00018571
0.000206677
0.000241666
0.000296073
0.000373188
0.00047473
0.000593448
0.000695831
0.000745117
0.000485031
0.000338934
0.0132689
0.0292713
0.0100584
0.00334183
0.00135679
0.00074562
0.000565883
0.000507377
0.000502012
0.000476145
0.000443498
0.000418257
0.000409093
0.000416718
0.000433706
0.000445832
0.000436627
0.000399279
0.000344422
0.000292376
0.000255495
0.000234063
0.000223473
0.000219434
0.000218853
0.000220484
0.000224358
0.00023077
0.00024036
0.000254794
0.000277869
0.000316361
0.000378597
0.000471325
0.000596318
0.00074554
0.000889608
0.000975883
0.000927335
0.000358703
0.0136532
0.0333652
0.0184091
0.0119972
0.0065664
0.00350595
0.00211158
0.00146441
0.00112281
0.000891272
0.000720553
0.000600562
0.0005258
0.000490678
0.000486418
0.000497635
0.000502178
0.000483252
0.000443696
0.000397754
0.000358246
0.000329937
0.000312123
0.000302373
0.000298205
0.000298257
0.000302249
0.000310387
0.000323312
0.000342651
0.000372284
0.000419671
0.000495216
0.000611559
0.000773554
0.000976608
0.00122724
0.00154849
0.00194408
0.00135122
0.0119744
0.018642
0.0364104
0.0273124
0.0164342
0.00955587
0.00569646
0.00356854
0.00232975
0.00158791
0.00113875
0.000862774
0.0006943
0.000597704
0.000552224
0.00054066
0.000543339
0.000541216
0.000525811
0.000500272
0.000472292
0.000447517
0.000428317
0.000414942
0.000406674
0.000402813
0.000403056
0.000407409
0.000416172
0.000430272
0.000452288
0.000484662
0.000533748
0.000609053
0.000719146
0.00086399
0.00104035
0.00130488
0.00335632
0.00174567
0.0964372
0.101794
0.02798
0.012642
0.0069118
0.00418267
0.00272513
0.00188751
0.00138032
0.00106706
0.000872652
0.000755051
0.000689157
0.000658808
0.000651582
0.000655363
0.000659601
0.000658441
0.000651228
0.000640075
0.000627529
0.000615515
0.000605117
0.00059682
0.000590815
0.000587135
0.000585705
0.000586487
0.000590268
0.000596031
0.000604889
0.000617688
0.000630785
0.000645088
0.000668307
0.000760715
0.00140317
0.00154001
0.0688682
0.0570611
0.0217955
0.0106993
0.00616296
0.00395473
0.00276724
0.00208927
0.00168937
0.00145183
0.00131688
0.00124997
0.00122555
0.00122381
0.00123059
0.00123582
0.00123364
0.0012227
0.00120486
0.00118311
0.00116021
0.00113798
0.0011172
0.00109776
0.00107877
0.00105869
0.00103551
0.00100752
0.000971693
0.000928118
0.000881487
0.000841992
0.000813746
0.000799535
0.000803566
0.000848964
0.00183677
0.00124108
0.00176606
0.00506875
0.0265549
0.0199819
0.0124178
0.00782068
0.00516864
0.00359518
0.00261618
0.00198117
0.00156207
0.0012832
0.00109645
0.000973915
0.00090097
0.000865289
0.000855173
0.00086073
0.00087339
0.000886328
0.000895158
0.000898019
0.000894977
0.000887213
0.000876352
0.000864037
0.000851714
0.000840526
0.00083123
0.000824134
0.0008192
0.000813763
0.000802408
0.000777683
0.000747614
0.000710612
0.00066291
0.000603653
0.000627579
0.000468809
)
;

boundaryField
{
    floor
    {
        Cmu             0.09;
        kappa           0.41;
        E               9.8;
        type            epsilonWallFunction;
        value           nonuniform List<scalar> 
29
(
0.000195955
1.75668e-05
2.2859e-05
1.38057e-05
6.75494e-06
4.21909e-06
3.00197e-06
2.41034e-06
2.30526e-06
2.70026e-06
3.75725e-06
5.75246e-06
9.13115e-06
1.45708e-05
2.32992e-05
3.72021e-05
5.52018e-05
6.03428e-05
4.78885e-05
2.70277e-05
2.70277e-05
3.47277e-05
0.000163443
0.00042485
0.000195955
1.75668e-05
3.09407e-05
9.83145e-05
0.000308345
)
;
    }
    ceiling
    {
        Cmu             0.09;
        kappa           0.41;
        E               9.8;
        type            epsilonWallFunction;
        value           nonuniform List<scalar> 
43
(
0.00176606
0.00506875
0.0265549
0.0199819
0.0124178
0.00782068
0.00516864
0.00359518
0.00261618
0.00198117
0.00156207
0.0012832
0.00109645
0.000973915
0.00090097
0.000865289
0.000855173
0.00086073
0.00087339
0.000886328
0.000895158
0.000898019
0.000894977
0.000887213
0.000876352
0.000864037
0.000851714
0.000840526
0.00083123
0.000824134
0.0008192
0.000813763
0.000802408
0.000777683
0.000747614
0.000710612
0.00066291
0.000603653
0.000627579
0.000468809
0.0119744
0.018642
0.0688682
)
;
    }
    sWall
    {
        Cmu             0.09;
        kappa           0.41;
        E               9.8;
        type            epsilonWallFunction;
        value           uniform 0.00176606;
    }
    nWall
    {
        Cmu             0.09;
        kappa           0.41;
        E               9.8;
        type            epsilonWallFunction;
        value           nonuniform List<scalar> 6(0.000298107 0.000338934 0.000358703 0.00154001 0.00124108 0.000468809);
    }
    sideWalls
    {
        type            empty;
    }
    glass1
    {
        Cmu             0.09;
        kappa           0.41;
        E               9.8;
        type            epsilonWallFunction;
        value           nonuniform List<scalar> 9(0.000137698 0.000783671 0.00204636 0.00400508 0.00659593 0.00978877 0.0132689 0.0136532 0.0119744);
    }
    glass2
    {
        Cmu             0.09;
        kappa           0.41;
        E               9.8;
        type            epsilonWallFunction;
        value           nonuniform List<scalar> 2(0.00135122 0.00174567);
    }
    sun
    {
        Cmu             0.09;
        kappa           0.41;
        E               9.8;
        type            epsilonWallFunction;
        value           nonuniform List<scalar> 
14
(
0.000137698
0.000147025
8.96959e-05
9.60987e-05
0.000107104
0.000119306
0.000132462
0.000146796
0.000162994
0.000179711
0.000194665
0.000206082
0.000211956
0.000210055
)
;
    }
    heatsource1
    {
        Cmu             0.09;
        kappa           0.41;
        E               9.8;
        type            epsilonWallFunction;
        value           nonuniform List<scalar> 3(0.000727025 0.000463915 0.000298107);
    }
    heatsource2
    {
        Cmu             0.09;
        kappa           0.41;
        E               9.8;
        type            epsilonWallFunction;
        value           nonuniform List<scalar> 4(0.000243932 7.99382e-05 7.99382e-05 0.000269002);
    }
    Table_master
    {
        Cmu             0.09;
        kappa           0.41;
        E               9.8;
        type            epsilonWallFunction;
        value           nonuniform List<scalar> 9(2.93974e-06 2.70939e-06 3.66427e-06 6.27197e-06 1.20349e-05 2.31029e-05 4.2675e-05 7.73312e-05 0.000142628);
    }
    Table_slave
    {
        Cmu             0.09;
        kappa           0.41;
        E               9.8;
        type            epsilonWallFunction;
        value           nonuniform List<scalar> 9(0.000173307 0.000173918 0.000173992 0.000173672 0.000174406 0.000178727 0.000191205 0.000220997 0.000290353);
    }
    inlet
    {
        type            turbulentMixingLengthDissipationRateInlet;
        mixingLength    0.01;
        phi             phi;
        k               k;
        value           uniform 0.0964372;
    }
    outlet
    {
        type            zeroGradient;
    }
}


// ************************************************************************* //
