/*--------------------------------*- C++ -*----------------------------------*\
  =========                 |
  \\      /  F ield         | OpenFOAM: The Open Source CFD Toolbox
   \\    /   O peration     | Website:  https://openfoam.org
    \\  /    A nd           | Version:  6
     \\/     M anipulation  |
\*---------------------------------------------------------------------------*/
FoamFile
{
    version     2.0;
    format      ascii;
    class       volScalarField;
    location    "100";
    object      nut;
}
// * * * * * * * * * * * * * * * * * * * * * * * * * * * * * * * * * * * * * //

dimensions      [0 2 -1 0 0 0 0];

internalField   nonuniform List<scalar> 
459
(
0.000730034
0.000746156
0.000632825
0.00064754
0.000671375
0.000695964
0.000720661
0.000745775
0.000772255
0.000797807
0.000819354
0.000835073
0.000842938
0.000840416
0.000821183
0.000367314
0.000400958
0.00033884
0.000266996
0.000228241
0.000203793
0.000189467
0.00018674
0.000196905
0.000219846
0.000253367
0.000295516
0.000345276
0.000403709
0.000471819
0.000538116
0.00055433
0.000513193
0.000424141
0.00130342
0.0025521
0.00168996
0.00246198
0.00272674
0.00292379
0.00312695
0.00332084
0.00347862
0.00359789
0.00366035
0.00362556
0.00342503
0.00294371
0.00204551
0.000883374
0.000609001
0.000443671
0.00135166
0.00097649
0.000673386
0.000449579
0.00033598
0.000312999
0.000307994
0.000316011
0.000351868
0.000436043
0.000578757
0.000775915
0.00100731
0.00126391
0.00175937
0.00161023
0.00120153
0.000461182
0.00179489
0.00436477
0.00190297
0.00318944
0.00409375
0.00440338
0.00462789
0.00482137
0.00497265
0.0050804
0.00512372
0.0050553
0.00479756
0.00423874
0.00328279
0.00203653
0.000912667
0.0006523
0.00162544
0.0012166
0.00083865
0.00057353
0.000378677
0.000202491
0.000197163
0.000218173
0.000261065
0.000324375
0.000402996
0.000494273
0.000602401
0.0007386
0.00217999
0.00200353
0.00144835
0.000773165
0.00224517
0.006491
0.00254284
0.00307597
0.00462262
0.00511801
0.00537345
0.00558603
0.0057706
0.00592764
0.00606315
0.00613318
0.00605544
0.00570143
0.00490916
0.00358576
0.00199281
0.000955159
0.00201106
0.00227953
0.0019669
0.0016409
0.00135036
0.00107072
0.000788102
0.000788987
0.000789064
0.000788552
0.000789647
0.000796126
0.00081428
0.000854619
0.000936081
0.00284416
0.0029138
0.00250616
0.0010628
0.00265138
0.0086522
0.00381381
0.00295136
0.00445309
0.00516525
0.00549884
0.00575622
0.00599178
0.00623172
0.00653407
0.00687082
0.007184
0.00739406
0.00741045
0.00716004
0.00663523
0.00591349
0.00527037
0.00496191
0.00480968
0.00476633
0.00474325
0.00461179
0.00444872
0.00433254
0.00419205
0.00402457
0.00384144
0.00366885
0.00354451
0.00350053
0.00354144
0.00365698
0.00357711
0.00340345
0.00296764
0.00127117
0.00109437
0.000944365
0.00302428
0.0105179
0.00596487
0.00366262
0.00388517
0.00453081
0.00500905
0.00535302
0.0055983
0.00589015
0.00631429
0.00685561
0.0074635
0.0080584
0.00854548
0.00883091
0.00883987
0.0085597
0.00809639
0.00762379
0.00732534
0.00716544
0.00704304
0.00690113
0.00673328
0.00653037
0.0062785
0.00596899
0.00560053
0.00519176
0.00479068
0.00445804
0.0042196
0.004042
0.00386881
0.00365184
0.0033051
0.00281373
0.00201534
0.000985669
0.00334701
0.011728
0.00883067
0.00588173
0.00434479
0.00408833
0.00443035
0.00481997
0.00500266
0.00523977
0.00561259
0.00616296
0.00688323
0.00769766
0.00848382
0.00911178
0.00947344
0.00952139
0.00932188
0.00901995
0.0087463
0.00853764
0.00837448
0.00823027
0.00808271
0.00791419
0.00771022
0.00745172
0.00711328
0.00667345
0.0061391
0.00556851
0.00504405
0.00460741
0.00423284
0.00385641
0.00339895
0.00284501
0.00220303
0.00100446
0.00337901
0.0109447
0.00950565
0.00832629
0.00663429
0.00546545
0.00500655
0.00494737
0.00491644
0.00492503
0.00504224
0.00532742
0.00583466
0.00657199
0.00745155
0.00830616
0.00896998
0.00932007
0.00939382
0.0092968
0.00913874
0.0089843
0.00885442
0.00874891
0.00865977
0.00857911
0.00849977
0.00840827
0.00827848
0.00807051
0.00774085
0.00727062
0.00666959
0.0059979
0.00533951
0.00473956
0.00412478
0.00356122
0.00313272
0.00156286
0.0032344
0.00374863
0.00727573
0.00787751
0.00722059
0.00637239
0.00569845
0.00524593
0.00494255
0.00476996
0.00472239
0.00480079
0.00503142
0.00545536
0.00608408
0.00684222
0.00757472
0.00813171
0.00846053
0.0085957
0.00860937
0.00856559
0.00850518
0.00845015
0.00841128
0.00839529
0.0084075
0.00844875
0.00850993
0.00856577
0.00856921
0.00847155
0.00827152
0.00801602
0.00779007
0.00748761
0.0069934
0.00608283
0.00596739
0.00170224
0.0152756
0.0149868
0.00921994
0.00735347
0.00636397
0.00572724
0.00529731
0.00501125
0.00483643
0.00476414
0.00479515
0.00493832
0.00520389
0.00558864
0.0060541
0.00652421
0.00692203
0.00720652
0.00737947
0.00746688
0.00749989
0.00750557
0.00750468
0.00751327
0.00754478
0.00760998
0.00771427
0.00785148
0.00798871
0.00810087
0.00815561
0.00812223
0.00795097
0.00754977
0.00690508
0.00600225
0.00506711
0.00163264
0.00579525
0.0125283
0.00910311
0.0072981
0.00625239
0.0055807
0.00514186
0.00486847
0.00471706
0.00466496
0.00470426
0.0048246
0.00500101
0.00521202
0.0054424
0.00567399
0.00588621
0.00606257
0.00619601
0.00628873
0.00634862
0.00638541
0.00640817
0.00642433
0.00643947
0.00645727
0.00647931
0.00650542
0.00653606
0.00656346
0.00657353
0.00654371
0.00637097
0.00604349
0.00554816
0.00484351
0.00453862
0.00151939
0.0017088
0.00242837
0.00421798
0.00383649
0.00327391
0.00280628
0.0024444
0.0021658
0.00194805
0.00177563
0.0016404
0.00153632
0.00145787
0.00140143
0.00136555
0.0013473
0.00134204
0.00134495
0.00135151
0.00135815
0.00136264
0.00136409
0.00136254
0.00135858
0.00135302
0.00134665
0.00134021
0.00133431
0.00132937
0.00132556
0.00132289
0.00131994
0.00131375
0.0013001
0.00128312
0.00126159
0.0012327
0.00119482
0.00121043
0.00109829
)
;

boundaryField
{
    floor
    {
        type            nutkWallFunction;
        Cmu             0.09;
        kappa           0.41;
        E               9.8;
        value           nonuniform List<scalar> 
29
(
9.94491e-05
4.24486e-05
4.69021e-05
3.86565e-05
2.88566e-05
2.34259e-05
1.99338e-05
1.78574e-05
1.74534e-05
1.89209e-05
2.22063e-05
2.69292e-05
3.27529e-05
3.94905e-05
4.72435e-05
5.61022e-05
6.45726e-05
6.66232e-05
6.14082e-05
4.9923e-05
4.9923e-05
5.47243e-05
9.36308e-05
0.000128101
9.94491e-05
4.24485e-05
5.24677e-05
7.88652e-05
0.000115435
)
;
    }
    ceiling
    {
        type            nutkWallFunction;
        Cmu             0.09;
        kappa           0.41;
        E               9.8;
        value           nonuniform List<scalar> 
43
(
0.000201616
0.000279914
0.000465351
0.000426588
0.000368736
0.00031989
0.00028152
0.000251578
0.000227894
0.000208939
0.000193932
0.000182292
0.00017346
0.000167072
0.000162996
0.000160917
0.000160316
0.000160646
0.000161392
0.000162146
0.000162656
0.00016282
0.000162644
0.000162193
0.000161559
0.000160833
0.0001601
0.000159427
0.000158863
0.000158429
0.000158125
0.000157789
0.000157084
0.000155525
0.000153583
0.000151115
0.000147798
0.000143435
0.000145231
0.000132243
0.000364596
0.000417515
0.000622119
)
;
    }
    sWall
    {
        type            nutkWallFunction;
        Cmu             0.09;
        kappa           0.41;
        E               9.8;
        value           uniform 0.00020166;
    }
    nWall
    {
        type            nutkWallFunction;
        Cmu             0.09;
        kappa           0.41;
        E               9.8;
        value           nonuniform List<scalar> 6(0.000114172 0.000119053 0.000121268 0.000193041 0.000180365 0.00013225);
    }
    sideWalls
    {
        type            empty;
    }
    glass1
    {
        type            nutkWallFunction;
        Cmu             0.09;
        kappa           0.41;
        E               9.8;
        value           nonuniform List<scalar> 9(8.83765e-05 0.000156054 0.00021128 0.000260416 0.000303838 0.000343088 0.000376653 0.000379974 0.00036501);
    }
    glass2
    {
        type            nutkWallFunction;
        Cmu             0.09;
        kappa           0.41;
        E               9.8;
        value           nonuniform List<scalar> 2(0.0001853 0.000200835);
    }
    sun
    {
        type            nutkWallFunction;
        Cmu             0.09;
        kappa           0.41;
        E               9.8;
        value           nonuniform List<scalar> 
14
(
8.84002e-05
9.03673e-05
7.64323e-05
7.82574e-05
8.12031e-05
8.4229e-05
8.72554e-05
9.03202e-05
9.35387e-05
9.66317e-05
9.92309e-05
0.000101122
0.000102066
0.000101763
)
;
    }
    heatsource1
    {
        type            nutkWallFunction;
        Cmu             0.09;
        kappa           0.41;
        E               9.8;
        value           nonuniform List<scalar> 3(0.000152212 0.00013179 0.000114169);
    }
    heatsource2
    {
        type            nutkWallFunction;
        Cmu             0.09;
        kappa           0.41;
        E               9.8;
        value           nonuniform List<scalar> 4(0.000106905 7.34676e-05 7.34676e-05 0.000110394);
    }
    Table_master
    {
        type            nutkWallFunction;
        Cmu             0.09;
        kappa           0.41;
        E               9.8;
        value           nonuniform List<scalar> 9(1.97514e-05 1.89724e-05 2.1968e-05 2.79844e-05 3.66465e-05 4.71148e-05 5.8954e-05 7.26356e-05 8.94509e-05);
    }
    Table_slave
    {
        type            nutkWallFunction;
        Cmu             0.09;
        kappa           0.41;
        E               9.8;
        value           nonuniform List<scalar> 9(9.54685e-05 9.55792e-05 9.55917e-05 9.55323e-05 9.56661e-05 9.64486e-05 9.86365e-05 0.000103479 0.000113187);
    }
    inlet
    {
        type            calculated;
        value           uniform 0.0152756;
    }
    outlet
    {
        type            calculated;
        value           nonuniform List<scalar> 2(0.0017088 0.00242837);
    }
}


// ************************************************************************* //
