/*--------------------------------*- C++ -*----------------------------------*\
  =========                 |
  \\      /  F ield         | OpenFOAM: The Open Source CFD Toolbox
   \\    /   O peration     | Website:  https://openfoam.org
    \\  /    A nd           | Version:  6
     \\/     M anipulation  |
\*---------------------------------------------------------------------------*/
FoamFile
{
    version     2.0;
    format      ascii;
    class       surfaceScalarField;
    location    "100";
    object      phi;
}
// * * * * * * * * * * * * * * * * * * * * * * * * * * * * * * * * * * * * * //

dimensions      [1 0 -1 0 0 0 0];

internalField   nonuniform List<scalar> 
852
(
-0.00225506
0.00231312
-0.00230341
4.85049e-05
-0.00233268
2.94252e-05
-0.00244279
0.000110264
-0.00257229
0.000129651
-0.00268623
0.000114093
-0.00276376
7.7685e-05
-0.00278847
2.4857e-05
-0.00274474
-4.35823e-05
-0.00261585
-0.000128745
-0.00238625
-0.00022946
-0.00204287
-0.000343251
-0.00156483
-0.000477904
-0.000897041
-0.000667666
-0.000895721
-0.000537423
0.000540191
-0.000529709
-7.7029e-06
-0.000450404
-7.92966e-05
-0.00043943
-1.09656e-05
-0.000468402
2.89841e-05
-0.000510236
4.18501e-05
-0.0005418
3.15841e-05
-0.000553318
1.15395e-05
-0.000543353
-9.94231e-06
-0.000512079
-3.12472e-05
-0.000470549
-4.14919e-05
-0.000437866
-3.26293e-05
-0.00042827
-9.52903e-06
-0.000419843
-8.34554e-06
-0.00033308
-8.66693e-05
-0.000111461
-0.000221508
0.000231022
-0.000342354
0.000454506
-0.000223368
0.000457018
-0.00161737
0.00407793
-0.00204892
0.000480207
-0.00225461
0.000235266
-0.0024128
0.000268608
-0.00255702
0.000274029
-0.00267779
0.000235017
-0.00276312
0.000163158
-0.00280143
6.33121e-05
-0.00278177
-6.31035e-05
-0.00269379
-0.00021658
-0.00252571
-0.000397408
-0.0022644
-0.000604432
-0.00190144
-0.000840745
-0.00146717
-0.00110182
-0.00103847
-0.00132432
0.000205866
-0.00124429
0.000205932
0.000126414
0.00042109
-0.000230593
0.000349311
-0.00051668
0.000206793
-0.000627709
0.000100064
-0.000643741
4.50192e-05
-0.000657898
5.60132e-05
-0.000655401
2.90936e-05
-0.00063755
-6.30064e-06
-0.00061967
-2.7799e-05
-0.000604789
-4.60821e-05
-0.000596197
-5.00046e-05
-0.000594683
-3.40332e-05
-0.00060145
-2.63239e-06
-0.000618299
8.64745e-06
-0.000603801
-0.00010101
-0.000483339
-0.000341786
-0.000407293
-0.000418195
-0.000334887
-0.000295587
0.000129115
-0.00118448
0.00547922
-0.00176416
0.00106005
-0.00206296
0.000534222
-0.0022606
0.0004664
-0.002418
0.000431577
-0.00254444
0.00036161
-0.00263842
0.000257288
-0.00269505
0.000120086
-0.00270898
-4.90396e-05
-0.00267682
-0.000248603
-0.00259735
-0.00047674
-0.00247123
-0.000730432
-0.00230628
-0.00100557
-0.00212575
-0.00128224
-0.00195232
-0.00149765
-0.00164635
-0.00155016
-0.00144033
-0.000782578
0.00121279
-0.00098451
0.000551274
-0.00105525
0.000277574
-0.00104564
9.05067e-05
-0.00096405
-3.64998e-05
-0.000747207
-0.000160764
-0.00071795
-0.000724075
-0.000751669
-0.000797499
-0.000847195
-0.000880869
-0.000883118
-0.000874077
-0.000974673
-0.00075958
-0.000556575
-0.000775884
-0.000401532
-0.000726206
-0.000344851
-0.00059005
-0.000872407
0.00662511
-0.00150355
0.00169135
-0.00182335
0.000854182
-0.00204004
0.000683245
-0.00219581
0.000587497
-0.00231044
0.000476391
-0.00239364
0.000340638
-0.00244924
0.000175829
-0.00247828
-1.98507e-05
-0.0024855
-0.000241251
-0.00248374
-0.000478363
-0.00248959
-0.00072445
-0.00252564
-0.000969387
-0.00262029
-0.00118747
-0.00278698
-0.00133084
-0.00300705
-0.00132999
-0.00345014
-0.00099716
-0.00309349
-0.000349557
-0.00224499
0.000364347
-0.00213686
0.000443223
-0.00214735
0.000288164
-0.00218533
0.000128624
-0.00220631
-1.53736e-05
-0.00225032
-0.000116599
-0.00211958
-0.000130718
-0.00197054
-0.000149014
-0.00180168
-0.000168823
-0.00162161
-0.000180016
-0.00143883
-0.000182713
-0.00126017
-0.000178574
-0.00108574
-0.000174318
-0.00089575
-0.000189849
-0.000620694
-0.000274888
-0.000683903
-0.000493021
-0.00048737
-0.000597687
-0.000136855
-0.000694962
-0.000720747
-0.000645034
0.00759222
-0.00129549
0.00234196
-0.00155366
0.00111252
-0.00175464
0.000884384
-0.00189342
0.000726431
-0.00197327
0.000556395
-0.00201265
0.000380166
-0.00202726
0.000190593
-0.00202654
-2.04243e-05
-0.00202308
-0.000244576
-0.00203817
-0.000463129
-0.00209176
-0.000670715
-0.00219909
-0.000861927
-0.00236648
-0.00101995
-0.00258649
-0.00111071
-0.00284228
-0.00107409
-0.00301901
-0.000820321
-0.00297478
-0.000393694
-0.00262182
1.14904e-05
-0.00233414
0.000155652
-0.00217532
0.000129473
-0.00209063
4.40867e-05
-0.0020482
-5.7644e-05
-0.00202526
-0.000139367
-0.00196845
-0.000187334
-0.00189452
-0.00022275
-0.00181291
-0.000250214
-0.00172608
-0.000266621
-0.00163766
-0.000270886
-0.0015496
-0.000266373
-0.00145771
-0.000265925
-0.00134869
-0.000298573
-0.00121733
-0.000405945
-0.00110909
-0.000600935
-0.000864076
-0.000842381
-0.000403053
-0.00115566
0.000342987
-0.00146647
0.00163913
-0.00129603
0.00175131
-0.00011204
0.00178414
-0.000614861
0.00857202
-0.00121613
0.00294339
-0.00120497
0.00110153
-0.00130659
0.000986168
-0.00145019
0.000870197
-0.00150013
0.000606487
-0.00147584
0.000356042
-0.00141779
0.000132694
-0.0013532
-8.48661e-05
-0.0013066
-0.000291027
-0.00130246
-0.000467122
-0.0013576
-0.000615429
-0.00147764
-0.000741744
-0.00165635
-0.000841089
-0.00187596
-0.000890974
-0.00209979
-0.000850124
-0.00224063
-0.000679353
-0.00222655
-0.000407652
-0.00206037
-0.000154567
-0.00187778
-2.68154e-05
-0.00173998
-8.18088e-06
-0.0016526
-4.31367e-05
-0.00160995
-0.000100136
-0.00159328
-0.000155858
-0.00158099
-0.000199439
-0.00156975
-0.00023379
-0.00156157
-0.000258181
-0.00155847
-0.000269499
-0.00156301
-0.00026611
-0.00157707
-0.000252063
-0.00159985
-0.00024288
-0.00162817
-0.000269985
-0.00166083
-0.000373016
-0.00168437
-0.000577127
-0.00163168
-0.0008948
-0.0014368
-0.00135029
-0.000994299
-0.00190871
-2.12618e-05
-0.0022688
0.000785942
-0.000918926
0.00260911
-0.000834647
0.00981137
-0.000896214
0.00300512
-0.000352817
0.00055831
-0.000311492
0.000945022
-0.000565044
0.00112392
-0.000670767
0.00071238
-0.000622961
0.000308403
-0.00051161
2.15066e-05
-0.000401635
-0.000194681
-0.000331819
-0.000360685
-0.000320351
-0.000478435
-0.00037781
-0.000557815
-0.000503484
-0.000615917
-0.000685038
-0.000659386
-0.000898126
-0.00067774
-0.00110235
-0.000645757
-0.00124131
-0.000540259
-0.0012714
-0.000377425
-0.0012059
-0.000219928
-0.00110984
-0.000122734
-0.00103
-8.7883e-05
-0.000980021
-9.29608e-05
-0.000960527
-0.000119469
-0.000963891
-0.000152325
-0.000980864
-0.000182286
-0.00100806
-0.000206407
-0.00104533
-0.000220711
-0.00109455
-0.000220059
-0.00116015
-0.000200289
-0.00124971
-0.000162274
-0.00137426
-0.00011809
-0.00154676
-9.72509e-05
-0.00177605
-0.000143493
-0.00205514
-0.000297798
-0.00235649
-0.000593225
-0.00265046
-0.00105609
-0.00288046
-0.00167847
-0.00285821
-0.0022908
-0.00160157
-0.00217529
0.00105296
0.00164419
0.00862177
0.00231921
0.00233026
0.00237629
0.000501399
0.00187194
0.00144955
0.00138101
0.00161504
0.00112606
0.000967511
0.00101329
0.000421351
0.000971773
6.32003e-05
0.000962671
-0.000185408
0.000945137
-0.000342984
0.000890839
-0.000423972
0.000792254
-0.000459067
0.000647468
-0.00047097
0.000461132
-0.000472889
0.0002493
-0.000465751
4.32603e-05
-0.000439564
-0.000114483
-0.000382365
-0.000194304
-0.000297457
-0.000204724
-0.000209362
-0.000181603
-0.000145709
-0.000155969
-0.000113368
-0.000143031
-0.000105744
-0.000148092
-0.000114249
-0.000169853
-0.000130399
-0.000204395
-0.000147572
-0.000249127
-0.000161495
-0.000302206
-0.000167443
-0.0003624
-0.000159667
-0.000430121
-0.00013236
-0.000509835
-8.23458e-05
-0.000614576
-1.31308e-05
-0.000779465
6.78557e-05
-0.00106217
0.00013943
-0.00151146
0.0001517
-0.00213739
3.29118e-05
-0.00295479
-0.000238484
-0.00407337
-0.000559698
-0.00550031
-0.000863673
-0.00565286
-0.00202255
-0.00442792
0.00911977
0.0114385
0.00914962
0.00279042
0.00629855
0.00430079
0.00496358
0.0029502
0.00415773
0.00177354
0.00359454
0.000984711
0.00317116
0.000486759
0.00282172
0.000164209
0.00252645
-4.75377e-05
0.00228033
-0.000177679
0.00206679
-0.00024535
0.00186687
-0.000270873
0.00166708
-0.000272934
0.00146379
-0.000262293
0.00126755
-0.000243161
0.00110026
-0.000214912
0.000980236
-0.000177271
0.000907968
-0.000136937
0.000867117
-0.000104701
0.000839621
-8.57147e-05
0.000813285
-7.92488e-05
0.000781409
-8.22111e-05
0.000741716
-9.05411e-05
0.000694593
-0.00010028
0.000641314
-0.000108041
0.000584215
-0.000110163
0.000527074
-0.00010234
0.000474966
-8.006e-05
0.000433008
-4.019e-05
0.000404143
1.59346e-05
0.000388427
8.3776e-05
0.000385643
0.000142421
0.000390312
0.000147237
0.000375323
4.81048e-05
0.000324792
-0.000187756
0.00028402
-0.000518735
0.000347749
-0.00092722
0.000195023
-0.00186965
-0.00404543
-0.000844485
0.00276136
0.00130851
0.00214801
0.0026964
0.0015625
0.0032347
0.00123542
0.00340304
0.000816561
0.00343222
0.000457761
0.00338494
0.000211674
0.00328508
5.2506e-05
0.00315681
-4.92204e-05
0.00301531
-0.000103676
0.00286896
-0.000124335
0.00272129
-0.000125083
0.00257164
-0.000112467
0.00242152
-9.28659e-05
0.00227825
-7.14636e-05
0.00215158
-5.04365e-05
0.00204718
-3.2362e-05
0.00196319
-2.05417e-05
0.00189387
-1.62301e-05
0.00183318
-1.83974e-05
0.00177617
-2.50285e-05
0.00171956
-3.377e-05
0.00166179
-4.23327e-05
0.00160259
-4.86749e-05
0.00154333
-5.07192e-05
0.00148735
-4.61811e-05
0.00144025
-3.27854e-05
0.00140906
-8.80908e-06
0.00140049
2.46952e-05
0.00142215
6.23019e-05
0.00147865
8.61213e-05
0.00156517
6.09059e-05
0.00165269
-3.92142e-05
0.00171082
-0.000245703
0.00174669
-0.000554415
0.00179676
-0.000977112
0.00161947
-0.00169218
-0.00238514
-0.000398146
0.00314428
0.00146587
0.000284226
0.00237677
0.000651819
0.00298947
0.000622934
0.00341595
0.000390278
0.00366368
0.000210237
0.00377897
9.65904e-05
0.00380672
2.49518e-05
0.00376938
-1.16849e-05
0.00368836
-2.24606e-05
0.00358254
-1.83208e-05
0.00346267
-5.0255e-06
0.00333766
1.27372e-05
0.00321512
2.98551e-05
0.0031006
4.32474e-05
0.00299858
5.17573e-05
0.00291151
5.4895e-05
0.00283829
5.28508e-05
0.00277552
4.67161e-05
0.00271917
3.81267e-05
0.00266565
2.86582e-05
0.00261247
1.9585e-05
0.00255844
1.18703e-05
0.00250371
6.23057e-06
0.0024499
3.26259e-06
0.00240037
3.51618e-06
0.0023603
7.46055e-06
0.00233642
1.5245e-05
0.00233335
2.79365e-05
0.00235622
3.9615e-05
0.00240424
3.82915e-05
0.00245978
5.54476e-06
0.00248821
-6.74601e-05
0.00243084
-0.000188149
0.00224393
-0.000367332
0.00185951
-0.000592518
0.00108142
-0.000913933
-0.00125637
0.00414525
-0.00145627
0.00166567
0.0019279
0.00255669
0.00315496
0.00351861
0.0037002
0.00376618
0.00375869
0.00371296
0.00365518
0.00360059
0.00355872
0.00353443
0.00352748
0.00353443
0.00355058
0.00357064
0.00358943
0.00360282
0.0036083
0.00360494
0.00359309
0.00357408
0.00354998
0.00352347
0.00349779
0.00347668
0.00346399
0.00346469
0.00347775
0.00349013
0.00347021
0.00337765
0.00316465
0.00277254
0.00215514
0.00121708
)
;

boundaryField
{
    floor
    {
        type            calculated;
        value           nonuniform List<scalar> 
29
(
0
0
0
0
0
0
0
0
0
0
0
0
0
0
0
0
0
0
0
0
-2.42809e-06
-6.87451e-06
-6.57845e-06
-5.72841e-06
-1.19823e-06
-2.75436e-06
-7.2972e-06
-9.10998e-06
-7.02647e-06
)
;
    }
    ceiling
    {
        type            calculated;
        value           nonuniform List<scalar> 
43
(
5.86081e-05
4.10982e-05
2.25937e-05
2.22661e-05
2.328e-05
2.49109e-05
2.68682e-05
2.88858e-05
3.08418e-05
3.26678e-05
3.42591e-05
3.5538e-05
3.64783e-05
3.70552e-05
3.72233e-05
3.70065e-05
3.64967e-05
3.58024e-05
3.50264e-05
3.42468e-05
3.35089e-05
3.28291e-05
3.2204e-05
3.16206e-05
3.10617e-05
3.051e-05
2.99498e-05
2.93675e-05
2.87535e-05
2.81034e-05
2.74156e-05
2.67221e-05
2.60936e-05
2.5633e-05
2.52677e-05
2.50217e-05
2.49404e-05
2.50404e-05
2.42727e-05
2.6053e-05
1.44773e-05
1.17005e-05
1.54856e-05
)
;
    }
    sWall
    {
        type            calculated;
        value           uniform -0.000134979;
    }
    nWall
    {
        type            calculated;
        value           nonuniform List<scalar> 6(-3.26392e-05 -3.86371e-05 -4.50415e-05 -4.06724e-05 -4.71977e-05 -6.51972e-05);
    }
    sideWalls
    {
        type            empty;
        value           nonuniform 0();
    }
    glass1
    {
        type            calculated;
        value           nonuniform List<scalar> 9(-5.79231e-05 -0.000147288 -0.000216667 -0.000273353 -0.000321936 -0.000364804 -0.000404564 -0.000454465 -0.000512347);
    }
    glass2
    {
        type            calculated;
        value           nonuniform List<scalar> 2(-0.000171799 -0.000187312);
    }
    sun
    {
        type            calculated;
        value           uniform 0;
    }
    heatsource1
    {
        type            calculated;
        value           nonuniform List<scalar> 3(2.02454e-07 2.02561e-07 2.02686e-07);
    }
    heatsource2
    {
        type            calculated;
        value           nonuniform List<scalar> 4(5.08251e-08 5.09997e-08 0 0);
    }
    Table_master
    {
        type            calculated;
        value           nonuniform List<scalar> 9(-1.53225e-07 -1.53238e-07 -1.53219e-07 -1.53179e-07 -1.53118e-07 -1.53041e-07 -1.52955e-07 -1.52856e-07 -1.52692e-07);
    }
    Table_slave
    {
        type            calculated;
        value           nonuniform List<scalar> 9(1.521e-07 1.52148e-07 1.52195e-07 1.52248e-07 1.52302e-07 1.52352e-07 1.52394e-07 1.52423e-07 1.52411e-07);
    }
    inlet
    {
        type            calculated;
        value           uniform 0.000873818;
    }
    outlet
    {
        type            calculated;
        value           nonuniform List<scalar> 2(-0.00406858 0.00556073);
    }
}


// ************************************************************************* //
