/*--------------------------------*- C++ -*----------------------------------*\
  =========                 |
  \\      /  F ield         | OpenFOAM: The Open Source CFD Toolbox
   \\    /   O peration     | Website:  https://openfoam.org
    \\  /    A nd           | Version:  6
     \\/     M anipulation  |
\*---------------------------------------------------------------------------*/
FoamFile
{
    version     2.0;
    format      ascii;
    class       volScalarField;
    location    "100";
    object      T;
}
// * * * * * * * * * * * * * * * * * * * * * * * * * * * * * * * * * * * * * //

dimensions      [0 0 0 1 0 0 0];

internalField   nonuniform List<scalar> 
459
(
304.235
303.938
303.936
303.949
303.961
303.971
303.979
303.987
303.993
303.997
303.997
303.993
303.985
303.973
303.959
303.547
303.531
303.522
303.516
303.51
303.508
303.509
303.512
303.516
303.522
303.532
303.549
303.573
303.604
303.638
303.668
303.665
303.629
303.605
304.463
304.037
304.009
304.024
304.042
304.058
304.072
304.083
304.091
304.095
304.091
304.079
304.058
304.025
303.98
303.932
303.828
303.555
303.541
303.518
303.498
303.485
303.475
303.469
303.469
303.473
303.483
303.503
303.538
303.585
303.642
303.702
303.751
303.738
303.688
303.61
304.669
304.137
304.079
304.096
304.122
304.147
304.168
304.186
304.198
304.204
304.199
304.181
304.148
304.097
304.029
303.952
303.885
303.599
303.595
303.588
303.578
303.565
303.542
303.453
303.451
303.459
303.478
303.514
303.569
303.64
303.722
303.812
303.899
303.891
303.883
303.895
304.857
304.244
304.155
304.169
304.204
304.239
304.271
304.299
304.32
304.333
304.331
304.312
304.272
304.21
304.125
304.02
303.903
303.807
303.751
303.796
303.843
303.883
303.911
303.927
303.94
303.942
303.946
303.952
303.96
303.972
303.989
304.013
304.044
304.073
304.103
304.134
304.171
305.03
304.359
304.242
304.243
304.285
304.331
304.377
304.42
304.455
304.478
304.485
304.471
304.437
304.381
304.306
304.218
304.127
304.047
303.989
303.991
304.013
304.032
304.045
304.048
304.048
304.048
304.05
304.056
304.068
304.086
304.112
304.146
304.184
304.224
304.266
304.306
304.34
304.349
304.294
304.248
305.181
304.491
304.367
304.342
304.374
304.427
304.485
304.542
304.594
304.631
304.648
304.643
304.617
304.569
304.503
304.425
304.343
304.27
304.215
304.184
304.176
304.175
304.172
304.165
304.157
304.15
304.146
304.146
304.154
304.171
304.199
304.236
304.279
304.324
304.365
304.398
304.418
304.418
304.336
304.247
305.315
304.678
304.587
304.536
304.521
304.554
304.609
304.671
304.736
304.783
304.809
304.814
304.798
304.762
304.708
304.64
304.565
304.493
304.434
304.391
304.361
304.34
304.322
304.305
304.287
304.271
304.256
304.244
304.24
304.245
304.263
304.294
304.335
304.379
304.418
304.449
304.467
304.464
304.418
304.248
305.518
305.04
305.002
304.932
304.849
304.816
304.825
304.857
304.901
304.939
304.964
304.975
304.971
304.95
304.911
304.857
304.79
304.722
304.661
304.608
304.566
304.531
304.5
304.472
304.445
304.418
304.392
304.367
304.347
304.332
304.329
304.34
304.365
304.4
304.441
304.481
304.517
304.549
304.577
304.611
305.795
305.605
305.681
305.561
305.39
305.273
305.208
305.175
305.155
305.144
305.142
305.142
305.138
305.125
305.099
305.06
305.01
304.952
304.894
304.839
304.789
304.744
304.704
304.666
304.63
304.594
304.558
304.523
304.489
304.458
304.434
304.418
304.413
304.419
304.433
304.454
304.479
304.506
304.54
304.641
307.287
305.949
305.637
305.505
305.435
305.395
305.372
305.357
305.344
305.333
305.321
305.305
305.283
305.253
305.214
305.168
305.118
305.066
305.015
304.966
304.919
304.875
304.832
304.789
304.747
304.704
304.661
304.619
304.58
304.545
304.517
304.499
304.493
304.498
304.51
304.527
304.548
304.579
306.97
306.177
305.924
305.776
305.688
305.635
305.6
305.575
305.552
305.53
305.506
305.481
305.454
305.423
305.388
305.349
305.306
305.26
305.213
305.165
305.118
305.071
305.024
304.979
304.933
304.887
304.841
304.796
304.749
304.704
304.663
304.629
304.607
304.593
304.587
304.586
304.588
304.604
307.721
307.479
306.953
306.605
306.311
306.123
306.009
305.932
305.873
305.825
305.781
305.74
305.7
305.661
305.622
305.583
305.543
305.503
305.462
305.421
305.38
305.338
305.295
305.253
305.211
305.168
305.125
305.081
305.037
304.992
304.946
304.9
304.854
304.812
304.774
304.738
304.705
304.674
304.642
304.631
)
;

boundaryField
{
    floor
    {
        type            wallHeatTransfer;
        Tinf            uniform 305.2;
        alphaWall       uniform 0.24;
        value           nonuniform List<scalar> 
29
(
304.119
303.916
303.884
303.916
303.97
304.007
304.036
304.057
304.063
304.052
304.026
303.995
303.969
303.95
303.939
303.935
303.935
303.927
303.912
303.93
303.93
303.917
304.071
304.281
304.119
303.916
303.88
303.843
303.968
)
;
    }
    ceiling
    {
        type            wallHeatTransfer;
        Tinf            uniform 303.2;
        alphaWall       uniform 0.24;
        value           nonuniform List<scalar> 
43
(
307.384
307.239
306.82
306.474
306.174
305.978
305.853
305.764
305.694
305.635
305.583
305.535
305.49
305.447
305.408
305.37
305.333
305.297
305.26
305.223
305.186
305.148
305.109
305.07
305.031
304.992
304.952
304.912
304.871
304.83
304.788
304.745
304.704
304.664
304.627
304.593
304.561
304.529
304.502
304.481
305.68
305.511
306.868
)
;
    }
    sWall
    {
        type            wallHeatTransfer;
        Tinf            uniform 315.2;
        alphaWall       uniform 0.36;
        value           uniform 308.531;
    }
    nWall
    {
        type            wallHeatTransfer;
        Tinf            uniform 307.2;
        alphaWall       uniform 0.36;
        value           nonuniform List<scalar> 6(304.738 304.723 304.716 304.87 304.909 305.014);
    }
    sideWalls
    {
        type            empty;
    }
    glass1
    {
        type            wallHeatTransfer;
        Tinf            uniform 315.2;
        alphaWall       uniform 4.3;
        value           nonuniform List<scalar> 9(312.465 311.423 310.81 310.393 310.105 309.893 309.745 309.838 310.082);
    }
    glass2
    {
        type            wallHeatTransfer;
        Tinf            uniform 307.2;
        alphaWall       uniform 4.3;
        value           nonuniform List<scalar> 2(306.187 306.154);
    }
    sun
    {
        type            wallHeatTransfer;
        Tinf            uniform 305.2;
        alphaWall       uniform 0.24;
        value           nonuniform List<scalar> 
14
(
304.371
304.113
304.133
304.141
304.146
304.15
304.153
304.155
304.156
304.156
304.153
304.148
304.14
304.13
)
;
    }
    heatsource1
    {
        type            fixedGradient;
        gradient        uniform 0;
    }
    heatsource2
    {
        type            fixedGradient;
        gradient        uniform 0;
    }
    Table_master
    {
        type            zeroGradient;
    }
    Table_slave
    {
        type            zeroGradient;
    }
    inlet
    {
        type            fixedValue;
        value           uniform 295.15;
    }
    outlet
    {
        type            zeroGradient;
    }
}


// ************************************************************************* //
