/*--------------------------------*- C++ -*----------------------------------*\
  =========                 |
  \\      /  F ield         | OpenFOAM: The Open Source CFD Toolbox
   \\    /   O peration     | Website:  https://openfoam.org
    \\  /    A nd           | Version:  6
     \\/     M anipulation  |
\*---------------------------------------------------------------------------*/
FoamFile
{
    version     2.0;
    format      ascii;
    class       volVectorField;
    location    "100";
    object      U;
}
// * * * * * * * * * * * * * * * * * * * * * * * * * * * * * * * * * * * * * //

dimensions      [0 1 -1 0 0 0 0];

internalField   nonuniform List<vector> 
459
(
(0.0996903 0.0613052 0)
(-0.12713 -0.00182583 0)
(-0.0988678 -5.74368e-05 0)
(-0.102934 0.00225095 0)
(-0.108489 0.00255033 0)
(-0.113965 0.00188504 0)
(-0.118251 0.000635615 0)
(-0.12059 -0.0010853 0)
(-0.120316 -0.00326766 0)
(-0.116728 -0.0060054 0)
(-0.108886 -0.0093747 0)
(-0.0955107 -0.0135151 0)
(-0.0760041 -0.0189586 0)
(-0.0548625 -0.0265991 0)
(-0.0499648 -0.0350311 0)
(0.0165187 0.0102088 0)
(-0.0279584 -0.00244716 0)
(-0.0225034 -0.00377348 0)
(-0.0189094 -0.00194993 0)
(-0.0191744 -0.00023339 0)
(-0.0208729 0.000860875 0)
(-0.0226769 0.000891708 0)
(-0.0238066 0.000410148 0)
(-0.0238642 -0.000373042 0)
(-0.0227949 -0.00127261 0)
(-0.0210352 -0.00198775 0)
(-0.0196161 -0.0022332 0)
(-0.0192199 -0.00192432 0)
(-0.0187647 -0.00187255 0)
(-0.0161796 -0.00418966 0)
(-0.0103304 -0.0104839 0)
(0.00293783 -0.0172636 0)
(0.0182188 -0.0138383 0)
(-0.0137869 0.00375526 0)
(0.289028 0.134709 0)
(-0.150188 0.00970887 0)
(-0.0912362 0.00499614 0)
(-0.100739 0.00820167 0)
(-0.10751 0.00895412 0)
(-0.113427 0.00788325 0)
(-0.117992 0.00557226 0)
(-0.120769 0.00223928 0)
(-0.121251 -0.00208688 0)
(-0.118967 -0.00745511 0)
(-0.113381 -0.0138648 0)
(-0.103784 -0.0213281 0)
(-0.0898225 -0.0302123 0)
(-0.0725911 -0.0411045 0)
(-0.0549162 -0.0525284 0)
(-0.0378982 -0.0580151 0)
(0.0292619 0.00614687 0)
(0.0861751 0.0215895 0)
(-0.00996467 0.011716 0)
(-0.0224921 0.00494247 0)
(-0.0256 0.00379863 0)
(-0.0274112 0.00372088 0)
(-0.0280693 0.00399447 0)
(-0.0282392 0.00322524 0)
(-0.0279327 0.00238994 0)
(-0.027123 0.0013694 0)
(-0.0263334 0.000363357 0)
(-0.0257047 0.000105288 0)
(-0.0255068 0.00104098 0)
(-0.025961 0.00255428 0)
(-0.0268635 0.00212969 0)
(-0.0269634 -0.00352954 0)
(-0.0234953 -0.0133068 0)
(-0.0147082 -0.0157115 0)
(-0.0132566 -0.0065771 0)
(-0.0803595 0.0194072 0)
(0.443511 0.205249 0)
(-0.190918 0.0324888 0)
(-0.0765917 0.01616 0)
(-0.0932555 0.0156404 0)
(-0.101327 0.0150756 0)
(-0.107531 0.0127139 0)
(-0.112347 0.00881451 0)
(-0.115666 0.00353269 0)
(-0.117238 -0.00306901 0)
(-0.116754 -0.0109803 0)
(-0.114218 -0.0202151 0)
(-0.10955 -0.0306829 0)
(-0.102938 -0.0423015 0)
(-0.0949691 -0.05442 0)
(-0.0866592 -0.0642613 0)
(-0.0809243 -0.0665177 0)
(-0.085977 -0.0587149 0)
(0.029647 0.0438167 0)
(-0.0460744 0.0216022 0)
(-0.045925 0.0126775 0)
(-0.0458265 0.00577201 0)
(-0.0436099 0.00108121 0)
(-0.0395083 -0.00258798 0)
(-0.0282188 -0.00359676 0)
(-0.0307996 -0.00626746 0)
(-0.0317089 -0.00710336 0)
(-0.0334023 -0.0074256 0)
(-0.0353718 -0.00724283 0)
(-0.0369358 -0.00698174 0)
(-0.0382011 -0.0073781 0)
(-0.0400708 -0.00951234 0)
(-0.0413067 -0.0148268 0)
(-0.035075 -0.019678 0)
(-0.027863 -0.0154149 0)
(-0.0323656 -0.0106193 0)
(-0.0896444 -0.00744529 0)
(0.565813 0.263073 0)
(-0.229544 0.0601738 0)
(-0.0589966 0.0300286 0)
(-0.0825452 0.0246437 0)
(-0.0920125 0.0220345 0)
(-0.0977188 0.0182183 0)
(-0.101957 0.0130182 0)
(-0.104963 0.00637761 0)
(-0.106811 -0.00170686 0)
(-0.107357 -0.0110737 0)
(-0.107255 -0.0214791 0)
(-0.107083 -0.032641 0)
(-0.107634 -0.0440934 0)
(-0.109855 -0.0545611 0)
(-0.115232 -0.0610238 0)
(-0.127088 -0.0578008 0)
(-0.146106 -0.0344967 0)
(-0.144646 0.0214197 0)
(-0.0992038 0.0347721 0)
(-0.100223 0.0225039 0)
(-0.0926199 0.0120634 0)
(-0.0938024 0.00380044 0)
(-0.0957518 -0.00260562 0)
(-0.0967393 -0.00714698 0)
(-0.0946947 -0.00719416 0)
(-0.0884129 -0.00721852 0)
(-0.0814399 -0.00795016 0)
(-0.0738721 -0.00845183 0)
(-0.0661077 -0.00871048 0)
(-0.0584406 -0.00878427 0)
(-0.050514 -0.00895242 0)
(-0.041302 -0.0100466 0)
(-0.0318386 -0.0136336 0)
(-0.0298814 -0.0211093 0)
(-0.0239709 -0.0205531 0)
(-0.012979 -0.0218682 0)
(-0.0471987 -0.0258557 0)
(0.659956 0.310317 0)
(-0.260558 0.0902905 0)
(-0.0423905 0.0442483 0)
(-0.0685194 0.0340169 0)
(-0.0796358 0.0283881 0)
(-0.0840913 0.022594 0)
(-0.0864904 0.0160065 0)
(-0.0875981 0.00834208 0)
(-0.0877926 -0.000540605 0)
(-0.087379 -0.0103467 0)
(-0.0873881 -0.020416 0)
(-0.0886756 -0.0304169 0)
(-0.0919982 -0.0399691 0)
(-0.0978835 -0.0482165 0)
(-0.106679 -0.0536228 0)
(-0.118129 -0.0537696 0)
(-0.128613 -0.0441532 0)
(-0.130999 -0.0195845 0)
(-0.120458 0.00634462 0)
(-0.106822 0.0132294 0)
(-0.0966729 0.00961702 0)
(-0.0918113 0.00433321 0)
(-0.0893096 -0.00102094 0)
(-0.0880287 -0.00506191 0)
(-0.0863071 -0.00684275 0)
(-0.0834473 -0.00836187 0)
(-0.0800497 -0.00948229 0)
(-0.0763822 -0.0101476 0)
(-0.0726185 -0.0103431 0)
(-0.0688642 -0.0102037 0)
(-0.0649478 -0.0102133 0)
(-0.0604835 -0.011496 0)
(-0.0556267 -0.0158221 0)
(-0.0506045 -0.0241257 0)
(-0.0426256 -0.0318017 0)
(-0.027338 -0.041433 0)
(-0.0081736 -0.0526209 0)
(0.0352283 -0.06346 0)
(0.0938019 -0.0329442 0)
(-0.0521845 0.0280909 0)
(0.717624 0.352513 0)
(-0.284776 0.117206 0)
(-0.030706 0.0514327 0)
(-0.0470346 0.0432984 0)
(-0.0607201 0.0347768 0)
(-0.0648343 0.0252651 0)
(-0.0648585 0.0164633 0)
(-0.0629605 0.00771432 0)
(-0.0597664 -0.00157699 0)
(-0.0570566 -0.0110465 0)
(-0.0557772 -0.0197504 0)
(-0.0567939 -0.0275762 0)
(-0.0605844 -0.0344918 0)
(-0.0671862 -0.039992 0)
(-0.0762347 -0.042879 0)
(-0.0865497 -0.0412406 0)
(-0.0950338 -0.0329716 0)
(-0.0976913 -0.0187914 0)
(-0.0931421 -0.00487022 0)
(-0.0852319 0.00184745 0)
(-0.0777745 0.00224524 0)
(-0.072834 -0.000197186 0)
(-0.0701501 -0.00361322 0)
(-0.069047 -0.00667167 0)
(-0.0684925 -0.00873489 0)
(-0.0679796 -0.0103416 0)
(-0.0675308 -0.0115388 0)
(-0.0672543 -0.0122111 0)
(-0.0672675 -0.0123207 0)
(-0.0676786 -0.0120667 0)
(-0.0684931 -0.0121191 0)
(-0.0696328 -0.0138142 0)
(-0.0711097 -0.0188411 0)
(-0.0724499 -0.0280505 0)
(-0.0715068 -0.0408463 0)
(-0.0656853 -0.0583033 0)
(-0.0543868 -0.0783983 0)
(-0.0386909 -0.0889912 0)
(0.0437617 -0.0305602 0)
(-0.11346 0.0880252 0)
(0.734306 0.391696 0)
(-0.293371 0.115428 0)
(-0.0121154 0.0250252 0)
(0.000360134 0.048242 0)
(-0.0191634 0.0453461 0)
(-0.0291853 0.0264423 0)
(-0.0290517 0.0126578 0)
(-0.0253428 0.00246273 0)
(-0.0189431 -0.00675621 0)
(-0.0150633 -0.0145456 0)
(-0.0133105 -0.0206114 0)
(-0.014347 -0.0253438 0)
(-0.0184145 -0.0292935 0)
(-0.025262 -0.0324449 0)
(-0.0341592 -0.0340095 0)
(-0.0437017 -0.0325684 0)
(-0.0515814 -0.0268727 0)
(-0.0552938 -0.0178724 0)
(-0.054173 -0.00909748 0)
(-0.0502066 -0.00410777 0)
(-0.0460637 -0.00268147 0)
(-0.043154 -0.00333068 0)
(-0.0416744 -0.00503247 0)
(-0.0413976 -0.00694316 0)
(-0.0418859 -0.00856301 0)
(-0.0428439 -0.00985525 0)
(-0.0442123 -0.0107054 0)
(-0.0460318 -0.0109297 0)
(-0.0484315 -0.0104155 0)
(-0.0516758 -0.00931869 0)
(-0.0561947 -0.0083501 0)
(-0.0625274 -0.0089709 0)
(-0.0712239 -0.0129945 0)
(-0.082284 -0.0216416 0)
(-0.0950899 -0.0355515 0)
(-0.108272 -0.0552022 0)
(-0.118457 -0.0771391 0)
(-0.118822 -0.0857873 0)
(-0.115516 -0.0409331 0)
(-0.181098 0.151991 0)
(0.83055 0.412074 0)
(-0.110692 0.0879886 0)
(0.0682791 -0.0414411 0)
(0.110449 0.0179167 0)
(0.0764945 0.0370713 0)
(0.0503487 0.0196865 0)
(0.0433995 0.0025484 0)
(0.0421533 -0.0081112 0)
(0.0423907 -0.0146665 0)
(0.0419451 -0.0191273 0)
(0.0402396 -0.0218227 0)
(0.0369031 -0.0232625 0)
(0.031609 -0.0241327 0)
(0.0243313 -0.0248238 0)
(0.0154819 -0.0251058 0)
(0.00608447 -0.0241072 0)
(-0.00226874 -0.0208109 0)
(-0.00746795 -0.0155807 0)
(-0.00920427 -0.0102547 0)
(-0.00859718 -0.00664934 0)
(-0.00728508 -0.00500555 0)
(-0.00632833 -0.00476521 0)
(-0.00612471 -0.00538604 0)
(-0.00672168 -0.00636645 0)
(-0.00796487 -0.00734276 0)
(-0.00969111 -0.00812873 0)
(-0.0118078 -0.00851619 0)
(-0.014245 -0.00824649 0)
(-0.0169695 -0.00707617 0)
(-0.0200764 -0.00491958 0)
(-0.0239199 -0.00206916 0)
(-0.0291068 0.000645558 0)
(-0.037979 0.00141204 0)
(-0.0535065 -0.0026851 0)
(-0.0780617 -0.0147266 0)
(-0.109785 -0.0351502 0)
(-0.147656 -0.0623886 0)
(-0.186763 -0.0923518 0)
(-0.246942 -0.117884 0)
(-0.503716 -0.128754 0)
(0.964854 0.390403 0)
(0.45857 0.235707 0)
(0.358097 0.155364 0)
(0.349816 0.146821 0)
(0.253291 0.118154 0)
(0.189936 0.0767593 0)
(0.162374 0.0430631 0)
(0.14611 0.0200163 0)
(0.130069 0.00400675 0)
(0.115427 -0.00654169 0)
(0.103708 -0.0123992 0)
(0.0939848 -0.0149784 0)
(0.0852087 -0.0156558 0)
(0.0766189 -0.0154464 0)
(0.0678232 -0.0148481 0)
(0.0589723 -0.0138741 0)
(0.0508316 -0.0122596 0)
(0.0444802 -0.00989535 0)
(0.0403842 -0.00728793 0)
(0.0381263 -0.00520284 0)
(0.0368278 -0.00394847 0)
(0.0357746 -0.00343973 0)
(0.034568 -0.00347627 0)
(0.0330329 -0.00382135 0)
(0.0311481 -0.00425939 0)
(0.028962 -0.00461959 0)
(0.0265514 -0.0047167 0)
(0.0240452 -0.00432774 0)
(0.0216327 -0.00321409 0)
(0.0195304 -0.00119754 0)
(0.0180979 0.00173547 0)
(0.0172253 0.0054063 0)
(0.0168017 0.00913474 0)
(0.0165187 0.0113006 0)
(0.0163838 0.00973224 0)
(0.0143533 0.00259154 0)
(0.0119039 -0.00771966 0)
(0.0172145 -0.0213918 0)
(0.0810182 -0.0827733 0)
(-0.371733 -0.200711 0)
(-1.22178 0.0982892 0)
(0.173274 0.156627 0)
(0.116838 0.112536 0)
(0.12168 0.0740117 0)
(0.13984 0.0453027 0)
(0.149211 0.0262185 0)
(0.149363 0.0146331 0)
(0.145458 0.00812364 0)
(0.139953 0.00449436 0)
(0.13396 0.00286847 0)
(0.127675 0.00277976 0)
(0.121265 0.00357407 0)
(0.114777 0.00465337 0)
(0.108195 0.0055925 0)
(0.101693 0.00624218 0)
(0.0957069 0.00668724 0)
(0.0906468 0.006961 0)
(0.0866058 0.00696118 0)
(0.0833645 0.00663686 0)
(0.0806193 0.0060361 0)
(0.0781173 0.00525077 0)
(0.0756811 0.00439224 0)
(0.0732107 0.00357202 0)
(0.07067 0.00289288 0)
(0.0680806 0.0024701 0)
(0.0655396 0.00244449 0)
(0.0632371 0.00296884 0)
(0.0614512 0.00414279 0)
(0.0605985 0.00581946 0)
(0.060764 0.0078366 0)
(0.0623565 0.00945363 0)
(0.0653558 0.00892098 0)
(0.0695108 0.0039147 0)
(0.0729435 -0.00744161 0)
(0.0745126 -0.0239811 0)
(0.0757072 -0.0452071 0)
(0.11482 -0.082433 0)
(-0.0957838 -0.144654 0)
(-0.569168 0.10578 0)
(0.218637 0.0647658 0)
(0.100434 0.0392108 0)
(0.106584 0.0243896 0)
(0.135898 0.00596848 0)
(0.155312 -0.0118598 0)
(0.163531 -0.0273498 0)
(0.165815 -0.0408177 0)
(0.165047 -0.0517191 0)
(0.162217 -0.0599041 0)
(0.157998 -0.0660567 0)
(0.152957 -0.0705058 0)
(0.147534 -0.0728737 0)
(0.142074 -0.0731613 0)
(0.136846 -0.0718343 0)
(0.132076 -0.069476 0)
(0.127933 -0.0667008 0)
(0.124456 -0.0640174 0)
(0.121535 -0.0617169 0)
(0.118986 -0.059882 0)
(0.116628 -0.0584651 0)
(0.114327 -0.057352 0)
(0.112 -0.0564041 0)
(0.109626 -0.0554801 0)
(0.107241 -0.0544408 0)
(0.10495 -0.053154 0)
(0.102942 -0.0515059 0)
(0.101516 -0.0494073 0)
(0.100847 -0.0466751 0)
(0.101169 -0.043697 0)
(0.102625 -0.0416109 0)
(0.104927 -0.0420962 0)
(0.107312 -0.0447749 0)
(0.10715 -0.0494449 0)
(0.102218 -0.0562031 0)
(0.0896685 -0.0646971 0)
(0.110202 -0.0779958 0)
(-0.160937 -0.0903125 0)
(0.627393 0.179954 0)
(0.156359 -0.235269 0)
(-0.274543 0.153195 0)
(0.166369 0.0856436 0)
(0.133601 0.0879919 0)
(0.121792 0.100018 0)
(0.140797 0.109421 0)
(0.157477 0.120851 0)
(0.164298 0.135135 0)
(0.16484 0.151331 0)
(0.162837 0.167337 0)
(0.160137 0.181735 0)
(0.157496 0.194279 0)
(0.155296 0.204512 0)
(0.153783 0.211186 0)
(0.153055 0.213877 0)
(0.153041 0.213124 0)
(0.15355 0.209815 0)
(0.154356 0.204969 0)
(0.155227 0.199521 0)
(0.155955 0.194163 0)
(0.156386 0.189289 0)
(0.156436 0.185049 0)
(0.156094 0.181419 0)
(0.1554 0.178274 0)
(0.154429 0.175435 0)
(0.153286 0.172702 0)
(0.152102 0.169871 0)
(0.151025 0.166754 0)
(0.150227 0.163189 0)
(0.149871 0.15895 0)
(0.150074 0.154206 0)
(0.150634 0.149596 0)
(0.150822 0.146138 0)
(0.14883 0.14211 0)
(0.14277 0.136896 0)
(0.130408 0.130544 0)
(0.10892 0.123873 0)
(0.126767 0.111019 0)
(-0.228524 0.117722 0)
)
;

boundaryField
{
    floor
    {
        type            noSlip;
    }
    ceiling
    {
        type            noSlip;
    }
    sWall
    {
        type            noSlip;
    }
    nWall
    {
        type            noSlip;
    }
    sideWalls
    {
        type            empty;
    }
    glass1
    {
        type            noSlip;
    }
    glass2
    {
        type            noSlip;
    }
    sun
    {
        type            noSlip;
    }
    heatsource1
    {
        type            noSlip;
    }
    heatsource2
    {
        type            noSlip;
    }
    Table_master
    {
        type            noSlip;
    }
    Table_slave
    {
        type            noSlip;
    }
    inlet
    {
        type            fixedValue;
        value           uniform (0.0382683 -0.092388 0);
    }
    outlet
    {
        type            zeroGradient;
    }
}


// ************************************************************************* //
