/*--------------------------------*- C++ -*----------------------------------*\
  =========                 |
  \\      /  F ield         | OpenFOAM: The Open Source CFD Toolbox
   \\    /   O peration     | Website:  https://openfoam.org
    \\  /    A nd           | Version:  6
     \\/     M anipulation  |
\*---------------------------------------------------------------------------*/
FoamFile
{
    version     2.0;
    format      ascii;
    class       volScalarField;
    location    "13000";
    object      epsilon;
}
// * * * * * * * * * * * * * * * * * * * * * * * * * * * * * * * * * * * * * //

dimensions      [0 2 -3 0 0 0 0];

internalField   nonuniform List<scalar> 
778
(
0.00025314
0.000306366
0.000302998
0.000344155
0.000385002
0.000424791
0.000464219
0.000504476
0.000547302
0.000595414
0.000643873
0.000692292
0.000742317
0.000798741
0.00086058
8.94425e-05
0.000262833
0.000269296
0.000250246
0.000220377
0.000184276
0.000152451
0.000126598
0.000105969
8.95014e-05
7.63479e-05
6.56905e-05
5.68879e-05
4.94146e-05
4.27988e-05
3.6542e-05
3.18321e-05
2.3608e-05
0.00079706
0.0014433
0.000286981
0.00025956
0.00026165
0.000267616
0.000276508
0.000289935
0.000310188
0.000340397
0.000379633
0.000430795
0.000499256
0.00060057
0.000785865
0.00112972
0.000979053
0.000858681
0.000512066
0.000369675
0.000294451
0.000243125
0.000204277
0.000187112
0.000154827
0.000125073
0.000100736
8.15125e-05
6.65436e-05
5.48372e-05
4.56459e-05
3.87225e-05
3.45342e-05
3.27821e-05
6.58028e-05
4.81136e-05
0.00163079
0.00407949
0.000407416
0.000242899
0.000229068
0.00023098
0.000238197
0.000250467
0.000268375
0.000292654
0.000324801
0.000366907
0.000421359
0.000495158
0.000601652
0.00072499
0.000830071
0.00158466
0.00102769
0.000512423
0.00036787
0.000294469
0.000262308
0.000552154
0.000363119
0.000251074
0.00018154
0.000136414
0.00010599
8.4824e-05
6.98538e-05
5.9491e-05
4.51594e-05
3.80063e-05
0.000108113
7.08461e-05
0.00285387
0.00877141
0.000709992
0.000240705
0.000202448
0.000199983
0.000203159
0.00020979
0.000220611
0.000237536
0.000263242
0.000300025
0.000349302
0.00041252
0.000488276
0.000560487
0.000612551
0.000824389
0.00156467
0.000728904
0.000459776
0.000358285
0.000301911
0.000291829
0.000814421
0.000613042
0.000482263
0.000388803
0.000319368
0.000264516
0.000218915
0.000179145
0.000141961
8.39096e-05
5.49748e-05
0.000148403
9.46223e-05
0.00454663
0.015829
0.00134664
0.000258345
0.000175708
0.000166765
0.000165779
0.000167761
0.000173929
0.000187438
0.000211694
0.000248409
0.000297893
0.00035953
0.00042807
0.00048947
0.000528769
0.00058255
0.000627463
0.000483149
0.000393433
0.00033098
0.000282267
0.000248623
0.000247854
0.000226808
0.000202968
0.000181077
0.000162692
0.00014653
0.000131864
0.000118275
0.000105118
8.45517e-05
6.43121e-05
0.000105177
0.000138889
0.000160191
0.000359525
0.000321631
0.00676457
0.0248803
0.00255405
0.000318114
0.000155523
0.000137046
0.000132112
0.000130687
0.000134459
0.000148548
0.000176702
0.000218101
0.000270902
0.000334338
0.000402044
0.000462972
0.000503282
0.000521872
0.000504881
0.000438286
0.000373818
0.000315635
0.000264738
0.0002234
0.000193313
0.00016965
0.000150824
0.000135625
0.000123286
0.000112739
0.000103288
9.45275e-05
8.6076e-05
7.59086e-05
6.54342e-05
7.76533e-05
9.98277e-05
0.000207464
0.00105223
0.000553344
0.00967341
0.0336384
0.00458467
0.000465124
0.00015085
0.000116335
0.000107083
0.000103282
0.00010708
0.000127898
0.000166093
0.000215875
0.000273385
0.000340298
0.000409704
0.000470883
0.000510563
0.000520742
0.000494508
0.000437745
0.000371909
0.00030752
0.000250577
0.000204463
0.000169766
0.000144562
0.000126318
0.000112721
0.000102264
9.3702e-05
8.62205e-05
7.93488e-05
7.27924e-05
6.61154e-05
6.03675e-05
6.38951e-05
7.68314e-05
0.000171322
0.00156889
0.000898527
0.0127604
0.0404065
0.00749105
0.00087171
0.000194379
0.000115414
9.74072e-05
9.14786e-05
9.86905e-05
0.000137707
0.000189244
0.00024623
0.000307133
0.000374113
0.00044526
0.000508625
0.000547915
0.000551353
0.000516005
0.000451772
0.00037566
0.000301052
0.000236531
0.000185987
0.000149317
0.000123966
0.000106682
9.45385e-05
8.571e-05
7.87902e-05
7.28998e-05
6.75493e-05
6.24875e-05
5.76609e-05
5.39982e-05
5.6115e-05
7.04899e-05
0.000335753
0.00525602
0.00196456
0.0138287
0.0414575
0.0139331
0.0031649
0.000630696
0.000208294
0.000132834
0.000116107
0.000142616
0.000193021
0.000249309
0.00030644
0.000367506
0.000437031
0.000511681
0.000576404
0.000611511
0.000603645
0.000552544
0.000471277
0.00037872
0.000291054
0.000218318
0.00016403
0.000126758
0.000102573
8.72406e-05
7.72973e-05
7.06207e-05
6.56337e-05
6.14484e-05
5.76258e-05
5.39882e-05
5.06247e-05
4.85142e-05
5.33731e-05
0.000100353
0.000952876
0.0126564
0.00297815
0.013005
0.0283675
0.0144155
0.00572798
0.00210589
0.000835855
0.000414544
0.000277455
0.00027955
0.000314967
0.000356305
0.000401899
0.000458907
0.000531439
0.000610669
0.000674638
0.000699215
0.000671071
0.000594264
0.00048714
0.000373003
0.000270903
0.00019122
0.000135758
0.00010065
7.98413e-05
6.79219e-05
6.1137e-05
5.70474e-05
5.40958e-05
5.15392e-05
4.9074e-05
4.66433e-05
4.45126e-05
4.43377e-05
5.90131e-05
0.000244623
0.00300162
0.0103671
0.00308651
0.0106888
0.0193533
0.0120378
0.0063012
0.00317599
0.00167621
0.000988036
0.000680133
0.000560967
0.00051803
0.000510897
0.000531883
0.000584237
0.000663419
0.00074807
0.000805457
0.000807532
0.000744433
0.000628608
0.000486728
0.000348072
0.000233819
0.000152547
0.000101783
7.35603e-05
5.88074e-05
5.13601e-05
4.78989e-05
4.60795e-05
4.4743e-05
4.34128e-05
4.19351e-05
4.03819e-05
3.93004e-05
4.20643e-05
8.4254e-05
0.000715883
0.0031876
0.00744013
0.0029294
0.00807011
0.0137659
0.00969019
0.00593327
0.00357032
0.0022283
0.00149167
0.00109403
0.000870191
0.000744309
0.000686559
0.000690812
0.000751269
0.000845295
0.000932309
0.000968047
0.00092568
0.000805869
0.000635812
0.000453215
0.000293604
0.000177572
0.000106937
6.94949e-05
5.25476e-05
4.4419e-05
4.05634e-05
3.91117e-05
3.85019e-05
3.80427e-05
3.74514e-05
3.66697e-05
3.58819e-05
3.59558e-05
4.24965e-05
0.000129338
0.000830792
0.00290528
0.0060012
0.00268121
0.00612106
0.0101629
0.00778757
0.00531135
0.00356997
0.00246931
0.00178837
0.0013687
0.00109348
0.0009267
0.000860041
0.000887506
0.000983244
0.00109698
0.0011679
0.00114811
0.00102572
0.000822445
0.000587918
0.000370062
0.000208457
0.000114625
7.20653e-05
5.23163e-05
4.29859e-05
3.82603e-05
3.58567e-05
3.48996e-05
3.4548e-05
3.43686e-05
3.42356e-05
3.42452e-05
3.47586e-05
3.69521e-05
4.72397e-05
0.000123064
0.000642597
0.00229913
0.00568804
0.00273844
0.00618211
0.00780393
0.00679931
0.00473697
0.0033642
0.00246162
0.00186547
0.00146219
0.00119479
0.00106531
0.00107134
0.00118075
0.00132822
0.00143407
0.00143295
0.0012959
0.00104961
0.000743879
0.000458602
0.000239199
0.000130921
8.14195e-05
5.97754e-05
4.93617e-05
4.35726e-05
3.98727e-05
3.73707e-05
3.58663e-05
3.51825e-05
3.50389e-05
3.55768e-05
3.73477e-05
4.13683e-05
4.96643e-05
6.87363e-05
0.000134426
0.000497561
0.00194024
0.0043115
0.00325943
0.00454583
0.0051111
0.00418344
0.00336072
0.00263882
0.0020693
0.0016483
0.0013615
0.00124547
0.00130191
0.00147906
0.00168499
0.00181819
0.001806
0.00162593
0.00129606
0.000909323
0.000521731
0.000279185
0.000154116
0.000100581
7.81038e-05
6.74698e-05
6.1117e-05
5.63724e-05
5.22574e-05
4.85238e-05
4.54881e-05
4.4033e-05
4.41969e-05
4.68271e-05
5.39921e-05
6.90643e-05
9.68067e-05
0.00014552
0.000243462
0.000535601
0.00194317
0.00349882
0.00336598
0.00140096
0.0014309
0.00143244
0.00135249
0.00130969
0.00142338
0.00170964
0.00204469
0.00230385
0.00239558
0.00227405
0.00195867
0.0015156
0.000976733
0.000566879
0.000310642
0.000184848
0.000132518
0.000112032
0.000102838
9.74648e-05
9.33261e-05
8.93483e-05
8.49156e-05
7.98071e-05
7.45791e-05
7.1559e-05
7.26913e-05
8.01433e-05
9.91013e-05
0.000137841
0.000207254
0.000322579
0.000519078
0.000911215
0.00207127
0.00396577
0.00333201
0.00118746
0.0017138
0.00194949
0.00230519
0.0027545
0.00315932
0.00333923
0.00330199
0.00307164
0.00267249
0.00210242
0.00148368
0.000954745
0.000560038
0.000332691
0.000227105
0.000186429
0.000171674
0.000165673
0.00016261
0.000160792
0.000159544
0.000158211
0.000155928
0.000151866
0.000146053
0.000140896
0.000142409
0.00015441
0.000184626
0.00024647
0.000360097
0.00055534
0.000883762
0.00144742
0.00241786
0.00393953
0.00293194
0.00742281
0.00809741
0.00480916
0.00339701
0.00372958
0.00414219
0.00415616
0.00394604
0.00358887
0.00313144
0.00261724
0.00207024
0.00152189
0.00103842
0.000681539
0.000466981
0.000366083
0.000326051
0.000309809
0.000300976
0.000294576
0.000289845
0.000287253
0.000287261
0.000289686
0.000293379
0.000296363
0.000296847
0.000295694
0.000301538
0.000319838
0.000357429
0.000427909
0.000553693
0.000770057
0.001138
0.00178228
0.00292152
0.00486934
0.00295121
0.00650501
0.00513844
0.00436771
0.00461995
0.00453605
0.00426666
0.00368552
0.0030396
0.0024549
0.00196245
0.0015577
0.0012269
0.000965201
0.000776071
0.000656559
0.000591735
0.000558105
0.000539597
0.000527296
0.000517896
0.000511172
0.000508506
0.000512003
0.000523789
0.0005453
0.000576611
0.000615974
0.000659817
0.000703249
0.000741866
0.00078362
0.000840817
0.000930114
0.00107383
0.00130523
0.00167895
0.00229374
0.00337546
0.00413143
0.00422426
0.00535593
0.00337003
0.00331926
0.00361665
0.0038755
0.00353696
0.00293285
0.00231381
0.00178129
0.00135367
0.00102215
0.000776331
0.000607348
0.000504141
0.000450932
0.000429794
0.000427343
0.000432022
0.000440041
0.000451156
0.000466956
0.000490038
0.000523252
0.000568816
0.000627469
0.000698044
0.000777848
0.000863836
0.000954205
0.00105009
0.00115256
0.00126583
0.00140005
0.00156745
0.00177999
0.00204535
0.00236135
0.00272744
0.00320306
0.00330602
)
;

boundaryField
{
    floor
    {
        Cmu             0.09;
        kappa           0.41;
        E               9.8;
        type            epsilonWallFunction;
        value           nonuniform List<scalar> 
36
(
0.00086058
8.94425e-05
0.000262833
0.000269296
0.000250246
0.000220377
0.000184276
0.000152451
0.000126598
0.000105969
8.95014e-05
7.63479e-05
6.56905e-05
5.68879e-05
4.94146e-05
4.27988e-05
3.6542e-05
3.18321e-05
2.3608e-05
2.3608e-05
4.81136e-05
7.08461e-05
9.46223e-05
0.000160191
0.000359525
0.000321631
0.00086058
0.00112972
0.000979053
0.000858681
8.94425e-05
0.000858681
0.000512066
0.00158466
0.00102769
0.00156467
)
;
    }
    ceiling
    {
        Cmu             0.09;
        kappa           0.41;
        E               9.8;
        type            epsilonWallFunction;
        value           nonuniform List<scalar> 
43
(
0.00535593
0.00337003
0.00331926
0.00361665
0.0038755
0.00353696
0.00293285
0.00231381
0.00178129
0.00135367
0.00102215
0.000776331
0.000607348
0.000504141
0.000450932
0.000429794
0.000427343
0.000432022
0.000440041
0.000451156
0.000466956
0.000490038
0.000523252
0.000568816
0.000627469
0.000698044
0.000777848
0.000863836
0.000954205
0.00105009
0.00115256
0.00126583
0.00140005
0.00156745
0.00177999
0.00204535
0.00236135
0.00272744
0.00320306
0.00330602
0.00454583
0.0051111
0.00118746
)
;
    }
    sWall
    {
        Cmu             0.09;
        kappa           0.41;
        E               9.8;
        type            epsilonWallFunction;
        value           nonuniform List<scalar> 9(0.013005 0.0106888 0.00807011 0.00612106 0.00618211 0.00454583 0.00742281 0.00650501 0.00535593);
    }
    nWall
    {
        Cmu             0.09;
        kappa           0.41;
        E               9.8;
        type            epsilonWallFunction;
        value           nonuniform List<scalar> 
14
(
0.000321631
0.000553344
0.000898527
0.00308651
0.0029294
0.00268121
0.00273844
0.00325943
0.00336598
0.00333201
0.00293194
0.00295121
0.00422426
0.00330602
)
;
    }
    sideWalls
    {
        type            empty;
    }
    glass1
    {
        Cmu             0.09;
        kappa           0.41;
        E               9.8;
        type            epsilonWallFunction;
        value           nonuniform List<scalar> 9(0.00025314 0.00079706 0.00163079 0.00285387 0.00454663 0.00676457 0.00967341 0.0127604 0.0138287);
    }
    glass2
    {
        Cmu             0.09;
        kappa           0.41;
        E               9.8;
        type            epsilonWallFunction;
        value           nonuniform List<scalar> 2(0.00196456 0.00297815);
    }
    sun
    {
        Cmu             0.09;
        kappa           0.41;
        E               9.8;
        type            epsilonWallFunction;
        value           nonuniform List<scalar> 
14
(
0.00025314
0.000306366
0.000302998
0.000344155
0.000385002
0.000424791
0.000464219
0.000504476
0.000547302
0.000595414
0.000643873
0.000692292
0.000742317
0.000798741
)
;
    }
    Table_master
    {
        Cmu             0.09;
        kappa           0.41;
        E               9.8;
        type            epsilonWallFunction;
        value           nonuniform List<scalar> 9(0.000552154 0.000363119 0.000251074 0.00018154 0.000136414 0.00010599 8.4824e-05 6.98538e-05 5.9491e-05);
    }
    Table_slave
    {
        Cmu             0.09;
        kappa           0.41;
        E               9.8;
        type            epsilonWallFunction;
        value           nonuniform List<scalar> 9(0.000814421 0.000613042 0.000482263 0.000388803 0.000319368 0.000264516 0.000218915 0.000179145 0.000141961);
    }
    inlet
    {
        type            turbulentMixingLengthDissipationRateInlet;
        mixingLength    0.01;
        phi             phi;
        k               k;
        value           uniform 0.000471671;
    }
    outlet
    {
        type            zeroGradient;
    }
}


// ************************************************************************* //
