/*--------------------------------*- C++ -*----------------------------------*\
  =========                 |
  \\      /  F ield         | OpenFOAM: The Open Source CFD Toolbox
   \\    /   O peration     | Website:  https://openfoam.org
    \\  /    A nd           | Version:  6
     \\/     M anipulation  |
\*---------------------------------------------------------------------------*/
FoamFile
{
    version     2.0;
    format      ascii;
    class       volVectorField;
    location    "13000";
    object      U;
}
// * * * * * * * * * * * * * * * * * * * * * * * * * * * * * * * * * * * * * //

dimensions      [0 1 -1 0 0 0 0];

internalField   nonuniform List<vector> 
778
(
(0.065597 0.0794075 0)
(-0.155178 0.0157652 0)
(-0.164304 0.0146243 0)
(-0.192421 0.0122753 0)
(-0.216857 0.00872648 0)
(-0.23692 0.0047469 0)
(-0.252052 0.000421108 0)
(-0.26183 -0.00436365 0)
(-0.265739 -0.00980617 0)
(-0.262775 -0.016187 0)
(-0.250981 -0.0242621 0)
(-0.226287 -0.0348841 0)
(-0.186163 -0.0504104 0)
(-0.144219 -0.0751878 0)
(-0.150103 -0.108591 0)
(0.0546408 0.0355125 0)
(0.0157446 -0.0268927 0)
(0.0449484 -0.0232828 0)
(0.0693739 -0.0161778 0)
(0.0844601 -0.0103665 0)
(0.091687 -0.00641789 0)
(0.0945253 -0.00433428 0)
(0.0955516 -0.00331182 0)
(0.0959972 -0.00272692 0)
(0.096165 -0.00231544 0)
(0.0960408 -0.00195193 0)
(0.0955157 -0.00151162 0)
(0.0942585 -0.000757113 0)
(0.0914102 0.000848266 0)
(0.0852018 0.00407356 0)
(0.0736532 0.00778616 0)
(0.0599684 0.0116393 0)
(-0.00787965 0.0300014 0)
(0.258395 0.167395 0)
(-0.161236 0.0483938 0)
(-0.141605 0.0459795 0)
(-0.174008 0.0416142 0)
(-0.19937 0.0356692 0)
(-0.220092 0.0291336 0)
(-0.236126 0.0220663 0)
(-0.247386 0.01424 0)
(-0.253573 0.00531055 0)
(-0.253906 -0.00513833 0)
(-0.247765 -0.017072 0)
(-0.234071 -0.0308475 0)
(-0.214171 -0.048084 0)
(-0.197602 -0.0699787 0)
(-0.194096 -0.0826661 0)
(-0.166485 -0.0425694 0)
(-0.105407 -0.0363958 0)
(-0.0983258 -0.0445035 0)
(0.109341 -0.0420683 0)
(0.0644473 -0.0411832 0)
(0.0718976 -0.0323068 0)
(0.0859008 -0.0207649 0)
(0.0938326 -0.0105121 0)
(0.0960915 -0.00365186 0)
(0.0958603 -0.000184803 0)
(0.095469 0.00126345 0)
(0.0954276 0.00190439 0)
(0.0955047 0.00227112 0)
(0.0955099 0.00258936 0)
(0.0954091 0.00313105 0)
(0.0951183 0.00441413 0)
(0.093861 0.00773327 0)
(0.0882628 0.0167727 0)
(0.0745002 0.0253688 0)
(0.063126 0.0330103 0)
(-0.0518774 0.0636064 0)
(0.429972 0.253958 0)
(-0.194235 0.0847632 0)
(-0.112783 0.0784305 0)
(-0.148247 0.0669534 0)
(-0.170677 0.0555007 0)
(-0.188771 0.0437338 0)
(-0.20261 0.0313587 0)
(-0.212307 0.0180301 0)
(-0.217667 0.00342739 0)
(-0.218037 -0.0126028 0)
(-0.212791 -0.0303002 0)
(-0.201695 -0.0498969 0)
(-0.186059 -0.0715744 0)
(-0.169524 -0.093235 0)
(-0.151151 -0.104596 0)
(-0.120305 -0.0931745 0)
(-0.0795955 -0.0949802 0)
(-0.0714762 -0.107648 0)
(0.0921419 -0.0881219 0)
(0.0625732 -0.0657575 0)
(0.0743725 -0.0461686 0)
(0.0880169 -0.0293156 0)
(0.0948776 -0.0149879 0)
(0.0919945 -0.0120864 0)
(0.087756 -0.00798591 0)
(0.0853804 -0.0057921 0)
(0.0846912 -0.00455828 0)
(0.0846737 -0.00379402 0)
(0.0849315 -0.00322385 0)
(0.0855835 -0.00259871 0)
(0.0873451 -0.0014391 0)
(0.0920327 0.0029239 0)
(0.0901993 0.0251178 0)
(0.0734083 0.0423916 0)
(0.0701037 0.0575528 0)
(-0.0898208 0.100992 0)
(0.578533 0.325845 0)
(-0.240104 0.121817 0)
(-0.0808413 0.109221 0)
(-0.121582 0.0898506 0)
(-0.139014 0.0740694 0)
(-0.153074 0.0586428 0)
(-0.163834 0.0427694 0)
(-0.171431 0.0258358 0)
(-0.175646 0.00723222 0)
(-0.175719 -0.0134945 0)
(-0.171039 -0.0364379 0)
(-0.161479 -0.0614355 0)
(-0.147618 -0.0873696 0)
(-0.130644 -0.110315 0)
(-0.109689 -0.123224 0)
(-0.0822116 -0.124569 0)
(-0.0526033 -0.126406 0)
(-0.0334806 -0.123223 0)
(0.016245 -0.0568246 0)
(0.0607635 -0.0930115 0)
(0.068453 -0.0791928 0)
(0.0790886 -0.0588628 0)
(0.0915866 -0.0396478 0)
(0.102927 -0.0209968 0)
(0.115683 -0.0132776 0)
(0.126881 -0.00886796 0)
(0.132521 -0.0056372 0)
(0.133528 -0.0031158 0)
(0.131011 -0.000882418 0)
(0.12555 0.00129113 0)
(0.117022 0.00367129 0)
(0.104666 0.00672201 0)
(0.0854313 0.0111459 0)
(0.0715684 0.0368188 0)
(0.060318 0.060567 0)
(0.0763361 0.0834544 0)
(-0.117252 0.137368 0)
(0.705706 0.383687 0)
(-0.287677 0.157016 0)
(-0.0477071 0.133782 0)
(-0.0963036 0.106918 0)
(-0.107755 0.0875978 0)
(-0.116787 0.0691834 0)
(-0.123575 0.050468 0)
(-0.128234 0.0306196 0)
(-0.130593 0.0087646 0)
(-0.129788 -0.0157761 0)
(-0.125292 -0.0430373 0)
(-0.116674 -0.0726542 0)
(-0.103958 -0.10281 0)
(-0.087492 -0.129087 0)
(-0.06755 -0.145792 0)
(-0.044213 -0.152278 0)
(-0.0203548 -0.152391 0)
(0.000184353 -0.143751 0)
(0.0307261 -0.115023 0)
(0.0569201 -0.109375 0)
(0.0705298 -0.0924647 0)
(0.080687 -0.0713097 0)
(0.090759 -0.0508715 0)
(0.100325 -0.0328363 0)
(0.109453 -0.0194439 0)
(0.116506 -0.0100484 0)
(0.119956 -0.00333846 0)
(0.120171 0.00192651 0)
(0.117766 0.00647908 0)
(0.113114 0.0108319 0)
(0.10625 0.0154955 0)
(0.0971097 0.0211729 0)
(0.0852042 0.0291684 0)
(0.0736862 0.0471682 0)
(0.0632716 0.0712282 0)
(0.0948697 0.0994268 0)
(0.0172674 0.138567 0)
(0.0966621 0.182749 0)
(0.140515 0.147746 0)
(-0.224211 0.202736 0)
(0.810407 0.431983 0)
(-0.331312 0.19069 0)
(-0.0173294 0.150255 0)
(-0.0733832 0.117525 0)
(-0.0786101 0.0955176 0)
(-0.0822309 0.0749566 0)
(-0.0844826 0.054363 0)
(-0.085516 0.0327508 0)
(-0.0852552 0.00890137 0)
(-0.0825743 -0.0183618 0)
(-0.0774056 -0.0489738 0)
(-0.0687794 -0.0824531 0)
(-0.056789 -0.116466 0)
(-0.0417409 -0.146284 0)
(-0.0247643 -0.165986 0)
(-0.00638431 -0.174502 0)
(0.0120032 -0.172767 0)
(0.0279246 -0.161037 0)
(0.0461022 -0.13936 0)
(0.062572 -0.122387 0)
(0.073265 -0.102546 0)
(0.0809614 -0.0805094 0)
(0.0877336 -0.0591797 0)
(0.0939288 -0.0403102 0)
(0.0992804 -0.0251285 0)
(0.102994 -0.0137582 0)
(0.10462 -0.00504937 0)
(0.104206 0.00215726 0)
(0.102054 0.00863377 0)
(0.0984169 0.0148945 0)
(0.093457 0.0214643 0)
(0.0874126 0.0289772 0)
(0.0805573 0.0383534 0)
(0.0748451 0.0527481 0)
(0.0697021 0.0727385 0)
(0.0918462 0.0985116 0)
(0.0739621 0.107476 0)
(0.0906984 0.0484349 0)
(0.146287 -0.0355529 0)
(-0.325323 0.10568 0)
(0.879875 0.474697 0)
(-0.368628 0.220977 0)
(0.00370369 0.155572 0)
(-0.0526803 0.121581 0)
(-0.0522295 0.0978607 0)
(-0.0510481 0.0758329 0)
(-0.0490399 0.054062 0)
(-0.0465173 0.0315634 0)
(-0.0433187 0.00681111 0)
(-0.037344 -0.0222492 0)
(-0.0302605 -0.0553075 0)
(-0.0204749 -0.0918728 0)
(-0.00867761 -0.128827 0)
(0.00451213 -0.161185 0)
(0.0175504 -0.181844 0)
(0.0303259 -0.190204 0)
(0.0421303 -0.187242 0)
(0.0524405 -0.174452 0)
(0.0624212 -0.154109 0)
(0.0710135 -0.13246 0)
(0.0765572 -0.10945 0)
(0.0800363 -0.0859589 0)
(0.0826528 -0.0637921 0)
(0.0849093 -0.0442972 0)
(0.086764 -0.0281915 0)
(0.0878799 -0.0153807 0)
(0.088028 -0.00509169 0)
(0.0870557 0.00358627 0)
(0.0851466 0.0113285 0)
(0.0824502 0.0186514 0)
(0.0791485 0.0260503 0)
(0.075531 0.0340254 0)
(0.0720174 0.0431375 0)
(0.0700048 0.0546924 0)
(0.0689196 0.0691168 0)
(0.0820855 0.0882 0)
(0.0854256 0.0917816 0)
(0.0909202 0.0549575 0)
(0.181055 0.0268957 0)
(-0.278504 0.155157 0)
(0.927921 0.517155 0)
(-0.383147 0.234184 0)
(0.0168837 0.132994 0)
(-0.0273429 0.116667 0)
(-0.0265727 0.0949299 0)
(-0.0227633 0.0724356 0)
(-0.0176441 0.0501136 0)
(-0.012359 0.0272654 0)
(-0.00536982 0.00186809 0)
(0.00462071 -0.0307079 0)
(0.014358 -0.0652739 0)
(0.0256578 -0.10325 0)
(0.0372798 -0.140752 0)
(0.0479199 -0.172029 0)
(0.0569717 -0.192246 0)
(0.0644311 -0.199771 0)
(0.0701329 -0.195393 0)
(0.0740812 -0.18123 0)
(0.076786 -0.160164 0)
(0.0781602 -0.136178 0)
(0.077819 -0.111172 0)
(0.076337 -0.086656 0)
(0.0745441 -0.0641023 0)
(0.0729646 -0.0445052 0)
(0.0717333 -0.0282353 0)
(0.0707086 -0.0150092 0)
(0.0696861 -0.00413583 0)
(0.0683713 0.00514948 0)
(0.0668683 0.0134172 0)
(0.0651526 0.0211437 0)
(0.0633109 0.0287455 0)
(0.0615415 0.0365671 0)
(0.0601712 0.0448914 0)
(0.0601139 0.0541906 0)
(0.0613157 0.0644699 0)
(0.0704835 0.0774394 0)
(0.0808558 0.0810297 0)
(0.081483 0.0621282 0)
(0.238634 0.0561001 0)
(-0.550452 0.23391 0)
(1.01128 0.506822 0)
(-0.13723 0.296351 0)
(0.041084 0.161525 0)
(0.0406041 0.122084 0)
(0.0130845 0.0919633 0)
(0.00866087 0.0653442 0)
(0.0140966 0.0413653 0)
(0.0207393 0.0169551 0)
(0.0325799 -0.011043 0)
(0.0440697 -0.0421499 0)
(0.0559625 -0.0768706 0)
(0.0682393 -0.114543 0)
(0.0793497 -0.150959 0)
(0.0878009 -0.180405 0)
(0.0929619 -0.198452 0)
(0.0949589 -0.203672 0)
(0.0942095 -0.197088 0)
(0.0912651 -0.181102 0)
(0.0868016 -0.158746 0)
(0.0812673 -0.13334 0)
(0.0749528 -0.107323 0)
(0.0684576 -0.0825289 0)
(0.0625043 -0.0603131 0)
(0.0576109 -0.0413944 0)
(0.0539616 -0.0258477 0)
(0.0514397 -0.013174 0)
(0.0497608 -0.00260886 0)
(0.0485184 0.00652497 0)
(0.0476716 0.014715 0)
(0.0469943 0.0223889 0)
(0.0464367 0.0298699 0)
(0.0460506 0.0373613 0)
(0.0459862 0.0449414 0)
(0.0467445 0.0526408 0)
(0.0484729 0.0600909 0)
(0.0549777 0.0677275 0)
(0.066017 0.0666819 0)
(0.0628942 0.041274 0)
(0.291552 0.0717601 0)
(-0.750424 0.305681 0)
(0.779316 0.395709 0)
(0.000866748 0.319488 0)
(0.0934159 0.218906 0)
(0.110643 0.155152 0)
(0.0772187 0.106792 0)
(0.0598411 0.0674939 0)
(0.0582668 0.0356905 0)
(0.0624516 0.00633229 0)
(0.0739182 -0.02351 0)
(0.0855216 -0.0550891 0)
(0.097738 -0.0897381 0)
(0.109598 -0.126161 0)
(0.118936 -0.159867 0)
(0.123979 -0.185546 0)
(0.12414 -0.199637 0)
(0.119859 -0.201295 0)
(0.112096 -0.191857 0)
(0.101927 -0.173845 0)
(0.0903944 -0.150274 0)
(0.078339 -0.124178 0)
(0.0664516 -0.0981048 0)
(0.0554716 -0.0739852 0)
(0.046131 -0.0530654 0)
(0.0389012 -0.0357803 0)
(0.0338728 -0.0218969 0)
(0.0307792 -0.0106297 0)
(0.0291343 -0.00108459 0)
(0.0284542 0.00734322 0)
(0.0284494 0.0150819 0)
(0.0287852 0.0224861 0)
(0.0293115 0.0297792 0)
(0.0299278 0.03707 0)
(0.0305324 0.0443401 0)
(0.0310847 0.0514363 0)
(0.0310918 0.0578435 0)
(0.0316383 0.0632818 0)
(0.0191739 0.0634028 0)
(0.0182069 0.0871371 0)
(0.0817086 0.169571 0)
(-0.63537 0.310055 0)
(0.61725 0.220772 0)
(0.00472188 0.298082 0)
(0.113073 0.241519 0)
(0.148355 0.177518 0)
(0.130933 0.123452 0)
(0.117918 0.0777538 0)
(0.115068 0.0387871 0)
(0.117259 0.00327467 0)
(0.123662 -0.0308413 0)
(0.131926 -0.0650895 0)
(0.141633 -0.100493 0)
(0.150503 -0.135248 0)
(0.155592 -0.165019 0)
(0.154978 -0.185507 0)
(0.148358 -0.194417 0)
(0.136641 -0.191759 0)
(0.121303 -0.179245 0)
(0.10385 -0.159416 0)
(0.0856548 -0.135164 0)
(0.0678302 -0.109283 0)
(0.0513322 -0.0842599 0)
(0.0370591 -0.0619858 0)
(0.0257757 -0.0435403 0)
(0.0177715 -0.0289643 0)
(0.0128068 -0.0176155 0)
(0.0101912 -0.00833211 0)
(0.0091783 -0.000169801 0)
(0.00930267 0.00733999 0)
(0.0100845 0.014516 0)
(0.0112664 0.021605 0)
(0.0126758 0.0287587 0)
(0.0141139 0.0360893 0)
(0.0152501 0.0436535 0)
(0.0155736 0.0514673 0)
(0.0141835 0.0594082 0)
(0.0103675 0.0685085 0)
(-0.0221364 0.0937616 0)
(-0.0162081 0.137916 0)
(0.0272001 0.186341 0)
(-0.547031 0.217929 0)
(0.570778 0.118372 0)
(-0.0202348 0.258584 0)
(0.113748 0.229856 0)
(0.165101 0.176017 0)
(0.16677 0.126117 0)
(0.164438 0.0809995 0)
(0.165441 0.0398374 0)
(0.168421 0.00146409 0)
(0.17242 -0.0355568 0)
(0.178042 -0.0720217 0)
(0.184239 -0.107568 0)
(0.187922 -0.139464 0)
(0.186076 -0.163891 0)
(0.177335 -0.178078 0)
(0.16215 -0.181238 0)
(0.142065 -0.174249 0)
(0.119019 -0.159105 0)
(0.0947674 -0.138212 0)
(0.0709052 -0.114275 0)
(0.0486846 -0.0898027 0)
(0.0293017 -0.0671986 0)
(0.0138232 -0.0482417 0)
(0.00288766 -0.0336519 0)
(-0.00387882 -0.0226441 0)
(-0.00732106 -0.0142862 0)
(-0.00882426 -0.00699247 0)
(-0.00907639 -0.000123984 0)
(-0.00835317 0.00654082 0)
(-0.00707701 0.0131579 0)
(-0.00532182 0.0198776 0)
(-0.00321352 0.0268488 0)
(-0.00093118 0.0343149 0)
(0.00112876 0.0425683 0)
(0.00219313 0.0519698 0)
(0.00128763 0.0633328 0)
(-0.00311252 0.081433 0)
(-0.0339045 0.123904 0)
(-0.0279248 0.177409 0)
(-0.00159064 0.180564 0)
(-0.521154 0.0967607 0)
(0.628508 0.0534603 0)
(0.00943671 0.197242 0)
(0.113825 0.196945 0)
(0.17512 0.157909 0)
(0.191364 0.117626 0)
(0.198019 0.0771574 0)
(0.203369 0.0370971 0)
(0.208623 -0.00174351 0)
(0.213207 -0.0399045 0)
(0.217596 -0.0766971 0)
(0.219462 -0.109956 0)
(0.215636 -0.136572 0)
(0.204242 -0.15401 0)
(0.185377 -0.161319 0)
(0.160654 -0.159064 0)
(0.13223 -0.148629 0)
(0.102338 -0.13205 0)
(0.0726902 -0.111392 0)
(0.0450645 -0.0891771 0)
(0.0207123 -0.0676295 0)
(0.0012659 -0.0491205 0)
(-0.0121734 -0.0353408 0)
(-0.0198453 -0.0260272 0)
(-0.0239373 -0.018878 0)
(-0.0257857 -0.0126546 0)
(-0.0263411 -0.00665127 0)
(-0.0260432 -0.000653025 0)
(-0.0250012 0.00536552 0)
(-0.0234855 0.0114408 0)
(-0.0213958 0.0176824 0)
(-0.0187609 0.024277 0)
(-0.0156456 0.0315753 0)
(-0.0122796 0.0401316 0)
(-0.00928541 0.050889 0)
(-0.00758548 0.0656296 0)
(-0.00498522 0.0893283 0)
(-0.0182227 0.135854 0)
(-0.0166608 0.20407 0)
(0.103549 0.200613 0)
(-0.49122 0.033658 0)
(0.472046 0.0747114 0)
(-0.132042 0.137586 0)
(0.0941694 0.133335 0)
(0.172631 0.116804 0)
(0.203727 0.0952884 0)
(0.218005 0.0642553 0)
(0.228015 0.0281507 0)
(0.237166 -0.00929319 0)
(0.243649 -0.0456565 0)
(0.245242 -0.0785021 0)
(0.239319 -0.105179 0)
(0.224533 -0.12369 0)
(0.201413 -0.133251 0)
(0.171868 -0.134342 0)
(0.138456 -0.128213 0)
(0.103441 -0.116115 0)
(0.06911 -0.0998793 0)
(0.0366566 -0.0811052 0)
(0.00848387 -0.0623275 0)
(-0.0145064 -0.0456419 0)
(-0.0287556 -0.0346652 0)
(-0.0371984 -0.0273084 0)
(-0.041647 -0.0218466 0)
(-0.0437599 -0.0169581 0)
(-0.0444435 -0.0120684 0)
(-0.0442519 -0.00692206 0)
(-0.0434783 -0.00152698 0)
(-0.0421726 0.00398679 0)
(-0.0405578 0.00952222 0)
(-0.0383459 0.0151534 0)
(-0.0354363 0.0211041 0)
(-0.0317366 0.027792 0)
(-0.0272491 0.0359328 0)
(-0.0222906 0.0468437 0)
(-0.017429 0.0629302 0)
(-0.00923688 0.0878104 0)
(-0.00219962 0.129337 0)
(1.94941e-05 0.194036 0)
(0.15896 0.198071 0)
(-0.359768 0.0933292 0)
(0.72393 0.134398 0)
(0.0818268 0.115209 0)
(0.149639 0.099215 0)
(0.222246 0.0804935 0)
(0.24388 0.0698818 0)
(0.248669 0.047511 0)
(0.255022 0.017255 0)
(0.261197 -0.015117 0)
(0.260301 -0.0451481 0)
(0.249885 -0.0698751 0)
(0.229722 -0.0876163 0)
(0.201395 -0.0979662 0)
(0.167275 -0.101299 0)
(0.129872 -0.0986245 0)
(0.0916404 -0.0911911 0)
(0.0539766 -0.0796535 0)
(0.0195416 -0.0656395 0)
(-0.0121146 -0.0503169 0)
(-0.0346274 -0.038617 0)
(-0.0495418 -0.0308066 0)
(-0.058259 -0.0261053 0)
(-0.0631165 -0.0227325 0)
(-0.065555 -0.0196507 0)
(-0.0664633 -0.0162461 0)
(-0.0663226 -0.0123018 0)
(-0.0654716 -0.00777737 0)
(-0.0641676 -0.00277738 0)
(-0.0624906 0.0024505 0)
(-0.0608462 0.00758839 0)
(-0.0588393 0.0126063 0)
(-0.0562572 0.0177511 0)
(-0.0529556 0.0234696 0)
(-0.0488116 0.0306238 0)
(-0.0437668 0.0408253 0)
(-0.0375712 0.0562022 0)
(-0.0272664 0.0779064 0)
(-0.00926405 0.106931 0)
(0.00615619 0.155185 0)
(0.179408 0.173241 0)
(-0.326281 0.153797 0)
(0.191867 0.0880241 0)
(0.225663 0.0998197 0)
(0.246392 0.07013 0)
(0.242456 0.0396634 0)
(0.239685 0.0118338 0)
(0.234679 -0.0132615 0)
(0.219992 -0.0337515 0)
(0.196362 -0.0488169 0)
(0.166142 -0.058447 0)
(0.13176 -0.0631493 0)
(0.0949878 -0.0632941 0)
(0.0576786 -0.0595961 0)
(0.0217412 -0.0529067 0)
(-0.0135783 -0.0433541 0)
(-0.0413043 -0.0343675 0)
(-0.0621967 -0.0274341 0)
(-0.0761329 -0.0235236 0)
(-0.0848834 -0.0215815 0)
(-0.0901579 -0.020582 0)
(-0.0932777 -0.0195273 0)
(-0.0949007 -0.0179731 0)
(-0.0953636 -0.0157057 0)
(-0.0948796 -0.0126353 0)
(-0.0936668 -0.00874842 0)
(-0.091983 -0.0041316 0)
(-0.0899816 0.000950285 0)
(-0.088095 0.0060055 0)
(-0.0865381 0.0107844 0)
(-0.0849255 0.0154887 0)
(-0.0831764 0.0206106 0)
(-0.0809882 0.026981 0)
(-0.0777389 0.0357284 0)
(-0.0726988 0.0476697 0)
(-0.063571 0.0618841 0)
(-0.043924 0.0753745 0)
(-0.0133089 0.0929417 0)
(0.179956 0.140385 0)
(-0.396378 0.22062 0)
(0.451134 0.209681 0)
(0.206406 0.178796 0)
(0.152818 0.118801 0)
(0.139692 0.0638912 0)
(0.128295 0.0255867 0)
(0.114293 0.0014155 0)
(0.0988651 -0.0133471 0)
(0.0778925 -0.022485 0)
(0.053345 -0.028007 0)
(0.0263276 -0.0302863 0)
(-0.0034177 -0.0292277 0)
(-0.0327347 -0.0257411 0)
(-0.0590097 -0.0212352 0)
(-0.0812043 -0.0170819 0)
(-0.0977486 -0.0148155 0)
(-0.109246 -0.0142663 0)
(-0.116916 -0.0150615 0)
(-0.122225 -0.0162223 0)
(-0.126033 -0.0171776 0)
(-0.128714 -0.0175905 0)
(-0.130372 -0.0172705 0)
(-0.131042 -0.0160629 0)
(-0.130774 -0.013838 0)
(-0.129679 -0.0105128 0)
(-0.127948 -0.00610353 0)
(-0.125777 -0.000840979 0)
(-0.123299 0.00462478 0)
(-0.121491 0.00964026 0)
(-0.12013 0.014422 0)
(-0.119007 0.0195929 0)
(-0.117817 0.0258785 0)
(-0.116222 0.0339113 0)
(-0.1147 0.0438844 0)
(-0.114013 0.0549947 0)
(-0.108899 0.0659092 0)
(-0.0810576 0.0849361 0)
(-0.0378695 0.147338 0)
(-0.519729 0.23827 0)
(0.361232 -0.415275 0)
(-0.346226 -0.513065 0)
(-0.218683 -0.0277285 0)
(-0.0929893 0.111005 0)
(-0.0536872 0.0926027 0)
(-0.0314113 0.0544701 0)
(-0.0266403 0.0281939 0)
(-0.0316212 0.0113672 0)
(-0.0402613 0.000406747 0)
(-0.050594 -0.00679496 0)
(-0.064116 -0.0110784 0)
(-0.0792643 -0.0133292 0)
(-0.0950703 -0.0147065 0)
(-0.11053 -0.0164379 0)
(-0.124474 -0.0189977 0)
(-0.135926 -0.0219533 0)
(-0.144364 -0.0247477 0)
(-0.150406 -0.0268451 0)
(-0.155089 -0.0282951 0)
(-0.15908 -0.0291874 0)
(-0.162547 -0.0295559 0)
(-0.165403 -0.0293611 0)
(-0.167502 -0.0285372 0)
(-0.168737 -0.0270057 0)
(-0.169088 -0.0246834 0)
(-0.168623 -0.0214941 0)
(-0.167496 -0.017381 0)
(-0.165885 -0.0123131 0)
(-0.163769 -0.00627872 0)
(-0.161458 0.00064577 0)
(-0.158898 0.00753026 0)
(-0.155697 0.0144529 0)
(-0.15147 0.0220514 0)
(-0.145815 0.0309635 0)
(-0.139264 0.0414118 0)
(-0.133299 0.0533994 0)
(-0.121663 0.068601 0)
(-0.0783436 0.0920825 0)
(-0.0704676 0.113558 0)
(-0.601614 0.0868043 0)
(0.123787 -0.185392 0)
(-0.388083 -0.297746 0)
(-0.343418 -0.0964411 0)
(-0.264987 0.0518302 0)
(-0.211323 0.0837534 0)
(-0.179254 0.0747123 0)
(-0.163073 0.0611499 0)
(-0.157163 0.051138 0)
(-0.157263 0.0459923 0)
(-0.160493 0.0455303 0)
(-0.164833 0.0489126 0)
(-0.169106 0.0552012 0)
(-0.172571 0.0631246 0)
(-0.174863 0.0707054 0)
(-0.176412 0.0761248 0)
(-0.177818 0.0779529 0)
(-0.179684 0.0757428 0)
(-0.182071 0.0718408 0)
(-0.184904 0.0673675 0)
(-0.188069 0.0626157 0)
(-0.191446 0.057651 0)
(-0.194917 0.0525937 0)
(-0.198362 0.0477053 0)
(-0.20165 0.0433954 0)
(-0.204604 0.0401459 0)
(-0.206976 0.0383623 0)
(-0.208475 0.0381998 0)
(-0.208831 0.0394047 0)
(-0.207757 0.0410726 0)
(-0.205065 0.0412894 0)
(-0.201038 0.040282 0)
(-0.195087 0.0392817 0)
(-0.186645 0.0389151 0)
(-0.175169 0.0395824 0)
(-0.160463 0.0411107 0)
(-0.141141 0.0428401 0)
(-0.107951 0.046748 0)
(-0.0427264 0.0615911 0)
(0.125416 0.0921934 0)
(-0.350331 0.0628093 0)
(1.14763 -0.0112638 0)
(-0.295982 -0.323519 0)
(-0.353157 -0.234036 0)
(-0.352598 -0.149643 0)
(-0.32884 -0.108254 0)
(-0.297243 -0.0997745 0)
(-0.270096 -0.102139 0)
(-0.250538 -0.108133 0)
(-0.237649 -0.116193 0)
(-0.229398 -0.126224 0)
(-0.223872 -0.13837 0)
(-0.219591 -0.152387 0)
(-0.215613 -0.1672 0)
(-0.211677 -0.180944 0)
(-0.208119 -0.191661 0)
(-0.205641 -0.198246 0)
(-0.204963 -0.20036 0)
(-0.206539 -0.19998 0)
(-0.210264 -0.197974 0)
(-0.21594 -0.194567 0)
(-0.223383 -0.189698 0)
(-0.232377 -0.18325 0)
(-0.242592 -0.17524 0)
(-0.25352 -0.165923 0)
(-0.264456 -0.155772 0)
(-0.274518 -0.145341 0)
(-0.28272 -0.135058 0)
(-0.288091 -0.125048 0)
(-0.289873 -0.115076 0)
(-0.287719 -0.104729 0)
(-0.282328 -0.0949692 0)
(-0.274528 -0.0864457 0)
(-0.264378 -0.0784098 0)
(-0.251952 -0.0701808 0)
(-0.237787 -0.0616643 0)
(-0.220424 -0.0530487 0)
(-0.189026 -0.0424448 0)
(-0.130323 -0.0215162 0)
(-0.112974 0.0207493 0)
(-0.576631 0.0584285 0)
)
;

boundaryField
{
    floor
    {
        type            noSlip;
    }
    ceiling
    {
        type            noSlip;
    }
    sWall
    {
        type            noSlip;
    }
    nWall
    {
        type            noSlip;
    }
    sideWalls
    {
        type            empty;
    }
    glass1
    {
        type            noSlip;
    }
    glass2
    {
        type            noSlip;
    }
    sun
    {
        type            noSlip;
    }
    Table_master
    {
        type            noSlip;
    }
    Table_slave
    {
        type            noSlip;
    }
    inlet
    {
        type            fixedValue;
        value           uniform (0.5 0 0);
    }
    outlet
    {
        type            zeroGradient;
    }
}


// ************************************************************************* //
