/*--------------------------------*- C++ -*----------------------------------*\
  =========                 |
  \\      /  F ield         | OpenFOAM: The Open Source CFD Toolbox
   \\    /   O peration     | Website:  https://openfoam.org
    \\  /    A nd           | Version:  6
     \\/     M anipulation  |
\*---------------------------------------------------------------------------*/
FoamFile
{
    version     2.0;
    format      ascii;
    class       volScalarField;
    location    "32199.9999977795196";
    object      epsilon;
}
// * * * * * * * * * * * * * * * * * * * * * * * * * * * * * * * * * * * * * //

dimensions      [0 2 -3 0 0 0 0];

internalField   nonuniform List<scalar> 
778
(
0.000253108
0.000306329
0.000302987
0.000344174
0.000385063
0.000424905
0.000464393
0.000504714
0.000547604
0.000595777
0.000644275
0.000692704
0.000742708
0.000799084
0.000860859
8.951e-05
0.00026252
0.000268985
0.000249957
0.000220147
0.000184143
0.000152383
0.000126551
0.000105921
8.94491e-05
7.62978e-05
6.56456e-05
5.685e-05
4.93839e-05
4.27747e-05
3.65238e-05
3.1821e-05
2.36017e-05
0.000796963
0.00144314
0.000286996
0.000259618
0.000261732
0.000267718
0.000276631
0.00029008
0.000310361
0.000340601
0.000379859
0.000431026
0.000499466
0.000600732
0.000785943
0.0011297
0.000979089
0.00085865
0.00051163
0.000369315
0.000294093
0.000242808
0.00020402
0.000186894
0.000154726
0.000125031
0.000100714
8.14954e-05
6.65276e-05
5.4821e-05
4.56297e-05
3.87064e-05
3.45156e-05
3.27557e-05
6.5763e-05
4.80725e-05
0.00163054
0.0040788
0.000407378
0.000242957
0.000229145
0.000231067
0.000238294
0.000250576
0.0002685
0.000292794
0.000324943
0.000367029
0.000421425
0.000495135
0.00060152
0.000724801
0.000830068
0.00158416
0.00102801
0.000512253
0.000367643
0.000294241
0.000262062
0.00055113
0.000362395
0.00025062
0.000181272
0.000136261
0.000105902
8.47676e-05
6.98109e-05
5.94542e-05
4.5125e-05
3.79709e-05
0.000108129
7.07434e-05
0.00285334
0.0087696
0.000709797
0.000240745
0.000202513
0.000200057
0.000203238
0.000209873
0.000220702
0.000237633
0.000263337
0.000300091
0.000349296
0.000412403
0.000488046
0.000560216
0.000612522
0.000824787
0.00156542
0.000728747
0.000459698
0.000358256
0.000301898
0.000291815
0.000813944
0.000612432
0.000481645
0.000388293
0.000318962
0.000264198
0.000218662
0.000178934
0.000141773
8.37308e-05
5.48502e-05
0.000148523
9.43654e-05
0.00454566
0.0158257
0.0013461
0.000258345
0.000175756
0.000166822
0.000165837
0.00016782
0.000173989
0.000187503
0.000211755
0.000248435
0.000297828
0.000359321
0.000427734
0.000489075
0.000528539
0.000582599
0.000627862
0.000483342
0.000393582
0.000331086
0.000282321
0.00024863
0.00024783
0.000226765
0.000202929
0.000181075
0.000162706
0.000146547
0.000131871
0.000118263
0.000105083
8.44613e-05
6.4158e-05
0.000105089
0.000138707
0.000159904
0.000367897
0.000321068
0.00676299
0.0248756
0.00255282
0.000318036
0.000155547
0.000137085
0.000132153
0.000130725
0.000134496
0.000148587
0.000176737
0.00021809
0.000270766
0.000333991
0.00040154
0.000462395
0.000502869
0.000521715
0.000504954
0.000438403
0.000373937
0.000315721
0.000264777
0.000223397
0.000193291
0.000169631
0.000150821
0.000135645
0.00012332
0.000112774
0.00010331
9.45288e-05
8.60618e-05
7.5879e-05
6.53268e-05
7.75275e-05
9.95901e-05
0.000211496
0.00107883
0.000548901
0.00967097
0.0336342
0.00458238
0.000464868
0.000150834
0.000116351
0.000107106
0.000103309
0.000107108
0.00012794
0.000166136
0.000215851
0.000273182
0.000339777
0.000408969
0.000470083
0.000509903
0.000520346
0.000494348
0.000437706
0.000371909
0.000307517
0.000250562
0.000204439
0.000169745
0.000144557
0.000126332
0.000112752
0.000102306
9.37418e-05
8.62433e-05
7.93447e-05
7.27717e-05
6.61064e-05
6.03354e-05
6.37003e-05
7.66202e-05
0.000174984
0.00161081
0.000900327
0.0127575
0.0404044
0.00748794
0.000870907
0.000194223
0.000115376
9.74023e-05
9.14897e-05
9.86797e-05
0.000137763
0.000189311
0.000246199
0.000306844
0.000373447
0.000444266
0.000507539
0.000546999
0.000550734
0.00051564
0.000451546
0.000375492
0.000300918
0.000236433
0.000185927
0.000149294
0.000123974
0.000106714
9.45811e-05
8.5763e-05
7.88446e-05
7.29385e-05
6.75572e-05
6.24702e-05
5.76548e-05
5.40044e-05
5.5708e-05
6.97735e-05
0.000354062
0.00574638
0.00202995
0.0138268
0.0414623
0.0139286
0.00316085
0.000629197
0.000207876
0.00013269
0.000116051
0.000142544
0.000193037
0.000249362
0.000306368
0.00036709
0.000436135
0.000510403
0.000575057
0.000610395
0.000602857
0.000551991
0.00047083
0.000378326
0.000290735
0.000218104
0.000163922
0.000126726
0.000102588
8.72827e-05
7.7348e-05
7.06866e-05
6.57108e-05
6.15229e-05
5.76811e-05
5.40212e-05
5.06567e-05
4.84852e-05
5.1992e-05
9.26351e-05
0.00101717
0.0147164
0.00292241
0.0130048
0.0283758
0.0144142
0.00572361
0.00210253
0.000833972
0.000413607
0.000276999
0.000279199
0.000314799
0.00035622
0.00040167
0.000458258
0.000530248
0.000609127
0.00067314
0.000698052
0.000670221
0.000593529
0.000486391
0.00037228
0.000270328
0.000190872
0.000135602
0.000100608
7.98509e-05
6.79553e-05
6.11818e-05
5.71139e-05
5.41855e-05
5.16483e-05
4.91994e-05
4.67951e-05
4.47234e-05
4.44246e-05
5.48059e-05
0.000176547
0.00237586
0.0124363
0.00315658
0.0106909
0.0193614
0.0120389
0.0062988
0.00317319
0.00167399
0.000986459
0.000679038
0.0005602
0.000517556
0.00051055
0.000531358
0.000583236
0.000661917
0.000746419
0.000804113
0.000806639
0.00074369
0.000627651
0.000485516
0.000346883
0.000232951
0.000152117
0.000101614
7.35027e-05
5.87788e-05
5.13153e-05
4.79094e-05
4.61174e-05
4.48047e-05
4.34994e-05
4.2061e-05
4.06024e-05
3.98289e-05
4.32312e-05
7.43497e-05
0.000331701
0.00245841
0.0100986
0.00315276
0.00807373
0.0137719
0.00969246
0.00593274
0.00356897
0.00222689
0.0014904
0.0010927
0.000869256
0.000743653
0.000685945
0.000689907
0.000749882
0.000843678
0.00093106
0.000967535
0.000925621
0.000805418
0.00063448
0.000451326
0.000291962
0.000176585
0.00010667
6.93104e-05
5.24118e-05
4.42952e-05
4.04742e-05
3.90722e-05
3.84873e-05
3.80352e-05
3.74267e-05
3.66077e-05
3.58643e-05
3.68649e-05
4.97854e-05
0.000157141
0.000703581
0.0026239
0.00772712
0.00292388
0.00612398
0.0101658
0.00778999
0.00531192
0.00356979
0.00246881
0.00178771
0.00136811
0.00109295
0.000926128
0.000859196
0.000886199
0.000981701
0.001096
0.00116828
0.00114968
0.00102725
0.0008223
0.000585942
0.000367597
0.000207203
0.000114021
7.19236e-05
5.22148e-05
4.27863e-05
3.79827e-05
3.56179e-05
3.47761e-05
3.44873e-05
3.43156e-05
3.40732e-05
3.37977e-05
3.41818e-05
3.93878e-05
7.54946e-05
0.000278144
0.000998816
0.00273931
0.00576614
0.00261204
0.00617876
0.00780931
0.00680211
0.00473835
0.00336489
0.00246185
0.00186539
0.00146214
0.00119456
0.00106463
0.00107005
0.00117917
0.00132747
0.00143564
0.00143731
0.0013012
0.00105321
0.000743575
0.000456423
0.000237848
0.000130838
8.19201e-05
6.02386e-05
4.94198e-05
4.3145e-05
3.91337e-05
3.66729e-05
3.55446e-05
3.51222e-05
3.51085e-05
3.54128e-05
3.61917e-05
3.85018e-05
4.79581e-05
9.31359e-05
0.000292648
0.000940741
0.00246912
0.00552835
0.00251737
0.00454387
0.00511256
0.00418456
0.00336164
0.00263968
0.00207008
0.00164901
0.00136192
0.00124508
0.00130047
0.00147712
0.00168425
0.00182103
0.00181391
0.00163736
0.00130556
0.000914128
0.000521437
0.000279678
0.000155896
0.000102964
8.02556e-05
6.86935e-05
6.09792e-05
5.48467e-05
4.98502e-05
4.6227e-05
4.44064e-05
4.40798e-05
4.5076e-05
4.75022e-05
5.16857e-05
5.87245e-05
7.34797e-05
0.000116474
0.000262855
0.000729944
0.00202857
0.00462403
0.00311639
0.00140123
0.00143164
0.00143405
0.00135497
0.0013127
0.00142437
0.00170859
0.00204254
0.00230332
0.00240021
0.00228594
0.00197684
0.00153434
0.00098616
0.00057377
0.000315692
0.000190256
0.000138145
0.000116997
0.000106134
9.8156e-05
9.07573e-05
8.35074e-05
7.68781e-05
7.19489e-05
7.00754e-05
7.17138e-05
7.71677e-05
8.70944e-05
0.000102097
0.000123023
0.00015338
0.000207063
0.000329038
0.000661511
0.00204851
0.00368373
0.00331145
0.00118788
0.00171861
0.00195623
0.00231285
0.00276083
0.00316478
0.00334209
0.00330523
0.00307954
0.00268812
0.00212208
0.00150739
0.000976891
0.000577924
0.000347404
0.000239048
0.000196022
0.00017865
0.000169467
0.000162438
0.000155648
0.000148485
0.000141096
0.000134477
0.000130492
0.000131547
0.000139028
0.000154593
0.000180199
0.000217612
0.000268812
0.000338387
0.000439976
0.000612189
0.000975966
0.002306
0.00363726
0.00349489
0.00741763
0.00804955
0.00480581
0.00340781
0.00374538
0.00415718
0.00416956
0.00395632
0.00359623
0.00313801
0.00262959
0.00208685
0.0015399
0.00105892
0.000700357
0.000478587
0.000369819
0.000323706
0.000303203
0.000291971
0.000284759
0.000279694
0.000275516
0.000271077
0.000265833
0.000260649
0.000258329
0.000262399
0.000275053
0.00029948
0.000339187
0.000398453
0.000482916
0.000601756
0.000773477
0.00104045
0.00151191
0.00251661
0.00418986
0.00304998
0.00650401
0.0051275
0.00437345
0.00462796
0.00455127
0.00428393
0.00370214
0.0030538
0.00246604
0.00197145
0.00156724
0.0012439
0.000993175
0.000811657
0.000691693
0.000613744
0.000558637
0.000520037
0.000494131
0.000479486
0.000475381
0.00048062
0.000493147
0.000510232
0.000529041
0.000547413
0.000564487
0.000581479
0.000604048
0.000637505
0.000687044
0.000758803
0.000861668
0.00101116
0.00123736
0.00159506
0.00217194
0.00325626
0.00519409
0.00285672
0.0053605
0.0033699
0.00332038
0.00361817
0.0038777
0.00354023
0.00294161
0.00233479
0.00182011
0.00141122
0.00109265
0.000848064
0.000667698
0.000545077
0.000471778
0.00043732
0.000427045
0.000429377
0.000441655
0.000462712
0.000491221
0.000525257
0.000562588
0.000601209
0.000639839
0.000678284
0.000717672
0.000759657
0.000806384
0.000861341
0.000927451
0.00100705
0.00110224
0.00121604
0.00135535
0.00154135
0.00182451
0.00225716
0.00285303
0.00251973
)
;

boundaryField
{
    floor
    {
        Cmu             0.09;
        kappa           0.41;
        E               9.8;
        type            epsilonWallFunction;
        value           nonuniform List<scalar> 
36
(
0.000860859
8.951e-05
0.00026252
0.000268985
0.000249957
0.000220147
0.000184143
0.000152383
0.000126551
0.000105921
8.94491e-05
7.62978e-05
6.56456e-05
5.685e-05
4.93839e-05
4.27747e-05
3.65238e-05
3.1821e-05
2.36017e-05
2.36017e-05
4.80725e-05
7.07434e-05
9.43654e-05
0.000159904
0.000367897
0.000321068
0.000860859
0.0011297
0.000979089
0.00085865
8.951e-05
0.00085865
0.00051163
0.00158416
0.00102801
0.00156542
)
;
    }
    ceiling
    {
        Cmu             0.09;
        kappa           0.41;
        E               9.8;
        type            epsilonWallFunction;
        value           nonuniform List<scalar> 
43
(
0.0053605
0.0033699
0.00332038
0.00361817
0.0038777
0.00354023
0.00294161
0.00233479
0.00182011
0.00141122
0.00109265
0.000848064
0.000667698
0.000545077
0.000471778
0.00043732
0.000427045
0.000429377
0.000441655
0.000462712
0.000491221
0.000525257
0.000562588
0.000601209
0.000639839
0.000678284
0.000717672
0.000759657
0.000806384
0.000861341
0.000927451
0.00100705
0.00110224
0.00121604
0.00135535
0.00154135
0.00182451
0.00225716
0.00285303
0.00251973
0.00454387
0.00511256
0.00118788
)
;
    }
    sWall
    {
        Cmu             0.09;
        kappa           0.41;
        E               9.8;
        type            epsilonWallFunction;
        value           nonuniform List<scalar> 9(0.0130048 0.0106909 0.00807373 0.00612398 0.00617876 0.00454387 0.00741763 0.00650401 0.0053605);
    }
    nWall
    {
        Cmu             0.09;
        kappa           0.41;
        E               9.8;
        type            epsilonWallFunction;
        value           nonuniform List<scalar> 
14
(
0.000321068
0.000548901
0.000900327
0.00315658
0.00315276
0.00292388
0.00261204
0.00251737
0.00311639
0.00331145
0.00349489
0.00304998
0.00285672
0.00251973
)
;
    }
    sideWalls
    {
        type            empty;
    }
    glass1
    {
        Cmu             0.09;
        kappa           0.41;
        E               9.8;
        type            epsilonWallFunction;
        value           nonuniform List<scalar> 9(0.000253108 0.000796963 0.00163054 0.00285334 0.00454566 0.00676299 0.00967097 0.0127575 0.0138268);
    }
    glass2
    {
        Cmu             0.09;
        kappa           0.41;
        E               9.8;
        type            epsilonWallFunction;
        value           nonuniform List<scalar> 2(0.00202995 0.00292241);
    }
    sun
    {
        Cmu             0.09;
        kappa           0.41;
        E               9.8;
        type            epsilonWallFunction;
        value           nonuniform List<scalar> 
14
(
0.000253108
0.000306329
0.000302987
0.000344174
0.000385063
0.000424905
0.000464393
0.000504714
0.000547604
0.000595777
0.000644275
0.000692704
0.000742708
0.000799084
)
;
    }
    Table_master
    {
        Cmu             0.09;
        kappa           0.41;
        E               9.8;
        type            epsilonWallFunction;
        value           nonuniform List<scalar> 9(0.00055113 0.000362395 0.00025062 0.000181272 0.000136261 0.000105902 8.47676e-05 6.98109e-05 5.94542e-05);
    }
    Table_slave
    {
        Cmu             0.09;
        kappa           0.41;
        E               9.8;
        type            epsilonWallFunction;
        value           nonuniform List<scalar> 9(0.000813944 0.000612432 0.000481645 0.000388293 0.000318962 0.000264198 0.000218662 0.000178934 0.000141773);
    }
    inlet
    {
        type            turbulentMixingLengthDissipationRateInlet;
        mixingLength    0.01;
        phi             phi;
        k               k;
        value           uniform 0.000471671;
    }
    outlet
    {
        type            zeroGradient;
    }
}


// ************************************************************************* //
