/*--------------------------------*- C++ -*----------------------------------*\
  =========                 |
  \\      /  F ield         | OpenFOAM: The Open Source CFD Toolbox
   \\    /   O peration     | Website:  https://openfoam.org
    \\  /    A nd           | Version:  6
     \\/     M anipulation  |
\*---------------------------------------------------------------------------*/
FoamFile
{
    version     2.0;
    format      ascii;
    class       volScalarField;
    location    "32199.9999977795196";
    object      nut;
}
// * * * * * * * * * * * * * * * * * * * * * * * * * * * * * * * * * * * * * //

dimensions      [0 2 -1 0 0 0 0];

internalField   nonuniform List<scalar> 
778
(
0.000894294
0.000953033
0.000949555
0.000990767
0.00102854
0.00106286
0.00109482
0.00112563
0.00115665
0.00118962
0.00122106
0.00125092
0.00128032
0.00131192
0.0013449
0.000632416
0.00090524
0.000912609
0.00089056
0.000853649
0.000804317
0.000755129
0.000709794
0.000668915
0.000632269
0.000599626
0.000570311
0.000543609
0.000518687
0.000494431
0.000469067
0.000448004
0.000405532
0.00131076
0.00258099
0.00226496
0.00261422
0.00286762
0.0031363
0.00340435
0.00365146
0.00385043
0.00396634
0.00403447
0.00400641
0.00380647
0.0033113
0.00241826
0.00147242
0.00140384
0.00134374
0.00113074
0.0019263
0.00266999
0.00310932
0.00312993
0.00247034
0.00211267
0.0018649
0.0016769
0.00152731
0.00139963
0.00128677
0.00118177
0.00107907
0.000986899
0.000907424
0.00102203
0.000514055
0.00166401
0.00360414
0.00267224
0.00382219
0.00427078
0.00465045
0.00499534
0.005299
0.00555635
0.00575821
0.00595366
0.00615914
0.00634765
0.00645926
0.00638352
0.00584358
0.00427313
0.00164807
0.00142685
0.00305275
0.00425964
0.00483029
0.00439224
0.00115911
0.00100794
0.000891345
0.000800113
0.000727498
0.000668872
0.000621039
0.000582126
0.000551786
0.000606699
0.000713653
0.00112989
0.000584708
0.00200522
0.00485798
0.00255727
0.00429822
0.00496246
0.00531799
0.00557951
0.00577311
0.00591776
0.00603513
0.00620171
0.0064828
0.00689253
0.00740724
0.00792406
0.00817743
0.00767631
0.00572318
0.00164156
0.0038051
0.00565818
0.00659817
0.00682929
0.00582924
0.00132001
0.00120059
0.0011082
0.0010314
0.000965951
0.000907162
0.000851725
0.000796658
0.000737178
0.000688833
0.000714052
0.00122317
0.000643645
0.00234195
0.00643248
0.00258011
0.0040866
0.00510798
0.00541127
0.00552161
0.00552624
0.00547182
0.00542373
0.00549373
0.00576693
0.00626767
0.0069762
0.00779762
0.00855403
0.00903398
0.00902824
0.00810322
0.00824624
0.00843496
0.0084606
0.00828782
0.00775674
0.00617232
0.00533157
0.00475585
0.0042876
0.00382889
0.00338474
0.0029502
0.00251613
0.00207005
0.00159012
0.00121348
0.00121203
0.000958813
0.000767362
0.00101321
0.000968154
0.00267357
0.00819555
0.00303751
0.00344658
0.00489472
0.00523125
0.00520474
0.00501787
0.00475057
0.00453012
0.0045255
0.00481166
0.00538213
0.00620347
0.00716478
0.00812489
0.00894314
0.00946621
0.00956175
0.00946591
0.00929757
0.00905873
0.008752
0.00836206
0.00779339
0.00724584
0.00674888
0.00626799
0.00574931
0.00519568
0.00460438
0.00397024
0.00328923
0.00256672
0.00191279
0.00143625
0.00111457
0.00125397
0.0021807
0.0011576
0.00301209
0.00982705
0.00404793
0.00282375
0.00439858
0.00494869
0.00488795
0.00458521
0.00414588
0.00375928
0.00374827
0.00410933
0.00476198
0.00567941
0.00672404
0.00775824
0.00864901
0.00928765
0.00958181
0.00955929
0.00934906
0.00903056
0.00866598
0.00830242
0.00795092
0.00762853
0.0073258
0.00700232
0.00661205
0.00614247
0.00558648
0.00494131
0.00420962
0.00341047
0.00262981
0.00190125
0.00139957
0.00125415
0.00221187
0.00136528
0.00330344
0.0110642
0.00552015
0.00268854
0.00348504
0.00438765
0.00451342
0.00426437
0.00374563
0.00321898
0.00333857
0.00381589
0.00454522
0.00549038
0.00657449
0.00765692
0.00858114
0.0092241
0.00951673
0.00947917
0.00920799
0.00880776
0.00837733
0.00799568
0.00770149
0.00749135
0.00732756
0.00714933
0.00690159
0.00655489
0.00609536
0.00552024
0.00483542
0.00406209
0.00325927
0.00244587
0.00171397
0.00113556
0.00322754
0.00179063
0.00339327
0.0104839
0.00683645
0.00347633
0.00236275
0.00289671
0.00338917
0.00343026
0.00302912
0.00294461
0.00325075
0.00381164
0.00459943
0.00560087
0.00673647
0.00785202
0.0087731
0.00936672
0.00957594
0.00943341
0.00904027
0.00852442
0.00801279
0.00760473
0.0073457
0.00721849
0.0071609
0.00709248
0.00695027
0.00670007
0.0063282
0.00583326
0.00522223
0.00451287
0.0037359
0.00286411
0.00169788
0.00138106
0.00498174
0.00202137
0.00332465
0.00845873
0.00706625
0.0047751
0.00315213
0.00244087
0.00231262
0.00242178
0.00262542
0.0029499
0.00340941
0.00403995
0.00489576
0.00597469
0.00717171
0.00830305
0.00917631
0.00965814
0.00970918
0.00938647
0.00881783
0.00816363
0.00758024
0.00718078
0.00699763
0.00697608
0.00701577
0.00701509
0.00692326
0.00672076
0.00640099
0.00596374
0.00541367
0.00475609
0.00396167
0.0028247
0.00136568
0.00225023
0.00511168
0.00207425
0.00311446
0.00723192
0.0068354
0.00546785
0.00420608
0.00338547
0.0029802
0.00288913
0.00305787
0.00336764
0.00381628
0.00448073
0.00542482
0.00660727
0.00786535
0.00897325
0.00972636
0.0100071
0.00981024
0.00923424
0.00845231
0.00767032
0.00707714
0.00677937
0.00674449
0.0068419
0.00694074
0.00694251
0.00684584
0.00664952
0.00634933
0.00594164
0.00542282
0.00476517
0.00379892
0.00227003
0.00142627
0.00282898
0.00519654
0.00207401
0.0028362
0.00652152
0.00659563
0.00579054
0.0049241
0.00427259
0.00388942
0.0037525
0.00378785
0.00397472
0.00438552
0.00512654
0.00621747
0.00752747
0.0088133
0.00981131
0.0103264
0.0102837
0.00973712
0.00884786
0.00785788
0.00703244
0.00656548
0.00646995
0.00655009
0.00668028
0.00676666
0.00674342
0.00663133
0.0064319
0.00613824
0.00574064
0.00521898
0.00446822
0.00308835
0.00157456
0.00182003
0.00321744
0.00487755
0.00202313
0.00258657
0.0058338
0.00629882
0.0059175
0.00536099
0.004894
0.00458377
0.00443261
0.00438762
0.00454585
0.00506592
0.00603365
0.00735428
0.00877389
0.00997844
0.0107035
0.0108081
0.0102969
0.00931495
0.00811141
0.00702612
0.00632884
0.00601737
0.00597263
0.0060587
0.00618171
0.00626422
0.00624497
0.00613433
0.00593203
0.00563022
0.00521452
0.00463579
0.00367284
0.00214718
0.0015066
0.00221458
0.00339422
0.00428283
0.00194839
0.00259425
0.00579009
0.00643548
0.00598959
0.00553913
0.0051705
0.00490486
0.00473258
0.00472387
0.00510746
0.0060251
0.00739731
0.00894814
0.0103223
0.0112037
0.0114025
0.0108934
0.0097934
0.00838487
0.00702409
0.00603613
0.0054451
0.00515567
0.00507778
0.00513238
0.00524291
0.00533146
0.00532075
0.00520258
0.00497452
0.00463472
0.00418434
0.00360547
0.00279977
0.00184972
0.00160912
0.00238121
0.00351955
0.00451725
0.00192285
0.00234164
0.00243553
0.00359193
0.00421887
0.00441211
0.00441442
0.00437093
0.00445007
0.00498576
0.00612928
0.00773821
0.0094765
0.0109681
0.0118983
0.0120784
0.0114664
0.0102099
0.0085488
0.00696331
0.00571845
0.0048703
0.00436841
0.00412373
0.00403791
0.00404269
0.00408751
0.00411497
0.00405405
0.00387663
0.00358943
0.0032204
0.00282218
0.00244802
0.00211341
0.00182557
0.00181108
0.00248447
0.00376898
0.00479736
0.00206406
0.000807708
0.00146586
0.00226283
0.00290445
0.00364619
0.00490034
0.00674384
0.00878889
0.0106519
0.0120488
0.0127863
0.0127365
0.0118977
0.0103532
0.00850689
0.00674916
0.00534382
0.0043861
0.00384274
0.00356102
0.00340929
0.00331971
0.00326042
0.00320757
0.00313
0.00299268
0.00278303
0.0025324
0.00229631
0.00212741
0.00204617
0.00204372
0.00211682
0.00232857
0.00291889
0.00442727
0.00498444
0.00210752
0.00149728
0.00207888
0.00303656
0.00474633
0.00706545
0.00938896
0.0111913
0.0124947
0.0132883
0.0135198
0.0130921
0.0119056
0.0101403
0.00813434
0.00628094
0.00487007
0.00401383
0.00357192
0.00334227
0.00320806
0.0031221
0.00306397
0.00301875
0.00296903
0.00289445
0.00278211
0.00264639
0.00252121
0.00244336
0.00243496
0.00249598
0.00261726
0.00280653
0.00311698
0.00369624
0.00512537
0.00539292
0.00214592
0.00275718
0.00666572
0.0061257
0.00548347
0.00698221
0.00932313
0.0113025
0.0126407
0.0133482
0.0135284
0.0132685
0.0125331
0.0112837
0.00957552
0.00764436
0.00585678
0.00458899
0.00388732
0.00352776
0.00332596
0.00320421
0.00313748
0.003115
0.00312462
0.00314873
0.00316596
0.00315781
0.00312196
0.00308426
0.00306444
0.00307582
0.00312432
0.0032076
0.00332092
0.00346997
0.00368641
0.00404696
0.00470689
0.00503074
0.00205121
0.00263899
0.00510057
0.00658872
0.00841305
0.00934939
0.0103227
0.0108947
0.0110385
0.010832
0.0103334
0.00956876
0.00855255
0.00733782
0.00607012
0.00497078
0.00417485
0.00364794
0.0033136
0.00309407
0.00295463
0.00288551
0.00288295
0.00293932
0.00303901
0.00315812
0.00326798
0.00334329
0.00338181
0.00341426
0.00345775
0.00352107
0.00360735
0.00371651
0.00384966
0.00401418
0.00421292
0.00444323
0.00491103
0.00543409
0.00200767
0.00247428
0.00211959
0.00210917
0.00217044
0.00222116
0.00215479
0.00202582
0.00187575
0.00172643
0.00158613
0.00145652
0.00133852
0.00123586
0.00115488
0.00110049
0.00107302
0.00106454
0.00106654
0.0010767
0.00109362
0.00111564
0.00114076
0.00116703
0.00119297
0.00121781
0.00124156
0.00126501
0.00128911
0.00131497
0.00134416
0.00137767
0.00141594
0.00145915
0.00150773
0.00156355
0.00163314
0.00172909
0.00185728
0.00200812
0.0019247
)
;

boundaryField
{
    floor
    {
        type            nutkWallFunction;
        Cmu             0.09;
        kappa           0.41;
        E               9.8;
        value           nonuniform List<scalar> 
36
(
0.00016058
7.63878e-05
0.000109507
0.000110383
0.000107758
0.000103347
9.74159e-05
9.14595e-05
8.59285e-05
8.09052e-05
7.63706e-05
7.23044e-05
6.86298e-05
6.52626e-05
6.21014e-05
5.90066e-05
5.57501e-05
5.30289e-05
4.74916e-05
4.74915e-05
6.15114e-05
7.04369e-05
7.77814e-05
9.29442e-05
0.000122253
0.000116958
0.00016058
0.000175012
0.000167268
0.000160448
7.63878e-05
0.000160448
0.000135986
0.000194669
0.000169869
0.000193943
)
;
    }
    ceiling
    {
        type            nutkWallFunction;
        Cmu             0.09;
        kappa           0.41;
        E               9.8;
        value           nonuniform List<scalar> 
43
(
0.00028438
0.000246316
0.00024519
0.000251818
0.000257293
0.00025015
0.00023618
0.000219792
0.00020334
0.000187739
0.000173192
0.00015983
0.000148105
0.000138784
0.000132482
0.000129281
0.000128292
0.00012852
0.000129698
0.000131664
0.000134224
0.000137145
0.000140198
0.000143208
0.000146084
0.000148829
0.00015153
0.000154297
0.000157255
0.000160584
0.000164397
0.000168741
0.000173629
0.0001791
0.000185337
0.000193016
0.000203544
0.000217579
0.00023406
0.000225125
0.000270419
0.000280451
0.000177601
)
;
    }
    sWall
    {
        type            nutkWallFunction;
        Cmu             0.09;
        kappa           0.41;
        E               9.8;
        value           nonuniform List<scalar> 9(0.000373889 0.000352084 0.000322984 0.000296627 0.000297439 0.000270508 0.00031436 0.000301915 0.000284482);
    }
    nWall
    {
        type            nutkWallFunction;
        Cmu             0.09;
        kappa           0.41;
        E               9.8;
        value           nonuniform List<scalar> 
14
(
0.000116965
0.000139109
0.000162905
0.000241492
0.000241418
0.000235844
0.000227707
0.000225056
0.000240496
0.000245108
0.000249251
0.000238945
0.000234153
0.00022516
)
;
    }
    sideWalls
    {
        type            empty;
    }
    glass1
    {
        type            nutkWallFunction;
        Cmu             0.09;
        kappa           0.41;
        E               9.8;
        value           nonuniform List<scalar> 9(0.000108246 0.00015688 0.000196734 0.000234346 0.000270788 0.000306136 0.000341749 0.000372069 0.000381371);
    }
    glass2
    {
        type            nutkWallFunction;
        Cmu             0.09;
        kappa           0.41;
        E               9.8;
        value           nonuniform List<scalar> 2(0.000210554 0.000235888);
    }
    sun
    {
        type            nutkWallFunction;
        Cmu             0.09;
        kappa           0.41;
        E               9.8;
        value           nonuniform List<scalar> 
14
(
0.000108205
0.000115177
0.000114765
0.00011963
0.00012407
0.000128086
0.000131812
0.000135394
0.000138988
0.000142797
0.000146417
0.000149846
0.000153214
0.000156824
)
;
    }
    Table_master
    {
        type            nutkWallFunction;
        Cmu             0.09;
        kappa           0.41;
        E               9.8;
        value           nonuniform List<scalar> 9(0.000139265 0.000121645 0.000107849 9.69082e-05 8.80951e-05 8.09036e-05 7.49802e-05 7.01208e-05 6.63044e-05);
    }
    Table_slave
    {
        type            nutkWallFunction;
        Cmu             0.09;
        kappa           0.41;
        E               9.8;
        value           nonuniform List<scalar> 9(0.000157733 0.000144052 0.000133361 0.000124398 0.000116699 0.000109732 0.000103114 9.64909e-05 8.92758e-05);
    }
    inlet
    {
        type            calculated;
        value           uniform 0.000167705;
    }
    outlet
    {
        type            calculated;
        value           nonuniform List<scalar> 2(0.00275718 0.00666572);
    }
}


// ************************************************************************* //
