/*--------------------------------*- C++ -*----------------------------------*\
  =========                 |
  \\      /  F ield         | OpenFOAM: The Open Source CFD Toolbox
   \\    /   O peration     | Website:  https://openfoam.org
    \\  /    A nd           | Version:  6
     \\/     M anipulation  |
\*---------------------------------------------------------------------------*/
FoamFile
{
    version     2.0;
    format      ascii;
    class       volScalarField;
    location    "930";
    object      epsilon;
}
// * * * * * * * * * * * * * * * * * * * * * * * * * * * * * * * * * * * * * //

dimensions      [0 2 -3 0 0 0 0];

internalField   nonuniform List<scalar> 
458
(
0.000432885
0.000558012
0.000596709
0.000686517
0.000776825
0.000869323
0.000968927
0.00107755
0.00117215
0.0012343
0.00124139
0.00117493
0.00102232
0.000744101
0.000325004
3.92372e-05
6.32092e-05
9.21143e-05
0.000104428
9.96048e-05
8.16233e-05
6.44097e-05
5.12249e-05
4.13737e-05
3.39177e-05
2.81894e-05
2.37401e-05
2.02094e-05
1.73151e-05
1.48385e-05
1.26014e-05
1.13848e-05
8.83788e-06
0.00106117
0.00158355
0.000518642
0.000502817
0.000518684
0.000551187
0.000606572
0.000688826
0.000780115
0.000854353
0.000882426
0.000848135
0.000757139
0.000624151
0.00050215
0.000747519
0.000426867
0.00023184
3.82973e-05
7.53731e-05
9.27697e-05
9.34621e-05
8.97654e-05
9.00678e-05
7.05842e-05
5.35098e-05
4.08176e-05
3.15441e-05
2.47461e-05
1.97268e-05
1.59707e-05
1.31711e-05
1.14082e-05
1.06903e-05
3.04845e-05
2.0074e-05
0.00190736
0.00384805
0.000603971
0.000458475
0.000466238
0.000508418
0.000580779
0.000684056
0.000797597
0.000884879
0.00091855
0.000888409
0.000802385
0.000667439
0.000517856
0.000416606
0.000353243
0.00038202
0.000139906
0.000139235
0.000125605
0.000111559
0.000103569
0.000198209
0.000133003
9.11517e-05
6.45377e-05
4.72936e-05
3.58178e-05
2.79906e-05
2.25668e-05
1.88697e-05
1.48302e-05
1.3129e-05
6.48614e-05
3.31309e-05
0.00306318
0.00799471
0.000904102
0.000439135
0.00042939
0.000481456
0.000575254
0.00071834
0.000863203
0.000958626
0.000989887
0.00095353
0.000855737
0.000703715
0.000548809
0.000432612
0.000366089
0.000380704
0.000584134
0.000376019
0.000245309
0.000178389
0.000140556
0.000123074
0.00028336
0.000218255
0.000180168
0.000155094
0.0001358
0.000118273
0.000103093
8.85275e-05
7.33222e-05
4.54071e-05
2.92955e-05
0.000114626
5.06227e-05
0.00465014
0.0144274
0.00174084
0.000471048
0.000395793
0.000451826
0.000589247
0.000833352
0.00101906
0.0011124
0.00112897
0.0010698
0.000937937
0.000754083
0.000565131
0.00042028
0.000331844
0.000302845
0.00030395
0.000253727
0.000209495
0.000175225
0.000146395
0.000122154
0.000113138
0.000103876
9.75883e-05
9.22355e-05
8.62328e-05
7.87948e-05
7.09049e-05
6.31724e-05
5.59142e-05
4.60363e-05
3.6194e-05
7.47503e-05
0.000114576
0.000120965
0.000143501
0.000184279
0.00687231
0.0217349
0.00400267
0.000791133
0.000465369
0.000474371
0.000701374
0.00112067
0.0013069
0.00136658
0.00134427
0.00124681
0.00106777
0.000825623
0.000577915
0.000388933
0.000278992
0.00023867
0.000228366
0.000218373
0.000201262
0.000176881
0.000149404
0.000123843
0.000107396
0.000100959
9.97866e-05
9.93761e-05
9.72324e-05
9.1688e-05
8.17289e-05
7.04629e-05
5.98154e-05
5.0154e-05
4.34446e-05
5.55246e-05
8.83472e-05
0.000106123
0.000206697
0.000205617
0.00965931
0.0261941
0.00879708
0.00280216
0.00145529
0.00114199
0.00148441
0.00172769
0.00178689
0.00174998
0.00165062
0.00148423
0.00123055
0.000908524
0.000588502
0.000356089
0.000234656
0.000200356
0.000202515
0.00020316
0.000190173
0.00016698
0.000141446
0.000120285
0.000109128
0.000108592
0.000113693
0.000120179
0.000125747
0.000128192
0.000124112
0.000111102
9.75026e-05
8.59483e-05
8.04604e-05
8.87334e-05
0.000120593
0.000176783
0.000327322
0.000344819
0.0104473
0.0300929
0.0160953
0.00965394
0.00597203
0.00418281
0.00338525
0.00287722
0.00253917
0.00228218
0.00204008
0.00176184
0.0013978
0.000968736
0.000561557
0.000300624
0.000190517
0.000174518
0.000179772
0.000177252
0.000162325
0.000142057
0.000124199
0.000113588
0.000112264
0.000119082
0.000131188
0.000146868
0.000165746
0.00018773
0.000212029
0.000232948
0.000246028
0.000273146
0.000329109
0.000480081
0.00082043
0.00137751
0.00410975
0.00128196
0.00984389
0.0172558
0.0132406
0.00999045
0.00750854
0.0057947
0.00459056
0.00379178
0.00325223
0.00282495
0.0024281
0.00200738
0.0014844
0.000914331
0.000407119
0.000216186
0.000158981
0.000147634
0.000144556
0.000137023
0.000124676
0.000112545
0.000105009
0.000104131
0.000109964
0.000121527
0.000138069
0.000159895
0.000188359
0.000225714
0.000275028
0.000339921
0.000427245
0.000551957
0.000734023
0.000976697
0.00125093
0.0014986
0.00170344
0.00104497
0.00347888
0.00472019
0.00512317
0.0050288
0.00473404
0.00432106
0.00378487
0.00315968
0.00254912
0.00194906
0.00116371
0.000536506
0.00025452
0.000159688
0.000129175
0.000118204
0.000110933
0.000103111
9.5454e-05
8.996e-05
8.84271e-05
9.12852e-05
9.81438e-05
0.000108599
0.000122652
0.000140884
0.00016454
0.000195748
0.000237975
0.000296997
0.000378459
0.000488593
0.000629959
0.000786469
0.000911337
0.000944859
0.000871321
0.000544329
0.00289501
0.00862267
0.00828445
0.00717514
0.00607711
0.00479112
0.00347969
0.00225731
0.00128342
0.000710177
0.0003752
0.000215336
0.000151173
0.000124071
0.000110981
0.00010209
9.41002e-05
8.69398e-05
8.16095e-05
7.88476e-05
7.89336e-05
8.19762e-05
8.79365e-05
9.6995e-05
0.000109673
0.000126879
0.000150004
0.000181122
0.00022319
0.000279978
0.000356615
0.000458303
0.000585874
0.000728689
0.000842151
0.000956402
0.000733741
0.000565832
0.00336792
0.00362374
0.00386697
0.00532534
0.00449697
0.00312927
0.00187909
0.00115804
0.000823718
0.000572335
0.000398485
0.000290055
0.000215272
0.000168068
0.000139694
0.000121118
0.000107434
9.65208e-05
8.80891e-05
8.26861e-05
8.07283e-05
8.21944e-05
8.66523e-05
9.34937e-05
0.000102641
0.00011423
0.000128604
0.000146351
0.000168428
0.000196475
0.000231992
0.000276312
0.000331596
0.000400523
0.000486101
0.000603737
0.000660694
0.00062093
0.000499653
0.000395296
)
;

boundaryField
{
    floor
    {
        Cmu             0.09;
        kappa           0.41;
        E               9.8;
        type            epsilonWallFunction;
        value           nonuniform List<scalar> 
36
(
0.000325004
3.92372e-05
6.32092e-05
9.21143e-05
0.000104428
9.96048e-05
8.16233e-05
6.44097e-05
5.12249e-05
4.13737e-05
3.39177e-05
2.81894e-05
2.37401e-05
2.02094e-05
1.73151e-05
1.48385e-05
1.26014e-05
1.13848e-05
8.83788e-06
8.83788e-06
2.0074e-05
3.31309e-05
5.06227e-05
0.000120965
0.000143501
0.000184279
0.000325004
0.000747519
0.000426867
0.00023184
3.92372e-05
0.00023184
3.82973e-05
0.00038202
0.000139906
0.000584134
)
;
    }
    ceiling
    {
        Cmu             0.09;
        kappa           0.41;
        E               9.8;
        type            epsilonWallFunction;
        value           nonuniform List<scalar> 
43
(
0.00336792
0.00362374
0.00386697
0.00532534
0.00449697
0.00312927
0.00187909
0.00115804
0.000823718
0.000572335
0.000398485
0.000290055
0.000215272
0.000168068
0.000139694
0.000121118
0.000107434
9.65208e-05
8.80891e-05
8.26861e-05
8.07283e-05
8.21944e-05
8.66523e-05
9.34937e-05
0.000102641
0.00011423
0.000128604
0.000146351
0.000168428
0.000196475
0.000231992
0.000276312
0.000331596
0.000400523
0.000486101
0.000603737
0.000660694
0.00062093
0.000499653
0.000395296
0.00984389
0.0172558
0.00289501
)
;
    }
    sWall
    {
        Cmu             0.09;
        kappa           0.41;
        E               9.8;
        type            epsilonWallFunction;
        value           uniform 0.00336792;
    }
    nWall
    {
        Cmu             0.09;
        kappa           0.41;
        E               9.8;
        type            epsilonWallFunction;
        value           nonuniform List<scalar> 6(0.000184279 0.000205617 0.000344819 0.000544329 0.000565832 0.000395296);
    }
    sideWalls
    {
        type            empty;
    }
    glass1
    {
        Cmu             0.09;
        kappa           0.41;
        E               9.8;
        type            epsilonWallFunction;
        value           nonuniform List<scalar> 9(0.000432885 0.00106117 0.00190736 0.00306318 0.00465014 0.00687231 0.00965931 0.0104473 0.00984389);
    }
    glass2
    {
        Cmu             0.09;
        kappa           0.41;
        E               9.8;
        type            epsilonWallFunction;
        value           nonuniform List<scalar> 2(0.00128196 0.00104497);
    }
    sun
    {
        Cmu             0.09;
        kappa           0.41;
        E               9.8;
        type            epsilonWallFunction;
        value           nonuniform List<scalar> 
14
(
0.000432885
0.000558012
0.000596709
0.000686517
0.000776825
0.000869323
0.000968927
0.00107755
0.00117215
0.0012343
0.00124139
0.00117493
0.00102232
0.000744101
)
;
    }
    Table_master
    {
        Cmu             0.09;
        kappa           0.41;
        E               9.8;
        type            epsilonWallFunction;
        value           nonuniform List<scalar> 9(0.000198209 0.000133003 9.11517e-05 6.45377e-05 4.72936e-05 3.58178e-05 2.79906e-05 2.25668e-05 1.88697e-05);
    }
    Table_slave
    {
        Cmu             0.09;
        kappa           0.41;
        E               9.8;
        type            epsilonWallFunction;
        value           nonuniform List<scalar> 9(0.00028336 0.000218255 0.000180168 0.000155094 0.0001358 0.000118273 0.000103093 8.85275e-05 7.33222e-05);
    }
    inlet
    {
        type            turbulentMixingLengthDissipationRateInlet;
        mixingLength    0.01;
        phi             phi;
        k               k;
        value           uniform 0.000471672;
    }
    outlet
    {
        type            zeroGradient;
    }
}


// ************************************************************************* //
