/*--------------------------------*- C++ -*----------------------------------*\
  =========                 |
  \\      /  F ield         | OpenFOAM: The Open Source CFD Toolbox
   \\    /   O peration     | Website:  https://openfoam.org
    \\  /    A nd           | Version:  6
     \\/     M anipulation  |
\*---------------------------------------------------------------------------*/
FoamFile
{
    version     2.0;
    format      ascii;
    class       volScalarField;
    location    "930";
    object      k;
}
// * * * * * * * * * * * * * * * * * * * * * * * * * * * * * * * * * * * * * //

dimensions      [0 2 -2 0 0 0 0];

internalField   nonuniform List<scalar> 
458
(
0.00226804
0.00268636
0.00280916
0.00308439
0.00334927
0.00361012
0.00388087
0.00416575
0.00440611
0.00456052
0.00457799
0.00441309
0.00402216
0.00325454
0.00187353
0.00045765
0.000628909
0.000808387
0.000878915
0.000851637
0.00074578
0.000636847
0.000546666
0.000474116
0.000415291
0.000367107
0.000327383
0.000294061
0.000265268
0.000239329
0.000214625
0.000200579
0.000169421
0.00412342
0.00755228
0.00415092
0.00437495
0.00471695
0.00513641
0.00563368
0.00619817
0.0068023
0.00731476
0.00759003
0.00753247
0.00712483
0.00635526
0.0051389
0.0032645
0.00224697
0.00149575
0.000450312
0.000973183
0.00130338
0.00145854
0.00147294
0.00125956
0.0010245
0.000834129
0.000688827
0.000577388
0.000490711
0.000421547
0.000364727
0.000317462
0.000283528
0.000264393
0.00049383
0.000292746
0.00609568
0.0136493
0.00491232
0.00472594
0.00494272
0.00528738
0.00575243
0.00634273
0.00699598
0.00755275
0.00789479
0.00795198
0.00769521
0.00706181
0.00603802
0.00488913
0.00391923
0.00208669
0.00106813
0.00139974
0.00160371
0.0017306
0.00172308
0.00134736
0.0010327
0.000802745
0.000637691
0.000518326
0.000430659
0.000365378
0.000316505
0.000280917
0.000262158
0.000265452
0.000780268
0.000408843
0.00835955
0.0222363
0.0059281
0.00470792
0.00474762
0.00501779
0.0054752
0.00616982
0.00689457
0.00746526
0.00783621
0.00795611
0.0077505
0.0071474
0.00628824
0.00543665
0.0046332
0.00350092
0.00276955
0.00250729
0.00237447
0.00233858
0.00229006
0.00215238
0.00170986
0.00143674
0.00126431
0.0011441
0.00104713
0.000954975
0.000871409
0.000787263
0.000694318
0.000530261
0.000422798
0.00113246
0.000542373
0.0110419
0.0339569
0.0084252
0.00475089
0.00448408
0.00470945
0.00530113
0.00635692
0.00718671
0.00774135
0.0080972
0.00819953
0.00790254
0.00718422
0.0062173
0.00531021
0.00458056
0.00397922
0.00379524
0.00348008
0.0032531
0.00307128
0.00285991
0.00259099
0.00230331
0.00210716
0.00198706
0.00189232
0.00179024
0.00166146
0.00149215
0.00129933
0.00109403
0.000865779
0.000664831
0.000922214
0.00106377
0.00096941
0.00108636
0.00128347
0.0143264
0.0466878
0.0149517
0.00592465
0.00474382
0.00478473
0.00570959
0.00726904
0.00803361
0.00847609
0.00874067
0.00874987
0.00832236
0.00738052
0.00612591
0.00496723
0.00418459
0.00384251
0.00381479
0.00382379
0.00373261
0.00350956
0.00319012
0.00283574
0.00254859
0.00239599
0.00232226
0.00226361
0.00218545
0.0020655
0.00187865
0.00164909
0.00140051
0.00114692
0.000935705
0.000900775
0.00103009
0.00105445
0.00165139
0.00138072
0.0179762
0.0550466
0.0270786
0.0123635
0.00831134
0.00741531
0.0085083
0.00921216
0.00948797
0.0096476
0.00973185
0.00958579
0.00894922
0.00771102
0.00611147
0.00469993
0.00388791
0.00373689
0.00389918
0.00398357
0.00385447
0.00355134
0.003172
0.00281286
0.00256825
0.0024692
0.00245223
0.00245748
0.00245531
0.00242482
0.0023363
0.00214751
0.00191093
0.0016592
0.00145744
0.00136477
0.0014511
0.00168162
0.00223401
0.00194893
0.0189411
0.0568404
0.0383017
0.0271736
0.0197459
0.0158857
0.0137289
0.0122911
0.0115385
0.0112144
0.011012
0.0106122
0.00964846
0.00799633
0.00597536
0.00439338
0.00367819
0.00365616
0.00378063
0.00375099
0.00351767
0.00317095
0.00282097
0.00255133
0.00240868
0.00238419
0.0024317
0.00251775
0.00263043
0.00276725
0.00292554
0.00306715
0.00310955
0.0031392
0.00329238
0.00386929
0.00511939
0.00681564
0.0128311
0.00467717
0.0182045
0.0264661
0.0243621
0.0217105
0.0188865
0.0164651
0.0146554
0.0135925
0.0130891
0.0127708
0.0123602
0.0115989
0.0100732
0.00777042
0.00516006
0.0038584
0.00340333
0.00331029
0.00325372
0.00309206
0.00282415
0.00252844
0.00228323
0.00213483
0.00208935
0.00212355
0.0022098
0.0023332
0.00249009
0.00268167
0.00290933
0.00317121
0.00348981
0.00390103
0.00444788
0.00509752
0.00569681
0.00606934
0.00624886
0.00408136
0.00718411
0.0110938
0.0135425
0.0147744
0.0154398
0.0157114
0.0153815
0.0144568
0.0132174
0.0115888
0.00880985
0.00585867
0.00403621
0.00322566
0.00288161
0.00270051
0.00252818
0.00231834
0.00209106
0.00188822
0.00175209
0.00169312
0.00169783
0.00174765
0.00182975
0.00193921
0.00207744
0.0022511
0.00247286
0.00276576
0.00313122
0.00356701
0.00405091
0.00449041
0.00471257
0.00457281
0.00410687
0.00264226
0.00805071
0.0194724
0.0216157
0.021506
0.0207331
0.018481
0.0153421
0.0120176
0.00883526
0.00623654
0.00435123
0.00326383
0.00271596
0.00241191
0.00221006
0.00203196
0.00184722
0.00166431
0.00150872
0.0013985
0.00133786
0.00132596
0.00135475
0.00141856
0.00151578
0.0016478
0.00181791
0.00203042
0.00229586
0.00262428
0.00302431
0.00349676
0.00401534
0.00451211
0.00481677
0.00510141
0.00428743
0.0027114
0.00890517
0.0093506
0.00976447
0.0120865
0.0107981
0.00847936
0.0060353
0.0043707
0.00348274
0.00273213
0.00214623
0.00173669
0.00142362
0.00120705
0.00106705
0.000970226
0.000895699
0.000833967
0.000784662
0.00075224
0.000740318
0.000749255
0.000776106
0.000816437
0.000868857
0.000933083
0.0010098
0.00110069
0.00120877
0.00133949
0.00149641
0.00168139
0.00189878
0.00215354
0.0024503
0.00283117
0.00300655
0.00288467
0.00249563
0.00213476
)
;

boundaryField
{
    floor
    {
        type            kqRWallFunction;
        value           nonuniform List<scalar> 
36
(
0.00187353
0.00045765
0.000628909
0.000808387
0.000878915
0.000851637
0.00074578
0.000636847
0.000546666
0.000474116
0.000415291
0.000367107
0.000327383
0.000294061
0.000265268
0.000239329
0.000214625
0.000200579
0.000169421
0.000169421
0.000292746
0.000408843
0.000542373
0.00096941
0.00108636
0.00128347
0.00187353
0.0032645
0.00224697
0.00149575
0.00045765
0.00149575
0.000450312
0.00208669
0.00106813
0.00276955
)
;
    }
    ceiling
    {
        type            kqRWallFunction;
        value           nonuniform List<scalar> 
43
(
0.00890517
0.0093506
0.00976447
0.0120865
0.0107981
0.00847936
0.0060353
0.0043707
0.00348274
0.00273213
0.00214623
0.00173669
0.00142362
0.00120705
0.00106705
0.000970226
0.000895699
0.000833967
0.000784662
0.00075224
0.000740318
0.000749255
0.000776106
0.000816437
0.000868857
0.000933083
0.0010098
0.00110069
0.00120877
0.00133949
0.00149641
0.00168139
0.00189878
0.00215354
0.0024503
0.00283117
0.00300655
0.00288467
0.00249563
0.00213476
0.0182045
0.0264661
0.00805071
)
;
    }
    sWall
    {
        type            kqRWallFunction;
        value           uniform 0.00890517;
    }
    nWall
    {
        type            kqRWallFunction;
        value           nonuniform List<scalar> 6(0.00128347 0.00138072 0.00194893 0.00264226 0.0027114 0.00213476);
    }
    sideWalls
    {
        type            empty;
    }
    glass1
    {
        type            kqRWallFunction;
        value           nonuniform List<scalar> 9(0.00226804 0.00412342 0.00609568 0.00835955 0.0110419 0.0143264 0.0179762 0.0189411 0.0182045);
    }
    glass2
    {
        type            kqRWallFunction;
        value           nonuniform List<scalar> 2(0.00467717 0.00408136);
    }
    sun
    {
        type            kqRWallFunction;
        value           nonuniform List<scalar> 
14
(
0.00226804
0.00268636
0.00280916
0.00308439
0.00334927
0.00361012
0.00388087
0.00416575
0.00440611
0.00456052
0.00457799
0.00441309
0.00402216
0.00325454
)
;
    }
    Table_master
    {
        type            kqRWallFunction;
        value           nonuniform List<scalar> 9(0.00134736 0.0010327 0.000802745 0.000637691 0.000518326 0.000430659 0.000365378 0.000316505 0.000280917);
    }
    Table_slave
    {
        type            kqRWallFunction;
        value           nonuniform List<scalar> 9(0.00170986 0.00143674 0.00126431 0.0011441 0.00104713 0.000954975 0.000871409 0.000787263 0.000694318);
    }
    inlet
    {
        type            turbulentIntensityKineticEnergyInlet;
        intensity       0.05;
        value           uniform 0.000937501;
    }
    outlet
    {
        type            zeroGradient;
    }
}


// ************************************************************************* //
