/*--------------------------------*- C++ -*----------------------------------*\
  =========                 |
  \\      /  F ield         | OpenFOAM: The Open Source CFD Toolbox
   \\    /   O peration     | Website:  https://openfoam.org
    \\  /    A nd           | Version:  6
     \\/     M anipulation  |
\*---------------------------------------------------------------------------*/
FoamFile
{
    version     2.0;
    format      ascii;
    class       surfaceScalarField;
    location    "3010";
    object      phi;
}
// * * * * * * * * * * * * * * * * * * * * * * * * * * * * * * * * * * * * * //

dimensions      [1 0 -1 0 0 0 0];

internalField   nonuniform List<scalar> 
850
(
-0.00305313
0.00311359
-0.00414585
0.00109272
-0.00501495
0.000869103
-0.00570381
0.00068886
-0.00617589
0.00047208
-0.00639713
0.000221242
-0.00632791
-6.92208e-05
-0.00592408
-0.000403835
-0.00517381
-0.000750266
-0.00412863
-0.00104518
-0.00290031
-0.00122832
-0.00164149
-0.00125882
-0.000538965
-0.00110252
0.00013595
-0.000674915
0.000138301
-0.000922434
0.000926091
-0.000690057
-0.000232377
-6.08425e-05
-0.000629215
0.000542601
-0.000603443
0.00100179
-0.000459185
0.00125836
-0.000256579
0.00136648
-0.000108118
0.0014193
-5.28182e-05
0.00144965
-3.03528e-05
0.00146472
-1.50665e-05
0.00146833
-3.61419e-06
0.00146134
6.99658e-06
0.00143809
2.32511e-05
0.00137957
5.85202e-05
0.00125365
0.000125917
0.00105007
0.000203574
0.000793441
0.000256634
0.00079828
-0.00220747
0.00548446
-0.00329514
0.00218039
-0.00420836
0.00178233
-0.00490614
0.00138663
-0.00538765
0.00095359
-0.00563058
0.000464177
-0.00559454
-0.000105258
-0.00524033
-0.000758047
-0.0045668
-0.00142379
-0.00364274
-0.00196925
-0.00258803
-0.00228303
-0.00154148
-0.00230537
-0.000628641
-0.00201536
9.29682e-05
-0.00139652
0.000872812
-0.000641543
0.00114865
-0.00027205
0.000956857
0.000196149
0.000969545
4.14887e-05
0.000895602
0.00042174
-0.000612628
0.000786634
-0.000994109
0.00109961
-0.000916416
0.00135046
-0.000710038
0.00140693
-0.000313046
0.00141506
-0.000116255
0.00142579
-6.35453e-05
0.00143478
-3.93388e-05
0.00144005
-2.03348e-05
0.00144221
-5.77547e-06
0.00144182
7.38764e-06
0.00143634
2.87303e-05
0.00139988
9.49748e-05
0.00124701
0.000278794
0.000978546
0.000472034
0.000644609
0.000590571
0.00145527
-0.00156234
0.00729723
-0.00251038
0.00312843
-0.00334302
0.00261497
-0.00396559
0.0020092
-0.00441316
0.00140116
-0.00466168
0.000712694
-0.00465601
-0.00011093
-0.0043347
-0.00107935
-0.00371315
-0.00204534
-0.00288871
-0.00279369
-0.00198658
-0.00318516
-0.00112264
-0.00316931
-0.000373433
-0.00276457
0.000240575
-0.00201053
0.000752088
-0.00115306
0.000899442
-0.000419403
0.000707543
0.000388047
0.00168835
0.00143724
-0.000527799
0.00163274
-0.000808132
0.00157515
-0.000936516
0.00160844
-0.000949708
0.00181171
-0.000913306
0.00149882
0.00138272
0.00131933
0.00128014
0.00125996
0.00125434
0.00126188
0.00129076
0.00138589
0.00115887
0.000505819
0.000869985
0.000760916
0.000498885
0.00096167
0.00197272
-0.00109548
0.00871735
-0.00185228
0.00388523
-0.00243661
0.00319929
-0.00288269
0.00245528
-0.00322781
0.00174629
-0.00344067
0.000925554
-0.00344208
-0.000109529
-0.00312365
-0.00139777
-0.00254778
-0.00262122
-0.00184605
-0.00349541
-0.00113039
-0.00390082
-0.000480663
-0.00381904
6.58136e-05
-0.00331105
0.000526413
-0.00247113
0.000902519
-0.00152916
0.0011196
-0.000636482
0.00130379
0.000203859
0.00225756
0.000734575
0.00216772
0.000101778
0.00199496
-0.000355039
0.001909
-0.000722169
0.0017982
-0.000825719
0.001666
-0.000817509
0.00143504
-0.000682346
0.00175865
-0.000323763
0.00193632
-0.000177818
0.00206724
-0.000131078
0.00216803
-0.000100937
0.00222825
-6.03749e-05
0.00222569
2.40839e-06
0.00213279
9.27393e-05
0.00191324
0.000219401
0.00150708
0.000406004
0.00126968
0.000743215
0.000902423
0.00112818
0.000384072
0.00148002
0.00238043
-0.000756058
0.00986113
-0.00132705
0.00445622
-0.00150962
0.00338186
-0.00168821
0.00263387
-0.00185319
0.00191127
-0.00196221
0.00103458
-0.00191375
-0.00015799
-0.00155671
-0.00175481
-0.00105569
-0.00312224
-0.000537777
-0.00401332
-7.32827e-05
-0.00436531
0.000305372
-0.00419769
0.000596543
-0.00360222
0.000849425
-0.00272401
0.00106877
-0.00174851
0.00127618
-0.000843893
0.00158686
-0.000106823
0.00203043
0.00029101
0.0020643
6.79048e-05
0.00199699
-0.000287731
0.0018125
-0.000537674
0.00162462
-0.000637843
0.00144753
-0.000640415
0.00131884
-0.000553658
0.0013776
-0.000382518
0.00146565
-0.000265876
0.00155012
-0.000215546
0.0016316
-0.000182421
0.00170174
-0.000130507
0.00174076
-3.66196e-05
0.0017247
0.000108806
0.00163843
0.000305665
0.0014862
0.00055824
0.00133011
0.000899303
0.00115113
0.00130716
0.000804087
0.00182706
0.00101981
0.00216471
-0.00109518
0.0021361
-0.00179343
0.000717873
-0.00172066
-0.000638727
0.0109406
-0.00101438
0.00483187
-0.000633422
0.00300091
-0.00044867
0.00244912
-0.00038404
0.00184664
-0.000303678
0.000954215
-5.18856e-05
-0.000409783
0.000334523
-0.00214122
0.000692208
-0.00347993
0.000952054
-0.00427317
0.00109507
-0.00450833
0.0011454
-0.00424802
0.00113929
-0.00359612
0.0011161
-0.00270082
0.00110064
-0.00173304
0.0011328
-0.000876061
0.00126987
-0.000243894
0.00148466
7.62273e-05
0.00153593
1.66338e-05
0.00143796
-0.00018976
0.00126358
-0.000363296
0.00108391
-0.000458175
0.000926604
-0.000483109
0.000821573
-0.000448627
0.000810769
-0.000371714
0.000860111
-0.000315218
0.000936278
-0.000291712
0.00102702
-0.000273164
0.00112585
-0.000229335
0.00122285
-0.000133622
0.00129576
3.5895e-05
0.00133283
0.000268603
0.00134813
0.00054294
0.00138214
0.000865285
0.00148259
0.00120671
0.00168607
0.00162358
0.00203681
0.00181398
0.00233694
0.00183597
0.00182999
0.00122483
0.000174764
-0.000763857
0.0121918
-0.000621463
0.00468948
0.000492312
0.00188713
0.000960668
0.00198076
0.00121803
0.00158927
0.00159954
0.000572704
0.00210284
-0.000913079
0.00244
-0.00247838
0.0025738
-0.00361373
0.00250625
-0.00420562
0.00227302
-0.0042751
0.00193605
-0.00391105
0.00155912
-0.00321918
0.00120036
-0.00234207
0.00089663
-0.0014293
0.000705095
-0.000684526
0.000653509
-0.000192308
0.00070468
2.50557e-05
0.00071277
8.54432e-06
0.000636512
-0.000113502
0.000509185
-0.000235969
0.000368883
-0.000317873
0.000242978
-0.000357205
0.000156863
-0.000362512
0.0001339
-0.000348751
0.000162907
-0.000344225
0.000222538
-0.000351342
0.000302994
-0.000353621
0.000405281
-0.000331622
0.000534371
-0.000262712
0.000687275
-0.000117009
0.000845213
0.000110665
0.00100721
0.000380939
0.00120906
0.000663436
0.00148366
0.000932117
0.00188404
0.0012232
0.00241743
0.00128058
0.00318504
0.00106836
0.00336162
0.00104824
0.0036052
0.00273597
0.00999915
0.00339175
0.0040337
0.0034494
0.00182948
0.00353508
0.00189508
0.00374636
0.00137799
0.00422229
9.67739e-05
0.00469345
-0.00138423
0.00478848
-0.00257341
0.00451414
-0.00333939
0.00396097
-0.00365245
0.0032298
-0.00354392
0.00242479
-0.00310605
0.00162794
-0.00242233
0.000922015
-0.00163615
0.00034734
-0.00085463
-2.54331e-06
-0.000334642
-0.000140852
-5.39991e-05
-0.000155273
3.94762e-05
-0.000163119
1.63901e-05
-0.000215245
-6.13753e-05
-0.000306064
-0.00014515
-0.000412293
-0.000211644
-0.000511613
-0.000257885
-0.00058588
-0.000288244
-0.000623875
-0.000310756
-0.000633085
-0.000335016
-0.000625257
-0.00035917
-0.00060469
-0.000374188
-0.000566405
-0.000369907
-0.000494184
-0.000334933
-0.00035672
-0.000254473
-0.000146591
-9.94646e-05
0.000104175
0.000130174
0.000388871
0.000378739
0.000707315
0.000613673
0.00108959
0.000840926
0.00150689
0.000863287
0.00189863
0.000676618
0.00120603
0.00174085
0.00509763
0.0105981
0.0146276
0.0125615
0.00389561
0.0112293
0.00322723
0.0103409
0.00226645
0.00953403
0.000903595
0.0085316
-0.000381804
0.00735266
-0.00139448
0.00607936
-0.00206609
0.00476051
-0.0023336
0.00342928
-0.00221269
0.00216422
-0.00184098
0.00100936
-0.00126747
5.63031e-05
-0.000683093
-0.000566116
-0.000232211
-0.000859699
-4.10594e-05
-0.000956832
4.31337e-05
-0.000976486
5.91304e-05
-0.000991869
3.17727e-05
-0.0010353
-1.79488e-05
-0.00110787
-7.25755e-05
-0.0011969
-0.000122613
-0.00128871
-0.000166078
-0.00137433
-0.000202623
-0.00145152
-0.000233566
-0.00152705
-0.000259481
-0.00161021
-0.000276014
-0.00170952
-0.000274874
-0.00183466
-0.000244774
-0.00199851
-0.000171079
-0.00221651
-3.64738e-05
-0.00248301
0.000167038
-0.00280699
0.000454147
-0.00327096
0.000842712
-0.00398816
0.00133088
-0.00502971
0.00188247
-0.00651692
0.0023505
-0.00825537
0.00241507
-0.00777182
0.00125729
-0.00235717
0.00895047
0.00560353
0.0074719
0.0047058
0.00708004
0.00265831
0.00672921
0.00125442
0.00611922
0.000228184
0.00524679
-0.000522046
0.00417818
-0.000997482
0.00298275
-0.00113817
0.00169114
-0.000921076
0.000430244
-0.000580087
-0.000609628
-0.000227597
-0.00127082
-2.18984e-05
-0.00156329
6.02559e-05
-0.00167796
7.36131e-05
-0.00170793
7.31011e-05
-0.00171369
6.48947e-05
-0.00172871
4.67852e-05
-0.00176751
2.08511e-05
-0.00183142
-8.66246e-06
-0.00191296
-4.10673e-05
-0.00200447
-7.4573e-05
-0.00210377
-0.000103318
-0.00221222
-0.000125119
-0.00233324
-0.000138463
-0.00246896
-0.000140288
-0.00261827
-0.00012557
-0.00277573
-8.73129e-05
-0.002929
-1.78081e-05
-0.00306255
9.70772e-05
-0.00317483
0.000279314
-0.00327577
0.00055509
-0.00337728
0.00094422
-0.0034861
0.0014397
-0.00356961
0.00196598
-0.00356798
0.00234887
-0.00331001
0.0021571
-0.00195001
-0.000102701
-0.00422386
-0.000826107
0.00648295
0.000742082
0.00313761
0.00140777
0.00199263
0.00164666
0.00101554
0.00158281
0.000292035
0.00121178
-0.000151016
0.000529528
-0.000315235
-0.000363912
-0.000244734
-0.00124121
-4.37784e-05
-0.00188647
6.51782e-05
-0.00222718
0.000113106
-0.00235813
0.000109052
-0.00238122
8.33488e-05
-0.00237099
6.33851e-05
-0.00234992
5.2032e-05
-0.00232936
4.43268e-05
-0.00231836
3.57916e-05
-0.00232224
2.47277e-05
-0.00234161
1.07096e-05
-0.00237545
-7.22357e-06
-0.00242404
-2.59831e-05
-0.00248539
-4.19691e-05
-0.0025574
-5.31091e-05
-0.00263756
-5.83092e-05
-0.00272179
-5.60523e-05
-0.00280353
-4.38342e-05
-0.0028733
-1.75435e-05
-0.00291854
2.74379e-05
-0.00291853
9.70585e-05
-0.00284796
0.000208751
-0.00267231
0.00037944
-0.00236025
0.000632158
-0.00190394
0.000983391
-0.00128937
0.0013514
-0.000299683
0.00135919
0.00114764
0.000709769
0.00164261
-0.000597664
-0.00248957
-0.0120486
-0.0155771
-0.00905367
-0.00588865
-0.00387375
-0.00283961
-0.00253255
-0.00267156
-0.00297686
-0.00321309
-0.00324921
-0.00317674
-0.0030565
-0.00294034
-0.00284986
-0.00277933
-0.00272012
-0.00266857
-0.00262551
-0.00259348
-0.00257545
-0.0025754
-0.00259419
-0.00262908
-0.00267524
-0.00272674
-0.00277614
-0.0028135
-0.00282476
-0.00279124
-0.00268832
-0.00247395
-0.00208913
-0.00145187
-0.000463666
0.00089216
0.00225549
0.00296931
0.00237582
)
;

boundaryField
{
    floor
    {
        type            calculated;
        value           nonuniform List<scalar> 
36
(
0
0
0
0
0
0
0
0
0
0
0
0
0
0
0
0
0
0
0
-4.83914e-06
-1.23783e-05
-1.85697e-05
-2.36402e-05
-2.11163e-05
-1.96191e-05
-1.84535e-05
-2.35097e-06
-3.78399e-06
-4.35946e-06
-5.04476e-06
-3.65661e-06
-7.64391e-06
-1.10004e-05
-1.12621e-05
-1.38364e-05
-1.19393e-05
)
;
    }
    ceiling
    {
        type            calculated;
        value           nonuniform List<scalar> 
43
(
-4.18436e-05
-4.11783e-05
-4.04781e-05
-2.7414e-05
-2.227e-05
-1.86051e-05
-1.50292e-05
-1.20045e-05
-9.92929e-06
-8.50206e-06
-7.6663e-06
-7.28587e-06
-7.13818e-06
-7.11144e-06
-7.12504e-06
-7.14646e-06
-7.17766e-06
-7.2205e-06
-7.26682e-06
-7.30741e-06
-7.31502e-06
-7.27627e-06
-7.19278e-06
-7.08124e-06
-6.95239e-06
-6.80925e-06
-6.64853e-06
-6.47533e-06
-6.28386e-06
-6.07878e-06
-5.85912e-06
-5.62522e-06
-5.37658e-06
-5.10591e-06
-4.81128e-06
-4.42487e-06
-4.13954e-06
-4.04931e-06
-4.18134e-06
-3.60358e-06
6.94078e-06
4.17891e-06
-5.33141e-05
)
;
    }
    sWall
    {
        type            calculated;
        value           uniform -0.000241398;
    }
    nWall
    {
        type            calculated;
        value           nonuniform List<scalar> 6(-5.43171e-05 -6.54339e-05 -6.88139e-05 -8.3326e-05 -9.16841e-05 -0.00011014);
    }
    sideWalls
    {
        type            empty;
        value           nonuniform 0();
    }
    glass1
    {
        type            calculated;
        value           nonuniform List<scalar> 9(-6.04583e-05 -0.000163402 -0.000250424 -0.000324647 -0.000387723 -0.000440785 -0.000487278 -0.000543337 -0.000605862);
    }
    glass2
    {
        type            calculated;
        value           nonuniform List<scalar> 2(-0.000286411 -0.000317012);
    }
    sun
    {
        type            calculated;
        value           uniform 0;
    }
    Table_master
    {
        type            calculated;
        value           nonuniform List<scalar> 9(-1.5364e-07 -1.53789e-07 -1.53839e-07 -1.53869e-07 -1.53889e-07 -1.53902e-07 -1.53906e-07 -1.539e-07 -1.5387e-07);
    }
    Table_slave
    {
        type            calculated;
        value           nonuniform List<scalar> 9(1.5353e-07 1.53515e-07 1.53468e-07 1.53431e-07 1.53408e-07 1.53408e-07 1.53413e-07 1.53451e-07 1.53535e-07);
    }
    inlet
    {
        type            calculated;
        value           uniform -0.0106584;
    }
    outlet
    {
        type            calculated;
        value           nonuniform List<scalar> 2(0.0123318 0.0035697);
    }
}


// ************************************************************************* //
