/*--------------------------------*- C++ -*----------------------------------*\
  =========                 |
  \\      /  F ield         | OpenFOAM: The Open Source CFD Toolbox
   \\    /   O peration     | Website:  https://openfoam.org
    \\  /    A nd           | Version:  6
     \\/     M anipulation  |
\*---------------------------------------------------------------------------*/
FoamFile
{
    version     2.0;
    format      ascii;
    class       volVectorField;
    location    "3010";
    object      U;
}
// * * * * * * * * * * * * * * * * * * * * * * * * * * * * * * * * * * * * * //

dimensions      [0 1 -1 0 0 0 0];

internalField   nonuniform List<vector> 
458
(
(0.034825 0.0885227 0)
(-0.172081 0.0265844 0)
(-0.199349 0.0191134 0)
(-0.233225 0.0130812 0)
(-0.258397 0.00641373 0)
(-0.273602 -0.000804946 0)
(-0.276731 -0.00877835 0)
(-0.265483 -0.0177784 0)
(-0.239425 -0.0274274 0)
(-0.199713 -0.0361123 0)
(-0.150447 -0.0420522 0)
(-0.0978293 -0.0436522 0)
(-0.0487287 -0.0390822 0)
(-0.00626943 -0.0236847 0)
(-0.0102621 0.00977267 0)
(-0.0102383 0.0105133 0)
(-0.037261 -0.0174865 0)
(-0.0145115 -0.0291029 0)
(0.013668 -0.0251835 0)
(0.0334394 -0.0178894 0)
(0.0480559 -0.00955486 0)
(0.0568152 -0.00517622 0)
(0.060694 -0.00363232 0)
(0.0621295 -0.00308258 0)
(0.0627788 -0.00275977 0)
(0.0630888 -0.00250943 0)
(0.0630281 -0.00224153 0)
(0.0624306 -0.00179743 0)
(0.0608391 -0.000838754 0)
(0.0572373 0.00107452 0)
(0.0505181 0.00317047 0)
(0.045114 0.00508604 0)
(-0.0141472 0.0219478 0)
(0.214272 0.18189 0)
(-0.162149 0.0709937 0)
(-0.162942 0.0577629 0)
(-0.198658 0.0457437 0)
(-0.224134 0.0319885 0)
(-0.24011 0.0161757 0)
(-0.244613 -0.00241005 0)
(-0.235117 -0.0239669 0)
(-0.211868 -0.0461703 0)
(-0.176486 -0.0649275 0)
(-0.133355 -0.0764279 0)
(-0.0881262 -0.0782001 0)
(-0.0462593 -0.0687311 0)
(-0.0100259 -0.0460173 0)
(0.0194107 -0.0133798 0)
(0.0442436 0.00785009 0)
(0.054848 0.0347585 0)
(-0.0118083 0.0706832 0)
(0.0670396 0.0439822 0)
(0.0102865 -0.0218338 0)
(0.0265176 -0.0378985 0)
(0.0407458 -0.0356451 0)
(0.053135 -0.0273417 0)
(0.0595572 -0.0120938 0)
(0.0611774 -0.00275365 0)
(0.0612272 0.000745406 0)
(0.061392 0.00202311 0)
(0.0617172 0.00272176 0)
(0.0619422 0.00322145 0)
(0.0619995 0.0036747 0)
(0.0618955 0.00440702 0)
(0.0611845 0.00620493 0)
(0.057788 0.0112233 0)
(0.0490974 0.0155322 0)
(0.0476927 0.0187034 0)
(-0.058429 0.0475494 0)
(0.379535 0.272956 0)
(-0.180118 0.113734 0)
(-0.123513 0.0941099 0)
(-0.159198 0.0724349 0)
(-0.1826 0.0495031 0)
(-0.19841 0.0236426 0)
(-0.204063 -0.0065352 0)
(-0.195374 -0.0409802 0)
(-0.173591 -0.0757817 0)
(-0.141424 -0.10365 0)
(-0.10384 -0.118954 0)
(-0.0658945 -0.119157 0)
(-0.0318223 -0.10412 0)
(-0.00227632 -0.0743982 0)
(0.0220316 -0.0400733 0)
(0.037598 -0.0152193 0)
(0.0431798 0.013164 0)
(-0.0236596 0.0623204 0)
(0.12249 -0.00753054 0)
(0.07251 -0.0320899 0)
(0.0643122 -0.0419286 0)
(0.067261 -0.0417569 0)
(0.0718714 -0.0380442 0)
(0.0734897 -0.0282282 0)
(0.0643663 -0.0183292 0)
(0.0574118 -0.0130271 0)
(0.0548132 -0.0100786 0)
(0.054122 -0.00818601 0)
(0.0538879 -0.00689747 0)
(0.0539581 -0.00590255 0)
(0.0547574 -0.00475343 0)
(0.0572081 -0.00139879 0)
(0.0561027 0.0149936 0)
(0.0445868 0.0258687 0)
(0.0541329 0.0332457 0)
(-0.0993793 0.0727933 0)
(0.530027 0.346653 0)
(-0.216669 0.151757 0)
(-0.0801996 0.125837 0)
(-0.115538 0.0962972 0)
(-0.133417 0.0672243 0)
(-0.146929 0.033763 0)
(-0.152515 -0.00711174 0)
(-0.14262 -0.0550548 0)
(-0.121287 -0.10231 0)
(-0.0929778 -0.137841 0)
(-0.0625308 -0.155427 0)
(-0.0335715 -0.153428 0)
(-0.00879713 -0.133438 0)
(0.0128658 -0.0979237 0)
(0.0304334 -0.0589727 0)
(0.0443577 -0.0228965 0)
(0.0599561 0.0131498 0)
(0.058824 0.0534416 0)
(0.100335 0.0615062 0)
(0.098817 -0.00244006 0)
(0.0851523 -0.029388 0)
(0.0784688 -0.0376902 0)
(0.0736174 -0.0383943 0)
(0.0670218 -0.0341079 0)
(0.0666027 -0.0208388 0)
(0.0772785 -0.0138301 0)
(0.0862413 -0.0101071 0)
(0.0916401 -0.00782414 0)
(0.0948794 -0.00591644 0)
(0.0962855 -0.00385543 0)
(0.0945173 -0.00119011 0)
(0.0882552 0.00248027 0)
(0.0757132 0.00774301 0)
(0.0597991 0.0250977 0)
(0.0440615 0.0405829 0)
(0.0629783 0.0533439 0)
(-0.13139 0.0942772 0)
(0.662682 0.403811 0)
(-0.262353 0.182679 0)
(-0.0350339 0.145258 0)
(-0.0687491 0.111319 0)
(-0.0779455 0.0792333 0)
(-0.086293 0.0412496 0)
(-0.0890482 -0.00798808 0)
(-0.0740277 -0.0688153 0)
(-0.0534817 -0.125902 0)
(-0.0315781 -0.165074 0)
(-0.0112743 -0.181843 0)
(0.00616233 -0.175991 0)
(0.0193263 -0.151483 0)
(0.0303443 -0.114539 0)
(0.0401943 -0.0729579 0)
(0.0494388 -0.0337225 0)
(0.0619375 0.000675736 0)
(0.0760399 0.0197177 0)
(0.0903289 -0.000566011 0)
(0.0896863 -0.0213717 0)
(0.0826197 -0.0300333 0)
(0.0738131 -0.0325494 0)
(0.0655682 -0.0316294 0)
(0.0586238 -0.0266321 0)
(0.0568424 -0.0155117 0)
(0.0603956 -0.00902613 0)
(0.0647368 -0.0063715 0)
(0.0684598 -0.00482925 0)
(0.0717024 -0.00274918 0)
(0.074209 0.00078139 0)
(0.0750584 0.00596825 0)
(0.0731644 0.0129865 0)
(0.0682552 0.0224378 0)
(0.0612081 0.0371777 0)
(0.0500558 0.0536293 0)
(0.0748592 0.0727479 0)
(-0.00684741 0.10138 0)
(0.055788 0.150674 0)
(-0.0835197 0.0748409 0)
(-0.277797 0.000488216 0)
(0.761893 0.451325 0)
(-0.30855 0.20334 0)
(0.00243011 0.143887 0)
(-0.0205836 0.116259 0)
(-0.0197891 0.085722 0)
(-0.0214986 0.0472951 0)
(-0.0143125 -0.00693755 0)
(0.0103173 -0.0859265 0)
(0.0269259 -0.146193 0)
(0.0388278 -0.182425 0)
(0.0460477 -0.194555 0)
(0.0488957 -0.185052 0)
(0.0486308 -0.158121 0)
(0.047226 -0.119918 0)
(0.0460522 -0.0779389 0)
(0.0464691 -0.0397069 0)
(0.0508212 -0.00999054 0)
(0.0599698 0.0048251 0)
(0.0662466 -0.00105102 0)
(0.0649936 -0.0110132 0)
(0.0586081 -0.0188059 0)
(0.0504372 -0.022911 0)
(0.042799 -0.0236609 0)
(0.0368229 -0.0211346 0)
(0.0342713 -0.0157702 0)
(0.0354205 -0.0122936 0)
(0.0383742 -0.0108623 0)
(0.0420303 -0.00977437 0)
(0.0460901 -0.00763833 0)
(0.0502725 -0.0033843 0)
(0.0544831 0.00368378 0)
(0.0570002 0.0131865 0)
(0.0581664 0.0249441 0)
(0.0592913 0.0395784 0)
(0.0583675 0.056 0)
(0.079709 0.0766955 0)
(0.0654479 0.0889837 0)
(0.0997221 0.0967311 0)
(0.117478 0.0571985 0)
(-0.136895 -0.029928 0)
(0.815613 0.494189 0)
(-0.334124 0.187371 0)
(0.0322414 0.0938002 0)
(0.0390634 0.101054 0)
(0.0459323 0.0829997 0)
(0.051625 0.03937 0)
(0.0790998 -0.0311723 0)
(0.103112 -0.103705 0)
(0.113288 -0.157017 0)
(0.112863 -0.186332 0)
(0.104583 -0.192433 0)
(0.0907911 -0.178776 0)
(0.0740953 -0.149769 0)
(0.0575016 -0.111562 0)
(0.0429719 -0.0709096 0)
(0.0326169 -0.0356954 0)
(0.0281008 -0.0107564 0)
(0.0295013 0.000991607 0)
(0.0311372 -0.000279755 0)
(0.029636 -0.00656832 0)
(0.0249844 -0.0126299 0)
(0.0188649 -0.0163692 0)
(0.0128394 -0.0177426 0)
(0.00803289 -0.0171043 0)
(0.00567163 -0.0151951 0)
(0.00601365 -0.0141005 0)
(0.0080528 -0.0139673 0)
(0.0110511 -0.0137415 0)
(0.0148464 -0.0123608 0)
(0.0195243 -0.00873945 0)
(0.025693 -0.00163555 0)
(0.0333027 0.00886886 0)
(0.0400693 0.0208903 0)
(0.0478782 0.0341602 0)
(0.0558775 0.0479598 0)
(0.0754522 0.064457 0)
(0.0882331 0.0697704 0)
(0.11967 0.0632089 0)
(0.163391 0.0513052 0)
(-0.0203528 0.0954878 0)
(0.921868 0.497287 0)
(-0.0766773 0.16742 0)
(0.110609 0.0261616 0)
(0.163738 0.0227925 0)
(0.161401 0.0155462 0)
(0.162867 -0.0293641 0)
(0.196491 -0.0804113 0)
(0.211273 -0.125544 0)
(0.205362 -0.158278 0)
(0.185093 -0.173983 0)
(0.155586 -0.171675 0)
(0.121086 -0.153973 0)
(0.0852901 -0.124274 0)
(0.0523631 -0.0880738 0)
(0.0244576 -0.0510589 0)
(0.00511308 -0.0219286 0)
(-0.00463308 -0.00442815 0)
(-0.00655969 0.00175856 0)
(-0.00644048 0.000663487 0)
(-0.0076411 -0.00366277 0)
(-0.0109408 -0.00801283 0)
(-0.0154391 -0.0110771 0)
(-0.0200737 -0.0128476 0)
(-0.0239381 -0.0136839 0)
(-0.0263202 -0.0141349 0)
(-0.0272119 -0.014886 0)
(-0.0271758 -0.0158701 0)
(-0.026594 -0.0165837 0)
(-0.0254665 -0.0164981 0)
(-0.023487 -0.0150359 0)
(-0.0198618 -0.0114655 0)
(-0.0117092 -0.00490965 0)
(-9.39655e-05 0.00445916 0)
(0.0110862 0.0137606 0)
(0.0226898 0.0208657 0)
(0.0398999 0.0277365 0)
(0.0554301 0.0224378 0)
(0.079569 0.00564799 0)
(0.146409 0.0479779 0)
(-0.428339 0.212666 0)
(1.06591 0.444166 0)
(0.518238 0.298301 0)
(0.529534 0.249858 0)
(0.518392 0.182905 0)
(0.469839 0.122438 0)
(0.43316 0.0601124 0)
(0.392049 -0.00742429 0)
(0.342844 -0.0669804 0)
(0.289085 -0.107862 0)
(0.232746 -0.126612 0)
(0.175364 -0.125099 0)
(0.118904 -0.108912 0)
(0.0654553 -0.0822842 0)
(0.020234 -0.0512614 0)
(-0.0161043 -0.0208441 0)
(-0.0329492 -0.0060721 0)
(-0.0401271 0.000441916 0)
(-0.0416834 0.00220727 0)
(-0.0420617 0.00100828 0)
(-0.0432035 -0.00163924 0)
(-0.0458312 -0.00451685 0)
(-0.0494802 -0.00704473 0)
(-0.0535055 -0.00913478 0)
(-0.0573702 -0.0108634 0)
(-0.0608177 -0.0123653 0)
(-0.0640107 -0.0137468 0)
(-0.067353 -0.0148453 0)
(-0.0712205 -0.0153016 0)
(-0.0759667 -0.0146314 0)
(-0.082065 -0.0121813 0)
(-0.0902075 -0.0071144 0)
(-0.101118 0.00142848 0)
(-0.112753 0.0133223 0)
(-0.127984 0.0284142 0)
(-0.152908 0.0467845 0)
(-0.190233 0.0673933 0)
(-0.241635 0.0862251 0)
(-0.297563 0.0999181 0)
(-0.371647 0.106911 0)
(-0.65067 0.106304 0)
(0.233924 0.0528314 0)
(0.30589 0.115961 0)
(0.321218 0.0913652 0)
(0.299643 0.0395752 0)
(0.275047 -0.0106049 0)
(0.244386 -0.0469409 0)
(0.203097 -0.0684135 0)
(0.154002 -0.0754152 0)
(0.100435 -0.0686985 0)
(0.0461613 -0.0529159 0)
(-0.00863429 -0.0295122 0)
(-0.0451367 -0.0114961 0)
(-0.0635947 -0.00313884 0)
(-0.0709254 -0.000757583 0)
(-0.0731609 -0.000283824 0)
(-0.0734789 -0.000982345 0)
(-0.0737804 -0.00258357 0)
(-0.0749185 -0.00467896 0)
(-0.0771332 -0.00676767 0)
(-0.0803886 -0.00854753 0)
(-0.0841847 -0.0100192 0)
(-0.0882917 -0.0111408 0)
(-0.0927209 -0.0119153 0)
(-0.0976258 -0.0123094 0)
(-0.103157 -0.0121328 0)
(-0.109347 -0.0110404 0)
(-0.116065 -0.00856321 0)
(-0.122967 -0.00415712 0)
(-0.129429 0.00273896 0)
(-0.134402 0.0123368 0)
(-0.13837 0.0256176 0)
(-0.141807 0.0431793 0)
(-0.146018 0.0642223 0)
(-0.151773 0.0850512 0)
(-0.155359 0.0955472 0)
(-0.141303 0.0734011 0)
(-0.110247 -0.0250088 0)
(-0.286611 -0.213742 0)
(0.120027 0.324335 0)
(0.00839026 0.203592 0)
(0.0392631 0.118448 0)
(0.0584758 0.0604326 0)
(0.0631227 0.0216224 0)
(0.0601084 -0.00478695 0)
(0.0401938 -0.0199128 0)
(0.00541278 -0.018952 0)
(-0.0366022 -0.00171648 0)
(-0.0701201 0.0128798 0)
(-0.0912311 0.0208814 0)
(-0.100245 0.0232645 0)
(-0.102469 0.0233923 0)
(-0.102414 0.0234449 0)
(-0.101542 0.0241589 0)
(-0.10051 0.0252855 0)
(-0.0997872 0.0264267 0)
(-0.0996596 0.0271769 0)
(-0.100185 0.0271119 0)
(-0.101326 0.0259071 0)
(-0.10312 0.0238737 0)
(-0.105496 0.0216293 0)
(-0.108388 0.0194497 0)
(-0.111706 0.0174805 0)
(-0.115313 0.0158318 0)
(-0.118996 0.0146128 0)
(-0.122445 0.01396 0)
(-0.125176 0.0140306 0)
(-0.126372 0.0155216 0)
(-0.124865 0.0198899 0)
(-0.119076 0.0282963 0)
(-0.107619 0.0417409 0)
(-0.0903518 0.0602415 0)
(-0.0683171 0.0804254 0)
(-0.0434461 0.0948375 0)
(-0.00758403 0.0857777 0)
(0.146941 0.00930476 0)
(-0.209929 -0.129684 0)
(-0.422119 -0.51603 0)
(-0.637319 -0.143276 0)
(-0.449399 0.177758 0)
(-0.357935 0.0560772 0)
(-0.213901 -0.00554199 0)
(-0.145614 -0.0477908 0)
(-0.117171 -0.0705389 0)
(-0.112991 -0.0713618 0)
(-0.12235 -0.0626876 0)
(-0.134865 -0.0549762 0)
(-0.140348 -0.0505056 0)
(-0.138589 -0.049066 0)
(-0.134127 -0.0499511 0)
(-0.128946 -0.0527733 0)
(-0.124483 -0.0563011 0)
(-0.121038 -0.0599449 0)
(-0.118239 -0.0635875 0)
(-0.115826 -0.0672849 0)
(-0.113758 -0.0708866 0)
(-0.112109 -0.0739029 0)
(-0.111009 -0.0756826 0)
(-0.110623 -0.0757897 0)
(-0.111052 -0.0743574 0)
(-0.112259 -0.0719864 0)
(-0.11407 -0.0689149 0)
(-0.116261 -0.0652753 0)
(-0.118549 -0.0610877 0)
(-0.120566 -0.0562785 0)
(-0.121832 -0.0506318 0)
(-0.121711 -0.0438014 0)
(-0.119187 -0.0358141 0)
(-0.112354 -0.0266894 0)
(-0.098406 -0.0158828 0)
(-0.0748443 -0.00248614 0)
(-0.0415504 0.0143645 0)
(0.00931702 0.0362843 0)
(0.0618664 0.0423467 0)
(0.109599 0.0240439 0)
(0.172058 -0.0159434 0)
(-0.19629 -0.082685 0)
)
;

boundaryField
{
    floor
    {
        type            noSlip;
    }
    ceiling
    {
        type            noSlip;
    }
    sWall
    {
        type            noSlip;
    }
    nWall
    {
        type            noSlip;
    }
    sideWalls
    {
        type            empty;
    }
    glass1
    {
        type            noSlip;
    }
    glass2
    {
        type            noSlip;
    }
    sun
    {
        type            noSlip;
    }
    Table_master
    {
        type            noSlip;
    }
    Table_slave
    {
        type            noSlip;
    }
    inlet
    {
        type            fixedValue;
        value           uniform (0.46194 -0.191342 0);
    }
    outlet
    {
        type            zeroGradient;
    }
}


// ************************************************************************* //
