/*--------------------------------*- C++ -*----------------------------------*\
  =========                 |
  \\      /  F ield         | OpenFOAM: The Open Source CFD Toolbox
   \\    /   O peration     | Website:  https://openfoam.org
    \\  /    A nd           | Version:  6
     \\/     M anipulation  |
\*---------------------------------------------------------------------------*/
FoamFile
{
    version     2.0;
    format      ascii;
    class       volScalarField;
    location    "160";
    object      alphat;
}
// * * * * * * * * * * * * * * * * * * * * * * * * * * * * * * * * * * * * * //

dimensions      [1 -1 -1 0 0 0 0];

internalField   nonuniform List<scalar> 
458
(
0.00153388
0.00169872
0.00176811
0.00186801
0.00196674
0.00207195
0.00217075
0.00224883
0.00229233
0.00228819
0.00212475
0.00196003
0.00176818
0.00157975
0.00138745
0.000722451
0.000846561
0.000993784
0.00108305
0.00108382
0.00101691
0.000941343
0.00087421
0.000816626
0.000767142
0.000724412
0.000687124
0.000654075
0.000624138
0.000595554
0.000565971
0.000534941
0.000484574
0.00195956
0.00486886
0.00475287
0.00550715
0.00626897
0.00687154
0.00741562
0.00793538
0.00838859
0.00873683
0.00879753
0.00833289
0.00757967
0.00598695
0.00390886
0.0016273
0.00143745
0.00121052
0.000696372
0.00187357
0.00301499
0.00386122
0.00403181
0.00273022
0.00225482
0.00194971
0.0017325
0.00157064
0.00144598
0.00134863
0.00126472
0.00116676
0.00106485
0.000970334
0.00100218
0.000541646
0.00230681
0.00657213
0.00582989
0.0066324
0.00703276
0.00733069
0.0076585
0.00807652
0.00863762
0.00929925
0.00978478
0.00975757
0.00937352
0.00846129
0.00681654
0.00473561
0.00352812
0.00135764
0.000863043
0.00195725
0.00333967
0.00461931
0.00480757
0.00134577
0.0011678
0.00101918
0.000898695
0.000801411
0.000722546
0.000658266
0.000607098
0.000571923
0.000662083
0.000795619
0.00115057
0.000581462
0.00263372
0.00807705
0.00591089
0.00673555
0.00677888
0.00683968
0.00700203
0.00734548
0.00800462
0.00886073
0.00950001
0.00971648
0.00958091
0.00913252
0.0081663
0.00672283
0.00519626
0.00283823
0.00146271
0.00190619
0.00310154
0.00475673
0.00617454
0.00619763
0.00154076
0.00140287
0.00129617
0.00120789
0.00113099
0.00105813
0.000984822
0.000907643
0.000821224
0.000735809
0.000760739
0.00129862
0.000623138
0.00296489
0.00999185
0.00626583
0.00673449
0.00669023
0.00660727
0.00663308
0.00693184
0.00767532
0.00857156
0.00925111
0.00951297
0.00942895
0.00914528
0.00864144
0.00782528
0.00674778
0.00533805
0.00508844
0.00595284
0.00715498
0.00831525
0.00907072
0.00908718
0.00759534
0.00669945
0.00608875
0.00555161
0.00493323
0.0042535
0.00352814
0.00277863
0.00204275
0.00142238
0.00107831
0.00125667
0.000909309
0.000762444
0.000831775
0.000904758
0.00332086
0.0121471
0.00803683
0.00703197
0.0071931
0.00676731
0.00660525
0.00687173
0.00762914
0.00857274
0.00926108
0.00948897
0.00938546
0.00921481
0.00910744
0.00892096
0.00860866
0.00833281
0.008877
0.00994756
0.010806
0.0112923
0.0113494
0.0109672
0.010142
0.00929974
0.00850508
0.00767002
0.00679228
0.00586752
0.00489679
0.00390664
0.00294455
0.00210987
0.00157266
0.00137659
0.0011267
0.00100372
0.00129819
0.000936669
0.00364768
0.0136166
0.0107821
0.00849687
0.00797072
0.0071328
0.00671803
0.00698816
0.00783171
0.00884067
0.0095128
0.00968537
0.00964951
0.00985071
0.0103185
0.0106224
0.0108367
0.0111986
0.0119548
0.0126791
0.0129547
0.0128219
0.0123457
0.0116146
0.0107195
0.00980331
0.0089033
0.00801855
0.00713669
0.00624106
0.0053218
0.00442668
0.00357174
0.00279262
0.00222308
0.00186028
0.00159615
0.0015018
0.00144095
0.00109983
0.0037187
0.0118249
0.0104487
0.00937863
0.00803171
0.00693256
0.00664358
0.00719203
0.00826766
0.00935422
0.00993264
0.0100484
0.010451
0.011317
0.0118737
0.0122088
0.012528
0.012936
0.0133939
0.0136058
0.0133634
0.0127495
0.0118777
0.0108557
0.00977163
0.00873816
0.00779472
0.00692851
0.00613424
0.00541828
0.00478751
0.00424318
0.00376107
0.00329179
0.00294365
0.00282442
0.00291981
0.00317361
0.00396021
0.00172672
0.00363209
0.00434258
0.00481641
0.00487318
0.00490861
0.00528611
0.00624257
0.00764778
0.00908648
0.0100921
0.0102884
0.0106578
0.011413
0.0121498
0.012491
0.0126905
0.0128791
0.0130303
0.0130228
0.0127059
0.0120304
0.0110652
0.00991106
0.00866868
0.00745171
0.00633161
0.00533455
0.00447714
0.00378949
0.00328707
0.0029492
0.00273286
0.00259899
0.00252582
0.00250146
0.00250756
0.00248792
0.00239985
0.00226091
0.00161082
0.00150984
0.00266801
0.00443813
0.00660614
0.00853781
0.009903
0.0105338
0.0106922
0.0103168
0.0106521
0.0111797
0.0114479
0.0115416
0.0115822
0.0115543
0.0113733
0.0109454
0.0102228
0.00923446
0.0080716
0.00684952
0.00568721
0.00468177
0.00387633
0.00327561
0.00286455
0.0026119
0.00247625
0.00241875
0.00241114
0.00243526
0.00247722
0.00251858
0.00252774
0.00246294
0.00231248
0.00208218
0.00131441
0.00263654
0.00704281
0.0103418
0.0111628
0.010873
0.010062
0.00908652
0.00847973
0.00826187
0.00825572
0.00821984
0.00817172
0.00814133
0.00809047
0.00794902
0.0076458
0.00713536
0.00642589
0.00558698
0.00473112
0.00396913
0.00336528
0.00292642
0.00262638
0.00243365
0.0023216
0.00226986
0.00226437
0.00229641
0.00236028
0.00245002
0.00255459
0.00265292
0.00272235
0.00270293
0.00272392
0.00261448
0.00133515
0.00279469
0.0028799
0.00295735
0.00333054
0.00294949
0.00244147
0.00211219
0.00188972
0.00170255
0.00155141
0.00144449
0.00137848
0.00133718
0.00130754
0.00128015
0.00124819
0.00120688
0.00115402
0.00109113
0.00102386
0.000959816
0.000905449
0.000863934
0.000835349
0.000818236
0.000811154
0.000813422
0.000825089
0.00084662
0.000878514
0.000921008
0.000974057
0.00103757
0.00111144
0.00119464
0.00129747
0.00133143
0.0012977
0.00121066
0.00112639
)
;

boundaryField
{
    floor
    {
        type            compressible::alphatWallFunction;
        Prt             0.85;
        value           nonuniform List<scalar> 
36
(
0.000195713
0.000102452
0.000120436
0.000141374
0.000153894
0.000154002
0.000144634
0.000133967
0.000124406
0.000116136
0.000108974
0.000102745
9.72737e-05
9.23942e-05
8.79483e-05
8.3679e-05
7.92338e-05
7.45403e-05
6.68487e-05
6.68479e-05
7.55573e-05
8.15653e-05
8.78003e-05
0.000108308
0.000118348
0.000128797
0.000195711
0.000227951
0.000202482
0.000171534
0.00010245
0.000171532
9.86256e-05
0.000191664
0.00012279
0.000205894
)
;
    }
    ceiling
    {
        type            compressible::alphatWallFunction;
        Prt             0.85;
        value           nonuniform List<scalar> 
43
(
0.000378563
0.000389258
0.000398952
0.000445425
0.000398179
0.000334102
0.000291817
0.000262844
0.000238177
0.000218041
0.000203666
0.000194734
0.000189122
0.000185082
0.000181341
0.000176962
0.000171283
0.000163983
0.000155246
0.000145834
0.000136805
0.000129084
0.00012315
0.000119042
0.000116572
0.000115545
0.000115867
0.000117543
0.000120634
0.000125199
0.000131253
0.000138767
0.000147702
0.000158017
0.000169542
0.000183659
0.000188295
0.000183693
0.000171752
0.000160102
0.00048267
0.000568774
0.000358445
)
;
    }
    sWall
    {
        type            compressible::alphatWallFunction;
        Prt             0.85;
        value           uniform 0.00037728;
    }
    nWall
    {
        type            compressible::alphatWallFunction;
        Prt             0.85;
        value           nonuniform List<scalar> 6(0.000128584 0.000133113 0.000156028 0.000185662 0.000188489 0.000159778);
    }
    sideWalls
    {
        type            empty;
    }
    glass1
    {
        type            compressible::alphatWallFunction;
        Prt             0.85;
        value           nonuniform List<scalar> 9(0.000209922 0.000265452 0.000309896 0.00035117 0.000392494 0.000436421 0.00047637 0.000485153 0.0004749);
    }
    glass2
    {
        type            compressible::alphatWallFunction;
        Prt             0.85;
        value           nonuniform List<scalar> 2(0.000239439 0.000224238);
    }
    sun
    {
        type            compressible::alphatWallFunction;
        Prt             0.85;
        value           nonuniform List<scalar> 
14
(
0.000215468
0.000237435
0.000246618
0.000259769
0.000272692
0.000286386
0.000299177
0.00030924
0.000314829
0.000314294
0.000293227
0.000271818
0.000246633
0.000221603
)
;
    }
    Table_master
    {
        type            compressible::alphatWallFunction;
        Prt             0.85;
        value           nonuniform List<scalar> 9(0.000190264 0.000165845 0.000145124 0.000128068 0.000114099 0.000102627 9.31638e-05 8.55507e-05 8.02719e-05);
    }
    Table_slave
    {
        type            compressible::alphatWallFunction;
        Prt             0.85;
        value           nonuniform List<scalar> 9(0.000216609 0.000198024 0.000183501 0.000171384 0.000160745 0.000150589 0.000140288 0.000129345 0.000116961);
    }
    inlet
    {
        type            fixedValue;
        value           uniform 1.94e-05;
    }
    outlet
    {
        type            zeroGradient;
    }
}


// ************************************************************************* //
