/*--------------------------------*- C++ -*----------------------------------*\
  =========                 |
  \\      /  F ield         | OpenFOAM: The Open Source CFD Toolbox
   \\    /   O peration     | Website:  https://openfoam.org
    \\  /    A nd           | Version:  6
     \\/     M anipulation  |
\*---------------------------------------------------------------------------*/
FoamFile
{
    version     2.0;
    format      ascii;
    class       surfaceScalarField;
    location    "160";
    object      phi;
}
// * * * * * * * * * * * * * * * * * * * * * * * * * * * * * * * * * * * * * //

dimensions      [1 0 -1 0 0 0 0];

internalField   nonuniform List<scalar> 
850
(
-0.00336932
0.00343096
-0.00478344
0.00141411
-0.00573911
0.000955674
-0.00630804
0.000568928
-0.00643328
0.00012524
-0.00604353
-0.000389746
-0.00508537
-0.000958157
-0.00360488
-0.00148049
-0.00178022
-0.00182467
9.9671e-05
-0.0018799
0.00143919
-0.00133954
0.00223012
-0.000790947
0.00243146
-0.000201364
0.00189665
0.00053479
0.00189925
-0.00111141
0.00111479
-0.000949678
-0.000161859
-0.000159612
-0.00079018
0.000691018
-0.000850737
0.00137011
-0.000679201
0.00176355
-0.00039356
0.00194297
-0.000179539
0.0020441
-0.000101254
0.00211465
-7.06694e-05
0.00216439
-4.98753e-05
0.00219816
-3.39158e-05
0.00221514
-1.71261e-05
0.00220261
1.23865e-05
0.00212937
7.30787e-05
0.00194286
0.000186358
0.0016044
0.000338289
0.00107296
0.000531271
0.00107687
-0.00242701
0.00602601
-0.00372006
0.00270716
-0.00468648
0.0019221
-0.00527758
0.00116003
-0.00544203
0.000289692
-0.00511412
-0.000717655
-0.00426557
-0.00180669
-0.0029935
-0.00275256
-0.00153146
-0.0032867
-0.000161229
-0.00325015
0.000980041
-0.00248084
0.00176182
-0.00157275
0.00221578
-0.000655359
0.00249372
0.000256825
0.0033492
0.00104374
0.00244101
0.000912702
0.00144407
0.00100192
0.0014583
-7.66445e-05
0.00120204
0.000445725
-0.000684346
0.000973793
-0.00131835
0.00142563
-0.00130267
0.00178963
-0.00104331
0.00188011
-0.000484139
0.0018957
-0.000195241
0.001913
-0.000118671
0.00192782
-8.56092e-05
0.00193783
-6.00162e-05
0.00194468
-4.09033e-05
0.00194808
-2.06655e-05
0.00194155
1.87604e-05
0.0018898
0.000124673
0.00168134
0.000394653
0.00131758
0.000701877
0.000825459
0.00102322
0.00191355
-0.00169772
0.00798318
-0.00276399
0.00377344
-0.00363227
0.00279038
-0.00417495
0.00170272
-0.00435267
0.000467418
-0.0040614
-0.00100892
-0.00328503
-0.00258305
-0.0021822
-0.00385537
-0.00100405
-0.00446485
3.11538e-05
-0.00428537
0.000919904
-0.00336962
0.00158245
-0.00223534
0.00203884
-0.0011118
0.00238323
-8.75991e-05
0.0026536
0.000773335
0.00234041
0.00122586
0.00160784
0.00173446
0.00307916
0.0014966
-0.000278833
0.00190012
-0.00108797
0.00198838
-0.0014067
0.00211135
-0.00142572
0.00240679
-0.00133884
0.00192271
0.00172752
0.00160889
0.00152332
0.00146333
0.00142244
0.00140178
0.00142053
0.00154519
0.00128911
0.000650561
0.000980634
0.00101018
0.000585807
0.00141786
0.0025172
-0.00115577
0.00947767
-0.00194573
0.0045634
-0.00255495
0.0033996
-0.00294754
0.00209531
-0.00307211
0.000591993
-0.00274608
-0.00133494
-0.00201565
-0.00331346
-0.00110735
-0.00476364
-0.000235974
-0.00533621
0.000479851
-0.00500122
0.00109164
-0.00398146
0.00155166
-0.00269542
0.00186507
-0.00142526
0.00209572
-0.000318298
0.00228557
0.000583438
0.00232798
0.00118341
0.00240979
0.00165261
0.00362419
0.00186472
0.00300341
0.000635192
0.00297852
-0.000253989
0.0027995
-0.000908998
0.00257896
-0.00118623
0.00234693
-0.00119377
0.00197327
-0.000965283
0.00237046
-0.000397442
0.00250978
-0.00013958
0.00255141
-4.18933e-05
0.0025311
2.00344e-05
0.00245147
7.93506e-05
0.00230932
0.000141865
0.00209057
0.000218451
0.00176292
0.000327352
0.00125898
0.000503627
0.00104797
0.000861404
0.000753796
0.00130418
0.000405753
0.00176572
0.00294665
-0.000762619
0.0106474
-0.0012953
0.00509608
-0.00148221
0.00358651
-0.00160461
0.00221771
-0.00154656
0.000533931
-0.00107424
-0.00180724
-0.000405797
-0.00398187
0.000226819
-0.00539621
0.000723589
-0.00583296
0.00108785
-0.00536551
0.00136955
-0.00426321
0.00155193
-0.00287788
0.00165566
-0.00152906
0.00174815
-0.000410854
0.00189478
0.000436747
0.00209368
0.000984457
0.00244358
0.00130266
0.00299656
0.00131169
0.00303691
0.000594789
0.00296604
-0.000183174
0.00271979
-0.000662813
0.00240322
-0.000869733
0.00207554
-0.000866186
0.00179555
-0.000685397
0.00175691
-0.000358913
0.00173361
-0.000116405
0.00167876
1.28196e-05
0.00160967
8.89881e-05
0.00153673
0.000152144
0.00145224
0.000226197
0.00134229
0.000328241
0.00119404
0.000475437
0.00101555
0.000681947
0.000885045
0.000991741
0.000789645
0.0013994
0.000590191
0.001965
0.00101735
0.00251931
-0.0011903
0.00222849
-0.00183424
0.000662016
-0.00176391
-0.000607272
0.0117199
-0.000891396
0.0053802
-0.000469434
0.00316454
-0.00015625
0.00190451
0.000306019
7.16433e-05
0.000958324
-0.00245953
0.00146506
-0.00448855
0.00173698
-0.00566807
0.00181554
-0.0059115
0.0017596
-0.00530959
0.00162652
-0.00413021
0.00144932
-0.00270077
0.00127535
-0.00135519
0.00118677
-0.000322349
0.00124041
0.000383035
0.00142522
0.00079958
0.00173732
0.000990496
0.00214114
0.000907817
0.00231079
0.000425075
0.00220735
-7.98141e-05
0.00195556
-0.000411108
0.00164158
-0.000555856
0.00132132
-0.00054605
0.00105034
-0.000414539
0.000894546
-0.000203259
0.000808428
-3.04325e-05
0.000754734
6.63623e-05
0.000726297
0.000117267
0.000717486
0.000160792
0.000722487
0.000221026
0.000735374
0.000315179
0.000754543
0.000456091
0.000783552
0.000652757
0.000862097
0.000913016
0.00104973
0.00121159
0.0013651
0.00164944
0.0019044
0.00197981
0.00226491
0.00186779
0.00177524
0.00115148
7.57839e-05
-0.000599267
0.0128369
-0.000326983
0.00510791
0.000958262
0.00187929
0.00186058
0.00100217
0.00269724
-0.000765044
0.00328606
-0.00304833
0.00350555
-0.00470798
0.00334983
-0.00551228
0.00291488
-0.00547653
0.00231805
-0.00471281
0.00167733
-0.00348959
0.00107561
-0.00209918
0.000601002
-0.000880698
0.00035468
-7.61287e-05
0.000349319
0.000388309
0.000518962
0.000629856
0.000794443
0.000714934
0.00108625
0.000615929
0.0011959
0.000315331
0.0011021
1.38788e-05
0.000882378
-0.000191509
0.00060374
-0.000277351
0.000318852
-0.000261308
7.7723e-05
-0.000173564
-7.40976e-05
-5.16003e-05
-0.000141678
3.69784e-05
-0.000150841
7.53528e-05
-0.000121545
8.77933e-05
-5.96974e-05
9.87626e-05
3.48021e-05
0.000126341
0.000163231
0.000186561
0.000327999
0.000291129
0.000530433
0.000450131
0.000786163
0.000657095
0.00112504
0.000872534
0.00160126
0.00117303
0.00227404
0.00130684
0.00311527
0.00102637
0.00335139
0.000915158
0.00349624
0.00320271
0.0102128
0.00407026
0.00424035
0.00426195
0.00168759
0.0050025
0.00026159
0.00586351
-0.00162604
0.00609611
-0.00328086
0.0057057
-0.00431747
0.00484211
-0.00464862
0.0036957
-0.00433012
0.00242717
-0.00344435
0.0012297
-0.00229227
0.00021414
-0.00108377
-0.000416411
-0.000250288
-0.000659108
0.000166446
-0.000641723
0.000370815
-0.000490256
0.000478284
-0.00027981
0.00050438
-9.67931e-05
0.000432797
-5.10689e-05
0.000269479
-0.000141456
0.000104124
-0.000324051
-9.0697e-06
-0.000548725
-5.28415e-05
-0.000766938
-4.3269e-05
-0.000939652
-1.03125e-06
-0.001036
4.4557e-05
-0.00106219
6.29829e-05
-0.00104111
5.40759e-05
-0.000985092
3.15829e-05
-0.000896042
9.51321e-06
-0.000771484
1.57853e-06
-0.000605851
2.07225e-05
-0.000391614
7.66859e-05
-0.000117811
0.000176122
0.000212332
0.000326746
0.000567536
0.000517131
0.000994366
0.000746007
0.00149654
0.000804471
0.00190363
0.00061908
0.00114851
0.00167007
0.00492483
0.0108574
0.0150981
0.0131564
0.00362931
0.0121057
0.00131227
0.0109315
-0.000451655
0.00934671
-0.00169597
0.00744795
-0.00241858
0.00540684
-0.00260746
0.00339824
-0.00232157
0.00146045
-0.00150671
-0.000140956
-0.000691065
-0.00116165
-6.32409e-05
-0.0015875
0.000175411
-0.00169368
0.000272488
-0.00165023
0.000327231
-0.00153586
0.000363779
-0.00140404
0.000372408
-0.00131041
0.000339019
-0.00130619
0.000265098
-0.00138713
0.000184886
-0.00152133
0.00012494
-0.00167086
9.6493e-05
-0.00180772
9.33905e-05
-0.00191029
0.000101343
-0.00197349
0.000107543
-0.00201416
0.000103448
-0.00205084
9.05383e-05
-0.00209683
7.73545e-05
-0.00216248
7.49475e-05
-0.0022578
9.66758e-05
-0.00239561
0.000158306
-0.00259746
0.000278324
-0.00290034
0.000478781
-0.00335647
0.000782661
-0.00404239
0.00120285
-0.00502017
0.00172358
-0.0064218
0.0022059
-0.00812036
0.00231743
-0.00765626
0.00120578
-0.00243071
0.00938655
0.00588522
0.00740185
0.00329721
0.00644234
0.000508036
0.00528334
-0.000536909
0.00371386
-0.000849144
0.00190976
-0.000803498
6.53483e-05
-0.000477363
-0.00144743
5.77136e-06
-0.00232538
0.000186687
-0.00264886
0.000260057
-0.00272946
0.000255841
-0.00270824
0.000251105
-0.00264007
0.000258902
-0.00255172
0.00027525
-0.00246744
0.000287956
-0.0024133
0.000284696
-0.00240987
0.000261464
-0.00245339
0.00022821
-0.00252519
0.000196529
-0.00260258
0.000173668
-0.00266949
0.000160078
-0.00272037
0.000151998
-0.00275792
0.00014486
-0.00279016
0.000135459
-0.0028242
0.000124351
-0.00286337
0.000116283
-0.0029085
0.000119846
-0.0029594
0.000147345
-0.00301563
0.0002143
-0.00307737
0.00033984
-0.00314688
0.000548066
-0.00322755
0.000863109
-0.00331021
0.00128529
-0.00333958
0.00175273
-0.00324245
0.00210855
-0.00281902
0.00189379
-0.00144133
-0.000172134
-0.00379745
-0.00069924
0.00665291
0.000134538
0.00246346
-0.000349583
0.000991819
-0.00114344
0.000256693
-0.00204077
4.79441e-05
-0.00292631
8.18188e-05
-0.00357006
0.000166169
-0.00380401
0.000239517
-0.00384792
0.000230408
-0.00379234
0.000204285
-0.00371091
0.000174217
-0.00361972
0.000159715
-0.00352282
0.000161814
-0.00342276
0.000174982
-0.00332615
0.000191141
-0.00324398
0.000202315
-0.00318666
0.000203914
-0.00315562
0.000196952
-0.0031441
0.00018477
-0.00314124
0.00017058
-0.00313748
0.000156075
-0.00312743
0.000141709
-0.00310985
0.00012703
-0.00308593
0.000111299
-0.00305687
9.5042e-05
-0.00302201
8.11768e-05
-0.00297797
7.55587e-05
-0.00291773
8.68658e-05
-0.00282927
0.000125599
-0.00269331
0.000203648
-0.0024826
0.000337122
-0.00216929
0.000549573
-0.00173091
0.00084668
-0.00112544
0.00114704
-0.0001539
0.00113678
0.00120179
0.000537877
0.00168642
-0.000657002
-0.00202891
-0.0124013
-0.0162452
-0.00954841
-0.00706119
-0.00605596
-0.00579228
-0.0057409
-0.00565785
-0.00549208
-0.00525422
-0.00502641
-0.00482546
-0.0046552
-0.00450001
-0.00434326
-0.00417391
-0.003989
-0.00379356
-0.00359718
-0.00340838
-0.00323228
-0.00307073
-0.00292385
-0.00279132
-0.00267328
-0.00257063
-0.00248377
-0.0024102
-0.00234159
-0.00226095
-0.00214082
-0.00194192
-0.00160885
-0.00106274
-0.00021904
0.000925348
0.00205931
0.00259381
0.00193263
)
;

boundaryField
{
    floor
    {
        type            calculated;
        value           nonuniform List<scalar> 
36
(
0
0
0
0
0
0
0
0
0
0
0
0
0
0
0
0
0
0
0
-4.09117e-06
-1.14016e-05
-1.80268e-05
-2.38853e-05
-2.10355e-05
-1.82928e-05
-1.73969e-05
-2.62386e-06
-4.54534e-06
-5.00232e-06
-5.67785e-06
-3.51339e-06
-8.59382e-06
-1.07415e-05
-1.30522e-05
-1.58573e-05
-1.44504e-05
)
;
    }
    ceiling
    {
        type            calculated;
        value           nonuniform List<scalar> 
43
(
-4.5975e-05
-4.49414e-05
-4.40222e-05
-2.40305e-05
-1.37028e-05
-7.23431e-06
-3.65472e-06
-1.44949e-06
1.82708e-07
1.43461e-06
2.3805e-06
3.11565e-06
3.73524e-06
4.29386e-06
4.83586e-06
5.39627e-06
5.99646e-06
6.63725e-06
7.29237e-06
7.90909e-06
8.42367e-06
8.78035e-06
8.94844e-06
8.92698e-06
8.73501e-06
8.39627e-06
7.9308e-06
7.3563e-06
6.6934e-06
5.97023e-06
5.22296e-06
4.49106e-06
3.81084e-06
3.21462e-06
2.73887e-06
2.41422e-06
2.58229e-06
3.13749e-06
3.93384e-06
5.82559e-06
1.60172e-06
-3.87492e-07
-6.83824e-05
)
;
    }
    sWall
    {
        type            calculated;
        value           uniform -0.000232053;
    }
    nWall
    {
        type            calculated;
        value           nonuniform List<scalar> 6(-5.31419e-05 -6.46514e-05 -6.92673e-05 -7.48417e-05 -8.23745e-05 -0.000102367);
    }
    sideWalls
    {
        type            empty;
        value           nonuniform 0();
    }
    glass1
    {
        type            calculated;
        value           nonuniform List<scalar> 9(-6.16407e-05 -0.00016804 -0.000259437 -0.000338715 -0.0004071 -0.000465246 -0.000517671 -0.000578672 -0.000646147);
    }
    glass2
    {
        type            calculated;
        value           nonuniform List<scalar> 2(-0.000280269 -0.000300927);
    }
    sun
    {
        type            calculated;
        value           uniform 0;
    }
    Table_master
    {
        type            calculated;
        value           nonuniform List<scalar> 9(-1.53786e-07 -1.54005e-07 -1.54067e-07 -1.54097e-07 -1.54111e-07 -1.54111e-07 -1.541e-07 -1.54073e-07 -1.54003e-07);
    }
    Table_slave
    {
        type            calculated;
        value           nonuniform List<scalar> 9(1.53531e-07 1.53525e-07 1.53483e-07 1.53457e-07 1.5344e-07 1.53445e-07 1.53474e-07 1.53529e-07 1.53624e-07);
    }
    inlet
    {
        type            calculated;
        value           uniform -0.0116424;
    }
    outlet
    {
        type            calculated;
        value           nonuniform List<scalar> 2(0.0126792 0.00388863);
    }
}


// ************************************************************************* //
