/*--------------------------------*- C++ -*----------------------------------*=========                 |
  \      /  F ield         | OpenFOAM: The Open Source CFD Toolbox
   \    /   O peration     | Website:  https://openfoam.org
    \  /    A nd           | Version:  6
     \/     M anipulation  |
\*---------------------------------------------------------------------------*/
FoamFile
{
    version     2.0;
    format      ascii;
    class       volScalarField;
    location    "160";
    object      PMV;
}
// * * * * * * * * * * * * * * * * * * * * * * * * * * * * * * * * * * * * * //

dimensions      [0 0 0 0 0 0 0];

internalField   nonuniform List<scalar> 
458
(
1.218511255133633
0.9640168307157606
0.9245121288892322
0.8969023093366907
0.8845810164453289
0.8874322000840584
0.9079213540724252
0.9490502367020713
1.0165198906179886
1.101152075359246
1.1722959918281226
1.1499384487508162
1.128089729027328
1.1385695758107524
1.149976331345342
1.4970523459499632
1.4702874734463405
1.4540352533382603
1.4597715083702913
1.4717214175709425
1.4683867082194808
1.4572337683532424
1.4571941908501163
1.4630244128799188
1.4705406294087577
1.4792505286508886
1.4892268747677402
1.5004428594353043
1.5145435902670379
1.5342219617962847
1.5636256456209883
1.6064328939733625
1.6470317548045221
1.137337051248505
0.9790158775174579
0.9622969082174603
0.9357616351578806
0.9238395949266509
0.9253206620888853
0.9369552436675235
0.9555290783810828
0.9863743530884402
1.0379821940163991
1.1273114335152952
1.1701331454349615
1.1660484875208421
1.1394861461751649
1.10333434502978
1.0928431052763214
1.1320959062189364
1.1936170660871122
1.4957296507871203
1.44017185779814
1.4272635940427323
1.4185747224422092
1.4224359335627121
1.4309793795527113
1.4393212748519497
1.4490828311863047
1.4589529975423707
1.468473223096729
1.479138595627918
1.490573372862991
1.5027973909979349
1.5172043798340233
1.5372644856251063
1.568191351572457
1.6020430937622185
1.6283543221709045
1.151541640794571
0.9733847857125805
1.0021742836898537
0.9930830565752633
0.990385552835574
0.9908595532694459
0.9813338476601161
0.95350094328034
0.9369891780018832
0.971326405772044
1.0659115563237094
1.1488059825254153
1.1908719585832237
1.1815454010479054
1.1504399462686317
1.1441183585906236
1.1565800189771962
1.1707471178422515
1.3818011837767883
1.3556034167703088
1.3404789033148703
1.3583558127772577
1.3859368460793169
1.3985299028439544
1.4333198491550454
1.4635923373352813
1.4846358773846158
1.5016639660421855
1.5182271131319742
1.5354056562474234
1.5514047713386334
1.5612618063965251
1.572422895206394
1.5932036695462775
1.5958585621704457
1.5724636373949148
1.2133324810251305
0.9698976602518014
1.0337348459442914
1.0611086169132558
1.0872113864561366
1.0929111074309494
1.040228140432669
0.9472263160075046
0.8915042149001995
0.9237872975539054
1.0237099000621548
1.1328549436900337
1.2125515838598369
1.234910798097103
1.2100928999703986
1.1831028170901203
1.151059740825136
1.121485202968178
1.102186858177453
1.1670728719895254
1.226110981004034
1.288010594008847
1.3578110063020907
1.4269821385205808
1.482321592767328
1.499572445234058
1.5146317578018387
1.5340500114254851
1.5567570986255366
1.5810753767534824
1.6075245977911101
1.638611810813475
1.6790842121667269
1.6690145725200072
1.6404170004170444
1.597336794178346
1.5431621567488787
1.2981355101700192
0.9812467106993841
1.059254206892024
1.1280691755154382
1.2156731779791052
1.224162567366412
1.0834315533605672
0.9331614762741149
0.8556209853991465
0.8898224289103212
1.0027223790572442
1.1381060092131494
1.249345171760768
1.3024004738952666
1.2873231077866756
1.2489474322735254
1.2074848165431764
1.1793478342620065
1.1914287941026847
1.2288077571064366
1.290706637947502
1.368788589348008
1.4524047478612387
1.5313278651709985
1.5966386270889035
1.6340871756906312
1.661561805272103
1.6873544955787405
1.7085882681418816
1.7252680380170526
1.7382189669353854
1.7475898896154143
1.7505668758713921
1.7235002409964926
1.674114254807266
1.6035180842024448
1.586075001055249
1.680819502299512
1.8102424897355878
1.6939595355136876
1.3909691644786453
1.014963012416514
1.1026648056790214
1.1824902594551365
1.288090001932482
1.2548096747147222
1.0713589951034155
0.9069440161253441
0.8249765042710242
0.8679325381913958
1.0058923996947515
1.1740975968892764
1.3188066365728097
1.3890117192050468
1.3866207321904263
1.3617018290217608
1.3207021499401517
1.3019814507475254
1.3239965040997066
1.3746435095682439
1.44689060714487
1.5293669942156827
1.6116488011658228
1.6852136885167266
1.7271974834460833
1.7577195793828548
1.781557742330329
1.798240507472988
1.809678174215571
1.8163493997405313
1.8177788755797082
1.8130138564105356
1.8015766590603477
1.7742111833226304
1.7161162778550314
1.637036155011605
1.6151602050644847
1.6550813772722763
1.7038311169822964
1.727982767758396
1.48701776261274
1.1072733049186712
1.2449604370383982
1.274544358372216
1.3044837635499202
1.1939942701857624
1.0180331547267927
0.8486805696973965
0.7822390993683542
0.8613312720281358
1.0440660824754069
1.2570206118091036
1.4411279888874926
1.476023175368803
1.4745892685753157
1.4607275322129871
1.4545132818853717
1.4693315038286106
1.5123445161099256
1.573018047746695
1.6379615908099818
1.700005456778774
1.7534280254927825
1.7963340744845189
1.828737329953106
1.8516021324298813
1.8658890832567854
1.8754121542646478
1.8811253854331993
1.882077545586744
1.8777927234009708
1.867317624408257
1.850649570575648
1.8234965208240237
1.7779314659211596
1.7015666375097105
1.6612278241241942
1.6579382815585282
1.6512815095691424
1.742604123364027
1.626072316539642
1.4721430386005159
1.4286800436873377
1.333728809370638
1.277713631304884
1.1200907421098603
0.8964949520081882
0.7334998856231849
0.7264242126508104
0.891167988008455
1.1486253905100459
1.4209675755745446
1.5534343699780075
1.5854363562895122
1.5825706988226131
1.5773168277005425
1.584481144262419
1.6131343347903926
1.66564714094115
1.728151450673742
1.7834645114062597
1.831595804380509
1.8696984634179346
1.897786303735383
1.9172981813780803
1.929668571280541
1.9358528732608116
1.9391826320401522
1.9387069629886844
1.934425780057389
1.926338314546002
1.9139672904793505
1.8968343599455952
1.8716030778022716
1.840646939811278
1.809678174215571
1.7884376790691408
1.7656107604225912
1.7138300648637799
1.6556084217232578
1.8364114119777073
1.7085793317374203
1.566907676631505
1.447841615793052
1.234142645243404
0.8676054576781207
0.5912101328698687
0.5326598663555672
0.699750962839703
1.0365959076506799
1.3990421995764613
1.6117018340044802
1.6723549552631178
1.675958864559103
1.6792636136687227
1.6930297943357644
1.721607523426973
1.766131753741456
1.8174214489954916
1.8633818285296837
1.8973200341873497
1.9194208081924355
1.9338062591110696
1.94258324397006
1.94662086365946
1.9478987683623072
1.9459323889229136
1.9409198864916717
1.9318968871612252
1.9189732693311725
1.902752143780662
1.8845732330882021
1.8643606817295226
1.8432107633053834
1.8226450152853995
1.8068868019457751
1.8004095481888394
1.8013330164521622
1.79462945315351
1.7789675774747784
-2.118549164031332
-1.5965762799435408
-1.3069928345630535
-0.8080519612567242
-0.202502030027569
0.4162801285151086
1.011262648711441
1.4908394705998917
1.6468454211634087
1.7076855282726637
1.7342529910584807
1.749389939934614
1.7651154097352484
1.7874501438774624
1.8174718656282138
1.853623576060352
1.8913856072825148
1.9241592424664935
1.947753983660367
1.9621030389472345
1.9698403011556902
1.9717925740171482
1.9699225620744965
1.9654406571745489
1.9580477181905493
1.9490342399286154
1.9378162109038768
1.9258417813556628
1.913581288154211
1.9019459186501984
1.8921541057579478
1.8840544768103769
1.8793638876314507
1.8808024911273633
1.8955192404837307
1.93833426981481
2.0283139465541473
1.9565031372440373
-2.0235257521610235
-0.9244022106252338
-0.011172277468400802
0.666345728595731
1.111514338721318
1.3631479863924232
1.5622787780142553
1.7000264796671296
1.7680405674603916
1.8051088601004475
1.82856493117473
1.8487453335412094
1.8690825850643809
1.892568330563194
1.9180494188937358
1.9452009704055644
1.9701316700671356
1.9896770799519319
2.002476843238117
2.008852509731378
2.0096503999642037
2.007122915917562
2.0023884609072145
1.9954573337515755
1.9878062761238953
1.9794384808607408
1.9704024002926273
1.9618091861064824
1.9544028555623445
1.9486634849074298
1.9457227689584289
1.947632665897122
1.9530255404701893
1.9614876302026074
1.974505987383802
2.020898964698589
1.9807162498158182
1.9791886371730019
-0.8688063169394263
-0.8813440962098982
-0.7675919886275592
0.2851793532233535
1.065032892695275
1.4896044801900128
1.6771041168602807
1.7743347050892868
1.8371932094180654
1.8803670287171375
1.9103450119241985
1.9330840953879618
1.951548500134379
1.9684576827348643
1.984138545717589
1.9993598483361659
2.014206542545081
2.0275639985051708
2.0392265726794383
2.0469619847498524
2.0517343771770284
2.0526422472815393
2.051447443281834
2.0479108304944984
2.043760065169626
2.039117240824748
2.0335372765961726
2.0279955077198872
2.022396158241219
2.0161980145447815
2.0106892911914906
2.006971577035963
2.007559053827059
2.014814807506749
2.0235875616539944
2.014164209856995
1.9965583222073715
1.9883175374748718
1.967269440992198
1.9752845771705536
)
;

boundaryField
{
    ".*"
    {
        type            zeroGradient;
    }
}


// ************************************************************************* //
