/*--------------------------------*- C++ -*----------------------------------*=========                 |
  \      /  F ield         | OpenFOAM: The Open Source CFD Toolbox
   \    /   O peration     | Website:  https://openfoam.org
    \  /    A nd           | Version:  6
     \/     M anipulation  |
\*---------------------------------------------------------------------------*/
FoamFile
{
    version     2.0;
    format      ascii;
    class       volScalarField;
    location    "160";
    object      PPD;
}
// * * * * * * * * * * * * * * * * * * * * * * * * * * * * * * * * * * * * * //

dimensions      [0 0 0 0 0 0 0];

internalField   nonuniform List<scalar> 
458
(
36.15275362418908
24.627393382215075
23.049730173069193
21.984114262824534
21.518547542937924
21.625729761305138
22.405707525151186
24.02243112884986
26.818040867358576
30.563534415237385
33.90108659800114
32.83476200088029
31.807959281592446
32.298554182493774
32.83655558611977
50.732615897644635
49.2819265514452
48.40388605572437
48.713512546635116
49.3595097221918
49.17911304613409
48.57649344517487
48.574357042207765
48.889233712124444
49.295622229532256
49.76714563222505
50.30794045882196
50.91673067648458
51.6831050862925
52.754027136482875
54.35581933945376
56.68666256465866
58.88979890237904
32.24067129189265
25.242434294747483
24.557426465426133
23.492693693460637
23.023408532531477
23.081398535174756
23.539989541549502
24.283232607400592
25.547350153372165
27.74345577800615
31.771667363788012
33.797257659257156
33.60156079228116
32.341630657360625
30.663442144472555
30.184621352686534
31.99508020165584
34.932144013424065
50.660808277500955
47.65696137456061
46.963418355623816
46.497717292587346
46.7045502507255
47.162860945896945
47.611201509595226
48.136830763150265
48.669312348213644
49.183792012801604
49.761082155915155
50.38098448452619
51.04462746920151
51.82782495841147
52.919711058869595
54.604580037065006
56.44788603249219
57.877588447941584
32.910706174059996
25.010506713475948
26.209056813741213
25.827150883631404
25.71443890829292
25.734224327441964
25.338260116543893
24.201413865801896
23.541334992292647
24.92603460304767
28.972889402826894
32.78116533101387
34.79863799875558
34.34670900990473
32.858509520871195
32.55974503165264
33.149903517607854
33.82671733825222
44.53829036266229
43.155398417327476
42.362612992867625
43.30012642547251
44.757643882155406
45.42720740833543
47.288569242777314
48.91992285175457
50.05898410170645
50.98305660415321
51.8834591502488
52.81848385214152
53.68996575977924
54.227023560969776
54.83512066531752
55.96685116661947
56.11135757441452
54.837340271370714
35.89738169468933
24.867498169971498
27.55896912655801
28.759471746297663
29.92914523559368
30.18771285957763
27.84127701354747
23.94930863533368
21.779381815356885
23.021362476858997
27.126161568693178
32.03059227774342
35.85893973091514
36.96630300171083
35.7380158079805
34.42199573862369
32.887869757088765
31.500621702903942
30.61088825699059
33.650591225710784
36.52885018672272
39.64831756645455
43.27146826027276
46.948318244141475
49.93354394787887
50.869458234430304
51.68790001387803
52.74466406949429
53.98158093176418
55.30644883701927
56.74603107632998
58.433814227868574
60.61958604636104
60.077293629817554
58.53162261088644
56.191807708545696
53.24093198521979
40.167450762303474
25.33465409487735
28.677291426792294
31.80700061663893
36.01271176480778
36.43227553089344
29.75829244766473
23.38986057577965
20.448811817707934
21.715839782723265
26.23218150905167
32.276778023985926
37.68831909513733
40.38682140414694
39.61315355533245
37.6683510244437
35.60993070505339
34.240600290622524
34.82570137467319
36.66268873166463
39.78632219513776
43.84992955860843
48.31593497323517
52.5964477398303
56.15381216791157
58.18855299494848
59.67522692478793
61.06409304156661
62.201298214980525
63.090028050211636
63.77697690155949
64.27220880621374
64.42919984180833
62.9960431098105
60.3520748489187
56.528125005330274
55.578730610351585
60.712921746058726
67.53765343871706
61.41848498549981
45.02491821221408
26.751576294741426
30.632772407907055
34.39237557731488
39.65237988320415
37.963069847209084
29.215935830340513
22.368115278511567
19.35473992930247
20.899354722903865
26.36615059262155
33.98768251941277
41.23439017793368
44.920908507852495
44.7939429697842
43.476251543618545
41.332685382824806
40.365250777159495
41.50369774780189
44.15930403841208
48.018697434640664
52.48969438760755
56.97026116067407
60.94910991191633
63.19254891927435
64.80571170065932
66.053137339301
66.91884314978826
67.50863574246765
67.85117416194817
67.92442719582957
67.68004636999456
67.09119683017003
65.66995868761009
62.60293653637413
58.34842196141138
57.161107141579976
59.32516595378624
61.9470619042893
63.23425739097078
50.18812846745349
30.844181918157247
37.46841473497133
38.961560735858754
40.49412342766568
34.950506249380425
26.882730287310622
20.197595431154
17.89480645408976
20.6570007218307
28.00886279353948
38.07445042043993
47.70840917198679
49.592357068887765
49.5147252505516
48.765146535995406
48.42967641048541
49.23021372909281
51.56352125483875
54.867543969669335
58.398578003328396
61.74237424900043
64.57992545754331
66.82023512111431
68.48425729399852
69.6420520624868
70.3580423628184
70.83194895171205
71.11494155201609
71.16200694718988
70.94998708806247
70.42930548189749
69.59410583970921
68.2169079386114
65.86414416137745
61.82592814626563
59.65719584861265
59.47954050543955
59.119720531660214
64.0089193592132
57.753744853191186
49.382324693227105
47.03942571024367
42.01020378251859
39.122801347480234
31.435915013299507
21.96862310625083
16.32462657453479
16.105135753535137
21.76666910038827
32.77262213411838
46.625872369144616
53.80054380745605
55.543952918668104
55.38789049752018
55.101723256353125
55.491934585489794
57.05100816788248
59.895696331142915
63.24321524456002
66.1523991184441
68.62977365374545
70.54793918533005
71.93437474292347
72.88256728770536
73.47704367942265
73.77223844919939
73.93061594962322
73.9080153346207
73.70423905021966
73.31752453709146
72.72160040444383
71.8877937949132
70.64272111370173
69.08910067271826
67.50863574246765
66.41091264974271
65.21993891718921
62.481051516828146
59.35365090078824
68.87443081798813
62.20082093405727
54.534640648304745
48.06993867217562
36.928033863576964
20.887304152048515
12.326322799966306
10.935920501018202
15.297091534702787
27.683168739053144
45.45449632993893
56.97314398159954
60.2573124668085
60.45139511306609
60.629237120028755
61.36863403976474
62.89536096832962
65.24724328087828
67.90611580686361
70.2328213682455
71.91156269198723
72.98494748002787
73.67469710158218
74.09195387545002
74.2829720698995
74.34330592159421
74.25044240232927
74.01308980299603
73.58356311053733
72.9633742302876
72.17688784129845
71.28523533795742
70.28173075872164
69.21880541778411
68.17340292322098
67.36498619374362
67.0309308702965
67.07861854807057
66.73199413809154
65.91817287662796
81.80676310463446
56.15041903757391
40.62348255796449
18.76736273576803
5.850389540709514
8.612271218954263
26.59396844098218
50.395421024336656
58.87971424896987
62.153078243605044
63.56691491143263
64.36715400329047
65.19397334357444
66.35962272757038
67.90869890598674
69.7437140692264
71.62061169127502
73.21293821084703
74.33647317530715
75.0098859063666
75.36980624089949
75.46026220125789
75.3736206289296
75.16542240234325
74.82034082641664
74.39686508456762
73.86567099287969
73.29370751749022
72.70292238780013
72.13756956560906
71.65835296286868
71.25963693738099
71.02779655424956
71.09897446903766
71.82339361373774
73.89030179189842
78.01367731385633
74.7479859259879
77.80242257085288
23.045426952288793
5.002583846379608
14.328422695861533
31.03936669513088
43.55243478105602
54.282434233168104
61.74349961125935
65.34723375629613
67.27339134366655
68.47547411039909
69.49818125233134
70.51726710761395
71.6786878959248
72.91881913048718
74.21586482626248
75.38331567505503
76.28205541722816
76.8624549279593
77.14909130477068
77.18484602274368
77.07149610234171
76.85846984274464
76.5449703690917
76.19667789126626
75.81311488055238
75.39586528416336
74.99617197103294
74.64945746640313
74.37938208517201
74.24053467100116
74.33074730292866
74.58475621884728
74.98116143545919
75.58574208099448
77.68612060600987
75.87186230149625
75.8016205080861
20.931568847084847
21.397268050928147
17.412270383169272
6.689363204669249
28.93378484143716
50.32842334775321
60.51304006463883
65.67641079268758
68.91409136581385
71.0774358003995
72.54612712656125
73.64024348399919
74.51529251245259
75.30565647857105
76.02889405679453
76.72172151998333
77.38851326231806
77.98065337120468
78.4915163132024
78.8271451184272
79.03292085742399
79.07195406062895
79.0205768670249
78.86813621920751
78.68853123128648
78.4867541043226
78.24302690387219
77.99965776508125
77.7524447377952
77.4772667109942
77.23136128333707
77.06470073650713
77.09107418787976
77.41563904486112
77.80515573321742
77.38662485321507
76.59489776270084
76.22002396210411
75.25046715134232
75.62169515090177
)
;

boundaryField
{
    ".*"
    {
        type            zeroGradient;
    }
}


// ************************************************************************* //
