/*--------------------------------*- C++ -*----------------------------------*=========                 |
  \      /  F ield         | OpenFOAM: The Open Source CFD Toolbox
   \    /   O peration     | Website:  https://openfoam.org
    \  /    A nd           | Version:  6
     \/     M anipulation  |
\*---------------------------------------------------------------------------*/
FoamFile
{
    version     2.0;
    format      ascii;
    class       volScalarField;
    location    "790";
    object      PPD;
}
// * * * * * * * * * * * * * * * * * * * * * * * * * * * * * * * * * * * * * //

dimensions      [0 0 0 0 0 0 0];

internalField   nonuniform List<scalar> 
458
(
41.44609967489676
29.46870898415068
28.022980086342343
26.772190176654476
25.987544683533585
25.62298909889732
25.72480292930601
26.34028207053619
27.586301279261846
29.70491806698874
32.965975165027345
36.404742667374926
37.18834071858375
37.59457338560882
38.21913880483234
44.12289368793543
43.41794579282146
43.217098575693086
43.56874910854284
43.82040221893049
44.02200249766892
43.791452479532296
43.568154440609604
43.62091219567008
43.72255259883274
43.88158064564607
44.05580669826347
44.287943807639046
44.63113787859121
45.23171984236099
45.66857593603361
45.89768409334005
46.63760314640436
38.010683222689664
30.005588131661852
29.44649237458721
28.177840031698523
27.44247673100783
27.098395772027942
27.142012867364954
27.499438917300054
28.119027343481235
29.208493919383002
31.04073205834743
33.90686554667411
36.997769168343986
37.546692604037744
37.906368092765575
35.82780795738633
35.8162530723435
36.89506471716298
41.64953327265305
42.741136188615364
42.716127263273684
43.1167721574862
43.27038920061407
43.24914215852101
43.252968730474095
43.31432281461146
43.35284207105388
43.367880462931105
43.3914458293633
43.459460331443566
43.51907674429941
43.6837521774581
44.13895289942991
44.577637705694734
44.932133556559684
44.04417531605418
39.59634035883068
29.59587653317685
30.931032095909018
30.235469695768188
29.92671348733387
29.738444551326822
29.753456661238047
29.588729028669064
28.9992543922572
28.503581836549813
28.98212053005635
31.192985050976603
35.554807493741265
37.882349031339075
38.21913880483234
38.363819293562706
38.43543034066865
37.42006074005229
37.111646138466895
40.38194387706236
40.86304777877059
41.32203879662131
41.881523719325855
42.06807467192476
43.24834489168723
43.99678913318417
43.99678913318417
44.02200249766892
44.02200249766892
44.02200249766892
44.04721964420489
44.07244056398224
44.223844825987015
44.40065186218199
44.00074832548074
40.20938028142296
43.48140984835333
29.28684414309629
32.02599578493606
32.53021616222081
33.33664917253907
33.887409110301576
33.98299275513274
32.86316986030242
30.2293050169516
27.84181418368169
27.29808860957462
29.293532568583444
33.59395612167265
38.187399106505914
38.896038430955144
38.96882079712308
37.68517344650041
36.476769294450904
33.99092522626759
37.24785272906913
39.05706525441344
40.38263173739644
41.93895410951269
43.72554681944256
45.134412844700066
44.79897079246821
44.465029129878154
44.397596543306136
44.45622095922512
44.58497851453452
44.92992924514361
45.62943765855032
46.87192239625289
46.817128425278966
46.076054047637996
42.934891277870875
37.965856527433544
48.504683168109324
29.656364856667977
32.84976945464014
34.630519134874675
37.3317049247248
39.69409447026752
40.1826567170531
36.58039266978244
31.268320401382184
27.257589957265566
26.081165913744343
28.140510725126603
32.43410164349896
37.46005946858016
39.89490819153392
39.99283189365677
39.43973985979965
37.99557889979685
37.91354181476076
38.70330467194041
40.30668502460859
42.399381800051344
44.57641902687576
46.70024786993833
48.1500913253978
48.821695287887195
48.83841280679487
48.81028266927067
48.71277224833115
48.55197646726639
48.411585490451756
48.37352778122978
48.35394337727886
47.53175394021641
46.11728016268687
42.11841451538713
42.14822136542068
41.97812562448973
46.45373593829993
40.059962654656616
53.80486129899692
31.02760919173518
34.3180949659843
36.198893926301025
40.459087053595134
44.45120113400287
46.38217694124764
38.09296075200362
31.219889229396358
26.547350659630737
25.256817162811572
27.438503036223267
32.23245717955177
38.02007360247356
41.32262856449745
41.64485903382736
41.52083140837489
41.57042861611414
42.233067080871926
43.3044425358816
45.08404379856273
46.73985377850577
48.201512380418365
49.412342585216855
50.31666402752719
50.91192658209957
51.32640964985153
51.58560137012183
51.66337792940295
51.61152595088893
51.35232424297771
50.989619662001566
50.043582886634454
48.425642596758564
46.46027011306024
42.705409941458804
42.377565419226165
42.00257269138319
43.313292787094376
43.72162253157217
58.82736930027983
35.14803834895672
40.27542836569722
39.13218465713125
41.9327710583501
46.12704447255141
42.82321267875237
36.595929207021356
29.859969360815
25.329678434294266
24.475032420700558
27.43720855110645
33.2738617419171
40.365668146749115
43.29238606124667
43.895973671987385
43.921171820173996
44.223844825987015
45.18576162084821
46.535398014194215
48.047276661258145
49.46396273809805
50.70479937321632
51.63745147406749
52.25992002535837
52.6491722312356
52.856824330031735
52.9347015129347
52.882782958866976
52.701082288208845
52.33775925790918
51.844888354471536
51.2745836389161
50.32925084936822
47.92681093228364
44.59783300993339
43.07690833704691
41.975660983229226
40.51331297129051
46.126677442363125
66.3086695334554
54.80622884571091
51.62673974383696
45.31244225728981
44.17793678333673
43.59451790934658
39.94630235954059
32.98162130675097
26.292203119859508
22.94025348015407
23.70837250750185
28.623786858080024
36.56723971365206
43.77004049757625
45.948631506691655
46.61204757426007
46.84214930872184
47.37991348356309
48.43301794149913
49.696340410565156
50.937823070914256
52.026440426164854
52.83086614722555
53.3760677724234
53.713632076981675
53.843470285371254
53.86943811279736
53.791534784680906
53.635730273804256
53.427998712303264
53.09046679530964
52.62321799149052
52.05237963018165
51.40415655344396
50.67891421192919
49.877173663847515
49.368950177187784
47.8867219117958
43.636797436900316
39.15263628018338
76.57653379882164
69.4660183656816
61.0102652739122
53.22943387317055
48.24042361267378
44.42692995966198
34.639867327012425
24.831812074957426
19.776786681402456
19.74449924278335
24.15267558022998
33.1152270325819
42.94135893550625
47.20052851765116
48.79348506569358
49.48977549016601
49.9546981456181
50.60126662423857
51.50783338485787
52.467504249998356
53.272208820528384
53.92137386914763
54.26419375997006
54.002342261661525
53.6886959270829
53.33787542770849
52.9118746721614
52.44008502508874
51.88062568776581
51.256300415400005
50.54044059245617
49.73029911675551
48.970762876364766
48.061416854513574
47.009465023376315
46.052285641405156
45.437046970124996
45.211445010028285
44.681748701597584
43.01154689558573
59.545207075728335
16.931984879301737
5.776886451799228
5.001458206973751
5.467260226679926
7.297315444117032
11.806436325015369
20.045711962269138
32.19946382456352
42.81618827390102
48.17580071740391
49.30196774898255
49.759819561064894
50.214065320545444
50.78669140858461
51.475710224046765
52.11543244480779
52.571919131066394
52.775187707060354
52.78737198398872
52.63570839720239
52.379305128115945
52.038768718532594
51.631649647911246
51.158023919200936
50.65894841551291
50.188304586664316
49.7824205055349
49.470330714145256
49.26074821929667
49.10984540056055
49.00908189925954
48.902726728465154
48.93900406028413
49.50477021067108
51.47599954595296
55.134457624646515
46.8696284578292
60.184605736768354
12.178363147555928
5.001767591235506
7.042433731180012
10.657644143323793
17.75440579582157
28.00835835499109
39.0416522223071
44.0273562371422
46.30906330016774
47.845146507447126
48.744314570661416
49.3507501990656
49.838526665231385
50.301533331915294
50.70210762673006
51.031675638427515
51.287603404244436
51.43788944032094
51.43765698184338
51.37325805629443
51.22590468938902
51.057027763656784
50.87579179465668
50.69163101177756
50.541353147728394
50.41025972699881
50.3501815236398
50.359057861629324
50.50419635510611
50.87354189261439
51.504745263379775
52.173186643809174
52.735700751895735
53.31695172556307
55.233926403623435
52.410370069479214
49.197793259625826
32.08772284737594
32.02390574580129
26.510153624184767
5.9214726375657705
7.867617949187959
17.92032435218522
29.67859717308076
36.73156111471989
41.26303264774951
44.085640177281604
45.912007844578255
47.24428410108923
48.04176753798386
48.512046070170335
48.7779412463751
48.960068944627984
49.05153665983511
49.04535424115801
48.96095299449607
48.845165673093796
48.682123544536786
48.53813197305798
48.39299622872796
48.25183907136002
48.14899902994133
48.09441887839906
48.1022301296915
48.22025937376031
48.42185466968052
48.775146621022415
49.28675906481661
50.066919948767925
51.36217730869336
53.57176062439183
56.85322391667785
57.1639579213629
55.664036223179295
52.3764546315483
49.556930820778774
50.29942497127398
)
;

boundaryField
{
    ".*"
    {
        type            zeroGradient;
    }
}


// ************************************************************************* //
