/*--------------------------------*- C++ -*----------------------------------*\
  =========                 |
  \\      /  F ield         | OpenFOAM: The Open Source CFD Toolbox
   \\    /   O peration     | Website:  https://openfoam.org
    \\  /    A nd           | Version:  6
     \\/     M anipulation  |
\*---------------------------------------------------------------------------*/
FoamFile
{
    version     2.0;
    format      ascii;
    class       volScalarField;
    location    "420";
    object      alphat;
}
// * * * * * * * * * * * * * * * * * * * * * * * * * * * * * * * * * * * * * //

dimensions      [1 -1 -1 0 0 0 0];

internalField   nonuniform List<scalar> 
458
(
0.00126321
0.00137821
0.00141123
0.00147965
0.00154288
0.00160301
0.00166351
0.00172428
0.00177368
0.00180419
0.00180656
0.00177172
0.00168784
0.00150185
0.00115333
0.000568831
0.00066741
0.000759621
0.000795225
0.000783659
0.000732634
0.00067625
0.000625932
0.000582465
0.000544796
0.000511975
0.000483265
0.000457878
0.000434811
0.000412975
0.000391059
0.000377072
0.000345691
0.00169529
0.00386824
0.00358594
0.00411322
0.00464365
0.00518651
0.00566837
0.00604888
0.00643729
0.00679826
0.00708505
0.00725384
0.0072576
0.00696918
0.00557778
0.00152202
0.00126519
0.00102974
0.000562333
0.00135263
0.00199014
0.00248295
0.00263465
0.00190474
0.0016028
0.00139849
0.00124826
0.00113362
0.00104297
0.000966243
0.000893967
0.000821218
0.000755492
0.000700823
0.000849413
0.000448675
0.00205511
0.00520378
0.00433673
0.00527101
0.00567847
0.00596598
0.00618717
0.00639693
0.00668351
0.00703096
0.00741031
0.00777636
0.00805491
0.00812113
0.00761736
0.00620445
0.00466877
0.00122581
0.000860799
0.00150583
0.00222035
0.00293114
0.0031293
0.00098766
0.000862575
0.000758743
0.000674802
0.000607166
0.000552447
0.000508004
0.000472159
0.000444427
0.000493541
0.000574916
0.000996698
0.000527428
0.00240057
0.00662145
0.0042362
0.00546522
0.00569098
0.00567646
0.00566488
0.00576829
0.00600207
0.00635075
0.00679638
0.00728278
0.00769178
0.00791912
0.00784059
0.00742124
0.00634562
0.00347204
0.00140802
0.00177467
0.00245838
0.00331553
0.00406836
0.00411299
0.00111702
0.00102201
0.0009563
0.00090708
0.000865194
0.000824595
0.000785935
0.000745189
0.00069784
0.000655262
0.000647317
0.00118474
0.000605724
0.0027532
0.00851845
0.00444857
0.00519832
0.00551528
0.00533632
0.00519649
0.00528297
0.0055217
0.00588476
0.0063717
0.00690592
0.00729716
0.00747867
0.00746178
0.00731461
0.00687894
0.00568215
0.00510598
0.00517112
0.00550236
0.00589284
0.0061412
0.006054
0.00515167
0.00467897
0.00441104
0.00421613
0.00402007
0.00376033
0.00335591
0.0028447
0.00226886
0.00171884
0.00128845
0.00120935
0.00103084
0.000808037
0.000857303
0.000932723
0.0031309
0.010651
0.00605938
0.0048448
0.00526411
0.00526788
0.00506184
0.00514667
0.00537951
0.00574369
0.00623791
0.00675157
0.00711446
0.00721007
0.00708998
0.00694128
0.00688023
0.00678042
0.00697293
0.00733882
0.00760833
0.00768048
0.0075406
0.00720855
0.00671624
0.00630145
0.00596839
0.00567003
0.00537611
0.00506453
0.00466543
0.0041421
0.00349791
0.00278413
0.00213518
0.00155833
0.0012715
0.00110201
0.00138472
0.000968117
0.00349967
0.0122422
0.00892996
0.00595821
0.00523902
0.00532953
0.00534407
0.00534885
0.00547948
0.00581241
0.00630922
0.0068214
0.00714652
0.007151
0.00693264
0.00681363
0.00710924
0.00768328
0.00826378
0.0086158
0.00864545
0.00839457
0.00794301
0.00737462
0.00678461
0.0062832
0.00588221
0.00554671
0.0052511
0.00498751
0.00475087
0.00445506
0.00400108
0.00341096
0.00280769
0.00223674
0.00186031
0.00169969
0.00161596
0.0011548
0.00358698
0.0112714
0.00962634
0.00816055
0.00705785
0.0065568
0.00600435
0.00565774
0.00568136
0.00603129
0.0065622
0.00706703
0.00732009
0.00720374
0.00694982
0.00708664
0.00785287
0.00845073
0.00878508
0.0088118
0.00850781
0.00794738
0.00723254
0.00648068
0.00581967
0.00532501
0.00497252
0.00471157
0.00451529
0.00437869
0.00430731
0.00428981
0.00416358
0.00382087
0.00349191
0.00330952
0.00338699
0.00356716
0.00421462
0.00178166
0.00351069
0.00423178
0.00467584
0.00492537
0.00497088
0.00490782
0.0049439
0.00521334
0.00572526
0.00637348
0.00700531
0.00743908
0.00749887
0.00716762
0.00717297
0.00758673
0.00803221
0.00820106
0.00812904
0.00779619
0.00720102
0.00642902
0.00561758
0.00491168
0.00439507
0.00405225
0.00381943
0.00364581
0.00350339
0.0033758
0.00325078
0.00311854
0.00300276
0.00290384
0.00283677
0.00279594
0.00272123
0.00257427
0.00239876
0.00166316
0.00154951
0.00271771
0.00376143
0.00462824
0.00545416
0.00628279
0.00696697
0.00745628
0.00770306
0.00762037
0.00724252
0.00684999
0.00690364
0.00708245
0.00703952
0.00679976
0.00638314
0.00579341
0.00509539
0.00438806
0.0037931
0.00337714
0.00311934
0.00296376
0.00286478
0.00279683
0.00274794
0.00271392
0.00269605
0.00270512
0.00272214
0.0027371
0.00273787
0.00269396
0.00256017
0.00232658
0.00203726
0.00133913
0.0023811
0.00474615
0.0061864
0.0071591
0.00791281
0.00798493
0.00766066
0.00733292
0.00675025
0.00589387
0.00536165
0.00522069
0.00516967
0.00499572
0.00470114
0.0043116
0.00383921
0.00333299
0.0028759
0.00253167
0.00230651
0.0021781
0.00212399
0.00211949
0.00214924
0.00220407
0.00227679
0.00235915
0.00245578
0.0025635
0.00267735
0.00278841
0.00287833
0.00292351
0.00288093
0.0028439
0.00263845
0.0013571
0.00249715
0.00256113
0.00261847
0.00290587
0.00273969
0.00242376
0.00206236
0.00178055
0.00159305
0.00140512
0.00123246
0.00109701
0.000978956
0.000894251
0.000837443
0.000795911
0.00076216
0.000732956
0.000708894
0.000692865
0.000687186
0.000691864
0.00070543
0.000725668
0.000750698
0.000779959
0.000813312
0.000850976
0.000893591
0.000942468
0.000997654
0.00105896
0.00112675
0.00120139
0.00128294
0.00138079
0.00142158
0.0013914
0.00129452
0.00119713
)
;

boundaryField
{
    floor
    {
        type            compressible::alphatWallFunction;
        Prt             0.85;
        value           nonuniform List<scalar> 
36
(
0.000163673
7.96704e-05
9.43748e-05
0.000107891
0.000113057
0.000111383
0.000103958
9.56812e-05
8.82236e-05
8.17224e-05
7.60399e-05
7.10488e-05
6.665e-05
6.2733e-05
5.91502e-05
5.57361e-05
5.22862e-05
5.00717e-05
4.50639e-05
4.50632e-05
6.13071e-05
7.34045e-05
8.52098e-05
0.000114918
0.000122012
0.000132773
0.000163672
0.000213911
0.000179085
0.000146444
7.96695e-05
0.000146443
7.86899e-05
0.000173677
0.000122496
0.000198544
)
;
    }
    ceiling
    {
        type            compressible::alphatWallFunction;
        Prt             0.85;
        value           nonuniform List<scalar> 
43
(
0.000340982
0.000349107
0.000356373
0.000392621
0.000371795
0.000331776
0.000285296
0.000248436
0.000223559
0.00019829
0.000174735
0.000155991
0.000139437
0.000127415
0.000119278
0.000113287
0.000108392
0.000104134
0.000100611
9.82562e-05
9.74202e-05
9.81089e-05
0.000100103
0.000103069
0.000106723
0.000110977
0.000115802
0.000121223
0.000127322
0.000134276
0.000142076
0.000150683
0.000160133
0.000170463
0.000181666
0.000195002
0.000200531
0.000196442
0.000183251
0.00016988
0.000467847
0.000555502
0.000326083
)
;
    }
    sWall
    {
        type            compressible::alphatWallFunction;
        Prt             0.85;
        value           uniform 0.000339739;
    }
    nWall
    {
        type            compressible::alphatWallFunction;
        Prt             0.85;
        value           nonuniform List<scalar> 6(0.000132556 0.000137564 0.000163666 0.000188999 0.000191443 0.000169541);
    }
    sideWalls
    {
        type            empty;
    }
    glass1
    {
        type            compressible::alphatWallFunction;
        Prt             0.85;
        value           nonuniform List<scalar> 9(0.000174242 0.00023164 0.000278331 0.00032242 0.000366797 0.000413718 0.000459006 0.000469794 0.000460726);
    }
    glass2
    {
        type            compressible::alphatWallFunction;
        Prt             0.85;
        value           nonuniform List<scalar> 2(0.000246641 0.0002311);
    }
    sun
    {
        type            compressible::alphatWallFunction;
        Prt             0.85;
        value           nonuniform List<scalar> 
14
(
0.000178831
0.000194502
0.000198977
0.000208216
0.00021671
0.000224753
0.000232812
0.000240875
0.000247405
0.000251427
0.00025174
0.000247144
0.000236041
0.000211201
)
;
    }
    Table_master
    {
        type            compressible::alphatWallFunction;
        Prt             0.85;
        value           nonuniform List<scalar> 9(0.000140679 0.000122898 0.000107905 9.56046e-05 8.55579e-05 7.73288e-05 7.05705e-05 6.50656e-05 6.07702e-05);
    }
    Table_slave
    {
        type            compressible::alphatWallFunction;
        Prt             0.85;
        value           nonuniform List<scalar> 9(0.000158796 0.000145518 0.00013625 0.00012926 0.000123276 0.000117443 0.000111856 0.000105933 9.90002e-05);
    }
    inlet
    {
        type            fixedValue;
        value           uniform 1.94e-05;
    }
    outlet
    {
        type            zeroGradient;
    }
}


// ************************************************************************* //
