/*--------------------------------*- C++ -*----------------------------------*\
  =========                 |
  \\      /  F ield         | OpenFOAM: The Open Source CFD Toolbox
   \\    /   O peration     | Website:  https://openfoam.org
    \\  /    A nd           | Version:  6
     \\/     M anipulation  |
\*---------------------------------------------------------------------------*/
FoamFile
{
    version     2.0;
    format      ascii;
    class       volScalarField;
    location    "420";
    object      epsilon;
}
// * * * * * * * * * * * * * * * * * * * * * * * * * * * * * * * * * * * * * //

dimensions      [0 2 -3 0 0 0 0];

internalField   nonuniform List<scalar> 
458
(
0.00045316
0.000586927
0.000630047
0.000726176
0.000823272
0.000923293
0.00103179
0.00114901
0.00125053
0.00131605
0.00132116
0.00124613
0.00107742
0.000759171
0.000343949
4.13301e-05
6.67411e-05
9.8395e-05
0.000112897
0.00010805
8.82942e-05
6.94416e-05
5.50686e-05
4.43771e-05
3.63142e-05
3.01401e-05
2.53501e-05
2.15625e-05
1.84662e-05
1.58224e-05
1.34357e-05
1.2046e-05
9.28413e-06
0.00109744
0.0016151
0.000545511
0.000530608
0.000548781
0.000584919
0.000645901
0.00073478
0.00083205
0.000909372
0.00093616
0.000896107
0.000796863
0.000649735
0.00052126
0.000790342
0.000454016
0.000244841
3.99348e-05
7.85632e-05
9.87802e-05
0.000100456
9.69979e-05
9.76334e-05
7.63119e-05
5.76584e-05
4.38434e-05
3.37896e-05
2.6449e-05
2.10392e-05
1.70026e-05
1.39925e-05
1.20863e-05
1.1275e-05
3.0134e-05
2.02966e-05
0.00195895
0.00388028
0.000631038
0.000482696
0.000492668
0.000539375
0.000618719
0.000730747
0.00085151
0.00094259
0.000976125
0.000941331
0.000847272
0.000701029
0.000546387
0.000441817
0.000376391
0.000413014
0.000143188
0.000145675
0.000133794
0.000120279
0.000112611
0.000216327
0.000144107
9.80803e-05
6.89972e-05
5.02612e-05
3.78606e-05
2.94392e-05
2.36373e-05
1.97125e-05
1.54133e-05
1.35552e-05
6.29951e-05
3.29702e-05
0.00312856
0.00802447
0.000938127
0.000461767
0.000453325
0.00051095
0.000614506
0.000770266
0.000922042
0.00102075
0.00105264
0.00101196
0.000903537
0.00074278
0.000580843
0.000459508
0.000389585
0.000401901
0.000626018
0.000400179
0.000263256
0.000193038
0.000153181
0.00013504
0.000313138
0.000239886
0.000196556
0.000167763
0.000145594
0.000126055
0.000109151
9.30445e-05
7.64137e-05
4.66923e-05
2.97403e-05
0.000111116
4.99455e-05
0.00472919
0.0144497
0.00179801
0.000497256
0.000419628
0.000483068
0.000639366
0.000900634
0.00108813
0.00118252
0.00119955
0.00113436
0.000991236
0.000794983
0.000597023
0.00044666
0.000354912
0.000323395
0.000325637
0.000273851
0.000227899
0.000191925
0.000161129
0.000134827
0.000124953
0.00011409
0.000106286
9.95249e-05
9.22394e-05
8.37812e-05
7.49922e-05
6.63605e-05
5.82139e-05
4.73606e-05
3.67865e-05
7.35116e-05
0.000110858
0.000118689
0.000141864
0.000182699
0.00696745
0.0217554
0.00411351
0.000842453
0.000502296
0.000518179
0.000805222
0.00121646
0.00139278
0.00144996
0.001427
0.00132239
0.00112736
0.000867693
0.000608346
0.000413337
0.000300447
0.00025925
0.000249788
0.000239738
0.000221741
0.000195504
0.000165338
0.000136711
0.000117559
0.000108996
0.000106136
0.000104254
0.000100821
9.42913e-05
8.38463e-05
7.22483e-05
6.13051e-05
5.12962e-05
4.42635e-05
5.54587e-05
8.68449e-05
0.000104589
0.000204507
0.000204213
0.00974646
0.0262251
0.00894051
0.00294094
0.00157378
0.00127048
0.00164605
0.00185775
0.00189651
0.00185343
0.00175216
0.0015748
0.00129779
0.000951481
0.000616596
0.000378048
0.000255082
0.000221339
0.000224668
0.000225478
0.000211061
0.00018519
0.000156231
0.000131505
0.000117273
0.000114423
0.000117753
0.000122734
0.000127002
0.000128462
0.000123765
0.000111308
9.83039e-05
8.71363e-05
8.19045e-05
9.01168e-05
0.000121697
0.000177845
0.000327562
0.00034652
0.010519
0.0298917
0.0160907
0.00976124
0.00616247
0.00443556
0.00357505
0.00302142
0.0026658
0.00240921
0.00216755
0.00187186
0.00147152
0.00100862
0.000583753
0.000318268
0.000209458
0.000194558
0.000200462
0.000197291
0.000180001
0.000156501
0.000135168
0.000121371
0.000117511
0.000122469
0.000133137
0.000147596
0.000165418
0.00018655
0.000210293
0.000231007
0.000245444
0.000273891
0.00033099
0.000482745
0.000822216
0.00137457
0.00406403
0.00127492
0.00989469
0.0172757
0.0132371
0.00999192
0.00754106
0.00584957
0.00466425
0.00389392
0.0033862
0.00298644
0.00259388
0.00213763
0.00154982
0.000934427
0.000413283
0.000229237
0.00017303
0.000162334
0.000158883
0.000149908
0.000135399
0.000120633
0.00011056
0.000107579
0.000111879
0.000122369
0.000138103
0.000159257
0.000187135
0.000223953
0.000272749
0.000337108
0.000424082
0.000548116
0.000728094
0.00096715
0.00123702
0.00148128
0.00168464
0.00103887
0.00339843
0.00463458
0.00509952
0.00509368
0.00487725
0.00452511
0.00402036
0.00340067
0.00274982
0.00205323
0.0011273
0.000514489
0.000247257
0.000159453
0.000131165
0.000120467
0.000112461
0.000103365
9.45732e-05
8.80745e-05
8.56389e-05
8.78656e-05
9.43782e-05
0.000104682
0.000118707
0.000136995
0.000160767
0.000192087
0.000234317
0.000293223
0.00037425
0.000483636
0.000623785
0.0007789
0.000903206
0.00093848
0.000868341
0.000542246
0.00289478
0.00889156
0.00867502
0.00758241
0.00646928
0.00510061
0.00371119
0.0023409
0.00135641
0.00072641
0.000363484
0.000202216
0.000136802
0.00010895
9.52413e-05
8.59696e-05
7.80178e-05
7.139e-05
6.71029e-05
6.57782e-05
6.73882e-05
7.17309e-05
7.87702e-05
8.86986e-05
0.000102039
0.000119701
0.000143075
0.000174237
0.000216132
0.000272417
0.000348233
0.000448724
0.000574629
0.000715553
0.000826252
0.000936878
0.000735077
0.000564307
0.00339116
0.00365707
0.00390809
0.0053979
0.00455408
0.00317078
0.00196269
0.00126703
0.000909104
0.000624613
0.000421819
0.000297591
0.000211546
0.000161275
0.000132466
0.000113727
9.98696e-05
8.88275e-05
8.03655e-05
7.50379e-05
7.32083e-05
7.47137e-05
7.9195e-05
8.62079e-05
9.54389e-05
0.000107039
0.000121365
0.000139018
0.000160965
0.000188848
0.000224001
0.000267889
0.000322702
0.00039118
0.00047639
0.000593967
0.000648254
0.000607881
0.00048956
0.000387332
)
;

boundaryField
{
    floor
    {
        Cmu             0.09;
        kappa           0.41;
        E               9.8;
        type            epsilonWallFunction;
        value           nonuniform List<scalar> 
36
(
0.000343949
4.13301e-05
6.67411e-05
9.8395e-05
0.000112897
0.00010805
8.82942e-05
6.94416e-05
5.50686e-05
4.43771e-05
3.63142e-05
3.01401e-05
2.53501e-05
2.15625e-05
1.84662e-05
1.58224e-05
1.34357e-05
1.2046e-05
9.28413e-06
9.28413e-06
2.02966e-05
3.29702e-05
4.99455e-05
0.000118689
0.000141864
0.000182699
0.000343949
0.000790342
0.000454016
0.000244841
4.13301e-05
0.000244841
3.99348e-05
0.000413014
0.000143188
0.000626018
)
;
    }
    ceiling
    {
        Cmu             0.09;
        kappa           0.41;
        E               9.8;
        type            epsilonWallFunction;
        value           nonuniform List<scalar> 
43
(
0.00339116
0.00365707
0.00390809
0.0053979
0.00455408
0.00317078
0.00196269
0.00126703
0.000909104
0.000624613
0.000421819
0.000297591
0.000211546
0.000161275
0.000132466
0.000113727
9.98696e-05
8.88275e-05
8.03655e-05
7.50379e-05
7.32083e-05
7.47137e-05
7.9195e-05
8.62079e-05
9.54389e-05
0.000107039
0.000121365
0.000139018
0.000160965
0.000188848
0.000224001
0.000267889
0.000322702
0.00039118
0.00047639
0.000593967
0.000648254
0.000607881
0.00048956
0.000387332
0.00989469
0.0172757
0.00289478
)
;
    }
    sWall
    {
        Cmu             0.09;
        kappa           0.41;
        E               9.8;
        type            epsilonWallFunction;
        value           uniform 0.00339116;
    }
    nWall
    {
        Cmu             0.09;
        kappa           0.41;
        E               9.8;
        type            epsilonWallFunction;
        value           nonuniform List<scalar> 6(0.000182699 0.000204213 0.00034652 0.000542246 0.000564307 0.000387332);
    }
    sideWalls
    {
        type            empty;
    }
    glass1
    {
        Cmu             0.09;
        kappa           0.41;
        E               9.8;
        type            epsilonWallFunction;
        value           nonuniform List<scalar> 9(0.00045316 0.00109744 0.00195895 0.00312856 0.00472919 0.00696745 0.00974646 0.010519 0.00989469);
    }
    glass2
    {
        Cmu             0.09;
        kappa           0.41;
        E               9.8;
        type            epsilonWallFunction;
        value           nonuniform List<scalar> 2(0.00127492 0.00103887);
    }
    sun
    {
        Cmu             0.09;
        kappa           0.41;
        E               9.8;
        type            epsilonWallFunction;
        value           nonuniform List<scalar> 
14
(
0.00045316
0.000586927
0.000630047
0.000726176
0.000823272
0.000923293
0.00103179
0.00114901
0.00125053
0.00131605
0.00132116
0.00124613
0.00107742
0.000759171
)
;
    }
    Table_master
    {
        Cmu             0.09;
        kappa           0.41;
        E               9.8;
        type            epsilonWallFunction;
        value           nonuniform List<scalar> 9(0.000216327 0.000144107 9.80803e-05 6.89972e-05 5.02612e-05 3.78606e-05 2.94392e-05 2.36373e-05 1.97125e-05);
    }
    Table_slave
    {
        Cmu             0.09;
        kappa           0.41;
        E               9.8;
        type            epsilonWallFunction;
        value           nonuniform List<scalar> 9(0.000313138 0.000239886 0.000196556 0.000167763 0.000145594 0.000126055 0.000109151 9.30445e-05 7.64137e-05);
    }
    inlet
    {
        type            turbulentMixingLengthDissipationRateInlet;
        mixingLength    0.01;
        phi             phi;
        k               k;
        value           uniform 0.000471672;
    }
    outlet
    {
        type            zeroGradient;
    }
}


// ************************************************************************* //
