/*--------------------------------*- C++ -*----------------------------------*\
  =========                 |
  \\      /  F ield         | OpenFOAM: The Open Source CFD Toolbox
   \\    /   O peration     | Website:  https://openfoam.org
    \\  /    A nd           | Version:  6
     \\/     M anipulation  |
\*---------------------------------------------------------------------------*/
FoamFile
{
    version     2.0;
    format      ascii;
    class       volScalarField;
    location    "420";
    object      k;
}
// * * * * * * * * * * * * * * * * * * * * * * * * * * * * * * * * * * * * * //

dimensions      [0 2 -2 0 0 0 0];

internalField   nonuniform List<scalar> 
458
(
0.0023383
0.00277837
0.00291283
0.00320205
0.00348146
0.00375802
0.00404695
0.00434793
0.00460041
0.00475973
0.00477202
0.00458961
0.00416541
0.00329833
0.00194564
0.000473781
0.000652122
0.000844724
0.000925808
0.000899118
0.000785876
0.000669595
0.000573678
0.000496789
0.000434628
0.000383851
0.000342021
0.000307043
0.000276897
0.000249794
0.000223996
0.000208271
0.000175076
0.00421685
0.0077219
0.00432069
0.00456382
0.00493152
0.00538068
0.00591101
0.00651271
0.00714926
0.00768047
0.00795513
0.00787508
0.00742816
0.006573
0.00526717
0.003388
0.00234125
0.00155116
0.000463057
0.00100721
0.00136993
0.00154311
0.00156199
0.00133246
0.00108063
0.000877413
0.000722851
0.000604743
0.000513203
0.000440563
0.000380953
0.000331232
0.000295272
0.000274681
0.000494384
0.000294906
0.0062051
0.0138834
0.00511076
0.00492796
0.00516756
0.00554225
0.00604498
0.00667987
0.00737015
0.0079527
0.00830772
0.00835698
0.00806923
0.00737024
0.00630192
0.00511448
0.00409502
0.00219808
0.00108477
0.0014471
0.00168402
0.00183462
0.00183426
0.00142826
0.0010894
0.000842922
0.000666736
0.000539786
0.000446881
0.000377877
0.000326436
0.00028922
0.000269507
0.000272785
0.000774302
0.00040752
0.00847807
0.0225236
0.0061592
0.00490833
0.00496292
0.00526245
0.00576542
0.00651352
0.00726885
0.00786602
0.00826233
0.00838531
0.00814281
0.00749164
0.00659223
0.00570461
0.00485718
0.00364926
0.0029004
0.00260351
0.00248547
0.00247183
0.00243927
0.00230294
0.00182763
0.00153015
0.00133985
0.00120558
0.00109689
0.000996415
0.000905216
0.000813818
0.000713698
0.00054058
0.000428785
0.00112123
0.000537525
0.0111667
0.0342863
0.00873858
0.00496785
0.00470104
0.0049618
0.00563346
0.00674161
0.00757492
0.0081505
0.00854021
0.00864513
0.00830713
0.00753188
0.00652018
0.00558402
0.00482715
0.00418791
0.00398375
0.00367667
0.00346001
0.00328617
0.00307401
0.00279209
0.00247965
0.00225818
0.00211633
0.0020022
0.0018822
0.00173493
0.00155063
0.00134297
0.00112332
0.000881852
0.000672856
0.000921456
0.00104472
0.000957214
0.00107808
0.00127612
0.0144583
0.0470508
0.0154277
0.00624287
0.00502511
0.00510627
0.00624042
0.00773434
0.00845967
0.00891672
0.00921646
0.00922918
0.00874755
0.00772633
0.00641598
0.00523321
0.00444219
0.00409646
0.00407784
0.00409866
0.00401382
0.00378698
0.00345097
0.00306834
0.00274656
0.00256177
0.00246028
0.00237669
0.00227587
0.00213621
0.0019334
0.00169103
0.00143143
0.00116812
0.000950202
0.000908581
0.00102699
0.0010493
0.00164484
0.00137444
0.0180842
0.0553986
0.0276182
0.0129376
0.0088748
0.0080431
0.00916874
0.00974462
0.00996311
0.0101411
0.0102704
0.0101231
0.00940655
0.00805787
0.00638777
0.00495917
0.00416125
0.00402986
0.00421082
0.00430756
0.004175
0.00385386
0.00344342
0.00304422
0.00275748
0.00262126
0.00257293
0.0025508
0.00252468
0.00247459
0.00237058
0.00217695
0.00193873
0.00168525
0.00148229
0.00138769
0.00147061
0.00169932
0.00224875
0.00195533
0.0190276
0.0567949
0.0384966
0.0276007
0.0203925
0.0166753
0.0143259
0.0127816
0.0120265
0.0117757
0.0116481
0.0112327
0.0101374
0.00832748
0.00622387
0.00464123
0.00396378
0.00396311
0.00410178
0.00407561
0.0038254
0.00344765
0.00305671
0.00274191
0.00255673
0.00249675
0.00251561
0.00257825
0.00267201
0.00279427
0.00294245
0.00307761
0.00312521
0.00316245
0.00332336
0.00390717
0.00515835
0.00684478
0.0127934
0.00466005
0.0182671
0.0264865
0.0243611
0.0217142
0.0189452
0.0165757
0.0148498
0.0139247
0.0136004
0.0134718
0.013162
0.0123147
0.0105308
0.00799666
0.00532142
0.00407633
0.00364419
0.00356679
0.00351328
0.00334215
0.00305277
0.00272277
0.00243663
0.00224752
0.00216813
0.00217728
0.00224559
0.00235599
0.00250349
0.00268836
0.00291134
0.00317012
0.00348899
0.00390068
0.00444357
0.00508457
0.00567332
0.00603862
0.0062167
0.00406544
0.00703204
0.010906
0.0134816
0.0149565
0.0158925
0.0164357
0.016321
0.0155368
0.0142079
0.012217
0.00882949
0.00580262
0.00403888
0.00328535
0.00297077
0.00279822
0.00261958
0.00239266
0.00214639
0.00192223
0.0017623
0.00168436
0.00167772
0.0017223
0.00180316
0.00191397
0.00205518
0.00223253
0.00245762
0.00275386
0.00312095
0.00355763
0.00404101
0.00447937
0.00470248
0.00456974
0.00411346
0.00263552
0.00805029
0.0199656
0.0225471
0.0226935
0.0220509
0.0196815
0.0164545
0.0127947
0.00934922
0.0063952
0.00431563
0.00317664
0.00260013
0.0022811
0.00206897
0.00188252
0.00169229
0.00150834
0.00135839
0.00126187
0.0012191
0.00122226
0.00126482
0.00134074
0.0014481
0.0015883
0.00176487
0.00198252
0.00225281
0.00258407
0.0029858
0.00345895
0.00397693
0.00447266
0.00477121
0.00504801
0.00430689
0.00270652
0.0089461
0.00940783
0.00983356
0.012196
0.0108893
0.00855417
0.00621301
0.00464076
0.00371941
0.00289605
0.00222921
0.00176664
0.00140714
0.0011743
0.00102992
0.000930347
0.000853149
0.000789045
0.000738102
0.000705111
0.000693602
0.000703078
0.000730919
0.000773454
0.000827727
0.000893505
0.00097155
0.00106361
0.0011728
0.0013046
0.00146185
0.00164705
0.00186467
0.00211992
0.00241756
0.00280055
0.00296869
0.00284412
0.00246191
0.00210599
)
;

boundaryField
{
    floor
    {
        type            kqRWallFunction;
        value           nonuniform List<scalar> 
36
(
0.00194564
0.000473781
0.000652122
0.000844724
0.000925808
0.000899118
0.000785876
0.000669595
0.000573678
0.000496789
0.000434628
0.000383851
0.000342021
0.000307043
0.000276897
0.000249794
0.000223996
0.000208271
0.000175076
0.000175076
0.000294906
0.00040752
0.000537525
0.000957214
0.00107808
0.00127612
0.00194564
0.003388
0.00234125
0.00155116
0.000473781
0.00155116
0.000463057
0.00219808
0.00108477
0.0029004
)
;
    }
    ceiling
    {
        type            kqRWallFunction;
        value           nonuniform List<scalar> 
43
(
0.0089461
0.00940783
0.00983356
0.012196
0.0108893
0.00855417
0.00621301
0.00464076
0.00371941
0.00289605
0.00222921
0.00176664
0.00140714
0.0011743
0.00102992
0.000930347
0.000853149
0.000789045
0.000738102
0.000705111
0.000693602
0.000703078
0.000730919
0.000773454
0.000827727
0.000893505
0.00097155
0.00106361
0.0011728
0.0013046
0.00146185
0.00164705
0.00186467
0.00211992
0.00241756
0.00280055
0.00296869
0.00284412
0.00246191
0.00210599
0.0182671
0.0264865
0.00805029
)
;
    }
    sWall
    {
        type            kqRWallFunction;
        value           uniform 0.0089461;
    }
    nWall
    {
        type            kqRWallFunction;
        value           nonuniform List<scalar> 6(0.00127612 0.00137444 0.00195533 0.00263552 0.00270652 0.00210599);
    }
    sideWalls
    {
        type            empty;
    }
    glass1
    {
        type            kqRWallFunction;
        value           nonuniform List<scalar> 9(0.0023383 0.00421685 0.0062051 0.00847807 0.0111667 0.0144583 0.0180842 0.0190276 0.0182671);
    }
    glass2
    {
        type            kqRWallFunction;
        value           nonuniform List<scalar> 2(0.00466005 0.00406544);
    }
    sun
    {
        type            kqRWallFunction;
        value           nonuniform List<scalar> 
14
(
0.0023383
0.00277837
0.00291283
0.00320205
0.00348146
0.00375802
0.00404695
0.00434793
0.00460041
0.00475973
0.00477202
0.00458961
0.00416541
0.00329833
)
;
    }
    Table_master
    {
        type            kqRWallFunction;
        value           nonuniform List<scalar> 9(0.00142826 0.0010894 0.000842922 0.000666736 0.000539786 0.000446881 0.000377877 0.000326436 0.00028922);
    }
    Table_slave
    {
        type            kqRWallFunction;
        value           nonuniform List<scalar> 9(0.00182763 0.00153015 0.00133985 0.00120558 0.00109689 0.000996415 0.000905216 0.000813818 0.000713698);
    }
    inlet
    {
        type            turbulentIntensityKineticEnergyInlet;
        intensity       0.05;
        value           uniform 0.000937501;
    }
    outlet
    {
        type            zeroGradient;
    }
}


// ************************************************************************* //
