/*--------------------------------*- C++ -*----------------------------------*\
  =========                 |
  \\      /  F ield         | OpenFOAM: The Open Source CFD Toolbox
   \\    /   O peration     | Website:  https://openfoam.org
    \\  /    A nd           | Version:  6
     \\/     M anipulation  |
\*---------------------------------------------------------------------------*/
FoamFile
{
    version     2.0;
    format      ascii;
    class       volScalarField;
    location    "11500";
    object      k;
}
// * * * * * * * * * * * * * * * * * * * * * * * * * * * * * * * * * * * * * //

dimensions      [0 2 -2 0 0 0 0];

internalField   nonuniform List<scalar> 
778
(
0.00158589
0.00180114
0.00178809
0.00194673
0.00209805
0.0022404
0.00237712
0.00251275
0.00265307
0.00280636
0.00295648
0.00310262
0.00324997
0.00341221
0.00358571
0.000792937
0.00162449
0.00165076
0.00157172
0.00144398
0.00128193
0.00113006
0.000998567
0.000886931
0.000792434
0.000712717
0.000644721
0.000585755
0.000533274
0.000484568
0.000436135
0.00039788
0.000326044
0.00340687
0.00643334
0.00268766
0.00274635
0.0028881
0.00305475
0.00323515
0.00343095
0.00364416
0.0038744
0.0041263
0.00437977
0.00459514
0.00469998
0.00459401
0.00429758
0.00390654
0.00357934
0.0025363
0.00281172
0.00295327
0.00289513
0.00266211
0.0022634
0.00190453
0.00160862
0.00136915
0.00117551
0.0010168
0.000885059
0.000773831
0.000681038
0.000615031
0.000574483
0.000864335
0.000523937
0.00549054
0.0127808
0.0034781
0.00321241
0.00329779
0.00345568
0.0036371
0.00384128
0.00407157
0.00432807
0.00463594
0.00501093
0.00545055
0.00595939
0.00652978
0.00685802
0.00627597
0.00538471
0.00403776
0.00416917
0.00417177
0.00397364
0.00357536
0.00266311
0.00201333
0.00157427
0.00126844
0.00104869
0.000886553
0.000764362
0.000671632
0.00060348
0.00055133
0.00054855
0.00116616
0.000677957
0.00797308
0.0217578
0.00449122
0.00339102
0.00334184
0.00343843
0.00354981
0.00366927
0.00380947
0.0039917
0.00425939
0.00464848
0.00517077
0.0058242
0.00655326
0.00713293
0.00722688
0.00724305
0.00534264
0.0055497
0.0053761
0.00512538
0.0047865
0.00434739
0.00345489
0.00285773
0.00243445
0.00210844
0.00184916
0.00163084
0.00143757
0.00125766
0.0010768
0.000799876
0.000659206
0.00142344
0.00082146
0.0108756
0.0336336
0.00621259
0.00342522
0.00315856
0.00316725
0.00318984
0.00321012
0.00325236
0.00336131
0.00359488
0.00398912
0.00455293
0.00527562
0.00608537
0.00681579
0.00728171
0.00764284
0.00751617
0.00665342
0.00607301
0.00557894
0.00509892
0.00462898
0.00412239
0.00366464
0.00327389
0.00293617
0.00262998
0.0023466
0.00207813
0.00181745
0.00155397
0.00122079
0.000928911
0.00119039
0.00121581
0.00116903
0.002071
0.00187853
0.0141737
0.0475976
0.00928317
0.00349012
0.00290874
0.00282293
0.00276456
0.00269967
0.00266432
0.00273467
0.00298091
0.00341416
0.00402287
0.00479623
0.00565141
0.00645848
0.00706612
0.00740502
0.00732189
0.00678874
0.00621449
0.00563692
0.00507413
0.00455571
0.00409088
0.00369514
0.00336254
0.00307306
0.00280609
0.00255075
0.00229811
0.00204129
0.00177297
0.00147046
0.0011767
0.00111133
0.00111008
0.0017331
0.00517861
0.00267574
0.0179905
0.0606054
0.0143584
0.00381933
0.00271528
0.00252947
0.00241184
0.00229404
0.00222104
0.00231166
0.0026305
0.00313934
0.00380136
0.00462944
0.00552567
0.00636328
0.00699745
0.00732516
0.00725225
0.00681665
0.0062146
0.00555442
0.00491165
0.00434255
0.00387228
0.00350029
0.00320666
0.00296174
0.00274126
0.00252884
0.00231295
0.0020864
0.00184442
0.00158225
0.00132592
0.00115722
0.00109038
0.00158031
0.00641701
0.00374236
0.0216392
0.070482
0.0214344
0.00510097
0.00274248
0.00237168
0.00221
0.00208176
0.00202615
0.00221951
0.00265007
0.00323114
0.00393669
0.00477285
0.00569621
0.00657001
0.00722005
0.00751078
0.00738188
0.00689462
0.00619727
0.00542645
0.00469127
0.00406435
0.00357444
0.00321264
0.00294799
0.00274144
0.00256468
0.00239612
0.00222197
0.00203479
0.0018313
0.00161234
0.00139583
0.00122425
0.00115065
0.00218439
0.0148113
0.00656282
0.0228317
0.069495
0.0325322
0.0110517
0.0040644
0.00258643
0.00223499
0.00210259
0.00218954
0.00251233
0.00300074
0.00360228
0.0043321
0.00521119
0.00618263
0.00708438
0.00771371
0.00791974
0.0076618
0.0070235
0.00616405
0.00524796
0.00440742
0.00372259
0.00321699
0.00286942
0.00263633
0.00246998
0.00233727
0.0022122
0.0020798
0.00193299
0.0017696
0.00159215
0.00141372
0.0012727
0.0013187
0.00429606
0.0306833
0.00827598
0.0219172
0.0516383
0.0336424
0.0174277
0.00858081
0.00475436
0.00325844
0.00272858
0.00285194
0.00321027
0.00367221
0.00424617
0.00499466
0.00593705
0.00697233
0.00788521
0.00843882
0.00848049
0.00800013
0.00712091
0.00603953
0.00495344
0.00401182
0.00329151
0.00279881
0.00248967
0.00230342
0.00218566
0.00209785
0.00201306
0.00191774
0.00180634
0.00167795
0.00153582
0.00139097
0.00128753
0.00160486
0.00927545
0.0267774
0.00868715
0.0192332
0.0394413
0.0302383
0.0195622
0.0121765
0.00793315
0.00571252
0.00466555
0.0043592
0.00439748
0.00465074
0.00514361
0.00593329
0.00697939
0.00808746
0.00896334
0.00934158
0.00909338
0.00826887
0.0070563
0.00570891
0.00445933
0.00346286
0.00277023
0.00234973
0.00211631
0.0019919
0.00192503
0.00187562
0.00182211
0.00175463
0.00166965
0.00156779
0.00145431
0.00134324
0.00130513
0.00191735
0.00851449
0.0268072
0.00892707
0.0159502
0.0315908
0.0266527
0.0195374
0.0139728
0.0102801
0.00802301
0.00674643
0.00604475
0.00572736
0.0057795
0.00627102
0.00720657
0.00841627
0.0095673
0.0102848
0.0103114
0.00959105
0.00828034
0.0066588
0.00505216
0.00372027
0.00279425
0.00223523
0.00195552
0.00181594
0.0017475
0.0017143
0.00168721
0.00165186
0.00160129
0.00153318
0.00144925
0.00136094
0.00129572
0.00142751
0.00267613
0.0090656
0.0239709
0.00953261
0.0132673
0.0256774
0.0233552
0.0186909
0.0145829
0.0115862
0.00954078
0.00820662
0.00729701
0.00683697
0.00695437
0.00771537
0.00897525
0.0103648
0.0114099
0.0117115
0.0111096
0.009691
0.00777891
0.00575333
0.00402741
0.00283463
0.00219369
0.0018612
0.00169765
0.00161739
0.00157805
0.00155735
0.00153655
0.00150621
0.00146142
0.00140137
0.00133223
0.00127817
0.00134644
0.00202464
0.00428583
0.0101129
0.0214813
0.00862523
0.0133492
0.0224272
0.0220645
0.0177635
0.0143941
0.0118943
0.0100832
0.00876815
0.00791687
0.00777158
0.00846842
0.0098633
0.0115237
0.0128765
0.0134141
0.012855
0.0112814
0.00897589
0.00651168
0.00430261
0.00295857
0.00221995
0.00184948
0.00166252
0.00156478
0.00151061
0.00147805
0.00145477
0.00142881
0.00139407
0.00134788
0.0012921
0.00124066
0.00124986
0.00154318
0.00274928
0.0056672
0.0107916
0.0169014
0.00779854
0.0108751
0.0117666
0.0129251
0.012554
0.0113764
0.0100771
0.00894966
0.0082055
0.0083021
0.00941117
0.0112846
0.0133556
0.0149558
0.0155462
0.0148611
0.0128953
0.0101522
0.00701276
0.00463084
0.00312934
0.0023403
0.00195001
0.00174965
0.00163312
0.00155635
0.00150103
0.00145819
0.00142189
0.00138508
0.00134452
0.00130142
0.00126253
0.00124945
0.00133184
0.00172478
0.00295335
0.00572521
0.0104583
0.017072
0.00757396
0.0035408
0.00482162
0.00599759
0.00660826
0.00729026
0.00879943
0.011308
0.014131
0.0165473
0.0179922
0.0181009
0.0167893
0.0142616
0.0106278
0.00732041
0.00482359
0.00332011
0.0025506
0.00218634
0.001998
0.00187857
0.00178669
0.00170865
0.00164098
0.00158397
0.00153907
0.00150874
0.00149408
0.00149995
0.00153166
0.0016024
0.00176065
0.00215123
0.0031276
0.00538018
0.0100367
0.0163256
0.00883258
0.00444567
0.00629589
0.00811958
0.0110361
0.0147074
0.0181613
0.0203898
0.0214499
0.0213828
0.0201767
0.017648
0.0141779
0.0105097
0.00720349
0.00486768
0.00352037
0.00287015
0.00257415
0.00242424
0.00232945
0.00225623
0.00219284
0.00213681
0.00209111
0.00206252
0.00206
0.00209264
0.00216635
0.00228111
0.00243399
0.00262842
0.00289579
0.00333279
0.00416835
0.00597825
0.011409
0.0155826
0.00934409
0.0150677
0.0244572
0.0181117
0.014409
0.0170298
0.0207208
0.0228416
0.0235331
0.023071
0.021713
0.0197039
0.017071
0.0139027
0.0105719
0.0075882
0.00540498
0.00416321
0.00357943
0.00332458
0.00321029
0.0031577
0.00313176
0.00311262
0.00308912
0.00306014
0.00303544
0.00303213
0.00306744
0.00315222
0.00329405
0.00349594
0.00376325
0.00411358
0.00459565
0.00531463
0.00648207
0.00863894
0.0149799
0.0178095
0.00985845
0.0138053
0.0170498
0.0178639
0.0207759
0.0217208
0.0221427
0.021147
0.019334
0.0172152
0.0150421
0.0129158
0.0108817
0.00898585
0.00732098
0.0059899
0.00503179
0.00443922
0.00410999
0.00395381
0.00391656
0.00396209
0.00405907
0.00417789
0.00429383
0.00439254
0.00447414
0.00455277
0.0046511
0.00479331
0.00500063
0.00529443
0.00570108
0.00626124
0.00704077
0.00814085
0.00968376
0.0118666
0.0161977
0.0215286
0.010125
0.01214
0.00891402
0.00882908
0.00935546
0.00980577
0.00924556
0.00819441
0.00704998
0.00599296
0.00506773
0.00426535
0.00357608
0.00301142
0.00259791
0.00235317
0.00224878
0.0022243
0.00225022
0.00230786
0.00238441
0.00247027
0.00255849
0.0026448
0.00272772
0.00280862
0.00289131
0.00298131
0.00308486
0.00320854
0.00336066
0.00355444
0.003812
0.00416717
0.0046628
0.00533945
0.00622175
0.00731487
0.00860502
0.0100032
0.00869959
)
;

boundaryField
{
    floor
    {
        type            kqRWallFunction;
        value           nonuniform List<scalar> 
36
(
0.00358571
0.000792937
0.00162449
0.00165076
0.00157172
0.00144398
0.00128193
0.00113006
0.000998567
0.000886931
0.000792434
0.000712717
0.000644721
0.000585755
0.000533274
0.000484568
0.000436135
0.00039788
0.000326044
0.000326044
0.000523937
0.000677957
0.00082146
0.00116903
0.002071
0.00187853
0.00358571
0.00429758
0.00390654
0.00357934
0.000792937
0.00357934
0.0025363
0.00538471
0.00403776
0.00534264
)
;
    }
    ceiling
    {
        type            kqRWallFunction;
        value           nonuniform List<scalar> 
43
(
0.01214
0.00891402
0.00882908
0.00935546
0.00980577
0.00924556
0.00819441
0.00704998
0.00599296
0.00506773
0.00426535
0.00357608
0.00301142
0.00259791
0.00235317
0.00224878
0.0022243
0.00225022
0.00230786
0.00238441
0.00247027
0.00255849
0.0026448
0.00272772
0.00280862
0.00289131
0.00298131
0.00308486
0.00320854
0.00336066
0.00355444
0.003812
0.00416717
0.0046628
0.00533945
0.00622175
0.00731487
0.00860502
0.0100032
0.00869959
0.0108751
0.0117666
0.00444567
)
;
    }
    sWall
    {
        type            kqRWallFunction;
        value           nonuniform List<scalar> 9(0.0219172 0.0192332 0.0159502 0.0132673 0.0133492 0.0108751 0.0150677 0.0138053 0.01214);
    }
    nWall
    {
        type            kqRWallFunction;
        value           nonuniform List<scalar> 
14
(
0.00187853
0.00267574
0.00374236
0.00868715
0.00892707
0.00953261
0.00862523
0.00779854
0.00757396
0.00883258
0.00934409
0.00985845
0.010125
0.00869959
)
;
    }
    sideWalls
    {
        type            empty;
    }
    glass1
    {
        type            kqRWallFunction;
        value           nonuniform List<scalar> 9(0.00158589 0.00340687 0.00549054 0.00797308 0.0108756 0.0141737 0.0179905 0.0216392 0.0228317);
    }
    glass2
    {
        type            kqRWallFunction;
        value           nonuniform List<scalar> 2(0.00656282 0.00827598);
    }
    sun
    {
        type            kqRWallFunction;
        value           nonuniform List<scalar> 
14
(
0.00158589
0.00180114
0.00178809
0.00194673
0.00209805
0.0022404
0.00237712
0.00251275
0.00265307
0.00280636
0.00295648
0.00310262
0.00324997
0.00341221
)
;
    }
    Table_master
    {
        type            kqRWallFunction;
        value           nonuniform List<scalar> 9(0.00266311 0.00201333 0.00157427 0.00126844 0.00104869 0.000886553 0.000764362 0.000671632 0.00060348);
    }
    Table_slave
    {
        type            kqRWallFunction;
        value           nonuniform List<scalar> 9(0.00345489 0.00285773 0.00243445 0.00210844 0.00184916 0.00163084 0.00143757 0.00125766 0.0010768);
    }
    inlet
    {
        type            turbulentIntensityKineticEnergyInlet;
        intensity       0.05;
        value           uniform 0.0009375;
    }
    outlet
    {
        type            zeroGradient;
    }
}


// ************************************************************************* //
