/*--------------------------------*- C++ -*----------------------------------*\
  =========                 |
  \\      /  F ield         | OpenFOAM: The Open Source CFD Toolbox
   \\    /   O peration     | Website:  https://openfoam.org
    \\  /    A nd           | Version:  6
     \\/     M anipulation  |
\*---------------------------------------------------------------------------*/
FoamFile
{
    version     2.0;
    format      ascii;
    class       surfaceScalarField;
    location    "2020";
    object      phi;
}
// * * * * * * * * * * * * * * * * * * * * * * * * * * * * * * * * * * * * * //

dimensions      [1 0 -1 0 0 0 0];

internalField   nonuniform List<scalar> 
850
(
-0.00305308
0.00311354
-0.00414575
0.00109266
-0.00501482
0.000869071
-0.00570366
0.000688844
-0.00617574
0.00047208
-0.006397
0.000221261
-0.00632782
-6.91793e-05
-0.00592405
-0.000403768
-0.00517388
-0.000750177
-0.00412879
-0.00104509
-0.00290056
-0.00122823
-0.0016418
-0.00125876
-0.000539295
-0.00110251
0.000135754
-0.00067505
0.000138105
-0.000922385
0.000926042
-0.000689919
-0.000232466
-6.05713e-05
-0.000629347
0.000542894
-0.000603466
0.00100205
-0.000459161
0.00125861
-0.000256552
0.00136671
-0.000108108
0.00141953
-5.28126e-05
0.00144988
-3.0353e-05
0.00146494
-1.5059e-05
0.00146854
-3.60289e-06
0.00146154
7.00048e-06
0.00143828
2.32589e-05
0.00137975
5.85335e-05
0.00125381
0.000125943
0.00105018
0.000203623
0.000793481
0.000256702
0.00079832
-0.00220745
0.00548439
-0.00329508
0.0021803
-0.00420827
0.00178227
-0.00490603
0.0013866
-0.00538754
0.000953587
-0.00563049
0.00046421
-0.00559449
-0.00010518
-0.00524034
-0.000757919
-0.00456689
-0.00142362
-0.00364291
-0.00196907
-0.00258827
-0.00228287
-0.00154176
-0.00230527
-0.000628916
-0.00201535
9.26934e-05
-0.00139666
0.000872511
-0.000641713
0.00114847
-0.000272171
0.000956785
0.000196041
0.000969473
4.17001e-05
0.000895342
0.000422011
-0.000612778
0.000786841
-0.000994177
0.0010998
-0.000916428
0.00135065
-0.00071001
0.00140712
-0.000313017
0.00141525
-0.000116244
0.00142598
-6.3535e-05
0.00143496
-3.93407e-05
0.00144023
-2.03259e-05
0.0014424
-5.77176e-06
0.00144201
7.39529e-06
0.00143653
2.87386e-05
0.00140006
9.49963e-05
0.00124716
0.000278844
0.000978661
0.000472124
0.00064466
0.000590703
0.00145536
-0.00156233
0.00729714
-0.00251035
0.00312832
-0.00334297
0.00261489
-0.00396553
0.00200916
-0.0044131
0.00140116
-0.00466163
0.000712738
-0.00465599
-0.000110819
-0.00433474
-0.00107917
-0.00371326
-0.00204511
-0.00288889
-0.00279344
-0.00198681
-0.00318495
-0.00112289
-0.00316919
-0.000373678
-0.00276456
0.0002403
-0.00201064
0.000751801
-0.00115321
0.000899196
-0.000419566
0.000707374
0.000387864
0.00168811
0.00143729
-0.000528109
0.00163281
-0.0008083
0.00157522
-0.000936591
0.00160852
-0.000949724
0.00181179
-0.000913282
0.00149893
0.00138284
0.00131946
0.00128027
0.0012601
0.00125448
0.00126203
0.00129092
0.00138607
0.00115902
0.000505899
0.000870099
0.000761042
0.000498939
0.000961862
0.00197287
-0.00109548
0.00871728
-0.00185229
0.00388512
-0.00243661
0.00319921
-0.00288269
0.00245524
-0.00322782
0.00174629
-0.00344069
0.000925608
-0.00344212
-0.000109394
-0.00312375
-0.00139753
-0.00254791
-0.00262094
-0.00184623
-0.00349512
-0.0011306
-0.00390058
-0.000480883
-0.00381891
6.55917e-05
-0.00331103
0.000526165
-0.00247121
0.000902251
-0.0015293
0.00111934
-0.000636656
0.00130355
0.000203657
0.00225731
0.000734346
0.0021677
0.000101549
0.00199485
-0.00035526
0.00190889
-0.000722343
0.00179811
-0.00082581
0.00166593
-0.000817545
0.001435
-0.000682349
0.00175861
-0.000323762
0.00193628
-0.00017782
0.00206721
-0.000131082
0.00216798
-0.000100932
0.00222819
-6.03643e-05
0.00222562
2.42179e-06
0.00213271
9.27585e-05
0.00191314
0.000219418
0.00150697
0.000406012
0.00126963
0.000743245
0.000902408
0.00112826
0.000384121
0.00148015
0.00238063
-0.000756061
0.00986106
-0.00132708
0.00445614
-0.00150967
0.0033818
-0.00168827
0.00263384
-0.00185327
0.00191128
-0.0019623
0.00103464
-0.00191385
-0.000157841
-0.00155686
-0.00175452
-0.00105586
-0.00312195
-0.000537955
-0.00401303
-7.34612e-05
-0.00436507
0.000305195
-0.00419757
0.00059636
-0.0036022
0.000849222
-0.00272407
0.00106854
-0.00174862
0.00127594
-0.000844057
0.00158663
-0.000107032
0.00203022
0.000290758
0.00206412
6.76492e-05
0.00199681
-0.000287945
0.00181231
-0.000537842
0.00162444
-0.000637948
0.00144737
-0.00064047
0.00131871
-0.000553685
0.00137748
-0.000382535
0.00146555
-0.000265893
0.00155003
-0.000215558
0.00163152
-0.000182421
0.00170165
-0.000130497
0.00174067
-3.65973e-05
0.00172459
0.000108839
0.00163831
0.000305691
0.00148607
0.000558255
0.00133
0.000899319
0.00115104
0.00130721
0.000804048
0.00182715
0.0010198
0.00216487
-0.00109524
0.00213616
-0.00179348
0.000717854
-0.00172071
-0.00063876
0.0109406
-0.00101442
0.0048318
-0.000633489
0.00300086
-0.000448773
0.00244913
-0.000384178
0.00184669
-0.000303844
0.000954309
-5.20822e-05
-0.000409603
0.000334321
-0.00214093
0.00069202
-0.00347965
0.000951896
-0.00427291
0.00109494
-0.00450812
0.00114528
-0.0042479
0.00113918
-0.00359609
0.00111598
-0.00270086
0.00110048
-0.00173313
0.00113262
-0.000876203
0.00126969
-0.000244093
0.00148447
7.59774e-05
0.00153572
1.63923e-05
0.00143775
-0.000189967
0.00126336
-0.000363462
0.00108371
-0.000458293
0.000926422
-0.000483183
0.000821415
-0.000448677
0.000810633
-0.000371754
0.000859994
-0.000315254
0.000936171
-0.000291734
0.00102692
-0.000273173
0.00112576
-0.000229329
0.00122275
-0.000133593
0.00129565
3.59386e-05
0.0013327
0.000268638
0.001348
0.000542962
0.00138202
0.000865298
0.00148249
0.00120674
0.00168599
0.00162364
0.00203678
0.00181409
0.00233693
0.00183602
0.00182996
0.00122482
0.00017469
-0.000763862
0.0121918
-0.000621499
0.00468944
0.000492223
0.00188714
0.000960538
0.00198081
0.00121786
0.00158937
0.00159931
0.000572853
0.00210258
-0.000912864
0.00243978
-0.00247813
0.00257362
-0.00361349
0.00250612
-0.00420541
0.00227295
-0.00427495
0.00193602
-0.00391098
0.0015591
-0.00321917
0.00120033
-0.00234209
0.000896557
-0.00142935
0.000704984
-0.00068463
0.000653379
-0.000192488
0.000704531
2.48253e-05
0.000712605
8.31847e-06
0.000636339
-0.000113701
0.00050901
-0.000236133
0.000368715
-0.000317998
0.000242823
-0.000357291
0.000156726
-0.00036258
0.000133781
-0.000348809
0.000162804
-0.000344276
0.000222444
-0.000351375
0.00030291
-0.000353639
0.000405201
-0.000331621
0.000534292
-0.000262683
0.000687186
-0.000116956
0.000845109
0.000110716
0.0010071
0.000380966
0.00120895
0.000663452
0.00148356
0.000932135
0.00188396
0.00122323
0.0024174
0.00128064
0.00318505
0.00106837
0.00336166
0.00104821
0.00360516
0.00273592
0.00999917
0.00339167
0.00403369
0.00344929
0.00182952
0.00353492
0.00189518
0.00374614
0.00137814
0.00422202
9.69787e-05
0.00469317
-0.00138402
0.00478825
-0.0025732
0.00451398
-0.00333922
0.00396091
-0.00365234
0.00322982
-0.00354385
0.00242487
-0.00310603
0.00162805
-0.00242235
0.000922108
-0.00163615
0.000347365
-0.000854608
-2.56186e-06
-0.000334703
-0.000140888
-5.41616e-05
-0.000155333
3.92703e-05
-0.000163203
1.61877e-05
-0.000215345
-6.15582e-05
-0.000306173
-0.000145305
-0.000412404
-0.000211767
-0.000511716
-0.000257979
-0.000585974
-0.000288322
-0.000623961
-0.000310822
-0.000633167
-0.00033507
-0.000625334
-0.000359208
-0.000604762
-0.000374211
-0.000566472
-0.000369911
-0.00049424
-0.000334915
-0.000356764
-0.000254432
-0.000146643
-9.94058e-05
0.000104109
0.000130215
0.0003888
0.00037876
0.000707247
0.000613689
0.00108954
0.000840945
0.00150687
0.000863309
0.00189863
0.000676611
0.00120602
0.00174082
0.00509759
0.0105981
0.0146276
0.0125614
0.00389574
0.0112291
0.00322742
0.0103406
0.00226668
0.00953378
0.000903808
0.0085314
-0.000381633
0.00735253
-0.00139434
0.00607931
-0.00206601
0.00476056
-0.00233359
0.00342944
-0.00221273
0.00216444
-0.00184104
0.00100963
-0.00126754
5.65233e-05
-0.000683043
-0.00056599
-0.000232095
-0.000859601
-4.10917e-05
-0.000956743
4.29801e-05
-0.000976424
5.89515e-05
-0.000991837
3.16003e-05
-0.00103529
-1.81058e-05
-0.00110789
-7.27079e-05
-0.00119693
-0.000122725
-0.00128874
-0.000166167
-0.00137437
-0.000202695
-0.00145156
-0.000233625
-0.00152711
-0.000259527
-0.00161027
-0.000276046
-0.00170958
-0.000274896
-0.00183472
-0.00024478
-0.00199856
-0.00017107
-0.00221654
-3.6449e-05
-0.00248302
0.00016707
-0.00280698
0.000454172
-0.00327095
0.000842731
-0.00398815
0.00133089
-0.00502969
0.00188249
-0.00651691
0.00235052
-0.00825536
0.00241507
-0.00777181
0.00125727
-0.00235721
0.00895046
0.00560366
0.0074719
0.00470599
0.00708003
0.00265854
0.0067292
0.00125464
0.00611925
0.000228322
0.00524688
-0.000521976
0.00417834
-0.000997458
0.00298301
-0.00113826
0.00169148
-0.000921205
0.000430631
-0.000580184
-0.00060929
-0.000227618
-0.00127058
-2.1757e-05
-0.00156308
6.04039e-05
-0.00167775
7.35872e-05
-0.00170772
7.29436e-05
-0.0017135
6.47312e-05
-0.00172854
4.66421e-05
-0.00176738
2.07354e-05
-0.00183133
-8.75665e-06
-0.0019129
-4.11553e-05
-0.00200443
-7.46411e-05
-0.00210375
-0.000103369
-0.00221222
-0.000125159
-0.00233326
-0.00013849
-0.002469
-0.000140306
-0.00261831
-0.000125584
-0.00277577
-8.73187e-05
-0.00292903
-1.78057e-05
-0.00306257
9.70884e-05
-0.00317483
0.00027933
-0.00327576
0.000555103
-0.00337726
0.000944229
-0.00348608
0.00143971
-0.00356958
0.00196599
-0.00356794
0.00234889
-0.00330996
0.00215709
-0.00194998
-0.000102716
-0.00422386
-0.000826066
0.00648304
0.000742189
0.00313773
0.00140795
0.00199278
0.00164692
0.00101567
0.00158314
0.000292102
0.00121218
-0.000151014
0.000530017
-0.000315299
-0.000363404
-0.000244839
-0.00124078
-4.38313e-05
-0.00188614
6.51815e-05
-0.00222692
0.000113155
-0.00235783
0.000109153
-0.00238084
8.3415e-05
-0.0023706
6.33525e-05
-0.00234957
5.19115e-05
-0.00232906
4.42219e-05
-0.00231813
3.57113e-05
-0.00232206
2.46684e-05
-0.00234148
1.0656e-05
-0.00237536
-7.2721e-06
-0.00242398
-2.60209e-05
-0.00248535
-4.19949e-05
-0.00255739
-5.31237e-05
-0.00263756
-5.83144e-05
-0.00272182
-5.60542e-05
-0.00280356
-4.38375e-05
-0.00287334
-1.75462e-05
-0.00291858
2.74379e-05
-0.00291855
9.70612e-05
-0.00284798
0.000208756
-0.00267232
0.000379444
-0.00236025
0.000632159
-0.00190393
0.000983393
-0.00128935
0.00135141
-0.000299664
0.0013592
0.00114765
0.000709774
0.0016426
-0.000597663
-0.00248958
-0.0120486
-0.0155771
-0.00905359
-0.00588845
-0.0038734
-0.00283912
-0.00253199
-0.002671
-0.00297637
-0.0032127
-0.00324887
-0.0031764
-0.00305611
-0.00293984
-0.0028493
-0.0027788
-0.00271972
-0.00266827
-0.00262529
-0.00259332
-0.00257535
-0.00257534
-0.00259417
-0.00262908
-0.00267525
-0.00272676
-0.00277616
-0.00281353
-0.00282479
-0.00279127
-0.00268835
-0.00247397
-0.00208915
-0.00145189
-0.000463681
0.000892155
0.00225549
0.00296931
0.00237583
)
;

boundaryField
{
    floor
    {
        type            calculated;
        value           nonuniform List<scalar> 
36
(
0
0
0
0
0
0
0
0
0
0
0
0
0
0
0
0
0
0
0
-4.83915e-06
-1.23784e-05
-1.85697e-05
-2.364e-05
-2.11164e-05
-1.96192e-05
-1.84535e-05
-2.35097e-06
-3.78399e-06
-4.35944e-06
-5.04474e-06
-3.65663e-06
-7.64388e-06
-1.10004e-05
-1.12619e-05
-1.38369e-05
-1.19391e-05
)
;
    }
    ceiling
    {
        type            calculated;
        value           nonuniform List<scalar> 
43
(
-4.18433e-05
-4.1178e-05
-4.04781e-05
-2.74141e-05
-2.22702e-05
-1.86058e-05
-1.503e-05
-1.20048e-05
-9.92952e-06
-8.50214e-06
-7.66648e-06
-7.28631e-06
-7.13854e-06
-7.11145e-06
-7.12456e-06
-7.14607e-06
-7.17802e-06
-7.22086e-06
-7.26745e-06
-7.30793e-06
-7.3153e-06
-7.2763e-06
-7.19283e-06
-7.08147e-06
-6.95273e-06
-6.80946e-06
-6.64868e-06
-6.47525e-06
-6.28392e-06
-6.07891e-06
-5.85924e-06
-5.62536e-06
-5.3766e-06
-5.10604e-06
-4.81151e-06
-4.42495e-06
-4.13956e-06
-4.04932e-06
-4.18149e-06
-3.60384e-06
6.94078e-06
4.17892e-06
-5.33143e-05
)
;
    }
    sWall
    {
        type            calculated;
        value           uniform -0.000241396;
    }
    nWall
    {
        type            calculated;
        value           nonuniform List<scalar> 6(-5.43172e-05 -6.5434e-05 -6.88138e-05 -8.33262e-05 -9.16832e-05 -0.000110141);
    }
    sideWalls
    {
        type            empty;
        value           nonuniform 0();
    }
    glass1
    {
        type            calculated;
        value           nonuniform List<scalar> 9(-6.04583e-05 -0.000163403 -0.000250424 -0.00032465 -0.000387723 -0.000440784 -0.000487283 -0.000543337 -0.000605862);
    }
    glass2
    {
        type            calculated;
        value           nonuniform List<scalar> 2(-0.000286411 -0.000317011);
    }
    sun
    {
        type            calculated;
        value           uniform 0;
    }
    Table_master
    {
        type            calculated;
        value           nonuniform List<scalar> 9(-1.5364e-07 -1.53789e-07 -1.53839e-07 -1.53869e-07 -1.53889e-07 -1.53902e-07 -1.53906e-07 -1.539e-07 -1.5387e-07);
    }
    Table_slave
    {
        type            calculated;
        value           nonuniform List<scalar> 9(1.5353e-07 1.53515e-07 1.53468e-07 1.53431e-07 1.53408e-07 1.53408e-07 1.53413e-07 1.53451e-07 1.53535e-07);
    }
    inlet
    {
        type            calculated;
        value           uniform -0.0106584;
    }
    outlet
    {
        type            calculated;
        value           nonuniform List<scalar> 2(0.0123319 0.00356966);
    }
}


// ************************************************************************* //
