/*--------------------------------*- C++ -*----------------------------------*\
  =========                 |
  \\      /  F ield         | OpenFOAM: The Open Source CFD Toolbox
   \\    /   O peration     | Website:  https://openfoam.org
    \\  /    A nd           | Version:  6
     \\/     M anipulation  |
\*---------------------------------------------------------------------------*/
FoamFile
{
    version     2.0;
    format      ascii;
    class       volScalarField;
    location    "810";
    object      epsilon;
}
// * * * * * * * * * * * * * * * * * * * * * * * * * * * * * * * * * * * * * //

dimensions      [0 2 -3 0 0 0 0];

internalField   nonuniform List<scalar> 
458
(
0.000432931
0.000558071
0.000596767
0.000686581
0.000776899
0.000869409
0.000969032
0.00107768
0.00117229
0.00123444
0.00124153
0.00117503
0.00102237
0.000744106
0.00032503
3.92405e-05
6.32138e-05
9.21222e-05
0.000104441
9.9618e-05
8.16328e-05
6.44162e-05
5.12297e-05
4.13774e-05
3.39207e-05
2.81915e-05
2.37418e-05
2.02108e-05
1.73163e-05
1.48396e-05
1.26024e-05
1.13856e-05
8.8384e-06
0.00106128
0.00158369
0.000518709
0.000502882
0.000518754
0.000551266
0.000606666
0.000688937
0.00078024
0.000854484
0.000882551
0.000848245
0.000757226
0.000624209
0.000502204
0.000747583
0.000426911
0.000231863
3.82995e-05
7.53769e-05
9.27818e-05
9.34775e-05
8.97818e-05
9.00842e-05
7.05962e-05
5.3518e-05
4.08233e-05
3.15482e-05
2.47489e-05
1.9729e-05
1.59724e-05
1.31724e-05
1.14092e-05
1.0691e-05
3.04818e-05
2.00735e-05
0.00190758
0.00384836
0.000604058
0.000458535
0.000466304
0.000508495
0.000580875
0.000684178
0.000797739
0.000885031
0.000918701
0.000888546
0.000802496
0.000667518
0.000517922
0.000416673
0.000353303
0.000382076
0.000139906
0.000139243
0.000125619
0.000111577
0.000103589
0.000198238
0.000133021
9.11631e-05
6.45454e-05
4.72987e-05
3.5821e-05
2.79927e-05
2.25682e-05
1.88706e-05
1.4831e-05
1.31294e-05
6.4855e-05
3.31289e-05
0.00306354
0.00799527
0.00090424
0.000439193
0.000429448
0.000481531
0.000575357
0.000718481
0.000863369
0.000958804
0.000990068
0.000953696
0.000855868
0.000703812
0.000548887
0.000432681
0.000366152
0.000380767
0.000584218
0.00037608
0.000245355
0.000178425
0.000140587
0.000123102
0.000283412
0.000218294
0.0001802
0.000155118
0.000135818
0.000118288
0.000103105
8.8536e-05
7.33278e-05
4.54105e-05
2.92968e-05
0.000114622
5.0619e-05
0.00465064
0.0144281
0.00174107
0.000471118
0.000395853
0.000451906
0.000589376
0.000833538
0.00101925
0.00111261
0.00112918
0.00106999
0.000938089
0.00075419
0.00056521
0.000420345
0.000331902
0.000302897
0.000303997
0.000253774
0.000209538
0.000175265
0.000146431
0.000122185
0.000113166
0.000103899
9.76083e-05
9.22524e-05
8.6247e-05
7.88064e-05
7.09146e-05
6.318e-05
5.59198e-05
4.60398e-05
3.61959e-05
7.47487e-05
0.000114573
0.000120963
0.0001435
0.000184275
0.00687294
0.0217356
0.00400305
0.000791268
0.000465461
0.000474482
0.000701606
0.00112093
0.00130713
0.00136682
0.00134452
0.00124704
0.00106796
0.000825743
0.000577998
0.000388998
0.000279048
0.000238721
0.000228415
0.000218422
0.000201309
0.000176925
0.000149444
0.000123876
0.000107421
0.000100979
9.98018e-05
9.93883e-05
9.72422e-05
9.16954e-05
8.1735e-05
7.04682e-05
5.98198e-05
5.01574e-05
4.34474e-05
5.55248e-05
8.8348e-05
0.000106122
0.000206693
0.000205615
0.00965993
0.0261949
0.00879752
0.00280252
0.00145557
0.00114228
0.0014848
0.00172799
0.00178716
0.00175026
0.00165091
0.0014845
0.00123075
0.000908654
0.000588585
0.00035615
0.000234709
0.000200407
0.000202566
0.00020321
0.000190223
0.000167023
0.000141483
0.000120314
0.000109148
0.000108606
0.000113704
0.000120186
0.000125753
0.000128196
0.000124114
0.000111106
9.7508e-05
8.59546e-05
8.04672e-05
8.87393e-05
0.000120598
0.000176788
0.000327325
0.000344826
0.0104478
0.0300928
0.0160954
0.00965433
0.00597257
0.00418342
0.00338569
0.00287755
0.00253947
0.00228251
0.00204042
0.00176214
0.00139801
0.000968858
0.000561623
0.000300674
0.000190563
0.000174565
0.000179818
0.000177296
0.000162365
0.000142091
0.000124226
0.000113607
0.000112277
0.00011909
0.000131194
0.00014687
0.000165746
0.000187729
0.00021203
0.000232951
0.000246037
0.000273161
0.000329133
0.000480111
0.000820466
0.00137756
0.00410984
0.00128193
0.00984423
0.017256
0.0132407
0.00999057
0.00750872
0.00579495
0.00459081
0.00379205
0.00325255
0.00282536
0.00242854
0.00200774
0.0014846
0.000914409
0.000407144
0.000216216
0.000159013
0.000147665
0.000144586
0.00013705
0.000124699
0.000112563
0.000105021
0.000104139
0.000109969
0.00012153
0.00013807
0.000159895
0.000188357
0.000225712
0.000275024
0.000339919
0.000427245
0.000551961
0.000734033
0.000976697
0.0012509
0.00149855
0.00170334
0.00104493
0.00347859
0.00471995
0.00512316
0.00502905
0.00473443
0.00432156
0.00378546
0.00316034
0.00254967
0.00194935
0.00116366
0.000536469
0.000254501
0.000159683
0.000129174
0.000118204
0.000110931
0.000103107
9.5449e-05
8.99531e-05
8.84183e-05
9.12756e-05
9.81338e-05
0.000108589
0.000122644
0.000140875
0.000164532
0.00019574
0.000237968
0.00029699
0.000378454
0.000488588
0.000629955
0.000786466
0.000911335
0.000944866
0.00087132
0.000544327
0.00289497
0.00862342
0.00828532
0.00717599
0.00607796
0.00479189
0.00348034
0.00225762
0.00128366
0.000710245
0.000375181
0.0002153
0.000151134
0.000124026
0.000110934
0.000102041
9.40531e-05
8.68954e-05
8.15703e-05
7.88137e-05
7.89035e-05
8.195e-05
8.79136e-05
9.69748e-05
0.000109655
0.000126864
0.000149991
0.000181109
0.000223177
0.000279964
0.0003566
0.000458286
0.000585853
0.000728675
0.000842128
0.00095637
0.000733748
0.00056583
0.00336797
0.00362378
0.00386697
0.00532526
0.00449662
0.00312891
0.00187906
0.00115823
0.000823898
0.00057246
0.000398543
0.000290078
0.000215262
0.000168051
0.000139677
0.000121102
0.000107417
9.65036e-05
8.8074e-05
8.26723e-05
8.07147e-05
8.21782e-05
8.66356e-05
9.34771e-05
0.000102624
0.000114213
0.000128587
0.000146334
0.000168411
0.000196455
0.000231975
0.000276293
0.000331578
0.000400501
0.000486075
0.000603711
0.000660648
0.000620885
0.000499632
0.000395282
)
;

boundaryField
{
    floor
    {
        Cmu             0.09;
        kappa           0.41;
        E               9.8;
        type            epsilonWallFunction;
        value           nonuniform List<scalar> 
36
(
0.00032503
3.92405e-05
6.32138e-05
9.21222e-05
0.000104441
9.9618e-05
8.16328e-05
6.44162e-05
5.12297e-05
4.13774e-05
3.39207e-05
2.81915e-05
2.37418e-05
2.02108e-05
1.73163e-05
1.48396e-05
1.26024e-05
1.13856e-05
8.8384e-06
8.8384e-06
2.00735e-05
3.31289e-05
5.0619e-05
0.000120963
0.0001435
0.000184275
0.00032503
0.000747583
0.000426911
0.000231863
3.92405e-05
0.000231863
3.82995e-05
0.000382076
0.000139906
0.000584218
)
;
    }
    ceiling
    {
        Cmu             0.09;
        kappa           0.41;
        E               9.8;
        type            epsilonWallFunction;
        value           nonuniform List<scalar> 
43
(
0.00336797
0.00362378
0.00386697
0.00532526
0.00449662
0.00312891
0.00187906
0.00115823
0.000823898
0.00057246
0.000398543
0.000290078
0.000215262
0.000168051
0.000139677
0.000121102
0.000107417
9.65036e-05
8.8074e-05
8.26723e-05
8.07147e-05
8.21782e-05
8.66356e-05
9.34771e-05
0.000102624
0.000114213
0.000128587
0.000146334
0.000168411
0.000196455
0.000231975
0.000276293
0.000331578
0.000400501
0.000486075
0.000603711
0.000660648
0.000620885
0.000499632
0.000395282
0.00984423
0.017256
0.00289497
)
;
    }
    sWall
    {
        Cmu             0.09;
        kappa           0.41;
        E               9.8;
        type            epsilonWallFunction;
        value           uniform 0.00336797;
    }
    nWall
    {
        Cmu             0.09;
        kappa           0.41;
        E               9.8;
        type            epsilonWallFunction;
        value           nonuniform List<scalar> 6(0.000184275 0.000205615 0.000344826 0.000544327 0.00056583 0.000395282);
    }
    sideWalls
    {
        type            empty;
    }
    glass1
    {
        Cmu             0.09;
        kappa           0.41;
        E               9.8;
        type            epsilonWallFunction;
        value           nonuniform List<scalar> 9(0.000432931 0.00106128 0.00190758 0.00306354 0.00465064 0.00687294 0.00965993 0.0104478 0.00984423);
    }
    glass2
    {
        Cmu             0.09;
        kappa           0.41;
        E               9.8;
        type            epsilonWallFunction;
        value           nonuniform List<scalar> 2(0.00128193 0.00104493);
    }
    sun
    {
        Cmu             0.09;
        kappa           0.41;
        E               9.8;
        type            epsilonWallFunction;
        value           nonuniform List<scalar> 
14
(
0.000432931
0.000558071
0.000596767
0.000686581
0.000776899
0.000869409
0.000969032
0.00107768
0.00117229
0.00123444
0.00124153
0.00117503
0.00102237
0.000744106
)
;
    }
    Table_master
    {
        Cmu             0.09;
        kappa           0.41;
        E               9.8;
        type            epsilonWallFunction;
        value           nonuniform List<scalar> 9(0.000198238 0.000133021 9.11631e-05 6.45454e-05 4.72987e-05 3.5821e-05 2.79927e-05 2.25682e-05 1.88706e-05);
    }
    Table_slave
    {
        Cmu             0.09;
        kappa           0.41;
        E               9.8;
        type            epsilonWallFunction;
        value           nonuniform List<scalar> 9(0.000283412 0.000218294 0.0001802 0.000155118 0.000135818 0.000118288 0.000103105 8.8536e-05 7.33278e-05);
    }
    inlet
    {
        type            turbulentMixingLengthDissipationRateInlet;
        mixingLength    0.01;
        phi             phi;
        k               k;
        value           uniform 0.000471672;
    }
    outlet
    {
        type            zeroGradient;
    }
}


// ************************************************************************* //
