/*--------------------------------*- C++ -*----------------------------------*\
  =========                 |
  \\      /  F ield         | OpenFOAM: The Open Source CFD Toolbox
   \\    /   O peration     | Website:  https://openfoam.org
    \\  /    A nd           | Version:  6
     \\/     M anipulation  |
\*---------------------------------------------------------------------------*/
FoamFile
{
    version     2.0;
    format      ascii;
    class       volScalarField;
    location    "810";
    object      k;
}
// * * * * * * * * * * * * * * * * * * * * * * * * * * * * * * * * * * * * * //

dimensions      [0 2 -2 0 0 0 0];

internalField   nonuniform List<scalar> 
458
(
0.00226819
0.00268655
0.00280934
0.00308458
0.00334948
0.00361036
0.00388115
0.00416607
0.00440647
0.00456087
0.00457831
0.00441334
0.00402229
0.00325455
0.00187363
0.000457676
0.00062894
0.000808433
0.000878986
0.000851713
0.000745838
0.00063689
0.0005467
0.000474144
0.000415316
0.000367125
0.000327398
0.000294074
0.000265281
0.000239341
0.000214637
0.000200588
0.000169427
0.00412371
0.00755279
0.00415123
0.00437526
0.00471732
0.00513686
0.00563422
0.00619884
0.00680305
0.00731554
0.00759077
0.0075331
0.00712529
0.0063555
0.00513917
0.00326468
0.00224712
0.00149585
0.000450329
0.000973224
0.00130348
0.00145868
0.00147309
0.00125969
0.00102459
0.000834198
0.000688877
0.000577422
0.000490736
0.000421567
0.000364745
0.000317476
0.00028354
0.000264401
0.000493795
0.000292741
0.00609617
0.0136505
0.00491279
0.00472632
0.00494317
0.00528793
0.0057531
0.00634355
0.00699692
0.00755376
0.00789581
0.00795296
0.00769601
0.00706231
0.0060384
0.00488953
0.00391958
0.0020869
0.00106813
0.00139979
0.00160382
0.00173076
0.00172326
0.00134749
0.00103279
0.000802812
0.000637742
0.000518363
0.000430685
0.000365397
0.000316519
0.000280926
0.000262165
0.000265457
0.000780222
0.000408827
0.0083602
0.0222383
0.00592882
0.00470833
0.00474807
0.00501835
0.0054759
0.00617069
0.00689553
0.00746632
0.00783737
0.00795729
0.0077515
0.0071481
0.00628877
0.00543712
0.00463363
0.0035013
0.00276982
0.00250746
0.00237467
0.00233881
0.00229032
0.00215265
0.00171007
0.00143691
0.00126446
0.00114422
0.00104723
0.000955057
0.000871475
0.000787314
0.000694353
0.000530284
0.000422812
0.00113248
0.000542346
0.0110427
0.0339594
0.00842628
0.00475138
0.00448457
0.00471003
0.0053019
0.00635781
0.0071876
0.00774233
0.00809833
0.00820074
0.00790362
0.00718503
0.0062179
0.0053107
0.004581
0.00397965
0.00379561
0.00348043
0.00325346
0.00307165
0.0028603
0.00259136
0.00230363
0.00210744
0.00198731
0.00189254
0.00179043
0.0016616
0.00149226
0.00129942
0.00109409
0.000865824
0.000664862
0.000922241
0.00106378
0.0009694
0.00108635
0.00128345
0.0143273
0.0466904
0.0149532
0.0059254
0.00474441
0.00478541
0.00571064
0.00726996
0.00803441
0.00847699
0.00874174
0.00875106
0.00832346
0.00738138
0.00612656
0.00496777
0.00418509
0.00384299
0.00381524
0.00382423
0.00373307
0.00351004
0.00319062
0.0028362
0.00254898
0.0023963
0.00232252
0.00226385
0.00218565
0.00206566
0.00187879
0.0016492
0.00140059
0.00114699
0.000935763
0.00090081
0.00103014
0.00105447
0.00165139
0.00138072
0.017977
0.0550488
0.0270801
0.0123649
0.00831257
0.00741655
0.00850959
0.00921308
0.00948877
0.00964846
0.0097329
0.00958694
0.0089503
0.00771186
0.00611212
0.00470049
0.00388846
0.00373742
0.00389969
0.00398407
0.00385499
0.00355186
0.00317253
0.00281334
0.00256863
0.0024695
0.00245248
0.0024577
0.00245549
0.00242494
0.0023364
0.00214763
0.00191105
0.00165932
0.00145756
0.00136487
0.00145119
0.00168169
0.00223408
0.00194895
0.0189417
0.0568409
0.0383023
0.027175
0.0197478
0.0158879
0.0137303
0.0122921
0.0115394
0.0112154
0.0110132
0.0106134
0.0096495
0.00799709
0.00597592
0.0043939
0.00367871
0.00365668
0.00378114
0.00375149
0.00351819
0.00317144
0.00282145
0.00255173
0.00240899
0.00238443
0.00243188
0.00251791
0.00263054
0.00276733
0.00292564
0.00306726
0.00310971
0.00313941
0.00329269
0.00386961
0.00511972
0.00681605
0.0128318
0.00467712
0.0182049
0.0264664
0.0243621
0.0217104
0.0188866
0.0164654
0.014656
0.0135933
0.0130901
0.0127721
0.0123617
0.0116003
0.0100742
0.00777098
0.00516046
0.00385884
0.00340378
0.00331072
0.00325413
0.00309247
0.00282455
0.0025288
0.00228354
0.00213508
0.00208953
0.00212368
0.00220991
0.00233327
0.00249013
0.00268169
0.00290933
0.00317122
0.00348986
0.00390113
0.00444802
0.0050976
0.00569676
0.00606916
0.0062486
0.00408124
0.00718335
0.0110929
0.0135422
0.0147751
0.0154409
0.0157128
0.0153832
0.014459
0.0132195
0.0115899
0.00880973
0.00585858
0.00403624
0.00322579
0.00288177
0.00270067
0.00252832
0.00231847
0.00209116
0.00188829
0.00175211
0.00169311
0.0016978
0.00174761
0.00182972
0.00193918
0.0020774
0.00225106
0.00247283
0.00276575
0.00313124
0.00356704
0.00405097
0.00449048
0.00471266
0.00457294
0.00410697
0.00264225
0.00805064
0.0194741
0.0216178
0.021508
0.0207349
0.0184828
0.0153442
0.0120193
0.00883663
0.00623703
0.00435132
0.00326377
0.0027158
0.00241164
0.00220971
0.00203157
0.00184683
0.00166395
0.00150841
0.00139826
0.00133762
0.00132575
0.00135457
0.00141842
0.00151566
0.00164771
0.00181785
0.00203038
0.0022958
0.00262421
0.00302425
0.0034967
0.00401528
0.00451213
0.00481677
0.00510138
0.00428747
0.00271139
0.00890526
0.00935066
0.00976447
0.0120863
0.0107976
0.00847872
0.00603525
0.00437118
0.00348324
0.00273253
0.00214644
0.00173678
0.00142357
0.00120697
0.00106697
0.000970143
0.000895604
0.000833867
0.000784573
0.000752156
0.000740235
0.000749156
0.000776007
0.00081634
0.000868763
0.000932992
0.00100971
0.0011006
0.00120869
0.0013394
0.00149633
0.00168131
0.00189871
0.00215346
0.00245021
0.00283109
0.00300641
0.00288453
0.00249556
0.00213471
)
;

boundaryField
{
    floor
    {
        type            kqRWallFunction;
        value           nonuniform List<scalar> 
36
(
0.00187363
0.000457676
0.00062894
0.000808433
0.000878986
0.000851713
0.000745838
0.00063689
0.0005467
0.000474144
0.000415316
0.000367125
0.000327398
0.000294074
0.000265281
0.000239341
0.000214637
0.000200588
0.000169427
0.000169427
0.000292741
0.000408827
0.000542346
0.0009694
0.00108635
0.00128345
0.00187363
0.00326468
0.00224712
0.00149585
0.000457676
0.00149585
0.000450329
0.0020869
0.00106813
0.00276982
)
;
    }
    ceiling
    {
        type            kqRWallFunction;
        value           nonuniform List<scalar> 
43
(
0.00890526
0.00935066
0.00976447
0.0120863
0.0107976
0.00847872
0.00603525
0.00437118
0.00348324
0.00273253
0.00214644
0.00173678
0.00142357
0.00120697
0.00106697
0.000970143
0.000895604
0.000833867
0.000784573
0.000752156
0.000740235
0.000749156
0.000776007
0.00081634
0.000868763
0.000932992
0.00100971
0.0011006
0.00120869
0.0013394
0.00149633
0.00168131
0.00189871
0.00215346
0.00245021
0.00283109
0.00300641
0.00288453
0.00249556
0.00213471
0.0182049
0.0264664
0.00805064
)
;
    }
    sWall
    {
        type            kqRWallFunction;
        value           uniform 0.00890526;
    }
    nWall
    {
        type            kqRWallFunction;
        value           nonuniform List<scalar> 6(0.00128345 0.00138072 0.00194895 0.00264225 0.00271139 0.00213471);
    }
    sideWalls
    {
        type            empty;
    }
    glass1
    {
        type            kqRWallFunction;
        value           nonuniform List<scalar> 9(0.00226819 0.00412371 0.00609617 0.0083602 0.0110427 0.0143273 0.017977 0.0189417 0.0182049);
    }
    glass2
    {
        type            kqRWallFunction;
        value           nonuniform List<scalar> 2(0.00467712 0.00408124);
    }
    sun
    {
        type            kqRWallFunction;
        value           nonuniform List<scalar> 
14
(
0.00226819
0.00268655
0.00280934
0.00308458
0.00334948
0.00361036
0.00388115
0.00416607
0.00440647
0.00456087
0.00457831
0.00441334
0.00402229
0.00325455
)
;
    }
    Table_master
    {
        type            kqRWallFunction;
        value           nonuniform List<scalar> 9(0.00134749 0.00103279 0.000802812 0.000637742 0.000518363 0.000430685 0.000365397 0.000316519 0.000280926);
    }
    Table_slave
    {
        type            kqRWallFunction;
        value           nonuniform List<scalar> 9(0.00171007 0.00143691 0.00126446 0.00114422 0.00104723 0.000955057 0.000871475 0.000787314 0.000694353);
    }
    inlet
    {
        type            turbulentIntensityKineticEnergyInlet;
        intensity       0.05;
        value           uniform 0.000937501;
    }
    outlet
    {
        type            zeroGradient;
    }
}


// ************************************************************************* //
