/*--------------------------------*- C++ -*----------------------------------*\
  =========                 |
  \\      /  F ield         | OpenFOAM: The Open Source CFD Toolbox
   \\    /   O peration     | Website:  https://openfoam.org
    \\  /    A nd           | Version:  6
     \\/     M anipulation  |
\*---------------------------------------------------------------------------*/
FoamFile
{
    version     2.0;
    format      ascii;
    class       volScalarField;
    location    "810";
    object      nut;
}
// * * * * * * * * * * * * * * * * * * * * * * * * * * * * * * * * * * * * * //

dimensions      [0 2 -1 0 0 0 0];

internalField   nonuniform List<scalar> 
458
(
0.00106951
0.00116397
0.00119027
0.00124722
0.00129967
0.00134934
0.00139902
0.00144947
0.0014907
0.00151659
0.00151949
0.00149186
0.00142423
0.00128112
0.000972045
0.000480422
0.000563183
0.000638508
0.000665787
0.000655377
0.000613291
0.000566731
0.000525072
0.000488989
0.00045765
0.00043028
0.000406334
0.0003851
0.000365761
0.000347418
0.000329001
0.000318051
0.000292305
0.00144208
0.00324182
0.00299001
0.00342597
0.00386075
0.00430801
0.00470935
0.00501977
0.00533853
0.00563679
0.0058759
0.006021
0.00603423
0.00582388
0.00473312
0.00128311
0.00106453
0.000868538
0.000476551
0.00113091
0.00164812
0.00204858
0.00217527
0.00158533
0.00133832
0.00117026
0.00104621
0.000951164
0.000875754
0.000810721
0.000749638
0.000688655
0.000634185
0.000588509
0.000719939
0.000384225
0.00175337
0.00435777
0.00359601
0.00438445
0.00471611
0.00494911
0.00512819
0.00529345
0.00552326
0.00580243
0.00610748
0.00640649
0.00664249
0.00672471
0.0063361
0.00516394
0.00391358
0.00102588
0.000733934
0.00126647
0.00184287
0.00241624
0.00258007
0.000824341
0.000721691
0.000636285
0.000567109
0.000511283
0.000466041
0.000429266
0.000399525
0.000376392
0.000417079
0.000483041
0.000844764
0.000454061
0.0020533
0.00556689
0.00349861
0.00454278
0.00472462
0.00470696
0.00469048
0.00476974
0.00495658
0.0052327
0.00558365
0.00597534
0.0063184
0.00653383
0.00648472
0.00614911
0.00527745
0.00289762
0.00118187
0.00150464
0.0020685
0.00275917
0.00335808
0.00338784
0.000928649
0.000851254
0.00079854
0.000759625
0.000726716
0.000693999
0.000662936
0.000630113
0.000591745
0.000557317
0.000549181
0.001007
0.000522977
0.00235984
0.00719374
0.00367027
0.00431273
0.00457245
0.00441817
0.00429252
0.00436448
0.00456172
0.0048489
0.00522724
0.00565676
0.00599309
0.00616055
0.00615631
0.00603864
0.00569055
0.00470583
0.00426517
0.00429596
0.00454643
0.00484496
0.00502844
0.00494632
0.00422039
0.00384717
0.00364154
0.00349424
0.00334512
0.00315307
0.00282616
0.00240526
0.00192657
0.00146544
0.00109912
0.00102407
0.000888925
0.000699191
0.000740165
0.000804514
0.00268798
0.00902661
0.00502712
0.0039935
0.00435236
0.00434371
0.0041833
0.00424355
0.00444459
0.00473168
0.00511531
0.00552694
0.00583844
0.00593844
0.00584453
0.00570977
0.00564902
0.0055679
0.00573538
0.00602607
0.00623032
0.00626727
0.00613076
0.00584425
0.00544357
0.00511792
0.00486434
0.00464089
0.00442128
0.00418807
0.00388677
0.00347373
0.00295134
0.00236061
0.00181389
0.00131529
0.00108103
0.000942994
0.00118745
0.000834443
0.00301095
0.0104117
0.00750208
0.00490988
0.00427247
0.00433383
0.00438927
0.00442089
0.00453418
0.00478693
0.00516419
0.00557213
0.00585796
0.00589064
0.00571237
0.00558336
0.00579787
0.00627297
0.00675672
0.00702993
0.00703115
0.00679796
0.00640249
0.00592071
0.00544038
0.00505366
0.00476078
0.00452317
0.00431519
0.00412831
0.00395835
0.00373615
0.00337091
0.00288294
0.00237615
0.00188934
0.00157163
0.00143973
0.00137234
0.000991391
0.00309068
0.00966277
0.00820334
0.00688427
0.0058765
0.00543058
0.00501136
0.00472578
0.00471915
0.00495974
0.00534994
0.00575318
0.00599433
0.00594082
0.00572278
0.00577892
0.0063914
0.00689384
0.00715573
0.00714415
0.00686101
0.00637074
0.00576731
0.00515828
0.00465181
0.00429669
0.0040571
0.00388497
0.00375741
0.00367141
0.00363318
0.00363479
0.00353738
0.00324727
0.00296464
0.00280696
0.00287524
0.00303528
0.00360573
0.0015358
0.00302997
0.00365335
0.00403424
0.00424609
0.00427549
0.00421056
0.004211
0.0043855
0.00474137
0.00519631
0.00566313
0.00603215
0.00615249
0.00594365
0.0058867
0.00619822
0.00655744
0.0066805
0.00659155
0.00628022
0.0057581
0.005113
0.00446872
0.00393965
0.00357332
0.00333995
0.00318339
0.00306436
0.00296282
0.00286752
0.00276986
0.00266269
0.00256555
0.0024815
0.00242583
0.0023945
0.00233494
0.00221223
0.00206304
0.00143463
0.00133504
0.00234636
0.00322166
0.00390674
0.00453233
0.00514172
0.00562626
0.0059537
0.00616861
0.00620176
0.00600263
0.00575814
0.00576111
0.00586483
0.00578608
0.00555334
0.00518624
0.00469196
0.00412332
0.0035675
0.00312481
0.00282657
0.00264362
0.00253132
0.00245678
0.00240239
0.00236066
0.00232991
0.00231266
0.00231806
0.00233164
0.00234377
0.0023445
0.00230754
0.00219329
0.00199188
0.00174224
0.00115433
0.00201493
0.00395802
0.0050764
0.00580175
0.0063663
0.00641607
0.00608851
0.00575906
0.00547476
0.00492936
0.00454196
0.00445284
0.00439215
0.00422039
0.00396138
0.00364024
0.0032638
0.00286765
0.00251043
0.00223262
0.00204087
0.00193027
0.00187841
0.0018672
0.00188545
0.00192604
0.00198286
0.00204859
0.0021255
0.0022138
0.00230832
0.00240116
0.00247677
0.00251461
0.00247956
0.00244902
0.00225475
0.00116934
0.00211918
0.00217153
0.00221906
0.00246883
0.0023335
0.00206781
0.00174458
0.00148472
0.00132537
0.00117389
0.00104041
0.000935873
0.000847294
0.000780176
0.000733535
0.000699459
0.000672051
0.000648475
0.000629015
0.000615883
0.000610983
0.000614654
0.000625572
0.000641623
0.000661904
0.000685936
0.000713582
0.000745006
0.000780732
0.000821864
0.000868678
0.000920807
0.000978529
0.00104211
0.00111159
0.00119487
0.00123131
0.0012061
0.00112183
0.00103756
)
;

boundaryField
{
    floor
    {
        type            nutkWallFunction;
        Cmu             0.09;
        kappa           0.41;
        E               9.8;
        value           nonuniform List<scalar> 
36
(
0.000117424
5.72081e-05
6.77307e-05
7.71432e-05
8.05179e-05
7.9232e-05
7.40079e-05
6.81772e-05
6.29106e-05
5.83071e-05
5.42744e-05
5.07241e-05
4.75944e-05
4.47995e-05
4.22369e-05
3.97902e-05
3.73165e-05
3.58373e-05
3.2332e-05
3.23319e-05
4.46834e-05
5.38096e-05
6.26436e-05
8.46273e-05
8.96371e-05
9.74399e-05
0.000117424
0.000153536
0.000128282
0.000105129
5.7208e-05
0.000105129
5.67104e-05
0.000123758
8.88778e-05
0.000141906
)
;
    }
    ceiling
    {
        type            nutkWallFunction;
        Cmu             0.09;
        kappa           0.41;
        E               9.8;
        value           nonuniform List<scalar> 
43
(
0.000246192
0.000251845
0.000256967
0.000283768
0.000269354
0.000240737
0.000205364
0.000176399
0.000158361
0.000140986
0.000125463
0.000113147
0.000102586
9.44976e-05
8.88289e-05
8.46604e-05
8.12899e-05
7.83775e-05
7.5964e-05
7.43302e-05
7.37195e-05
7.41771e-05
7.5536e-05
7.75287e-05
8.00379e-05
8.29993e-05
8.63909e-05
9.0227e-05
9.4565e-05
9.95306e-05
0.000105147
0.00011136
0.000118192
0.000125664
0.000133771
0.000143412
0.000147606
0.000144705
0.000134961
0.000125132
0.000343202
0.000407604
0.000234812
)
;
    }
    sWall
    {
        type            nutkWallFunction;
        Cmu             0.09;
        kappa           0.41;
        E               9.8;
        value           uniform 0.000246259;
    }
    nWall
    {
        type            nutkWallFunction;
        Cmu             0.09;
        kappa           0.41;
        E               9.8;
        value           nonuniform List<scalar> 6(9.74404e-05 0.000101045 0.000119712 0.000138739 0.000140475 0.000125139);
    }
    sideWalls
    {
        type            empty;
    }
    glass1
    {
        type            nutkWallFunction;
        Cmu             0.09;
        kappa           0.41;
        E               9.8;
        value           nonuniform List<scalar> 9(0.000128971 0.000171821 0.00020666 0.000239589 0.000272711 0.000307665 0.000341634 0.00034997 0.00034365);
    }
    glass2
    {
        type            nutkWallFunction;
        Cmu             0.09;
        kappa           0.41;
        E               9.8;
        value           nonuniform List<scalar> 2(0.000182234 0.000170842);
    }
    sun
    {
        type            nutkWallFunction;
        Cmu             0.09;
        kappa           0.41;
        E               9.8;
        value           nonuniform List<scalar> 
14
(
0.000128867
0.000139837
0.000142874
0.000149424
0.000155428
0.000161088
0.000166727
0.000172429
0.000177074
0.000179983
0.000180308
0.000177204
0.000169579
0.000153308
)
;
    }
    Table_master
    {
        type            nutkWallFunction;
        Cmu             0.09;
        kappa           0.41;
        E               9.8;
        value           nonuniform List<scalar> 9(9.98278e-05 8.7384e-05 7.68699e-05 6.82293e-05 6.11623e-05 5.53653e-05 5.06014e-05 4.67111e-05 4.36597e-05);
    }
    Table_slave
    {
        type            nutkWallFunction;
        Cmu             0.09;
        kappa           0.41;
        E               9.8;
        value           nonuniform List<scalar> 9(0.000112288 0.000103059 9.67181e-05 9.20053e-05 8.79975e-05 8.39917e-05 8.01674e-05 7.6103e-05 7.13194e-05);
    }
    inlet
    {
        type            calculated;
        value           uniform 0.000167705;
    }
    outlet
    {
        type            calculated;
        value           nonuniform List<scalar> 2(0.00211918 0.00217153);
    }
}


// ************************************************************************* //
