/*--------------------------------*- C++ -*----------------------------------*\
  =========                 |
  \\      /  F ield         | OpenFOAM: The Open Source CFD Toolbox
   \\    /   O peration     | Website:  https://openfoam.org
    \\  /    A nd           | Version:  6
     \\/     M anipulation  |
\*---------------------------------------------------------------------------*/
FoamFile
{
    version     2.0;
    format      ascii;
    class       surfaceScalarField;
    location    "810";
    object      phi;
}
// * * * * * * * * * * * * * * * * * * * * * * * * * * * * * * * * * * * * * //

dimensions      [1 0 -1 0 0 0 0];

internalField   nonuniform List<scalar> 
850
(
-0.00305345
0.00311391
-0.00414668
0.00109323
-0.00501603
0.000869348
-0.00570498
0.000688946
-0.00617705
0.000472069
-0.00639819
0.000221146
-0.00632879
-6.94053e-05
-0.00592468
-0.00040411
-0.00517409
-0.000750591
-0.00412859
-0.00104549
-0.00290007
-0.00122852
-0.00164123
-0.00125885
-0.000538855
-0.00110237
0.000135868
-0.000674723
0.000138218
-0.000922403
0.000926059
-0.000689963
-0.000232439
-6.07117e-05
-0.000629252
0.000542728
-0.00060344
0.001002
-0.000459275
0.00125862
-0.00025662
0.00136676
-0.000108134
0.00141957
-5.28096e-05
0.00144994
-3.03715e-05
0.00146498
-1.50372e-05
0.00146856
-3.58554e-06
0.00146161
6.94838e-06
0.00143839
2.32212e-05
0.00137987
5.85224e-05
0.00125393
0.000125936
0.0010503
0.00020363
0.000793557
0.000256746
0.000798396
-0.00220774
0.00548504
-0.00329576
0.00218125
-0.00420914
0.00178274
-0.00490697
0.00138677
-0.00538845
0.000953549
-0.00563128
0.000463985
-0.00559507
-0.000105617
-0.0052406
-0.000758581
-0.00456678
-0.00142442
-0.00364244
-0.00196983
-0.00258755
-0.00228341
-0.00154093
-0.00230547
-0.000628135
-0.00201517
9.33685e-05
-0.00139623
0.000873031
-0.000641444
0.00114872
-0.00027191
0.000956816
0.000196268
0.000969504
4.15171e-05
0.000895542
0.000421776
-0.000612699
0.000786634
-0.000994109
0.00109964
-0.000916449
0.00135058
-0.000710215
0.00140708
-0.000313118
0.0014152
-0.000116258
0.00142591
-6.35136e-05
0.00143491
-3.93736e-05
0.00144016
-2.02904e-05
0.00144236
-5.78473e-06
0.00144194
7.37434e-06
0.00143645
2.87057e-05
0.00139999
9.49832e-05
0.00124713
0.000278795
0.000978684
0.000472078
0.000644756
0.000590674
0.00145553
-0.00156251
0.00729795
-0.00251073
0.00312947
-0.00334344
0.00261545
-0.00396601
0.00200933
-0.00441353
0.00140107
-0.00466195
0.000712406
-0.00465611
-0.000111453
-0.00433454
-0.00108016
-0.0037127
-0.00204625
-0.00288803
-0.0027945
-0.00198577
-0.00318567
-0.00112179
-0.00316944
-0.000372649
-0.00276431
0.000241284
-0.00201016
0.000752587
-0.00115275
0.000899765
-0.000419088
0.000707752
0.000388281
0.00168852
0.0014372
-0.000527825
0.00163265
-0.000808139
0.0015749
-0.000936359
0.00160813
-0.000949679
0.0018117
-0.000913793
0.00149874
0.00138264
0.00131928
0.00128006
0.00125992
0.00125429
0.00126182
0.00129068
0.00138581
0.00115883
0.000505776
0.000869949
0.000760963
0.000498968
0.000961655
0.00197307
-0.00109554
0.00871812
-0.00185236
0.00388629
-0.00243667
0.00319976
-0.00288268
0.00245534
-0.00322769
0.00174608
-0.00344043
0.000925144
-0.00344167
-0.000110208
-0.00312292
-0.0013989
-0.00254683
-0.00262234
-0.00184496
-0.00349637
-0.00112923
-0.0039014
-0.000479526
-0.00381914
6.68592e-05
-0.0033107
0.000527346
-0.00247065
0.000903257
-0.00152866
0.00112018
-0.000636009
0.00130423
0.000204229
0.00225788
0.000734868
0.00216778
0.000102035
0.00199486
-0.000354901
0.0019087
-0.000721986
0.00179765
-0.00082531
0.00166512
-0.000817145
0.00143358
-0.000682248
0.00175717
-0.000323745
0.00193488
-0.000177869
0.002066
-0.000131274
0.0021671
-0.00010125
0.00222769
-6.07391e-05
0.00222555
1.97937e-06
0.002133
9.23968e-05
0.00191367
0.000219183
0.00150759
0.000405922
0.00127017
0.000743199
0.00090275
0.00112838
0.000384466
0.00147994
0.00238117
-0.000756029
0.00986185
-0.0013269
0.00445716
-0.00150938
0.00338224
-0.00168779
0.00263375
-0.00185255
0.00191084
-0.00196138
0.00103397
-0.00191275
-0.00015884
-0.00155531
-0.00175634
-0.00105421
-0.00312345
-0.000536292
-0.00401429
-7.18293e-05
-0.00436586
0.000306743
-0.00419771
0.000597817
-0.00360177
0.000850548
-0.00272338
0.00106971
-0.00174782
0.00127695
-0.000843244
0.00158743
-0.000106256
0.00203079
0.000291511
0.00206445
6.83771e-05
0.00199689
-0.000287346
0.00181214
-0.000537236
0.001624
-0.000637165
0.00144658
-0.00063973
0.00131758
-0.00055325
0.00137622
-0.00038238
0.00146433
-0.000265982
0.00154893
-0.000215874
0.00163061
-0.00018293
0.00170103
-0.000131156
0.00174033
-3.7326e-05
0.00172452
0.000108206
0.00163847
0.000305243
0.0014864
0.000557986
0.00133044
0.000899162
0.00115147
0.00130735
0.00080438
0.00182703
0.00102014
0.00216541
-0.00109523
0.00213648
-0.00179356
0.00071795
-0.00172079
-0.000638695
0.0109413
-0.00101408
0.00483255
-0.000632977
0.00300113
-0.000447944
0.00244872
-0.000382993
0.00184589
-0.000302273
0.000953247
-5.00571e-05
-0.000411056
0.00033651
-0.0021429
0.000694166
-0.0034811
0.000953875
-0.004274
0.00109673
-0.00450872
0.00114694
-0.00424792
0.0011407
-0.00359553
0.00111732
-0.0027
0.00110165
-0.00173215
0.0011336
-0.000875197
0.00127044
-0.000243092
0.00148496
7.69958e-05
0.001536
1.73352e-05
0.00143776
-0.000189113
0.00126311
-0.000362586
0.00108321
-0.000457256
0.000925659
-0.000482183
0.00082043
-0.00044802
0.000809549
-0.000371499
0.000858945
-0.000315378
0.000935201
-0.00029213
0.00102611
-0.000273837
0.00112514
-0.000230188
0.00122235
-0.000134542
0.00129545
3.51081e-05
0.00133259
0.000268107
0.00134799
0.000542586
0.0013821
0.000865047
0.00148267
0.00120678
0.00168609
0.00162361
0.00203695
0.00181456
0.00233703
0.0018364
0.00182992
0.00122505
0.00017457
-0.000763597
0.0121922
-0.000620945
0.0046899
0.000493063
0.00188712
0.000961705
0.00198007
0.00121944
0.00158815
0.00160149
0.000571201
0.00210524
-0.000914809
0.00244229
-0.00247995
0.00257603
-0.00361485
0.00250826
-0.00420623
0.00227477
-0.00427524
0.00193758
-0.00391073
0.00156044
-0.00321839
0.00120146
-0.00234103
0.000897486
-0.00142817
0.000705701
-0.000683412
0.00065385
-0.000191242
0.000704744
2.61017e-05
0.0007126
9.47982e-06
0.000636113
-0.000112627
0.000508568
-0.000235041
0.000368098
-0.000316786
0.000242065
-0.000356149
0.000155865
-0.000361821
0.000132899
-0.000348533
0.000161965
-0.000344444
0.000221648
-0.000351812
0.000302183
-0.000354372
0.000404509
-0.000332514
0.000533625
-0.000263658
0.000686628
-0.000117895
0.000844631
0.000110104
0.00100679
0.000380424
0.00120873
0.000663113
0.00148344
0.000932069
0.00188381
0.00122323
0.00241738
0.00128099
0.00318508
0.0010687
0.00336167
0.00104846
0.00360505
0.00273661
0.00999887
0.00339268
0.00403382
0.00345058
0.00182923
0.00353664
0.00189401
0.00374841
0.00137638
0.00422486
9.47492e-05
0.00469615
-0.0013861
0.00479101
-0.00257481
0.00451639
-0.00334023
0.00396283
-0.00365267
0.00323126
-0.00354366
0.00242593
-0.0031054
0.00162878
-0.00242124
0.000922621
-0.00163487
0.00034765
-0.000853202
-2.47726e-06
-0.000333284
-0.000140981
-5.27375e-05
-0.000155581
4.07014e-05
-0.000163586
1.74843e-05
-0.000215858
-6.03539e-05
-0.000306768
-0.000144132
-0.000413036
-0.000210518
-0.000512323
-0.000256863
-0.000586545
-0.000287598
-0.000624484
-0.000310594
-0.000633667
-0.000335261
-0.00062583
-0.000359649
-0.000605282
-0.00037492
-0.000567096
-0.0003707
-0.000494973
-0.000335781
-0.000357642
-0.000255226
-0.000147382
-0.000100156
0.000103629
0.000129413
0.000388425
0.000378317
0.000706948
0.000613547
0.00108924
0.000840941
0.00150676
0.00086347
0.00189867
0.000676791
0.00120618
0.00174095
0.00509762
0.0105978
0.0146274
0.0125622
0.00389447
0.011231
0.00322521
0.0103434
0.00226396
0.00953676
0.000901374
0.00853406
-0.000383398
0.00735475
-0.0013955
0.00608099
-0.00206647
0.00476152
-0.00233319
0.00342974
-0.00221188
0.00216431
-0.00183997
0.00100908
-0.00126601
5.58028e-05
-0.00068159
-0.000566772
-0.000230626
-0.000860427
-3.96296e-05
-0.000957534
4.43697e-05
-0.00097711
6.0277e-05
-0.000992473
3.28471e-05
-0.00103591
-1.69165e-05
-0.00110844
-7.16013e-05
-0.00119732
-0.000121642
-0.00128891
-0.000165271
-0.00137436
-0.000202148
-0.00145145
-0.000233498
-0.00152699
-0.000259722
-0.00161017
-0.000276473
-0.00170956
-0.00027553
-0.0018348
-0.000245464
-0.00199876
-0.000171815
-0.00221679
-3.72033e-05
-0.00248322
0.00016628
-0.00280711
0.000453296
-0.00327074
0.000841951
-0.00398756
0.00133037
-0.00502885
0.00188223
-0.00651586
0.00235048
-0.00825426
0.00241519
-0.00777106
0.00125774
-0.00235645
0.00895079
0.00560213
0.00747231
0.00470369
0.00708041
0.00265585
0.00672963
0.00125215
0.00611945
0.000226779
0.00524655
-0.000522605
0.00417744
-0.000997353
0.00298125
-0.00113701
0.0016892
-0.000919827
0.000428105
-0.000578874
-0.000611701
-0.000226206
-0.00127262
-2.06719e-05
-0.00156471
6.1466e-05
-0.001679
7.46634e-05
-0.00170871
7.40717e-05
-0.0017143
6.58703e-05
-0.00172921
4.77537e-05
-0.00176787
2.17507e-05
-0.0018316
-7.87162e-06
-0.00191282
-4.04282e-05
-0.00200392
-7.41699e-05
-0.0021029
-0.00010317
-0.00221117
-0.000125224
-0.00233219
-0.000138704
-0.00246801
-0.000140653
-0.0026175
-0.000126034
-0.00277518
-8.77871e-05
-0.00292871
-1.82871e-05
-0.00306246
9.65456e-05
-0.00317482
0.000278642
-0.00327578
0.000554259
-0.00337724
0.000943408
-0.00348597
0.0014391
-0.00356949
0.00196575
-0.003568
0.00234899
-0.00331033
0.00215752
-0.00195039
-0.000102202
-0.00422352
-0.000826134
0.00648159
0.000741382
0.00313618
0.00140628
0.00199096
0.00164435
0.00101408
0.00157974
0.000291385
0.00120812
-0.00015098
0.000525249
-0.000314482
-0.000368279
-0.000243483
-0.00124494
-4.31659e-05
-0.00188944
6.56265e-05
-0.00222926
0.000113618
-0.00235957
0.000109635
-0.00238208
8.39743e-05
-0.00237148
6.40649e-05
-0.00235015
5.27408e-05
-0.00232937
4.50888e-05
-0.0023182
3.65892e-05
-0.00232195
2.54945e-05
-0.00234114
1.13227e-05
-0.0023746
-6.96988e-06
-0.00242276
-2.60098e-05
-0.00248382
-4.21086e-05
-0.00255578
-5.32688e-05
-0.00263603
-5.84457e-05
-0.00272048
-5.62081e-05
-0.00280248
-4.40347e-05
-0.00287247
-1.77941e-05
-0.0029179
2.71396e-05
-0.00291805
9.66953e-05
-0.00284767
0.000208265
-0.00267227
0.000378854
-0.0023604
0.000631542
-0.00190413
0.000982828
-0.00128966
0.00135128
-0.000300019
0.00135935
0.00114743
0.000710074
0.00164261
-0.000597379
-0.00248923
-0.0120474
-0.0155762
-0.00905414
-0.00589055
-0.00387734
-0.00284467
-0.00253828
-0.00267727
-0.00298184
-0.00321684
-0.00325235
-0.00317944
-0.00305869
-0.00294196
-0.00285088
-0.00277969
-0.0027198
-0.00266751
-0.00262368
-0.00259092
-0.00257232
-0.00257206
-0.00259091
-0.00262596
-0.0026723
-0.00272396
-0.00277354
-0.00281113
-0.00282266
-0.00278947
-0.00268693
-0.00247306
-0.00208884
-0.0014522
-0.000464567
0.000891126
0.0022546
0.00296871
0.0023755
)
;

boundaryField
{
    floor
    {
        type            calculated;
        value           nonuniform List<scalar> 
36
(
0
0
0
0
0
0
0
0
0
0
0
0
0
0
0
0
0
0
0
-4.83912e-06
-1.23786e-05
-1.85678e-05
-2.36347e-05
-2.11144e-05
-1.96197e-05
-1.84542e-05
-2.35088e-06
-3.78374e-06
-4.35897e-06
-5.0443e-06
-3.65645e-06
-7.64322e-06
-1.10001e-05
-1.12605e-05
-1.38377e-05
-1.19375e-05
)
;
    }
    ceiling
    {
        type            calculated;
        value           nonuniform List<scalar> 
43
(
-4.18371e-05
-4.11727e-05
-4.04734e-05
-2.74064e-05
-2.22584e-05
-1.85874e-05
-1.50062e-05
-1.19828e-05
-9.91192e-06
-8.48823e-06
-7.65864e-06
-7.28036e-06
-7.1288e-06
-7.09584e-06
-7.10443e-06
-7.12509e-06
-7.15475e-06
-7.19527e-06
-7.24011e-06
-7.27387e-06
-7.27342e-06
-7.23286e-06
-7.15862e-06
-7.05569e-06
-6.92883e-06
-6.78521e-06
-6.62497e-06
-6.45069e-06
-6.26081e-06
-6.05729e-06
-5.83954e-06
-5.60857e-06
-5.36278e-06
-5.09735e-06
-4.80735e-06
-4.41201e-06
-4.12517e-06
-4.03353e-06
-4.16846e-06
-3.59762e-06
6.94251e-06
4.1804e-06
-5.33199e-05
)
;
    }
    sWall
    {
        type            calculated;
        value           uniform -0.000241387;
    }
    nWall
    {
        type            calculated;
        value           nonuniform List<scalar> 6(-5.43185e-05 -6.54341e-05 -6.88083e-05 -8.33191e-05 -9.16746e-05 -0.000110136);
    }
    sideWalls
    {
        type            empty;
        value           nonuniform 0();
    }
    glass1
    {
        type            calculated;
        value           nonuniform List<scalar> 9(-6.0454e-05 -0.000163391 -0.000250405 -0.000324627 -0.000387696 -0.000440756 -0.000487261 -0.000543314 -0.000605837);
    }
    glass2
    {
        type            calculated;
        value           nonuniform List<scalar> 2(-0.00028639 -0.000316985);
    }
    sun
    {
        type            calculated;
        value           uniform 0;
    }
    Table_master
    {
        type            calculated;
        value           nonuniform List<scalar> 9(-1.5364e-07 -1.53789e-07 -1.53839e-07 -1.53869e-07 -1.5389e-07 -1.53902e-07 -1.53906e-07 -1.539e-07 -1.5387e-07);
    }
    Table_slave
    {
        type            calculated;
        value           nonuniform List<scalar> 9(1.53531e-07 1.53516e-07 1.53468e-07 1.53431e-07 1.53408e-07 1.53408e-07 1.53413e-07 1.53451e-07 1.53534e-07);
    }
    inlet
    {
        type            calculated;
        value           uniform -0.0106585;
    }
    outlet
    {
        type            calculated;
        value           nonuniform List<scalar> 2(0.0123307 0.00356992);
    }
}


// ************************************************************************* //
