/*--------------------------------*- C++ -*----------------------------------*\
  =========                 |
  \\      /  F ield         | OpenFOAM: The Open Source CFD Toolbox
   \\    /   O peration     | Website:  https://openfoam.org
    \\  /    A nd           | Version:  6
     \\/     M anipulation  |
\*---------------------------------------------------------------------------*/
FoamFile
{
    version     2.0;
    format      ascii;
    class       volVectorField;
    location    "810";
    object      U;
}
// * * * * * * * * * * * * * * * * * * * * * * * * * * * * * * * * * * * * * //

dimensions      [0 1 -1 0 0 0 0];

internalField   nonuniform List<vector> 
458
(
(0.0347888 0.0885335 0)
(-0.172104 0.0265964 0)
(-0.199393 0.0191177 0)
(-0.233275 0.0130813 0)
(-0.258449 0.00641147 0)
(-0.27365 -0.000809052 0)
(-0.276773 -0.00878428 0)
(-0.265515 -0.0177864 0)
(-0.239443 -0.0274366 0)
(-0.199717 -0.0361206 0)
(-0.150441 -0.0420567 0)
(-0.0978188 -0.0436506 0)
(-0.0487194 -0.0390744 0)
(-0.0062658 -0.0236753 0)
(-0.0102755 0.00977207 0)
(-0.0102376 0.0105119 0)
(-0.037257 -0.0174886 0)
(-0.014508 -0.0291048 0)
(0.0136733 -0.025184 0)
(0.0334471 -0.0178931 0)
(0.0480663 -0.00955626 0)
(0.0568269 -0.00517699 0)
(0.0607059 -0.0036327 0)
(0.0621413 -0.0030837 0)
(0.0627904 -0.00276004 0)
(0.0630993 -0.0025097 0)
(0.0630388 -0.00224324 0)
(0.0624428 -0.00179912 0)
(0.0608523 -0.000839615 0)
(0.05725 0.00107402 0)
(0.0505295 0.00317101 0)
(0.0451202 0.00508857 0)
(-0.0141351 0.0219524 0)
(0.214218 0.18191 0)
(-0.162158 0.0710226 0)
(-0.162975 0.057777 0)
(-0.198694 0.0457487 0)
(-0.22417 0.0319875 0)
(-0.240144 0.0161695 0)
(-0.24464 -0.00242208 0)
(-0.235134 -0.0239848 0)
(-0.211873 -0.0461916 0)
(-0.176478 -0.0649476 0)
(-0.133338 -0.0764413 0)
(-0.0881039 -0.0782039 0)
(-0.0462367 -0.0687249 0)
(-0.0100043 -0.0460069 0)
(0.0194222 -0.0133798 0)
(0.0442512 0.00785241 0)
(0.054848 0.0347582 0)
(-0.0118091 0.0706794 0)
(0.0670371 0.0439807 0)
(0.010291 -0.0218366 0)
(0.0265172 -0.037899 0)
(0.0407456 -0.0356475 0)
(0.0531374 -0.0273503 0)
(0.0595641 -0.0120962 0)
(0.0611845 -0.00275334 0)
(0.0612331 0.00074726 0)
(0.0613971 0.002023 0)
(0.0617226 0.00272383 0)
(0.0619479 0.00322261 0)
(0.0620055 0.00367406 0)
(0.0619008 0.00440624 0)
(0.0611892 0.00620533 0)
(0.057793 0.0112238 0)
(0.0491032 0.015534 0)
(0.047695 0.0187072 0)
(-0.0584113 0.0475579 0)
(0.379462 0.272985 0)
(-0.180107 0.113776 0)
(-0.123532 0.0941292 0)
(-0.159217 0.0724406 0)
(-0.182618 0.0494999 0)
(-0.198425 0.0236317 0)
(-0.204071 -0.00655475 0)
(-0.195372 -0.0410093 0)
(-0.173577 -0.0758152 0)
(-0.141399 -0.103681 0)
(-0.103808 -0.118974 0)
(-0.0658585 -0.119163 0)
(-0.0317873 -0.104112 0)
(-0.00224267 -0.0743832 0)
(0.0220565 -0.0400643 0)
(0.0376158 -0.0152091 0)
(0.0431909 0.0131719 0)
(-0.0236448 0.062323 0)
(0.122495 -0.00753455 0)
(0.0725084 -0.0320929 0)
(0.0643042 -0.0419263 0)
(0.0672488 -0.0417584 0)
(0.0718584 -0.0380601 0)
(0.0734902 -0.0282366 0)
(0.0643663 -0.0183334 0)
(0.0574093 -0.0130288 0)
(0.0548101 -0.0100807 0)
(0.0541191 -0.00818624 0)
(0.0538859 -0.00689828 0)
(0.0539558 -0.00590375 0)
(0.0547541 -0.00475469 0)
(0.0572042 -0.00139888 0)
(0.0561001 0.0149948 0)
(0.0445858 0.0258722 0)
(0.0541263 0.0332476 0)
(-0.0993509 0.0728077 0)
(0.529947 0.346686 0)
(-0.216642 0.151803 0)
(-0.0802079 0.125858 0)
(-0.11554 0.0963015 0)
(-0.133415 0.0672175 0)
(-0.146923 0.0337469 0)
(-0.152502 -0.00713903 0)
(-0.142593 -0.0550958 0)
(-0.12125 -0.102355 0)
(-0.0929324 -0.137881 0)
(-0.0624823 -0.155451 0)
(-0.0335222 -0.153434 0)
(-0.0087491 -0.133423 0)
(0.0129078 -0.097906 0)
(0.0304695 -0.0589553 0)
(0.0443863 -0.0228799 0)
(0.0599773 0.0131618 0)
(0.0588408 0.0534495 0)
(0.100344 0.0615047 0)
(0.0988177 -0.00243883 0)
(0.0851441 -0.0293849 0)
(0.0784509 -0.0376787 0)
(0.0735869 -0.038386 0)
(0.0669738 -0.034116 0)
(0.0665361 -0.0208402 0)
(0.0772126 -0.0138313 0)
(0.0861824 -0.0101108 0)
(0.0915922 -0.00783089 0)
(0.0948458 -0.00592492 0)
(0.0962704 -0.00386631 0)
(0.0945193 -0.00120062 0)
(0.08827 0.00247197 0)
(0.0757362 0.00773797 0)
(0.0598219 0.0250948 0)
(0.0440807 0.0405878 0)
(0.0629747 0.0533414 0)
(-0.13132 0.0943009 0)
(0.662595 0.403844 0)
(-0.262313 0.182723 0)
(-0.0350335 0.145277 0)
(-0.0687345 0.111319 0)
(-0.0779236 0.0792206 0)
(-0.0862651 0.0412278 0)
(-0.0890105 -0.00802159 0)
(-0.0739673 -0.0688699 0)
(-0.0534194 -0.125954 0)
(-0.0315128 -0.165118 0)
(-0.0112115 -0.181869 0)
(0.00622369 -0.175993 0)
(0.019382 -0.151466 0)
(0.030396 -0.114514 0)
(0.0402392 -0.0729325 0)
(0.0494759 -0.0336987 0)
(0.0619666 0.000696153 0)
(0.0760591 0.0197353 0)
(0.0903401 -0.000548514 0)
(0.0896884 -0.0213597 0)
(0.0826105 -0.0300201 0)
(0.0737925 -0.0325264 0)
(0.0655349 -0.0316065 0)
(0.0585759 -0.0266204 0)
(0.0567841 -0.0155068 0)
(0.0603362 -0.00902921 0)
(0.0646818 -0.00638336 0)
(0.0684122 -0.0048483 0)
(0.0716655 -0.00277292 0)
(0.0741824 0.000755503 0)
(0.0750462 0.00594709 0)
(0.0731621 0.0129724 0)
(0.0682609 0.0224307 0)
(0.0612207 0.0371748 0)
(0.0500737 0.0536378 0)
(0.0748623 0.0727457 0)
(-0.00681644 0.101411 0)
(0.0557885 0.150673 0)
(-0.083529 0.0748323 0)
(-0.277798 0.000480323 0)
(0.761807 0.451355 0)
(-0.308506 0.203375 0)
(0.00243644 0.1439 0)
(-0.0205573 0.116251 0)
(-0.0197516 0.0857019 0)
(-0.0214541 0.0472693 0)
(-0.0142444 -0.00697335 0)
(0.0104119 -0.0860057 0)
(0.0270083 -0.146243 0)
(0.0389088 -0.182461 0)
(0.0461221 -0.194574 0)
(0.0489636 -0.185051 0)
(0.0486934 -0.158099 0)
(0.0472825 -0.119887 0)
(0.0461008 -0.0779056 0)
(0.0465087 -0.039675 0)
(0.0508515 -0.00996196 0)
(0.0599875 0.00485213 0)
(0.0662542 -0.00102657 0)
(0.0649919 -0.0109917 0)
(0.0585942 -0.0187813 0)
(0.0504123 -0.0228763 0)
(0.0427638 -0.0236254 0)
(0.0367773 -0.0211114 0)
(0.0342193 -0.0157614 0)
(0.035368 -0.0122986 0)
(0.0383255 -0.0108782 0)
(0.041987 -0.00979996 0)
(0.0460546 -0.00767103 0)
(0.0502452 -0.00342011 0)
(0.0544659 0.0036534 0)
(0.0569891 0.0131661 0)
(0.0581586 0.0249309 0)
(0.0592878 0.0395708 0)
(0.0583705 0.0560063 0)
(0.0797097 0.0766958 0)
(0.0654545 0.0890123 0)
(0.0997258 0.0967504 0)
(0.117478 0.0572088 0)
(-0.136899 -0.0299364 0)
(0.81556 0.494215 0)
(-0.334076 0.187395 0)
(0.0322592 0.0938011 0)
(0.0391015 0.101027 0)
(0.0459849 0.0829605 0)
(0.0516928 0.0393196 0)
(0.0792025 -0.0312407 0)
(0.103216 -0.103768 0)
(0.113385 -0.157065 0)
(0.112954 -0.186362 0)
(0.104663 -0.192444 0)
(0.0908605 -0.178768 0)
(0.0741556 -0.149741 0)
(0.0575536 -0.111524 0)
(0.0430148 -0.0708676 0)
(0.0326491 -0.0356541 0)
(0.0281221 -0.0107172 0)
(0.0295091 0.00103082 0)
(0.0311343 -0.000244033 0)
(0.0296241 -0.0065353 0)
(0.0249621 -0.0125942 0)
(0.0188346 -0.0163251 0)
(0.0128029 -0.0176986 0)
(0.00799141 -0.017075 0)
(0.00562795 -0.0151851 0)
(0.00597111 -0.0141089 0)
(0.00801363 -0.013987 0)
(0.0110143 -0.0137734 0)
(0.0148124 -0.0124002 0)
(0.0194924 -0.00878214 0)
(0.0256577 -0.00167468 0)
(0.0332782 0.00884552 0)
(0.0400487 0.0208728 0)
(0.0478618 0.0341483 0)
(0.0558666 0.0479605 0)
(0.075443 0.064458 0)
(0.0882273 0.0697912 0)
(0.11967 0.0632281 0)
(0.163388 0.0513173 0)
(-0.0203324 0.0954871 0)
(0.92182 0.497293 0)
(-0.076607 0.16744 0)
(0.110646 0.0261621 0)
(0.163793 0.0227495 0)
(0.161479 0.0154728 0)
(0.162967 -0.0294603 0)
(0.196614 -0.0804907 0)
(0.211388 -0.125608 0)
(0.205464 -0.158321 0)
(0.185181 -0.174001 0)
(0.155656 -0.171673 0)
(0.12114 -0.153954 0)
(0.0853313 -0.124236 0)
(0.0523943 -0.0880256 0)
(0.0244786 -0.0510062 0)
(0.00512243 -0.0218756 0)
(-0.00463558 -0.00437645 0)
(-0.00656923 0.00180839 0)
(-0.00645734 0.000707243 0)
(-0.00766454 -0.00362234 0)
(-0.0109702 -0.00797061 0)
(-0.0154708 -0.0110286 0)
(-0.0201046 -0.0128023 0)
(-0.0239672 -0.0136552 0)
(-0.0263475 -0.0141275 0)
(-0.0272376 -0.014897 0)
(-0.0272001 -0.0158917 0)
(-0.0266191 -0.0166169 0)
(-0.0254937 -0.0165351 0)
(-0.0235191 -0.0150743 0)
(-0.0198972 -0.0114986 0)
(-0.0117533 -0.00493569 0)
(-0.000120808 0.00442786 0)
(0.0110659 0.0137421 0)
(0.0226732 0.0208621 0)
(0.0398838 0.0277391 0)
(0.0554212 0.0224534 0)
(0.0795686 0.00565881 0)
(0.146399 0.0479793 0)
(-0.42829 0.212651 0)
(1.06587 0.444157 0)
(0.518231 0.298295 0)
(0.529541 0.24983 0)
(0.518439 0.182856 0)
(0.469931 0.122375 0)
(0.433291 0.0600519 0)
(0.392159 -0.00748537 0)
(0.34294 -0.0670286 0)
(0.289165 -0.107888 0)
(0.232804 -0.12661 0)
(0.175394 -0.125077 0)
(0.118913 -0.108876 0)
(0.0654492 -0.0822307 0)
(0.0202197 -0.0511986 0)
(-0.0161311 -0.0207722 0)
(-0.0329771 -0.00600686 0)
(-0.0401624 0.000498936 0)
(-0.0417096 0.00225986 0)
(-0.0420878 0.00105651 0)
(-0.0432309 -0.00159267 0)
(-0.045858 -0.00447023 0)
(-0.0495021 -0.00699654 0)
(-0.0535182 -0.0090935 0)
(-0.0573742 -0.010839 0)
(-0.0608164 -0.0123613 0)
(-0.0640075 -0.0137585 0)
(-0.0673503 -0.0148671 0)
(-0.0712203 -0.0153327 0)
(-0.0759708 -0.0146641 0)
(-0.0820748 -0.0122153 0)
(-0.0902193 -0.00714626 0)
(-0.101126 0.00139654 0)
(-0.112767 0.01329 0)
(-0.127983 0.02839 0)
(-0.15289 0.0467702 0)
(-0.190201 0.0673871 0)
(-0.24159 0.086226 0)
(-0.297514 0.0999256 0)
(-0.371604 0.106928 0)
(-0.65064 0.106329 0)
(0.233956 0.0527706 0)
(0.305903 0.115858 0)
(0.321231 0.0912396 0)
(0.299656 0.0394527 0)
(0.275068 -0.0106967 0)
(0.244386 -0.0469928 0)
(0.203075 -0.0684314 0)
(0.153953 -0.0753963 0)
(0.100362 -0.0686597 0)
(0.0460744 -0.0528634 0)
(-0.00873809 -0.0294321 0)
(-0.0452134 -0.0114184 0)
(-0.0636661 -0.00305706 0)
(-0.0709789 -0.000681073 0)
(-0.0731978 -0.000211264 0)
(-0.0735077 -0.000908488 0)
(-0.0738036 -0.00250966 0)
(-0.0749409 -0.00460865 0)
(-0.0771458 -0.00670515 0)
(-0.0803899 -0.00848947 0)
(-0.084169 -0.00996875 0)
(-0.0882595 -0.0111037 0)
(-0.0926781 -0.0118942 0)
(-0.0975795 -0.0123006 0)
(-0.103113 -0.0121344 0)
(-0.10931 -0.0110513 0)
(-0.116037 -0.00857861 0)
(-0.122949 -0.0041778 0)
(-0.12942 0.00271362 0)
(-0.134402 0.0123067 0)
(-0.138372 0.0255817 0)
(-0.141807 0.0431467 0)
(-0.146014 0.0642001 0)
(-0.151766 0.0850424 0)
(-0.155352 0.0955494 0)
(-0.141306 0.0734104 0)
(-0.110287 -0.0249928 0)
(-0.286596 -0.213722 0)
(0.120064 0.324283 0)
(0.00836863 0.20351 0)
(0.0392069 0.118345 0)
(0.0583856 0.0603323 0)
(0.0629983 0.0215509 0)
(0.0599707 -0.00482523 0)
(0.0400349 -0.0199082 0)
(0.00520608 -0.0188877 0)
(-0.0367749 -0.00168026 0)
(-0.0702672 0.0128779 0)
(-0.0913396 0.0208546 0)
(-0.100319 0.0232186 0)
(-0.102515 0.0233324 0)
(-0.102443 0.0233726 0)
(-0.101557 0.0240731 0)
(-0.100515 0.0251882 0)
(-0.099784 0.0263194 0)
(-0.0996509 0.0270665 0)
(-0.100171 0.0270087 0)
(-0.101297 0.0258102 0)
(-0.103073 0.0237741 0)
(-0.105433 0.021529 0)
(-0.108318 0.0193513 0)
(-0.111637 0.0173886 0)
(-0.115252 0.0157465 0)
(-0.118946 0.0145358 0)
(-0.122405 0.0138947 0)
(-0.125145 0.0139781 0)
(-0.126348 0.0154776 0)
(-0.124849 0.0198484 0)
(-0.11907 0.0282551 0)
(-0.107621 0.0417028 0)
(-0.0903583 0.0602113 0)
(-0.0683265 0.0804128 0)
(-0.0434556 0.0948364 0)
(-0.00760291 0.0857839 0)
(0.146938 0.00931163 0)
(-0.209925 -0.129669 0)
(-0.422056 -0.515985 0)
(-0.637276 -0.143288 0)
(-0.449393 0.177679 0)
(-0.357977 0.0560011 0)
(-0.21401 -0.00559428 0)
(-0.145795 -0.0477741 0)
(-0.117402 -0.0704199 0)
(-0.113237 -0.0711993 0)
(-0.12258 -0.0625379 0)
(-0.13505 -0.0548387 0)
(-0.140496 -0.0503752 0)
(-0.138713 -0.048911 0)
(-0.134233 -0.0497556 0)
(-0.129028 -0.0525344 0)
(-0.12454 -0.0560263 0)
(-0.121069 -0.0596461 0)
(-0.118241 -0.063261 0)
(-0.115797 -0.0669289 0)
(-0.113696 -0.0705076 0)
(-0.112012 -0.0735098 0)
(-0.110885 -0.0753076 0)
(-0.110482 -0.0754719 0)
(-0.110909 -0.0740987 0)
(-0.112121 -0.0717669 0)
(-0.11394 -0.0687094 0)
(-0.116138 -0.0650782 0)
(-0.118434 -0.0609042 0)
(-0.12046 -0.0561112 0)
(-0.121736 -0.0504907 0)
(-0.121627 -0.0436904 0)
(-0.119119 -0.0357309 0)
(-0.112306 -0.0266344 0)
(-0.0983835 -0.0158523 0)
(-0.0748463 -0.00247774 0)
(-0.041568 0.014365 0)
(0.00926717 0.0363344 0)
(0.0618291 0.0424159 0)
(0.109562 0.0241281 0)
(0.172046 -0.0158548 0)
(-0.19632 -0.0826202 0)
)
;

boundaryField
{
    floor
    {
        type            noSlip;
    }
    ceiling
    {
        type            noSlip;
    }
    sWall
    {
        type            noSlip;
    }
    nWall
    {
        type            noSlip;
    }
    sideWalls
    {
        type            empty;
    }
    glass1
    {
        type            noSlip;
    }
    glass2
    {
        type            noSlip;
    }
    sun
    {
        type            noSlip;
    }
    Table_master
    {
        type            noSlip;
    }
    Table_slave
    {
        type            noSlip;
    }
    inlet
    {
        type            fixedValue;
        value           uniform (0.46194 -0.191342 0);
    }
    outlet
    {
        type            zeroGradient;
    }
}


// ************************************************************************* //
