/*--------------------------------*- C++ -*----------------------------------*\
  =========                 |
  \\      /  F ield         | OpenFOAM: The Open Source CFD Toolbox
   \\    /   O peration     | Website:  https://openfoam.org
    \\  /    A nd           | Version:  6
     \\/     M anipulation  |
\*---------------------------------------------------------------------------*/
FoamFile
{
    version     2.0;
    format      ascii;
    class       volVectorField;
    location    "4210";
    object      U;
}
// * * * * * * * * * * * * * * * * * * * * * * * * * * * * * * * * * * * * * //

dimensions      [0 1 -1 0 0 0 0];

internalField   nonuniform List<vector> 
458
(
(0.0348256 0.0885226 0)
(-0.172081 0.0265844 0)
(-0.199348 0.0191132 0)
(-0.233223 0.0130811 0)
(-0.258395 0.00641369 0)
(-0.2736 -0.000804993 0)
(-0.276729 -0.00877837 0)
(-0.265481 -0.0177783 0)
(-0.239423 -0.0274273 0)
(-0.199711 -0.0361121 0)
(-0.150445 -0.0420519 0)
(-0.0978282 -0.0436518 0)
(-0.0487281 -0.0390818 0)
(-0.0062697 -0.0236843 0)
(-0.0102616 0.00977184 0)
(-0.0102379 0.010513 0)
(-0.03726 -0.017487 0)
(-0.0145106 -0.0291034 0)
(0.0136698 -0.0251835 0)
(0.0334408 -0.0178893 0)
(0.0480573 -0.00955487 0)
(0.0568166 -0.00517626 0)
(0.0606952 -0.00363238 0)
(0.0621307 -0.00308262 0)
(0.0627799 -0.0027598 0)
(0.0630898 -0.00250946 0)
(0.0630291 -0.00224155 0)
(0.0624315 -0.00179743 0)
(0.06084 -0.000838712 0)
(0.0572381 0.00107463 0)
(0.0505188 0.00317064 0)
(0.0451143 0.00508632 0)
(-0.0141469 0.021948 0)
(0.214271 0.181889 0)
(-0.162147 0.0709929 0)
(-0.162941 0.0577624 0)
(-0.198656 0.0457433 0)
(-0.224133 0.0319882 0)
(-0.240109 0.0161755 0)
(-0.244611 -0.00241018 0)
(-0.235115 -0.0239669 0)
(-0.211867 -0.0461701 0)
(-0.176484 -0.0649271 0)
(-0.133354 -0.0764273 0)
(-0.0881255 -0.0781993 0)
(-0.046259 -0.0687301 0)
(-0.0100259 -0.0460164 0)
(0.01941 -0.0133797 0)
(0.0442424 0.00784969 0)
(0.0548473 0.0347581 0)
(-0.0118094 0.070683 0)
(0.0670401 0.0439815 0)
(0.0102883 -0.0218338 0)
(0.0265184 -0.0378985 0)
(0.0407467 -0.035645 0)
(0.0531358 -0.0273415 0)
(0.059558 -0.0120936 0)
(0.0611781 -0.00275354 0)
(0.0612279 0.000745491 0)
(0.0613926 0.00202319 0)
(0.0617179 0.00272184 0)
(0.0619428 0.00322151 0)
(0.0620002 0.00367475 0)
(0.0618961 0.00440707 0)
(0.061185 0.00620501 0)
(0.0577885 0.0112235 0)
(0.0490978 0.0155324 0)
(0.0476927 0.0187038 0)
(-0.0584277 0.0475496 0)
(0.379536 0.272955 0)
(-0.180118 0.113733 0)
(-0.123512 0.094109 0)
(-0.159197 0.0724343 0)
(-0.182599 0.0495027 0)
(-0.198409 0.0236424 0)
(-0.204062 -0.0065353 0)
(-0.195373 -0.0409801 0)
(-0.17359 -0.0757813 0)
(-0.141424 -0.103649 0)
(-0.10384 -0.118953 0)
(-0.0658944 -0.119156 0)
(-0.0318224 -0.104119 0)
(-0.00227665 -0.0743971 0)
(0.0220308 -0.0400724 0)
(0.0375971 -0.0152191 0)
(0.0431787 0.0131634 0)
(-0.0236619 0.0623193 0)
(0.12249 -0.00753259 0)
(0.0725096 -0.032091 0)
(0.0643117 -0.0419289 0)
(0.0672605 -0.0417568 0)
(0.0718707 -0.038044 0)
(0.0734893 -0.028228 0)
(0.0643661 -0.018329 0)
(0.0574116 -0.0130269 0)
(0.0548131 -0.0100784 0)
(0.0541219 -0.00818589 0)
(0.0538879 -0.00689736 0)
(0.0539582 -0.0059024 0)
(0.0547575 -0.00475326 0)
(0.0572084 -0.00139861 0)
(0.056103 0.0149938 0)
(0.0445872 0.025869 0)
(0.0541327 0.0332462 0)
(-0.099378 0.0727938 0)
(0.530025 0.346652 0)
(-0.216668 0.151756 0)
(-0.0801994 0.125836 0)
(-0.115538 0.0962966 0)
(-0.133417 0.0672238 0)
(-0.146929 0.0337627 0)
(-0.152515 -0.00711188 0)
(-0.14262 -0.0550547 0)
(-0.121287 -0.102309 0)
(-0.0929778 -0.13784 0)
(-0.0625309 -0.155426 0)
(-0.0335718 -0.153427 0)
(-0.00879758 -0.133437 0)
(0.0128652 -0.0979224 0)
(0.0304327 -0.0589718 0)
(0.0443569 -0.0228963 0)
(0.0599549 0.0131493 0)
(0.0588224 0.0534402 0)
(0.100334 0.061506 0)
(0.0988157 -0.00244092 0)
(0.0851507 -0.0293886 0)
(0.0784671 -0.0376903 0)
(0.0736157 -0.0383941 0)
(0.0670202 -0.0341077 0)
(0.0666011 -0.0208386 0)
(0.0772771 -0.01383 0)
(0.08624 -0.010107 0)
(0.091639 -0.00782413 0)
(0.0948785 -0.00591647 0)
(0.0962848 -0.00385546 0)
(0.0945168 -0.00119015 0)
(0.0882548 0.00248027 0)
(0.0757127 0.00774306 0)
(0.0597988 0.0250979 0)
(0.0440614 0.0405833 0)
(0.0629781 0.0533443 0)
(-0.13139 0.0942778 0)
(0.66268 0.403809 0)
(-0.262352 0.182678 0)
(-0.0350338 0.145257 0)
(-0.068749 0.111319 0)
(-0.0779458 0.079233 0)
(-0.0862934 0.0412494 0)
(-0.0890485 -0.00798825 0)
(-0.0740283 -0.0688151 0)
(-0.0534823 -0.125902 0)
(-0.0315788 -0.165073 0)
(-0.0112751 -0.181842 0)
(0.0061614 -0.17599 0)
(0.0193254 -0.151482 0)
(0.0303433 -0.114537 0)
(0.0401934 -0.0729568 0)
(0.0494379 -0.0337219 0)
(0.0619363 0.000675509 0)
(0.0760383 0.0197168 0)
(0.090327 -0.000567059 0)
(0.0896842 -0.0213724 0)
(0.0826175 -0.0300336 0)
(0.0738109 -0.0325494 0)
(0.0655661 -0.0316294 0)
(0.0586219 -0.0266321 0)
(0.0568408 -0.0155119 0)
(0.0603943 -0.00902649 0)
(0.0647357 -0.00637179 0)
(0.0684589 -0.00482954 0)
(0.0717016 -0.00274947 0)
(0.0742084 0.000781114 0)
(0.0750579 0.00596804 0)
(0.0731639 0.0129864 0)
(0.0682547 0.0224378 0)
(0.0612077 0.0371777 0)
(0.0500555 0.0536294 0)
(0.0748591 0.0727482 0)
(-0.00684757 0.101381 0)
(0.055788 0.150674 0)
(-0.0835198 0.0748408 0)
(-0.277797 0.000488108 0)
(0.761894 0.451323 0)
(-0.308549 0.203338 0)
(0.00242997 0.143886 0)
(-0.020584 0.116259 0)
(-0.0197898 0.0857218 0)
(-0.0214996 0.0472948 0)
(-0.0143133 -0.00693823 0)
(0.0103156 -0.0859259 0)
(0.0269245 -0.146193 0)
(0.0388262 -0.182424 0)
(0.0460461 -0.194553 0)
(0.0488942 -0.18505 0)
(0.0486295 -0.158119 0)
(0.0472248 -0.119917 0)
(0.0460512 -0.077938 0)
(0.0464682 -0.0397063 0)
(0.0508203 -0.00999041 0)
(0.0599686 0.00482478 0)
(0.066245 -0.00105147 0)
(0.0649918 -0.0110137 0)
(0.0586063 -0.0188062 0)
(0.0504355 -0.0229111 0)
(0.0427975 -0.0236611 0)
(0.0368216 -0.021135 0)
(0.0342703 -0.0157707 0)
(0.0354197 -0.012294 0)
(0.0383735 -0.0108626 0)
(0.0420297 -0.00977483 0)
(0.0460897 -0.00763889 0)
(0.0502722 -0.00338476 0)
(0.0544828 0.00368354 0)
(0.0569999 0.0131864 0)
(0.0581661 0.0249441 0)
(0.059291 0.0395785 0)
(0.0583672 0.0560001 0)
(0.0797089 0.0766956 0)
(0.0654478 0.0889842 0)
(0.0997222 0.0967313 0)
(0.117478 0.0571985 0)
(-0.136895 -0.0299281 0)
(0.815611 0.494187 0)
(-0.334124 0.18737 0)
(0.0322411 0.0938 0)
(0.0390622 0.101054 0)
(0.0459313 0.0830002 0)
(0.0516238 0.0393701 0)
(0.0790982 -0.0311722 0)
(0.10311 -0.103705 0)
(0.113286 -0.157016 0)
(0.112861 -0.186331 0)
(0.104581 -0.192431 0)
(0.0907893 -0.178775 0)
(0.0740938 -0.149768 0)
(0.0575006 -0.111561 0)
(0.0429713 -0.0709089 0)
(0.0326165 -0.035695 0)
(0.0281006 -0.0107562 0)
(0.0295008 0.000991566 0)
(0.0311364 -0.000280133 0)
(0.029635 -0.00656877 0)
(0.0249834 -0.0126303 0)
(0.018864 -0.0163694 0)
(0.0128387 -0.0177428 0)
(0.00803224 -0.0171049 0)
(0.00567111 -0.0151957 0)
(0.00601322 -0.0141011 0)
(0.00805233 -0.0139678 0)
(0.0110507 -0.013742 0)
(0.0148459 -0.0123613 0)
(0.0195239 -0.00873984 0)
(0.0256926 -0.0016358 0)
(0.0333025 0.00886879 0)
(0.0400692 0.0208902 0)
(0.0478781 0.0341601 0)
(0.0558774 0.0479598 0)
(0.0754521 0.064457 0)
(0.0882331 0.0697706 0)
(0.11967 0.0632091 0)
(0.163391 0.0513053 0)
(-0.0203529 0.0954879 0)
(0.921864 0.497285 0)
(-0.0766786 0.167419 0)
(0.110608 0.0261617 0)
(0.163737 0.0227927 0)
(0.161399 0.015547 0)
(0.162865 -0.029363 0)
(0.196489 -0.0804103 0)
(0.211271 -0.125543 0)
(0.205359 -0.158277 0)
(0.18509 -0.173982 0)
(0.155584 -0.171674 0)
(0.121084 -0.153972 0)
(0.085289 -0.124273 0)
(0.0523629 -0.0880735 0)
(0.024458 -0.0510588 0)
(0.00511387 -0.0219286 0)
(-0.00463218 -0.0044281 0)
(-0.006559 0.00175864 0)
(-0.00644002 0.000663424 0)
(-0.00764065 -0.00366306 0)
(-0.0109406 -0.00801328 0)
(-0.0154387 -0.0110775 0)
(-0.0200734 -0.0128479 0)
(-0.0239379 -0.0136845 0)
(-0.0263201 -0.0141355 0)
(-0.0272118 -0.0148865 0)
(-0.0271758 -0.0158705 0)
(-0.0265941 -0.0165842 0)
(-0.0254667 -0.0164987 0)
(-0.0234874 -0.0150363 0)
(-0.0198622 -0.0114658 0)
(-0.0117097 -0.00490994 0)
(-9.41379e-05 0.00445893 0)
(0.0110861 0.0137605 0)
(0.0226896 0.0208656 0)
(0.0398997 0.0277365 0)
(0.0554301 0.0224377 0)
(0.0795689 0.00564822 0)
(0.146409 0.0479777 0)
(-0.428338 0.212666 0)
(1.06591 0.444164 0)
(0.518237 0.2983 0)
(0.529532 0.249857 0)
(0.51839 0.182905 0)
(0.469837 0.122438 0)
(0.433156 0.0601129 0)
(0.392045 -0.00742366 0)
(0.34284 -0.0669799 0)
(0.289081 -0.107862 0)
(0.232743 -0.126611 0)
(0.175361 -0.125099 0)
(0.118902 -0.108911 0)
(0.0654552 -0.0822846 0)
(0.0202352 -0.051262 0)
(-0.0161024 -0.0208448 0)
(-0.0329475 -0.00607205 0)
(-0.0401254 0.000442131 0)
(-0.0416817 0.00220745 0)
(-0.0420601 0.0010084 0)
(-0.0432021 -0.00163934 0)
(-0.04583 -0.00451716 0)
(-0.0494791 -0.00704504 0)
(-0.0535046 -0.00913514 0)
(-0.0573695 -0.0108638 0)
(-0.0608172 -0.0123657 0)
(-0.0640103 -0.0137471 0)
(-0.0673528 -0.0148456 0)
(-0.0712204 -0.015302 0)
(-0.0759667 -0.0146317 0)
(-0.0820651 -0.0121816 0)
(-0.0902077 -0.00711466 0)
(-0.101119 0.00142823 0)
(-0.112753 0.013322 0)
(-0.127984 0.0284141 0)
(-0.152908 0.0467845 0)
(-0.190233 0.0673933 0)
(-0.241635 0.0862252 0)
(-0.297563 0.0999184 0)
(-0.371647 0.106912 0)
(-0.65067 0.106305 0)
(0.233924 0.0528313 0)
(0.305889 0.115962 0)
(0.321217 0.0913667 0)
(0.299642 0.039577 0)
(0.275045 -0.0106032 0)
(0.244385 -0.0469397 0)
(0.203096 -0.0684128 0)
(0.154001 -0.075415 0)
(0.100436 -0.0686989 0)
(0.046163 -0.0529168 0)
(-0.00863087 -0.0295142 0)
(-0.0451345 -0.0114974 0)
(-0.0635927 -0.00313944 0)
(-0.0709235 -0.000757782 0)
(-0.073159 -0.000283827 0)
(-0.073477 -0.00098237 0)
(-0.0737786 -0.0025837 0)
(-0.074917 -0.00467919 0)
(-0.077132 -0.00676801 0)
(-0.0803878 -0.00854782 0)
(-0.084184 -0.0100194 0)
(-0.0882911 -0.011141 0)
(-0.0927204 -0.0119155 0)
(-0.0976254 -0.0123096 0)
(-0.103157 -0.0121329 0)
(-0.109347 -0.0110406 0)
(-0.116065 -0.00856336 0)
(-0.122967 -0.00415726 0)
(-0.129429 0.00273882 0)
(-0.134402 0.0123366 0)
(-0.13837 0.0256174 0)
(-0.141807 0.0431792 0)
(-0.146019 0.0642222 0)
(-0.151773 0.0850512 0)
(-0.155359 0.0955471 0)
(-0.141304 0.0734008 0)
(-0.110248 -0.0250097 0)
(-0.286613 -0.213742 0)
(0.120027 0.324335 0)
(0.00839035 0.203592 0)
(0.0392641 0.118449 0)
(0.0584772 0.0604341 0)
(0.0631251 0.0216237 0)
(0.0601111 -0.00478678 0)
(0.0401966 -0.0199142 0)
(0.00541744 -0.0189541 0)
(-0.0365981 -0.00171844 0)
(-0.0701169 0.0128784 0)
(-0.0912294 0.0208815 0)
(-0.100244 0.0232653 0)
(-0.102468 0.0233933 0)
(-0.102413 0.023446 0)
(-0.101541 0.0241602 0)
(-0.100509 0.0252869 0)
(-0.0997862 0.0264283 0)
(-0.0996587 0.0271783 0)
(-0.100184 0.027113 0)
(-0.101325 0.0259078 0)
(-0.10312 0.0238739 0)
(-0.105496 0.0216291 0)
(-0.108387 0.0194493 0)
(-0.111705 0.01748 0)
(-0.115313 0.0158312 0)
(-0.118996 0.0146123 0)
(-0.122445 0.0139596 0)
(-0.125176 0.0140303 0)
(-0.126372 0.0155213 0)
(-0.124865 0.0198896 0)
(-0.119076 0.0282961 0)
(-0.107619 0.0417407 0)
(-0.0903519 0.0602414 0)
(-0.0683172 0.0804254 0)
(-0.0434461 0.0948376 0)
(-0.00758416 0.0857778 0)
(0.146942 0.00930541 0)
(-0.209932 -0.129684 0)
(-0.422116 -0.51603 0)
(-0.637319 -0.143275 0)
(-0.449399 0.177759 0)
(-0.357934 0.0560785 0)
(-0.213899 -0.0055403 0)
(-0.145611 -0.0477889 0)
(-0.117167 -0.070538 0)
(-0.112987 -0.0713623 0)
(-0.122346 -0.0626878 0)
(-0.134863 -0.0549764 0)
(-0.140347 -0.0505056 0)
(-0.138588 -0.0490661 0)
(-0.134127 -0.0499516 0)
(-0.128945 -0.0527745 0)
(-0.124483 -0.0563027 0)
(-0.121038 -0.0599463 0)
(-0.118239 -0.0635889 0)
(-0.115826 -0.0672864 0)
(-0.113758 -0.0708882 0)
(-0.112108 -0.0739042 0)
(-0.111008 -0.0756836 0)
(-0.110621 -0.0757904 0)
(-0.111051 -0.0743575 0)
(-0.112257 -0.0719862 0)
(-0.114069 -0.0689144 0)
(-0.11626 -0.0652746 0)
(-0.118548 -0.0610869 0)
(-0.120566 -0.0562774 0)
(-0.121831 -0.0506308 0)
(-0.12171 -0.0438006 0)
(-0.119186 -0.0358137 0)
(-0.112353 -0.0266891 0)
(-0.0984055 -0.0158826 0)
(-0.0748439 -0.00248597 0)
(-0.0415503 0.0143646 0)
(0.00931722 0.0362844 0)
(0.0618665 0.0423469 0)
(0.109599 0.0240441 0)
(0.172058 -0.0159431 0)
(-0.196289 -0.082685 0)
)
;

boundaryField
{
    floor
    {
        type            noSlip;
    }
    ceiling
    {
        type            noSlip;
    }
    sWall
    {
        type            noSlip;
    }
    nWall
    {
        type            noSlip;
    }
    sideWalls
    {
        type            empty;
    }
    glass1
    {
        type            noSlip;
    }
    glass2
    {
        type            noSlip;
    }
    sun
    {
        type            noSlip;
    }
    Table_master
    {
        type            noSlip;
    }
    Table_slave
    {
        type            noSlip;
    }
    inlet
    {
        type            fixedValue;
        value           uniform (0.46194 -0.191342 0);
    }
    outlet
    {
        type            zeroGradient;
    }
}


// ************************************************************************* //
