/*--------------------------------*- C++ -*----------------------------------*\
  =========                 |
  \\      /  F ield         | OpenFOAM: The Open Source CFD Toolbox
   \\    /   O peration     | Website:  https://openfoam.org
    \\  /    A nd           | Version:  6
     \\/     M anipulation  |
\*---------------------------------------------------------------------------*/
FoamFile
{
    version     2.0;
    format      ascii;
    class       volScalarField;
    location    "19500";
    object      nut;
}
// * * * * * * * * * * * * * * * * * * * * * * * * * * * * * * * * * * * * * //

dimensions      [0 2 -1 0 0 0 0];

internalField   nonuniform List<scalar> 
778
(
0.000894325
0.000953094
0.000949628
0.000990845
0.00102861
0.00106291
0.00109483
0.0011256
0.00115657
0.00118947
0.00122084
0.00125064
0.00127998
0.00131155
0.0013445
0.000632182
0.000905362
0.000912592
0.000890438
0.000853444
0.000804073
0.000754916
0.000709651
0.000668837
0.000632226
0.00059959
0.000570271
0.000543562
0.000518633
0.000494375
0.000469013
0.000447962
0.000405509
0.0013108
0.00258126
0.00226512
0.00261449
0.00286808
0.00313692
0.00340505
0.00365209
0.00385087
0.00396649
0.00403438
0.00400617
0.0038062
0.00331114
0.00241817
0.00147204
0.00140346
0.00134346
0.00113142
0.0019269
0.00267046
0.00310934
0.00312961
0.00246994
0.00211241
0.00186447
0.00167634
0.0015268
0.00139932
0.00128659
0.00118166
0.00107898
0.000986841
0.000907393
0.00102231
0.000514152
0.00166407
0.00360462
0.00267232
0.00382237
0.00427124
0.00465112
0.00499609
0.0052996
0.00555659
0.0057579
0.00595291
0.00615799
0.00634635
0.00645835
0.00638376
0.0058454
0.00427561
0.00164804
0.00142696
0.00305252
0.0042602
0.00483146
0.00439422
0.00115941
0.00100808
0.000891322
0.000799985
0.000727328
0.000668706
0.000620905
0.000582029
0.000551716
0.000606543
0.00071356
0.00113042
0.000585
0.00200531
0.0048588
0.00255738
0.00429813
0.0049627
0.00531846
0.00558007
0.00577356
0.00591785
0.0060346
0.00620058
0.00648098
0.00689016
0.00740486
0.00792264
0.00817829
0.00768121
0.00573503
0.00164121
0.00379672
0.00565185
0.00659588
0.00682943
0.00583101
0.00132017
0.00120077
0.00110834
0.00103142
0.00096589
0.000907058
0.00085161
0.000796552
0.000737085
0.000688589
0.000713875
0.00122429
0.000644192
0.00234207
0.00643371
0.0025805
0.0040862
0.00510796
0.00541147
0.00552189
0.00552642
0.00547168
0.00542301
0.00549234
0.00576465
0.00626447
0.00697248
0.00779394
0.00855119
0.00903149
0.00902562
0.00809965
0.0082408
0.00843092
0.00845879
0.00828766
0.00775775
0.00617415
0.00533327
0.00475721
0.00428951
0.00383044
0.00338559
0.00295034
0.00251578
0.00206958
0.00158967
0.00121293
0.00121234
0.000959291
0.000768474
0.00102061
0.000976698
0.00267373
0.00819713
0.00303846
0.00344602
0.00489446
0.00523122
0.00520473
0.00501771
0.0047501
0.0045293
0.00452426
0.00480969
0.00537926
0.00620015
0.00716092
0.00812149
0.00893834
0.00946066
0.00955595
0.00946061
0.00929382
0.00905679
0.00875149
0.00836248
0.00779439
0.00724689
0.00674971
0.00626932
0.00575026
0.00519584
0.00460375
0.00396914
0.00328808
0.00256553
0.00191109
0.00143488
0.00111461
0.00125359
0.00218723
0.00116699
0.00301232
0.00982866
0.00404977
0.0028234
0.00439809
0.00494855
0.00488781
0.00458487
0.00414525
0.00375866
0.00374775
0.00410856
0.0047608
0.00567881
0.00672257
0.0077561
0.00864562
0.00928293
0.00957643
0.00955444
0.00934562
0.00902876
0.00866548
0.00830273
0.00795167
0.00762937
0.00732646
0.00700319
0.00661238
0.00614195
0.00558521
0.0049397
0.00420793
0.00340816
0.00262565
0.00189698
0.00139723
0.00125031
0.00223013
0.00137782
0.0033037
0.0110654
0.0055227
0.0026889
0.00348409
0.0043873
0.00451344
0.00426441
0.00374492
0.00321911
0.00333879
0.00381638
0.00454639
0.00549259
0.00657729
0.00765908
0.00858142
0.00922215
0.00951337
0.00947585
0.00920582
0.00880705
0.00837772
0.00799669
0.00770285
0.00749288
0.007329
0.00715075
0.00690225
0.00655449
0.0060941
0.00551855
0.00483329
0.00405803
0.00325035
0.00243397
0.00169682
0.00114939
0.00321592
0.00181295
0.00339339
0.0104825
0.00683835
0.00347839
0.0023619
0.0028945
0.0033885
0.00343052
0.00302945
0.00294466
0.00325079
0.00381271
0.00460284
0.00560729
0.00674484
0.0078599
0.00877821
0.00936838
0.0095753
0.00943247
0.00904052
0.00852615
0.00801539
0.00760761
0.00734875
0.0072218
0.00716428
0.00709579
0.00695263
0.00670111
0.00632808
0.0058323
0.00521992
0.00450645
0.00372136
0.00283736
0.00162236
0.00149123
0.00498583
0.00207626
0.00332459
0.00845622
0.00706656
0.00477712
0.00315348
0.00244068
0.0023115
0.00242076
0.00262445
0.00294865
0.00340867
0.00404158
0.00490202
0.00598634
0.00718665
0.00831722
0.00918623
0.00966305
0.00971109
0.00938834
0.00882162
0.00816928
0.00758637
0.00718661
0.0070035
0.00698259
0.00702273
0.00702221
0.00692928
0.00672535
0.00640443
0.00596622
0.00541378
0.00475118
0.00396064
0.00280188
0.00120136
0.00293896
0.00460584
0.00209923
0.00311416
0.0072297
0.00683496
0.00546887
0.00420716
0.00338581
0.0029796
0.00288763
0.00305571
0.00336528
0.00381519
0.0044839
0.00543545
0.00662573
0.00788768
0.00899323
0.00973949
0.0100133
0.00981341
0.00923884
0.00846043
0.00768054
0.00708657
0.00678814
0.00675448
0.00685383
0.00695336
0.00695537
0.00685705
0.0066596
0.00635963
0.00595238
0.00543108
0.00477701
0.0039165
0.00257975
0.00126752
0.00316029
0.00482498
0.00209783
0.00283575
0.00652073
0.00659564
0.0057913
0.00492492
0.00427305
0.00388927
0.0037518
0.00378597
0.00397252
0.00438552
0.00513341
0.00623509
0.00755459
0.00884285
0.00983453
0.0103385
0.0102871
0.00973898
0.00885403
0.00786882
0.00704371
0.00657449
0.00648184
0.00656807
0.00670092
0.00678634
0.00676145
0.0066466
0.00644692
0.00615635
0.00575728
0.00522061
0.00448599
0.00345417
0.00217914
0.0015066
0.00320827
0.00516055
0.00218129
0.00258636
0.00583643
0.00630134
0.00591954
0.00536258
0.00489515
0.00458432
0.00443217
0.0043862
0.00454455
0.00506896
0.00604752
0.00738205
0.00881049
0.0100122
0.0107234
0.0108113
0.0102909
0.00931117
0.008114
0.00702899
0.00633071
0.00602656
0.00600003
0.00610108
0.00622345
0.00629343
0.00626618
0.00614661
0.00594257
0.00564268
0.00521035
0.00456382
0.00360129
0.00243379
0.0016883
0.00185411
0.00360425
0.0051566
0.00228077
0.00259526
0.00579388
0.00643978
0.0059927
0.00554146
0.00517213
0.00490567
0.00473208
0.00472233
0.00510753
0.00603401
0.0074222
0.00898804
0.0103653
0.0112327
0.0114065
0.0108748
0.00976815
0.00836573
0.00700405
0.00601431
0.00543795
0.00518411
0.00514617
0.00522113
0.00531748
0.00536805
0.00533635
0.00520047
0.00497464
0.00463605
0.00411203
0.00329243
0.00228066
0.00164045
0.00170106
0.00238049
0.00399769
0.00544701
0.00223352
0.00234232
0.00243616
0.00359186
0.00421842
0.00441122
0.00441294
0.00436876
0.00444689
0.00498222
0.00613201
0.0077571
0.00951494
0.0110164
0.0119354
0.0120842
0.0114351
0.0101525
0.00848608
0.00689559
0.00565117
0.0048265
0.00437135
0.00418333
0.00414492
0.00416409
0.00417562
0.00413957
0.00404073
0.00385999
0.00360985
0.00328464
0.00283887
0.00225185
0.00173188
0.00163858
0.00206321
0.00289056
0.00396045
0.00466114
0.00209633
0.00080659
0.00146244
0.002256
0.0028954
0.00363583
0.00488925
0.00673751
0.00879815
0.0106828
0.0120948
0.0128269
0.0127437
0.0118538
0.0102638
0.00838103
0.00660677
0.00520929
0.00429017
0.00380342
0.00358387
0.0034873
0.00342935
0.0033633
0.00326412
0.00312616
0.00296119
0.00278945
0.00261353
0.00244037
0.00225578
0.00204889
0.00188527
0.00195322
0.00240774
0.00319825
0.00406668
0.00451727
0.00201015
0.00149746
0.0020734
0.0030251
0.00472781
0.00704385
0.00937359
0.0111884
0.0125104
0.0133208
0.0135534
0.013097
0.0118446
0.00999749
0.00792182
0.00603375
0.00464368
0.00385202
0.00349513
0.00335321
0.00329322
0.00325282
0.00320264
0.00313068
0.00303829
0.00293683
0.00284062
0.00275853
0.00268883
0.00262809
0.00257373
0.00252822
0.00251683
0.0026161
0.00296122
0.00366029
0.00467375
0.00547617
0.00214402
0.00275753
0.00668194
0.00613839
0.00547388
0.00695625
0.00928887
0.0112667
0.012614
0.0133397
0.0135368
0.0132822
0.0125196
0.0111996
0.00936606
0.0072983
0.00547116
0.00427896
0.00371211
0.00350706
0.00345422
0.0034512
0.00345209
0.00343662
0.0033992
0.00334422
0.00328152
0.00322149
0.00317228
0.0031398
0.00312901
0.00314322
0.00318434
0.00325904
0.00338101
0.00360193
0.00399675
0.00469632
0.00606378
0.00623074
0.00228256
0.00263875
0.00509577
0.00656218
0.00838654
0.00931583
0.0102827
0.0108525
0.011
0.0108026
0.0103127
0.00954252
0.00848341
0.00716265
0.00574443
0.00451724
0.00372746
0.00334273
0.00320598
0.00319384
0.00323635
0.00329323
0.00334038
0.00336571
0.00336719
0.00334956
0.00332004
0.00328567
0.0032543
0.00323801
0.0032554
0.00332972
0.00348266
0.00372274
0.00404001
0.00440253
0.0048742
0.00555803
0.00670215
0.00667082
0.00236626
0.00247367
0.00212037
0.00211028
0.00217267
0.00222481
0.00216128
0.00203529
0.00188714
0.00173694
0.00159125
0.0014511
0.00131907
0.00120416
0.00112003
0.00107399
0.00105622
0.00105615
0.00106508
0.00107791
0.00109194
0.00110584
0.00111923
0.00113241
0.00114632
0.00116238
0.0011825
0.00120905
0.00124485
0.0012927
0.00135441
0.00142967
0.00151589
0.0016097
0.00170957
0.00181698
0.00192829
0.00204265
0.00216398
0.00228711
0.00217953
)
;

boundaryField
{
    floor
    {
        type            nutkWallFunction;
        Cmu             0.09;
        kappa           0.41;
        E               9.8;
        value           nonuniform List<scalar> 
36
(
0.000160535
7.6359e-05
0.00010952
0.00011038
0.000107743
0.000103321
9.73857e-05
9.14329e-05
8.59106e-05
8.08951e-05
7.63648e-05
7.22995e-05
6.86244e-05
6.52562e-05
6.20942e-05
5.89991e-05
5.57427e-05
5.30232e-05
4.74884e-05
4.74883e-05
6.15234e-05
7.04729e-05
7.7848e-05
9.30791e-05
0.00012315
0.000117974
0.000160535
0.000174969
0.000167225
0.000160415
7.63589e-05
0.000160415
0.000136064
0.000194665
0.000169882
0.000193905
)
;
    }
    ceiling
    {
        type            nutkWallFunction;
        Cmu             0.09;
        kappa           0.41;
        E               9.8;
        value           nonuniform List<scalar> 
43
(
0.000284317
0.0002464
0.000245311
0.00025206
0.000257691
0.000250858
0.000237223
0.000221065
0.000204541
0.000188363
0.000172646
0.000157682
0.000144513
0.000134771
0.000129401
0.000127316
0.000127301
0.000128345
0.000129846
0.000131487
0.000133112
0.000134674
0.000136207
0.000137818
0.00013967
0.000141978
0.000145012
0.000149088
0.00015452
0.00016151
0.000170014
0.000179725
0.000190245
0.00020138
0.000213289
0.000225563
0.000238087
0.000251279
0.000264558
0.000252876
0.000270491
0.000280519
0.00017762
)
;
    }
    sWall
    {
        type            nutkWallFunction;
        Cmu             0.09;
        kappa           0.41;
        E               9.8;
        value           nonuniform List<scalar> 9(0.000373883 0.000352053 0.000322937 0.000296606 0.000297545 0.00027058 0.000314396 0.00030189 0.000284418);
    }
    nWall
    {
        type            nutkWallFunction;
        Cmu             0.09;
        kappa           0.41;
        E               9.8;
        value           nonuniform List<scalar> 
14
(
0.000117982
0.000140197
0.000164346
0.000244257
0.000244169
0.000253384
0.000263963
0.00025846
0.000243672
0.000234477
0.000249416
0.000263993
0.000272916
0.000252914
)
;
    }
    sideWalls
    {
        type            empty;
    }
    glass1
    {
        type            nutkWallFunction;
        Cmu             0.09;
        kappa           0.41;
        E               9.8;
        value           nonuniform List<scalar> 9(0.00010825 0.000156885 0.00019674 0.000234355 0.0002708 0.000306153 0.000341773 0.000372095 0.000381382);
    }
    glass2
    {
        type            nutkWallFunction;
        Cmu             0.09;
        kappa           0.41;
        E               9.8;
        value           nonuniform List<scalar> 2(0.000213103 0.000241879);
    }
    sun
    {
        type            nutkWallFunction;
        Cmu             0.09;
        kappa           0.41;
        E               9.8;
        value           nonuniform List<scalar> 
14
(
0.000108208
0.000115184
0.000114774
0.00011964
0.000124078
0.000128092
0.000131814
0.000135391
0.000138979
0.000142781
0.000146393
0.000149814
0.000153176
0.000156781
)
;
    }
    Table_master
    {
        type            nutkWallFunction;
        Cmu             0.09;
        kappa           0.41;
        E               9.8;
        value           nonuniform List<scalar> 9(0.000139297 0.00012166 0.000107845 9.68914e-05 8.80733e-05 8.08824e-05 7.4963e-05 7.0108e-05 6.62952e-05);
    }
    Table_slave
    {
        type            nutkWallFunction;
        Cmu             0.09;
        kappa           0.41;
        E               9.8;
        value           nonuniform List<scalar> 9(0.000157752 0.000144072 0.000133376 0.000124399 0.000116691 0.000109719 0.0001031 9.6477e-05 8.92633e-05);
    }
    inlet
    {
        type            calculated;
        value           uniform 0.000167705;
    }
    outlet
    {
        type            calculated;
        value           nonuniform List<scalar> 2(0.00275753 0.00668194);
    }
}


// ************************************************************************* //
