/*--------------------------------*- C++ -*----------------------------------*\
  =========                 |
  \\      /  F ield         | OpenFOAM: The Open Source CFD Toolbox
   \\    /   O peration     | Website:  https://openfoam.org
    \\  /    A nd           | Version:  6
     \\/     M anipulation  |
\*---------------------------------------------------------------------------*/
FoamFile
{
    version     2.0;
    format      ascii;
    class       volScalarField;
    location    "46600.0000005065449";
    object      epsilon;
}
// * * * * * * * * * * * * * * * * * * * * * * * * * * * * * * * * * * * * * //

dimensions      [0 2 -3 0 0 0 0];

internalField   nonuniform List<scalar> 
778
(
0.00025311
0.000306329
0.000302982
0.000344164
0.000385047
0.000424884
0.000464368
0.000504686
0.000547573
0.000595746
0.000644249
0.000692686
0.000742702
0.000799092
0.00086088
8.95071e-05
0.000262557
0.000269031
0.000250008
0.000220196
0.00018418
0.000152407
0.000126567
0.000105933
8.94596e-05
7.63072e-05
6.5654e-05
5.68574e-05
4.93902e-05
4.27799e-05
3.65279e-05
3.18236e-05
2.36031e-05
0.000796971
0.00144315
0.00028699
0.000259608
0.00026172
0.000267706
0.000276618
0.000290067
0.000310348
0.000340588
0.000379849
0.000431023
0.000499474
0.000600754
0.000785986
0.00112977
0.000979146
0.000858697
0.000511638
0.000369338
0.000294127
0.000242847
0.000204059
0.000186936
0.000154754
0.000125049
0.000100725
8.1503e-05
6.65333e-05
5.48255e-05
4.56335e-05
3.87099e-05
3.45192e-05
3.27602e-05
6.57654e-05
4.80768e-05
0.00163057
0.00407884
0.000407376
0.000242948
0.000229135
0.000231057
0.000238284
0.000250567
0.000268492
0.000292787
0.00032494
0.000367033
0.000421439
0.000495162
0.000601561
0.000724854
0.00083012
0.00158427
0.00102797
0.000512258
0.000367659
0.000294263
0.000262094
0.000551257
0.000362496
0.000250692
0.000181321
0.000136293
0.000105923
8.4782e-05
6.98214e-05
5.94623e-05
4.51315e-05
3.79768e-05
0.000108114
7.07511e-05
0.0028534
0.00876972
0.000709806
0.000240738
0.000202504
0.000200049
0.00020323
0.000209867
0.000220697
0.00023763
0.000263337
0.000300097
0.000349314
0.000412434
0.000488089
0.000560261
0.000612553
0.000824799
0.00156543
0.000728752
0.0004597
0.000358258
0.0003019
0.000291818
0.000813997
0.000612507
0.000481728
0.00038837
0.00031903
0.000264255
0.00021871
0.000178974
0.000141809
8.3759e-05
5.48695e-05
0.000148471
9.43861e-05
0.00454576
0.0158258
0.00134613
0.000258341
0.000175749
0.000166816
0.000165832
0.000167816
0.000173987
0.000187501
0.000211756
0.000248442
0.000297848
0.000359358
0.000427784
0.000489129
0.000528583
0.000582622
0.000627871
0.000483345
0.00039358
0.000331082
0.00028232
0.000248632
0.000247835
0.000226773
0.000202938
0.000181084
0.000162714
0.000146555
0.000131879
0.000118271
0.00010509
8.44749e-05
6.41822e-05
0.000105081
0.00013871
0.000159889
0.000366051
0.00032044
0.00676315
0.0248758
0.00255288
0.000318037
0.000155542
0.00013708
0.000132149
0.000130722
0.000134494
0.000148585
0.000176736
0.000218095
0.000270785
0.000334031
0.000401598
0.000462461
0.000502927
0.000521754
0.000504977
0.000438414
0.000373941
0.000315722
0.000264779
0.000223402
0.000193296
0.000169635
0.000150823
0.000135646
0.000123321
0.000112775
0.000103312
9.45308e-05
8.60623e-05
7.58814e-05
6.53455e-05
7.75381e-05
9.9602e-05
0.000210798
0.00107474
0.000548485
0.00967121
0.0336343
0.00458247
0.000464882
0.000150834
0.000116349
0.000107104
0.000103308
0.000107107
0.000127936
0.000166131
0.00021585
0.000273197
0.000339819
0.000409034
0.000470158
0.000509972
0.000520398
0.000494383
0.000437727
0.00037192
0.000307525
0.000250568
0.000204445
0.00016975
0.000144559
0.000126332
0.00011275
0.000102303
9.37408e-05
8.62445e-05
7.93471e-05
7.27726e-05
6.61051e-05
6.0346e-05
6.37267e-05
7.66238e-05
0.00017421
0.00160232
0.000898096
0.0127577
0.0404042
0.00748803
0.000870959
0.000194235
0.00011538
9.74045e-05
9.14919e-05
9.86858e-05
0.000137763
0.000189306
0.000246197
0.000306856
0.000373486
0.00044433
0.000507615
0.000547071
0.000550793
0.000515684
0.000451577
0.000375512
0.00030093
0.000236441
0.000185933
0.000149296
0.000123972
0.000106709
9.45754e-05
8.57576e-05
7.88411e-05
7.29383e-05
6.75601e-05
6.24735e-05
5.76563e-05
5.40155e-05
5.5768e-05
6.97625e-05
0.000349982
0.00568124
0.00201366
0.013827
0.0414619
0.0139286
0.00316105
0.000629301
0.000207915
0.00013271
0.000116066
0.000142568
0.000193055
0.00024937
0.000306373
0.000367105
0.000436169
0.000510455
0.000575119
0.000610459
0.000602918
0.000552045
0.000470873
0.000378356
0.000290752
0.000218112
0.000163922
0.000126723
0.000102581
8.72735e-05
7.7338e-05
7.06768e-05
6.57026e-05
6.15179e-05
5.76802e-05
5.40235e-05
5.06627e-05
4.85157e-05
5.2174e-05
9.28555e-05
0.000996438
0.0143783
0.00292016
0.0130049
0.0283753
0.0144142
0.00572387
0.00210279
0.000834153
0.000413722
0.000277075
0.000279274
0.000314857
0.000356258
0.000401693
0.000458277
0.000530267
0.000609148
0.000673167
0.000698092
0.00067028
0.000593599
0.000486455
0.000372324
0.000270347
0.000190872
0.000135593
0.000100596
7.98386e-05
6.79423e-05
6.11683e-05
5.70997e-05
5.41715e-05
5.16351e-05
4.91877e-05
4.67851e-05
4.47202e-05
4.44845e-05
5.54159e-05
0.000181162
0.00234728
0.0122301
0.00314133
0.0106908
0.0193609
0.0120388
0.00629898
0.00317344
0.00167422
0.000986654
0.000679203
0.000560341
0.000517663
0.000510624
0.000531401
0.000583246
0.000661891
0.000746368
0.000804067
0.000806638
0.000743752
0.000627756
0.00048562
0.000346944
0.000232967
0.000152103
0.000101594
7.3487e-05
5.87668e-05
5.13072e-05
4.78957e-05
4.61016e-05
4.47875e-05
4.34802e-05
4.20374e-05
4.0569e-05
3.97818e-05
4.33085e-05
7.69405e-05
0.000368372
0.00253928
0.0097474
0.00311317
0.00807351
0.0137715
0.00969228
0.00593279
0.00356911
0.00222705
0.00149056
0.00109288
0.000869412
0.000743777
0.000686034
0.000689945
0.000749839
0.000843537
0.000930858
0.000967362
0.000925565
0.000805511
0.000634656
0.000451486
0.000292026
0.000176583
0.00010664
6.92982e-05
5.24073e-05
4.42914e-05
4.04657e-05
3.90593e-05
3.84731e-05
3.80212e-05
3.74129e-05
3.65895e-05
3.58187e-05
3.67191e-05
4.99806e-05
0.00016536
0.000754534
0.00268365
0.00734848
0.00286599
0.00612369
0.0101653
0.00778961
0.00531181
0.00356979
0.00246887
0.00178779
0.0013682
0.00109304
0.00092622
0.000859264
0.000886169
0.000981494
0.0010956
0.0011678
0.00114932
0.00102717
0.000822492
0.000586218
0.000367789
0.000207199
0.000114015
7.19168e-05
5.22268e-05
4.28095e-05
3.80025e-05
3.56218e-05
3.47676e-05
3.44752e-05
3.43086e-05
3.40807e-05
3.38165e-05
3.41226e-05
3.8743e-05
7.21489e-05
0.000269583
0.00099611
0.00272739
0.00561364
0.00256784
0.00617866
0.00780828
0.00680144
0.00473803
0.00336471
0.00246177
0.00186536
0.00146213
0.0011946
0.00106471
0.00107006
0.00117894
0.00132688
0.00143475
0.0014364
0.00130067
0.00105322
0.000743945
0.000456681
0.000237963
0.000130826
8.19052e-05
6.02674e-05
4.94978e-05
4.3247e-05
3.92216e-05
3.67147e-05
3.55421e-05
3.51011e-05
3.50988e-05
3.54557e-05
3.63162e-05
3.85695e-05
4.69745e-05
8.66397e-05
0.000268822
0.000888029
0.00236089
0.00551849
0.00254055
0.00454382
0.00511204
0.00418422
0.00336141
0.0026395
0.00206994
0.0016489
0.00136188
0.00124516
0.00130056
0.00147695
0.00168352
0.00181969
0.00181226
0.00163599
0.00130509
0.000914406
0.000521771
0.000279796
0.000155842
0.000102905
8.02991e-05
6.88751e-05
6.1279e-05
5.51938e-05
5.01439e-05
4.63824e-05
4.44072e-05
4.39959e-05
4.49983e-05
4.75843e-05
5.21343e-05
5.96218e-05
7.41072e-05
0.000113284
0.000245151
0.000680066
0.00198393
0.0044451
0.00314227
0.00140142
0.00143175
0.00143404
0.00135483
0.00131251
0.00142447
0.00170884
0.0020425
0.0023025
0.0023984
0.00228347
0.00197444
0.00153284
0.000985982
0.00057384
0.000315645
0.000190099
0.000138056
0.00011712
0.00010654
9.88542e-05
9.16831e-05
8.45032e-05
7.77087e-05
7.23842e-05
7.00372e-05
7.13291e-05
7.66645e-05
8.69282e-05
0.000103001
0.000125833
0.000158506
0.000213467
0.000332444
0.000651502
0.00204557
0.00358232
0.00329955
0.00118782
0.00171843
0.0019559
0.00231257
0.00276086
0.00316468
0.00334172
0.00330412
0.00307739
0.00268513
0.00211921
0.00150469
0.000974838
0.000576597
0.000346626
0.000238717
0.000196112
0.000179165
0.000170409
0.000163815
0.00015745
0.000150607
0.00014326
0.000136228
0.00013135
0.000131262
0.000137709
0.000152528
0.000178158
0.00021701
0.00027163
0.000346846
0.000456115
0.000637397
0.00100796
0.00229465
0.00372184
0.00346753
0.00741863
0.00805119
0.00480549
0.00340718
0.00374487
0.0041572
0.00416999
0.00395696
0.00359668
0.00313815
0.00262927
0.00208624
0.00153924
0.00105844
0.00070061
0.000479694
0.000371357
0.000325514
0.00030511
0.000293795
0.000286434
0.000281348
0.000277418
0.000273458
0.00026864
0.000263383
0.00026017
0.000263028
0.000274207
0.000297188
0.000335963
0.000395558
0.000482517
0.000606781
0.000786844
0.00106295
0.00153517
0.00246882
0.00403735
0.00300785
0.00650441
0.00512788
0.00437392
0.00462814
0.00455087
0.00428329
0.00370143
0.00305315
0.00246545
0.00197076
0.00156626
0.00124254
0.000991518
0.00081018
0.000691519
0.000616304
0.000563363
0.000525786
0.0004997
0.000483941
0.0004783
0.000482173
0.000494002
0.000511321
0.000531243
0.000551221
0.000569813
0.000587308
0.000609296
0.000641583
0.000689758
0.000760035
0.000860928
0.00100666
0.00122424
0.00156414
0.00211409
0.00312814
0.00483011
0.00280049
0.00536012
0.00336949
0.00331962
0.00361685
0.00387557
0.00353685
0.00293667
0.00232812
0.00181198
0.00140251
0.00108461
0.000841981
0.0006643
0.000544263
0.000472604
0.000438198
0.000428051
0.000429791
0.00044104
0.000461147
0.000489323
0.000524001
0.00056301
0.000604147
0.000645766
0.000687265
0.000729441
0.000774041
0.000822688
0.000879269
0.000947364
0.00102989
0.00112919
0.00124722
0.00138645
0.00155495
0.00179564
0.00218108
0.00275488
0.00250296
)
;

boundaryField
{
    floor
    {
        Cmu             0.09;
        kappa           0.41;
        E               9.8;
        type            epsilonWallFunction;
        value           nonuniform List<scalar> 
36
(
0.00086088
8.95071e-05
0.000262557
0.000269031
0.000250008
0.000220196
0.00018418
0.000152407
0.000126567
0.000105933
8.94596e-05
7.63072e-05
6.5654e-05
5.68574e-05
4.93902e-05
4.27799e-05
3.65279e-05
3.18236e-05
2.36031e-05
2.36031e-05
4.80768e-05
7.07511e-05
9.43861e-05
0.000159889
0.000366051
0.00032044
0.00086088
0.00112977
0.000979146
0.000858697
8.95071e-05
0.000858697
0.000511638
0.00158427
0.00102797
0.00156543
)
;
    }
    ceiling
    {
        Cmu             0.09;
        kappa           0.41;
        E               9.8;
        type            epsilonWallFunction;
        value           nonuniform List<scalar> 
43
(
0.00536012
0.00336949
0.00331962
0.00361685
0.00387557
0.00353685
0.00293667
0.00232812
0.00181198
0.00140251
0.00108461
0.000841981
0.0006643
0.000544263
0.000472604
0.000438198
0.000428051
0.000429791
0.00044104
0.000461147
0.000489323
0.000524001
0.00056301
0.000604147
0.000645766
0.000687265
0.000729441
0.000774041
0.000822688
0.000879269
0.000947364
0.00102989
0.00112919
0.00124722
0.00138645
0.00155495
0.00179564
0.00218108
0.00275488
0.00250296
0.00454382
0.00511204
0.00118782
)
;
    }
    sWall
    {
        Cmu             0.09;
        kappa           0.41;
        E               9.8;
        type            epsilonWallFunction;
        value           nonuniform List<scalar> 9(0.0130049 0.0106908 0.00807351 0.00612369 0.00617866 0.00454382 0.00741863 0.00650441 0.00536012);
    }
    nWall
    {
        Cmu             0.09;
        kappa           0.41;
        E               9.8;
        type            epsilonWallFunction;
        value           nonuniform List<scalar> 
14
(
0.00032044
0.000548485
0.000898096
0.00314133
0.00311317
0.00286599
0.00256784
0.00254055
0.00314227
0.00329955
0.00346753
0.00300785
0.00280049
0.00250296
)
;
    }
    sideWalls
    {
        type            empty;
    }
    glass1
    {
        Cmu             0.09;
        kappa           0.41;
        E               9.8;
        type            epsilonWallFunction;
        value           nonuniform List<scalar> 9(0.00025311 0.000796971 0.00163057 0.0028534 0.00454576 0.00676315 0.00967121 0.0127577 0.013827);
    }
    glass2
    {
        Cmu             0.09;
        kappa           0.41;
        E               9.8;
        type            epsilonWallFunction;
        value           nonuniform List<scalar> 2(0.00201366 0.00292016);
    }
    sun
    {
        Cmu             0.09;
        kappa           0.41;
        E               9.8;
        type            epsilonWallFunction;
        value           nonuniform List<scalar> 
14
(
0.00025311
0.000306329
0.000302982
0.000344164
0.000385047
0.000424884
0.000464368
0.000504686
0.000547573
0.000595746
0.000644249
0.000692686
0.000742702
0.000799092
)
;
    }
    Table_master
    {
        Cmu             0.09;
        kappa           0.41;
        E               9.8;
        type            epsilonWallFunction;
        value           nonuniform List<scalar> 9(0.000551257 0.000362496 0.000250692 0.000181321 0.000136293 0.000105923 8.4782e-05 6.98214e-05 5.94623e-05);
    }
    Table_slave
    {
        Cmu             0.09;
        kappa           0.41;
        E               9.8;
        type            epsilonWallFunction;
        value           nonuniform List<scalar> 9(0.000813997 0.000612507 0.000481728 0.00038837 0.00031903 0.000264255 0.00021871 0.000178974 0.000141809);
    }
    inlet
    {
        type            turbulentMixingLengthDissipationRateInlet;
        mixingLength    0.01;
        phi             phi;
        k               k;
        value           uniform 0.000471671;
    }
    outlet
    {
        type            zeroGradient;
    }
}


// ************************************************************************* //
