/*--------------------------------*- C++ -*----------------------------------*\
  =========                 |
  \\      /  F ield         | OpenFOAM: The Open Source CFD Toolbox
   \\    /   O peration     | Website:  https://openfoam.org
    \\  /    A nd           | Version:  6
     \\/     M anipulation  |
\*---------------------------------------------------------------------------*/
FoamFile
{
    version     2.0;
    format      ascii;
    class       volScalarField;
    location    "46600.0000005065449";
    object      nut;
}
// * * * * * * * * * * * * * * * * * * * * * * * * * * * * * * * * * * * * * //

dimensions      [0 2 -1 0 0 0 0];

internalField   nonuniform List<scalar> 
778
(
0.000894297
0.000953033
0.000949549
0.000990757
0.00102853
0.00106284
0.0010948
0.00112561
0.00115663
0.0011896
0.00122104
0.00125091
0.00128032
0.00131193
0.00134491
0.000632409
0.000905283
0.000912662
0.000890622
0.000853713
0.00080437
0.000755169
0.000709824
0.000668941
0.000632294
0.000599651
0.000570335
0.000543633
0.000518709
0.000494451
0.000469085
0.000448016
0.00040554
0.00131077
0.002581
0.00226496
0.00261423
0.00286762
0.00313628
0.00340431
0.00365139
0.00385036
0.00396628
0.00403443
0.00400641
0.00380651
0.00331137
0.00241832
0.00147245
0.00140387
0.00134377
0.00113075
0.00192634
0.00267012
0.00310957
0.00313024
0.00247049
0.00211281
0.00186503
0.001677
0.00152738
0.00139967
0.0012868
0.00118181
0.0010791
0.000986927
0.000907454
0.00102201
0.00051407
0.00166402
0.00360416
0.00267223
0.00382221
0.00427079
0.00465043
0.0049953
0.00529892
0.00555626
0.00575813
0.00595361
0.00615914
0.00634774
0.00645948
0.00638386
0.005844
0.00427345
0.00164811
0.00142683
0.00305261
0.00425957
0.0048304
0.00439253
0.0011592
0.00100803
0.00089143
0.000800185
0.000727556
0.000668917
0.000621075
0.000582155
0.000551811
0.000606707
0.000713648
0.00112976
0.000584729
0.00200524
0.00485802
0.00255725
0.00429821
0.00496247
0.00531797
0.00557946
0.00577304
0.00591766
0.00603502
0.0062016
0.00648273
0.00689255
0.0074074
0.00792436
0.00817784
0.00767678
0.00572353
0.00164156
0.00380491
0.00565777
0.00659782
0.00682916
0.00582936
0.00132003
0.00120064
0.00110826
0.00103147
0.000966019
0.000907228
0.000851788
0.000796719
0.00073724
0.000688869
0.000714041
0.00122288
0.000643691
0.00234196
0.00643254
0.00258011
0.00408655
0.00510797
0.00541126
0.00552158
0.0055262
0.00547175
0.00542364
0.00549362
0.00576686
0.0062677
0.00697637
0.00779792
0.00855438
0.00903431
0.00902851
0.00810336
0.00824617
0.00843471
0.00846034
0.00828768
0.00775681
0.00617257
0.0053319
0.00475621
0.00428805
0.00382934
0.00338515
0.00295058
0.00251647
0.00207034
0.00159037
0.00121373
0.00121202
0.000958877
0.000767336
0.00101151
0.000967508
0.00267359
0.00819562
0.00303755
0.00344651
0.00489469
0.00523124
0.00520474
0.00501787
0.00475055
0.00453008
0.00452546
0.00481165
0.00538226
0.0062038
0.00716527
0.00812542
0.00894361
0.00946652
0.00956191
0.00946589
0.00929742
0.00905853
0.00875186
0.00836204
0.00779354
0.00724609
0.0067492
0.00626844
0.00574982
0.00519623
0.00460494
0.00397078
0.00328972
0.00256718
0.00191335
0.00143669
0.00111491
0.00125271
0.00217653
0.00115729
0.00301212
0.00982711
0.00404801
0.0028237
0.00439851
0.00494868
0.00488797
0.00458526
0.00414594
0.00375931
0.00374826
0.00410935
0.00476217
0.00567987
0.00672472
0.007759
0.00864971
0.00928817
0.00958214
0.00955943
0.00934904
0.00903046
0.00866587
0.00830236
0.00795093
0.00762859
0.00732591
0.00700254
0.00661237
0.00614289
0.00558698
0.00494187
0.00421018
0.00341106
0.00263062
0.00190239
0.00140054
0.00125372
0.00220662
0.00136413
0.00330346
0.0110642
0.00552025
0.00268857
0.0034849
0.00438753
0.00451339
0.00426443
0.00374558
0.00321902
0.00333854
0.00381589
0.00454541
0.00549085
0.00657522
0.00765777
0.00858196
0.0092248
0.00951726
0.00947952
0.00920818
0.00880781
0.0083773
0.00799561
0.00770141
0.00749126
0.00732748
0.00714931
0.00690167
0.00655508
0.00609569
0.00552068
0.00483592
0.00406269
0.00326029
0.00244811
0.00171728
0.00113626
0.00320474
0.00178578
0.00339329
0.0104839
0.00683653
0.00347651
0.00236279
0.00289646
0.00338891
0.00343012
0.003029
0.00294455
0.00325068
0.00381162
0.00459957
0.00560126
0.00673707
0.00785275
0.00877386
0.00936745
0.0095766
0.00943396
0.00904066
0.00852462
0.00801283
0.00760467
0.00734558
0.00721833
0.0071607
0.00709228
0.00695012
0.00670001
0.00632826
0.00583342
0.00522244
0.00451325
0.00373692
0.00286661
0.00170574
0.00137805
0.00491378
0.00202078
0.00332466
0.00845867
0.00706628
0.00477528
0.00315238
0.00244104
0.00231264
0.00242169
0.00262539
0.00294989
0.00340938
0.00403995
0.00489584
0.00597487
0.00717197
0.0083034
0.00917677
0.00965874
0.0097099
0.00938719
0.0088184
0.00816395
0.00758032
0.00718073
0.00699754
0.00697594
0.00701555
0.00701481
0.00692294
0.00672045
0.00640069
0.0059634
0.00541323
0.00475576
0.00396069
0.00281434
0.00136597
0.00225904
0.00506178
0.00207089
0.00311446
0.00723179
0.00683537
0.00546798
0.00420633
0.00338576
0.00298049
0.0028894
0.00305811
0.00336782
0.00381639
0.00448078
0.00542475
0.00660704
0.00786499
0.00897292
0.00972629
0.0100074
0.00981098
0.00923515
0.00845304
0.00767071
0.0070773
0.00677952
0.00674463
0.00684187
0.00694049
0.00694224
0.00684548
0.0066491
0.00634881
0.00594082
0.00542169
0.00476498
0.00379483
0.00223532
0.00143312
0.00285806
0.00506275
0.00206525
0.00283618
0.00652137
0.00659553
0.00579058
0.00492427
0.00427284
0.00388974
0.00375291
0.00378823
0.00397504
0.00438575
0.00512653
0.00621702
0.00752647
0.00881189
0.00980992
0.0103256
0.0102838
0.00973794
0.00884897
0.00785869
0.00703302
0.00656628
0.00647076
0.0065505
0.00668006
0.00676636
0.00674308
0.006631
0.0064317
0.00613802
0.00573997
0.00521904
0.00447654
0.00308213
0.00155582
0.00184851
0.00321564
0.00469645
0.00200957
0.00258653
0.00583348
0.00629856
0.00591743
0.00536106
0.00489417
0.00458403
0.00443291
0.00438794
0.00454619
0.00506613
0.00603334
0.007353
0.00877151
0.0099754
0.0107007
0.0108066
0.0102969
0.00931594
0.00811272
0.00702727
0.00633063
0.00601994
0.00597468
0.00605879
0.00617985
0.00626217
0.00624354
0.00613363
0.00593209
0.00563052
0.00521519
0.00464538
0.00372417
0.0022111
0.00150246
0.00220626
0.00337736
0.00420239
0.00193701
0.00259424
0.00578961
0.00643516
0.00598945
0.00553912
0.00517059
0.00490503
0.00473275
0.00472414
0.00510783
0.00602511
0.00739618
0.00894524
0.0103177
0.0111984
0.0113982
0.0108914
0.00979358
0.00838592
0.00702619
0.00604002
0.00545104
0.00516149
0.00508043
0.00513009
0.00523671
0.00532515
0.00531717
0.00520139
0.00497452
0.00463295
0.00417921
0.00360823
0.00284727
0.00191626
0.00159747
0.00233864
0.00350375
0.00460362
0.00192818
0.00234163
0.00243544
0.00359193
0.00421892
0.00441216
0.00441444
0.0043709
0.00445017
0.00498622
0.00612972
0.00773758
0.00947364
0.0109625
0.0118907
0.0120706
0.0114609
0.010208
0.00854953
0.00696669
0.00572548
0.00488045
0.00437887
0.00413118
0.00403949
0.00403715
0.00407692
0.0041049
0.00404984
0.003877
0.00358989
0.00321365
0.00280428
0.00242631
0.00210903
0.00185011
0.00181635
0.00244879
0.00378883
0.00477682
0.00207041
0.000807804
0.00146601
0.00226286
0.00290418
0.00364568
0.00490053
0.00674445
0.00878874
0.0106494
0.0120429
0.012777
0.0127254
0.0118877
0.0103471
0.00850627
0.00675439
0.00535502
0.0044009
0.00385789
0.00357371
0.00341707
0.00332098
0.00325539
0.00319936
0.00312447
0.00299413
0.00278887
0.00253512
0.00228903
0.00211064
0.00202804
0.00203444
0.00212319
0.00234683
0.00293068
0.00446661
0.00498009
0.002105
0.00149725
0.00207861
0.00303589
0.00474543
0.00706497
0.00938838
0.0111907
0.0124926
0.013283
0.0135107
0.0130795
0.011892
0.0101291
0.00813009
0.00628703
0.00488591
0.00403546
0.00359491
0.00336257
0.00322245
0.00312889
0.00306351
0.00301356
0.00296362
0.00289361
0.00278669
0.00265136
0.00251971
0.00243172
0.00241629
0.00247815
0.00260763
0.0028079
0.0031266
0.00370239
0.0050909
0.00539886
0.00214066
0.0027573
0.00666494
0.00612435
0.0054821
0.00698091
0.00932265
0.0113029
0.0126412
0.0133476
0.0135258
0.0132628
0.0125241
0.0112728
0.00956708
0.00764579
0.00587622
0.00462099
0.00392528
0.00356482
0.00335576
0.00322175
0.00314027
0.0031038
0.00310361
0.00312476
0.00314657
0.00314766
0.00311838
0.00308168
0.00305962
0.00306807
0.00311609
0.00320301
0.00332168
0.00347019
0.00366741
0.00396892
0.0044692
0.0047063
0.00204192
0.00263904
0.00510035
0.00658845
0.00841242
0.00934854
0.0103222
0.0108947
0.0110386
0.0108313
0.0103305
0.00956217
0.00854231
0.00732716
0.00606615
0.0049823
0.00420777
0.00369377
0.00336265
0.00313694
0.0029834
0.00289491
0.00287145
0.00290976
0.0029986
0.00311721
0.00323716
0.00332846
0.0033768
0.00341291
0.00345751
0.00352196
0.00361074
0.00372375
0.0038602
0.00402495
0.00422829
0.00445904
0.00485498
0.00518856
0.00199394
0.00247422
0.00211951
0.00210901
0.00217017
0.00222074
0.00215409
0.00202467
0.00187394
0.00172385
0.00158287
0.00145297
0.00133537
0.00123384
0.00115439
0.00110119
0.00107377
0.00106539
0.00106688
0.0010762
0.0010924
0.00111424
0.00113991
0.0011674
0.00119499
0.00122162
0.00124706
0.00127192
0.0012972
0.00132376
0.0013534
0.00138745
0.00142656
0.00147091
0.00152036
0.00157496
0.00163684
0.00171882
0.00183527
0.001984
0.00191957
)
;

boundaryField
{
    floor
    {
        type            nutkWallFunction;
        Cmu             0.09;
        kappa           0.41;
        E               9.8;
        value           nonuniform List<scalar> 
36
(
0.000160581
7.6387e-05
0.000109512
0.000110389
0.000107766
0.000103355
9.74224e-05
9.14642e-05
8.59322e-05
8.09083e-05
7.63736e-05
7.23075e-05
6.86329e-05
6.52656e-05
6.21042e-05
5.90092e-05
5.57524e-05
5.30305e-05
4.74926e-05
4.74926e-05
6.15133e-05
7.04395e-05
7.77872e-05
9.29412e-05
0.000122054
0.000116883
0.000160581
0.000175015
0.000167271
0.00016045
7.6387e-05
0.00016045
0.000135987
0.000194673
0.000169867
0.000193943
)
;
    }
    ceiling
    {
        type            nutkWallFunction;
        Cmu             0.09;
        kappa           0.41;
        E               9.8;
        value           nonuniform List<scalar> 
43
(
0.000284374
0.000246306
0.000245172
0.000251789
0.000257249
0.000250075
0.000236056
0.000219596
0.000203055
0.000187374
0.00017279
0.000159466
0.000147866
0.00013872
0.000132559
0.000129366
0.00012839
0.00012856
0.00012964
0.00013152
0.000134058
0.000137042
0.000140234
0.000143434
0.000146518
0.000149456
0.000152319
0.000155222
0.000158259
0.000161638
0.000165507
0.000169943
0.000174958
0.000180532
0.000186651
0.000193519
0.000202499
0.000215237
0.000231501
0.000224634
0.000270418
0.000280442
0.000177598
)
;
    }
    sWall
    {
        type            nutkWallFunction;
        Cmu             0.09;
        kappa           0.41;
        E               9.8;
        value           nonuniform List<scalar> 9(0.00037389 0.000352084 0.000322981 0.000296623 0.000297438 0.000270507 0.000314373 0.000301921 0.000284475);
    }
    nWall
    {
        type            nutkWallFunction;
        Cmu             0.09;
        kappa           0.41;
        E               9.8;
        value           nonuniform List<scalar> 
14
(
0.00011689
0.000139075
0.000162777
0.000241128
0.00024047
0.000234378
0.00022649
0.000225684
0.000241133
0.000244835
0.000248653
0.000237919
0.000232696
0.000224669
)
;
    }
    sideWalls
    {
        type            empty;
    }
    glass1
    {
        type            nutkWallFunction;
        Cmu             0.09;
        kappa           0.41;
        E               9.8;
        value           nonuniform List<scalar> 9(0.000108246 0.000156881 0.000196735 0.000234347 0.00027079 0.000306138 0.000341752 0.000372071 0.000381373);
    }
    glass2
    {
        type            nutkWallFunction;
        Cmu             0.09;
        kappa           0.41;
        E               9.8;
        value           nonuniform List<scalar> 2(0.000210023 0.00023583);
    }
    sun
    {
        type            nutkWallFunction;
        Cmu             0.09;
        kappa           0.41;
        E               9.8;
        value           nonuniform List<scalar> 
14
(
0.000108205
0.000115177
0.000114765
0.000119629
0.000124068
0.000128084
0.00013181
0.000135391
0.000138986
0.000142794
0.000146416
0.000149845
0.000153213
0.000156824
)
;
    }
    Table_master
    {
        type            nutkWallFunction;
        Cmu             0.09;
        kappa           0.41;
        E               9.8;
        value           nonuniform List<scalar> 9(0.000139275 0.000121656 0.000107859 9.69169e-05 8.81021e-05 8.09092e-05 7.49846e-05 7.01244e-05 6.63076e-05);
    }
    Table_slave
    {
        type            nutkWallFunction;
        Cmu             0.09;
        kappa           0.41;
        E               9.8;
        value           nonuniform List<scalar> 9(0.000157737 0.000144058 0.000133369 0.000124406 0.000116707 0.00010974 0.000103122 9.64982e-05 8.92833e-05);
    }
    inlet
    {
        type            calculated;
        value           uniform 0.000167705;
    }
    outlet
    {
        type            calculated;
        value           nonuniform List<scalar> 2(0.0027573 0.00666494);
    }
}


// ************************************************************************* //
