/*--------------------------------*- C++ -*----------------------------------*\
  =========                 |
  \\      /  F ield         | OpenFOAM: The Open Source CFD Toolbox
   \\    /   O peration     | Website:  https://openfoam.org
    \\  /    A nd           | Version:  6
     \\/     M anipulation  |
\*---------------------------------------------------------------------------*/
FoamFile
{
    version     2.0;
    format      ascii;
    class       surfaceScalarField;
    location    "46600.0000005065449";
    object      phi;
}
// * * * * * * * * * * * * * * * * * * * * * * * * * * * * * * * * * * * * * //

dimensions      [1 0 -1 0 0 0 0];

internalField   nonuniform List<scalar> 
1482
(
-0.00279983
0.00286387
-0.00348419
0.000684362
-0.0041451
0.000660912
-0.00475946
0.000614354
-0.00528113
0.000521667
-0.00569332
0.000412197
-0.00598479
0.000291462
-0.00614242
0.000157631
-0.00614886
6.43808e-06
-0.00597811
-0.000170747
-0.00560022
-0.00037789
-0.00498416
-0.00061606
-0.00405975
-0.000924406
-0.00258067
-0.00147908
-0.00257775
-6.53037e-05
7.0157e-05
0.00077755
-0.000842854
0.00142942
-0.000651874
0.00182826
-0.000398833
0.00204944
-0.000221179
0.0021537
-0.000104262
0.00220105
-4.7346e-05
0.00222381
-2.27613e-05
0.00223345
-9.63926e-06
0.00223423
-7.78995e-07
0.00222709
7.13421e-06
0.00220808
1.90134e-05
0.00216389
4.41841e-05
0.00206138
0.00010251
0.00184527
0.000216118
0.00148883
0.000356432
0.00101898
0.000469857
0.00102542
-0.00204044
0.00507463
-0.00290869
0.00155261
-0.00369473
0.00144695
-0.00434602
0.00126565
-0.00488358
0.00105922
-0.00531265
0.000841273
-0.00563143
0.000610238
-0.00583307
0.00035927
-0.00590686
8.0231e-05
-0.00584496
-0.000232653
-0.00564155
-0.000581295
-0.00528536
-0.000972258
-0.00477521
-0.00143456
-0.00428916
-0.00196513
-0.00470514
-0.00216178
-0.00311817
-0.00158153
-0.00163409
-0.00147839
-0.00161924
0.00131715
-0.00123678
0.00166026
-0.00118596
0.00191068
-0.000902292
0.00210066
-0.000588818
0.00220696
-0.000327473
0.00221566
-0.000112967
0.00221775
-4.94333e-05
0.00221945
-2.44686e-05
0.00222045
-1.06378e-05
0.00222044
-7.68684e-07
0.00221904
8.54148e-06
0.0022148
2.325e-05
0.00220215
5.68294e-05
0.00214027
0.000164389
0.00189092
0.000465473
0.00146234
0.000785012
0.000900514
0.00103168
0.00194281
-0.00148833
0.00682088
-0.00235935
0.00242363
-0.00312951
0.00221711
-0.00371396
0.0018501
-0.00418488
0.00153014
-0.00455659
0.00121298
-0.00483087
0.000884519
-0.00500446
0.000532854
-0.00507092
0.000146689
-0.00502117
-0.000282405
-0.00484447
-0.000757987
-0.00453345
-0.00128328
-0.00411897
-0.00184904
-0.00372177
-0.00236233
-0.00330169
-0.00258186
-0.00237042
-0.0025128
-0.00127618
-0.00257263
-0.00288259
0.00114874
-0.00237106
0.00165146
-0.00168869
0.00194898
-0.00119981
0.00214057
-0.000780409
0.00216834
-0.00035524
0.00205552
0.00200625
0.00198193
0.00197145
0.00197083
0.00197953
0.00200293
0.00205992
0.00222446
0.00186588
0.000824052
0.00141856
0.00123233
0.000800816
0.00164943
0.00276967
-0.00110614
0.00825823
-0.00192817
0.00324566
-0.00257038
0.00285932
-0.00303091
0.00231063
-0.00339866
0.00189789
-0.00368766
0.00150198
-0.0039009
0.00109776
-0.00403652
0.000668473
-0.00408698
0.000197148
-0.00403907
-0.000330309
-0.00388054
-0.000916517
-0.00360735
-0.00155647
-0.00324218
-0.0022142
-0.00282093
-0.00278358
-0.00228225
-0.00312053
-0.00156328
-0.00323177
-0.000875724
-0.00326019
-0.00069753
-0.00306078
0.00143871
-0.00212079
0.00137257
-0.00230492
0.00168872
-0.00200484
0.00200143
-0.00151252
0.00226779
-0.00104678
0.00254483
-0.000632279
0.00285722
-0.000312542
0.00302352
-0.000166457
0.00308773
-6.43588e-05
0.0030703
1.72708e-05
0.00298001
9.01428e-05
0.00281783
0.000162026
0.00257595
0.000241728
0.00223145
0.000344343
0.00172717
0.000504128
0.00159103
0.000960194
0.00126387
0.00155949
0.000738612
0.00217468
0.00354259
-0.000803837
0.00945526
-0.0015801
0.00402193
-0.00204894
0.00332816
-0.00236482
0.00262652
-0.00260937
0.00214244
-0.00279508
0.00168769
-0.00292696
0.00122963
-0.00300571
0.000747225
-0.00302477
0.000216211
-0.00296752
-0.000387565
-0.00282072
-0.00106331
-0.00257755
-0.00179964
-0.00224468
-0.00254707
-0.00182927
-0.00319899
-0.00132492
-0.00362487
-0.000749254
-0.00380744
-0.000218716
-0.00379073
0.000258417
-0.00353791
0.00111976
-0.00298213
0.00148618
-0.00267134
0.00174562
-0.00226428
0.00199835
-0.00176525
0.00222838
-0.00127681
0.00244267
-0.000846575
0.0026432
-0.000513065
0.00275268
-0.000275941
0.00278849
-0.000100167
0.00276235
4.34083e-05
0.00268071
0.000171783
0.00254609
0.00029665
0.0023573
0.000430514
0.00211195
0.000589691
0.00181801
0.000798069
0.00161235
0.00116586
0.00147052
0.00170133
0.00129016
0.00235505
0.00227226
0.00256049
0.00131584
0.00099136
0.00188974
-0.000545176
0.0020088
-0.00057589
0.0104776
-0.0013249
0.00477094
-0.00158472
0.00358798
-0.00175083
0.00279263
-0.00186502
0.00225662
-0.00193671
0.00175938
-0.00197236
0.00126528
-0.00197625
0.000751116
-0.00194521
0.000185164
-0.00185747
-0.000475303
-0.00170331
-0.00121747
-0.00147291
-0.00203004
-0.00116924
-0.00285074
-0.000798159
-0.00357007
-0.000379421
-0.0040436
6.01708e-05
-0.00424703
0.000465045
-0.0041956
0.000839364
-0.00391222
0.00129065
-0.00343342
0.00158989
-0.00297058
0.00179365
-0.00246804
0.00196541
-0.00193701
0.00211722
-0.00142861
0.00225168
-0.000981029
0.0023562
-0.000617585
0.00241393
-0.000333674
0.00242467
-0.000110907
0.00239368
7.43977e-05
0.0023258
0.000239658
0.00222489
0.000397561
0.00209501
0.000560399
0.00194315
0.00074155
0.00178361
0.000957612
0.00169218
0.00125728
0.00174726
0.00164625
0.00195417
0.00214814
0.00219036
0.0023243
0.00170126
0.00148046
0.000786699
0.000369383
0.00289319
-0.000543383
0.0115132
-0.00124368
0.00547123
-0.00119224
0.00353654
-0.00120086
0.00280125
-0.00119347
0.00224923
-0.00116027
0.00172618
-0.0011034
0.00120842
-0.00102857
0.000676284
-0.000930388
8.69798e-05
-0.000781651
-0.000624041
-0.000592764
-0.00140636
-0.000353331
-0.00226947
-7.04841e-05
-0.00313359
0.000233403
-0.00387396
0.000542614
-0.00435281
0.000837238
-0.00454165
0.00109991
-0.00445827
0.0013333
-0.00414561
0.00156541
-0.00366552
0.00172551
-0.00313068
0.00182585
-0.00256837
0.00189619
-0.00200736
0.00195215
-0.00148457
0.00199882
-0.0010277
0.00203087
-0.000649638
0.00204263
-0.000345435
0.00203076
-9.90401e-05
0.00199607
0.000109086
0.0019417
0.000294029
0.00187148
0.000467785
0.00179063
0.000641249
0.00170765
0.000824532
0.00163738
0.00102788
0.00162252
0.00127214
0.00170662
0.00156215
0.00190958
0.00194519
0.00215037
0.00208351
0.00215728
0.00147355
0.00163064
0.000896033
0.0046269
-0.000483526
0.0125322
-0.0010516
0.00603931
-0.000697729
0.00318266
-0.00063721
0.00274073
-0.00056914
0.00218116
-0.000464786
0.00162183
-0.000336109
0.00107974
-0.000185281
0.000525456
3.71637e-06
-0.000102017
0.000221651
-0.000841975
0.000460972
-0.00164568
0.000718065
-0.00252657
0.000974267
-0.0033898
0.0012023
-0.00410199
0.00140111
-0.00455163
0.00156204
-0.00470258
0.00167983
-0.00457606
0.00175929
-0.00422507
0.00181284
-0.00371906
0.0018235
-0.00314134
0.00179937
-0.00254424
0.00175929
-0.00196727
0.00171802
-0.0014433
0.00168293
-0.000992607
0.00165394
-0.000620654
0.00162717
-0.000318661
0.00159786
-6.97287e-05
0.00156389
0.000143055
0.00152562
0.000332297
0.00148451
0.000508894
0.00144385
0.000681912
0.00140997
0.000858407
0.00139384
0.00104401
0.00141844
0.00124753
0.00150996
0.00147062
0.00171266
0.0017425
0.00197466
0.0018215
0.00207167
0.00137654
0.00164329
0.00132443
0.00663707
0.00297609
0.0101433
0.00202061
0.00699479
0.000867864
0.00433541
0.000369566
0.00323903
0.000212583
0.00233815
0.00026875
0.00156566
0.000422343
0.000926149
0.000635898
0.0003119
0.000894863
-0.000360982
0.00115925
-0.00110636
0.00143726
-0.00192369
0.00170373
-0.00279304
0.0019293
-0.00361537
0.0020898
-0.00426249
0.00217937
-0.00464121
0.00220076
-0.00472397
0.00216285
-0.00453816
0.00207936
-0.00414158
0.00196551
-0.00360521
0.00182685
-0.00300268
0.00167541
-0.0023928
0.00152792
-0.00181978
0.00139885
-0.00131423
0.00129623
-0.000889989
0.0012212
-0.000545624
0.00116898
-0.000266438
0.00113242
-3.31741e-05
0.00110644
0.00016904
0.00108774
0.000350992
0.00107432
0.000522317
0.00106644
0.000689795
0.0010672
0.000857649
0.00108305
0.00102816
0.00112677
0.0012038
0.00121411
0.00138328
0.00137717
0.00157944
0.00157685
0.00162183
0.00164134
0.00131204
0.000291259
0.00267456
0.007314
0.00403049
0.00625302
0.00366627
0.00735901
0.00254086
0.00546082
0.00188772
0.00389217
0.00153113
0.00269473
0.00138618
0.00171061
0.00141977
0.00089256
0.00159382
0.000137851
0.00184539
-0.000612555
0.00212196
-0.00138292
0.00240106
-0.0022028
0.00264541
-0.0030374
0.00281341
-0.00378338
0.00287815
-0.00432724
0.00283643
-0.00459949
0.00270212
-0.00458967
0.00249761
-0.00433365
0.00224726
-0.00389123
0.00197384
-0.00333179
0.00169449
-0.00272333
0.00142631
-0.00212461
0.00118699
-0.00158046
0.000991054
-0.00111829
0.000844412
-0.000743347
0.000745797
-0.000447009
0.000686441
-0.000207082
0.000655595
-2.32801e-06
0.000644728
0.000179906
0.000647187
0.000348533
0.000658307
0.000511196
0.000675868
0.000672234
0.000699603
0.000833913
0.00073081
0.000996953
0.000772692
0.00116192
0.000824374
0.0013316
0.000856529
0.00154728
0.000577645
0.00190068
-0.00065745
0.00254698
-0.0019279
0.00394503
0.00549035
0.00240926
0.00400827
0.00330399
0.00646428
0.00324791
0.0055169
0.00303708
0.004103
0.00284592
0.00288589
0.00272247
0.00183406
0.00270834
0.000906687
0.00279693
4.9258e-05
0.00295835
-0.000773978
0.00316838
-0.00159295
0.00338516
-0.00241957
0.00354868
-0.00320092
0.00360431
-0.00383901
0.00352549
-0.00424844
0.00331772
-0.00439174
0.00300721
-0.00427917
0.00262848
-0.00395493
0.00221506
-0.00347781
0.00179662
-0.00291335
0.00139692
-0.00232363
0.00103744
-0.00176513
0.000737484
-0.0012805
0.000510552
-0.00089136
0.000354401
-0.000587196
0.000260163
-0.000352772
0.000211578
-0.000158497
0.000195417
1.38322e-05
0.000201579
0.000173744
0.000222217
0.000327895
0.000252437
0.000480976
0.00028866
0.000636011
0.000327559
0.000795014
0.000365462
0.000959049
0.000398753
0.00112863
0.000420286
0.00131007
0.000363027
0.00160453
3.30049e-05
0.00223048
-0.000398134
0.00297773
-0.000585194
0.00413185
0.00502089
0.00145689
0.00274563
0.00274835
0.00517282
0.00343256
0.00483268
0.00371856
0.003817
0.00381684
0.0027876
0.00384467
0.00180623
0.00388043
0.000870923
0.00394924
-1.95545e-05
0.00405891
-0.000883651
0.00419846
-0.0017325
0.0043164
-0.00253752
0.00434214
-0.00322667
0.00422429
-0.00372117
0.00395075
-0.00397491
0.00354407
-0.00398507
0.00304419
-0.00377931
0.00249528
-0.00340604
0.00193632
-0.00291885
0.00140165
-0.00237868
0.000918529
-0.00184051
0.000513685
-0.00136029
0.000204903
-0.000971721
-3.60454e-06
-0.000682852
-0.000129085
-0.000461715
-0.000196281
-0.000285575
-0.000225707
-0.000129071
-0.000228586
1.67113e-05
-0.000211738
0.000156896
-0.000179892
0.000296049
-0.000136863
0.000437946
-8.70696e-05
0.000586218
-3.67724e-05
0.000744716
4.47413e-06
0.000917802
2.20164e-05
0.00111109
-1.36741e-05
0.00134577
-0.000192189
0.00178304
-0.000594301
0.00263239
-0.00095795
0.00334099
-0.000918564
0.00409211
0.00423138
0.00217194
0.000799643
0.00294421
0.00440055
0.00359487
0.00418203
0.00416502
0.00324684
0.00449257
0.00246004
0.0046666
0.0016322
0.00478314
0.000754381
0.00488761
-0.000124026
0.00499366
-0.000989692
0.00507112
-0.00180995
0.00505431
-0.00252069
0.00488318
-0.00305554
0.00453536
-0.00337336
0.00402982
-0.00346937
0.00341167
-0.00336693
0.00273206
-0.00309971
0.00204016
-0.00271415
0.00137458
-0.00225327
0.000774879
-0.00177897
0.000268564
-0.00133419
-0.000108245
-0.000983479
-0.000353238
-0.000726726
-0.000496155
-0.000539932
-0.000574239
-0.00038363
-0.000615789
-0.000244025
-0.000632219
-0.000112642
-0.000628419
1.29105e-05
-0.000606635
0.00013511
-0.000568417
0.000257831
-0.000516297
0.000385825
-0.000455117
0.000525037
-0.000393519
0.000683117
-0.000346656
0.000870939
-0.00034307
0.00110751
-0.00043791
0.00144065
-0.00070055
0.00204585
-0.00123136
0.00316339
-0.00219073
0.00430037
-0.00238623
0.00428751
0.00198882
-0.00157552
0.00262033
0.00112042
0.00170461
0.00335222
0.00195023
0.00435489
0.00224417
0.00485881
0.00195612
0.00517328
0.00131773
0.0054012
0.000526463
0.005579
-0.000301817
0.00567804
-0.00108871
0.00563595
-0.00176784
0.00540172
-0.00228644
0.00496359
-0.00261741
0.00434939
-0.00275916
0.00361209
-0.00273208
0.00281227
-0.00256712
0.00200064
-0.00228808
0.00122689
-0.0019404
0.000523151
-0.00154953
-5.98932e-05
-0.00119593
-0.000480738
-0.000913344
-0.000739957
-0.000724255
-0.000887066
-0.00057961
-0.000970921
-0.000456071
-0.00101746
-0.000337086
-0.00104197
-0.000219516
-0.00104991
-0.00010471
-0.0010421
5.0977e-06
-0.00101731
0.000110321
-0.000974292
0.000214811
-0.000913727
0.000325259
-0.000839365
0.000450674
-0.000759314
0.000603064
-0.000687871
0.000799492
-0.000648449
0.00106809
-0.000674556
0.00146681
-0.000757476
0.00212904
-0.000822006
0.0032284
-0.00116964
0.00464843
-0.00134919
0.00446749
0.000796598
0.00288209
0.00457151
0.00487231
0.00164943
0.00535915
0.00175732
0.00559568
0.0017196
0.00582686
0.00108655
0.00601403
0.000339312
0.00608041
-0.000368163
0.00595432
-0.000962571
0.00560201
-0.00141548
0.00503576
-0.00172016
0.00430223
-0.00188388
0.00345947
-0.00191639
0.00256646
-0.00183907
0.00167928
-0.00167995
0.000832313
-0.00144112
7.0908e-05
-0.001179
-0.00054209
-0.000936538
-0.000965269
-0.00077275
-0.00122067
-0.000657931
-0.00136965
-0.000575259
-0.00145328
-0.000495959
-0.00150112
-0.000408216
-0.00152792
-0.000310283
-0.00154083
-0.000206619
-0.00154212
-0.000103432
-0.00153102
-6.01242e-06
-0.00150471
8.39972e-05
-0.00145981
0.000169915
-0.00139451
0.000259958
-0.0013096
0.00036576
-0.00120868
0.000502145
-0.00109741
0.000688196
-0.000979698
0.000950322
-0.000844325
0.0013314
-0.000624868
0.0019097
-0.00017644
0.00278036
0.00046107
0.00401131
0.000969616
0.00395941
0.00192813
0.00793074
0.00536693
0.00581075
0.0038773
0.00556316
0.00196719
0.00563545
0.00101429
0.0056012
0.000373621
0.00535922
-0.000126126
0.00489715
-0.000500456
0.00425463
-0.000772935
0.00348479
-0.000950315
0.00264051
-0.00103959
0.00176281
-0.0010387
0.000889601
-0.00096587
5.82533e-05
-0.000848605
-0.000667002
-0.00071587
-0.0012246
-0.000621409
-0.00160347
-0.000557659
-0.00184513
-0.000531071
-0.0019882
-0.000514829
-0.00207438
-0.000489037
-0.00212785
-0.000442449
-0.00216147
-0.000374571
-0.00218147
-0.000290296
-0.00219104
-0.000197071
-0.0021916
-0.000102917
-0.00218291
-1.47462e-05
-0.00216265
6.37148e-05
-0.002127
0.000134253
-0.00207178
0.000204748
-0.00199243
0.000286428
-0.00188264
0.000392359
-0.00173285
0.000538351
-0.00152739
0.000744734
-0.00123303
0.00103685
-0.000768269
0.00144476
-6.82063e-06
0.00201891
0.00104925
0.00295546
0.0015597
0.00344924
0.0036589
0.0040891
0.00152439
0.00449105
0.00347535
0.00372457
0.00273369
0.00322808
0.00151082
0.00288892
0.000712837
0.00252648
0.000236366
0.00208071
-5.46653e-05
0.00153927
-0.000231496
0.0009206
-0.000331661
0.000241898
-0.000360908
-0.000457895
-0.00033892
-0.00111737
-0.000306412
-0.00168105
-0.000284943
-0.00211285
-0.000284091
-0.00241765
-0.000316598
-0.00261197
-0.000363313
-0.00273572
-0.000407262
-0.00281947
-0.000431
-0.00288181
-0.000426625
-0.0029307
-0.000393502
-0.00296915
-0.000336108
-0.00299793
-0.000261555
-0.00301703
-0.000178046
-0.00302648
-9.35734e-05
-0.00302703
-1.42903e-05
-0.00301948
5.61047e-05
-0.00300064
0.000115406
-0.00296501
0.000169165
-0.00290361
0.000225121
-0.00280236
0.000291177
-0.00264102
0.000377014
-0.00239225
0.000495845
-0.00201687
0.000661194
-0.00144967
0.00087719
-0.000562131
0.00113098
0.000853117
0.00154004
0.00156145
0.00274082
0.00539909
-0.00263568
-0.00681039
-0.00743072
-0.00747914
-0.00375643
-0.00214986
-0.00168316
0.00140211
-0.000768848
0.00181942
-0.000566073
0.00130809
-0.000641034
0.000787827
-0.000822456
0.000417801
-0.0010606
0.000183483
-0.00135018
5.80767e-05
-0.00169519
1.33222e-05
-0.00207278
1.66529e-05
-0.00244835
3.66167e-05
-0.00279566
4.08599e-05
-0.00308934
8.71304e-06
-0.00330348
-6.9941e-05
-0.00343855
-0.000181478
-0.00352331
-0.000278477
-0.00358725
-0.000343208
-0.00364595
-0.000372187
-0.00370461
-0.000367865
-0.00376318
-0.000334886
-0.00381997
-0.000279343
-0.00387306
-0.00020857
-0.00392019
-0.00013107
-0.00395794
-5.60098e-05
-0.0039794
6.99457e-06
-0.00397903
5.56223e-05
-0.00395986
9.62192e-05
-0.00392348
0.000132852
-0.00386737
0.000169161
-0.00378416
0.000208166
-0.00366109
0.000254121
-0.00347833
0.000313179
-0.00319979
0.000382606
-0.00275796
0.000435139
-0.00213837
0.000510993
-0.00163766
0.00103885
-0.00110729
0.00220999
0.00448657
-0.00738189
0.00102519
-0.0081475
-0.00671347
-0.00719306
-0.00310424
-0.0056686
-0.000122291
-0.00457576
0.000726621
-0.00398457
0.00071693
-0.0037256
0.000528858
-0.00365854
0.000350721
-0.0036996
0.000224509
-0.00379288
0.000151298
-0.00389724
0.000117609
-0.00398551
0.000104859
-0.00404404
9.50882e-05
-0.00407661
7.33876e-05
-0.00409913
3.12373e-05
-0.00412803
-4.09957e-05
-0.00417432
-0.000135093
-0.00424046
-0.000212198
-0.00432564
-0.000257888
-0.00442461
-0.000273081
-0.0045291
-0.000263307
-0.00462951
-0.000234477
-0.00471707
-0.000191879
-0.00478546
-0.000140351
-0.00483155
-8.52195e-05
-0.00485481
-3.30027e-05
-0.00485657
8.52798e-06
-0.00483121
3.00972e-05
-0.00478041
4.53482e-05
-0.00470699
5.94727e-05
-0.0046107
7.29967e-05
-0.00448654
8.42071e-05
-0.00432301
9.08421e-05
-0.00410123
9.16479e-05
-0.00379611
7.76937e-05
-0.00335859
-2.23099e-06
-0.00258864
-0.000258838
-0.00105821
-0.000491565
-9.08401e-05
0.00124241
0.00460328
0.00156704
-0.00508173
-0.0081229
-0.00818597
-0.00740526
-0.00664208
-0.00607365
-0.00568811
-0.00543176
-0.00525022
-0.00510294
-0.00496819
-0.00484249
-0.00473758
-0.00467409
-0.00468249
-0.00478507
-0.00496514
-0.00519152
-0.00543385
-0.00566714
-0.00587224
-0.0060352
-0.00614691
-0.00620361
-0.00620812
-0.00617112
-0.00611261
-0.00603907
-0.0059518
-0.00585162
-0.00574104
-0.00562482
-0.00550895
-0.00540831
-0.00538901
-0.0056279
-0.00610118
-0.00484207
)
;

boundaryField
{
    floor
    {
        type            calculated;
        value           nonuniform List<scalar> 
36
(
0
0
0
0
0
0
0
0
0
0
0
0
0
0
0
0
0
0
0
-6.43888e-06
-1.68849e-05
-2.60348e-05
-3.43131e-05
-3.49358e-05
-2.87245e-05
-2.86844e-05
-2.91994e-06
-5.44141e-06
-5.68765e-06
-5.90791e-06
-4.85363e-06
-8.93865e-06
-1.02126e-05
-1.28337e-05
-1.44574e-05
-1.5445e-05
)
;
    }
    ceiling
    {
        type            calculated;
        value           nonuniform List<scalar> 
43
(
-5.7897e-05
-6.46368e-05
-6.29926e-05
-5.91663e-05
-5.40368e-05
-4.62367e-05
-3.9581e-05
-3.48718e-05
-3.19143e-05
-3.03295e-05
-2.97723e-05
-2.99738e-05
-3.06687e-05
-3.15333e-05
-3.223e-05
-3.25286e-05
-3.24059e-05
-3.19925e-05
-3.13772e-05
-3.06719e-05
-2.99956e-05
-2.94425e-05
-2.90585e-05
-2.8839e-05
-2.87428e-05
-2.87078e-05
-2.86618e-05
-2.85303e-05
-2.8248e-05
-2.77721e-05
-2.70877e-05
-2.62022e-05
-2.51378e-05
-2.39243e-05
-2.25909e-05
-2.11619e-05
-1.96384e-05
-1.80737e-05
-1.66435e-05
-1.60918e-05
1.934e-05
1.51875e-05
-0.000246556
)
;
    }
    sWall
    {
        type            calculated;
        value           nonuniform List<scalar> 9(-0.000140236 -0.000164519 -0.000194245 -0.000225961 -0.000245166 -0.000281098 -0.000423738 -0.000453638 -0.00048393);
    }
    nWall
    {
        type            calculated;
        value           nonuniform List<scalar> 
14
(
-9.03749e-05
-9.76863e-05
-0.000103066
-0.000104176
-0.000115705
-0.00012908
-0.000143703
-0.000156536
-0.000161561
-0.000170917
-0.000178846
-0.000194988
-0.000207908
-0.000222942
)
;
    }
    sideWalls
    {
        type            empty;
        value           nonuniform 0();
    }
    glass1
    {
        type            calculated;
        value           nonuniform List<scalar> 9(-6.40348e-05 -0.000170322 -0.000257925 -0.00033121 -0.000393196 -0.000446403 -0.000492217 -0.000535499 -0.000587177);
    }
    glass2
    {
        type            calculated;
        value           nonuniform List<scalar> 2(-0.000366874 -0.000385582);
    }
    sun
    {
        type            calculated;
        value           uniform 0;
    }
    Table_master
    {
        type            calculated;
        value           nonuniform List<scalar> 9(-1.53995e-07 -1.54111e-07 -1.54144e-07 -1.54164e-07 -1.54177e-07 -1.54182e-07 -1.5418e-07 -1.54166e-07 -1.54113e-07);
    }
    Table_slave
    {
        type            calculated;
        value           nonuniform List<scalar> 9(1.53663e-07 1.5372e-07 1.53719e-07 1.53736e-07 1.53757e-07 1.53801e-07 1.53868e-07 1.53962e-07 1.54089e-07);
    }
    inlet
    {
        type            calculated;
        value           uniform -0.0116483;
    }
    outlet
    {
        type            calculated;
        value           nonuniform List<scalar> 2(0.00986986 0.0122742);
    }
}


// ************************************************************************* //
