/*--------------------------------*- C++ -*----------------------------------*\
  =========                 |
  \\      /  F ield         | OpenFOAM: The Open Source CFD Toolbox
   \\    /   O peration     | Website:  https://openfoam.org
    \\  /    A nd           | Version:  6
     \\/     M anipulation  |
\*---------------------------------------------------------------------------*/
FoamFile
{
    version     2.0;
    format      ascii;
    class       volScalarField;
    location    "280";
    object      T;
}
// * * * * * * * * * * * * * * * * * * * * * * * * * * * * * * * * * * * * * //

dimensions      [0 0 0 1 0 0 0];

internalField   nonuniform List<scalar> 
458
(
302.798
302.526
302.512
302.508
302.504
302.5
302.496
302.491
302.482
302.473
302.465
302.463
302.469
302.492
302.525
302.725
302.699
302.689
302.697
302.707
302.715
302.723
302.731
302.739
302.747
302.755
302.763
302.771
302.779
302.788
302.798
302.81
302.838
302.979
302.561
302.536
302.537
302.538
302.537
302.534
302.526
302.507
302.481
302.458
302.448
302.455
302.475
302.495
302.505
302.516
302.538
302.731
302.67
302.665
302.676
302.691
302.698
302.704
302.709
302.714
302.72
302.725
302.73
302.736
302.743
302.752
302.764
302.781
302.824
303.17
302.608
302.569
302.578
302.591
302.601
302.603
302.593
302.56
302.508
302.459
302.437
302.445
302.47
302.491
302.502
302.512
302.53
302.678
302.65
302.653
302.675
302.7
302.703
302.706
302.71
302.715
302.719
302.724
302.729
302.734
302.74
302.75
302.76
302.776
302.821
303.367
302.668
302.603
302.623
302.653
302.682
302.699
302.689
302.632
302.543
302.461
302.425
302.436
302.469
302.498
302.515
302.522
302.53
302.541
302.564
302.601
302.646
302.693
302.734
302.768
302.793
302.813
302.832
302.847
302.859
302.871
302.88
302.887
302.854
302.82
302.801
302.826
303.561
302.744
302.64
302.658
302.703
302.756
302.8
302.791
302.704
302.573
302.458
302.412
302.426
302.472
302.516
302.543
302.552
302.559
302.578
302.61
302.655
302.707
302.759
302.807
302.848
302.879
302.904
302.924
302.938
302.947
302.95
302.948
302.94
302.913
302.872
302.835
302.833
302.939
303.029
303.029
303.738
302.845
302.7
302.693
302.735
302.798
302.882
302.863
302.739
302.577
302.448
302.395
302.418
302.483
302.549
302.592
302.612
302.627
302.654
302.695
302.745
302.799
302.851
302.897
302.934
302.964
302.986
303.002
303.013
303.016
303.012
303.002
302.986
302.959
302.919
302.875
302.855
302.9
302.935
302.979
303.897
303.009
302.849
302.807
302.822
302.874
302.944
302.89
302.726
302.536
302.401
302.364
302.414
302.511
302.606
302.671
302.706
302.731
302.765
302.808
302.857
302.906
302.952
302.99
303.02
303.042
303.058
303.068
303.073
303.071
303.061
303.046
303.025
302.998
302.962
302.922
302.896
302.903
302.919
302.951
304.127
303.464
303.279
303.155
303.098
303.111
303.056
302.871
302.621
302.408
302.302
302.32
302.43
302.575
302.702
302.783
302.828
302.854
302.888
302.93
302.972
303.011
303.045
303.072
303.091
303.104
303.111
303.114
303.112
303.106
303.095
303.08
303.06
303.035
303.008
302.979
302.962
302.967
302.986
303.125
304.457
304.146
303.905
303.677
303.495
303.336
303.003
302.596
302.279
302.134
302.155
302.303
302.512
302.712
302.852
302.916
302.949
302.975
303.006
303.04
303.07
303.097
303.118
303.133
303.141
303.145
303.144
303.141
303.135
303.128
303.12
303.115
303.112
303.113
303.122
303.141
303.173
303.207
303.233
303.296
297.47
299.015
299.944
300.298
300.57
300.911
301.314
301.726
302.109
302.47
302.776
302.925
302.998
303.032
303.057
303.08
303.104
303.127
303.146
303.16
303.168
303.173
303.173
303.172
303.169
303.165
303.161
303.158
303.156
303.154
303.155
303.16
303.171
303.189
303.215
303.244
303.274
303.306
297.851
299.146
299.997
300.53
301.033
301.514
302.023
302.417
302.704
302.9
303.016
303.072
303.105
303.126
303.144
303.16
303.175
303.187
303.195
303.2
303.2
303.199
303.197
303.194
303.192
303.189
303.186
303.183
303.181
303.18
303.18
303.183
303.191
303.203
303.22
303.243
303.25
303.287
299.54
299.5
299.497
300.605
301.35
301.961
302.427
302.711
302.887
303.006
303.08
303.13
303.162
303.181
303.194
303.204
303.212
303.219
303.223
303.226
303.226
303.225
303.223
303.221
303.218
303.215
303.212
303.209
303.206
303.203
303.201
303.199
303.198
303.198
303.2
303.208
303.218
303.228
303.234
303.278
)
;

boundaryField
{
    floor
    {
        type            wallHeatTransfer;
        Tinf            uniform 305.2;
        alphaWall       uniform 0.24;
        value           nonuniform List<scalar> 
36
(
302.817
303.171
303.102
303.057
303.05
303.061
303.086
303.115
303.143
303.171
303.197
303.222
303.247
303.27
303.293
303.317
303.343
303.366
303.42
303.42
303.334
303.286
303.252
303.273
303.335
303.316
302.817
302.744
302.788
302.855
303.171
302.855
303.182
302.806
303.023
302.789
)
;
    }
    ceiling
    {
        type            wallHeatTransfer;
        Tinf            uniform 303.2;
        alphaWall       uniform 0.24;
        value           nonuniform List<scalar> 
43
(
299.763
299.72
299.713
300.744
301.454
302.038
302.48
302.748
302.913
303.023
303.092
303.138
303.166
303.183
303.195
303.204
303.21
303.216
303.219
303.221
303.222
303.221
303.219
303.217
303.215
303.212
303.21
303.207
303.205
303.203
303.201
303.199
303.198
303.198
303.2
303.207
303.216
303.225
303.23
303.269
304.399
304.108
298.192
)
;
    }
    sWall
    {
        type            wallHeatTransfer;
        Tinf            uniform 315.2;
        alphaWall       uniform 0.36;
        value           uniform 300.934;
    }
    nWall
    {
        type            wallHeatTransfer;
        Tinf            uniform 307.2;
        alphaWall       uniform 0.36;
        value           nonuniform List<scalar> 6(303.807 303.746 303.631 303.867 303.844 303.897);
    }
    sideWalls
    {
        type            empty;
    }
    glass1
    {
        type            wallHeatTransfer;
        Tinf            uniform 315.2;
        alphaWall       uniform 4.3;
        value           nonuniform List<scalar> 9(311.183 310.563 310.168 309.868 309.616 309.384 309.196 309.261 309.49);
    }
    glass2
    {
        type            wallHeatTransfer;
        Tinf            uniform 307.2;
        alphaWall       uniform 4.3;
        value           nonuniform List<scalar> 2(305.626 305.746);
    }
    sun
    {
        type            wallHeatTransfer;
        Tinf            uniform 305.2;
        alphaWall       uniform 0.24;
        value           nonuniform List<scalar> 
14
(
303.044
302.781
302.763
302.75
302.739
302.728
302.717
302.706
302.694
302.682
302.675
302.676
302.692
302.741
)
;
    }
    Table_master
    {
        type            zeroGradient;
    }
    Table_slave
    {
        type            zeroGradient;
    }
    inlet
    {
        type            fixedValue;
        value           uniform 295.15;
    }
    outlet
    {
        type            zeroGradient;
    }
}


// ************************************************************************* //
