/*--------------------------------*- C++ -*----------------------------------*\
  =========                 |
  \\      /  F ield         | OpenFOAM: The Open Source CFD Toolbox
   \\    /   O peration     | Website:  https://openfoam.org
    \\  /    A nd           | Version:  6
     \\/     M anipulation  |
\*---------------------------------------------------------------------------*/
FoamFile
{
    version     2.0;
    format      ascii;
    class       volVectorField;
    location    "280";
    object      U;
}
// * * * * * * * * * * * * * * * * * * * * * * * * * * * * * * * * * * * * * //

dimensions      [0 1 -1 0 0 0 0];

internalField   nonuniform List<vector> 
458
(
(0.0287793 0.0898772 0)
(-0.174999 0.0282611 0)
(-0.205006 0.0193541 0)
(-0.239319 0.0125368 0)
(-0.263893 0.00517875 0)
(-0.277333 -0.00274316 0)
(-0.27728 -0.0114479 0)
(-0.261885 -0.0212169 0)
(-0.231108 -0.0312701 0)
(-0.186989 -0.0398258 0)
(-0.134508 -0.0450883 0)
(-0.0806715 -0.0455193 0)
(-0.0330929 -0.0393026 0)
(0.00904782 -0.0153174 0)
(0.000549271 0.0151915 0)
(-0.0139391 0.0112569 0)
(-0.0381498 -0.0165423 0)
(-0.0153791 -0.0290555 0)
(0.0131206 -0.0262629 0)
(0.0342281 -0.0189733 0)
(0.0497196 -0.0102874 0)
(0.0592294 -0.00567556 0)
(0.0636542 -0.00401711 0)
(0.0654846 -0.00340215 0)
(0.0664581 -0.00302072 0)
(0.0670546 -0.00271574 0)
(0.0672533 -0.00241687 0)
(0.0668599 -0.00192872 0)
(0.0653744 -0.000894862 0)
(0.0616841 0.00116407 0)
(0.0545356 0.00361042 0)
(0.0467659 0.00648058 0)
(-0.00737163 0.0230078 0)
(0.204761 0.184017 0)
(-0.161779 0.0748577 0)
(-0.165744 0.0591173 0)
(-0.201341 0.0456175 0)
(-0.226074 0.0303616 0)
(-0.240305 0.0128546 0)
(-0.241692 -0.00759576 0)
(-0.228297 -0.0306323 0)
(-0.200809 -0.05323 0)
(-0.161817 -0.0710221 0)
(-0.116431 -0.080374 0)
(-0.0708542 -0.0790719 0)
(-0.0305129 -0.0658183 0)
(0.00547807 -0.0368856 0)
(0.0307695 -0.00396524 0)
(0.0545735 0.0132156 0)
(0.0592058 0.0359284 0)
(-0.00582698 0.0688868 0)
(0.0574423 0.0447883 0)
(0.0106778 -0.0228185 0)
(0.0273551 -0.0391495 0)
(0.0418828 -0.037275 0)
(0.0547983 -0.0289402 0)
(0.0614545 -0.0131497 0)
(0.0632415 -0.00341179 0)
(0.0633785 0.000231113 0)
(0.0635923 0.00154037 0)
(0.0639519 0.00225297 0)
(0.0642026 0.00275279 0)
(0.0643009 0.00326069 0)
(0.0642098 0.00408959 0)
(0.0634763 0.0060685 0)
(0.0599625 0.0114132 0)
(0.0510647 0.0164341 0)
(0.046861 0.0212484 0)
(-0.0493431 0.0491311 0)
(0.367329 0.275427 0)
(-0.176229 0.11842 0)
(-0.124467 0.0953512 0)
(-0.15915 0.0716317 0)
(-0.181741 0.0464579 0)
(-0.195848 0.0180026 0)
(-0.198109 -0.0150215 0)
(-0.185336 -0.0516157 0)
(-0.159605 -0.0864724 0)
(-0.124656 -0.112137 0)
(-0.085815 -0.123635 0)
(-0.0484829 -0.119073 0)
(-0.0160534 -0.0988472 0)
(0.0128336 -0.0638875 0)
(0.035241 -0.0309413 0)
(0.0492188 -0.00773682 0)
(0.051941 0.019993 0)
(-0.00804544 0.0677076 0)
(0.116179 -0.0062678 0)
(0.0732791 -0.0335668 0)
(0.0670788 -0.0444404 0)
(0.0703921 -0.0442836 0)
(0.0751888 -0.0402108 0)
(0.0762678 -0.0299779 0)
(0.0662547 -0.0193322 0)
(0.0586176 -0.0135926 0)
(0.055589 -0.0104002 0)
(0.0545676 -0.00834976 0)
(0.05403 -0.00696492 0)
(0.0537882 -0.00593662 0)
(0.054358 -0.00471586 0)
(0.0567453 -0.00118316 0)
(0.0556161 0.0154281 0)
(0.0444184 0.0269563 0)
(0.0508739 0.0360997 0)
(-0.0892622 0.0747591 0)
(0.516181 0.348944 0)
(-0.209787 0.15628 0)
(-0.0801228 0.126551 0)
(-0.113153 0.0946683 0)
(-0.130225 0.062779 0)
(-0.142085 0.0258462 0)
(-0.143299 -0.0192721 0)
(-0.128821 -0.0700072 0)
(-0.104194 -0.116457 0)
(-0.0743448 -0.14818 0)
(-0.043748 -0.160248 0)
(-0.0164777 -0.152067 0)
(0.00735918 -0.125265 0)
(0.0270837 -0.0874777 0)
(0.0440902 -0.0484211 0)
(0.0571498 -0.0135701 0)
(0.0712031 0.021008 0)
(0.0728984 0.060559 0)
(0.113298 0.0607525 0)
(0.10998 -0.00101793 0)
(0.0953807 -0.0294932 0)
(0.0869054 -0.0393074 0)
(0.08024 -0.0402473 0)
(0.0723002 -0.0354252 0)
(0.0709002 -0.0211756 0)
(0.0808382 -0.0136107 0)
(0.0887687 -0.00957709 0)
(0.0927497 -0.00712905 0)
(0.094471 -0.00515094 0)
(0.0942725 -0.00308067 0)
(0.0912699 -0.000519445 0)
(0.0841579 0.00298425 0)
(0.0709176 0.00808025 0)
(0.0552843 0.0255416 0)
(0.0408114 0.0411585 0)
(0.0581896 0.0546791 0)
(-0.121512 0.0960969 0)
(0.647807 0.405451 0)
(-0.253436 0.186221 0)
(-0.034984 0.145034 0)
(-0.0645777 0.108595 0)
(-0.0729739 0.0734051 0)
(-0.0799336 0.0315543 0)
(-0.0753744 -0.0235935 0)
(-0.0562864 -0.0879156 0)
(-0.0339875 -0.142315 0)
(-0.0121627 -0.175809 0)
(0.00728414 -0.185344 0)
(0.0220169 -0.172328 0)
(0.0337051 -0.142717 0)
(0.0436407 -0.10295 0)
(0.0526946 -0.0613365 0)
(0.0612909 -0.0235032 0)
(0.0729938 0.00911667 0)
(0.0869774 0.0265896 0)
(0.100907 0.0041617 0)
(0.0996167 -0.0186348 0)
(0.0915124 -0.0290431 0)
(0.0814224 -0.0325778 0)
(0.0715906 -0.0318013 0)
(0.0629973 -0.0263151 0)
(0.0596078 -0.0142888 0)
(0.0616196 -0.00713482 0)
(0.0643622 -0.00410098 0)
(0.0664197 -0.00240988 0)
(0.068089 -0.000364523 0)
(0.0693408 0.00281314 0)
(0.0691183 0.00741513 0)
(0.0667598 0.0137992 0)
(0.0618271 0.0226667 0)
(0.0551753 0.0369749 0)
(0.0451557 0.0530835 0)
(0.070035 0.072004 0)
(-0.00661183 0.102145 0)
(0.0552949 0.146174 0)
(-0.0804681 0.0702441 0)
(-0.272992 -0.00103551 0)
(0.746593 0.451914 0)
(-0.298355 0.205345 0)
(0.00146647 0.142311 0)
(-0.0153204 0.111886 0)
(-0.0129404 0.0786487 0)
(-0.0139828 0.0354444 0)
(0.0075497 -0.0351728 0)
(0.0305984 -0.10851 0)
(0.0469111 -0.162062 0)
(0.0572953 -0.190977 0)
(0.0620498 -0.195732 0)
(0.0623828 -0.179533 0)
(0.0602503 -0.147706 0)
(0.0573806 -0.107098 0)
(0.0553032 -0.0654567 0)
(0.0552267 -0.0290288 0)
(0.0594681 -0.00142294 0)
(0.0679242 0.0114758 0)
(0.0739684 0.00339215 0)
(0.072443 -0.0082486 0)
(0.0652643 -0.0170308 0)
(0.0559291 -0.021589 0)
(0.0467907 -0.022231 0)
(0.0391399 -0.0191354 0)
(0.0348937 -0.0129284 0)
(0.0344378 -0.00876556 0)
(0.0358865 -0.00697282 0)
(0.0381647 -0.00585275 0)
(0.0410335 -0.00397076 0)
(0.0443938 -0.00025811 0)
(0.0477375 0.00579316 0)
(0.050042 0.0141313 0)
(0.0515214 0.0248948 0)
(0.053229 0.0387314 0)
(0.0531869 0.054472 0)
(0.0750823 0.0745796 0)
(0.0624116 0.0878623 0)
(0.0975327 0.09429 0)
(0.115375 0.0559454 0)
(-0.133857 -0.0277963 0)
(0.804421 0.493877 0)
(-0.322821 0.188335 0)
(0.032049 0.0904387 0)
(0.0455545 0.0920252 0)
(0.0559693 0.0711633 0)
(0.0669629 0.0204696 0)
(0.103957 -0.0589054 0)
(0.125626 -0.126394 0)
(0.132787 -0.171387 0)
(0.128811 -0.192165 0)
(0.116606 -0.19068 0)
(0.0993267 -0.170676 0)
(0.0801926 -0.13737 0)
(0.0618185 -0.0973179 0)
(0.046579 -0.0576954 0)
(0.0362193 -0.0248677 0)
(0.0320263 -0.00237154 0)
(0.0337887 0.00752599 0)
(0.0356169 0.00433881 0)
(0.03395 -0.00324426 0)
(0.0286759 -0.00990019 0)
(0.0215257 -0.0137596 0)
(0.0142156 -0.0148305 0)
(0.00803571 -0.0135727 0)
(0.00437885 -0.0109016 0)
(0.00362506 -0.00922047 0)
(0.00479181 -0.00885759 0)
(0.00712221 -0.00878212 0)
(0.0104302 -0.00786471 0)
(0.0147813 -0.00497773 0)
(0.0210515 0.00102804 0)
(0.0279625 0.00982665 0)
(0.0348877 0.0204057 0)
(0.0432032 0.0326349 0)
(0.0517726 0.045617 0)
(0.0716684 0.0614838 0)
(0.0851167 0.0671743 0)
(0.116936 0.0605408 0)
(0.160006 0.0497671 0)
(-0.0201214 0.0934481 0)
(0.911362 0.494373 0)
(-0.0664138 0.16782 0)
(0.114831 0.0205151 0)
(0.173605 0.00656069 0)
(0.177602 -0.00956583 0)
(0.200969 -0.0557737 0)
(0.228222 -0.102812 0)
(0.234644 -0.142037 0)
(0.221573 -0.166872 0)
(0.194714 -0.174433 0)
(0.159436 -0.165452 0)
(0.120622 -0.142539 0)
(0.0824484 -0.109617 0)
(0.047936 -0.0724359 0)
(0.020414 -0.0376177 0)
(0.0022048 -0.0116212 0)
(-0.00639228 0.00286516 0)
(-0.00645769 0.00738297 0)
(-0.00587823 0.00494901 0)
(-0.00724378 -0.00013722 0)
(-0.0107132 -0.00472117 0)
(-0.0158535 -0.00763976 0)
(-0.0212251 -0.00898556 0)
(-0.0257563 -0.00923524 0)
(-0.0286008 -0.00909852 0)
(-0.029685 -0.00949641 0)
(-0.0296113 -0.0104772 0)
(-0.0288482 -0.0115233 0)
(-0.0274721 -0.0120305 0)
(-0.0252211 -0.0113678 0)
(-0.0212787 -0.00877373 0)
(-0.0130622 -0.00345494 0)
(-0.00270451 0.00407302 0)
(0.00873532 0.0121282 0)
(0.0203534 0.0184497 0)
(0.0373358 0.0248992 0)
(0.052917 0.0200196 0)
(0.0768318 0.00397086 0)
(0.141826 0.0465184 0)
(-0.419055 0.208147 0)
(1.05823 0.439726 0)
(0.513023 0.294668 0)
(0.526782 0.239437 0)
(0.525777 0.16666 0)
(0.48967 0.102053 0)
(0.452808 0.0370425 0)
(0.405405 -0.0283114 0)
(0.350877 -0.0806575 0)
(0.290901 -0.111944 0)
(0.227638 -0.121748 0)
(0.164284 -0.114298 0)
(0.104173 -0.0941696 0)
(0.0502751 -0.0654917 0)
(0.00461065 -0.0341174 0)
(-0.0265844 -0.00975628 0)
(-0.0410012 0.00162345 0)
(-0.0457097 0.00616689 0)
(-0.0458632 0.00690897 0)
(-0.0456406 0.00502501 0)
(-0.0466865 0.00195748 0)
(-0.0489823 -0.000953246 0)
(-0.0525267 -0.00314514 0)
(-0.0564835 -0.00473459 0)
(-0.0601749 -0.00597712 0)
(-0.0632421 -0.00716083 0)
(-0.0658326 -0.00850857 0)
(-0.0684403 -0.00986621 0)
(-0.0715597 -0.010827 0)
(-0.0756405 -0.0108509 0)
(-0.0812096 -0.00925076 0)
(-0.0889473 -0.00517533 0)
(-0.0994149 0.00221 0)
(-0.110924 0.0127954 0)
(-0.126366 0.0267246 0)
(-0.150954 0.044091 0)
(-0.187286 0.0638388 0)
(-0.23697 0.082093 0)
(-0.291065 0.0954893 0)
(-0.362868 0.102678 0)
(-0.635759 0.103324 0)
(0.243394 0.0329444 0)
(0.306028 0.0848404 0)
(0.318439 0.05614 0)
(0.291976 0.00784055 0)
(0.265214 -0.0313078 0)
(0.227431 -0.0556333 0)
(0.179465 -0.0662574 0)
(0.124881 -0.0648296 0)
(0.0682783 -0.0540446 0)
(0.012611 -0.0350545 0)
(-0.0366018 -0.0119565 0)
(-0.0643163 0.00067895 0)
(-0.0774843 0.0057172 0)
(-0.0814685 0.00708717 0)
(-0.0821773 0.00736744 0)
(-0.0816375 0.0068531 0)
(-0.0813309 0.00556142 0)
(-0.0820443 0.00378293 0)
(-0.0838434 0.00199385 0)
(-0.0863306 0.000407943 0)
(-0.0893351 -0.00101681 0)
(-0.0926572 -0.00232044 0)
(-0.0961173 -0.00347252 0)
(-0.0998218 -0.0043681 0)
(-0.103971 -0.00478363 0)
(-0.108683 -0.00439202 0)
(-0.113936 -0.00279159 0)
(-0.119531 0.000459751 0)
(-0.124942 0.00580362 0)
(-0.129331 0.0137448 0)
(-0.133199 0.0254173 0)
(-0.136695 0.0414095 0)
(-0.140844 0.0609966 0)
(-0.146194 0.0807329 0)
(-0.149014 0.0910962 0)
(-0.133522 0.0706323 0)
(-0.0982912 -0.0235073 0)
(-0.281753 -0.207305 0)
(0.129027 0.30747 0)
(-0.0006485 0.179666 0)
(0.0196256 0.0902995 0)
(0.0279142 0.0355461 0)
(0.0258896 0.00571002 0)
(0.019733 -0.0107381 0)
(-0.00795261 -0.0145271 0)
(-0.0427042 -0.00809521 0)
(-0.0763504 0.000733256 0)
(-0.10045 0.00730559 0)
(-0.112484 0.00989434 0)
(-0.115305 0.00905592 0)
(-0.115227 0.00773932 0)
(-0.1138 0.00649578 0)
(-0.112081 0.00565225 0)
(-0.110454 0.00491249 0)
(-0.109321 0.00399583 0)
(-0.108918 0.00288162 0)
(-0.109192 0.00176301 0)
(-0.10991 0.000814665 0)
(-0.110872 5.91718e-05 0)
(-0.11197 -0.000564251 0)
(-0.113325 -0.0010746 0)
(-0.114992 -0.00143061 0)
(-0.116942 -0.00151803 0)
(-0.119013 -0.0011464 0)
(-0.120908 -4.3562e-05 0)
(-0.122151 0.00216761 0)
(-0.122139 0.00604386 0)
(-0.119819 0.0123838 0)
(-0.113712 0.0221598 0)
(-0.102455 0.0363018 0)
(-0.0857492 0.0547121 0)
(-0.0643738 0.0739213 0)
(-0.040451 0.0871265 0)
(-0.00361917 0.07689 0)
(0.145323 0.00298748 0)
(-0.20856 -0.120726 0)
(-0.404883 -0.503689 0)
(-0.624292 -0.144844 0)
(-0.446395 0.159605 0)
(-0.367469 0.0434493 0)
(-0.239869 -0.00723659 0)
(-0.187063 -0.0307818 0)
(-0.167619 -0.0346186 0)
(-0.164631 -0.0278349 0)
(-0.168128 -0.0184205 0)
(-0.17058 -0.0105166 0)
(-0.168055 -0.00466746 0)
(-0.162701 -0.000662782 0)
(-0.155463 0.00164238 0)
(-0.148159 0.00269109 0)
(-0.141679 0.00358511 0)
(-0.135897 0.00454216 0)
(-0.130549 0.00559466 0)
(-0.125466 0.00650804 0)
(-0.120741 0.00703351 0)
(-0.116587 0.00700885 0)
(-0.11319 0.00639278 0)
(-0.110665 0.00527031 0)
(-0.109048 0.00382242 0)
(-0.108304 0.00226815 0)
(-0.108335 0.000810651 0)
(-0.108975 -0.000384558 0)
(-0.109986 -0.00119563 0)
(-0.111041 -0.00151718 0)
(-0.111685 -0.00121062 0)
(-0.111271 -7.25523e-05 0)
(-0.10865 0.00218028 0)
(-0.101975 0.00595648 0)
(-0.0886836 0.0118888 0)
(-0.0666191 0.0208286 0)
(-0.0359498 0.0334205 0)
(0.0124026 0.050493 0)
(0.0598591 0.0543391 0)
(0.104374 0.0385197 0)
(0.167386 0.00466899 0)
(-0.209685 -0.0553338 0)
)
;

boundaryField
{
    floor
    {
        type            noSlip;
    }
    ceiling
    {
        type            noSlip;
    }
    sWall
    {
        type            noSlip;
    }
    nWall
    {
        type            noSlip;
    }
    sideWalls
    {
        type            empty;
    }
    glass1
    {
        type            noSlip;
    }
    glass2
    {
        type            noSlip;
    }
    sun
    {
        type            noSlip;
    }
    Table_master
    {
        type            noSlip;
    }
    Table_slave
    {
        type            noSlip;
    }
    inlet
    {
        type            fixedValue;
        value           uniform (0.46194 -0.191342 0);
    }
    outlet
    {
        type            zeroGradient;
    }
}


// ************************************************************************* //
