/*--------------------------------*- C++ -*----------------------------------*\
  =========                 |
  \\      /  F ield         | OpenFOAM: The Open Source CFD Toolbox
   \\    /   O peration     | Website:  https://openfoam.org
    \\  /    A nd           | Version:  6
     \\/     M anipulation  |
\*---------------------------------------------------------------------------*/
FoamFile
{
    version     2.0;
    format      ascii;
    class       volScalarField;
    location    "410";
    object      T;
}
// * * * * * * * * * * * * * * * * * * * * * * * * * * * * * * * * * * * * * //

dimensions      [0 0 0 1 0 0 0];

internalField   nonuniform List<scalar> 
458
(
302.759
302.483
302.47
302.466
302.462
302.459
302.455
302.45
302.443
302.434
302.426
302.423
302.427
302.444
302.483
302.642
302.619
302.611
302.617
302.625
302.631
302.637
302.643
302.65
302.656
302.662
302.668
302.674
302.68
302.686
302.693
302.702
302.727
302.944
302.516
302.491
302.492
302.494
302.493
302.491
302.485
302.469
302.446
302.423
302.409
302.412
302.428
302.449
302.458
302.469
302.491
302.648
302.595
302.591
302.6
302.611
302.616
302.619
302.622
302.625
302.628
302.63
302.633
302.637
302.641
302.647
302.656
302.669
302.71
303.139
302.562
302.522
302.531
302.544
302.554
302.557
302.552
302.525
302.478
302.429
302.4
302.401
302.422
302.443
302.455
302.464
302.483
302.603
302.581
302.583
302.6
302.62
302.621
302.622
302.624
302.625
302.627
302.629
302.631
302.633
302.635
302.642
302.649
302.661
302.705
303.338
302.62
302.554
302.573
302.602
302.63
302.649
302.647
302.602
302.521
302.439
302.391
302.391
302.42
302.448
302.466
302.473
302.481
302.491
302.51
302.541
302.578
302.616
302.649
302.676
302.695
302.711
302.725
302.736
302.744
302.751
302.757
302.76
302.731
302.701
302.683
302.708
303.534
302.696
302.589
302.606
302.649
302.7
302.743
302.75
302.681
302.561
302.445
302.381
302.381
302.419
302.461
302.489
302.499
302.505
302.521
302.548
302.586
302.628
302.671
302.709
302.742
302.766
302.785
302.799
302.81
302.815
302.816
302.812
302.803
302.78
302.744
302.711
302.712
302.805
302.888
302.889
303.712
302.795
302.646
302.637
302.677
302.738
302.816
302.828
302.729
302.575
302.439
302.367
302.371
302.423
302.485
302.529
302.551
302.563
302.586
302.619
302.66
302.704
302.746
302.783
302.812
302.835
302.851
302.862
302.869
302.87
302.865
302.855
302.84
302.816
302.782
302.745
302.728
302.768
302.799
302.841
303.868
302.958
302.791
302.742
302.752
302.799
302.878
302.863
302.73
302.548
302.4
302.336
302.361
302.439
302.528
302.592
302.628
302.65
302.677
302.712
302.752
302.791
302.828
302.858
302.881
302.897
302.908
302.914
302.916
302.913
302.904
302.889
302.871
302.847
302.817
302.782
302.76
302.767
302.781
302.812
304.099
303.42
303.225
303.088
303.019
303.014
303.007
302.876
302.654
302.438
302.305
302.283
302.359
302.482
302.604
302.684
302.727
302.751
302.778
302.81
302.843
302.875
302.902
302.922
302.937
302.945
302.95
302.95
302.948
302.942
302.933
302.919
302.9
302.878
302.856
302.831
302.818
302.824
302.844
302.991
304.429
304.113
303.868
303.63
303.442
303.302
303.058
302.693
302.365
302.176
302.142
302.233
302.406
302.584
302.732
302.795
302.827
302.848
302.872
302.897
302.921
302.942
302.958
302.969
302.975
302.977
302.977
302.974
302.97
302.964
302.96
302.957
302.956
302.96
302.973
302.995
303.029
303.065
303.093
303.159
297.587
299.252
300.272
300.691
300.88
301.103
301.377
301.698
302.015
302.311
302.612
302.777
302.856
302.892
302.912
302.929
302.947
302.965
302.979
302.99
302.997
303
303.001
303.001
303
302.999
302.997
302.996
302.997
302.997
303
303.007
303.021
303.041
303.067
303.096
303.122
303.147
297.951
299.335
300.181
300.643
301.015
301.403
301.802
302.231
302.532
302.732
302.855
302.917
302.947
302.965
302.979
302.991
303.001
303.01
303.016
303.02
303.021
303.022
303.022
303.021
303.021
303.02
303.02
303.02
303.02
303.021
303.023
303.029
303.038
303.051
303.069
303.091
303.093
303.128
299.492
299.452
299.449
300.505
301.177
301.736
302.212
302.526
302.71
302.839
302.917
302.962
302.991
303.009
303.021
303.029
303.035
303.04
303.043
303.045
303.046
303.046
303.046
303.045
303.043
303.042
303.041
303.04
303.039
303.038
303.037
303.037
303.038
303.04
303.044
303.053
303.064
303.072
303.076
303.118
)
;

boundaryField
{
    floor
    {
        type            wallHeatTransfer;
        Tinf            uniform 305.2;
        alphaWall       uniform 0.24;
        value           nonuniform List<scalar> 
36
(
302.788
303.116
303.048
303.004
302.997
303.008
303.031
303.06
303.088
303.115
303.14
303.165
303.189
303.212
303.235
303.257
303.282
303.302
303.352
303.352
303.248
303.192
303.152
303.155
303.211
303.193
302.788
302.708
302.755
302.822
303.116
302.822
303.125
302.775
302.965
302.753
)
;
    }
    ceiling
    {
        type            wallHeatTransfer;
        Tinf            uniform 303.2;
        alphaWall       uniform 0.24;
        value           nonuniform List<scalar> 
43
(
299.72
299.678
299.671
300.651
301.292
301.828
302.283
302.58
302.753
302.874
302.947
302.99
303.018
303.035
303.046
303.054
303.06
303.065
303.068
303.071
303.071
303.071
303.07
303.069
303.067
303.066
303.064
303.062
303.061
303.059
303.058
303.057
303.057
303.057
303.06
303.067
303.077
303.085
303.089
303.127
304.372
304.077
298.287
)
;
    }
    sWall
    {
        type            wallHeatTransfer;
        Tinf            uniform 315.2;
        alphaWall       uniform 0.36;
        value           uniform 300.901;
    }
    nWall
    {
        type            wallHeatTransfer;
        Tinf            uniform 307.2;
        alphaWall       uniform 0.36;
        value           nonuniform List<scalar> 6(303.688 303.629 303.513 303.729 303.707 303.754);
    }
    sideWalls
    {
        type            empty;
    }
    glass1
    {
        type            wallHeatTransfer;
        Tinf            uniform 315.2;
        alphaWall       uniform 4.3;
        value           nonuniform List<scalar> 9(311.248 310.608 310.202 309.891 309.631 309.393 309.195 309.256 309.482);
    }
    glass2
    {
        type            wallHeatTransfer;
        Tinf            uniform 307.2;
        alphaWall       uniform 4.3;
        value           nonuniform List<scalar> 2(305.568 305.689);
    }
    sun
    {
        type            wallHeatTransfer;
        Tinf            uniform 305.2;
        alphaWall       uniform 0.24;
        value           nonuniform List<scalar> 
14
(
303.015
302.75
302.733
302.72
302.709
302.698
302.688
302.677
302.665
302.654
302.647
302.647
302.66
302.697
)
;
    }
    Table_master
    {
        type            zeroGradient;
    }
    Table_slave
    {
        type            zeroGradient;
    }
    inlet
    {
        type            fixedValue;
        value           uniform 295.15;
    }
    outlet
    {
        type            zeroGradient;
    }
}


// ************************************************************************* //
