/*--------------------------------*- C++ -*----------------------------------*\
  =========                 |
  \\      /  F ield         | OpenFOAM: The Open Source CFD Toolbox
   \\    /   O peration     | Website:  https://openfoam.org
    \\  /    A nd           | Version:  6
     \\/     M anipulation  |
\*---------------------------------------------------------------------------*/
FoamFile
{
    version     2.0;
    format      ascii;
    class       volVectorField;
    location    "1620";
    object      U;
}
// * * * * * * * * * * * * * * * * * * * * * * * * * * * * * * * * * * * * * //

dimensions      [0 1 -1 0 0 0 0];

internalField   nonuniform List<vector> 
458
(
(0.0348248 0.0885223 0)
(-0.172081 0.026584 0)
(-0.199349 0.0191137 0)
(-0.233225 0.0130816 0)
(-0.258398 0.00641428 0)
(-0.273603 -0.000804168 0)
(-0.276733 -0.00877731 0)
(-0.265487 -0.0177769 0)
(-0.239431 -0.0274255 0)
(-0.199722 -0.0361099 0)
(-0.150458 -0.0420495 0)
(-0.097843 -0.0436497 0)
(-0.0487427 -0.0390811 0)
(-0.00628537 -0.0236912 0)
(-0.010273 0.00976697 0)
(-0.0102214 0.0105023 0)
(-0.0372383 -0.0175024 0)
(-0.0144863 -0.0291229 0)
(0.0137225 -0.0251897 0)
(0.0334864 -0.0178934 0)
(0.0481063 -0.00955799 0)
(0.0568654 -0.00517906 0)
(0.0607418 -0.00363484 0)
(0.0621752 -0.00308485 0)
(0.0628231 -0.00276154 0)
(0.0631316 -0.00251076 0)
(0.0630691 -0.00224251 0)
(0.0624696 -0.00179794 0)
(0.0608757 -0.000838515 0)
(0.05727 0.00107603 0)
(0.0505449 0.0031743 0)
(0.045128 0.00509341 0)
(-0.0141291 0.0219551 0)
(0.214274 0.18189 0)
(-0.162149 0.0709931 0)
(-0.162942 0.0577634 0)
(-0.198658 0.0457443 0)
(-0.224134 0.0319894 0)
(-0.240111 0.016177 0)
(-0.244614 -0.00240823 0)
(-0.23512 -0.0239644 0)
(-0.211873 -0.046167 0)
(-0.176493 -0.0649235 0)
(-0.133365 -0.0764238 0)
(-0.0881374 -0.0781972 0)
(-0.0462712 -0.0687307 0)
(-0.010041 -0.0460241 0)
(0.0193973 -0.0133899 0)
(0.0442288 0.00784524 0)
(0.0548377 0.034756 0)
(-0.0118195 0.0706801 0)
(0.0670577 0.0439638 0)
(0.0103203 -0.0218361 0)
(0.0265314 -0.0379063 0)
(0.0407646 -0.0356527 0)
(0.0531565 -0.0273458 0)
(0.0595848 -0.0120925 0)
(0.0612058 -0.00275069 0)
(0.0612541 0.00074864 0)
(0.0614176 0.00202596 0)
(0.0617426 0.00272498 0)
(0.0619676 0.00322493 0)
(0.0620248 0.0036781 0)
(0.0619204 0.00441071 0)
(0.0612086 0.00620967 0)
(0.0578102 0.0112306 0)
(0.0491158 0.0155432 0)
(0.0476988 0.0187196 0)
(-0.0584068 0.0475627 0)
(0.379536 0.272956 0)
(-0.180118 0.113734 0)
(-0.123512 0.0941104 0)
(-0.159197 0.0724356 0)
(-0.182599 0.0495043 0)
(-0.19841 0.0236445 0)
(-0.204063 -0.00653239 0)
(-0.195375 -0.0409763 0)
(-0.173593 -0.0757764 0)
(-0.141428 -0.103644 0)
(-0.103846 -0.118948 0)
(-0.0659018 -0.119152 0)
(-0.0318307 -0.104119 0)
(-0.00228783 -0.0744025 0)
(0.0220177 -0.0400789 0)
(0.0375815 -0.015224 0)
(0.0431637 0.0131563 0)
(-0.0236807 0.0623042 0)
(0.122498 -0.00756753 0)
(0.0724928 -0.032111 0)
(0.0642917 -0.0419409 0)
(0.0672426 -0.0417672 0)
(0.0718544 -0.0380553 0)
(0.0734864 -0.028231 0)
(0.064364 -0.0183286 0)
(0.0574086 -0.0130255 0)
(0.0548109 -0.0100772 0)
(0.0541214 -0.00818452 0)
(0.0538891 -0.00689609 0)
(0.0539614 -0.0059008 0)
(0.054763 -0.00475102 0)
(0.0572174 -0.0013948 0)
(0.0561138 0.0150023 0)
(0.0445976 0.0258832 0)
(0.0541316 0.0332674 0)
(-0.0993531 0.0728126 0)
(0.530033 0.346653 0)
(-0.216671 0.151755 0)
(-0.0801985 0.125837 0)
(-0.115537 0.0962976 0)
(-0.133415 0.0672252 0)
(-0.146927 0.033765 0)
(-0.152513 -0.00710854 0)
(-0.142618 -0.0550504 0)
(-0.121285 -0.102303 0)
(-0.0929773 -0.137833 0)
(-0.0625319 -0.155418 0)
(-0.033574 -0.153422 0)
(-0.00880138 -0.133435 0)
(0.0128589 -0.0979236 0)
(0.0304217 -0.0589735 0)
(0.0443399 -0.0228978 0)
(0.0599311 0.0131442 0)
(0.0587898 0.0534269 0)
(0.100292 0.0615025 0)
(0.0987673 -0.00245483 0)
(0.0850932 -0.0294007 0)
(0.0784086 -0.0376994 0)
(0.0735578 -0.0384042 0)
(0.0669605 -0.0341208 0)
(0.066539 -0.0208436 0)
(0.0772212 -0.0138335 0)
(0.0861913 -0.0101107 0)
(0.0915983 -0.00782817 0)
(0.0948462 -0.00592072 0)
(0.0962615 -0.00385958 0)
(0.0945001 -0.00119332 0)
(0.0882421 0.00247831 0)
(0.0757006 0.00774245 0)
(0.0597897 0.0251047 0)
(0.0440573 0.0405963 0)
(0.062971 0.0533633 0)
(-0.13136 0.0943008 0)
(0.662688 0.403811 0)
(-0.262356 0.182677 0)
(-0.0350325 0.145257 0)
(-0.0687476 0.111319 0)
(-0.0779429 0.0792335 0)
(-0.0862895 0.041251 0)
(-0.089044 -0.00798512 0)
(-0.074021 -0.0688115 0)
(-0.0534754 -0.125895 0)
(-0.0315723 -0.165065 0)
(-0.0112696 -0.181833 0)
(0.00616579 -0.175983 0)
(0.0193281 -0.151478 0)
(0.0303433 -0.114534 0)
(0.040188 -0.0729525 0)
(0.0494242 -0.0337156 0)
(0.0619121 0.000680775 0)
(0.076001 0.0197185 0)
(0.0902789 -0.000564269 0)
(0.0896265 -0.0213744 0)
(0.0825519 -0.0300377 0)
(0.0737412 -0.0325551 0)
(0.0654952 -0.0316375 0)
(0.0585505 -0.0266421 0)
(0.0567719 -0.01552 0)
(0.0603323 -0.00903626 0)
(0.0646821 -0.00638429 0)
(0.0684146 -0.00484344 0)
(0.0716666 -0.00276354 0)
(0.0741809 0.000768878 0)
(0.0750388 0.00595963 0)
(0.0731496 0.012982 0)
(0.0682422 0.0224368 0)
(0.0611957 0.0371816 0)
(0.0500452 0.0536391 0)
(0.0748512 0.0727627 0)
(-0.00684662 0.101404 0)
(0.0557807 0.150676 0)
(-0.0835291 0.0748305 0)
(-0.277795 0.000479951 0)
(0.761896 0.451326 0)
(-0.308554 0.203338 0)
(0.00243123 0.143884 0)
(-0.0205825 0.116257 0)
(-0.0197861 0.0857209 0)
(-0.0214941 0.0472957 0)
(-0.0143051 -0.00693428 0)
(0.0103292 -0.0859258 0)
(0.026937 -0.146186 0)
(0.0388393 -0.182414 0)
(0.0460586 -0.194543 0)
(0.0489058 -0.185043 0)
(0.04864 -0.158113 0)
(0.0472329 -0.11991 0)
(0.0460539 -0.0779268 0)
(0.046461 -0.0396895 0)
(0.0508002 -0.00997137 0)
(0.0599316 0.0048426 0)
(0.0661951 -0.00103832 0)
(0.0649333 -0.0110084 0)
(0.0585417 -0.018807 0)
(0.0503678 -0.022916 0)
(0.042729 -0.0236692 0)
(0.0367538 -0.0211461 0)
(0.0342063 -0.0157843 0)
(0.0353627 -0.0123116 0)
(0.0383248 -0.0108836 0)
(0.0419893 -0.00979691 0)
(0.0460571 -0.00766039 0)
(0.0502465 -0.00340409 0)
(0.0544643 0.00366942 0)
(0.0569858 0.0131789 0)
(0.0581533 0.0249423 0)
(0.059278 0.0395815 0)
(0.058354 0.0560078 0)
(0.0796999 0.0767072 0)
(0.0654397 0.0890027 0)
(0.0997186 0.0967401 0)
(0.117478 0.0571992 0)
(-0.136902 -0.0299358 0)
(0.81562 0.494191 0)
(-0.334126 0.187369 0)
(0.0322409 0.0937974 0)
(0.0390641 0.10105 0)
(0.0459358 0.0829955 0)
(0.051632 0.0393664 0)
(0.0791124 -0.0311746 0)
(0.103127 -0.103703 0)
(0.113303 -0.15701 0)
(0.11288 -0.186322 0)
(0.104599 -0.192421 0)
(0.0908076 -0.178767 0)
(0.0741117 -0.149761 0)
(0.0575167 -0.111552 0)
(0.0429821 -0.0708909 0)
(0.0326156 -0.0356659 0)
(0.0280838 -0.0107217 0)
(0.0294659 0.00102566 0)
(0.0310902 -0.000256075 0)
(0.0295831 -0.00655716 0)
(0.0249283 -0.0126273 0)
(0.0188077 -0.0163728 0)
(0.0127824 -0.0177511 0)
(0.00797745 -0.0171182 0)
(0.00562017 -0.015215 0)
(0.00596832 -0.0141262 0)
(0.00801377 -0.0139968 0)
(0.0110178 -0.0137717 0)
(0.0148174 -0.0123897 0)
(0.0194987 -0.00876535 0)
(0.025667 -0.00165659 0)
(0.0332846 0.00885778 0)
(0.0400536 0.0208875 0)
(0.0478629 0.034163 0)
(0.0558621 0.047966 0)
(0.0754408 0.0644659 0)
(0.0882244 0.0697819 0)
(0.119668 0.0632135 0)
(0.163391 0.0513032 0)
(-0.0203426 0.0954838 0)
(0.921877 0.49729 0)
(-0.076683 0.167417 0)
(0.110607 0.0261554 0)
(0.16374 0.0227832 0)
(0.161406 0.0155346 0)
(0.162878 -0.0293762 0)
(0.196508 -0.0804188 0)
(0.211292 -0.125546 0)
(0.205382 -0.158274 0)
(0.185113 -0.173973 0)
(0.155606 -0.171663 0)
(0.121106 -0.153965 0)
(0.0853112 -0.124267 0)
(0.0523839 -0.0880623 0)
(0.0244729 -0.0510328 0)
(0.00511335 -0.0218828 0)
(-0.00465059 -0.00437631 0)
(-0.00658766 0.00180466 0)
(-0.00647471 0.000692486 0)
(-0.00767771 -0.00365053 0)
(-0.0109775 -0.00800968 0)
(-0.0154757 -0.0110816 0)
(-0.0201087 -0.0128578 0)
(-0.0239713 -0.013701 0)
(-0.0263507 -0.0141602 0)
(-0.027239 -0.0149169 0)
(-0.0272004 -0.0159043 0)
(-0.0266166 -0.016617 0)
(-0.0254887 -0.0165281 0)
(-0.0235097 -0.0150612 0)
(-0.0198855 -0.0114859 0)
(-0.0117377 -0.00492487 0)
(-0.000113318 0.00445158 0)
(0.0110701 0.0137624 0)
(0.0226745 0.0208708 0)
(0.0398886 0.0277438 0)
(0.0554235 0.0224455 0)
(0.0795677 0.00564905 0)
(0.146406 0.0479748 0)
(-0.428343 0.212663 0)
(1.06591 0.444169 0)
(0.51824 0.298304 0)
(0.529537 0.249856 0)
(0.5184 0.182898 0)
(0.469853 0.122429 0)
(0.43318 0.0601037 0)
(0.392069 -0.00743121 0)
(0.342865 -0.0669826 0)
(0.289107 -0.107858 0)
(0.232767 -0.126601 0)
(0.175383 -0.125087 0)
(0.118922 -0.108902 0)
(0.0654744 -0.0822767 0)
(0.0202518 -0.0512458 0)
(-0.016098 -0.0207997 0)
(-0.0329569 -0.00600724 0)
(-0.0401472 0.000502661 0)
(-0.0416939 0.00225521 0)
(-0.0420694 0.00103694 0)
(-0.0432098 -0.00162763 0)
(-0.0458369 -0.00451408 0)
(-0.0494861 -0.00705158 0)
(-0.0535099 -0.00914803 0)
(-0.0573731 -0.0108843 0)
(-0.0608191 -0.0123953 0)
(-0.0640109 -0.013781 0)
(-0.0673539 -0.0148815 0)
(-0.0712228 -0.0153345 0)
(-0.0759717 -0.0146595 0)
(-0.0820727 -0.0122044 0)
(-0.0902169 -0.00713239 0)
(-0.101128 0.00141579 0)
(-0.112765 0.0133159 0)
(-0.127993 0.0284125 0)
(-0.152913 0.0467847 0)
(-0.190235 0.0673933 0)
(-0.241636 0.086223 0)
(-0.297567 0.0999122 0)
(-0.371651 0.106902 0)
(-0.650668 0.106291 0)
(0.233932 0.0528212 0)
(0.305894 0.115944 0)
(0.321221 0.0913446 0)
(0.299648 0.0395557 0)
(0.275055 -0.0106189 0)
(0.244393 -0.0469469 0)
(0.203104 -0.0684109 0)
(0.154007 -0.0754047 0)
(0.100439 -0.0686863 0)
(0.0461642 -0.0529071 0)
(-0.00863169 -0.0294989 0)
(-0.0451419 -0.0114582 0)
(-0.0636093 -0.00307203 0)
(-0.0709322 -0.000682442 0)
(-0.0731505 -0.000217447 0)
(-0.0734575 -0.000928509 0)
(-0.0737505 -0.00254562 0)
(-0.0748868 -0.00465383 0)
(-0.0771017 -0.00674938 0)
(-0.0803584 -0.00853921 0)
(-0.0841517 -0.0100177 0)
(-0.0882537 -0.011148 0)
(-0.0926793 -0.0119329 0)
(-0.0975843 -0.0123318 0)
(-0.10312 -0.0121579 0)
(-0.109318 -0.0110639 0)
(-0.116044 -0.00858439 0)
(-0.122953 -0.00417584 0)
(-0.129422 0.0027233 0)
(-0.134401 0.0123256 0)
(-0.13837 0.0256102 0)
(-0.141807 0.0431759 0)
(-0.146017 0.0642221 0)
(-0.15177 0.0850529 0)
(-0.155355 0.095549 0)
(-0.141297 0.0734014 0)
(-0.110231 -0.0250107 0)
(-0.286613 -0.213744 0)
(0.120035 0.324326 0)
(0.00838642 0.203578 0)
(0.039254 0.11843 0)
(0.0584622 0.0604162 0)
(0.0631051 0.0216101 0)
(0.0600894 -0.00479372 0)
(0.0401744 -0.0199084 0)
(0.00539347 -0.0189371 0)
(-0.0366154 -0.00171397 0)
(-0.0701316 0.0128689 0)
(-0.0912398 0.0208682 0)
(-0.100247 0.0232556 0)
(-0.102452 0.0233841 0)
(-0.10238 0.023433 0)
(-0.101491 0.024135 0)
(-0.100446 0.0252473 0)
(-0.0997163 0.0263741 0)
(-0.0995902 0.0271204 0)
(-0.100119 0.027059 0)
(-0.101261 0.0258505 0)
(-0.103052 0.023819 0)
(-0.105424 0.0215784 0)
(-0.108316 0.0194038 0)
(-0.111641 0.017445 0)
(-0.115259 0.0158052 0)
(-0.118954 0.0145938 0)
(-0.122413 0.0139467 0)
(-0.125152 0.014022 0)
(-0.126355 0.0155143 0)
(-0.124853 0.0198832 0)
(-0.119068 0.0282909 0)
(-0.107613 0.0417374 0)
(-0.0903471 0.0602402 0)
(-0.0683129 0.0804255 0)
(-0.0434424 0.0948375 0)
(-0.00757703 0.0857747 0)
(0.14694 0.00930168 0)
(-0.209929 -0.129686 0)
(-0.422111 -0.516023 0)
(-0.637313 -0.143278 0)
(-0.449399 0.177745 0)
(-0.357943 0.0560653 0)
(-0.213921 -0.00555032 0)
(-0.145646 -0.0477911 0)
(-0.117214 -0.0705264 0)
(-0.113038 -0.0713368 0)
(-0.122395 -0.0626587 0)
(-0.134899 -0.054945 0)
(-0.140374 -0.0504717 0)
(-0.138611 -0.0490218 0)
(-0.134144 -0.0498845 0)
(-0.128946 -0.0526754 0)
(-0.124455 -0.056172 0)
(-0.120976 -0.0597939 0)
(-0.118145 -0.0634288 0)
(-0.115707 -0.0671304 0)
(-0.11362 -0.0707344 0)
(-0.111954 -0.0737279 0)
(-0.110843 -0.0755152 0)
(-0.110458 -0.0756735 0)
(-0.110903 -0.0742958 0)
(-0.112135 -0.0719778 0)
(-0.113973 -0.0689357 0)
(-0.116187 -0.0652948 0)
(-0.118492 -0.0611045 0)
(-0.120523 -0.0562936 0)
(-0.121798 -0.0506468 0)
(-0.121685 -0.0438166 0)
(-0.119168 -0.0358262 0)
(-0.11234 -0.026699 0)
(-0.0983964 -0.01589 0)
(-0.0748375 -0.00249157 0)
(-0.0415458 0.0143608 0)
(0.00932241 0.0362836 0)
(0.0618701 0.0423449 0)
(0.109602 0.0240419 0)
(0.172059 -0.015945 0)
(-0.19629 -0.0826866 0)
)
;

boundaryField
{
    floor
    {
        type            noSlip;
    }
    ceiling
    {
        type            noSlip;
    }
    sWall
    {
        type            noSlip;
    }
    nWall
    {
        type            noSlip;
    }
    sideWalls
    {
        type            empty;
    }
    glass1
    {
        type            noSlip;
    }
    glass2
    {
        type            noSlip;
    }
    sun
    {
        type            noSlip;
    }
    Table_master
    {
        type            noSlip;
    }
    Table_slave
    {
        type            noSlip;
    }
    inlet
    {
        type            fixedValue;
        value           uniform (0.46194 -0.191342 0);
    }
    outlet
    {
        type            zeroGradient;
    }
}


// ************************************************************************* //
