/*--------------------------------*- C++ -*----------------------------------*\
  =========                 |
  \\      /  F ield         | OpenFOAM: The Open Source CFD Toolbox
   \\    /   O peration     | Website:  https://openfoam.org
    \\  /    A nd           | Version:  6
     \\/     M anipulation  |
\*---------------------------------------------------------------------------*/
FoamFile
{
    version     2.0;
    format      ascii;
    class       volScalarField;
    location    "300";
    object      alphat;
}
// * * * * * * * * * * * * * * * * * * * * * * * * * * * * * * * * * * * * * //

dimensions      [1 -1 -1 0 0 0 0];

internalField   nonuniform List<scalar> 
778
(
0.0020232
0.00227156
0.00239638
0.00254215
0.00269685
0.00278277
0.00278449
0.00270967
0.00256331
0.00239498
0.00224135
0.00207724
0.00189366
0.00173292
0.0015517
0.000685356
0.000749348
0.00078174
0.000805601
0.000823105
0.000837462
0.000849434
0.000859667
0.000869801
0.000881153
0.000894376
0.00090972
0.000927692
0.000947979
0.000967981
0.000982339
0.00100692
0.00105875
0.00247206
0.00687305
0.00743857
0.00869151
0.009502
0.00983885
0.00987221
0.00967985
0.00932066
0.00891395
0.00849211
0.00804806
0.0074875
0.0064222
0.0046455
0.00199094
0.00179153
0.00152978
0.000766212
0.00156314
0.00169441
0.00182314
0.00189924
0.00201245
0.0021237
0.00216482
0.00215553
0.00211452
0.00206939
0.00203288
0.00202006
0.00208653
0.00235346
0.00217707
0.00170176
0.00119606
0.0028476
0.00999472
0.00991385
0.0105112
0.0105638
0.0103724
0.0101105
0.00987348
0.00964331
0.00943278
0.00924092
0.0090744
0.00889621
0.00838971
0.00733964
0.00563075
0.00461408
0.00181663
0.000795885
0.00194515
0.00204733
0.00189386
0.00126392
0.000734061
0.000699398
0.0006787
0.000673672
0.000696276
0.000742044
0.000807181
0.000893009
0.000997876
0.00264191
0.00309194
0.00250131
0.00129231
0.00321761
0.0127648
0.0122103
0.0117031
0.0104657
0.00973081
0.00927799
0.0089904
0.00878196
0.00862895
0.00853328
0.00850628
0.00853631
0.00846587
0.00811747
0.00736557
0.00635648
0.00379276
0.00196942
0.00134134
0.0014723
0.00163148
0.00184853
0.00167184
0.000869536
0.000609822
0.000646159
0.000692972
0.000738196
0.000770677
0.000783758
0.000794033
0.000821088
0.00210018
0.00324913
0.00315234
0.00140038
0.00352918
0.0146838
0.0145752
0.0118267
0.00997957
0.0090175
0.00849378
0.00816352
0.00792381
0.00774554
0.00763181
0.00759722
0.0076473
0.00774405
0.00777492
0.00758298
0.00701643
0.00546822
0.00380125
0.00284669
0.00236633
0.00211689
0.00202722
0.001917
0.00159856
0.00156094
0.00165956
0.00192146
0.00226202
0.00247034
0.0025224
0.00250027
0.00248503
0.00280099
0.00336846
0.00361714
0.00367916
0.00146379
0.00157805
0.00147145
0.00356777
0.0130329
0.0114961
0.00963048
0.00861046
0.00808413
0.00775317
0.00749511
0.00727506
0.00709072
0.00695265
0.00687536
0.00686674
0.00697464
0.00712874
0.00720274
0.00702748
0.00626697
0.00512499
0.00417264
0.00345716
0.00295326
0.00261761
0.00237462
0.00213624
0.00199696
0.00195062
0.00199546
0.00210987
0.00224081
0.0023477
0.00244533
0.002612
0.00297754
0.00355394
0.00397621
0.00362891
0.00312893
0.00430219
0.00175425
0.00351236
0.00686262
0.00701408
0.00720356
0.00738241
0.0073886
0.00725787
0.0070789
0.00690472
0.00675683
0.00664524
0.00657461
0.00654923
0.00660779
0.00673565
0.00686516
0.00687164
0.00654328
0.00586496
0.00510223
0.00439653
0.003812
0.00335611
0.00300538
0.00272189
0.00251147
0.00237089
0.00229356
0.00226646
0.0022733
0.00232849
0.00247339
0.00277215
0.00329889
0.00398345
0.0043274
0.00360305
0.00292982
0.00511876
0.0022029
0.00391086
0.00605294
0.00670664
0.00758339
0.00777039
0.00748014
0.00713085
0.00689777
0.00678628
0.00675956
0.00678455
0.00682581
0.00680828
0.00676031
0.00676354
0.00681721
0.00684271
0.0066954
0.00629658
0.00574062
0.00514189
0.00458331
0.00410218
0.00370518
0.00338187
0.00312734
0.00293706
0.00280663
0.00273232
0.00271514
0.00277034
0.00297783
0.00341324
0.00410946
0.0048586
0.00491992
0.0036526
0.00325158
0.00721862
0.00293448
0.00421918
0.0129746
0.0123224
0.010231
0.00843495
0.00756455
0.00726827
0.00735076
0.00758334
0.00782395
0.007984
0.00799356
0.00766139
0.00728208
0.00707491
0.007006
0.00698648
0.00689681
0.00664245
0.00623889
0.00575708
0.00526792
0.00481618
0.00442281
0.00409301
0.00382764
0.00362694
0.00349303
0.00343297
0.0034636
0.00360904
0.00397011
0.0046036
0.00545569
0.00613689
0.00568437
0.00395185
0.00411524
0.0095436
0.00320201
0.00357595
0.0081511
0.00794693
0.00714865
0.00743014
0.0078715
0.00828037
0.00890438
0.00936635
0.00951998
0.00941331
0.00907309
0.00845859
0.00779343
0.00746123
0.00732211
0.0072644
0.00719094
0.00700995
0.00670718
0.00632402
0.00591376
0.00551797
0.00516267
0.0048622
0.00462589
0.00446318
0.0043881
0.004424
0.00460671
0.00497754
0.0055409
0.0063182
0.00715295
0.00749566
0.00633989
0.00437906
0.00574048
0.00788085
0.00318659
0.00337232
0.0074109
0.00574009
0.00564981
0.00696992
0.00815676
0.00907416
0.0101684
0.0106717
0.0105583
0.0101089
0.00949259
0.00883572
0.00825079
0.00790785
0.00774874
0.00767586
0.0076138
0.00747406
0.00723691
0.00693394
0.00660424
0.00628423
0.00600213
0.00577955
0.00563607
0.00559322
0.00567738
0.00591812
0.00633692
0.00692171
0.00758361
0.00827041
0.00880104
0.00853502
0.00668198
0.00476381
0.00583409
0.00719055
0.00306091
0.00356127
0.00777594
0.00473525
0.00482877
0.0069303
0.0085455
0.00942081
0.0105826
0.0110871
0.0108865
0.0103861
0.00978778
0.00921002
0.00875054
0.0084696
0.00833108
0.00827097
0.00822312
0.00812518
0.0079469
0.00772784
0.00749909
0.00729426
0.00714505
0.00707797
0.00711664
0.00728021
0.00758012
0.00801166
0.00854312
0.00911036
0.00962273
0.00996586
0.010006
0.00915446
0.00693006
0.00501233
0.0058229
0.00694402
0.00289356
0.00368864
0.0084528
0.00400969
0.00406885
0.00691645
0.00908576
0.00988114
0.0109586
0.0113699
0.0111626
0.0107596
0.0103099
0.00987613
0.00951894
0.00929053
0.00917637
0.00913464
0.0091164
0.00907885
0.00900508
0.00891453
0.00883878
0.00881021
0.00885011
0.00897774
0.00919734
0.00949859
0.00986216
0.0102549
0.010627
0.0109142
0.0110433
0.0109317
0.0104311
0.00909756
0.00680383
0.00521721
0.00588466
0.0070176
0.00277904
0.00365876
0.00821105
0.00319726
0.00332533
0.00671959
0.00961591
0.0104086
0.0114439
0.0116876
0.011468
0.0112049
0.0109641
0.0107379
0.0105389
0.0103953
0.0103371
0.0103455
0.0103908
0.0104473
0.0105056
0.0105734
0.0106656
0.0107923
0.0109522
0.011146
0.0113666
0.0115752
0.011759
0.0118942
0.0119422
0.0118483
0.0115392
0.0109217
0.00988665
0.00831382
0.00643933
0.00552062
0.00623397
0.00798451
0.00280762
0.00345211
0.00327155
0.00255793
0.00295506
0.00612924
0.00995734
0.0109384
0.0118747
0.0118257
0.0115503
0.0114208
0.0114044
0.0114281
0.0114551
0.0114744
0.0115338
0.0116398
0.0117779
0.0119326
0.0120929
0.0122517
0.0124009
0.0125279
0.012619
0.0126674
0.0126677
0.0126108
0.0124963
0.0123112
0.0120205
0.0115584
0.0108212
0.00969782
0.00822075
0.00678204
0.00592704
0.00586269
0.00692381
0.00805091
0.00300004
0.00052717
0.00289307
0.0065699
0.0106703
0.0114899
0.0119246
0.0114527
0.0111198
0.0110907
0.0112385
0.0114602
0.0116919
0.0118936
0.0120804
0.0122796
0.012482
0.0126724
0.0128346
0.0129511
0.0130018
0.0129685
0.0128428
0.0126322
0.0123521
0.0120181
0.0116383
0.0111966
0.0106438
0.00989611
0.00886481
0.00758745
0.00639347
0.00571996
0.00570818
0.00631001
0.0079113
0.00834305
0.00305401
0.00353736
0.0112828
0.0113269
0.0112095
0.0115352
0.0109602
0.0103864
0.010171
0.0102233
0.010421
0.0106931
0.0109905
0.0112694
0.0114915
0.0116927
0.011865
0.0119902
0.0120482
0.0120174
0.0118784
0.0116222
0.0112623
0.0108437
0.0104061
0.00996813
0.00952632
0.00905606
0.00851947
0.00788543
0.00716985
0.00648528
0.0060113
0.00586671
0.00608196
0.00672716
0.00824205
0.00874243
0.00303425
0.00364811
0.00885485
0.00798809
0.0101243
0.0107968
0.010673
0.0102512
0.00982681
0.00959441
0.00955017
0.00961937
0.00974043
0.00987865
0.0100115
0.0101208
0.0101909
0.0102252
0.010232
0.0101914
0.0100762
0.00986433
0.00955594
0.00918244
0.00880377
0.00852646
0.0083584
0.00823877
0.00810838
0.00793107
0.00771076
0.00747269
0.00725041
0.00707675
0.00696959
0.00692926
0.00695331
0.00705849
0.00727418
0.00727835
0.00288579
0.00334167
0.00709552
0.00900289
0.0102613
0.0102282
0.00984132
0.00947646
0.00916059
0.00892099
0.00885904
0.00892677
0.0090656
0.00923419
0.00940192
0.0095441
0.00963904
0.0096752
0.00966334
0.00960238
0.00946045
0.00920097
0.00886403
0.00854356
0.00832643
0.00827214
0.00836472
0.00851436
0.00860654
0.00860614
0.00856315
0.00850524
0.00844303
0.00840846
0.00841931
0.00848065
0.00858163
0.0086692
0.00882571
0.00800785
0.00284969
0.00297898
0.00247625
0.00234428
0.00232395
0.00230464
0.00226841
0.00222337
0.00219853
0.00220018
0.00221143
0.00222778
0.00224565
0.0022627
0.00227753
0.00228937
0.00229787
0.00230274
0.00230077
0.00228843
0.0022673
0.0022449
0.00222476
0.00221113
0.00220903
0.00221979
0.00223965
0.00226316
0.00228776
0.00230699
0.0023208
0.00233921
0.00236951
0.00241098
0.00246243
0.00252181
0.00258728
0.00266222
0.00275736
0.0028909
0.00273554
)
;

boundaryField
{
    floor
    {
        type            compressible::alphatWallFunction;
        Prt             0.85;
        value           nonuniform List<scalar> 
36
(
0.00021749
9.67486e-05
0.000106113
0.000110819
0.00011427
0.000116794
0.00011886
0.000120578
0.000122044
0.000123494
0.000125117
0.000127003
0.000129188
0.000131742
0.000134618
0.000137446
0.000139468
0.000142924
0.00015019
0.000150188
0.000169255
0.000182475
0.000197188
0.000205744
0.000221068
0.000206768
0.000217487
0.000275474
0.000249342
0.000214552
9.67475e-05
0.000214549
0.00010856
0.000252645
0.000112855
0.000272665
)
;
    }
    ceiling
    {
        type            compressible::alphatWallFunction;
        Prt             0.85;
        value           nonuniform List<scalar> 
43
(
0.000401689
0.000338273
0.000321401
0.000318795
0.000316316
0.000311661
0.000305862
0.000302659
0.000302871
0.000304322
0.000306433
0.000308739
0.000310938
0.000312852
0.000314383
0.000315489
0.000316137
0.000315908
0.000314343
0.000311629
0.000308718
0.000306094
0.000304291
0.000303968
0.00030532
0.000307872
0.000310915
0.000314103
0.000316648
0.000318473
0.000320843
0.000324734
0.000330067
0.000336679
0.000344287
0.000352606
0.000362042
0.000373952
0.000390652
0.000371383
0.000459855
0.00043758
0.000470553
)
;
    }
    sWall
    {
        type            compressible::alphatWallFunction;
        Prt             0.85;
        value           nonuniform List<scalar> 9(0.000473037 0.000448007 0.000471207 0.000486777 0.000483133 0.000457829 0.000482422 0.000444825 0.000399923);
    }
    nWall
    {
        type            compressible::alphatWallFunction;
        Prt             0.85;
        value           nonuniform List<scalar> 
14
(
0.000206186
0.000243881
0.000302375
0.000426612
0.000410975
0.000390067
0.000375774
0.000379634
0.000403512
0.000410187
0.000407306
0.0003889
0.000384829
0.000370573
)
;
    }
    sideWalls
    {
        type            empty;
    }
    glass1
    {
        type            compressible::alphatWallFunction;
        Prt             0.85;
        value           nonuniform List<scalar> 9(0.000272277 0.000329264 0.000376233 0.000421964 0.00046013 0.000465024 0.000458515 0.000505297 0.00054105);
    }
    glass2
    {
        type            compressible::alphatWallFunction;
        Prt             0.85;
        value           nonuniform List<scalar> 2(0.000391167 0.000424424);
    }
    sun
    {
        type            compressible::alphatWallFunction;
        Prt             0.85;
        value           nonuniform List<scalar> 
14
(
0.000279733
0.000311809
0.000327799
0.000346361
0.00036594
0.000376757
0.000376967
0.000367539
0.000349021
0.000327593
0.000307896
0.000286694
0.000262765
0.000241606
)
;
    }
    Table_master
    {
        type            compressible::alphatWallFunction;
        Prt             0.85;
        value           nonuniform List<scalar> 9(0.000104325 9.92481e-05 9.6198e-05 9.54476e-05 9.87711e-05 0.000105479 0.000114942 0.000127273 0.000142148);
    }
    Table_slave
    {
        type            compressible::alphatWallFunction;
        Prt             0.85;
        value           nonuniform List<scalar> 9(0.000123855 8.59654e-05 9.13877e-05 9.83082e-05 0.000104938 0.000109665 0.000111562 0.000113051 0.00011696);
    }
    inlet
    {
        type            fixedValue;
        value           uniform 1.94e-05;
    }
    outlet
    {
        type            zeroGradient;
    }
}


// ************************************************************************* //
