/*--------------------------------*- C++ -*----------------------------------*\
  =========                 |
  \\      /  F ield         | OpenFOAM: The Open Source CFD Toolbox
   \\    /   O peration     | Website:  https://openfoam.org
    \\  /    A nd           | Version:  6
     \\/     M anipulation  |
\*---------------------------------------------------------------------------*/
FoamFile
{
    version     2.0;
    format      ascii;
    class       volScalarField;
    location    "300";
    object      k;
}
// * * * * * * * * * * * * * * * * * * * * * * * * * * * * * * * * * * * * * //

dimensions      [0 2 -2 0 0 0 0];

internalField   nonuniform List<scalar> 
662
(
0.000779851
0.000786912
0.000665988
0.000713061
0.000763038
0.000810156
0.000854154
0.000895694
0.000935911
0.000976508
0.00101892
0.001059
0.00109837
0.00114148
0.00118902
0.00105513
0.000998622
0.000931571
0.000868801
0.000802551
0.000725535
0.000654846
0.000589131
0.000527855
0.000470664
0.000417129
0.000366746
0.000318929
0.000272938
0.000227538
0.000180979
0.000165521
0.000162235
0.00245508
0.00473195
0.000963018
0.000900408
0.000937345
0.000986262
0.0010383
0.00109472
0.0011572
0.00122649
0.00130211
0.00137563
0.00142933
0.00143223
0.00138244
0.0013839
0.00134501
0.00126167
0.00146288
0.0015378
0.00154502
0.00147791
0.00135233
0.00117027
0.00100527
0.000860017
0.000729918
0.000613709
0.000511222
0.000422259
0.000346915
0.000287771
0.00024995
0.000221044
0.000585993
0.000367028
0.00481512
0.0119442
0.00154629
0.00112023
0.00113144
0.00118215
0.00123592
0.00129326
0.00135699
0.0014288
0.00150784
0.00158897
0.00165791
0.00170613
0.00174677
0.00180289
0.0017993
0.00178601
0.00191753
0.00206021
0.00203338
0.00181316
0.00156008
0.00106438
0.000758716
0.000580975
0.000468632
0.000391995
0.000336558
0.000295028
0.000263743
0.000241462
0.000228844
0.000226897
0.00087165
0.00052407
0.00779354
0.0223521
0.00275132
0.00136506
0.00135399
0.00142887
0.00149578
0.00155428
0.00161052
0.00166987
0.00173595
0.00181102
0.00187344
0.00190896
0.00191565
0.00190832
0.00191528
0.00200285
0.00214192
0.00270969
0.00238997
0.0022379
0.00190074
0.00161632
0.00110174
0.000960262
0.000922455
0.000915168
0.000909027
0.000884697
0.000828654
0.000764395
0.000688512
0.000498065
0.000382028
0.00127755
0.000683626
0.0110341
0.0312319
0.005272
0.00170538
0.00159511
0.00168232
0.00176061
0.00182731
0.00189113
0.00195785
0.00202975
0.00211363
0.00218807
0.00222211
0.00220559
0.00215235
0.00210014
0.0021015
0.00216507
0.00215726
0.0023129
0.00232681
0.00200335
0.00177464
0.00163779
0.00161673
0.00164191
0.00167422
0.00168205
0.00163814
0.00152601
0.00134845
0.00115546
0.000904558
0.000669909
0.000984071
0.00147827
0.00124377
0.00129484
0.00150499
0.0155537
0.0443051
0.0123808
0.00380255
0.00235539
0.00206219
0.002021
0.00205468
0.00212389
0.00221508
0.00231837
0.0024207
0.002517
0.00255712
0.00252789
0.00243608
0.00228705
0.00208298
0.00190284
0.00189454
0.0022157
0.00248134
0.00213511
0.00191564
0.00184601
0.00188189
0.0019607
0.00204415
0.00210022
0.00209811
0.00200848
0.00179152
0.00153181
0.00124801
0.000998832
0.000957636
0.00123901
0.00131064
0.00192525
0.00161521
0.013447
0.0258595
0.0234094
0.0141225
0.00705021
0.00352446
0.00257233
0.00233554
0.00232748
0.00240354
0.00250748
0.0026222
0.00283385
0.00286993
0.00284399
0.00275944
0.00259991
0.00232094
0.0019745
0.00179358
0.00212946
0.00272212
0.00236084
0.00211843
0.00205284
0.00209865
0.00219799
0.00231453
0.00242509
0.00250402
0.00252895
0.00243437
0.00215581
0.00184062
0.00159558
0.00149262
0.0016391
0.00193193
0.0026341
0.00230093
0.00813138
0.0139986
0.0154723
0.0155006
0.0137225
0.00989939
0.00608413
0.00386111
0.00309991
0.00293784
0.00295176
0.00300915
0.00312738
0.00312011
0.00308058
0.00301407
0.00290115
0.00265862
0.00222489
0.00180887
0.0020319
0.00303144
0.00271985
0.00245645
0.00236792
0.00239014
0.0024667
0.00257193
0.00270343
0.0028699
0.00308096
0.00332827
0.00347534
0.00346063
0.00363433
0.00435986
0.00588892
0.00792797
0.0163886
0.00526223
0.00200035
0.00766071
0.0100055
0.00995746
0.0081774
0.00605153
0.00457524
0.00386235
0.0035934
0.00346864
0.00336098
0.00329072
0.00322786
0.00316817
0.00309386
0.00295365
0.0025491
0.00192633
0.00193461
0.0033626
0.00325499
0.00299306
0.00285968
0.00282186
0.00282104
0.0028425
0.0029007
0.00302366
0.00323748
0.00355395
0.00396935
0.00447534
0.0051656
0.00602025
0.00681628
0.00730594
0.00752569
0.00471976
0.00221332
0.0040124
0.0064951
0.00785011
0.00755288
0.00639185
0.00523867
0.00444302
0.00396847
0.0036814
0.00347135
0.0033705
0.00330009
0.00324745
0.0031933
0.00308025
0.00268402
0.0020542
0.00188664
0.00365648
0.00407168
0.00385653
0.00369417
0.00362183
0.00354984
0.00346117
0.0033772
0.00333844
0.00339709
0.00360689
0.00398036
0.00449694
0.00513946
0.00583947
0.00646112
0.00689391
0.00643649
0.00359177
0.0084715
0.0112705
0.00409572
0.00487814
0.0068074
0.00780559
0.00766144
0.00681465
0.00583371
0.0050295
0.00444287
0.00402674
0.00377157
0.00346366
0.00319853
0.00297176
0.00277622
0.00258082
0.00231095
0.00196659
0.00187893
0.00369295
0.00444254
0.00440551
0.00432905
0.00426649
0.00417022
0.00405413
0.00395655
0.00391504
0.00395557
0.004123
0.00444815
0.00492355
0.00551588
0.00618116
0.00696928
0.00882507
0.00507155
0.0039772
0.00539084
0.00801368
0.00909832
0.0108979
0.0119631
0.0119722
0.0105419
0.00912533
0.00783217
0.00678075
0.00599089
0.00543888
0.00385388
0.00347797
0.00314981
0.00285742
0.0025931
0.00235073
0.002122
0.00189519
0.00165805
0.00176353
0.00184917
0.00184746
0.00184748
0.00185562
0.00187141
0.00190279
0.00195964
0.00205283
0.00219788
0.00239492
0.00264424
0.00294927
0.00330841
0.00373425
0.00403249
0.00345355
0.00299554
0.00349604
0.0177393
0.0307905
0.0190062
0.0102728
0.00484956
0.00287306
0.00238981
0.00230031
0.00234642
0.00244447
0.00255849
0.00269697
0.012685
0.0153866
0.0155367
0.0149482
0.0119551
0.0078528
0.00473605
0.00335449
0.00297946
0.00293476
0.00297894
0.00304458
0.00566688
0.00913635
0.0102639
0.0092024
0.00707355
0.00520717
0.00414031
0.00369403
0.00352532
0.00342054
0.00295635
0.00528551
0.00739127
0.00787409
0.007016
0.00577954
0.00479329
0.00417425
0.00380876
0.00358158
0.0222091
0.00750195
0.00397485
0.00590157
0.00746081
0.00785764
0.00728818
0.00631299
0.00540306
0.00471142
0.0042169
0.00387509
0.0124695
0.00836524
0.01004
0.0115512
0.0121215
0.0114014
0.00981186
0.00845594
0.00727229
0.00635488
0.00568925
0.00522504
0.0149389
0.0181318
0.0197941
0.0172605
0.0122914
0.00701003
0.00388286
0.00284526
0.00262183
0.00262928
0.00269992
0.00279001
0.00839012
0.0110452
0.0116961
0.0122875
0.0124896
0.0106827
0.00770556
0.00517363
0.00383673
0.00337287
0.00326604
0.00324658
0.00351738
0.00489528
0.0077846
0.00878412
0.0079427
0.00636072
0.00502261
0.0042269
0.00383263
0.00361719
0.00206868
0.00392592
0.00612098
0.0074497
0.00737458
0.00646025
0.00544049
0.00465647
0.00412625
0.00377517
0.00853365
0.0102125
0.0061782
0.00713856
0.00858627
0.00918443
0.00858579
0.00757586
0.00649281
0.00561076
0.00497175
0.00454331
0.00730401
0.00646195
0.0071777
0.00770517
0.00772957
0.00725219
0.00619046
0.00536766
0.00472071
0.00417425
0.00371422
0.00333609
0.0157641
0.02044
0.0188446
0.0150304
0.00949693
0.00510515
0.00318145
0.00267694
0.00260604
0.00265964
0.00274126
0.00284347
0.00943525
0.0114558
0.0118584
0.0126089
0.0118267
0.00923245
0.00630397
0.00435879
0.00353267
0.00329708
0.00325416
0.00324102
0.00322884
0.00651378
0.00855414
0.00853565
0.00716792
0.005627
0.0045606
0.00399427
0.00371451
0.0035407
0.00326436
0.00506293
0.00695997
0.00756804
0.00697008
0.00593172
0.00501338
0.00436419
0.00393228
0.00366215
0.0194773
0.00803384
0.00632399
0.00794944
0.00903054
0.00896702
0.00811639
0.00701925
0.00602069
0.00526237
0.00473491
0.00437648
0.00611133
0.00685694
0.00748671
0.00778125
0.00755233
0.00682541
0.00574088
0.00503031
0.0044359
0.00393421
0.00351207
0.00318588
)
;

boundaryField
{
    floor
    {
        type            kqRWallFunction;
        value           nonuniform List<scalar> 
36
(
0.00118902
0.00105513
0.000998622
0.000931571
0.000868801
0.000802551
0.000725535
0.000654846
0.000589131
0.000527855
0.000470664
0.000417129
0.000366746
0.000318929
0.000272938
0.000227538
0.000180979
0.000165521
0.000162235
0.000162235
0.000367028
0.00052407
0.000683626
0.00124377
0.00129484
0.00150499
0.00118902
0.0013839
0.00134501
0.00126167
0.00105513
0.00126167
0.00146288
0.00178601
0.00191753
0.00214192
)
;
    }
    ceiling
    {
        type            kqRWallFunction;
        value           nonuniform List<scalar> 
58
(
0.00611133
0.00685694
0.00748671
0.00778125
0.00755233
0.00682541
0.00574088
0.00503031
0.0044359
0.00393421
0.00351207
0.00318588
0.00385388
0.00347797
0.00314981
0.00285742
0.0025931
0.00235073
0.002122
0.00189519
0.00165805
0.00176353
0.00184917
0.00184746
0.00184748
0.00185562
0.00187141
0.00190279
0.00195964
0.00205283
0.00219788
0.00239492
0.00264424
0.00294927
0.00330841
0.00373425
0.00403249
0.00345355
0.00299554
0.00349604
0.00943525
0.0114558
0.00206868
0.00539084
0.00646195
0.0071777
0.00770517
0.00772957
0.00725219
0.00619046
0.00536766
0.00472071
0.00417425
0.00371422
0.00333609
0.00813138
0.0110452
0.00221332
)
;
    }
    sWall
    {
        type            kqRWallFunction;
        value           nonuniform List<scalar> 4(0.00853365 0.00730401 0.0084715 0.00539084);
    }
    nWall
    {
        type            kqRWallFunction;
        value           nonuniform List<scalar> 6(0.00150499 0.00161521 0.00230093 0.00359177 0.0039772 0.00349604);
    }
    sideWalls
    {
        type            empty;
    }
    glass1
    {
        type            kqRWallFunction;
        value           nonuniform List<scalar> 10(0.000779851 0.00245508 0.00481512 0.00779354 0.0110341 0.0155537 0.0149389 0.00839012 0.013447 0.00813138);
    }
    glass2
    {
        type            kqRWallFunction;
        value           nonuniform List<scalar> 2(0.00526223 0.00471976);
    }
    sun
    {
        type            kqRWallFunction;
        value           nonuniform List<scalar> 
14
(
0.000779851
0.000786912
0.000665988
0.000713061
0.000763038
0.000810156
0.000854154
0.000895694
0.000935911
0.000976508
0.00101892
0.001059
0.00109837
0.00114148
)
;
    }
    Table_master
    {
        type            kqRWallFunction;
        value           nonuniform List<scalar> 9(0.00106438 0.000758716 0.000580975 0.000468632 0.000391995 0.000336558 0.000295028 0.000263743 0.000241462);
    }
    Table_slave
    {
        type            kqRWallFunction;
        value           nonuniform List<scalar> 9(0.00110174 0.000960262 0.000922455 0.000915168 0.000909027 0.000884697 0.000828654 0.000764395 0.000688512);
    }
    inlet
    {
        type            turbulentIntensityKineticEnergyInlet;
        intensity       0.05;
        value           uniform 0.0009375;
    }
    outlet
    {
        type            zeroGradient;
    }
}


// ************************************************************************* //
