/*--------------------------------*- C++ -*----------------------------------*\
  =========                 |
  \\      /  F ield         | OpenFOAM: The Open Source CFD Toolbox
   \\    /   O peration     | Website:  https://openfoam.org
    \\  /    A nd           | Version:  6
     \\/     M anipulation  |
\*---------------------------------------------------------------------------*/
FoamFile
{
    version     2.0;
    format      ascii;
    class       volScalarField;
    location    "300";
    object      nut;
}
// * * * * * * * * * * * * * * * * * * * * * * * * * * * * * * * * * * * * * //

dimensions      [0 2 -1 0 0 0 0];

internalField   nonuniform List<scalar> 
458
(
0.00117171
0.00128302
0.00132031
0.00138773
0.00145174
0.00151537
0.00158366
0.00164286
0.00168589
0.00170266
0.00168199
0.0015958
0.00141163
0.00120205
0.00102426
0.000537534
0.000630625
0.000719488
0.000755281
0.000743388
0.000696241
0.000644735
0.000598629
0.000558572
0.000523696
0.000493185
0.000466434
0.000442636
0.000420875
0.000400149
0.000379198
0.000364697
0.000333898
0.00155078
0.00362361
0.00340554
0.00391688
0.00443857
0.00493851
0.00529591
0.00567592
0.00604541
0.00635836
0.00657071
0.00662149
0.00633179
0.005553
0.00359906
0.00126947
0.00110124
0.000923171
0.00052551
0.00136176
0.00204669
0.00255264
0.00265941
0.00187388
0.00156696
0.00136596
0.00122028
0.00110972
0.00102244
0.000946785
0.000874692
0.000800732
0.000733029
0.000676415
0.000809969
0.000425379
0.00186191
0.00483602
0.0040862
0.00482218
0.00512767
0.00534647
0.00552832
0.00578984
0.00612996
0.00653737
0.00697291
0.00733331
0.00741471
0.00702782
0.00598608
0.00436365
0.00319236
0.00103591
0.000742235
0.00146815
0.00228575
0.00305323
0.0031713
0.000922752
0.000803711
0.00070554
0.000626707
0.000563581
0.000512779
0.00047184
0.000439199
0.000414641
0.000465616
0.000550466
0.000954284
0.000496304
0.00215666
0.00604147
0.0039864
0.0048766
0.00493464
0.00489971
0.0049727
0.0051729
0.00550667
0.00598806
0.00656684
0.00706671
0.00728498
0.00716176
0.00670085
0.00579656
0.00455314
0.00237287
0.00113408
0.00160902
0.0024253
0.00340117
0.00417189
0.00409914
0.00103815
0.000948575
0.00088579
0.000837354
0.000794614
0.000754578
0.000715523
0.000673967
0.000625562
0.000578897
0.000586738
0.00114543
0.000561805
0.0024547
0.00764421
0.00411195
0.00465252
0.00468802
0.00452297
0.00458071
0.0047764
0.00511971
0.00565044
0.00629426
0.0067787
0.00697521
0.00690212
0.00666142
0.00622627
0.0054638
0.00423166
0.00396219
0.00441848
0.0050572
0.00563431
0.00594552
0.005836
0.00487133
0.0043746
0.00408855
0.00387356
0.00365256
0.00333637
0.00291573
0.00241996
0.00188863
0.00140151
0.00105006
0.0010859
0.000938989
0.000749366
0.000789155
0.000853675
0.00277331
0.00945821
0.00538796
0.00442012
0.0046232
0.00455732
0.00450874
0.00468202
0.00502642
0.00557241
0.0062002
0.00666637
0.00679642
0.00667126
0.00652114
0.00643644
0.00628679
0.00602014
0.00628823
0.0068553
0.00723601
0.00734555
0.00719277
0.00682298
0.00628483
0.00583845
0.00548684
0.00517595
0.00486982
0.00453101
0.00409543
0.00355484
0.00292328
0.002265
0.00171292
0.00127628
0.00109795
0.000999374
0.0012632
0.000887917
0.00308505
0.0107971
0.00773348
0.00521485
0.00477688
0.00482348
0.00473636
0.0047984
0.00511088
0.00566283
0.00629725
0.00673534
0.00678977
0.00663896
0.00669811
0.00706982
0.00737916
0.00762458
0.00805076
0.00836672
0.0083446
0.00803294
0.0075193
0.00689889
0.00627181
0.00575277
0.00534813
0.00501262
0.00471758
0.0044573
0.00422525
0.00388077
0.00340301
0.00282924
0.00229229
0.00182341
0.00155381
0.00147901
0.00143484
0.00107295
0.00316272
0.00987124
0.00833922
0.00691185
0.00608725
0.00549227
0.00504091
0.0049856
0.00531298
0.0059082
0.00655407
0.00693566
0.00690025
0.00687775
0.00743108
0.00796724
0.00827406
0.00851539
0.00870949
0.00865538
0.00825442
0.00759817
0.00680804
0.00601143
0.00533196
0.00483221
0.00447571
0.00420927
0.00401001
0.00387661
0.0038123
0.00378315
0.003583
0.00323953
0.00295349
0.00284149
0.00300865
0.00331692
0.00406926
0.00164417
0.00310135
0.00374183
0.00419546
0.0043708
0.00434475
0.00433537
0.00452277
0.0049597
0.00559287
0.00632238
0.00694613
0.00717017
0.00707876
0.00739958
0.00791765
0.00817522
0.00828162
0.00830125
0.00815364
0.0077381
0.00704657
0.00618926
0.00533085
0.00461168
0.00408976
0.00373104
0.00347048
0.00326507
0.00309561
0.00295249
0.00282767
0.00271418
0.00262508
0.00255805
0.00252591
0.0025145
0.00246226
0.00232896
0.00216194
0.00150882
0.00151375
0.00258958
0.00356517
0.00445302
0.00530329
0.00600024
0.00657343
0.00702445
0.00725534
0.00729181
0.00722645
0.00736552
0.00737087
0.00728056
0.0071517
0.00693096
0.00653966
0.00595939
0.00526796
0.00457091
0.00399571
0.00358264
0.0032968
0.00308699
0.00291807
0.00277532
0.00265724
0.00256906
0.00251893
0.00250626
0.00251208
0.00252613
0.00253184
0.00249496
0.00237014
0.00214783
0.00185919
0.00121279
0.00215783
0.00447713
0.00585794
0.00678489
0.00703679
0.00672584
0.00656492
0.00619168
0.005858
0.00581466
0.00577605
0.00564496
0.00548937
0.00534703
0.00518129
0.00494312
0.00461369
0.00422284
0.00382782
0.00347327
0.00319871
0.00299772
0.00284874
0.00273537
0.00264972
0.00258865
0.00254912
0.00252454
0.00253276
0.00257118
0.00263247
0.00270434
0.00276652
0.00280305
0.00277083
0.0027264
0.00236828
0.00122882
0.00226203
0.00231101
0.00235817
0.00264177
0.00238735
0.00198447
0.00163783
0.00146853
0.00133202
0.00123032
0.00115044
0.00108554
0.00103856
0.00100745
0.000985467
0.000965934
0.000943915
0.000917029
0.000886408
0.000856452
0.000832424
0.000818065
0.000810979
0.000810172
0.000814939
0.00082498
0.000840391
0.000861609
0.000889512
0.000925762
0.00096898
0.00101955
0.00107743
0.00114268
0.00121481
0.00130868
0.00134037
0.00131005
0.00121975
0.00112508
)
;

boundaryField
{
    floor
    {
        type            nutkWallFunction;
        Cmu             0.09;
        kappa           0.41;
        E               9.8;
        value           nonuniform List<scalar> 
36
(
0.00012356
6.44993e-05
7.617e-05
8.71165e-05
9.14792e-05
9.00325e-05
8.42695e-05
7.79199e-05
7.2184e-05
6.71569e-05
6.27439e-05
5.88534e-05
5.54177e-05
5.23404e-05
4.95082e-05
4.67934e-05
4.40308e-05
4.21072e-05
3.79879e-05
3.79878e-05
5.00947e-05
5.92508e-05
6.75622e-05
9.07581e-05
9.5584e-05
0.000103349
0.00012356
0.000151959
0.000132551
0.000111635
6.44993e-05
0.000111635
6.29742e-05
0.000124927
8.98904e-05
0.000136366
)
;
    }
    ceiling
    {
        type            nutkWallFunction;
        Cmu             0.09;
        kappa           0.41;
        E               9.8;
        value           nonuniform List<scalar> 
43
(
0.000261513
0.000266765
0.000271811
0.000302047
0.000275075
0.000231655
0.000193513
0.000174567
0.000159111
0.000147479
0.000138267
0.00013073
0.000125241
0.000121591
0.000119004
0.0001167
0.000114095
0.000110906
0.000107261
0.00010368
0.000100797
9.90697e-05
9.82161e-05
9.81189e-05
9.86936e-05
9.99024e-05
0.000101754
0.000104298
0.000107631
0.000111943
0.000117059
0.000123013
0.000129785
0.00013737
0.000145698
0.000156454
0.000160065
0.00015661
0.000146267
0.00013533
0.000350573
0.000416563
0.000250205
)
;
    }
    sWall
    {
        type            nutkWallFunction;
        Cmu             0.09;
        kappa           0.41;
        E               9.8;
        value           uniform 0.000261585;
    }
    nWall
    {
        type            nutkWallFunction;
        Cmu             0.09;
        kappa           0.41;
        E               9.8;
        value           nonuniform List<scalar> 6(0.000103351 0.000107445 0.000129268 0.000145479 0.000147322 0.00013534);
    }
    sideWalls
    {
        type            empty;
    }
    glass1
    {
        type            nutkWallFunction;
        Cmu             0.09;
        kappa           0.41;
        E               9.8;
        value           nonuniform List<scalar> 9(0.000140869 0.000184062 0.000218625 0.000250788 0.000282835 0.000316642 0.00034933 0.000357432 0.00035106);
    }
    glass2
    {
        type            nutkWallFunction;
        Cmu             0.09;
        kappa           0.41;
        E               9.8;
        value           nonuniform List<scalar> 2(0.000194341 0.0001792);
    }
    sun
    {
        type            nutkWallFunction;
        Cmu             0.09;
        kappa           0.41;
        E               9.8;
        value           nonuniform List<scalar> 
14
(
0.000140722
0.000153509
0.000157764
0.000165426
0.000172662
0.000179821
0.000187467
0.000194066
0.000198846
0.000200705
0.000198413
0.000188821
0.000168132
0.000144218
)
;
    }
    Table_master
    {
        type            nutkWallFunction;
        Cmu             0.09;
        kappa           0.41;
        E               9.8;
        value           nonuniform List<scalar> 9(0.000111584 9.73427e-05 8.54113e-05 7.56869e-05 6.77936e-05 6.13629e-05 5.61236e-05 5.19056e-05 4.87062e-05);
    }
    Table_slave
    {
        type            nutkWallFunction;
        Cmu             0.09;
        kappa           0.41;
        E               9.8;
        value           nonuniform List<scalar> 9(0.00012519 0.000114646 0.000107188 0.000101392 9.62448e-05 9.13939e-05 8.66323e-05 8.15317e-05 7.55425e-05);
    }
    inlet
    {
        type            calculated;
        value           uniform 0.000167705;
    }
    outlet
    {
        type            calculated;
        value           nonuniform List<scalar> 2(0.00226203 0.00231101);
    }
}


// ************************************************************************* //
