/*--------------------------------*- C++ -*----------------------------------*\
  =========                 |
  \\      /  F ield         | OpenFOAM: The Open Source CFD Toolbox
   \\    /   O peration     | Website:  https://openfoam.org
    \\  /    A nd           | Version:  6
     \\/     M anipulation  |
\*---------------------------------------------------------------------------*/
FoamFile
{
    version     2.0;
    format      ascii;
    class       volScalarField;
    location    "300";
    object      nut;
}
// * * * * * * * * * * * * * * * * * * * * * * * * * * * * * * * * * * * * * //

dimensions      [0 2 -1 0 0 0 0];

internalField   nonuniform List<scalar> 
778
(
0.0016605
0.00185154
0.0020186
0.00194826
0.00527255
0.00231752
0.00205758
0.00557362
0.00758996
0.00261895
0.00216843
0.00650185
0.00732332
0.00978387
0.00291678
0.00224602
0.00721321
0.00788532
0.00895987
0.0118812
0.00301913
0.00225509
0.0074742
0.00818033
0.009065
0.0113976
0.0122347
0.00301036
0.00220027
0.0074155
0.00794044
0.00849474
0.0100395
0.0112851
0.00744708
0.00308584
0.0020894
0.00717132
0.00750935
0.00757859
0.00838798
0.00911218
0.00729467
0.0044988
0.00322913
0.00192715
0.006774
0.00706446
0.00688385
0.00714479
0.00748132
0.0067274
0.00501322
0.0103816
0.00236811
0.00180289
0.00639351
0.00669437
0.00634982
0.00628429
0.00634922
0.00601904
0.0056336
0.0102007
0.00318591
0.00187691
0.00167353
0.00607115
0.00642301
0.00595719
0.00567144
0.00554264
0.00529207
0.00513451
0.00726148
0.00256757
0.0013938
0.00222719
0.00152343
0.00576558
0.00622876
0.00568367
0.00523481
0.00496401
0.00467213
0.00433705
0.00333633
0.00122211
0.000455289
0.00289764
0.00248417
0.00139636
0.0054542
0.00610317
0.00551437
0.00493387
0.00456226
0.00423524
0.00378398
0.00265273
0.000929336
0.000306822
0.000481978
0.0051812
0.00276546
0.00125637
0.00472113
0.0060276
0.00544615
0.00474436
0.00429318
0.00397355
0.00357799
0.00297473
0.00267376
0.000724486
0.000218632
0.000600096
0.00589111
0.00268303
0.0034495
0.00577829
0.00547385
0.00465696
0.00412082
0.00383146
0.0036082
0.0037513
0.00449551
0.00292953
0.000511801
0.000191056
0.00047049
0.00272193
0.00159126
0.00512561
0.00550729
0.00467325
0.00402562
0.00375495
0.00373116
0.00448939
0.00581677
0.00564466
0.00280752
0.000269585
0.000219284
0.000438878
0.00144442
0.00402001
0.00537827
0.0047747
0.00400564
0.00371261
0.00385759
0.00496198
0.00646451
0.00696037
0.00613427
0.00242409
0.0001464
0.000222151
0.000195781
0.00124977
0.00338214
0.0049795
0.00488811
0.00408688
0.00369293
0.00395144
0.00517993
0.0065968
0.00742492
0.00738739
0.00655952
0.00190767
0.000147524
0.00012629
0.00274355
0.0014528
0.00442217
0.00488518
0.00425482
0.00374543
0.0039949
0.00520795
0.00642479
0.00726521
0.00773857
0.00785835
0.00694268
0.00146551
0.000124925
0.00594281
0.00563883
0.00276836
0.00465159
0.00441749
0.00387822
0.0039436
0.00508142
0.00608994
0.0068028
0.00745975
0.00809276
0.00839666
0.00737088
0.00230231
0.00638735
0.00660227
0.00666194
0.00724168
0.0015605
0.00373076
0.00444583
0.00405364
0.00392768
0.00457051
0.00564419
0.00623186
0.00693494
0.00775149
0.0085243
0.00888498
0.00781697
0.00649673
0.00757139
0.00814247
0.00300758
0.00576727
0.001972
0.00110118
0.00269843
0.00407426
0.00418324
0.00399135
0.00425892
0.00498557
0.00565953
0.00635374
0.00726298
0.00813306
0.00882781
0.00908693
0.00854854
0.00791457
0.00818228
0.00195581
0.00280719
0.00208906
0.000685414
0.00129777
0.00208122
0.00342014
0.00409682
0.00408588
0.0041507
0.00456155
0.00516825
0.00581265
0.00676831
0.00772714
0.00838347
0.00871241
0.00854612
0.00806125
0.00804081
0.00194527
0.00252435
0.000655642
0.00177568
0.00143893
0.00181285
0.00285251
0.00375839
0.00409161
0.00415735
0.00437599
0.00482285
0.00539464
0.00631262
0.0073841
0.00808321
0.00826239
0.00806797
0.00787383
0.00786487
0.00192384
0.000579096
0.00133621
0.00173328
0.00160136
0.00168986
0.00243503
0.00333854
0.00392818
0.00416475
0.00432631
0.00464452
0.00513585
0.00594373
0.00708221
0.00792678
0.0080791
0.00778287
0.00767792
0.0076213
0.00188901
0.000626978
0.0013978
0.00154931
0.0014236
0.00166786
0.00215003
0.00294066
0.00364742
0.00407761
0.00431936
0.00457697
0.00500205
0.00569951
0.0068193
0.0078362
0.00807894
0.00772396
0.00758995
0.00736812
0.00186334
0.000648722
0.00147758
0.00102687
0.000710029
0.00159973
0.00197005
0.00261115
0.00332479
0.00388918
0.00426354
0.00456561
0.00495012
0.00557587
0.00661492
0.00776346
0.00816916
0.00780155
0.0076002
0.00724994
0.00186039
0.000664988
0.00152541
0.00060036
0.000517399
0.00134819
0.00183627
0.00235729
0.00301676
0.00364049
0.0041307
0.00452336
0.00493653
0.00552863
0.00650166
0.00769314
0.00828836
0.00795888
0.00766706
0.00726113
0.00186703
0.000676769
0.0016033
0.000570354
0.000546388
0.00132433
0.00168589
0.00216149
0.00274962
0.00337731
0.00394025
0.00442138
0.00490754
0.00551899
0.00646456
0.0076574
0.008395
0.00815661
0.00776301
0.00735948
0.00188041
0.000686369
0.00167802
0.000555951
0.000582379
0.00141721
0.00160072
0.00199715
0.00252758
0.00312944
0.00372457
0.00427404
0.00482917
0.00551073
0.00647755
0.00768051
0.00848262
0.00835629
0.00786684
0.00750883
0.00189723
0.000694347
0.0016993
0.000558129
0.000616309
0.00165188
0.00158456
0.00187289
0.00234327
0.00291054
0.00351016
0.00410308
0.00472204
0.005484
0.00651824
0.00775542
0.00859786
0.00851952
0.00795931
0.007677
0.0019149
0.000701249
0.00168383
0.000579191
0.000637889
0.0019478
0.00164121
0.00179127
0.00219472
0.00272358
0.00331334
0.00393059
0.00460366
0.00544875
0.00657754
0.00787219
0.00874362
0.00866999
0.0080234
0.00783409
0.00193163
0.000708308
0.00164778
0.000611637
0.000641849
0.00210707
0.00175197
0.00175043
0.00208084
0.00256905
0.00314242
0.00377323
0.00449486
0.0054272
0.0066629
0.00802602
0.00891343
0.00882287
0.00806229
0.00795299
0.00194654
0.000716454
0.00160758
0.000656552
0.000642377
0.00210476
0.0018648
0.00173971
0.00199953
0.00244717
0.0030021
0.00364307
0.00441527
0.00544395
0.0067912
0.00821738
0.00909995
0.00897012
0.00810587
0.00801572
0.00195976
0.000726315
0.00156804
0.000716184
0.000651659
0.00201487
0.00192257
0.00174126
0.00194677
0.00235842
0.00289664
0.00355071
0.00438274
0.00551834
0.00697618
0.00844679
0.00929482
0.00910003
0.0081485
0.00804792
0.00197249
0.000737969
0.00154245
0.000790337
0.00163134
0.00191492
0.00192929
0.00175901
0.00191882
0.00230442
0.0028321
0.00350832
0.00441571
0.00567135
0.00722188
0.00870581
0.00948503
0.00919809
0.00817182
0.00807202
0.0019826
0.000751664
0.00156963
0.00200397
0.0023386
0.00203203
0.00194538
0.00180589
0.00192168
0.00229068
0.00281926
0.00353318
0.00453262
0.00591109
0.00752706
0.00897335
0.00964789
0.00924436
0.00815005
0.00807559
0.00198599
0.000767281
0.0017208
0.00222372
0.00224767
0.00233076
0.00207909
0.00192132
0.00199534
0.00232772
0.00287837
0.00365022
0.00475148
0.00622631
0.0078763
0.00921883
0.00975006
0.0092101
0.00805028
0.00803193
0.00198087
0.000783815
0.00157338
0.00180995
0.00112217
0.00246737
0.00238663
0.00217926
0.00219609
0.00248244
0.00304405
0.00389065
0.00508341
0.00659917
0.00819522
0.00940483
0.00975484
0.00905969
0.0078365
0.00789953
0.00196538
0.000799691
0.00128417
0.00104815
0.00262697
0.00265889
0.00259526
0.00259332
0.00282767
0.00335827
0.00427774
0.00552157
0.00700151
0.00846629
0.00949073
0.00963645
0.0087672
0.00748873
0.00762265
0.0019399
0.000827109
0.000980603
0.00118684
0.00245049
0.00285648
0.00312197
0.00340243
0.00389042
0.0047817
0.00603001
0.00739651
0.00867022
0.00947139
0.00939245
0.00834843
0.00703669
0.0072097
0.00191197
0.000878591
0.00130746
0.00229935
0.00241722
0.00325798
0.00399855
0.00458556
0.00538063
0.00654022
0.00774024
0.00879174
0.00935422
0.00905376
0.00785483
0.00661668
0.00677238
0.00188816
0.00122946
0.00341108
0.00217229
0.00250378
0.00385575
0.00506306
0.00595574
0.00695256
0.00798009
0.00881397
0.00914972
0.00865666
0.00738317
0.00631272
0.00643812
0.00187115
0.00146743
0.00413677
0.00251898
0.0028438
0.00446329
0.00603085
0.00716737
0.00804406
0.00870212
0.0088566
0.00822181
0.00697062
0.00613978
0.00629352
0.00186902
0.0018458
0.00591049
0.00333007
0.00334347
0.00488321
0.00679636
0.00779956
0.00836862
0.00842305
0.00773366
0.00660633
0.00607031
0.00634992
0.00188469
0.00246942
0.00788389
0.00493621
0.00381733
0.00537278
0.00695257
0.00763743
0.00768376
0.00710147
0.00624936
0.00602267
0.00654575
0.00191418
0.00271038
0.00642878
0.00494542
0.00411766
0.00542045
0.00639593
0.00644846
0.00617491
0.00584295
0.00593322
0.00675162
0.0019511
0.00269231
0.00571903
0.00492297
0.00441614
0.00509025
0.00510057
0.00506432
0.00535073
0.00581314
0.00684272
0.0019912
0.00257705
0.00565563
0.00506537
0.00460039
0.00449372
0.00435802
0.00486903
0.00570977
0.00687266
0.00203397
0.00243428
0.00638898
0.00543127
0.00477695
0.00434998
0.00463082
0.00567859
0.00691885
0.00207318
0.00238537
0.00643396
0.00607028
0.00492187
0.00474197
0.00576944
0.00703257
0.00211693
0.00253805
0.00664043
0.00617159
0.00510755
0.00600546
0.00725295
0.00217328
0.00258481
0.00699407
0.0055252
0.00635912
0.00760231
0.00224366
0.00252592
0.00561
0.00668759
0.00805778
0.00232353
0.00241713
0.00668354
0.00859823
0.00240667
0.00245732
0.00734111
0.00249659
0.00276472
0.00258395
0.00251479
)
;

boundaryField
{
    floor
    {
        type            nutkWallFunction;
        Cmu             0.09;
        kappa           0.41;
        E               9.8;
        value           nonuniform List<scalar> 
36
(
0.000150404
6.97629e-05
7.57431e-05
7.84419e-05
8.04527e-05
8.19049e-05
8.30858e-05
8.40653e-05
8.49114e-05
8.57755e-05
8.67712e-05
8.7975e-05
8.93949e-05
9.10603e-05
9.2955e-05
9.49552e-05
9.68694e-05
0.000100167
0.000106332
0.000106332
0.000118431
0.000126364
0.00013499
0.000142461
0.00015628
0.00014735
0.000150404
0.000188222
0.00017176
0.000149646
6.97629e-05
0.000149646
7.92815e-05
0.000172704
8.29398e-05
0.000184786
)
;
    }
    ceiling
    {
        type            nutkWallFunction;
        Cmu             0.09;
        kappa           0.41;
        E               9.8;
        value           nonuniform List<scalar> 
43
(
0.00028969
0.000242974
0.000230244
0.00022848
0.000227333
0.000224994
0.000221181
0.00021836
0.00021803
0.000218753
0.000220217
0.000222059
0.000223995
0.00022583
0.000227464
0.000228912
0.000230308
0.000231421
0.000231806
0.00023127
0.000229608
0.000226847
0.000223781
0.000221162
0.000219264
0.000218982
0.000220658
0.000223872
0.000227916
0.000232307
0.000237003
0.000241308
0.000246065
0.000252156
0.000259743
0.000268329
0.000277239
0.000286849
0.000296188
0.000288811
0.000306179
0.000310269
0.000312714
)
;
    }
    sWall
    {
        type            nutkWallFunction;
        Cmu             0.09;
        kappa           0.41;
        E               9.8;
        value           nonuniform List<scalar> 9(0.000272844 0.000219769 0.000257761 0.000285235 0.000314965 0.000306297 0.0003406 0.000319635 0.000289793);
    }
    nWall
    {
        type            nutkWallFunction;
        Cmu             0.09;
        kappa           0.41;
        E               9.8;
        value           nonuniform List<scalar> 
14
(
0.000147369
0.00017442
0.000216472
0.000307484
0.00029529
0.000280143
0.000275052
0.000291283
0.000296227
0.000289588
0.00027821
0.000282855
0.000315399
0.000288858
)
;
    }
    sideWalls
    {
        type            empty;
    }
    glass1
    {
        type            nutkWallFunction;
        Cmu             0.09;
        kappa           0.41;
        E               9.8;
        value           nonuniform List<scalar> 9(0.000196287 0.000235722 0.000268057 0.000300218 0.000331614 0.000342331 0.000341428 0.000349235 0.000364028);
    }
    glass2
    {
        type            nutkWallFunction;
        Cmu             0.09;
        kappa           0.41;
        E               9.8;
        value           nonuniform List<scalar> 2(0.000284095 0.000309642);
    }
    sun
    {
        type            nutkWallFunction;
        Cmu             0.09;
        kappa           0.41;
        E               9.8;
        value           nonuniform List<scalar> 
14
(
0.000195954
0.000217028
0.000227609
0.000239503
0.000251496
0.000259848
0.000260818
0.000254916
0.000242932
0.000225288
0.000211664
0.000197374
0.000180643
0.000166335
)
;
    }
    Table_master
    {
        type            nutkWallFunction;
        Cmu             0.09;
        kappa           0.41;
        E               9.8;
        value           nonuniform List<scalar> 9(7.24462e-05 6.86883e-05 6.68733e-05 6.71445e-05 6.97914e-05 7.38478e-05 7.94195e-05 8.67449e-05 9.57507e-05);
    }
    Table_slave
    {
        type            nutkWallFunction;
        Cmu             0.09;
        kappa           0.41;
        E               9.8;
        value           nonuniform List<scalar> 9(8.5937e-05 6.199e-05 6.56688e-05 7.01961e-05 7.4431e-05 7.71061e-05 7.75938e-05 7.76573e-05 7.8803e-05);
    }
    inlet
    {
        type            calculated;
        value           uniform 0.000528271;
    }
    outlet
    {
        type            calculated;
        value           nonuniform List<scalar> 2(0.00300758 0.00666194);
    }
}


// ************************************************************************* //
