/*--------------------------------*- C++ -*----------------------------------*\
  =========                 |
  \\      /  F ield         | OpenFOAM: The Open Source CFD Toolbox
   \\    /   O peration     | Website:  https://openfoam.org
    \\  /    A nd           | Version:  6
     \\/     M anipulation  |
\*---------------------------------------------------------------------------*/
FoamFile
{
    version     2.0;
    format      ascii;
    class       surfaceScalarField;
    location    "300";
    object      phi;
}
// * * * * * * * * * * * * * * * * * * * * * * * * * * * * * * * * * * * * * //

dimensions      [1 0 -1 0 0 0 0];

internalField   nonuniform List<scalar> 
1482
(
-0.00411273
0.00417982
-0.00608833
0.00197551
-0.00707305
0.000984631
-0.00717467
0.000101528
-0.00633981
-0.000834955
-0.00480491
-0.001535
-0.00293174
-0.00187327
-0.00104701
-0.00188483
0.000608238
-0.00165536
0.00187559
-0.00126746
0.00270771
-0.000832235
0.0031088
-0.000401193
0.00304082
6.7866e-05
0.00229802
0.000742709
0.00230413
-0.0017608
0.00176962
-0.00262166
0.000860457
-0.0031988
0.000576829
-0.00364396
0.000444907
-0.00394965
0.000305491
-0.0041186
0.000168797
-0.00420945
9.07333e-05
-0.00425358
4.4053e-05
-0.00426794
1.43074e-05
-0.00426144
-6.5108e-06
-0.00423951
-2.19242e-05
-0.0042023
-3.71765e-05
-0.00412051
-8.17363e-05
-0.00388574
-0.000234703
-0.00338803
-0.000497624
-0.00267224
-0.000715684
-0.00154176
-0.00113036
-0.00153415
-0.00281985
0.00718348
-0.00434482
0.00350039
-0.00513081
0.00177053
-0.00506857
3.91989e-05
-0.00409354
-0.00181008
-0.0026267
-0.00300192
-0.000999944
-0.00350012
0.000523277
-0.00340815
0.00178169
-0.00291388
0.002745
-0.0022309
0.00341337
-0.00150072
0.00378417
-0.000772111
0.00388876
-3.68496e-05
0.00388935
0.000742008
0.00471644
0.00147694
0.00344023
0.00128637
0.00200048
0.0014508
0.00203166
-0.000987666
0.00278244
-0.00155758
0.00142986
-0.00202835
0.00104717
-0.00249633
0.000912528
-0.00285822
0.000667072
-0.00297065
0.000280968
-0.00301925
0.000139123
-0.00303931
6.39644e-05
-0.00303589
1.07849e-05
-0.00301782
-2.46296e-05
-0.00299672
-4.30149e-05
-0.00297838
-5.54577e-05
-0.00295881
-0.000101217
-0.00285341
-0.000339984
-0.00240282
-0.000948085
-0.00190302
-0.00121533
-0.00134451
-0.00168871
-0.00285786
-0.00185896
0.00932674
-0.00286769
0.00450904
-0.00323833
0.00214108
-0.00276313
-0.000436096
-0.00151785
-0.00305544
-9.13402e-05
-0.00442851
0.00124271
-0.00483425
0.00235122
-0.00451677
0.003255
-0.00381777
0.00394921
-0.00292522
0.0044197
-0.00197134
0.00467766
-0.00103021
0.00477462
-0.000133934
0.0047984
0.000718105
0.00477562
0.00149961
0.00404353
0.00201835
0.00272399
0.00277024
0.00478313
0.000242507
0.00258059
-2.40041e-05
0.00169574
-0.000486915
0.00150953
-0.00101673
0.00144186
-0.0017373
0.00138718
-0.00145664
-0.00131783
-0.00125416
-0.00124362
-0.00126837
-0.00131135
-0.00136664
-0.0014676
-0.00180728
-0.00103089
-0.00172431
-0.000588992
-0.00165704
-0.000326749
-0.00195076
-0.0031519
-0.00124781
0.0109455
-0.00169846
0.0049596
-0.00124639
0.00168892
6.08481e-05
-0.00174342
0.00146737
-0.00446202
0.0026529
-0.00561411
0.00359788
-0.00577931
0.00435408
-0.00527306
0.00492467
-0.00438848
0.00532367
-0.00332435
0.00556055
-0.00220835
0.00564956
-0.00111936
0.00561915
-0.000103662
0.00550595
0.000831166
0.00532162
0.00168381
0.00493923
0.00240061
0.00458371
0.00312565
0.00569934
0.00366739
0.00313496
0.0025953
0.00302769
0.00268744
0.00228104
0.00244184
0.00165665
0.00213334
0.00122567
0.00187227
0.00111222
0.00150009
-3.7758e-05
0.00114939
-0.000606159
0.000568209
-0.000923439
0.000317133
-0.00103272
0.000109163
-0.00098362
-4.91942e-05
-0.000823437
-0.000160246
-0.000551381
-0.000272093
-9.25925e-05
-0.000458803
0.000711104
-0.000803679
0.000403839
-0.00141686
0.000527719
-0.00178072
0.000656159
-0.002079
-0.00245258
-0.000853287
0.0122479
-0.000431657
0.00453788
0.00137984
-0.000122684
0.00328857
-0.00365222
0.00452505
-0.00569856
0.00538351
-0.00647263
0.0059225
-0.00631838
0.00623733
-0.005588
0.00640008
-0.00455136
0.00646018
-0.00338459
0.00644451
-0.00219283
0.00636392
-0.00103892
0.00621815
4.19567e-05
0.00602431
0.00102486
0.00581611
0.00189186
0.0056073
0.00260929
0.00551447
0.00321835
0.00554095
0.0036408
0.00475781
0.00337832
0.00432565
0.00311935
0.00386169
0.00290542
0.00339925
0.00259529
0.00301177
0.00225922
0.00263487
0.00187643
0.00229888
0.00148487
0.00181392
0.00105278
0.00142156
0.000709204
0.00110014
0.000430379
0.000877524
0.000173319
0.000814161
-9.68897e-05
0.000916482
-0.000374362
0.00113336
-0.000675579
0.00135693
-0.00102711
0.00137794
-0.00143769
0.00138287
-0.00178545
0.00134548
-0.00204141
0.00107431
-0.00218121
0.00237777
-0.00125557
0.00285184
-0.000428834
0.00301115
0.00125355
0.0115281
0.00279265
0.00299868
0.00537626
-0.00270638
0.00692906
-0.00520507
0.00770592
-0.00647546
0.00793735
-0.00670412
0.00782407
-0.00620519
0.00753968
-0.00530374
0.00720444
-0.00421626
0.00688996
-0.00307025
0.00662529
-0.00192832
0.00640057
-0.00081436
0.00618291
0.00025945
0.00596645
0.00124116
0.00576937
0.00208878
0.00560057
0.00277794
0.00548859
0.00333019
0.00543397
0.00369528
0.0052071
0.00360507
0.00491427
0.003412
0.00462419
0.00319523
0.00432423
0.0028949
0.0040381
0.0025449
0.00375822
0.00215583
0.00349109
0.0017515
0.00319008
0.00135333
0.00291015
0.000988724
0.00267876
0.000661428
0.00249732
0.000354493
0.00236331
3.69368e-05
0.00229342
-0.000304556
0.00227874
-0.00066091
0.00227611
-0.0010244
0.00221903
-0.00138047
0.0021101
-0.00167634
0.0019318
-0.00186293
0.00160531
-0.00185453
0.00156483
-0.00121491
0.00114717
-1.10238e-05
0.00427958
0.00829331
0.00385623
0.0110431
0.000248812
0.0111088
-0.00277211
0.0108871
-0.00498346
0.0103687
-0.00595699
0.00951986
-0.00585538
0.00852665
-0.0052121
0.0075624
-0.00433964
0.00673486
-0.0033889
0.00610057
-0.00243614
0.00566783
-0.00149576
0.00538738
-0.000534096
0.00520189
0.000444763
0.0050826
0.00136027
0.00500962
0.0021616
0.0049679
0.00281949
0.00496691
0.00333103
0.00500895
0.0036531
0.0049554
0.00365849
0.00483861
0.00352863
0.00470965
0.00332399
0.00456619
0.00303808
0.00441473
0.00269602
0.00425385
0.00231632
0.00408285
0.00192208
0.00390296
0.0015328
0.00372955
0.00116173
0.00357813
0.00081248
0.00345508
0.000477244
0.0033476
0.000144169
0.00324167
-0.000198787
0.00313346
-0.000552764
0.00301454
-0.000905469
0.00287026
-0.0012361
0.00270424
-0.00151019
0.00252383
-0.00168236
0.00231243
-0.00164297
0.00215326
-0.00105559
0.00162551
0.000516876
0.00602619
0.0136512
-0.00901371
0.0158671
-0.00196702
0.0134461
-0.000350993
0.0112951
-0.00283229
0.00959365
-0.00425561
0.00803281
-0.00429468
0.00662286
-0.00380234
0.00541993
-0.00313692
0.00448293
-0.00245212
0.00384436
-0.00179778
0.00349314
-0.00114474
0.00338113
-0.000422282
0.00343118
0.000394535
0.00356033
0.00123095
0.00371521
0.00200655
0.00387185
0.00266269
0.00403259
0.00317014
0.00419319
0.00349236
0.00428288
0.00356866
0.00432265
0.00348871
0.00433844
0.00330802
0.00433171
0.0030446
0.0043041
0.00272337
0.00425461
0.0023655
0.00418483
0.00199152
0.00409977
0.00161751
0.00400702
0.00125414
0.00391422
0.000904961
0.00382394
0.000567247
0.00373097
0.000236925
0.00362364
-9.16071e-05
0.00349107
-0.000420261
0.0033287
-0.00074309
0.0031396
-0.00104694
0.00294312
-0.0013136
0.00277144
-0.00151056
0.00262453
-0.00149593
0.0024061
-0.000837037
0.00184225
0.00108086
0.00834218
-0.00109466
-0.0069683
-0.00106062
-0.00200111
0.000506778
-0.00191846
0.00208837
-0.00441408
0.00296452
-0.00513208
0.00291045
-0.00424093
0.00244186
-0.00333405
0.00190988
-0.00260523
0.00149816
-0.00204063
0.00127385
-0.00157369
0.00123819
-0.00110928
0.00138525
-0.000569528
0.00165713
0.000122494
0.0019662
0.000921714
0.00228183
0.00169077
0.00258481
0.00235955
0.00287102
0.00288378
0.00313907
0.00322417
0.0033557
0.00335189
0.00352667
0.0033176
0.00366471
0.00316983
0.003772
0.00293712
0.00384928
0.00264589
0.0038963
0.00231824
0.00391458
0.00197297
0.00390747
0.00162434
0.00387964
0.0012817
0.00383524
0.000949119
0.00377539
0.000626879
0.00369726
0.000314899
0.0035904
1.5145e-05
0.00344389
-0.000273789
0.00325284
-0.000552022
0.00302032
-0.000814364
0.00276168
-0.00105488
0.00251394
-0.00126272
0.00238712
-0.00136902
0.00181381
-0.000263649
0.000200246
0.00269455
0.00904464
-0.00488145
-0.00181864
-0.00443905
-0.00244369
-0.00251042
-0.0038473
-0.000749354
-0.00617545
0.000307981
-0.00618978
0.000449916
-0.00438321
0.000212004
-0.00309644
-3.68984e-05
-0.00235657
-0.000185679
-0.00189206
-0.000230618
-0.00152894
-0.000183796
-0.00115628
-4.14263e-05
-0.000712066
0.000211156
-0.000130248
0.00054576
0.000586954
0.000913286
0.00132309
0.00128481
0.00198787
0.00164103
0.00252741
0.00198648
0.00287858
0.00229622
0.00304201
0.00256604
0.00304764
0.00280031
0.00293542
0.00299899
0.00273828
0.00316179
0.00248291
0.00328822
0.00219161
0.00337878
0.0018822
0.00343532
0.00156758
0.00346056
0.00125626
0.00345658
0.000952918
0.00342337
0.000659953
0.00335804
0.000380129
0.00325451
0.000118628
0.00310304
-0.00012232
0.00289249
-0.000341447
0.00261361
-0.000535433
0.00225063
-0.00069183
0.00173312
-0.000745131
0.000491864
-0.000127692
-0.00184377
0.00207197
-0.00326236
0.00411322
0.00590745
-0.00341873
0.00191625
-0.00425344
-0.00160916
-0.00333447
-0.00476648
-0.00212847
-0.00738175
-0.00131153
-0.0070071
-0.00104393
-0.00465113
-0.0010639
-0.00307672
-0.00113729
-0.0022834
-0.00119088
-0.00183867
-0.00121331
-0.00150668
-0.00119661
-0.00117314
-0.00113009
-0.000778751
-0.000976386
-0.000284102
-0.000715616
0.000326034
-0.000376097
0.000983421
1.26062e-05
0.00159902
0.000417088
0.00212279
0.000815128
0.00248041
0.00118617
0.00267084
0.00152418
0.0027095
0.00182906
0.0026304
0.00209646
0.00247075
0.00232514
0.00225408
0.00251338
0.00200322
0.00266029
0.00173513
0.00276667
0.00146106
0.00283394
0.00118884
0.00286326
0.00092349
0.0028546
0.000668526
0.00280653
0.000428163
0.00271624
0.000208907
0.00257353
2.04025e-05
0.00236299
-0.000130887
0.00206144
-0.000233842
0.00161687
-0.000247211
0.000880105
-8.30671e-06
-0.000442149
0.00119458
-0.00151273
0.00314252
-0.00165936
0.00425984
0.00439148
-0.00245717
0.00470623
-0.00369492
-0.000371557
-0.00334518
-0.00511637
-0.00261037
-0.0081168
-0.00199047
-0.00762735
-0.00176358
-0.00487831
-0.00176848
-0.00307207
-0.0018515
-0.00220058
-0.00194064
-0.00174971
-0.00201347
-0.00143403
-0.00205694
-0.00112984
-0.00205573
-0.000780117
-0.00198441
-0.000355574
-0.00181211
0.000153592
-0.00153966
0.000710829
-0.00119031
0.00124954
-0.000785031
0.00171738
-0.000360949
0.0020562
5.76273e-05
0.00225214
0.000450059
0.00231695
0.000804705
0.00227564
0.00111993
0.00215541
0.0013964
0.00197749
0.0016303
0.00176921
0.00181932
0.00154599
0.00196424
0.00131603
0.00206594
0.00108706
0.00212539
0.000863969
0.00214315
0.000650729
0.00211847
0.000452821
0.00204865
0.00027872
0.00192825
0.000140811
0.00173996
5.74128e-05
0.00144557
6.05642e-05
0.0009855
0.000212883
0.000286016
0.000691253
-0.000613457
0.00209423
-0.00123072
0.00375981
-0.00113039
0.00415948
0.00342495
-0.00163092
0.00668799
-0.00253147
0.000528885
-0.00238246
-0.00526549
-0.00208039
-0.00841905
-0.00180256
-0.0079055
-0.00187515
-0.00480602
-0.00211285
-0.0028346
-0.00236377
-0.00194985
-0.00257332
-0.00154035
-0.00273569
-0.00127184
-0.00285001
-0.00101567
-0.00290879
-0.000721499
-0.00289585
-0.00036866
-0.00278855
4.61582e-05
-0.00257816
0.000500307
-0.00227581
0.00094706
-0.00190051
0.00134195
-0.00148621
0.00164179
-0.00106203
0.00182785
-0.000649213
0.00190403
-0.000260441
0.00188677
9.65965e-05
0.00179828
0.000412675
0.00166132
0.000681955
0.00149984
0.000904477
0.00132339
0.00108241
0.00113802
0.00121565
0.000953765
0.00130495
0.000774615
0.00135187
0.000603771
0.00135731
0.000447357
0.00132013
0.00031588
0.0012351
0.000225818
0.00108957
0.000202925
0.000859456
0.000290661
0.000504028
0.000568313
-2.04252e-05
0.00121579
-0.000619497
0.00269374
-0.00143895
0.00457959
-0.00176065
0.00448141
0.0018475
-0.00130499
0.0083722
-0.000790304
1.4101e-05
0.000315596
-0.00637147
-9.29958e-05
-0.00801056
-0.0007432
-0.00725557
-0.00157544
-0.00397409
-0.00230038
-0.00210989
-0.00281812
-0.00143231
-0.0031792
-0.00117946
-0.00343315
-0.00101806
-0.00360694
-0.000842056
-0.00370853
-0.000620073
-0.00373279
-0.000344554
-0.00366717
-1.96015e-05
-0.00350383
0.000336837
-0.00324838
0.000691494
-0.002916
0.00100945
-0.0025326
0.0012583
-0.00212503
0.00142018
-0.00171507
0.00149399
-0.00131847
0.00149009
-0.000946425
0.00142616
-0.000608057
0.00132287
-0.000307554
0.00119927
-4.93771e-05
0.00106514
0.000161658
0.00092692
0.000323439
0.000791919
0.00043913
0.000658863
0.000512946
0.000529896
0.000548839
0.000411408
0.000549567
0.000315099
0.000515142
0.00026019
0.000440701
0.000277319
0.000314444
0.000416875
0.000119732
0.00076299
-0.000125287
0.00146086
-0.000195883
0.00276469
-0.000150093
0.00453422
-0.000294634
0.00462649
0.00175025
0.00890867
0.00904155
0.00623375
-0.00356375
0.00324261
-0.0050195
0.000670651
-0.00468382
-0.00139562
-0.00190816
-0.00266617
-0.000839572
-0.00340025
-0.000698436
-0.00385692
-0.000722999
-0.00415785
-0.000717332
-0.00435689
-0.000643209
-0.00447475
-0.0005024
-0.00451482
-0.000304651
-0.00447184
-6.27269e-05
-0.0043414
0.000206268
-0.00412687
0.000476845
-0.00383894
0.000721425
-0.00349628
0.000915546
-0.00312039
0.00104422
-0.00273052
0.00110406
-0.00234209
0.0011016
-0.00196733
0.00105134
-0.00161661
0.000972094
-0.00129841
0.000880995
-0.00102117
0.00078782
-0.000791691
0.000697358
-0.000610715
0.000610851
-0.000476235
0.000524288
-0.000383176
0.000436739
-0.00032494
0.000353077
-0.000295025
0.000285094
-0.000288056
0.000253142
-0.000299905
0.000289103
-0.000325003
0.000441911
-0.000342909
0.000780811
-0.000272133
0.00138999
9.98604e-05
0.00239274
0.000807527
0.00382683
0.00117833
0.00425607
0.00313124
0.00891247
-0.000548523
0.00475491
-0.000862014
0.00032751
-0.000256623
-0.00239376
0.000812789
-0.00363751
0.000403936
-0.00428728
-4.88847e-05
-0.00468587
-0.000324641
-0.00495063
-0.00045281
-0.0051276
-0.000466466
-0.00523334
-0.000396872
-0.00527092
-0.000267263
-0.0052377
-9.61224e-05
-0.00513064
9.9068e-05
-0.00495033
0.000296415
-0.00470428
0.00047529
-0.00440527
0.000616463
-0.00406917
0.000708062
-0.00371117
0.000746026
-0.00334404
0.000734432
-0.00297904
0.000686305
-0.00262816
0.000621163
-0.00230536
0.00055812
-0.00202308
0.000505443
-0.00178998
0.000464134
-0.00160856
0.000429281
-0.00147555
0.000391113
-0.00138336
0.000344389
-0.00132344
0.000293009
-0.00128731
0.000248844
-0.00126514
0.000230886
-0.00124174
0.000265656
-0.00118955
0.00038968
-0.0010583
0.00064943
-0.000749186
0.00108061
-6.95738e-05
0.00171283
0.0010574
0.00269978
0.00161257
0.00370093
0.00495695
-0.0022465
0.00178225
-0.00405292
0.000944214
-0.00517754
0.000867777
-0.00519926
0.000834271
-0.00530848
0.000512903
-0.00547941
0.000121793
-0.00564941
-0.000154924
-0.00580266
-0.000299839
-0.00592372
-0.000345674
-0.00600226
-0.000318592
-0.00603007
-0.000239679
-0.00600092
-0.000125465
-0.00591128
9.28028e-06
-0.00576252
0.000147543
-0.00555848
0.00027117
-0.00530671
0.000364663
-0.00501892
0.000420261
-0.00470644
0.000433567
-0.0043775
0.000405513
-0.00404022
0.000349033
-0.00370657
0.000287479
-0.00339594
0.000247409
-0.00312524
0.000234585
-0.00290741
0.000246073
-0.00274776
0.000269361
-0.00263829
0.000281356
-0.0025648
0.000270625
-0.00251622
0.000244208
-0.002483
0.000215488
-0.00245232
0.000200172
-0.00240437
0.000217757
-0.00230441
0.000289781
-0.00209204
0.000437
-0.00167371
0.000661997
-0.000894077
0.000932659
0.000472099
0.00133304
0.00115696
0.00301556
0.0063401
-0.00719681
-0.00808382
-0.011851
-0.00707736
-0.00798378
-0.00208524
-0.00719356
0.000153764
-0.00693984
0.000613822
-0.00668245
0.000576611
-0.0065182
0.000348372
-0.00647757
8.0856e-05
-0.00650378
-0.000129038
-0.00656562
-0.00023834
-0.00663959
-0.000272025
-0.0067041
-0.00025438
-0.00674164
-0.000202399
-0.00673868
-0.000128635
-0.00668504
-4.45024e-05
-0.00658108
4.34912e-05
-0.00642763
0.000117703
-0.006233
0.000170064
-0.00600882
0.000196174
-0.00576429
0.000189151
-0.00550063
0.000141977
-0.00522054
6.90169e-05
-0.00493109
-1.99757e-06
-0.00464531
-3.85591e-05
-0.00439272
-1.83593e-05
-0.00420002
5.29215e-05
-0.00406935
0.000138202
-0.00397744
0.000188973
-0.00389993
0.000192712
-0.00382716
0.000171166
-0.00375344
0.000141633
-0.00367131
0.00011808
-0.00357497
0.000121594
-0.00344989
0.000164966
-0.00325656
0.000243923
-0.00292352
0.000329069
-0.00247047
0.000479451
-0.00237301
0.00123509
-0.00203438
0.00267621
0.00455272
-0.00881648
0.00116096
-0.00973972
-0.00615437
-0.00884454
-0.00298067
-0.00821772
-0.000473313
-0.00774622
0.000142058
-0.00737457
0.000204668
-0.00712947
0.000102941
-0.00702852
-2.04484e-05
-0.00701917
-0.000138765
-0.00705931
-0.00019858
-0.00712413
-0.000207574
-0.00718988
-0.000188966
-0.00723845
-0.000154105
-0.0072572
-0.000110093
-0.00723927
-6.25662e-05
-0.00717514
-2.06933e-05
-0.00706736
9.95619e-06
-0.00692367
2.64774e-05
-0.00675052
2.31985e-05
-0.00655833
-2.82492e-06
-0.00636276
-5.33905e-05
-0.00617401
-0.00011962
-0.00599448
-0.00018159
-0.00581534
-0.000217954
-0.00564356
-0.000190574
-0.00548057
-0.000110654
-0.0053222
-2.07733e-05
-0.00517299
3.92255e-05
-0.00502902
4.83277e-05
-0.00488046
2.23314e-05
-0.00472674
-1.21892e-05
-0.00456769
-4.09056e-05
-0.00439106
-5.48158e-05
-0.00417538
-5.03777e-05
-0.00389242
-3.8632e-05
-0.00348474
-7.81665e-05
-0.00274173
-0.000263133
-0.00123709
-0.000269328
-0.000119186
0.00155816
0.00469553
0.00170133
-0.00437112
-0.00726083
-0.00764244
-0.0074082
-0.0071104
-0.00691296
-0.00683799
-0.00688114
-0.00698419
-0.00709648
-0.00719047
-0.00724994
-0.00726573
-0.00723431
-0.00716133
-0.00705801
-0.00693841
-0.00682212
-0.00673168
-0.00669158
-0.00671742
-0.00680497
-0.00692875
-0.0070252
-0.00704189
-0.00696887
-0.00683607
-0.00669425
-0.00657849
-0.00649762
-0.00644636
-0.00641039
-0.00637175
-0.00632347
-0.00631708
-0.00649828
-0.00668869
-0.00505518
)
;

boundaryField
{
    floor
    {
        type            calculated;
        value           nonuniform List<scalar> 
36
(
0
0
0
0
0
0
0
0
0
0
0
0
0
0
0
0
0
0
0
-7.48206e-06
-2.06282e-05
-3.25194e-05
-4.29718e-05
-4.77128e-05
-4.50683e-05
-4.66935e-05
-6.20861e-06
-1.02706e-05
-1.11363e-05
-1.24732e-05
-9.34525e-06
-1.87878e-05
-2.5753e-05
-2.75725e-05
-4.13173e-05
-3.10298e-05
)
;
    }
    ceiling
    {
        type            calculated;
        value           nonuniform List<scalar> 
43
(
-6.08932e-05
-8.21945e-05
-9.1204e-05
-9.19631e-05
-9.24749e-05
-9.34567e-05
-9.48479e-05
-9.58017e-05
-9.60112e-05
-9.59269e-05
-9.56616e-05
-9.53069e-05
-9.49165e-05
-9.45172e-05
-9.41184e-05
-9.37196e-05
-9.33197e-05
-9.30176e-05
-9.29481e-05
-9.3137e-05
-9.34483e-05
-9.38421e-05
-9.42436e-05
-9.45049e-05
-9.45429e-05
-9.4411e-05
-9.42104e-05
-9.39483e-05
-9.37413e-05
-9.35541e-05
-9.30681e-05
-9.20624e-05
-9.0577e-05
-8.86806e-05
-8.64734e-05
-8.40601e-05
-8.14277e-05
-7.8495e-05
-7.50773e-05
-7.71843e-05
-0.000113395
-0.00011891
-8.4491e-05
)
;
    }
    sWall
    {
        type            calculated;
        value           nonuniform List<scalar> 9(-0.000268383 -0.000316336 -0.000332964 -0.000350968 -0.000379346 -0.000423205 -0.000379288 -0.00042855 -0.000479754);
    }
    nWall
    {
        type            calculated;
        value           nonuniform List<scalar> 
14
(
-0.00011247
-0.000121116
-0.000120955
-0.000125037
-0.000143283
-0.000163801
-0.000183097
-0.000196852
-0.000202321
-0.000213129
-0.000226653
-0.00024756
-0.000262299
-0.000282476
)
;
    }
    sideWalls
    {
        type            empty;
        value           nonuniform 0();
    }
    glass1
    {
        type            calculated;
        value           nonuniform List<scalar> 9(-6.71731e-05 -0.000183894 -0.000284379 -0.000371066 -0.000449153 -0.000533837 -0.000621487 -0.000781237 -0.000950862);
    }
    glass2
    {
        type            calculated;
        value           nonuniform List<scalar> 2(-0.000473611 -0.000502065);
    }
    sun
    {
        type            calculated;
        value           uniform 0;
    }
    Table_master
    {
        type            calculated;
        value           nonuniform List<scalar> 9(-1.56634e-07 -1.56769e-07 -1.56875e-07 -1.56974e-07 -1.57049e-07 -1.5709e-07 -1.57092e-07 -1.57048e-07 -1.56877e-07);
    }
    Table_slave
    {
        type            calculated;
        value           nonuniform List<scalar> 9(1.56699e-07 1.57071e-07 1.5701e-07 1.5698e-07 1.56977e-07 1.56997e-07 1.57062e-07 1.57167e-07 1.57093e-07);
    }
    inlet
    {
        type            calculated;
        value           uniform -0.0119277;
    }
    outlet
    {
        type            calculated;
        value           nonuniform List<scalar> 2(0.0156597 0.0117314);
    }
}


// ************************************************************************* //
