/*--------------------------------*- C++ -*----------------------------------*=========                 |
  \      /  F ield         | OpenFOAM: The Open Source CFD Toolbox
   \    /   O peration     | Website:  https://openfoam.org
    \  /    A nd           | Version:  6
     \/     M anipulation  |
\*---------------------------------------------------------------------------*/
FoamFile
{
    version     2.0;
    format      ascii;
    class       volScalarField;
    location    "300";
    object      PMV;
}
// * * * * * * * * * * * * * * * * * * * * * * * * * * * * * * * * * * * * * //

dimensions      [0 0 0 0 0 0 0];

internalField   nonuniform List<scalar> 
458
(
1.3211801674912445
1.0747259994216833
1.0401177527327068
1.0114717261424455
0.9943104007157347
0.9871086637395711
0.9920262607454006
1.0095672371311721
1.0433382358544918
1.097402416370952
1.1748558503022386
1.2307395187776704
1.2445902439189735
1.252709344266317
1.2641712242707333
1.3997636469631372
1.385444447127368
1.381148485535996
1.3897403164750828
1.3959452961007852
1.4007182228835642
1.3944718894692745
1.3911664166080588
1.3922599470377313
1.395263305581694
1.3984339600232352
1.4023502129556413
1.4078378796025925
1.4149518610263834
1.426888074729048
1.4422375229267261
1.4479635635639547
1.4637091757721132
1.2522591399051841
1.0878882532953673
1.0739883454161625
1.0461153964124392
1.0301610263507301
1.022631053074179
1.025993802105535
1.035361925077821
1.0513321757061944
1.079000065752827
1.1242565689687767
1.1941419089559975
1.2445902439189735
1.2541421038112213
1.23502538566251
1.201604748215926
1.2117221940606315
1.2426550287441485
1.3612190974148741
1.369214783640169
1.3696921449466508
1.379716478021648
1.381494419593368
1.3829326105817068
1.3838885089215869
1.38628801561056
1.3883196452579536
1.3899623681149051
1.3917854566457903
1.3939544791491165
1.3964465086223172
1.4004686352068028
1.4103960645705171
1.4236265952810834
1.4317392912782911
1.4212940944922547
1.281098656085004
1.0800763369921473
1.1082484570294153
1.0946339761991009
1.088319039313105
1.0853781065460884
1.0859016638475216
1.079577467905354
1.0628572754121317
1.0522725253335081
1.0715384474973397
1.1333927694296313
1.2285661318005674
1.2632160849187495
1.2679917496650377
1.254017292541441
1.2529562450479363
1.2479005759897355
1.2661996582335098
1.319402958839965
1.3270032183181488
1.3389191250845716
1.3536164722553148
1.3595185196890596
1.383431729171507
1.402211737383344
1.404059201188114
1.4054910311269828
1.407400120903525
1.4088319255776909
1.4107409815227556
1.4126500180048056
1.416993603787534
1.421717672567945
1.417426989788828
1.349487650468692
1.3530287750416663
1.074727367199774
1.1331493603949554
1.1469179103616163
1.1665996668820175
1.1784571331081004
1.1783621015438943
1.1418937540430778
1.0768875222723702
1.0263551594064408
1.0287595237527825
1.0929333756054032
1.1888859198486803
1.2737187218695443
1.2847059318115475
1.2781491938760066
1.2390016797418872
1.2142203082873568
1.173381459244661
1.2375744656779157
1.2785430107151567
1.3113346406471524
1.3492685392504211
1.3900952427613087
1.421279494649704
1.4208270585664842
1.4200381251625254
1.423757546730715
1.4287382774465065
1.4360037725901138
1.4463639030791164
1.4629461166125497
1.489249876675377
1.4821839166326267
1.4589379350500467
1.4021112097431228
1.3063541155534866
1.4454999021893018
1.0836650877576572
1.1522778030470593
1.1944428619320901
1.2551605708362308
1.3032577463798911
1.2992561353913448
1.201856332274755
1.0846551673449378
1.0033245811630203
0.9987457348967511
1.0662359822208476
1.1700624073396964
1.270657406794342
1.3090589988379082
1.3090589988379082
1.277096369827277
1.2494878439260424
1.2524403127794914
1.273685006592504
1.3109642857230126
1.3584001082277892
1.408254924592609
1.456118480334608
1.4944245455187553
1.5092072504228957
1.516360174358054
1.5211710969532235
1.5238767405871714
1.5244749860073517
1.5245759117050774
1.5248789051840612
1.5239692954220818
1.5042638115418236
1.4708956735951182
1.3915353182509724
1.3858459286650975
1.396229437735948
1.4834305584465712
1.363764492936718
1.5421694719987118
1.1147677693057119
1.1853675536504658
1.2292057653204445
1.3232609615908408
1.3897403164750828
1.3698562074503364
1.2150872762851586
1.0735272804175207
0.9821357914288543
0.977400020943418
1.0542788902489422
1.1741186168105227
1.2948281691720287
1.3434356908673157
1.345822771577239
1.3424808514681774
1.3379833303025654
1.344955650377277
1.3721182654780253
1.413643927226177
1.4613235726514193
1.495672831657832
1.5242913150363733
1.5467051288327345
1.5624402814553602
1.5734060902846612
1.580555794696143
1.584369555863707
1.5838928420785785
1.5800804707340808
1.5729293354110343
1.5605210858263416
1.5270403137433248
1.4845151503893148
1.4088396395400962
1.397660330553774
1.3943393237034118
1.4199604474694902
1.4298529499563584
1.6351939780437887
1.2026259081507962
1.3086222572735984
1.2934939406985324
1.356778940792069
1.408544682700239
1.3166260888041645
1.1796076453031825
1.035460856480751
0.9496857872151395
0.9615051853112846
1.0624620348625964
1.2107744678716776
1.359958131431229
1.3906949414750427
1.397854480944659
1.3968998908700345
1.4035819221484707
1.4260127203803084
1.4575065360208326
1.4923336508717546
1.5257220913265908
1.5543345260904167
1.5772200650241839
1.5934267692843667
1.604389865516425
1.610585954488611
1.613922175436126
1.613922175436126
1.6110625632789874
1.6039132299169685
1.593903446254164
1.5815092458736608
1.5648242319335464
1.5175189867484353
1.4514639462135075
1.4181948764444765
1.3970387754295541
1.3699448841325554
1.4735270383745585
1.775053822572811
1.5722901274938297
1.515850416539923
1.4046473869521434
1.3829997656119062
1.357828915651103
1.256059886546397
1.0914484120110512
0.9473880867209912
0.8943970662088959
0.9568485347114728
1.1095014108096328
1.3022117961233624
1.418377009718814
1.4513036653163223
1.4603693217374387
1.464186292241109
1.4765908283094862
1.5013969707254062
1.5314450518046958
1.560533089769854
1.585799686273848
1.6058197608924607
1.6201177614954647
1.6286957157168311
1.6334609663053883
1.6348905021464815
1.6339374802769306
1.63107836615967
1.6263130152254446
1.6196411896962397
1.6101093437707354
1.598670113310944
1.5838928420785785
1.5672081387237817
1.5490893619992532
1.5390753016627556
1.5119033566822389
1.4353690858050059
1.3477781279333647
1.9844337540635115
1.8401950431471614
1.6820951242565525
1.5441500849001697
1.4523461901193226
1.3434640852081454
1.1001409718104718
0.8764818173084288
0.7811187635416489
0.8326754598399424
1.0069649478938576
1.246892446235842
1.4264899416127208
1.4928106811645938
1.5171372188850867
1.5266759341775784
1.5362140071140336
1.5514735529607648
1.5734060902846612
1.596286803157547
1.6163051322059911
1.6320314122675532
1.6341524375650804
1.6325987256567502
1.6285210245814428
1.6235011697060204
1.6161772601942042
1.607841735437062
1.5971488834348362
1.5849982257680153
1.5710227976825646
1.555578876383571
1.5402566090509489
1.5221488299860502
1.5019860133185376
1.4833877589267874
1.4717526939403762
1.4670787930165827
1.457181224184538
1.4279266089901121
-1.7356041321200144
-0.8902630826315935
-0.39287061237030535
-0.21085234688764384
-0.00584610221533114
0.2646936301646785
0.5915727529627091
0.9313639908734043
1.249843804472385
1.4465320713249825
1.5060473725360188
1.5218035955457667
1.5320109711821095
1.5429708999348042
1.5571001894813927
1.5739982297777886
1.5911690451430203
1.6038120891064758
1.6111227139006248
1.613367985443099
1.6115571866332083
1.607862553726367
1.6016201614255936
1.5944501141859935
1.586187145796812
1.5774140035655109
1.5689573510331007
1.5608564403008454
1.5545467944721856
1.549601111684415
1.5455265264842257
1.5419092110629669
1.5394120430994485
1.5392788237642323
1.5492831266462408
1.5867783165134046
1.6602820550738804
1.5093915323654536
-1.7399221850228739
-0.6768488635218487
-0.0682865413317717
0.25052666645870997
0.5369974439234106
0.8661877416227383
1.1920499301921925
1.3646797264935022
1.4369058711402187
1.4877231317591066
1.5155308137588122
1.5323506558463555
1.5446470554050664
1.5556975355980187
1.5667178505133448
1.5774946405469632
1.5862220832860539
1.5927465310452555
1.5958760455590608
1.5967617429771548
1.5959547481923944
1.5937388194472908
1.590618581393626
1.5871538172094022
1.5834524934779524
1.579662678628474
1.576489525950132
1.5744152319764597
1.5733607040393778
1.5747528223323572
1.5801229265249752
1.5900201389709692
1.600796503312073
1.6100439422119786
1.6205375564360898
1.6571136313963304
1.602657177082519
1.5500381397020744
-1.1085068118327228
-1.1111549107143497
-0.9871803865855365
-0.1484549004299709
0.4777182719561943
0.9294214844077356
1.2107313859584614
1.342349401230989
1.4246675104052282
1.47407439616985
1.5068132682955186
1.530127891111441
1.545331506933648
1.5554109805684109
1.5632160879138057
1.5688446098436812
1.5730595252325474
1.5749706683488587
1.5744983290222907
1.571216225374092
1.5671448062062763
1.5631224304099338
1.559279408190555
1.5556137012478801
1.5526782806960382
1.5505596688892505
1.5499462801254005
1.5501311431746607
1.5521049986982798
1.5570706967653025
1.5645611706310278
1.5769991743912413
1.5985743868376365
1.637748003347578
1.6806257128053408
1.6853886491384336
1.655190419494507
1.6028063253858424
1.5569758734656454
1.5698726551780144
)
;

boundaryField
{
    ".*"
    {
        type            zeroGradient;
    }
}


// ************************************************************************* //
