/*--------------------------------*- C++ -*----------------------------------*\
  =========                 |
  \\      /  F ield         | OpenFOAM: The Open Source CFD Toolbox
   \\    /   O peration     | Website:  https://openfoam.org
    \\  /    A nd           | Version:  6
     \\/     M anipulation  |
\*---------------------------------------------------------------------------*/
FoamFile
{
    version     2.0;
    format      ascii;
    class       volScalarField;
    location    "300";
    object      T;
}
// * * * * * * * * * * * * * * * * * * * * * * * * * * * * * * * * * * * * * //

dimensions      [0 0 0 1 0 0 0];

internalField   nonuniform List<scalar> 
778
(
299.357
299.06
299.034
299.018
299.001
298.969
298.926
298.885
298.851
298.836
298.834
298.84
298.852
298.867
298.903
299.785
299.659
299.597
299.555
299.523
299.499
299.478
299.462
299.449
299.438
299.429
299.423
299.418
299.414
299.412
299.409
299.41
299.426
299.556
299.136
299.114
299.111
299.095
299.033
298.945
298.868
298.814
298.787
298.775
298.773
298.782
298.801
298.837
298.848
298.866
298.919
299.844
299.724
299.656
299.603
299.56
299.524
299.49
299.459
299.434
299.416
299.404
299.401
299.403
299.408
299.413
299.398
299.389
299.401
299.776
299.238
299.22
299.243
299.213
299.1
298.954
298.852
298.785
298.746
298.727
298.723
298.729
298.745
298.77
298.789
298.814
298.871
299.912
299.822
299.766
299.74
299.742
299.746
299.716
299.659
299.585
299.509
299.453
299.428
299.431
299.452
299.477
299.437
299.401
299.398
300.004
299.364
299.346
299.402
299.297
299.115
298.942
298.813
298.731
298.686
298.667
298.664
298.671
298.687
298.71
298.736
298.767
298.819
298.845
299.337
299.54
299.665
299.74
299.79
299.865
299.71
299.666
299.653
299.646
299.637
299.624
299.609
299.578
299.54
299.478
299.423
299.394
300.243
299.536
299.517
299.517
299.319
299.069
298.858
298.717
298.639
298.604
298.595
298.599
298.611
298.629
298.655
298.684
298.718
298.761
298.797
299.002
299.211
299.392
299.541
299.654
299.748
299.769
299.779
299.787
299.782
299.756
299.722
299.682
299.633
299.571
299.5
299.432
299.378
299.359
299.361
299.454
300.55
299.87
299.835
299.585
299.224
298.897
298.675
298.557
298.517
298.518
298.536
298.554
298.571
298.592
298.617
298.646
298.679
298.716
298.754
298.856
298.998
299.154
299.305
299.437
299.549
299.625
299.678
299.716
299.739
299.747
299.73
299.689
299.631
299.56
299.485
299.417
299.363
299.33
299.33
299.459
300.876
300.447
299.976
299.383
298.855
298.524
298.381
298.367
298.418
298.487
298.546
298.582
298.601
298.614
298.626
298.643
298.664
298.692
298.724
298.786
298.88
298.995
299.12
299.241
299.35
299.439
299.51
299.562
299.598
299.616
299.616
299.593
299.548
299.489
299.426
299.371
299.332
299.315
299.327
299.456
298.898
298.632
298.535
298.194
297.933
297.933
298.091
298.295
298.479
298.613
298.694
298.728
298.725
298.704
298.685
298.675
298.678
298.691
298.714
298.754
298.817
298.9
298.996
299.096
299.191
299.275
299.345
299.4
299.438
299.459
299.464
299.451
299.422
299.383
299.342
299.308
299.294
299.309
299.367
299.711
297.337
296.812
296.754
296.721
297.171
297.814
298.303
298.62
298.794
298.873
298.896
298.886
298.846
298.794
298.749
298.719
298.705
298.705
298.717
298.743
298.787
298.848
298.921
299
299.078
299.151
299.213
299.263
299.299
299.319
299.326
299.32
299.305
299.285
299.267
299.257
299.276
299.35
299.463
299.935
296.269
296.136
296.155
296.37
297.192
298.185
298.695
298.917
298.986
298.989
298.968
298.937
298.893
298.839
298.789
298.752
298.731
298.723
298.728
298.746
298.778
298.824
298.88
298.942
299.006
299.066
299.119
299.162
299.194
299.212
299.219
299.222
299.221
299.219
299.221
299.235
299.303
299.567
299.698
299.936
296.069
295.842
295.854
296.156
297.154
298.345
298.862
299.018
299.04
299.017
298.979
298.939
298.897
298.853
298.811
298.776
298.751
298.741
298.743
298.757
298.782
298.818
298.864
298.914
298.966
299.016
299.061
299.098
299.127
299.147
299.161
299.172
299.183
299.194
299.208
299.242
299.39
299.635
299.767
299.949
295.985
295.643
295.581
295.799
296.896
298.334
298.91
299.058
299.064
299.028
298.983
298.937
298.895
298.857
298.823
298.795
298.774
298.764
298.764
298.776
298.799
298.83
298.869
298.913
298.957
299.001
299.041
299.076
299.106
299.131
299.152
299.171
299.189
299.205
299.225
299.269
299.435
299.67
299.809
299.978
295.966
295.535
295.388
295.369
296.46
298.243
298.93
299.09
299.092
299.052
299.003
298.955
298.912
298.876
298.846
298.823
298.807
298.799
298.801
298.813
298.834
298.864
298.902
298.942
298.984
299.026
299.065
299.101
299.134
299.163
299.189
299.211
299.23
299.245
299.262
299.301
299.454
299.688
299.846
300.014
296.002
295.635
295.358
295.012
295.941
298.123
298.953
299.134
299.137
299.098
299.051
299.005
298.963
298.927
298.9
298.879
298.867
298.863
298.867
298.881
298.904
298.935
298.971
299.011
299.053
299.096
299.135
299.172
299.205
299.234
299.258
299.278
299.291
299.301
299.312
299.342
299.453
299.661
299.815
300.005
296.13
296.093
295.344
294.897
295.511
298.009
299.007
299.2
299.208
299.175
299.133
299.092
299.054
299.021
298.995
298.978
298.968
298.968
298.976
298.994
299.019
299.051
299.088
299.127
299.168
299.208
299.245
299.278
299.307
299.331
299.348
299.36
299.367
299.372
299.382
299.407
299.48
299.642
299.771
299.938
293.489
294.284
295.493
298.36
299.158
299.304
299.312
299.286
299.253
299.219
299.187
299.159
299.136
299.122
299.117
299.12
299.133
299.153
299.181
299.214
299.251
299.288
299.325
299.359
299.389
299.413
299.432
299.445
299.453
299.457
299.461
299.47
299.486
299.511
299.556
299.66
299.758
299.917
298.273
298.376
298.758
299.166
299.405
299.46
299.457
299.437
299.412
299.385
299.359
299.337
299.319
299.31
299.309
299.317
299.333
299.357
299.386
299.42
299.455
299.489
299.519
299.543
299.561
299.571
299.575
299.573
299.57
299.57
299.577
299.594
299.621
299.653
299.691
299.744
299.81
299.952
299.839
299.513
299.227
299.261
299.415
299.545
299.616
299.636
299.631
299.616
299.597
299.578
299.56
299.545
299.535
299.531
299.535
299.548
299.568
299.595
299.627
299.661
299.693
299.721
299.738
299.743
299.739
299.729
299.715
299.701
299.691
299.687
299.694
299.713
299.744
299.784
299.831
299.882
299.927
300.019
300.046
299.936
299.784
299.73
299.743
299.78
299.802
299.808
299.803
299.792
299.777
299.764
299.752
299.744
299.74
299.742
299.75
299.765
299.787
299.814
299.844
299.873
299.894
299.905
299.903
299.891
299.87
299.848
299.827
299.81
299.799
299.795
299.8
299.814
299.836
299.866
299.901
299.934
299.973
300.094
300.663
300.208
300.011
300.003
300.007
300.014
300.018
300.016
300.007
299.996
299.986
299.978
299.971
299.968
299.968
299.972
299.981
299.993
300.009
300.026
300.041
300.05
300.053
300.047
300.034
300.017
299.998
299.981
299.966
299.958
299.954
299.957
299.965
299.979
300
300.025
300.054
300.082
300.107
300.169
)
;

boundaryField
{
    floor
    {
        type            wallHeatTransfer;
        Tinf            uniform 305.2;
        alphaWall       uniform 0.36;
        value           nonuniform List<scalar> 
36
(
299.715
301.015
300.847
300.766
300.71
300.668
300.635
300.608
300.586
300.566
300.548
300.53
300.512
300.494
300.475
300.458
300.445
300.429
300.406
300.406
300.305
300.253
300.201
300.145
300.104
300.224
299.715
299.526
299.599
299.738
301.015
299.738
300.976
299.595
301.003
299.529
)
;
    }
    ceiling
    {
        type            wallHeatTransfer;
        Tinf            uniform 303.2;
        alphaWall       uniform 0.36;
        value           nonuniform List<scalar> 
43
(
300.861
300.477
300.311
300.306
300.311
300.321
300.33
300.33
300.322
300.312
300.301
300.291
300.283
300.279
300.278
300.28
300.287
300.299
300.314
300.332
300.348
300.359
300.362
300.358
300.345
300.327
300.308
300.289
300.274
300.265
300.26
300.259
300.262
300.27
300.283
300.301
300.321
300.34
300.353
300.42
296.618
296.605
298.606
)
;
    }
    sWall
    {
        type            wallHeatTransfer;
        Tinf            uniform 315.2;
        alphaWall       uniform 0.54;
        value           nonuniform List<scalar> 9(298.118 298.027 297.868 297.8 297.844 298.046 301.315 301.606 302.3);
    }
    nWall
    {
        type            wallHeatTransfer;
        Tinf            uniform 308.2;
        alphaWall       uniform 0.54;
        value           nonuniform List<scalar> 
14
(
301.106
300.918
300.692
300.817
300.857
300.923
300.985
300.968
300.861
300.83
300.867
300.962
301.036
301.132
)
;
    }
    sideWalls
    {
        type            empty;
    }
    glass1
    {
        type            wallHeatTransfer;
        Tinf            uniform 315.2;
        alphaWall       uniform 4.3;
        value           nonuniform List<scalar> 9(308.715 308.126 307.748 307.449 307.265 307.392 307.613 306.192 305.043);
    }
    glass2
    {
        type            wallHeatTransfer;
        Tinf            uniform 308.2;
        alphaWall       uniform 4.3;
        value           nonuniform List<scalar> 2(304.021 303.973);
    }
    sun
    {
        type            wallHeatTransfer;
        Tinf            uniform 305.2;
        alphaWall       uniform 0.36;
        value           nonuniform List<scalar> 
14
(
299.973
299.651
299.604
299.564
299.523
299.481
299.441
299.415
299.407
299.424
299.454
299.497
299.557
299.619
)
;
    }
    Table_master
    {
        type            zeroGradient;
    }
    Table_slave
    {
        type            zeroGradient;
    }
    inlet
    {
        type            fixedValue;
        value           uniform 293.15;
    }
    outlet
    {
        type            zeroGradient;
    }
}


// ************************************************************************* //
