/*--------------------------------*- C++ -*----------------------------------*\
  =========                 |
  \\      /  F ield         | OpenFOAM: The Open Source CFD Toolbox
   \\    /   O peration     | Website:  https://openfoam.org
    \\  /    A nd           | Version:  6
     \\/     M anipulation  |
\*---------------------------------------------------------------------------*/
FoamFile
{
    version     2.0;
    format      ascii;
    class       volVectorField;
    location    "300";
    object      U;
}
// * * * * * * * * * * * * * * * * * * * * * * * * * * * * * * * * * * * * * //

dimensions      [0 1 -1 0 0 0 0];

internalField   nonuniform List<vector> 
458
(
(0.0281959 0.0930824 0)
(-0.18238 0.0287525 0)
(-0.214004 0.0183532 0)
(-0.248236 0.00997257 0)
(-0.270224 0.000777918 0)
(-0.277552 -0.00933576 0)
(-0.266692 -0.0206716 0)
(-0.236973 -0.0334222 0)
(-0.189518 -0.0456012 0)
(-0.13006 -0.0546254 0)
(-0.0675213 -0.0576375 0)
(-0.00413417 -0.0487001 0)
(0.0391982 -0.0247016 0)
(0.0534427 -0.00181879 0)
(0.0378184 0.035364 0)
(-0.0123767 0.0111116 0)
(-0.0403192 -0.0205366 0)
(-0.0144874 -0.0342584 0)
(0.0194293 -0.0288398 0)
(0.0410895 -0.0202922 0)
(0.0576191 -0.0109941 0)
(0.0673693 -0.0061197 0)
(0.0715355 -0.00433082 0)
(0.0730347 -0.00363084 0)
(0.0737253 -0.00318926 0)
(0.074057 -0.00283852 0)
(0.0739649 -0.00247589 0)
(0.0732486 -0.00191453 0)
(0.0713673 -0.000775368 0)
(0.0671286 0.00145041 0)
(0.0592291 0.0039601 0)
(0.0515904 0.00665143 0)
(-0.0111467 0.025348 0)
(0.208844 0.191804 0)
(-0.168566 0.0790747 0)
(-0.174516 0.0610229 0)
(-0.210948 0.0444052 0)
(-0.234061 0.0250642 0)
(-0.243209 0.00225153 0)
(-0.234816 -0.0246849 0)
(-0.208866 -0.0533692 0)
(-0.167384 -0.0783969 0)
(-0.116419 -0.0938914 0)
(-0.0641481 -0.0954036 0)
(-0.0170775 -0.0790702 0)
(0.0233138 -0.0425394 0)
(0.0502983 -0.00690572 0)
(0.0706527 0.0318808 0)
(0.0902965 0.0422358 0)
(0.0791941 0.0557753 0)
(-0.00322007 0.0854746 0)
(0.0710692 0.0489066 0)
(0.0102083 -0.0271776 0)
(0.0287681 -0.0444215 0)
(0.0451617 -0.0409863 0)
(0.0592535 -0.0306264 0)
(0.0667861 -0.0133957 0)
(0.0687631 -0.00309349 0)
(0.068785 0.000716502 0)
(0.0689078 0.00208244 0)
(0.0692416 0.00281907 0)
(0.0694844 0.00333417 0)
(0.0695404 0.0038169 0)
(0.0693955 0.00466566 0)
(0.0685524 0.00677699 0)
(0.0646316 0.0126013 0)
(0.0547924 0.017752 0)
(0.0519139 0.0220807 0)
(-0.0600735 0.0540838 0)
(0.375541 0.287531 0)
(-0.182836 0.125383 0)
(-0.132766 0.0988643 0)
(-0.169505 0.0698209 0)
(-0.191981 0.0377417 0)
(-0.202445 0.000547442 0)
(-0.195574 -0.0423135 0)
(-0.171566 -0.0871464 0)
(-0.134509 -0.123812 0)
(-0.091152 -0.143331 0)
(-0.0487825 -0.140976 0)
(-0.0121932 -0.116064 0)
(0.0193568 -0.0724928 0)
(0.0431519 -0.0312583 0)
(0.0628096 0.00333919 0)
(0.0711203 0.0161764 0)
(0.0660894 0.0347935 0)
(-0.0159354 0.0804311 0)
(0.135746 -0.00605418 0)
(0.0765473 -0.0369443 0)
(0.0675522 -0.0491445 0)
(0.071519 -0.048363 0)
(0.0770104 -0.0427751 0)
(0.0790493 -0.0311701 0)
(0.0687969 -0.0197428 0)
(0.0610051 -0.0136892 0)
(0.0581533 -0.0103579 0)
(0.0574386 -0.00822766 0)
(0.0572107 -0.00678305 0)
(0.0573189 -0.00564939 0)
(0.0582814 -0.00431005 0)
(0.0612464 -0.000554183 0)
(0.0598072 0.0172981 0)
(0.0468209 0.0291805 0)
(0.0570685 0.03742 0)
(-0.106809 0.0815468 0)
(0.528899 0.364903 0)
(-0.216447 0.166169 0)
(-0.086964 0.132988 0)
(-0.123446 0.0942555 0)
(-0.142229 0.0530393 0)
(-0.152256 0.0035893 0)
(-0.144311 -0.0557725 0)
(-0.1205 -0.116829 0)
(-0.0884421 -0.163109 0)
(-0.0543247 -0.184671 0)
(-0.0232869 -0.178108 0)
(0.00279196 -0.145625 0)
(0.0243724 -0.0978263 0)
(0.0421947 -0.0506655 0)
(0.056415 -0.0109368 0)
(0.0655635 0.0172912 0)
(0.0766866 0.0436556 0)
(0.0675259 0.0795092 0)
(0.110907 0.0868947 0)
(0.103343 0.00390043 0)
(0.088203 -0.0332809 0)
(0.0821605 -0.0449623 0)
(0.0776291 -0.0454881 0)
(0.0711064 -0.0392597 0)
(0.0714084 -0.0235881 0)
(0.0833207 -0.0152272 0)
(0.0925654 -0.0107148 0)
(0.0973605 -0.00790144 0)
(0.0994977 -0.00556913 0)
(0.0991893 -0.0031148 0)
(0.0954891 -0.000144211 0)
(0.0871038 0.0037924 0)
(0.0716738 0.00946602 0)
(0.0547581 0.0287587 0)
(0.0388235 0.0448461 0)
(0.0643585 0.0572055 0)
(-0.152461 0.10283 0)
(0.666425 0.424481 0)
(-0.261067 0.198495 0)
(-0.0387982 0.15486 0)
(-0.0733489 0.110498 0)
(-0.0851144 0.0640618 0)
(-0.0919522 0.00555835 0)
(-0.0766412 -0.0690761 0)
(-0.0527442 -0.143295 0)
(-0.0285129 -0.193693 0)
(-0.00682017 -0.213452 0)
(0.0105439 -0.20122 0)
(0.0232883 -0.164435 0)
(0.0338516 -0.113973 0)
(0.0428917 -0.063246 0)
(0.0507679 -0.0203512 0)
(0.0582335 0.0123348 0)
(0.0691348 0.0372036 0)
(0.0809348 0.0472469 0)
(0.0970814 0.0129561 0)
(0.0962084 -0.0206576 0)
(0.088473 -0.0350349 0)
(0.0786778 -0.0395508 0)
(0.0691861 -0.0382202 0)
(0.0610883 -0.0312833 0)
(0.0586851 -0.0174657 0)
(0.0619722 -0.00921301 0)
(0.0658281 -0.00554758 0)
(0.0687901 -0.00330377 0)
(0.0711099 -0.000559689 0)
(0.0726375 0.00345557 0)
(0.0721125 0.00888878 0)
(0.0689585 0.0160092 0)
(0.0627896 0.0255538 0)
(0.0548831 0.0408902 0)
(0.0423604 0.0577033 0)
(0.0750652 0.0769056 0)
(-0.0209198 0.108411 0)
(0.0496558 0.163364 0)
(-0.0951372 0.0815463 0)
(-0.287442 0.00104438 0)
(0.772471 0.473183 0)
(-0.30876 0.219045 0)
(0.00237513 0.155593 0)
(-0.0213616 0.11734 0)
(-0.0242814 0.0725341 0)
(-0.0247667 0.0100437 0)
(0.00922374 -0.0884352 0)
(0.0293907 -0.166748 0)
(0.0418342 -0.212402 0)
(0.0480231 -0.225899 0)
(0.0487179 -0.209581 0)
(0.0462934 -0.170031 0)
(0.0427904 -0.117886 0)
(0.0398513 -0.0661598 0)
(0.0387482 -0.023932 0)
(0.0407926 0.00627256 0)
(0.0479273 0.0253418 0)
(0.059826 0.028012 0)
(0.0697691 0.00859236 0)
(0.0701729 -0.0101676 0)
(0.0634119 -0.0225347 0)
(0.0537093 -0.0282788 0)
(0.0441367 -0.028592 0)
(0.0363398 -0.0243757 0)
(0.0324843 -0.0168359 0)
(0.0328736 -0.0118189 0)
(0.0353244 -0.00948741 0)
(0.0386122 -0.00775888 0)
(0.0423835 -0.0049477 0)
(0.0464876 9.17809e-05 0)
(0.0500322 0.00754625 0)
(0.0520507 0.0170676 0)
(0.0530131 0.0287962 0)
(0.0542711 0.0434386 0)
(0.0525464 0.0596792 0)
(0.0793909 0.0808757 0)
(0.0609288 0.0932592 0)
(0.100366 0.101098 0)
(0.122856 0.0565394 0)
(-0.146036 -0.0381113 0)
(0.835366 0.51689 0)
(-0.336725 0.201289 0)
(0.0369004 0.105973 0)
(0.0425564 0.10082 0)
(0.0474721 0.0634637 0)
(0.0744975 -0.0179822 0)
(0.106258 -0.111104 0)
(0.119427 -0.179089 0)
(0.117757 -0.215371 0)
(0.105821 -0.221174 0)
(0.0870519 -0.200049 0)
(0.0656493 -0.158569 0)
(0.0448644 -0.106572 0)
(0.0278862 -0.0566918 0)
(0.0169558 -0.0186077 0)
(0.0131301 0.00533774 0)
(0.01763 0.0176436 0)
(0.0265153 0.0181193 0)
(0.0326503 0.00688439 0)
(0.0325058 -0.00580278 0)
(0.0271205 -0.0151181 0)
(0.0190509 -0.0198019 0)
(0.0107714 -0.0205907 0)
(0.00399066 -0.018583 0)
(0.00032905 -0.0151573 0)
(9.85427e-05 -0.0130511 0)
(0.00204374 -0.0123759 0)
(0.00525183 -0.0117688 0)
(0.00948231 -0.00989723 0)
(0.014789 -0.00548679 0)
(0.0224373 0.00256809 0)
(0.0296833 0.0128608 0)
(0.036816 0.0244705 0)
(0.045545 0.0374236 0)
(0.0537323 0.050632 0)
(0.0762549 0.0672839 0)
(0.0894592 0.0713316 0)
(0.124956 0.0615751 0)
(0.172213 0.0474325 0)
(-0.0106708 0.0952935 0)
(0.945643 0.516592 0)
(-0.0646256 0.181713 0)
(0.118918 0.0449599 0)
(0.170532 0.023276 0)
(0.170032 -0.0172518 0)
(0.203761 -0.0804717 0)
(0.223754 -0.1381 0)
(0.218284 -0.179857 0)
(0.193605 -0.198864 0)
(0.156629 -0.194446 0)
(0.113298 -0.168929 0)
(0.0698989 -0.127499 0)
(0.0306394 -0.0785217 0)
(0.00100193 -0.0344427 0)
(-0.0153468 -0.00655566 0)
(-0.0201467 0.00667542 0)
(-0.0171709 0.0124219 0)
(-0.0113915 0.0118268 0)
(-0.00782947 0.00517873 0)
(-0.00852541 -0.00276698 0)
(-0.0129411 -0.00888189 0)
(-0.0193575 -0.0122942 0)
(-0.0258589 -0.0135535 0)
(-0.0311048 -0.013578 0)
(-0.0342043 -0.0133165 0)
(-0.0352303 -0.013666 0)
(-0.0349545 -0.0144873 0)
(-0.033894 -0.0151373 0)
(-0.0320806 -0.0149632 0)
(-0.0291423 -0.0132967 0)
(-0.0239714 -0.00932289 0)
(-0.0130451 -0.00232878 0)
(-0.00220497 0.00637078 0)
(0.0103579 0.0148165 0)
(0.0220537 0.0212641 0)
(0.0398096 0.0286544 0)
(0.054423 0.0232558 0)
(0.0780589 0.00518839 0)
(0.146232 0.052136 0)
(-0.471114 0.225579 0)
(1.09572 0.453337 0)
(0.540214 0.303103 0)
(0.543181 0.243148 0)
(0.524409 0.160203 0)
(0.482404 0.0843096 0)
(0.434558 0.00498236 0)
(0.374746 -0.0682185 0)
(0.310912 -0.119407 0)
(0.24341 -0.141641 0)
(0.173154 -0.138201 0)
(0.103427 -0.114788 0)
(0.0405416 -0.0778331 0)
(-0.0122911 -0.0353878 0)
(-0.0406109 -0.00959034 0)
(-0.0524694 0.00191644 0)
(-0.0547423 0.00682477 0)
(-0.0527327 0.00863139 0)
(-0.0494685 0.0076926 0)
(-0.0478169 0.00416045 0)
(-0.0488949 -0.000145074 0)
(-0.0521746 -0.00394208 0)
(-0.0569278 -0.00674206 0)
(-0.0618509 -0.00870351 0)
(-0.0662166 -0.0101744 0)
(-0.0697916 -0.0114559 0)
(-0.0729002 -0.0127067 0)
(-0.0761275 -0.0137084 0)
(-0.0799651 -0.0140278 0)
(-0.0848195 -0.0131339 0)
(-0.0911783 -0.0103583 0)
(-0.0997328 -0.00482192 0)
(-0.110923 0.00421595 0)
(-0.122796 0.0165118 0)
(-0.14048 0.0322683 0)
(-0.169104 0.0512951 0)
(-0.211121 0.0716173 0)
(-0.268267 0.0879238 0)
(-0.329525 0.0960979 0)
(-0.405022 0.0953704 0)
(-0.683828 0.0853294 0)
(0.23677 0.156541 0)
(0.300195 0.148075 0)
(0.309229 0.0738973 0)
(0.278486 0.000277656 0)
(0.244381 -0.0494315 0)
(0.199464 -0.0760028 0)
(0.143587 -0.0812094 0)
(0.0799797 -0.0704515 0)
(0.0123121 -0.0468317 0)
(-0.0448452 -0.0188984 0)
(-0.0732833 -0.00441161 0)
(-0.0854731 0.000645374 0)
(-0.088641 0.00196179 0)
(-0.0882705 0.00212748 0)
(-0.0863041 0.00169742 0)
(-0.0840634 0.000235592 0)
(-0.0829172 -0.00254441 0)
(-0.0835156 -0.00602949 0)
(-0.0855117 -0.00939038 0)
(-0.0885604 -0.0120083 0)
(-0.0919717 -0.0140252 0)
(-0.0955448 -0.0155442 0)
(-0.0994338 -0.0165923 0)
(-0.10392 -0.0171374 0)
(-0.109222 -0.0169561 0)
(-0.115348 -0.015614 0)
(-0.122022 -0.0125067 0)
(-0.128618 -0.00694703 0)
(-0.134316 0.00167641 0)
(-0.138457 0.0131731 0)
(-0.141832 0.0284877 0)
(-0.145033 0.0481357 0)
(-0.149592 0.0710747 0)
(-0.156289 0.0928256 0)
(-0.160884 0.10229 0)
(-0.144493 0.0767913 0)
(-0.0963772 -0.0298625 0)
(-0.290677 -0.23493 0)
(0.14526 0.372317 0)
(0.010969 0.207144 0)
(0.0323126 0.0967412 0)
(0.0372572 0.0336846 0)
(0.0387808 0.00207156 0)
(0.0151597 -0.0116015 0)
(-0.0299313 0.000344542 0)
(-0.0720868 0.017638 0)
(-0.10249 0.0295882 0)
(-0.117612 0.0348308 0)
(-0.12149 0.0352064 0)
(-0.121435 0.0349167 0)
(-0.119808 0.035222 0)
(-0.117648 0.0364864 0)
(-0.115194 0.0386367 0)
(-0.112703 0.0413797 0)
(-0.110609 0.0443771 0)
(-0.109233 0.0472434 0)
(-0.10864 0.0492833 0)
(-0.108673 0.0494279 0)
(-0.109256 0.0488935 0)
(-0.110377 0.0481767 0)
(-0.112002 0.0473014 0)
(-0.114075 0.0462059 0)
(-0.116505 0.044804 0)
(-0.119153 0.0429969 0)
(-0.12181 0.0406445 0)
(-0.124017 0.0374114 0)
(-0.124743 0.035182 0)
(-0.122445 0.0361558 0)
(-0.115427 0.0417936 0)
(-0.102457 0.0534063 0)
(-0.084028 0.0710509 0)
(-0.0614909 0.0901514 0)
(-0.0373945 0.102691 0)
(0.00409802 0.0897355 0)
(0.144952 0.0104419 0)
(-0.205275 -0.151266 0)
(-0.499899 -0.56598 0)
(-0.699109 -0.156497 0)
(-0.470151 0.203295 0)
(-0.372061 0.0366042 0)
(-0.218954 -0.0477049 0)
(-0.166962 -0.0913458 0)
(-0.155701 -0.101049 0)
(-0.159252 -0.0943443 0)
(-0.165592 -0.0881429 0)
(-0.16493 -0.0847815 0)
(-0.159863 -0.0835358 0)
(-0.152851 -0.085184 0)
(-0.14587 -0.0891606 0)
(-0.140052 -0.0934308 0)
(-0.135135 -0.0976759 0)
(-0.13071 -0.102293 0)
(-0.12654 -0.108048 0)
(-0.122702 -0.115495 0)
(-0.119475 -0.12441 0)
(-0.117111 -0.133569 0)
(-0.115766 -0.141214 0)
(-0.11563 -0.145872 0)
(-0.11672 -0.148315 0)
(-0.11868 -0.148822 0)
(-0.121119 -0.147565 0)
(-0.123674 -0.144605 0)
(-0.125978 -0.139852 0)
(-0.127608 -0.133053 0)
(-0.128095 -0.123762 0)
(-0.126926 -0.111312 0)
(-0.123176 -0.0970983 0)
(-0.114661 -0.0813188 0)
(-0.0982051 -0.0638752 0)
(-0.0714238 -0.0439417 0)
(-0.0356125 -0.0206984 0)
(0.0258702 0.00927898 0)
(0.0792823 0.0112749 0)
(0.130697 -0.0124575 0)
(0.183941 -0.0603555 0)
(-0.159697 -0.133983 0)
)
;

boundaryField
{
    floor
    {
        type            noSlip;
    }
    ceiling
    {
        type            noSlip;
    }
    sWall
    {
        type            noSlip;
    }
    nWall
    {
        type            noSlip;
    }
    sideWalls
    {
        type            empty;
    }
    glass1
    {
        type            noSlip;
    }
    glass2
    {
        type            noSlip;
    }
    sun
    {
        type            noSlip;
    }
    Table_master
    {
        type            noSlip;
    }
    Table_slave
    {
        type            noSlip;
    }
    inlet
    {
        type            fixedValue;
        value           uniform (0.5 0 0);
    }
    outlet
    {
        type            zeroGradient;
    }
}


// ************************************************************************* //
