/*--------------------------------*- C++ -*----------------------------------*\
  =========                 |
  \\      /  F ield         | OpenFOAM: The Open Source CFD Toolbox
   \\    /   O peration     | Website:  https://openfoam.org
    \\  /    A nd           | Version:  6
     \\/     M anipulation  |
\*---------------------------------------------------------------------------*/
FoamFile
{
    version     2.0;
    format      ascii;
    class       volVectorField;
    location    "300";
    object      U;
}
// * * * * * * * * * * * * * * * * * * * * * * * * * * * * * * * * * * * * * //

dimensions      [0 1 -1 0 0 0 0];

internalField   nonuniform List<vector> 
778
(
(-0.0339328 0.118849 0)
(-0.244338 0.0441346 0)
(0.147192 0.243278 0)
(-0.302048 0.0151863 0)
(-0.194607 0.12362 0)
(0.315638 0.357327 0)
(-0.330941 -0.00795633 0)
(-0.222893 0.0712031 0)
(-0.180017 0.182094 0)
(0.467307 0.444575 0)
(-0.319201 -0.0305136 0)
(-0.247242 0.0195536 0)
(-0.150945 0.103201 0)
(-0.193472 0.222158 0)
(0.597701 0.504698 0)
(-0.27125 -0.0518485 0)
(-0.229286 -0.037952 0)
(-0.163398 0.0186589 0)
(-0.0859387 0.121883 0)
(-0.220697 0.229523 0)
(0.763005 0.546976 0)
(-0.19962 -0.0664394 0)
(-0.178888 -0.0894232 0)
(-0.126273 -0.0764065 0)
(-0.0685377 0.0105724 0)
(-0.0203455 0.0926737 0)
(-0.188246 0.171694 0)
(0.939217 0.535429 0)
(-0.118989 -0.0724096 0)
(-0.112164 -0.119075 0)
(-0.0690796 -0.153355 0)
(-0.00193663 -0.129634 0)
(0.0676263 -0.0697448 0)
(0.0907049 -0.048944 0)
(0.26618 0.265731 0)
(1.16063 -0.106616 0)
(-0.039841 -0.0703664 0)
(-0.042089 -0.126622 0)
(-0.00743295 -0.189163 0)
(0.0573049 -0.21739 0)
(0.133763 -0.197319 0)
(0.220278 -0.172396 0)
(0.345736 0.0308402 0)
(0.731325 -0.0536075 0)
(0.94502 -0.399403 0)
(0.0431848 -0.0529058 0)
(0.0296253 -0.114484 0)
(0.0516809 -0.188831 0)
(0.105073 -0.244832 0)
(0.181498 -0.267255 0)
(0.277926 -0.264039 0)
(0.426044 -0.152312 0)
(0.66595 -0.0777704 0)
(-0.237032 -0.0279336 0)
(0.104711 -0.137018 0)
(0.0892301 -0.0357077 0)
(0.0817198 -0.0898493 0)
(0.0994639 -0.166183 0)
(0.145841 -0.236588 0)
(0.215627 -0.284788 0)
(0.306554 -0.307429 0)
(0.431442 -0.263103 0)
(0.587527 -0.143079 0)
(0.080362 0.0832647 0)
(-0.331232 -0.0528187 0)
(0.545157 0.0977425 0)
(0.122505 -0.019842 0)
(0.122538 -0.0604711 0)
(0.139029 -0.131128 0)
(0.178879 -0.20564 0)
(0.238775 -0.267065 0)
(0.317657 -0.306059 0)
(0.414759 -0.299435 0)
(0.48019 -0.218106 0)
(0.0478357 -0.0579462 0)
(-0.193243 -0.0640077 0)
(-0.323259 -0.0526829 0)
(0.675675 0.228087 0)
(0.135583 -0.00401608 0)
(0.15095 -0.0313418 0)
(0.169779 -0.0914427 0)
(0.204709 -0.162202 0)
(0.253442 -0.228191 0)
(0.315155 -0.276083 0)
(0.38644 -0.287944 0)
(0.414117 -0.244237 0)
(0.106221 -0.217591 0)
(-0.103922 -0.198983 0)
(-0.173308 -0.129136 0)
(-0.337372 0.0278106 0)
(0.848208 0.323328 0)
(0.124611 0.0196084 0)
(0.166493 -0.00149682 0)
(0.190786 -0.0513907 0)
(0.22352 -0.113691 0)
(0.262271 -0.178255 0)
(0.305172 -0.230222 0)
(0.348186 -0.252088 0)
(0.353842 -0.230119 0)
(0.156548 -0.217271 0)
(-0.00751745 -0.314574 0)
(-0.127947 -0.283762 0)
(-0.111094 -0.14702 0)
(-0.375125 0.077913 0)
(0.818716 0.364305 0)
(0.0892824 0.0772315 0)
(0.174898 0.0323234 0)
(0.202553 -0.0122689 0)
(0.235325 -0.064783 0)
(0.267094 -0.124063 0)
(0.29309 -0.176951 0)
(0.308575 -0.205073 0)
(0.288626 -0.196349 0)
(0.155039 -0.180764 0)
(0.0388196 -0.233978 0)
(-0.067313 -0.357317 0)
(-0.111135 -0.333601 0)
(0.0034698 -0.18906 0)
(-0.434392 0.000885008 0)
(0.919771 0.286523 0)
(0.176677 0.080553 0)
(0.207801 0.0264498 0)
(0.240617 -0.0181975 0)
(0.268776 -0.0698429 0)
(0.282138 -0.121551 0)
(0.274349 -0.154441 0)
(0.230296 -0.155336 0)
(0.118193 -0.142738 0)
(0.0467239 -0.161681 0)
(-0.0449189 -0.247955 0)
(-0.0768465 -0.393261 0)
(-0.0430388 -0.360401 0)
(0.179304 -0.279832 0)
(0.463293 0.103957 0)
(0.19347 0.0865753 0)
(0.208527 0.0618417 0)
(0.240144 0.0250892 0)
(0.26787 -0.0184182 0)
(0.273643 -0.0667403 0)
(0.248684 -0.10407 0)
(0.185771 -0.114138 0)
(0.0834029 -0.109326 0)
(0.0199631 -0.120231 0)
(-0.0228088 -0.151438 0)
(-0.0810847 -0.269181 0)
(-0.035159 -0.407706 0)
(0.0959501 -0.341874 0)
(0.373529 -0.0936481 0)
(0.147266 0.0972491 0)
(0.200278 0.070282 0)
(0.235651 0.0638182 0)
(0.263267 0.0288778 0)
(0.267993 -0.0141183 0)
(0.232456 -0.0547381 0)
(0.156378 -0.0752464 0)
(0.0609149 -0.0820882 0)
(0.00271507 -0.094926 0)
(-0.0349991 -0.111685 0)
(-0.0557622 -0.154411 0)
(-0.0791644 -0.276544 0)
(0.0602663 -0.37367 0)
(0.286269 -0.223182 0)
(0.412441 -0.0957191 0)
(0.0174197 0.129081 0)
(0.164788 0.0927013 0)
(0.226999 0.0930049 0)
(0.256362 0.0711557 0)
(0.260736 0.0349987 0)
(0.225314 -0.00565624 0)
(0.141234 -0.0370317 0)
(0.0500654 -0.0584228 0)
(-0.00525311 -0.0773464 0)
(-0.0409072 -0.0910482 0)
(-0.0635956 -0.108948 0)
(-0.0643521 -0.147394 0)
(-0.0449549 -0.250593 0)
(0.184314 -0.26715 0)
(0.322501 -0.143647 0)
(0.0761173 0.0437402 0)
(0.0443933 0.162341 0)
(0.221052 0.127752 0)
(0.248449 0.107036 0)
(0.25332 0.0783397 0)
(0.219705 0.0419112 0)
(0.13817 0.00425587 0)
(0.0484389 -0.0333394 0)
(-0.00747963 -0.0612626 0)
(-0.0442704 -0.0765541 0)
(-0.0697615 -0.0873946 0)
(-0.0783539 -0.0994884 0)
(-0.0645234 -0.117299 0)
(0.00614438 -0.179844 0)
(0.207723 -0.148493 0)
(-0.176365 0.0269982 0)
(-0.412334 -0.0213144 0)
(0.190017 0.185393 0)
(0.244352 0.140421 0)
(0.24628 0.114225 0)
(0.216664 0.0840594 0)
(0.144854 0.0456674 0)
(0.0532064 -0.00208448 0)
(-0.00598584 -0.0422627 0)
(-0.0459558 -0.0623659 0)
(-0.0751387 -0.0733751 0)
(-0.0923209 -0.0784544 0)
(-0.0897228 -0.0769106 0)
(-0.0801986 -0.0619511 0)
(-0.0643336 -0.0251053 0)
(-0.226749 0.0564553 0)
(-0.34156 -0.000428798 0)
(-0.488042 -0.492436 0)
(-0.410532 -0.0428602 0)
(0.219622 0.186954 0)
(0.236043 0.165849 0)
(0.241349 0.143467 0)
(0.215038 0.118517 0)
(0.153151 0.083923 0)
(0.0708284 0.0348102 0)
(-0.00205226 -0.017069 0)
(-0.0462033 -0.0454603 0)
(-0.0796439 -0.0602086 0)
(-0.103156 -0.0658735 0)
(-0.114638 -0.0616952 0)
(-0.113259 -0.0416415 0)
(-0.14316 0.00959504 0)
(-0.23478 0.0574703 0)
(-0.310008 -0.000410777 0)
(-0.36651 0.0935999 0)
(-0.00785645 -0.671662 0)
(-0.426954 -0.273943 0)
(-0.322035 -0.360205 0)
(0.153617 0.128102 0)
(0.2341 0.136744 0)
(0.237482 0.161321 0)
(0.214905 0.145398 0)
(0.161332 0.116398 0)
(0.0867735 0.071685 0)
(0.0122947 0.0173795 0)
(-0.0447985 -0.023938 0)
(-0.0828963 -0.0448515 0)
(-0.11167 -0.0543998 0)
(-0.131491 -0.0534345 0)
(-0.144368 -0.0387461 0)
(-0.164469 -0.00459958 0)
(-0.233164 0.0376629 0)
(-0.297602 0.00238688 0)
(-0.341207 0.123589 0)
(-0.318951 -0.312705 0)
(-0.0165407 -0.214282 0)
(-0.243391 -0.38459 0)
(0.165283 0.104916 0)
(0.0929861 0.0954292 0)
(0.200703 0.124485 0)
(0.234762 0.15078 0)
(0.216486 0.162694 0)
(0.169348 0.142006 0)
(0.1016 0.104549 0)
(0.0279842 0.0545775 0)
(-0.0377535 0.00428269 0)
(-0.0843055 -0.0256223 0)
(-0.117933 -0.0411341 0)
(-0.143374 -0.0453282 0)
(-0.163701 -0.037842 0)
(-0.187179 -0.0165094 0)
(-0.23224 0.0139518 0)
(-0.286593 -0.00568939 0)
(-0.324598 0.128493 0)
(-0.318448 -0.303524 0)
(1.08924 -0.00580622 0)
(0.0529034 0.0890838 0)
(-0.0219447 0.056701 0)
(0.0766044 0.0772527 0)
(0.170628 0.114622 0)
(0.221247 0.14376 0)
(0.217712 0.162839 0)
(0.177522 0.158986 0)
(0.115514 0.130859 0)
(0.0445281 0.0883006 0)
(-0.025812 0.0377739 0)
(-0.0820249 -0.00147191 0)
(-0.12161 -0.0247877 0)
(-0.151659 -0.035154 0)
(-0.176442 -0.0345923 0)
(-0.201946 -0.023051 0)
(-0.237028 -0.00279101 0)
(-0.280158 -0.0198214 0)
(-0.311352 0.127747 0)
(-0.307635 -0.309253 0)
(-0.0241854 0.0472765 0)
(-0.0628094 0.0451556 0)
(-0.0152527 0.048039 0)
(0.0570108 0.0671371 0)
(0.151822 0.101008 0)
(0.205058 0.134829 0)
(0.213558 0.157029 0)
(0.184048 0.16303 0)
(0.128748 0.14857 0)
(0.0609606 0.115393 0)
(-0.010498 0.070245 0)
(-0.0735765 0.0266071 0)
(-0.121693 -0.00485325 0)
(-0.15665 -0.0222214 0)
(-0.185008 -0.028222 0)
(-0.212047 -0.0244715 0)
(-0.243243 -0.0124368 0)
(-0.278267 -0.0295732 0)
(-0.303131 0.122256 0)
(-0.296938 -0.322825 0)
(-0.0950512 0.0189091 0)
(-0.0757902 0.0335415 0)
(-0.0369794 0.0443756 0)
(0.0305909 0.057586 0)
(0.132802 0.0869107 0)
(0.190744 0.120552 0)
(0.206557 0.146959 0)
(0.186923 0.159036 0)
(0.14015 0.155186 0)
(0.0769633 0.133929 0)
(0.00771 0.0987019 0)
(-0.0609589 0.054775 0)
(-0.116274 0.0180646 0)
(-0.157961 -0.0064558 0)
(-0.190126 -0.0188858 0)
(-0.219035 -0.0217365 0)
(-0.249094 -0.0160225 0)
(-0.279 -0.0348447 0)
(-0.299902 0.111934 0)
(-0.290769 -0.33321 0)
(-0.120485 0.0108003 0)
(-0.0965146 0.0279091 0)
(-0.0617454 0.0328573 0)
(0.0447977 0.0360479 0)
(0.112233 0.0708985 0)
(0.176347 0.103995 0)
(0.199146 0.132404 0)
(0.187429 0.149867 0)
(0.148862 0.153546 0)
(0.0918008 0.142557 0)
(0.0253867 0.117409 0)
(-0.0442656 0.0799408 0)
(-0.106198 0.0415727 0)
(-0.15453 0.0116232 0)
(-0.19177 -0.00698973 0)
(-0.22323 -0.0157696 0)
(-0.253793 -0.0150599 0)
(-0.281465 -0.0376459 0)
(-0.30008 0.104498 0)
(-0.290255 -0.334699 0)
(-0.140835 0.00661923 0)
(-0.112815 0.0212739 0)
(-0.0669398 0.00679987 0)
(-0.0235152 -0.00155007 0)
(0.101571 0.0526042 0)
(0.161622 0.0857244 0)
(0.191221 0.115426 0)
(0.186785 0.136469 0)
(0.155496 0.14618 0)
(0.104782 0.143079 0)
(0.0424908 0.127116 0)
(-0.0259874 0.0984188 0)
(-0.0916165 0.0629619 0)
(-0.146549 0.0304451 0)
(-0.189391 0.00680531 0)
(-0.224543 -0.00733035 0)
(-0.256772 -0.0107959 0)
(-0.284469 -0.0383407 0)
(-0.302256 0.101837 0)
(-0.29422 -0.333538 0)
(-0.155372 0.0029272 0)
(-0.120768 0.0123115 0)
(-0.0582393 0.000195407 0)
(-0.0350567 -0.00825682 0)
(0.0806045 0.0363463 0)
(0.149383 0.0675259 0)
(0.182751 0.0970612 0)
(0.185094 0.120384 0)
(0.160594 0.13443 0)
(0.116002 0.137555 0)
(0.0583346 0.129143 0)
(-0.00730448 0.109252 0)
(-0.0742019 0.0794859 0)
(-0.134208 0.0478542 0)
(-0.183014 0.0213102 0)
(-0.222597 0.0028351 0)
(-0.257595 -0.00426723 0)
(-0.287072 -0.0372342 0)
(-0.305259 0.10241 0)
(-0.300309 -0.331162 0)
(-0.164213 -0.000614565 0)
(-0.123245 0.00848601 0)
(-0.0545854 -0.00369925 0)
(-0.0418318 -0.0116472 0)
(0.0624901 0.0230583 0)
(0.136071 0.0505656 0)
(0.174461 0.07862 0)
(0.18237 0.102781 0)
(0.164233 0.11973 0)
(0.125593 0.127524 0)
(0.0726954 0.125172 0)
(0.0114204 0.112726 0)
(-0.0555081 0.0898471 0)
(-0.118604 0.0617717 0)
(-0.172749 0.0349145 0)
(-0.217374 0.0137334 0)
(-0.255873 0.00351579 0)
(-0.288512 -0.0345409 0)
(-0.308092 0.105053 0)
(-0.306543 -0.32838 0)
(-0.168968 -0.00281945 0)
(-0.12401 0.006624 0)
(-0.0534261 -0.00647136 0)
(-0.0421268 -0.0133149 0)
(0.0482285 0.0123539 0)
(0.123098 0.0355481 0)
(0.165899 0.0610884 0)
(0.178884 0.0847879 0)
(0.166448 0.103329 0)
(0.133526 0.114428 0)
(0.0855455 0.116824 0)
(0.0278195 0.110119 0)
(-0.036582 0.0941623 0)
(-0.101112 0.0709796 0)
(-0.159312 0.0460766 0)
(-0.208881 0.0240689 0)
(-0.251417 0.0113888 0)
(-0.288149 -0.0303518 0)
(-0.310003 0.108753 0)
(-0.31167 -0.325496 0)
(-0.171391 -0.00429743 0)
(-0.123699 0.00588438 0)
(-0.0532656 -0.00840669 0)
(-0.0378779 -0.015076 0)
(0.0362361 0.00243836 0)
(0.111928 0.0226284 0)
(0.15762 0.0451506 0)
(0.174775 0.0673766 0)
(0.167392 0.0863237 0)
(0.139798 0.0995428 0)
(0.096706 0.105449 0)
(0.0428499 0.10341 0)
(-0.018851 0.093264 0)
(-0.0829444 0.0753167 0)
(-0.143755 0.0537665 0)
(-0.197572 0.032683 0)
(-0.244475 0.0186313 0)
(-0.285446 -0.0246635 0)
(-0.310461 0.112453 0)
(-0.314831 -0.322541 0)
(-0.172421 -0.00540172 0)
(-0.122618 0.0057812 0)
(-0.053092 -0.0103217 0)
(-0.029749 -0.0182449 0)
(0.0293293 -0.00677256 0)
(0.103491 0.0110997 0)
(0.150351 0.0308272 0)
(0.170433 0.0510996 0)
(0.167242 0.069602 0)
(0.144474 0.0839331 0)
(0.106101 0.0922976 0)
(0.0562036 0.0937911 0)
(-0.0020775 0.0882175 0)
(-0.0651867 0.0752368 0)
(-0.127144 0.0576497 0)
(-0.184195 0.0387651 0)
(-0.235181 0.0245967 0)
(-0.28042 -0.0184338 0)
(-0.309012 0.115006 0)
(-0.31552 -0.319361 0)
(-0.172693 -0.00632705 0)
(-0.121869 0.00584535 0)
(-0.0567056 -0.0133114 0)
(-0.0155698 -0.0239213 0)
(0.0321411 -0.0151194 0)
(0.096832 -0.000637997 0)
(0.144546 0.0175443 0)
(0.166244 0.0360064 0)
(0.166251 0.0536839 0)
(0.147657 0.0684186 0)
(0.113696 0.0783954 0)
(0.0677614 0.082487 0)
(0.0131187 0.0801309 0)
(-0.0482833 0.0715942 0)
(-0.110393 0.0579271 0)
(-0.169583 0.0419431 0)
(-0.224035 0.0287459 0)
(-0.273172 -0.0133001 0)
(-0.305428 0.115797 0)
(-0.313645 -0.315735 0)
(-0.172793 -0.00722857 0)
(-0.122483 0.00527823 0)
(-0.0685581 -0.019619 0)
(0.0133804 -0.0352512 0)
(0.0395872 -0.0250454 0)
(0.0932048 -0.0132882 0)
(0.140487 0.0043675 0)
(0.162407 0.021784 0)
(0.164645 0.0387273 0)
(0.149485 0.053523 0)
(0.119499 0.0645054 0)
(0.0774135 0.0704953 0)
(0.0260345 0.0707278 0)
(-0.0327232 0.0654697 0)
(-0.0940918 0.0552032 0)
(-0.154477 0.042241 0)
(-0.211689 0.0307109 0)
(-0.264269 -0.00980238 0)
(-0.299985 0.116464 0)
(-0.309522 -0.311658 0)
(-0.17325 -0.00837551 0)
(-0.124651 0.00216108 0)
(-0.0775628 -0.0332352 0)
(0.0180799 -0.060333 0)
(0.0498952 -0.0380462 0)
(0.0925674 -0.0268327 0)
(0.136367 -0.00952563 0)
(0.158984 0.0080199 0)
(0.162511 0.0246467 0)
(0.150072 0.0394904 0)
(0.123555 0.0511541 0)
(0.0850973 0.058498 0)
(0.0370738 0.0607438 0)
(-0.0187417 0.0579629 0)
(-0.0786118 0.0503104 0)
(-0.139394 0.0399988 0)
(-0.198753 0.030339 0)
(-0.254415 -0.00828153 0)
(-0.29307 0.117772 0)
(-0.303566 -0.308837 0)
(-0.173025 -0.0104564 0)
(-0.123013 -0.00756854 0)
(-0.0473683 -0.0536302 0)
(0.0195451 -0.0704337 0)
(0.0561679 -0.0575796 0)
(0.0935806 -0.0415907 0)
(0.132549 -0.0241175 0)
(0.155176 -0.00573644 0)
(0.159795 0.0112933 0)
(0.149441 0.0263673 0)
(0.125888 0.0386311 0)
(0.0908059 0.0470239 0)
(0.0461976 0.0507734 0)
(-0.00631128 0.0498116 0)
(-0.0640934 0.0441336 0)
(-0.124587 0.0357771 0)
(-0.185656 0.027676 0)
(-0.244265 -0.00883725 0)
(-0.285087 0.119538 0)
(-0.296222 -0.309204 0)
(-0.167694 -0.0149164 0)
(-0.106556 -0.0260339 0)
(-0.0302146 -0.0574433 0)
(0.0323111 -0.0852656 0)
(0.0577337 -0.0734914 0)
(0.0937452 -0.0577378 0)
(0.128685 -0.0391428 0)
(0.150508 -0.0196999 0)
(0.156276 -0.00155828 0)
(0.147502 0.0141309 0)
(0.12648 0.027049 0)
(0.0945183 0.0363871 0)
(0.0533558 0.0413724 0)
(0.00469159 0.0415272 0)
(-0.0506668 0.0375089 0)
(-0.110137 0.0303613 0)
(-0.17251 0.0229684 0)
(-0.234293 -0.0112465 0)
(-0.276431 0.121311 0)
(-0.288184 -0.313147 0)
(-0.150314 -0.0229836 0)
(-0.0799667 -0.0392556 0)
(0.00441997 -0.0766605 0)
(-0.0769202 -0.11987 0)
(0.0593737 -0.0867849 0)
(0.0913024 -0.0721406 0)
(0.124107 -0.0540208 0)
(0.144804 -0.0338055 0)
(0.151097 -0.0141469 0)
(0.144024 0.00279064 0)
(0.125264 0.0164551 0)
(0.096219 0.0267263 0)
(0.0584895 0.0328593 0)
(0.0134426 0.0342422 0)
(-0.0385795 0.0312342 0)
(-0.0962464 0.0247505 0)
(-0.159199 0.0169137 0)
(-0.224483 -0.0149125 0)
(-0.267557 0.122048 0)
(-0.280398 -0.320787 0)
(-0.117175 -0.0332372 0)
(-0.0525322 -0.0646996 0)
(-0.143516 -0.133191 0)
(0.0481517 -0.0961259 0)
(0.0864171 -0.0831691 0)
(0.118333 -0.0670982 0)
(0.137867 -0.0476581 0)
(0.144107 -0.0266585 0)
(0.138751 -0.00788308 0)
(0.122084 0.0069455 0)
(0.0959126 0.0181103 0)
(0.0615581 0.0253259 0)
(0.0201752 0.0279334 0)
(-0.028253 0.0259566 0)
(-0.0833451 0.0198767 0)
(-0.145863 0.0108592 0)
(-0.214258 -0.0187138 0)
(-0.25918 0.119279 0)
(-0.274011 -0.331166 0)
(-0.0827917 -0.0486689 0)
(-0.165114 -0.10845 0)
(0.0679913 0.0812257 0)
(0.0752292 -0.0885113 0)
(0.111915 -0.0761316 0)
(0.130038 -0.0603619 0)
(0.135114 -0.0390626 0)
(0.130871 -0.0180324 0)
(0.117061 -0.00141799 0)
(0.0935925 0.0106478 0)
(0.0625911 0.0187823 0)
(0.0247675 0.0225611 0)
(-0.0199363 0.0217825 0)
(-0.0719969 0.0164388 0)
(-0.133068 0.00626505 0)
(-0.203179 -0.0207224 0)
(-0.251876 0.111752 0)
(-0.270438 -0.340736 0)
(-0.139583 -0.0664653 0)
(0.152173 0.154435 0)
(0.064962 -0.0674853 0)
(0.104198 -0.0757264 0)
(0.12296 -0.0702255 0)
(0.124603 -0.0511927 0)
(0.119998 -0.0278463 0)
(0.109312 -0.00861372 0)
(0.0891927 0.00463772 0)
(0.0616641 0.0133142 0)
(0.027237 0.0180401 0)
(-0.0139262 0.0185947 0)
(-0.0627527 0.0145526 0)
(-0.121666 0.00410494 0)
(-0.191043 -0.0214183 0)
(-0.245168 0.101589 0)
(-0.271479 -0.346574 0)
(-0.151891 0.245765 0)
(0.126153 -0.0447692 0)
(0.0921631 -0.0491695 0)
(0.115557 -0.0713086 0)
(0.114693 -0.0624694 0)
(0.105826 -0.0374214 0)
(0.0979425 -0.0145363 0)
(0.0826685 0.000461479 0)
(0.0588359 0.00928495 0)
(0.0277433 0.0143911 0)
(-0.0102836 0.0161443 0)
(-0.0560594 0.0138618 0)
(-0.112141 0.00468549 0)
(-0.178943 -0.0207269 0)
(-0.239079 0.0946998 0)
(-0.278739 -0.349161 0)
(-0.274935 0.15981 0)
(0.173673 0.00765774 0)
(0.105748 -0.0449968 0)
(0.100931 -0.0686435 0)
(0.0874882 -0.0461011 0)
(0.0818511 -0.0184125 0)
(0.0727293 -0.000868512 0)
(0.0540637 0.00758487 0)
(0.0265368 0.011979 0)
(-0.00882232 0.0142828 0)
(-0.0520452 0.0138493 0)
(-0.105166 0.00717487 0)
(-0.168742 -0.018755 0)
(-0.233583 0.0949369 0)
(-0.291427 -0.348182 0)
(-0.275865 0.212508 0)
(0.238878 0.0339052 0)
(0.092278 -0.0545394 0)
(0.0478673 -0.0442375 0)
(0.0574902 -0.0154527 0)
(0.0576785 0.00340332 0)
(0.0470041 0.00993727 0)
(0.0239119 0.0117975 0)
(-0.00918549 0.0132992 0)
(-0.0505285 0.0141202 0)
(-0.101071 0.0102081 0)
(-0.161445 -0.0156768 0)
(-0.228381 0.101755 0)
(-0.305684 -0.343772 0)
(-0.57325 0.290546 0)
(0.27946 0.0524883 0)
(0.00657311 0.070917 0)
(-0.00895772 0.0347999 0)
(0.0341669 0.0213925 0)
(0.0370756 0.0197141 0)
(0.0201267 0.0158566 0)
(-0.0108685 0.0142399 0)
(-0.0511359 0.0148829 0)
(-0.0995619 0.0129013 0)
(-0.157522 -0.0108342 0)
(-0.223055 0.111287 0)
(-0.316886 -0.336613 0)
(-0.815985 0.373083 0)
(0.0167236 0.184775 0)
(-0.019125 0.122491 0)
(-0.014588 0.0791935 0)
(0.0238499 0.0446404 0)
(0.0151226 0.0280995 0)
(-0.0133852 0.0192082 0)
(-0.0533745 0.0171107 0)
(-0.0999069 0.0155143 0)
(-0.15538 -0.00503886 0)
(-0.216823 0.116936 0)
(-0.321776 -0.327026 0)
(-0.681553 0.36017 0)
(0.00815503 0.185372 0)
(-0.0203068 0.166887 0)
(-0.000802842 0.102985 0)
(0.0100559 0.0559417 0)
(-0.0165451 0.0321498 0)
(-0.0566417 0.0225797 0)
(-0.101414 0.0191466 0)
(-0.153047 0.000909558 0)
(-0.210412 0.113995 0)
(-0.319753 -0.314615 0)
(-0.577412 0.226446 0)
(0.0222601 0.180242 0)
(-0.0106504 0.196323 0)
(0.00598716 0.11003 0)
(-0.0177786 0.0576241 0)
(-0.0600886 0.033884 0)
(-0.103451 0.0254112 0)
(-0.149636 0.00791355 0)
(-0.20295 0.107223 0)
(-0.312776 -0.299507 0)
(-0.554849 0.103166 0)
(0.125562 0.199368 0)
(0.00406351 0.189417 0)
(-0.00990025 0.0964846 0)
(-0.0610406 0.05192 0)
(-0.106085 0.0360465 0)
(-0.144549 0.017387 0)
(-0.193474 0.0995736 0)
(-0.304458 -0.28652 0)
(-0.55667 0.057445 0)
(0.179097 0.201933 0)
(0.00664811 0.152419 0)
(-0.0501829 0.0725332 0)
(-0.110275 0.0518566 0)
(-0.137534 0.0304141 0)
(-0.181416 0.0922893 0)
(-0.296051 -0.274154 0)
(-0.42115 0.114646 0)
(0.196636 0.179812 0)
(-0.0188864 0.0947349 0)
(-0.110317 0.0714124 0)
(-0.12898 0.0476796 0)
(-0.166076 0.0857912 0)
(-0.287492 -0.259303 0)
(-0.380773 0.178486 0)
(0.180299 0.150125 0)
(-0.0866086 0.0971741 0)
(-0.113857 0.071125 0)
(-0.145135 0.0793254 0)
(-0.278762 -0.241406 0)
(-0.486422 0.246514 0)
(-0.0627852 0.155418 0)
(-0.0623683 0.104785 0)
(-0.109879 0.0732826 0)
(-0.267704 -0.221802 0)
(-0.607324 0.238188 0)
(0.0116152 0.132681 0)
(-0.0437269 0.0778413 0)
(-0.241629 -0.198327 0)
(-0.654363 0.0835537 0)
(0.15808 0.115539 0)
(-0.182675 -0.156156 0)
(-0.432649 0.110227 0)
(-0.155475 -0.0780099 0)
(-0.646961 -0.00706234 0)
)
;

boundaryField
{
    floor
    {
        type            noSlip;
    }
    ceiling
    {
        type            noSlip;
    }
    sWall
    {
        type            noSlip;
    }
    nWall
    {
        type            noSlip;
    }
    sideWalls
    {
        type            empty;
    }
    glass1
    {
        type            noSlip;
    }
    glass2
    {
        type            noSlip;
    }
    sun
    {
        type            noSlip;
    }
    Table_master
    {
        type            noSlip;
    }
    Table_slave
    {
        type            noSlip;
    }
    inlet
    {
        type            fixedValue;
        value           uniform (0.5 0 0);
    }
    outlet
    {
        type            zeroGradient;
    }
}


// ************************************************************************* //
