/*--------------------------------*- C++ -*----------------------------------*\
  =========                 |
  \\      /  F ield         | OpenFOAM: The Open Source CFD Toolbox
   \\    /   O peration     | Website:  https://openfoam.org
    \\  /    A nd           | Version:  6
     \\/     M anipulation  |
\*---------------------------------------------------------------------------*/
FoamFile
{
    version     2.0;
    format      ascii;
    class       volVectorField;
    location    "300";
    object      U;
}
// * * * * * * * * * * * * * * * * * * * * * * * * * * * * * * * * * * * * * //

dimensions      [0 1 -1 0 0 0 0];

internalField   nonuniform List<vector> 
775
(
(0.0167675 0.0273027 0)
(-0.0526118 0.00785698 0)
(-0.0593381 0.00692182 0)
(-0.0713623 0.00627013 0)
(-0.0819143 0.00483012 0)
(-0.0902813 0.00303347 0)
(-0.0959646 0.00100379 0)
(-0.0985964 -0.00122959 0)
(-0.0978655 -0.00366684 0)
(-0.0935649 -0.00637126 0)
(-0.08546 -0.00929538 0)
(-0.073173 -0.0124706 0)
(-0.0569165 -0.0164 0)
(-0.0414517 -0.0222726 0)
(-0.0437044 -0.0296459 0)
(0.00342473 0.01243 0)
(-0.0306337 -0.000504472 0)
(-0.0276438 -0.00381057 0)
(-0.0251447 -0.00396302 0)
(-0.0224506 -0.00417539 0)
(-0.0190718 -0.0049359 0)
(-0.0146705 -0.00607619 0)
(-0.00896188 -0.00728119 0)
(-0.00162633 -0.00884909 0)
(0.00813253 -0.0117227 0)
(0.0166743 -0.0134011 0)
(0.0289543 -0.00906934 0)
(0.00164309 0.00858679 0)
(0.00586411 -0.000334885 0)
(-0.0095527 -0.0224565 0)
(0.017507 -0.0260575 0)
(0.0483213 -0.0146048 0)
(-0.0398817 0.0196498 0)
(0.0728625 0.0563173 0)
(-0.0546918 0.0210449 0)
(-0.0548255 0.0189164 0)
(-0.0681429 0.017577 0)
(-0.0790811 0.0147788 0)
(-0.0876585 0.0111697 0)
(-0.093572 0.00699609 0)
(-0.0965799 0.00234838 0)
(-0.0964388 -0.00270656 0)
(-0.0930746 -0.00798015 0)
(-0.0865597 -0.0130529 0)
(-0.0771843 -0.0174845 0)
(-0.0660595 -0.0211213 0)
(-0.0563094 -0.023749 0)
(-0.0514555 -0.0208408 0)
(-0.0419309 0.00249385 0)
(-0.0290362 0.00901583 0)
(-0.0554157 0.00305846 0)
(0.0551904 0.0302119 0)
(-0.0156883 0.00483937 0)
(-0.00712713 -0.00469746 0)
(-0.00774627 -0.00442101 0)
(-0.00951301 -0.00385803 0)
(-0.0111465 -0.00433345 0)
(-0.0125493 -0.00566963 0)
(-0.0134948 -0.00745818 0)
(-0.013735 -0.010005 0)
(-0.0129627 -0.01367 0)
(-0.0100576 -0.0165756 0)
(0.00321842 -0.00781937 0)
(-0.0590938 0.0365287 0)
(0.0509422 0.0211324 0)
(0.00942338 -0.0253142 0)
(0.0198389 -0.0297602 0)
(0.052461 -0.0106553 0)
(-0.114306 0.0511341 0)
(0.122945 0.0864115 0)
(-0.0624758 0.0364039 0)
(-0.0491029 0.0328398 0)
(-0.0633703 0.0292427 0)
(-0.0743056 0.0240691 0)
(-0.0828837 0.0178596 0)
(-0.0888614 0.0108661 0)
(-0.0920234 0.00320952 0)
(-0.0920832 -0.00494637 0)
(-0.0888895 -0.0133106 0)
(-0.0825453 -0.021249 0)
(-0.0735229 -0.0279999 0)
(-0.0629517 -0.0330248 0)
(-0.0524492 -0.0358022 0)
(-0.0421249 -0.0345544 0)
(-0.0293189 -0.0270712 0)
(-0.0163856 -0.0245433 0)
(-0.0335751 -0.0297319 0)
(0.0880026 0.0140313 0)
(0.0460113 0.00917777 0)
(0.0351144 0.00650026 0)
(0.0274371 0.00553286 0)
(0.0183524 0.00525429 0)
(0.00867476 0.00432908 0)
(-0.00219691 0.00183209 0)
(-0.0134704 -0.00100109 0)
(-0.0254971 -0.00413368 0)
(-0.0361037 -0.00721828 0)
(-0.043473 -0.00785536 0)
(-0.0577323 -0.0039699 0)
(-0.107583 0.00647412 0)
(0.0908801 -0.00086909 0)
(0.020614 -0.0289974 0)
(0.0219154 -0.0308607 0)
(0.0643364 -0.00690881 0)
(-0.173955 0.0756229 0)
(0.167231 0.112878 0)
(-0.0735943 0.0523827 0)
(-0.0428762 0.0473813 0)
(-0.0584009 0.0411266 0)
(-0.068998 0.0337332 0)
(-0.0774419 0.0251922 0)
(-0.0834514 0.0156071 0)
(-0.0867342 0.00504552 0)
(-0.086861 -0.00630715 0)
(-0.0835638 -0.0179719 0)
(-0.0769481 -0.0289412 0)
(-0.0675623 -0.0379671 0)
(-0.0564865 -0.0439873 0)
(-0.0449109 -0.0461568 0)
(-0.0331606 -0.0437828 0)
(-0.0205882 -0.0378513 0)
(-0.00831386 -0.0333566 0)
(-0.00347201 -0.0298367 0)
(0.00684076 0.0187236 0)
(0.0182474 -0.00948932 0)
(0.0211137 -0.00112269 0)
(0.0252816 0.00577882 0)
(0.0268107 0.00929742 0)
(0.0248957 0.0110943 0)
(0.020775 0.0115978 0)
(0.0154759 0.0108746 0)
(0.00963607 0.00956629 0)
(0.0034967 0.0075874 0)
(-0.0025125 0.00356922 0)
(-0.0054307 -0.00519523 0)
(-0.0149471 -0.0217004 0)
(-0.0970381 -0.0445992 0)
(0.09044 -0.0378587 0)
(0.005362 -0.0393429 0)
(0.0151001 -0.0306783 0)
(0.0744549 -0.000108307 0)
(-0.223218 0.0937064 0)
(0.207007 0.135495 0)
(-0.0860189 0.0679771 0)
(-0.0360818 0.0614617 0)
(-0.0534183 0.0524227 0)
(-0.0633064 0.0430028 0)
(-0.0713357 0.0323278 0)
(-0.0771907 0.0202633 0)
(-0.0804571 0.00679677 0)
(-0.0805046 -0.00786296 0)
(-0.0769322 -0.0230226 0)
(-0.0698787 -0.0372187 0)
(-0.0600094 -0.0486544 0)
(-0.0484614 -0.0559308 0)
(-0.0363708 -0.0583054 0)
(-0.02438 -0.0558669 0)
(-0.0127167 -0.0499888 0)
(-0.00215524 -0.0432835 0)
(0.00459484 -0.0363215 0)
(0.0125819 -0.022836 0)
(0.0197248 -0.0156859 0)
(0.0247369 -0.00590528 0)
(0.0282943 0.0025771 0)
(0.0306862 0.0085105 0)
(0.0313003 0.0123525 0)
(0.0303433 0.014309 0)
(0.0282885 0.0144433 0)
(0.0256335 0.0132174 0)
(0.0229838 0.0111326 0)
(0.0213286 0.00866647 0)
(0.0225871 0.00547724 0)
(0.0264624 -0.00515554 0)
(-0.0479566 -0.0313073 0)
(0.0727089 -0.0451511 0)
(0.00178115 -0.0447011 0)
(0.0116868 -0.0312997 0)
(0.0848828 0.00467442 0)
(-0.264186 0.106681 0)
(0.24301 0.155194 0)
(-0.098809 0.083073 0)
(-0.0288408 0.0745248 0)
(-0.0483683 0.0626977 0)
(-0.057022 0.0515022 0)
(-0.0641849 0.0389796 0)
(-0.0695381 0.0246594 0)
(-0.0725344 0.00838186 0)
(-0.0722781 -0.00966133 0)
(-0.06822 -0.0284856 0)
(-0.0605845 -0.0459891 0)
(-0.0502704 -0.0597058 0)
(-0.0385486 -0.0680409 0)
(-0.0265926 -0.0704838 0)
(-0.0151145 -0.0676484 0)
(-0.00446332 -0.0609072 0)
(0.00499871 -0.0519086 0)
(0.0119574 -0.0419994 0)
(0.0187423 -0.0294213 0)
(0.0249496 -0.0190954 0)
(0.029587 -0.00917234 0)
(0.0331506 -0.000366707 0)
(0.0358151 0.00661281 0)
(0.0374759 0.0116277 0)
(0.0381099 0.0146234 0)
(0.0378972 0.0155617 0)
(0.0371242 0.0146601 0)
(0.0362202 0.0122101 0)
(0.0357695 0.00833176 0)
(0.0365609 0.00258831 0)
(0.038411 -0.00579765 0)
(0.0320895 -0.015765 0)
(0.0384196 0.0520735 0)
(0.0483103 0.0965927 0)
(0.0474811 0.118581 0)
(0.0380958 0.00504453 0)
(0.021632 -0.0365768 0)
(0.0175817 -0.0289199 0)
(0.0963877 0.0103289 0)
(-0.294452 0.11605 0)
(0.275161 0.173035 0)
(-0.111692 0.0979264 0)
(-0.021775 0.0860769 0)
(-0.0432888 0.0714313 0)
(-0.0499502 0.0587188 0)
(-0.0556287 0.0446985 0)
(-0.0599988 0.0284409 0)
(-0.0623908 0.00953147 0)
(-0.061543 -0.0119257 0)
(-0.0567554 -0.0345286 0)
(-0.0484425 -0.0552822 0)
(-0.0379046 -0.0709311 0)
(-0.0264858 -0.0799214 0)
(-0.0153515 -0.0820647 0)
(-0.00502417 -0.0784072 0)
(0.0044237 -0.0702833 0)
(0.0123429 -0.0599707 0)
(0.0189017 -0.0483664 0)
(0.0247627 -0.0356996 0)
(0.0299929 -0.0240102 0)
(0.0342321 -0.0132122 0)
(0.0377322 -0.00365018 0)
(0.0404979 0.00422374 0)
(0.0425825 0.0100777 0)
(0.0439502 0.0138247 0)
(0.0446518 0.0154157 0)
(0.0447806 0.0149453 0)
(0.0444738 0.012588 0)
(0.0438425 0.00847244 0)
(0.0427834 0.00259777 0)
(0.0403627 -0.00511647 0)
(0.0337566 -0.0147813 0)
(0.0274865 -0.0192423 0)
(0.0262959 -0.0255587 0)
(0.0346327 -0.0189439 0)
(0.0402038 -0.0345449 0)
(0.0303396 -0.0369201 0)
(0.0178405 -0.0204299 0)
(0.0940923 0.0241692 0)
(-0.33909 0.123003 0)
(0.297388 0.192161 0)
(-0.125528 0.111241 0)
(-0.0166147 0.0947605 0)
(-0.0383679 0.0777354 0)
(-0.0420055 0.0639315 0)
(-0.0454797 0.0488904 0)
(-0.0483189 0.0311554 0)
(-0.0497447 0.00992986 0)
(-0.0479094 -0.014879 0)
(-0.0420712 -0.0412543 0)
(-0.0330999 -0.0649576 0)
(-0.0228124 -0.0819139 0)
(-0.0123358 -0.0909854 0)
(-0.00272455 -0.0923467 0)
(0.00599145 -0.0874079 0)
(0.0134188 -0.0783293 0)
(0.0198782 -0.0668018 0)
(0.0253409 -0.0540795 0)
(0.030093 -0.0409093 0)
(0.034304 -0.0284155 0)
(0.0379328 -0.0169265 0)
(0.0410971 -0.00676214 0)
(0.043794 0.00173076 0)
(0.045989 0.00819621 0)
(0.047657 0.0125293 0)
(0.0487759 0.0146983 0)
(0.0493218 0.0147816 0)
(0.0492664 0.0129708 0)
(0.048537 0.00954445 0)
(0.0469322 0.00487326 0)
(0.0439306 -0.000587834 0)
(0.038799 -0.00597551 0)
(0.0331125 -0.00794614 0)
(0.029909 -0.0076534 0)
(0.0326127 -0.00754035 0)
(0.0344108 -0.0150754 0)
(0.0232458 -0.0184597 0)
(0.011388 -0.000579018 0)
(0.0927961 0.0385554 0)
(-0.343088 0.119655 0)
(0.278719 0.219828 0)
(-0.146296 0.11746 0)
(-0.0148914 0.0967958 0)
(-0.033244 0.0802118 0)
(-0.0329832 0.0663144 0)
(-0.033729 0.0509248 0)
(-0.03461 0.0323356 0)
(-0.0347474 0.0092656 0)
(-0.0311455 -0.0187349 0)
(-0.0238387 -0.0487504 0)
(-0.0145196 -0.0747426 0)
(-0.0052419 -0.0920597 0)
(0.00357752 -0.100486 0)
(0.0109338 -0.100545 0)
(0.0172411 -0.0945743 0)
(0.0225885 -0.0844809 0)
(0.0271028 -0.0720123 0)
(0.0308999 -0.058494 0)
(0.0342088 -0.0448479 0)
(0.0372197 -0.0318854 0)
(0.0400057 -0.0200228 0)
(0.0426321 -0.00954343 0)
(0.045103 -0.00071348 0)
(0.0472533 0.00620306 0)
(0.0490304 0.0110134 0)
(0.0503639 0.0137103 0)
(0.0511639 0.0143924 0)
(0.0513321 0.0132797 0)
(0.0507531 0.0107107 0)
(0.0492823 0.00713281 0)
(0.0467453 0.00307209 0)
(0.0429577 -0.00087934 0)
(0.0387064 -0.00342295 0)
(0.0354125 -0.00489365 0)
(0.0342092 -0.00658369 0)
(0.0324019 -0.0110035 0)
(0.0221199 -0.00890122 0)
(0.0133353 0.0118967 0)
(0.114034 0.0436371 0)
(-0.336571 0.11743 0)
(0.473597 0.25759 0)
(-0.177032 0.116333 0)
(-0.00666398 0.0924722 0)
(-0.0245529 0.078826 0)
(-0.0220654 0.0656241 0)
(-0.0203686 0.0505116 0)
(-0.0192776 0.0318432 0)
(-0.0178739 0.0075917 0)
(-0.0109045 -0.0239869 0)
(-0.00198438 -0.0572573 0)
(0.00691548 -0.0842719 0)
(0.0142812 -0.100471 0)
(0.0203705 -0.10737 0)
(0.0250634 -0.106307 0)
(0.0286262 -0.0992798 0)
(0.0312962 -0.0882996 0)
(0.0333326 -0.0751303 0)
(0.0349909 -0.0611318 0)
(0.0365257 -0.0472607 0)
(0.0381327 -0.0341975 0)
(0.0399078 -0.0223196 0)
(0.041875 -0.01184 0)
(0.043985 -0.00292845 0)
(0.0460645 0.00422446 0)
(0.0479063 0.00938196 0)
(0.0494197 0.012529 0)
(0.0504755 0.0137734 0)
(0.0509491 0.0133435 0)
(0.0507249 0.0115788 0)
(0.0497075 0.00890251 0)
(0.047848 0.00577507 0)
(0.0451737 0.00265148 0)
(0.0419862 -2.12871e-05 0)
(0.0388779 -0.00232116 0)
(0.0363698 -0.00468279 0)
(0.0328016 -0.00707014 0)
(0.0220871 -0.00177512 0)
(0.0125499 0.0198017 0)
(0.12345 0.0509106 0)
(-0.370032 0.127411 0)
(0.591089 0.29734 0)
(-0.218541 0.120853 0)
(0.0066655 0.0871318 0)
(-0.011859 0.0751488 0)
(-0.00933184 0.0625453 0)
(-0.00532578 0.048067 0)
(-0.00212585 0.0296086 0)
(0.00228634 0.00240493 0)
(0.0133362 -0.0331968 0)
(0.0227065 -0.0662271 0)
(0.0299724 -0.0912069 0)
(0.0349731 -0.106093 0)
(0.0379501 -0.111471 0)
(0.0392059 -0.10902 0)
(0.0392476 -0.100908 0)
(0.0385809 -0.089214 0)
(0.0376487 -0.0756785 0)
(0.0368178 -0.0616206 0)
(0.0363649 -0.0479404 0)
(0.0364657 -0.0352108 0)
(0.0371835 -0.023719 0)
(0.0384814 -0.0135863 0)
(0.0402329 -0.0048877 0)
(0.0422764 0.00226703 0)
(0.0442186 0.00762613 0)
(0.0459539 0.0111188 0)
(0.0473344 0.0128398 0)
(0.0482257 0.0130093 0)
(0.0485162 0.0119446 0)
(0.0481279 0.0100219 0)
(0.047035 0.00762609 0)
(0.0452751 0.00510206 0)
(0.0429812 0.00273104 0)
(0.0403616 0.000541054 0)
(0.0376415 -0.00150259 0)
(0.0333199 -0.00223955 0)
(0.0214831 0.00582787 0)
(0.0100364 0.0282511 0)
(0.131501 0.0594635 0)
(-0.397923 0.139829 0)
(0.640172 0.321463 0)
(-0.245321 0.131196 0)
(0.0139935 0.0788252 0)
(0.00363699 0.0690855 0)
(0.00646821 0.0574458 0)
(0.0124859 0.0426215 0)
(0.0181732 0.0228881 0)
(0.0290442 -0.00693009 0)
(0.0411802 -0.0424842 0)
(0.0500609 -0.0740157 0)
(0.0551061 -0.0965307 0)
(0.0566148 -0.108772 0)
(0.055271 -0.111844 0)
(0.0519767 -0.107751 0)
(0.0476621 -0.0986954 0)
(0.0431058 -0.086675 0)
(0.0388916 -0.0732984 0)
(0.0354386 -0.0597567 0)
(0.0329932 -0.046817 0)
(0.0316635 -0.0349284 0)
(0.03143 -0.0242627 0)
(0.0321672 -0.0148429 0)
(0.0336653 -0.00666382 0)
(0.0357339 0.000251582 0)
(0.0379137 0.0056689 0)
(0.0399635 0.00939334 0)
(0.041766 0.011483 0)
(0.0431899 0.0121428 0)
(0.0441225 0.0116654 0)
(0.0444801 0.0103853 0)
(0.0442172 0.00863304 0)
(0.0433257 0.00669797 0)
(0.0418244 0.00482315 0)
(0.0397615 0.00319433 0)
(0.0372503 0.00210278 0)
(0.0327737 0.00325898 0)
(0.0204741 0.0135751 0)
(0.00751493 0.037244 0)
(0.138037 0.0691534 0)
(-0.416549 0.148921 0)
(0.636726 0.338654 0)
(-0.247965 0.124025 0)
(0.023795 0.0473943 0)
(0.0329706 0.0539055 0)
(0.0352099 0.0514973 0)
(0.0400485 0.036146 0)
(0.0478563 0.0123678 0)
(0.0640287 -0.0207837 0)
(0.0759784 -0.0539395 0)
(0.081721 -0.0807563 0)
(0.0818666 -0.0983649 0)
(0.0775432 -0.106614 0)
(0.070135 -0.106959 0)
(0.0611376 -0.101406 0)
(0.0518489 -0.0919546 0)
(0.0431905 -0.0803281 0)
(0.0357489 -0.067876 0)
(0.0298897 -0.0555873 0)
(0.0257336 -0.0440354 0)
(0.0232614 -0.0335334 0)
(0.0223191 -0.0241304 0)
(0.0226771 -0.0157659 0)
(0.0240583 -0.00838499 0)
(0.02617 -0.00196624 0)
(0.0288113 0.00336149 0)
(0.0313068 0.00722586 0)
(0.0336339 0.00958487 0)
(0.0356922 0.0106287 0)
(0.0373627 0.0106374 0)
(0.0385411 0.00992117 0)
(0.039145 0.00877864 0)
(0.0391103 0.0074721 0)
(0.038374 0.0062483 0)
(0.0368989 0.00539802 0)
(0.0347598 0.00544047 0)
(0.0304867 0.0084772 0)
(0.0183893 0.0209743 0)
(0.00512627 0.0454646 0)
(0.143208 0.0787338 0)
(-0.426744 0.156529 0)
(0.672307 0.331893 0)
(-0.0645134 0.114095 0)
(0.0752025 0.0142256 0)
(0.113793 0.0162441 0)
(0.10709 0.0227513 0)
(0.101877 0.0104194 0)
(0.106063 -0.0146456 0)
(0.117797 -0.0396975 0)
(0.121491 -0.0625813 0)
(0.117225 -0.0807527 0)
(0.107359 -0.0921596 0)
(0.0939068 -0.0965244 0)
(0.0786719 -0.0949704 0)
(0.0633507 -0.0890884 0)
(0.0492152 -0.0804243 0)
(0.0369769 -0.0702909 0)
(0.026976 -0.0597195 0)
(0.0193964 -0.0494876 0)
(0.0141141 -0.0399499 0)
(0.0109661 -0.0313194 0)
(0.00960338 -0.0235207 0)
(0.00971733 -0.0164602 0)
(0.0110165 -0.0100972 0)
(0.0132177 -0.00441314 0)
(0.0162591 0.000592116 0)
(0.0194004 0.0045089 0)
(0.0223465 0.00705479 0)
(0.0251131 0.00839311 0)
(0.0275766 0.00880574 0)
(0.0296062 0.00860241 0)
(0.0310797 0.00806949 0)
(0.0318827 0.00745396 0)
(0.0318937 0.00701644 0)
(0.0310208 0.00713263 0)
(0.0292894 0.00852799 0)
(0.0251875 0.0135773 0)
(0.013457 0.0276401 0)
(0.0013519 0.0517165 0)
(0.146471 0.0870115 0)
(-0.439206 0.164955 0)
(0.752957 0.282033 0)
(0.330444 0.17739 0)
(0.330815 0.132023 0)
(0.326032 0.102663 0)
(0.284093 0.0818406 0)
(0.245422 0.0548699 0)
(0.223128 0.0245352 0)
(0.200523 -0.00763766 0)
(0.174119 -0.036133 0)
(0.146905 -0.057495 0)
(0.120896 -0.0703783 0)
(0.0965529 -0.0757092 0)
(0.0740978 -0.0754912 0)
(0.0541198 -0.0715549 0)
(0.0370712 -0.0652965 0)
(0.0230089 -0.0578042 0)
(0.0118798 -0.0499379 0)
(0.00371134 -0.042348 0)
(-0.0019755 -0.0351061 0)
(-0.00529549 -0.0285872 0)
(-0.0068979 -0.0225217 0)
(-0.00708697 -0.0168613 0)
(-0.00608854 -0.0116494 0)
(-0.0040976 -0.00691422 0)
(-0.0012324 -0.00260468 0)
(0.00273739 0.00122292 0)
(0.00646428 0.00390731 0)
(0.00999067 0.00547502 0)
(0.013251 0.00621912 0)
(0.0161101 0.00648389 0)
(0.0184239 0.00656152 0)
(0.0200434 0.00668615 0)
(0.0207955 0.00713986 0)
(0.0205479 0.0083668 0)
(0.0192531 0.01129 0)
(0.0153681 0.0184521 0)
(0.00408405 0.0337542 0)
(-0.00542817 0.0565497 0)
(0.141914 0.0941974 0)
(-0.455963 0.171623 0)
(-0.258414 0.0476182 0)
(0.095955 0.0782356 0)
(0.161662 0.0690854 0)
(0.157554 0.0487941 0)
(0.150506 0.0244463 0)
(0.140378 0.00033594 0)
(0.125736 -0.0208153 0)
(0.106788 -0.0374433 0)
(0.0873938 -0.0483903 0)
(0.0678527 -0.0539136 0)
(0.0485034 -0.0553898 0)
(0.0305322 -0.0539784 0)
(0.0148567 -0.0505542 0)
(0.00165562 -0.0459054 0)
(-0.00889101 -0.040824 0)
(-0.0164065 -0.0359463 0)
(-0.0217987 -0.0310801 0)
(-0.0253782 -0.0262706 0)
(-0.0274725 -0.0215546 0)
(-0.0282558 -0.017053 0)
(-0.0278723 -0.0128765 0)
(-0.0264571 -0.00909393 0)
(-0.0241112 -0.00571861 0)
(-0.0208479 -0.00273358 0)
(-0.0167334 -0.000259893 0)
(-0.0123822 0.00151436 0)
(-0.00832101 0.00263088 0)
(-0.00467783 0.00334414 0)
(-0.00150574 0.00398715 0)
(0.00105287 0.00485696 0)
(0.00268583 0.00625559 0)
(0.00335056 0.00864768 0)
(0.0030852 0.0131198 0)
(0.000631767 0.0222609 0)
(-0.00841249 0.0391219 0)
(-0.0105453 0.0627988 0)
(0.126103 0.10092 0)
(-0.469434 0.170238 0)
(-0.0326275 0.112605 0)
(0.0893307 0.0808861 0)
(0.0904034 0.0530545 0)
(0.0815759 0.0410357 0)
(0.0776268 0.028314 0)
(0.0696429 0.0115458 0)
(0.0600607 -0.00701395 0)
(0.0493624 -0.0235657 0)
(0.0400143 -0.0340954 0)
(0.0285519 -0.0390648 0)
(0.0146975 -0.0409311 0)
(0.000426676 -0.040917 0)
(-0.0124652 -0.0396266 0)
(-0.0231139 -0.0376523 0)
(-0.0319874 -0.0352384 0)
(-0.039189 -0.0324027 0)
(-0.0449361 -0.0291515 0)
(-0.0493116 -0.0256692 0)
(-0.0524017 -0.0221121 0)
(-0.0542716 -0.0186384 0)
(-0.0549983 -0.0153808 0)
(-0.0546716 -0.0124309 0)
(-0.0533771 -0.0098335 0)
(-0.0511848 -0.00759873 0)
(-0.0481936 -0.00574184 0)
(-0.0445939 -0.00424789 0)
(-0.0405511 -0.00302448 0)
(-0.0363288 -0.00188427 0)
(-0.0321806 -0.000526953 0)
(-0.0282746 0.00138354 0)
(-0.0252396 0.00405402 0)
(-0.0227671 0.00787461 0)
(-0.0206361 0.0138482 0)
(-0.0192367 0.023695 0)
(-0.0208016 0.0396705 0)
(-0.0146551 0.0648443 0)
(0.129562 0.104776 0)
(-0.478856 0.163495 0)
(0.805661 -0.0751728 0)
(0.155499 -0.284465 0)
(-0.0746288 0.00195115 0)
(0.0138159 0.0575905 0)
(0.0175918 0.0455943 0)
(0.0100891 0.04131 0)
(0.00999133 0.0345751 0)
(0.0052292 0.0218838 0)
(-0.00197981 0.0042293 0)
(-0.00281482 -0.0113161 0)
(-0.00297025 -0.0184209 0)
(-0.00887665 -0.0205909 0)
(-0.0192515 -0.0221283 0)
(-0.0299023 -0.0232963 0)
(-0.039765 -0.024108 0)
(-0.0488365 -0.0245658 0)
(-0.0571065 -0.0246278 0)
(-0.0645003 -0.0242914 0)
(-0.0709736 -0.0235593 0)
(-0.0764718 -0.0225053 0)
(-0.0809558 -0.0211989 0)
(-0.0844032 -0.0197041 0)
(-0.0868165 -0.0180758 0)
(-0.0882225 -0.0163597 0)
(-0.0886619 -0.0145935 0)
(-0.0881846 -0.0128118 0)
(-0.0868616 -0.0110522 0)
(-0.0847963 -0.00933799 0)
(-0.0821078 -0.00764041 0)
(-0.0789037 -0.00584724 0)
(-0.075228 -0.00376157 0)
(-0.0709964 -0.00112043 0)
(-0.065848 0.00236826 0)
(-0.0601887 0.00703075 0)
(-0.0544898 0.0129811 0)
(-0.0476624 0.0202942 0)
(-0.0387171 0.0301988 0)
(-0.0201947 0.049877 0)
(0.151783 0.0983778 0)
(-0.451518 0.16531 0)
(0.621902 -0.241758 0)
(-0.330338 -0.0569814 0)
(-0.139889 0.0972212 0)
(-0.0821159 0.0882876 0)
(-0.0642806 0.0701337 0)
(-0.0497212 0.0633201 0)
(-0.0381399 0.0586295 0)
(-0.0338283 0.052974 0)
(-0.0341162 0.0412126 0)
(-0.0325892 0.01211 0)
(-0.0358935 0.0160202 0)
(-0.042764 0.0275277 0)
(-0.0518498 0.0314869 0)
(-0.061041 0.032869 0)
(-0.0700153 0.0343704 0)
(-0.0788118 0.0358148 0)
(-0.087269 0.0371228 0)
(-0.095182 0.0383872 0)
(-0.102393 0.0395999 0)
(-0.108796 0.0406161 0)
(-0.114335 0.0412617 0)
(-0.118996 0.0413868 0)
(-0.122798 0.0408875 0)
(-0.125787 0.0397075 0)
(-0.128024 0.037831 0)
(-0.12958 0.0352741 0)
(-0.130535 0.0320824 0)
(-0.130967 0.0283393 0)
(-0.130936 0.0241721 0)
(-0.130454 0.0197376 0)
(-0.129437 0.0151949 0)
(-0.127619 0.0107236 0)
(-0.124472 0.00660945 0)
(-0.119348 0.00316463 0)
(-0.112096 9.79072e-05 0)
(-0.103874 -0.00457292 0)
(-0.0901668 -0.0118232 0)
(-0.0480948 -0.00852491 0)
(0.134217 0.061263 0)
(-0.481482 0.186091 0)
(0.683746 -0.18362 0)
(-0.372862 -0.124348 0)
(-0.186409 -0.0802584 0)
(-0.153534 -0.0778202 0)
(-0.120401 -0.0902713 0)
(-0.0880399 -0.0981394 0)
(-0.0580228 -0.103459 0)
(-0.0321232 -0.115405 0)
(-0.0115228 -0.178111 0)
(-0.0241815 -0.199096 0)
(-0.0452967 -0.200838 0)
(-0.0594862 -0.200392 0)
(-0.0713736 -0.200467 0)
(-0.0834782 -0.19941 0)
(-0.0956566 -0.196804 0)
(-0.107559 -0.193103 0)
(-0.119031 -0.188766 0)
(-0.129936 -0.184071 0)
(-0.140128 -0.17914 0)
(-0.149512 -0.174001 0)
(-0.158064 -0.168624 0)
(-0.165834 -0.162952 0)
(-0.172923 -0.156915 0)
(-0.179464 -0.150446 0)
(-0.185605 -0.143483 0)
(-0.1915 -0.13598 0)
(-0.197299 -0.12791 0)
(-0.203134 -0.119267 0)
(-0.209108 -0.110054 0)
(-0.215278 -0.100273 0)
(-0.221609 -0.0899055 0)
(-0.227903 -0.0788548 0)
(-0.233811 -0.0668706 0)
(-0.239273 -0.0535197 0)
(-0.245043 -0.0383895 0)
(-0.250594 -0.0212521 0)
(-0.246414 -0.000276644 0)
(-0.216448 0.0328038 0)
(-0.200171 0.0875345 0)
(-0.566293 0.161383 0)
)
;

boundaryField
{
    floor
    {
        type            noSlip;
    }
    ceiling
    {
        type            noSlip;
    }
    sWall
    {
        type            noSlip;
    }
    nWall
    {
        type            noSlip;
    }
    sideWalls
    {
        type            empty;
    }
    glass1
    {
        type            noSlip;
    }
    glass2
    {
        type            noSlip;
    }
    sun
    {
        type            noSlip;
    }
    inlet
    {
        type            fixedValue;
        value           uniform (0.1 -0.1 0);
    }
    outlet
    {
        type            zeroGradient;
    }
}


// ************************************************************************* //
