/*--------------------------------*- C++ -*----------------------------------*\
  =========                 |
  \\      /  F ield         | OpenFOAM: The Open Source CFD Toolbox
   \\    /   O peration     | Website:  https://openfoam.org
    \\  /    A nd           | Version:  6
     \\/     M anipulation  |
\*---------------------------------------------------------------------------*/
FoamFile
{
    version     2.0;
    format      ascii;
    class       surfaceScalarField;
    location    "34299.9999980007051";
    object      phi;
}
// * * * * * * * * * * * * * * * * * * * * * * * * * * * * * * * * * * * * * //

dimensions      [1 0 -1 0 0 0 0];

internalField   nonuniform List<scalar> 
1482
(
-0.00279983
0.00286387
-0.00348419
0.000684361
-0.0041451
0.000660906
-0.00475945
0.000614349
-0.00528111
0.000521665
-0.00569331
0.000412201
-0.00598479
0.000291473
-0.00614244
0.000157649
-0.0061489
6.46129e-06
-0.00597818
-0.000170722
-0.00560031
-0.000377868
-0.00498426
-0.000616049
-0.00405985
-0.000924413
-0.00258074
-0.00147911
-0.00257782
-6.5334e-05
7.01872e-05
0.000777586
-0.00084292
0.00142954
-0.000651952
0.00182846
-0.000398922
0.00204972
-0.000221259
0.00215402
-0.000104297
0.00220135
-4.73372e-05
0.0022241
-2.27443e-05
0.00223373
-9.6295e-06
0.00223451
-7.77566e-07
0.00222737
7.13129e-06
0.00220836
1.90113e-05
0.00216418
4.41875e-05
0.00206165
0.000102524
0.0018455
0.000216147
0.00148901
0.000356497
0.00101904
0.000469969
0.00102548
-0.00204044
0.00507463
-0.00290869
0.00155261
-0.00369472
0.00144694
-0.00434601
0.00126564
-0.00488356
0.00105922
-0.00531264
0.000841278
-0.00563142
0.000610258
-0.00583308
0.000359305
-0.0059069
8.02789e-05
-0.00584502
-0.0002326
-0.00564164
-0.000581247
-0.00528546
-0.000972227
-0.00477532
-0.00143455
-0.00428929
-0.00196515
-0.00470529
-0.00216181
-0.0031183
-0.00158156
-0.00163418
-0.00147842
-0.00161934
0.00131714
-0.00123674
0.00166028
-0.00118605
0.00191077
-0.000902443
0.00210085
-0.000589001
0.00220723
-0.000327644
0.00221597
-0.000113031
0.00221806
-4.94282e-05
0.00221976
-2.44494e-05
0.00222075
-1.06224e-05
0.00222074
-7.61711e-07
0.00221933
8.54135e-06
0.00221509
2.32485e-05
0.00220245
5.68332e-05
0.00214056
0.000164407
0.0018912
0.000465513
0.00146257
0.000785123
0.000900624
0.00103192
0.00194299
-0.00148833
0.00682089
-0.00235935
0.00242363
-0.00312951
0.00221709
-0.00371395
0.00185008
-0.00418487
0.00153013
-0.00455658
0.00121299
-0.00483086
0.000884544
-0.00500446
0.000532902
-0.00507094
0.000146756
-0.00502121
-0.000282329
-0.00484454
-0.000757918
-0.00453353
-0.00128323
-0.00411906
-0.00184903
-0.00372186
-0.00236235
-0.00330177
-0.0025819
-0.00237047
-0.00251285
-0.00127619
-0.0025727
-0.0028827
0.0011488
-0.00237108
0.00165154
-0.0016888
0.0019491
-0.0012
0.00214075
-0.000780657
0.00216866
-0.000355547
0.00205578
0.0020065
0.00198221
0.00197174
0.00197113
0.00197983
0.00200323
0.00206022
0.00222478
0.00186624
0.000824051
0.00141893
0.00123244
0.000801051
0.00164979
0.00277007
-0.00110614
0.00825824
-0.00192818
0.00324567
-0.00257039
0.00285931
-0.00303092
0.00231061
-0.00339866
0.00189787
-0.00368765
0.00150198
-0.00390089
0.00109778
-0.00403652
0.000668526
-0.00408699
0.000197226
-0.0040391
-0.000330217
-0.00388059
-0.000916429
-0.00360741
-0.00155641
-0.00324226
-0.00221418
-0.002821
-0.00278361
-0.00228232
-0.00312057
-0.00156334
-0.00323184
-0.000875765
-0.00326028
-0.000697582
-0.00306088
0.00143873
-0.00212087
0.00137265
-0.002305
0.00168883
-0.00200499
0.00200156
-0.00151272
0.00226793
-0.00104703
0.00254491
-0.000632529
0.00285745
-0.000312696
0.00302384
-0.00016655
0.00308811
-6.44194e-05
0.00307072
1.72357e-05
0.00298044
9.01255e-05
0.00281827
0.000162016
0.00257641
0.000241712
0.00223194
0.000344313
0.0017277
0.000504089
0.0015916
0.000960148
0.00126451
0.00155953
0.000739248
0.00217505
0.00354364
-0.000803843
0.00945528
-0.00158012
0.00402194
-0.00204895
0.00332814
-0.00236484
0.00262649
-0.00260938
0.00214241
-0.00279508
0.00168768
-0.00292695
0.00122965
-0.0030057
0.000747272
-0.00302476
0.000216289
-0.00296751
-0.000387465
-0.00282073
-0.00106321
-0.00257758
-0.00179956
-0.00224473
-0.00254703
-0.00182934
-0.003199
-0.00132501
-0.0036249
-0.000749335
-0.00380751
-0.000218783
-0.00379082
0.000258367
-0.00353803
0.00111976
-0.00298226
0.00148625
-0.00267149
0.00174574
-0.00226447
0.0019985
-0.00176549
0.00222855
-0.00127707
0.00244286
-0.000846845
0.00264345
-0.000513288
0.00275301
-0.000276104
0.00278887
-0.000100277
0.00276276
4.33425e-05
0.00268113
0.000171749
0.00254652
0.000296628
0.00235776
0.000430478
0.00211245
0.000589616
0.00181861
0.000797938
0.00161309
0.00116566
0.00147148
0.00170114
0.0012915
0.00235504
0.00227407
0.00256106
0.00131654
0.000992464
0.00188768
-0.000542391
0.00200676
-0.000575899
0.0104776
-0.00132492
0.00477096
-0.00158475
0.00358797
-0.00175086
0.00279261
-0.00186504
0.00225659
-0.00193672
0.00175936
-0.00197235
0.00126528
-0.00197623
0.000751147
-0.00194516
0.000185223
-0.00185742
-0.000475212
-0.00170326
-0.00121736
-0.00147289
-0.00202994
-0.00116926
-0.00285066
-0.000798228
-0.00357003
-0.000379531
-0.0040436
6.00431e-05
-0.00424708
0.000464929
-0.00419571
0.000839281
-0.00391238
0.00129063
-0.00343361
0.00158994
-0.0029708
0.00179376
-0.00246829
0.00196557
-0.0019373
0.00211742
-0.00142893
0.00225192
-0.000981346
0.0023565
-0.000617867
0.00241429
-0.000333895
0.00242507
-0.000111057
0.0023941
7.4314e-05
0.00232622
0.000239625
0.0022253
0.00039755
0.00209541
0.000560365
0.00194359
0.000741438
0.00178417
0.000957364
0.00169299
0.00125684
0.00174847
0.00164565
0.00195596
0.00214756
0.00219267
0.00232435
0.00170312
0.00148202
0.000788349
0.000372378
0.00289281
-0.000543397
0.0115132
-0.0012437
0.00547127
-0.00119227
0.00353654
-0.0012009
0.00280123
-0.0011935
0.0022492
-0.00116028
0.00172614
-0.0011034
0.0012084
-0.00102854
0.000676288
-0.000930309
8.69943e-05
-0.000781543
-0.000623978
-0.000592649
-0.00140625
-0.000353245
-0.00226934
-7.04638e-05
-0.00313344
0.000233337
-0.00387383
0.000542474
-0.00435273
0.000837057
-0.00454166
0.00109973
-0.00445837
0.00133315
-0.0041458
0.00156532
-0.00366577
0.0017255
-0.00313097
0.00182591
-0.0025687
0.00189633
-0.00200772
0.00195236
-0.00148496
0.00199911
-0.00102809
0.00203123
-0.000649993
0.00204305
-0.000345716
0.00203122
-9.92232e-05
0.00199653
0.000109003
0.00194213
0.000294029
0.00187185
0.00046783
0.00179094
0.000641274
0.00170794
0.000824441
0.00163776
0.00102754
0.00162319
0.00127141
0.00170789
0.00156094
0.00191182
0.00194364
0.00215357
0.0020826
0.00216023
0.00147536
0.00163212
0.000900495
0.00462804
-0.00048354
0.0125322
-0.00105163
0.00603936
-0.000697771
0.00318268
-0.000637254
0.00274071
-0.000569176
0.00218112
-0.000464801
0.00162177
-0.000336088
0.00107968
-0.000185209
0.00052541
3.84168e-06
-0.000102056
0.000221816
-0.000841952
0.000461152
-0.00164559
0.000718208
-0.0025264
0.000974324
-0.00338956
0.00120224
-0.00410175
0.00140095
-0.00455145
0.00156181
-0.00470251
0.00167958
-0.00457614
0.00175906
-0.00422527
0.00181266
-0.00371936
0.0018234
-0.00314172
0.00179937
-0.00254467
0.00175939
-0.00196774
0.00171824
-0.0014438
0.00168326
-0.000993114
0.00165438
-0.000621114
0.00162768
-0.000319018
0.0015984
-6.99444e-05
0.00156441
0.000142992
0.00152607
0.000332375
0.00148483
0.000509067
0.00144401
0.000682097
0.00140998
0.000858466
0.0013938
0.00104373
0.00141864
0.00124657
0.00151099
0.00146859
0.00171549
0.00173914
0.00198013
0.00181796
0.00207747
0.00137802
0.00164287
0.00133511
0.00663798
0.00297609
0.0101433
0.00202062
0.00699483
0.000867875
0.00433543
0.000369562
0.00323902
0.000212571
0.00233811
0.000268751
0.00156559
0.000422383
0.000926051
0.000635995
0.000311798
0.000895014
-0.000361075
0.00115946
-0.00110639
0.00143748
-0.00192362
0.00170391
-0.00279283
0.00192939
-0.00361504
0.00208975
-0.00426212
0.00217919
-0.00464089
0.00220048
-0.00472381
0.00216252
-0.00453819
0.00207904
-0.00414179
0.00196523
-0.00360555
0.00182665
-0.00300313
0.00167532
-0.00239334
0.00152796
-0.00182038
0.00139905
-0.00131489
0.0012966
-0.000890668
0.00122173
-0.000546242
0.00116962
-0.000266907
0.00113311
-3.34343e-05
0.00110709
0.000169013
0.00108827
0.000351196
0.00107463
0.00052271
0.00106643
0.000690296
0.00106679
0.000858106
0.00108224
0.00102827
0.00112583
0.00120298
0.00121395
0.00138047
0.00138018
0.00157291
0.00158732
0.00161081
0.00165834
0.001307
0.000310018
0.00268346
0.00733374
0.00403054
0.00625301
0.00366634
0.00735903
0.00254093
0.00546084
0.00188779
0.00389217
0.0015312
0.0026947
0.00138626
0.00171053
0.00141987
0.000892437
0.00159397
0.000137698
0.0018456
-0.000612708
0.00212222
-0.00138301
0.00240133
-0.00220273
0.00264563
-0.00303713
0.00281352
-0.00378293
0.00287812
-0.00432673
0.00283625
-0.00459904
0.00270182
-0.00458939
0.00249723
-0.0043336
0.00224685
-0.0038914
0.00197344
-0.00333215
0.00169415
-0.00272384
0.00142607
-0.00212525
0.00118693
-0.00158123
0.000991218
-0.00111918
0.000844842
-0.000744293
0.000746479
-0.000447879
0.000687298
-0.000207726
0.000656523
-2.65955e-06
0.00064561
0.000179925
0.000647895
0.000348911
0.000658699
0.000511905
0.00067576
0.000673236
0.000698732
0.000835134
0.000728834
0.000998169
0.000769341
0.00116247
0.000819899
0.00132991
0.000852741
0.00154007
0.000573116
0.0018904
-0.000644882
0.00252482
-0.00190466
0.00394324
0.00553341
0.00240932
0.00400821
0.00330408
0.00646426
0.003248
0.00551691
0.00303716
0.004103
0.00284602
0.00288584
0.00272258
0.00183396
0.00270849
0.000906528
0.00279713
4.90521e-05
0.00295862
-0.000774198
0.0031687
-0.00159309
0.00338548
-0.00241951
0.00354894
-0.0032006
0.00360445
-0.00383846
0.00352549
-0.00424777
0.00331757
-0.00439113
0.00300692
-0.00427875
0.00262808
-0.00395477
0.00221457
-0.0034779
0.00179608
-0.00291366
0.00139639
-0.00232415
0.001037
-0.00176586
0.00073727
-0.0012815
0.000510678
-0.000892588
0.000354951
-0.000588566
0.000261113
-0.000354041
0.000212819
-0.000159432
0.000196764
1.33954e-05
0.000202847
0.000173841
0.000223274
0.000328485
0.000253133
0.000482045
0.000288761
0.000637607
0.000326623
0.000797272
0.000362652
0.00096214
0.000392705
0.00113242
0.000408865
0.00131375
0.000342256
0.00160667
-8.17726e-06
0.0022406
-0.000475432
0.0029917
-0.000667194
0.00413476
0.00498216
0.00145693
0.00274552
0.00274842
0.00517278
0.00343262
0.00483271
0.0037186
0.00381702
0.00381688
0.00278756
0.00384474
0.0018061
0.00388056
0.000870697
0.00394946
-1.98494e-05
0.00405922
-0.000883955
0.00419883
-0.0017327
0.00431678
-0.00253746
0.00434247
-0.00322629
0.00422451
-0.00372051
0.00395083
-0.00397411
0.003544
-0.00398431
0.00304397
-0.00377872
0.00249489
-0.0034057
0.00193576
-0.00291876
0.00140092
-0.00237883
0.00091772
-0.00184095
0.000512938
-0.00136108
0.000204493
-0.000973054
-3.45844e-06
-0.000684636
-0.000128298
-0.000463726
-0.000194936
-0.000287402
-0.000224
-0.000130368
-0.000226753
1.61481e-05
-0.000209976
0.000157063
-0.000178334
0.000296843
-0.000135596
0.000439307
-8.62187e-05
0.000588229
-3.66871e-05
0.00074774
2.84202e-06
0.00092261
1.62875e-05
0.00111898
-2.83725e-05
0.00135842
-0.00022163
0.00179993
-0.000655041
0.00267384
-0.00108842
0.00342472
-0.001056
0.00410202
0.00405555
0.00217229
0.000799197
0.0029444
0.00440067
0.00359491
0.0041822
0.00416498
0.00324694
0.0044925
0.00246003
0.00466655
0.00163205
0.00478316
0.000754089
0.00488776
-0.000124448
0.00499395
-0.000990144
0.00507152
-0.00181026
0.00505474
-0.00252068
0.00488359
-0.00305514
0.00453571
-0.00337264
0.00403008
-0.00346849
0.00341179
-0.00336604
0.00273198
-0.00309892
0.00203981
-0.00271353
0.00137388
-0.00225284
0.000773798
-0.00177874
0.000267264
-0.00133442
-0.000109404
-0.000984411
-0.000353844
-0.000728612
-0.000495936
-0.000542542
-0.000573131
-0.000386529
-0.000613914
-0.000246619
-0.000629865
-0.000114417
-0.000625928
1.22103e-05
-0.000604265
0.0001354
-0.000566276
0.000258853
-0.000514313
0.000387343
-0.000453067
0.000526983
-0.000391114
0.000685785
-0.000343668
0.000875164
-0.000339452
0.00111477
-0.000433323
0.00145233
-0.000692338
0.00205913
-0.00121422
0.00319596
-0.00219874
0.0044093
-0.00244145
0.00434468
0.00175809
-0.00157586
0.00262022
0.0011203
0.00170451
0.00335211
0.00195038
0.00435471
0.00224434
0.00485859
0.00195616
0.00517308
0.00131755
0.00540112
0.00052605
0.00557912
-0.000302431
0.00567833
-0.00108934
0.00563637
-0.00176827
0.00540221
-0.0022865
0.00496414
-0.00261706
0.00434996
-0.00275847
0.00361265
-0.00273118
0.00281271
-0.00256611
0.00200079
-0.00228701
0.00122653
-0.00193928
0.00052208
-0.00154839
-6.16204e-05
-0.00119504
-0.000482734
-0.0009133
-0.000741658
-0.000725482
-0.000887999
-0.000582264
-0.00097072
-0.000459814
-0.00101602
-0.000341222
-0.00103948
-0.000223167
-0.00104678
-0.000107118
-0.00103884
4.27488e-06
-0.00101433
0.000110881
-0.000971721
0.000216244
-0.000911357
0.000326977
-0.000836567
0.000452192
-0.000754991
0.000604207
-0.000680359
0.000800527
-0.000635042
0.00106944
-0.00065007
0.00146741
-0.000713725
0.00212304
-0.000727108
0.00320983
-0.000944703
0.00462732
-0.00105948
0.0044599
0.000855507
0.00288198
0.00457131
0.00487208
0.00164961
0.00535882
0.0017576
0.0055953
0.00171968
0.00582655
0.00108631
0.00601389
0.000338724
0.00608045
-0.000368956
0.00595452
-0.000963358
0.00560236
-0.00141607
0.00503627
-0.0017204
0.00430295
-0.00188372
0.00346038
-0.00191591
0.00256746
-0.00183826
0.00168012
-0.00167878
0.00083262
-0.00143951
7.02118e-05
-0.00117688
-0.000543959
-0.000934222
-0.00096799
-0.000771011
-0.00122367
-0.000657615
-0.00137221
-0.000576923
-0.00145479
-0.000499661
-0.00150115
-0.00041344
-0.00152632
-0.000316048
-0.00153779
-0.0002117
-0.0015382
-0.00010672
-0.00152696
-6.98214e-06
-0.00150117
8.50784e-05
-0.00145718
0.000172251
-0.00139272
0.000262519
-0.00130808
0.000367553
-0.0012063
0.000502427
-0.00109237
0.000686565
-0.000969223
0.000946248
-0.000823902
0.00132204
-0.000587547
0.00188676
-0.000114246
0.00273688
0.000554535
0.00395893
0.00106209
0.0039528
0.0020795
0.00793051
0.00536732
0.00581042
0.00387768
0.00556282
0.00196729
0.00563522
0.00101394
0.00560106
0.000372944
0.00535912
-0.000126964
0.00489716
-0.000501355
0.00425487
-0.000773748
0.00348539
-0.000950905
0.00264152
-0.00103986
0.00176421
-0.0010386
0.000891103
-0.000965168
5.93109e-05
-0.000846993
-0.000667054
-0.00071315
-0.00122622
-0.000617716
-0.00160658
-0.000553857
-0.00184922
-0.000528355
-0.0019925
-0.000514304
-0.00207806
-0.000491318
-0.00213021
-0.000447478
-0.00216201
-0.000381612
-0.00217999
-0.000298069
-0.00218771
-0.000204007
-0.00218693
-0.00010754
-0.00217775
-1.6204e-05
-0.00215801
6.53185e-05
-0.00212375
0.000137981
-0.00207058
0.000209358
-0.00199373
0.000290718
-0.00188658
0.000395282
-0.00173894
0.000538878
-0.00153419
0.000741374
-0.00123866
0.0010263
-0.000771524
0.00141942
-3.69416e-06
0.001969
0.0010712
0.00288423
0.00158356
0.00344069
0.00383419
0.00408895
0.00152493
0.00449093
0.00347571
0.00372451
0.00273374
0.00322804
0.00151046
0.00288891
0.00071214
0.00252647
0.00023552
0.00208081
-5.56723e-05
0.00153974
-0.000232679
0.000921639
-0.000332822
0.000243555
-0.000361793
-0.000455929
-0.000339128
-0.00111573
-0.00030539
-0.00168053
-0.000282215
-0.00211403
-0.000279661
-0.00242078
-0.000310967
-0.00261678
-0.000357833
-0.00274149
-0.000403589
-0.00282522
-0.0004305
-0.00288653
-0.000429931
-0.00293358
-0.000400364
-0.00296971
-0.000345462
-0.00299605
-0.000271749
-0.00301294
-0.00018719
-0.00302062
-9.99635e-05
-0.00301995
-1.69765e-05
-0.00301213
5.74388e-05
-0.00299438
0.000120214
-0.00296137
0.000176393
-0.0029045
0.000233935
-0.00281001
0.000300872
-0.00265761
0.000386489
-0.00241916
0.000502821
-0.00205457
0.00066146
-0.00149903
0.000863499
-0.000620779
0.00109033
0.000805705
0.00145752
0.00149939
0.00274687
0.00551251
-0.00263595
-0.00681093
-0.00743172
-0.00747965
-0.00375683
-0.00214992
-0.00168346
0.00140237
-0.000769134
0.00181946
-0.000566401
0.00130777
-0.000641332
0.000787103
-0.000822437
0.00041664
-0.00106
0.000181899
-0.0013489
5.62128e-05
-0.00169323
1.14887e-05
-0.0020704
1.53474e-05
-0.002446
3.64313e-05
-0.00279376
4.23393e-05
-0.00308847
1.24626e-05
-0.00330526
-6.28776e-05
-0.00344323
-0.000172956
-0.00353019
-0.000270794
-0.00359506
-0.000338613
-0.00365326
-0.000372177
-0.00371022
-0.000372873
-0.0037662
-0.00034432
-0.00381988
-0.000291787
-0.00386971
-0.000222003
-0.00391392
-0.000143137
-0.00394964
-6.443e-05
-0.00397072
3.92672e-06
-0.00397045
5.70389e-05
-0.00395135
0.000101073
-0.00391537
0.000140475
-0.00386077
0.000179474
-0.00378136
0.000221652
-0.0036662
0.000271523
-0.00349813
0.00033487
-0.00324535
0.000408676
-0.00285075
0.000468723
-0.00232506
0.000564266
-0.00198542
0.00111741
-0.00148941
0.0022504
0.00421815
-0.00738215
0.00102493
-0.00814808
-0.00671366
-0.0071936
-0.00310434
-0.00566907
-0.000122107
-0.00457626
0.000726696
-0.0039852
0.000716751
-0.00372642
0.000528331
-0.00365953
0.00034974
-0.00370069
0.000223027
-0.00379397
0.000149437
-0.00389827
0.000115721
-0.00398655
0.000103564
-0.00404527
9.50863e-05
-0.00407826
7.52805e-05
-0.00410104
3.52314e-05
-0.00413002
-3.38593e-05
-0.00417569
-0.000127199
-0.00424042
-0.000205926
-0.00432374
-0.00025515
-0.00442105
-0.000274727
-0.00452469
-0.000269137
-0.00462541
-0.000243578
-0.00471429
-0.000202979
-0.0047845
-0.000151954
-0.00483227
-9.55945e-05
-0.00485667
-4.02946e-05
-0.00485924
6.25214e-06
-0.00483456
3.21754e-05
-0.00478324
4.96586e-05
-0.00470817
6.54186e-05
-0.00460958
8.09907e-05
-0.00448333
9.55958e-05
-0.00431937
0.000107806
-0.00410089
0.000116642
-0.00380467
0.00011268
-0.00338195
4.61745e-05
-0.00263651
-0.000181059
-0.00112739
-0.000391697
-0.000108949
0.00123177
0.00431711
0.0015668
-0.00508214
-0.00812338
-0.00818623
-0.00740542
-0.00664239
-0.00607448
-0.00568991
-0.00543505
-0.00525539
-0.00511
-0.00497656
-0.00485088
-0.00474409
-0.0046766
-0.00467784
-0.00477247
-0.00494619
-0.00516974
-0.00541362
-0.00565269
-0.00586689
-0.00604102
-0.00616445
-0.00623168
-0.00624366
-0.00620912
-0.0061487
-0.00607098
-0.00597786
-0.00586973
-0.00574778
-0.0056146
-0.0054737
-0.00533802
-0.00527022
-0.00543116
-0.00580438
-0.00455577
)
;

boundaryField
{
    floor
    {
        type            calculated;
        value           nonuniform List<scalar> 
36
(
0
0
0
0
0
0
0
0
0
0
0
0
0
0
0
0
0
0
0
-6.43884e-06
-1.68848e-05
-2.60345e-05
-3.43122e-05
-3.4936e-05
-2.87433e-05
-2.86905e-05
-2.91992e-06
-5.44135e-06
-5.68759e-06
-5.90785e-06
-4.85365e-06
-8.93856e-06
-1.02125e-05
-1.28336e-05
-1.44575e-05
-1.54451e-05
)
;
    }
    ceiling
    {
        type            calculated;
        value           nonuniform List<scalar> 
43
(
-5.7905e-05
-6.46612e-05
-6.30218e-05
-5.9192e-05
-5.40568e-05
-4.62492e-05
-3.95844e-05
-3.4866e-05
-3.19012e-05
-3.03132e-05
-2.97573e-05
-2.99632e-05
-3.06632e-05
-3.15332e-05
-3.22405e-05
-3.25632e-05
-3.24649e-05
-3.20728e-05
-3.14647e-05
-3.07435e-05
-3.00279e-05
-2.94207e-05
-2.89804e-05
-2.87137e-05
-2.85857e-05
-2.85373e-05
-2.84969e-05
-2.83871e-05
-2.81387e-05
-2.77016e-05
-2.70555e-05
-2.62039e-05
-2.51676e-05
-2.39775e-05
-2.26675e-05
-2.12688e-05
-1.97881e-05
-1.82322e-05
-1.6737e-05
-1.59966e-05
1.93396e-05
1.51877e-05
-0.000246559
)
;
    }
    sWall
    {
        type            calculated;
        value           nonuniform List<scalar> 9(-0.000140236 -0.000164519 -0.000194246 -0.000225962 -0.000245166 -0.000281099 -0.000423745 -0.000453656 -0.000483946);
    }
    nWall
    {
        type            calculated;
        value           nonuniform List<scalar> 
14
(
-9.03929e-05
-9.7694e-05
-0.000103097
-0.000104259
-0.000115905
-0.000129424
-0.000144017
-0.00015643
-0.000161579
-0.000170995
-0.00017907
-0.000195298
-0.00020823
-0.000222829
)
;
    }
    sideWalls
    {
        type            empty;
        value           nonuniform 0();
    }
    glass1
    {
        type            calculated;
        value           nonuniform List<scalar> 9(-6.40347e-05 -0.000170322 -0.000257925 -0.00033121 -0.000393195 -0.000446402 -0.000492216 -0.000535498 -0.000587177);
    }
    glass2
    {
        type            calculated;
        value           nonuniform List<scalar> 2(-0.000367066 -0.000385651);
    }
    sun
    {
        type            calculated;
        value           uniform 0;
    }
    Table_master
    {
        type            calculated;
        value           nonuniform List<scalar> 9(-1.53995e-07 -1.54111e-07 -1.54144e-07 -1.54164e-07 -1.54177e-07 -1.54181e-07 -1.5418e-07 -1.54166e-07 -1.54112e-07);
    }
    Table_slave
    {
        type            calculated;
        value           nonuniform List<scalar> 9(1.53663e-07 1.5372e-07 1.53719e-07 1.53736e-07 1.53757e-07 1.53801e-07 1.53868e-07 1.53962e-07 1.54089e-07);
    }
    inlet
    {
        type            calculated;
        value           uniform -0.0116482;
    }
    outlet
    {
        type            calculated;
        value           nonuniform List<scalar> 2(0.00987066 0.0122755);
    }
}


// ************************************************************************* //
