/*--------------------------------*- C++ -*----------------------------------*\
  =========                 |
  \\      /  F ield         | OpenFOAM: The Open Source CFD Toolbox
   \\    /   O peration     | Website:  https://openfoam.org
    \\  /    A nd           | Version:  6
     \\/     M anipulation  |
\*---------------------------------------------------------------------------*/
FoamFile
{
    version     2.0;
    format      ascii;
    class       volVectorField;
    location    "34299.9999980007051";
    object      U;
}
// * * * * * * * * * * * * * * * * * * * * * * * * * * * * * * * * * * * * * //

dimensions      [0 1 -1 0 0 0 0];

internalField   nonuniform List<vector> 
778
(
(0.0655948 0.0794101 0)
(-0.155181 0.0157699 0)
(-0.164317 0.0146312 0)
(-0.192445 0.0122825 0)
(-0.216895 0.00873269 0)
(-0.236969 0.00475106 0)
(-0.252111 0.000422336 0)
(-0.261893 -0.00436591 0)
(-0.265801 -0.00981202 0)
(-0.26283 -0.0161961 0)
(-0.251026 -0.0242738 0)
(-0.226318 -0.0348973 0)
(-0.186181 -0.0504242 0)
(-0.144234 -0.0752031 0)
(-0.150137 -0.108609 0)
(0.0546088 0.0354726 0)
(0.0156804 -0.0268532 0)
(0.0448322 -0.0232485 0)
(0.0691941 -0.0161461 0)
(0.0842215 -0.0103422 0)
(0.0914123 -0.00641158 0)
(0.0942431 -0.00433577 0)
(0.095276 -0.00331248 0)
(0.0957252 -0.00272541 0)
(0.09589 -0.00231307 0)
(0.0957611 -0.00194997 0)
(0.0952338 -0.00151132 0)
(0.0939791 -0.000759609 0)
(0.0911399 0.000841238 0)
(0.0849515 0.00405823 0)
(0.0734429 0.00775566 0)
(0.0598333 0.0115894 0)
(-0.00798788 0.0299474 0)
(0.25839 0.167399 0)
(-0.161239 0.0484028 0)
(-0.141618 0.0459952 0)
(-0.174033 0.041633 0)
(-0.199409 0.0356886 0)
(-0.220145 0.0291508 0)
(-0.23619 0.0220785 0)
(-0.247458 0.014245 0)
(-0.253646 0.00530713 0)
(-0.253973 -0.00514969 0)
(-0.247822 -0.0170884 0)
(-0.234118 -0.0308645 0)
(-0.214209 -0.0480977 0)
(-0.197636 -0.0699902 0)
(-0.194126 -0.0826835 0)
(-0.166498 -0.042605 0)
(-0.105398 -0.036437 0)
(-0.0983439 -0.0445289 0)
(0.109325 -0.0419748 0)
(0.0644146 -0.041079 0)
(0.0718016 -0.0322015 0)
(0.0857339 -0.0206602 0)
(0.0935901 -0.0104215 0)
(0.095802 -0.00362968 0)
(0.0955616 -0.000193063 0)
(0.0951772 0.00125706 0)
(0.0951421 0.00190672 0)
(0.0952223 0.00227805 0)
(0.0952277 0.00259513 0)
(0.0951261 0.00313201 0)
(0.0948347 0.00440789 0)
(0.0935792 0.00771576 0)
(0.0879899 0.0167319 0)
(0.0742565 0.0252857 0)
(0.0629667 0.0328686 0)
(-0.0520858 0.0634532 0)
(0.429965 0.253964 0)
(-0.194235 0.0847777 0)
(-0.112794 0.0784563 0)
(-0.148269 0.0669849 0)
(-0.170713 0.0555337 0)
(-0.18882 0.0437632 0)
(-0.202671 0.0313794 0)
(-0.212376 0.018038 0)
(-0.217739 0.00342064 0)
(-0.218105 -0.0126223 0)
(-0.212853 -0.0303272 0)
(-0.20175 -0.0499235 0)
(-0.186114 -0.0715936 0)
(-0.169586 -0.0932455 0)
(-0.151224 -0.104606 0)
(-0.120383 -0.0931952 0)
(-0.0796759 -0.0950189 0)
(-0.071592 -0.107691 0)
(0.0920559 -0.0880232 0)
(0.0624922 -0.0656248 0)
(0.0742618 -0.0460123 0)
(0.0878565 -0.0291377 0)
(0.0946375 -0.0147912 0)
(0.0916872 -0.0119997 0)
(0.0874611 -0.00797191 0)
(0.085093 -0.00580228 0)
(0.0843979 -0.00456851 0)
(0.0843785 -0.00379791 0)
(0.0846403 -0.00322295 0)
(0.0852956 -0.0025975 0)
(0.0870552 -0.00144137 0)
(0.0917316 0.00291361 0)
(0.0898806 0.025074 0)
(0.0730882 0.0422756 0)
(0.0698847 0.0573123 0)
(-0.0902169 0.100669 0)
(0.578528 0.325854 0)
(-0.240102 0.121836 0)
(-0.0808513 0.109255 0)
(-0.121601 0.0898931 0)
(-0.139045 0.0741147 0)
(-0.153117 0.0586845 0)
(-0.163889 0.0428008 0)
(-0.171495 0.025851 0)
(-0.175716 0.00722818 0)
(-0.175789 -0.0135157 0)
(-0.171105 -0.0364684 0)
(-0.161542 -0.061463 0)
(-0.147686 -0.0873823 0)
(-0.130728 -0.11031 0)
(-0.109793 -0.123217 0)
(-0.0823364 -0.124574 0)
(-0.05275 -0.126429 0)
(-0.0336461 -0.12323 0)
(0.0160019 -0.0568149 0)
(0.0605852 -0.0929479 0)
(0.0682987 -0.0790657 0)
(0.0789491 -0.0586969 0)
(0.0914528 -0.0394509 0)
(0.102811 -0.0207822 0)
(0.115552 -0.0131487 0)
(0.126657 -0.00879751 0)
(0.132216 -0.00559922 0)
(0.13317 -0.00309548 0)
(0.130623 -0.000871743 0)
(0.125141 0.00129752 0)
(0.116599 0.00367674 0)
(0.104234 0.00672723 0)
(0.0849874 0.0111485 0)
(0.0711344 0.0367968 0)
(0.0598598 0.0604501 0)
(0.0759785 0.0831379 0)
(-0.118043 0.136712 0)
(0.705705 0.383698 0)
(-0.287675 0.157038 0)
(-0.0477147 0.133824 0)
(-0.0963212 0.10697 0)
(-0.107781 0.0876543 0)
(-0.116825 0.0692372 0)
(-0.123625 0.0505109 0)
(-0.128295 0.0306441 0)
(-0.130663 0.00876589 0)
(-0.129862 -0.0157967 0)
(-0.125365 -0.0430693 0)
(-0.116747 -0.0726798 0)
(-0.104039 -0.102812 0)
(-0.0875928 -0.12906 0)
(-0.0676696 -0.14576 0)
(-0.0443558 -0.152258 0)
(-0.0205142 -0.152394 0)
(1.09082e-06 -0.143768 0)
(0.0305439 -0.115 0)
(0.0567426 -0.109315 0)
(0.0703624 -0.0923535 0)
(0.0805341 -0.0711543 0)
(0.0906128 -0.0506844 0)
(0.100178 -0.0326435 0)
(0.109274 -0.0192992 0)
(0.116265 -0.00993986 0)
(0.119651 -0.00325419 0)
(0.119812 0.00198897 0)
(0.117368 0.00652175 0)
(0.112692 0.0108585 0)
(0.105812 0.0155118 0)
(0.0966615 0.0211857 0)
(0.0847357 0.0291802 0)
(0.0731746 0.0471758 0)
(0.0626499 0.0711806 0)
(0.0941426 0.0991991 0)
(0.0160683 0.137907 0)
(0.0953101 0.182903 0)
(0.141148 0.146679 0)
(-0.224277 0.203425 0)
(0.810414 0.431996 0)
(-0.331312 0.190714 0)
(-0.0173319 0.150304 0)
(-0.0733996 0.117585 0)
(-0.0786332 0.0955846 0)
(-0.0822664 0.0750227 0)
(-0.0845319 0.0544189 0)
(-0.085579 0.0327876 0)
(-0.0853306 0.00891328 0)
(-0.0826596 -0.0183765 0)
(-0.0774945 -0.0490038 0)
(-0.0688727 -0.0824749 0)
(-0.0568914 -0.116457 0)
(-0.0418603 -0.146236 0)
(-0.0248906 -0.165936 0)
(-0.00652892 -0.174464 0)
(0.0118545 -0.172754 0)
(0.0277615 -0.161033 0)
(0.045935 -0.139341 0)
(0.0624065 -0.122337 0)
(0.0731058 -0.102448 0)
(0.0808092 -0.0803597 0)
(0.0875791 -0.0589889 0)
(0.0937582 -0.0401003 0)
(0.0990722 -0.0249319 0)
(0.102729 -0.0135874 0)
(0.104294 -0.00490976 0)
(0.103825 0.00226297 0)
(0.101636 0.00870525 0)
(0.0979781 0.0149365 0)
(0.0930122 0.0214879 0)
(0.086968 0.0290007 0)
(0.0800989 0.0384004 0)
(0.074326 0.0528426 0)
(0.0690069 0.0728697 0)
(0.0908971 0.0985875 0)
(0.0724284 0.107237 0)
(0.0887813 0.0476768 0)
(0.146166 -0.0375567 0)
(-0.330249 0.106206 0)
(0.879902 0.474709 0)
(-0.368634 0.221003 0)
(0.0037135 0.155629 0)
(-0.0526953 0.121649 0)
(-0.0522511 0.0979392 0)
(-0.0510845 0.0759128 0)
(-0.0490931 0.0541328 0)
(-0.0465872 0.031614 0)
(-0.0434083 0.00683577 0)
(-0.0374509 -0.0222532 0)
(-0.0303789 -0.0553321 0)
(-0.0206037 -0.0918897 0)
(-0.00881332 -0.128811 0)
(0.00437106 -0.161127 0)
(0.0174232 -0.181791 0)
(0.0302008 -0.190162 0)
(0.0420037 -0.187219 0)
(0.0523076 -0.174439 0)
(0.062285 -0.154088 0)
(0.0708778 -0.132413 0)
(0.0764234 -0.109355 0)
(0.0799007 -0.0858057 0)
(0.082504 -0.063585 0)
(0.0847306 -0.044054 0)
(0.086536 -0.0279406 0)
(0.0875877 -0.0151473 0)
(0.0876699 -0.0048949 0)
(0.0866374 0.0037353 0)
(0.0846913 0.0114243 0)
(0.081983 0.0186975 0)
(0.0786947 0.0260628 0)
(0.0751091 0.0340377 0)
(0.0716234 0.0432051 0)
(0.0695864 0.0548938 0)
(0.0683175 0.0695245 0)
(0.0810736 0.0888054 0)
(0.0835552 0.0922525 0)
(0.0880667 0.0544092 0)
(0.180748 0.0239296 0)
(-0.282939 0.153451 0)
(0.927966 0.517163 0)
(-0.383167 0.234223 0)
(0.016906 0.133074 0)
(-0.0273597 0.116755 0)
(-0.0265945 0.0950242 0)
(-0.0228027 0.0725334 0)
(-0.0177067 0.0502048 0)
(-0.0124445 0.0273388 0)
(-0.00550464 0.00193698 0)
(0.00448325 -0.0306959 0)
(0.0141959 -0.0652852 0)
(0.0254825 -0.103261 0)
(0.0371055 -0.140742 0)
(0.0477636 -0.171997 0)
(0.0568408 -0.192206 0)
(0.0643197 -0.199737 0)
(0.0700337 -0.195371 0)
(0.0739875 -0.181217 0)
(0.0766951 -0.160144 0)
(0.0780713 -0.136131 0)
(0.0777296 -0.111073 0)
(0.0762389 -0.0864894 0)
(0.0744219 -0.0638656 0)
(0.0727969 -0.0442132 0)
(0.071498 -0.027918 0)
(0.0703905 -0.0147021 0)
(0.0692856 -0.00387186 0)
(0.0678954 0.00534738 0)
(0.0663511 0.0135341 0)
(0.0646322 0.0211771 0)
(0.0628329 0.0287119 0)
(0.0611538 0.0365118 0)
(0.0599075 0.044907 0)
(0.0599551 0.0544408 0)
(0.0610862 0.0651977 0)
(0.0696989 0.0788976 0)
(0.0784916 0.0829298 0)
(0.0760677 0.0622777 0)
(0.238854 0.050727 0)
(-0.560023 0.229783 0)
(1.01131 0.506842 0)
(-0.137379 0.296371 0)
(0.0410753 0.161576 0)
(0.0405516 0.122175 0)
(0.0130343 0.0920741 0)
(0.00860926 0.0654682 0)
(0.0140212 0.0414885 0)
(0.0206337 0.0170635 0)
(0.0324372 -0.0109622 0)
(0.0438962 -0.0421081 0)
(0.0557581 -0.0768636 0)
(0.0680208 -0.114554 0)
(0.0791395 -0.150967 0)
(0.0876204 -0.180402 0)
(0.0928215 -0.198444 0)
(0.0948561 -0.203663 0)
(0.0941361 -0.197083 0)
(0.0912124 -0.181098 0)
(0.0867633 -0.158732 0)
(0.0812391 -0.133295 0)
(0.0749285 -0.107218 0)
(0.0684235 -0.0823409 0)
(0.062438 -0.0600331 0)
(0.0574815 -0.0410334 0)
(0.0537365 -0.0254403 0)
(0.0510984 -0.0127692 0)
(0.0493042 -0.00225589 0)
(0.0479558 0.00678626 0)
(0.0470515 0.0148537 0)
(0.0463726 0.0223898 0)
(0.0458874 0.0297378 0)
(0.0456711 0.0371349 0)
(0.045896 0.0447309 0)
(0.0470561 0.0527044 0)
(0.0491547 0.0609802 0)
(0.0552625 0.0705008 0)
(0.0631831 0.0726541 0)
(0.0523013 0.050174 0)
(0.294275 0.0719372 0)
(-0.782261 0.298731 0)
(0.779353 0.395784 0)
(0.000693378 0.319528 0)
(0.093356 0.218947 0)
(0.110563 0.155223 0)
(0.0771259 0.106892 0)
(0.0597511 0.0676236 0)
(0.058166 0.0358372 0)
(0.0623242 0.00647693 0)
(0.0737466 -0.0233874 0)
(0.0853118 -0.0550081 0)
(0.0974962 -0.0897081 0)
(0.109343 -0.126173 0)
(0.118694 -0.159901 0)
(0.123774 -0.185587 0)
(0.123986 -0.199677 0)
(0.119756 -0.20133 0)
(0.112037 -0.191887 0)
(0.101907 -0.173868 0)
(0.0904073 -0.15028 0)
(0.0783813 -0.124147 0)
(0.0665164 -0.0980017 0)
(0.0555385 -0.0737739 0)
(0.046165 -0.0527291 0)
(0.0388508 -0.0353228 0)
(0.0336819 -0.0213605 0)
(0.0304151 -0.0100838 0)
(0.0285961 -0.000601789 0)
(0.0277599 0.00769892 0)
(0.0276634 0.0152577 0)
(0.0279797 0.0224463 0)
(0.0285859 0.0294977 0)
(0.0294355 0.0365339 0)
(0.0305302 0.0435874 0)
(0.0320103 0.050663 0)
(0.033647 0.0576935 0)
(0.0361264 0.0655847 0)
(0.0282272 0.0708865 0)
(0.0204915 0.0823824 0)
(0.137712 0.158904 0)
(-0.656316 0.299878 0)
(0.617294 0.220943 0)
(0.00457983 0.298161 0)
(0.113024 0.241571 0)
(0.148289 0.177588 0)
(0.13085 0.123556 0)
(0.117825 0.0778903 0)
(0.114957 0.0389486 0)
(0.117116 0.00344989 0)
(0.123472 -0.0306735 0)
(0.131691 -0.0649667 0)
(0.141365 -0.100438 0)
(0.150222 -0.135262 0)
(0.155325 -0.165083 0)
(0.15475 -0.185597 0)
(0.148182 -0.194514 0)
(0.136519 -0.191849 0)
(0.121236 -0.179326 0)
(0.10384 -0.159487 0)
(0.0857069 -0.135217 0)
(0.0679507 -0.109293 0)
(0.0515209 -0.0841827 0)
(0.0372858 -0.0617628 0)
(0.0259801 -0.0431386 0)
(0.017856 -0.0283693 0)
(0.0126742 -0.0168829 0)
(0.00979111 -0.00756596 0)
(0.00848516 0.000509792 0)
(0.00840947 0.00783546 0)
(0.00904812 0.0147639 0)
(0.010164 0.0215507 0)
(0.0115999 0.0283361 0)
(0.0132103 0.0351859 0)
(0.0148216 0.0420987 0)
(0.0162985 0.0490341 0)
(0.0175437 0.0560388 0)
(0.0181088 0.0650738 0)
(-0.00338356 0.0846343 0)
(-0.00156862 0.11755 0)
(0.14931 0.175738 0)
(-0.562705 0.239449 0)
(0.570768 0.11859 0)
(-0.0203222 0.258674 0)
(0.113744 0.229909 0)
(0.165087 0.176092 0)
(0.166741 0.126235 0)
(0.164391 0.0811604 0)
(0.165365 0.0400361 0)
(0.168271 0.00168708 0)
(0.172231 -0.0353414 0)
(0.177802 -0.0718573 0)
(0.183961 -0.107489 0)
(0.187629 -0.139478 0)
(0.185792 -0.16398 0)
(0.177076 -0.178212 0)
(0.161927 -0.181388 0)
(0.141885 -0.174396 0)
(0.118895 -0.159251 0)
(0.0947237 -0.138361 0)
(0.0709741 -0.114418 0)
(0.0488985 -0.0899117 0)
(0.0296784 -0.067206 0)
(0.0143072 -0.0480448 0)
(0.00336442 -0.033185 0)
(-0.00361315 -0.0218207 0)
(-0.00738595 -0.0132348 0)
(-0.00928716 -0.00588345 0)
(-0.00991825 0.000850595 0)
(-0.00951558 0.00725234 0)
(-0.00843804 0.0135467 0)
(-0.00680862 0.0198961 0)
(-0.00478487 0.026426 0)
(-0.00259066 0.0332484 0)
(-0.000590442 0.0404606 0)
(0.000734997 0.0481326 0)
(0.00132556 0.056662 0)
(-0.00292008 0.0718795 0)
(-0.032283 0.106012 0)
(-0.0234827 0.140767 0)
(0.0875456 0.182662 0)
(-0.527215 0.195665 0)
(0.628395 0.0537616 0)
(0.00934872 0.197329 0)
(0.113885 0.196979 0)
(0.175185 0.157984 0)
(0.19142 0.117756 0)
(0.198054 0.0773478 0)
(0.203366 0.0373446 0)
(0.208562 -0.00145241 0)
(0.213069 -0.0396187 0)
(0.21739 -0.0764748 0)
(0.219206 -0.109841 0)
(0.215352 -0.136574 0)
(0.203942 -0.154106 0)
(0.185066 -0.161471 0)
(0.160336 -0.159243 0)
(0.13192 -0.148821 0)
(0.102079 -0.132274 0)
(0.0725473 -0.111662 0)
(0.0451302 -0.0894941 0)
(0.0210741 -0.0679568 0)
(0.00196528 -0.0493476 0)
(-0.011313 -0.0351949 0)
(-0.0190401 -0.0253841 0)
(-0.023432 -0.0177272 0)
(-0.0257657 -0.0111588 0)
(-0.026898 -0.00507524 0)
(-0.0271226 0.000719998 0)
(-0.0265331 0.00635856 0)
(-0.0252439 0.0120077 0)
(-0.0232885 0.0178406 0)
(-0.0208045 0.0240593 0)
(-0.0180601 0.0309154 0)
(-0.0155838 0.0387388 0)
(-0.0142406 0.0480558 0)
(-0.0146117 0.0605465 0)
(-0.0213426 0.0845548 0)
(-0.0501928 0.129085 0)
(-0.0453551 0.167476 0)
(-0.0185275 0.174198 0)
(-0.540747 0.125165 0)
(0.472718 0.0747982 0)
(-0.132036 0.137607 0)
(0.094293 0.133347 0)
(0.172777 0.116874 0)
(0.203864 0.0954316 0)
(0.218121 0.0644816 0)
(0.228084 0.0284597 0)
(0.237157 -0.00892053 0)
(0.243562 -0.0452912 0)
(0.245092 -0.0782153 0)
(0.239118 -0.105015 0)
(0.224279 -0.123653 0)
(0.201091 -0.133308 0)
(0.171456 -0.134454 0)
(0.137954 -0.128366 0)
(0.102884 -0.11632 0)
(0.0686072 -0.100191 0)
(0.0363459 -0.0815741 0)
(0.0085876 -0.0629838 0)
(-0.0138353 -0.0463938 0)
(-0.0276403 -0.0351645 0)
(-0.0358662 -0.0272206 0)
(-0.0404046 -0.0209822 0)
(-0.042928 -0.015332 0)
(-0.0442872 -0.00992556 0)
(-0.0449068 -0.00466896 0)
(-0.0448704 0.000401312 0)
(-0.0441785 0.00531954 0)
(-0.0427624 0.0102418 0)
(-0.0405468 0.0154132 0)
(-0.0376055 0.021161 0)
(-0.0341584 0.0279169 0)
(-0.0307066 0.0362955 0)
(-0.0281699 0.047371 0)
(-0.0266012 0.0636431 0)
(-0.0250574 0.0920664 0)
(-0.0379221 0.141722 0)
(-0.0291529 0.197068 0)
(0.0657109 0.186542 0)
(-0.534572 0.0326508 0)
(0.724134 0.13445 0)
(0.0818341 0.115255 0)
(0.149758 0.0992477 0)
(0.2224 0.0805581 0)
(0.244037 0.070031 0)
(0.248811 0.0477733 0)
(0.255108 0.0176274 0)
(0.261246 -0.0146786 0)
(0.260311 -0.0447232 0)
(0.249856 -0.0695296 0)
(0.229628 -0.0873838 0)
(0.201185 -0.09784 0)
(0.166885 -0.101233 0)
(0.129255 -0.0985931 0)
(0.0908122 -0.0912242 0)
(0.0530087 -0.0798159 0)
(0.018701 -0.0660741 0)
(-0.0125547 -0.0511653 0)
(-0.0342939 -0.0398669 0)
(-0.0484788 -0.0320791 0)
(-0.0566328 -0.0269125 0)
(-0.0612194 -0.02265 0)
(-0.0637582 -0.0184488 0)
(-0.0651643 -0.013964 0)
(-0.0658792 -0.00927401 0)
(-0.0661027 -0.00458163 0)
(-0.0658459 -8.39868e-05 0)
(-0.0650537 0.0041631 0)
(-0.0636222 0.00829763 0)
(-0.06132 0.0126367 0)
(-0.0581249 0.0176283 0)
(-0.0541096 0.0238684 0)
(-0.049493 0.0322024 0)
(-0.0446637 0.0439411 0)
(-0.0389032 0.0612835 0)
(-0.0278539 0.0883595 0)
(-0.0173887 0.131998 0)
(-0.00756652 0.193714 0)
(0.151561 0.189001 0)
(-0.395206 0.0706952 0)
(0.191749 0.0880263 0)
(0.225625 0.0998357 0)
(0.246416 0.0702679 0)
(0.242494 0.0399717 0)
(0.239718 0.0122644 0)
(0.234783 -0.0128014 0)
(0.22014 -0.033309 0)
(0.196493 -0.0484123 0)
(0.166146 -0.0580872 0)
(0.131517 -0.0628225 0)
(0.0943789 -0.062951 0)
(0.056669 -0.0592523 0)
(0.0204055 -0.0526827 0)
(-0.0151166 -0.0434912 0)
(-0.0423333 -0.0352293 0)
(-0.0624861 -0.0290339 0)
(-0.0754737 -0.0256091 0)
(-0.0833204 -0.0236084 0)
(-0.0878969 -0.0219218 0)
(-0.0906589 -0.0196469 0)
(-0.0923507 -0.0165826 0)
(-0.0933483 -0.0128517 0)
(-0.0938494 -0.00873398 0)
(-0.0939626 -0.00454438 0)
(-0.0937061 -0.000552836 0)
(-0.093053 0.00311765 0)
(-0.0919761 0.00651763 0)
(-0.0901719 0.00996135 0)
(-0.0874828 0.0139673 0)
(-0.0836677 0.019201 0)
(-0.0783593 0.0264979 0)
(-0.0711135 0.0369201 0)
(-0.0607852 0.0518506 0)
(-0.0436366 0.0731418 0)
(-0.0182541 0.103637 0)
(0.00504843 0.153028 0)
(0.179568 0.162067 0)
(-0.352933 0.128364 0)
(0.450834 0.209843 0)
(0.205819 0.178812 0)
(0.152387 0.118807 0)
(0.139462 0.0640162 0)
(0.128273 0.025826 0)
(0.114378 0.00171174 0)
(0.099091 -0.0129857 0)
(0.0780611 -0.0219936 0)
(0.0532576 -0.0273638 0)
(0.0258052 -0.0295029 0)
(-0.00461099 -0.0283189 0)
(-0.0343909 -0.0249244 0)
(-0.0608842 -0.020943 0)
(-0.0828701 -0.0179105 0)
(-0.0987172 -0.0171687 0)
(-0.10919 -0.0180071 0)
(-0.115691 -0.0195533 0)
(-0.119906 -0.0204818 0)
(-0.122883 -0.0201817 0)
(-0.125144 -0.0185008 0)
(-0.126893 -0.015587 0)
(-0.128205 -0.011738 0)
(-0.129105 -0.0073566 0)
(-0.129601 -0.00292307 0)
(-0.129703 0.00105904 0)
(-0.129469 0.00421674 0)
(-0.128976 0.00675275 0)
(-0.127994 0.00908723 0)
(-0.126235 0.0116803 0)
(-0.123188 0.0150086 0)
(-0.118081 0.0196088 0)
(-0.11004 0.0261164 0)
(-0.0978489 0.0350934 0)
(-0.0786735 0.046593 0)
(-0.0483201 0.0604807 0)
(-0.00733074 0.0841163 0)
(0.189252 0.123852 0)
(-0.382522 0.194426 0)
(0.358292 -0.417361 0)
(-0.346361 -0.512748 0)
(-0.218373 -0.0271164 0)
(-0.0935014 0.111041 0)
(-0.0539603 0.0925549 0)
(-0.031527 0.0544891 0)
(-0.0266052 0.0282834 0)
(-0.0314761 0.0115625 0)
(-0.0401917 0.000826134 0)
(-0.0507577 -0.0060376 0)
(-0.0645839 -0.00998724 0)
(-0.0803639 -0.0118728 0)
(-0.0969586 -0.0130229 0)
(-0.11289 -0.0149742 0)
(-0.126936 -0.0180803 0)
(-0.138091 -0.0214813 0)
(-0.145623 -0.0244806 0)
(-0.150181 -0.0267226 0)
(-0.15322 -0.0281704 0)
(-0.155764 -0.0287858 0)
(-0.158217 -0.0285664 0)
(-0.160652 -0.0275507 0)
(-0.163015 -0.0258477 0)
(-0.165237 -0.0236066 0)
(-0.167256 -0.0209558 0)
(-0.168985 -0.0179222 0)
(-0.170216 -0.014385 0)
(-0.170651 -0.0101596 0)
(-0.170201 -0.00604959 0)
(-0.169066 -0.00219216 0)
(-0.167219 0.00162056 0)
(-0.164418 0.00561139 0)
(-0.160241 0.0100512 0)
(-0.154366 0.0153484 0)
(-0.146564 0.0218523 0)
(-0.135225 0.0294933 0)
(-0.11375 0.0396409 0)
(-0.0652665 0.0637143 0)
(0.0210003 0.124859 0)
(-0.520024 0.229968 0)
(0.122034 -0.186485 0)
(-0.388806 -0.298197 0)
(-0.343702 -0.096295 0)
(-0.265338 0.0517107 0)
(-0.211639 0.0835039 0)
(-0.179521 0.0744912 0)
(-0.163274 0.0610357 0)
(-0.157283 0.0512 0)
(-0.157319 0.0462845 0)
(-0.160543 0.0460704 0)
(-0.165067 0.0496819 0)
(-0.169374 0.0558685 0)
(-0.172623 0.0632442 0)
(-0.174637 0.070081 0)
(-0.175821 0.0742879 0)
(-0.176783 0.0731596 0)
(-0.178286 0.0665911 0)
(-0.180605 0.059446 0)
(-0.183821 0.0536418 0)
(-0.187787 0.0497192 0)
(-0.19221 0.0476906 0)
(-0.196703 0.0473883 0)
(-0.200853 0.0485252 0)
(-0.204306 0.0506685 0)
(-0.206832 0.0531809 0)
(-0.208362 0.0551871 0)
(-0.20893 0.0556141 0)
(-0.208436 0.0536212 0)
(-0.206788 0.0509573 0)
(-0.204103 0.0481636 0)
(-0.20044 0.0452896 0)
(-0.195622 0.042354 0)
(-0.189287 0.0394342 0)
(-0.181332 0.0365742 0)
(-0.172116 0.0331818 0)
(-0.15981 0.0269159 0)
(-0.133252 0.0152718 0)
(-0.0646736 0.0108705 0)
(0.137803 0.0659173 0)
(-0.602753 0.188783 0)
(1.14926 -0.0110967 0)
(-0.297987 -0.323567 0)
(-0.353578 -0.232979 0)
(-0.353322 -0.148653 0)
(-0.329644 -0.107456 0)
(-0.298186 -0.0990379 0)
(-0.271164 -0.101346 0)
(-0.251614 -0.107102 0)
(-0.238458 -0.114624 0)
(-0.229487 -0.123762 0)
(-0.222682 -0.134801 0)
(-0.216702 -0.147953 0)
(-0.211004 -0.16279 0)
(-0.205759 -0.177837 0)
(-0.201728 -0.19051 0)
(-0.200157 -0.197786 0)
(-0.202267 -0.198606 0)
(-0.208255 -0.195958 0)
(-0.217049 -0.190946 0)
(-0.22735 -0.184442 0)
(-0.237963 -0.177238 0)
(-0.2479 -0.170029 0)
(-0.256394 -0.163292 0)
(-0.262872 -0.157185 0)
(-0.266964 -0.151558 0)
(-0.268563 -0.146032 0)
(-0.267932 -0.140139 0)
(-0.265714 -0.133657 0)
(-0.262711 -0.127433 0)
(-0.259075 -0.121162 0)
(-0.254791 -0.114504 0)
(-0.249726 -0.107385 0)
(-0.24385 -0.099947 0)
(-0.238062 -0.0924508 0)
(-0.234925 -0.0852964 0)
(-0.234881 -0.0785502 0)
(-0.223563 -0.0679177 0)
(-0.180486 -0.0384183 0)
(-0.18046 0.0259765 0)
(-0.675743 0.104065 0)
)
;

boundaryField
{
    floor
    {
        type            noSlip;
    }
    ceiling
    {
        type            noSlip;
    }
    sWall
    {
        type            noSlip;
    }
    nWall
    {
        type            noSlip;
    }
    sideWalls
    {
        type            empty;
    }
    glass1
    {
        type            noSlip;
    }
    glass2
    {
        type            noSlip;
    }
    sun
    {
        type            noSlip;
    }
    Table_master
    {
        type            noSlip;
    }
    Table_slave
    {
        type            noSlip;
    }
    inlet
    {
        type            fixedValue;
        value           uniform (0.5 0 0);
    }
    outlet
    {
        type            zeroGradient;
    }
}


// ************************************************************************* //
