/*--------------------------------*- C++ -*----------------------------------*\
  =========                 |
  \\      /  F ield         | OpenFOAM: The Open Source CFD Toolbox
   \\    /   O peration     | Website:  https://openfoam.org
    \\  /    A nd           | Version:  6
     \\/     M anipulation  |
\*---------------------------------------------------------------------------*/
FoamFile
{
    version     2.0;
    format      ascii;
    class       volScalarField;
    location    "1130";
    object      nut;
}
// * * * * * * * * * * * * * * * * * * * * * * * * * * * * * * * * * * * * * //

dimensions      [0 2 -1 0 0 0 0];

internalField   nonuniform List<scalar> 
458
(
0.00106945
0.0011639
0.00119021
0.00124715
0.0012996
0.00134926
0.00139894
0.00144937
0.0014906
0.00151649
0.0015194
0.00149179
0.0014242
0.00128112
0.000972004
0.0004804
0.000563161
0.000638479
0.000665745
0.000655331
0.000613254
0.000566701
0.000525047
0.000488967
0.000457629
0.000430264
0.000406319
0.000385086
0.000365747
0.000347405
0.000328986
0.000318039
0.000292296
0.00144199
0.00324166
0.00298999
0.00342597
0.00386068
0.00430786
0.00470912
0.00501942
0.00533809
0.00563631
0.00587547
0.00602069
0.00603416
0.00582411
0.00473327
0.00128305
0.00106447
0.00086849
0.000476535
0.00113087
0.00164813
0.00204859
0.00217525
0.00158532
0.00133832
0.00117026
0.00104623
0.000951194
0.000875791
0.000810763
0.000749663
0.000688674
0.000634195
0.000588527
0.000719989
0.000384231
0.00175325
0.00435727
0.0035958
0.00438433
0.00471589
0.00494876
0.00512771
0.00529284
0.00552256
0.00580165
0.00610662
0.0064056
0.00664181
0.00672453
0.00633623
0.00516406
0.00391365
0.00102579
0.000733927
0.00126646
0.00184287
0.00241626
0.00258012
0.000824272
0.000721633
0.000636237
0.000567069
0.00051125
0.000466016
0.000429246
0.000399509
0.000376381
0.000417087
0.000483044
0.000844797
0.000454075
0.00205317
0.0055661
0.00349818
0.00454255
0.00472428
0.00470653
0.00469001
0.00476923
0.004956
0.00523201
0.00558276
0.00597426
0.0063174
0.00653327
0.00648457
0.00614912
0.00527749
0.00289743
0.00118177
0.0015047
0.0020686
0.00275927
0.00335818
0.00338785
0.000928543
0.000851162
0.000798453
0.000759551
0.000726655
0.000693945
0.00066289
0.000630076
0.000591717
0.000557314
0.000549169
0.00100694
0.000522992
0.00235971
0.00719271
0.00366959
0.00431241
0.00457209
0.00441777
0.00429218
0.00436423
0.00456143
0.00484853
0.0052266
0.00565586
0.00599212
0.0061598
0.00615589
0.0060385
0.00569052
0.0047056
0.00426492
0.00429595
0.00454648
0.00484503
0.00502845
0.0049462
0.00422026
0.00384703
0.00364137
0.00349406
0.00334495
0.00315298
0.00282613
0.00240524
0.00192654
0.00146539
0.00109905
0.00102393
0.00088892
0.000699198
0.000740174
0.000804525
0.00268785
0.00902558
0.00502627
0.00399305
0.00435208
0.00434351
0.00418328
0.00424352
0.00444452
0.00473156
0.00511493
0.00552635
0.00583769
0.00593771
0.00584397
0.00570941
0.00564883
0.00556771
0.00573538
0.00602621
0.00623047
0.00626732
0.00613065
0.00584387
0.00544309
0.00511744
0.00486381
0.00464029
0.00442071
0.00418758
0.00388639
0.00347345
0.00295116
0.00236043
0.00181371
0.00131511
0.00108087
0.000942901
0.00118741
0.000834447
0.00301085
0.0104109
0.0075013
0.00490907
0.00427179
0.00433341
0.00438906
0.00442077
0.00453413
0.00478686
0.005164
0.0055718
0.0058574
0.00588999
0.0057118
0.00558289
0.00579753
0.00627281
0.00675681
0.00703023
0.00703132
0.00679785
0.00640199
0.00591986
0.00543949
0.00505279
0.00475993
0.00452236
0.00431447
0.00412779
0.00395789
0.00373569
0.00337053
0.00288261
0.00237587
0.00188909
0.00157143
0.00143958
0.00137223
0.000991376
0.00309059
0.00966254
0.00820299
0.00688366
0.00587552
0.00542942
0.00501072
0.00472538
0.0047189
0.00495952
0.00534971
0.00575288
0.00599385
0.00594026
0.00572214
0.00577833
0.00639114
0.00689385
0.00715585
0.00714423
0.0068608
0.00637017
0.00576636
0.00515718
0.00465074
0.00429579
0.0040563
0.00388428
0.00375692
0.00367103
0.00363281
0.00363444
0.00353702
0.00324691
0.00296418
0.00280658
0.00287501
0.00303498
0.00360542
0.00153579
0.00302991
0.00365333
0.00403426
0.00424619
0.0042756
0.0042106
0.00421082
0.00438518
0.00474102
0.00519586
0.00566262
0.00603172
0.00615213
0.00594305
0.00588573
0.00619741
0.00655692
0.0066802
0.00659125
0.00627968
0.00575728
0.00511198
0.00446756
0.0039386
0.00357251
0.00333935
0.00318289
0.00306397
0.00296258
0.00286737
0.00276975
0.00266259
0.0025654
0.0024813
0.00242566
0.0023944
0.00233492
0.00221221
0.00206297
0.00143465
0.00133528
0.00234676
0.00322192
0.00390662
0.0045319
0.00514118
0.00562566
0.00595271
0.00616761
0.00620125
0.00600239
0.00575765
0.0057602
0.00586368
0.00578496
0.00555226
0.00518516
0.00469081
0.00412222
0.00356653
0.00312411
0.00282604
0.00264327
0.00253107
0.00245657
0.00240224
0.00236061
0.00232987
0.00231261
0.00231799
0.00233155
0.00234366
0.00234438
0.00230742
0.00219319
0.00199178
0.00174214
0.00115434
0.00201495
0.00395748
0.00507563
0.00580106
0.00636589
0.00641571
0.00608763
0.00575767
0.00547372
0.00492889
0.00454128
0.00445183
0.00439093
0.00421932
0.00396051
0.00363955
0.00326322
0.00286722
0.00251008
0.00223231
0.0020407
0.00193018
0.00187837
0.00186715
0.00188538
0.00192597
0.00198277
0.0020485
0.00212545
0.00221377
0.0023083
0.00240115
0.00247671
0.00251451
0.00247945
0.00244892
0.00225473
0.00116934
0.00211917
0.00217152
0.00221907
0.00246886
0.00233361
0.00206796
0.00174463
0.00148459
0.00132521
0.00117375
0.00104032
0.00093582
0.000847303
0.000780212
0.000733585
0.000699517
0.00067212
0.000648546
0.000629082
0.000615947
0.000611047
0.000614725
0.000625641
0.000641688
0.000661964
0.000685991
0.000713634
0.000745056
0.000780774
0.000821907
0.000868712
0.00092084
0.000978558
0.00104214
0.00111163
0.0011949
0.00123135
0.00120614
0.00112186
0.00103759
)
;

boundaryField
{
    floor
    {
        type            nutkWallFunction;
        Cmu             0.09;
        kappa           0.41;
        E               9.8;
        value           nonuniform List<scalar> 
36
(
0.000117419
5.72052e-05
6.77279e-05
7.71396e-05
8.05127e-05
7.92263e-05
7.40032e-05
6.81735e-05
6.29074e-05
5.83042e-05
5.42716e-05
5.0722e-05
4.75925e-05
4.47978e-05
4.22351e-05
3.97884e-05
3.73145e-05
3.58356e-05
3.23307e-05
3.23306e-05
4.46841e-05
5.38114e-05
6.26455e-05
8.46281e-05
8.96382e-05
9.74411e-05
0.000117419
0.000153529
0.000128275
0.000105123
5.72051e-05
0.000105123
5.67083e-05
0.000123748
8.8877e-05
0.000141894
)
;
    }
    ceiling
    {
        type            nutkWallFunction;
        Cmu             0.09;
        kappa           0.41;
        E               9.8;
        value           nonuniform List<scalar> 
43
(
0.000246191
0.000251845
0.000256968
0.000283772
0.000269366
0.000240754
0.000205369
0.000176385
0.000158344
0.00014097
0.000125453
0.000113141
0.000102587
9.4502e-05
8.8835e-05
8.46675e-05
8.12984e-05
7.83864e-05
7.59722e-05
7.43381e-05
7.37274e-05
7.41859e-05
7.55446e-05
7.75367e-05
8.00453e-05
8.30062e-05
8.63972e-05
9.0233e-05
9.45701e-05
9.95358e-05
0.000105151
0.000111364
0.000118195
0.000125667
0.000133774
0.000143415
0.000147611
0.00014471
0.000134964
0.000125135
0.000343195
0.000407601
0.000234815
)
;
    }
    sWall
    {
        type            nutkWallFunction;
        Cmu             0.09;
        kappa           0.41;
        E               9.8;
        value           uniform 0.000246258;
    }
    nWall
    {
        type            nutkWallFunction;
        Cmu             0.09;
        kappa           0.41;
        E               9.8;
        value           nonuniform List<scalar> 6(9.74417e-05 0.000101045 0.00011971 0.000138739 0.000140475 0.000125142);
    }
    sideWalls
    {
        type            empty;
    }
    glass1
    {
        type            nutkWallFunction;
        Cmu             0.09;
        kappa           0.41;
        E               9.8;
        value           nonuniform List<scalar> 9(0.000128964 0.000171812 0.000206647 0.000239575 0.000272697 0.000307651 0.000341623 0.000349961 0.000343643);
    }
    glass2
    {
        type            nutkWallFunction;
        Cmu             0.09;
        kappa           0.41;
        E               9.8;
        value           nonuniform List<scalar> 2(0.000182234 0.000170843);
    }
    sun
    {
        type            nutkWallFunction;
        Cmu             0.09;
        kappa           0.41;
        E               9.8;
        value           nonuniform List<scalar> 
14
(
0.00012886
0.000139829
0.000142867
0.000149417
0.00015542
0.000161079
0.000166717
0.000172418
0.000177062
0.000179972
0.000180298
0.000177196
0.000169575
0.000153308
)
;
    }
    Table_master
    {
        type            nutkWallFunction;
        Cmu             0.09;
        kappa           0.41;
        E               9.8;
        value           nonuniform List<scalar> 9(9.98194e-05 8.73768e-05 7.6864e-05 6.82242e-05 6.11581e-05 5.5362e-05 5.05987e-05 4.6709e-05 4.36583e-05);
    }
    Table_slave
    {
        type            nutkWallFunction;
        Cmu             0.09;
        kappa           0.41;
        E               9.8;
        value           nonuniform List<scalar> 9(0.000112275 0.000103048 9.67077e-05 9.19963e-05 8.799e-05 8.3985e-05 8.01618e-05 7.60983e-05 7.13158e-05);
    }
    inlet
    {
        type            calculated;
        value           uniform 0.000167705;
    }
    outlet
    {
        type            calculated;
        value           nonuniform List<scalar> 2(0.00211917 0.00217152);
    }
}


// ************************************************************************* //
