/*--------------------------------*- C++ -*----------------------------------*=========                 |
  \      /  F ield         | OpenFOAM: The Open Source CFD Toolbox
   \    /   O peration     | Website:  https://openfoam.org
    \  /    A nd           | Version:  6
     \/     M anipulation  |
\*---------------------------------------------------------------------------*/
FoamFile
{
    version     2.0;
    format      ascii;
    class       volScalarField;
    location    "770";
    object      PPD;
}
// * * * * * * * * * * * * * * * * * * * * * * * * * * * * * * * * * * * * * //

dimensions      [0 0 0 0 0 0 0];

internalField   nonuniform List<scalar> 
458
(
41.44609967489676
29.46870898415068
28.022980086342343
26.772190176654476
25.987544686062947
25.62298908443377
25.72480292930601
26.34028207053619
27.586301279261846
29.70491639682264
32.96597730787636
36.404742667374926
37.18834071858375
37.59457338560882
38.21913880483234
44.12289368793543
43.41794579282146
43.217098575693086
43.56874910854284
43.82040221893049
44.02200249766892
43.7914835534693
43.56818428417942
43.62094155376047
43.722581820294465
43.88160978821327
44.055845594802136
44.287983028930746
44.63117789034383
45.23176176454123
45.66857593603361
45.89768409334005
46.63760314640436
38.010683222689664
30.005586373210676
29.446490948376635
28.177840031698523
27.44247673100783
27.098395788425464
27.142012867364954
27.499438182069312
28.119027343481235
29.208493919383002
31.040736140158444
33.906868698341114
36.997769168343986
37.546692604037744
37.906368092765575
35.82780049359005
35.8162530723435
36.89506487611782
41.649526415220535
42.741136188615364
42.716127263273684
43.1167721574862
43.27042206798449
43.249172502743264
43.25300960573699
43.31436372416751
43.35287273059445
43.367921111448794
43.39148639095185
43.459500845173345
43.519117277694384
43.68379312756893
44.13899640648474
44.577637705694734
44.932133556559684
44.04415439429558
39.59634035883068
29.59587653317685
30.931032095909018
30.235469695768188
29.92671348733387
29.73844460606861
29.75345604243384
29.588727482057905
28.9992543922572
28.503581836549813
28.98212053005635
31.192986423378656
35.554807165582176
37.882349031339075
38.21913880483234
38.363819293562706
38.43543034066865
37.42006074005229
37.11164755503839
40.38197096147332
40.86307284796162
41.322072543010904
41.88155759894716
42.068110317409804
43.248373620293854
43.99678913318417
43.99678913318417
44.02200249766892
44.02200249766892
44.02200249766892
44.04721964420489
44.07244056398224
44.223844825987015
44.40065186218199
44.00076383754244
40.20938680631054
43.481419755546575
29.28684414309629
32.02599578493606
32.53021616222081
33.33664917253907
33.887409110301576
33.9829914431092
32.86316986030242
30.2293050169516
27.84181418368169
27.29808860957462
29.293532568583444
33.59395612167265
38.187399106505914
38.896038430955144
38.96882079712308
37.685177265120544
36.476767864810135
33.990917576654425
37.247884051462144
39.057103039379726
40.382669266785626
41.93899227414448
43.72559117979029
45.13446178481059
44.79902200201375
44.465068524799506
44.39762643889278
44.45624990495694
44.58497829709927
44.929929201927436
45.62942995493079
46.87190483224199
46.81712358654987
46.076054047637996
42.934900780441374
37.96582081579518
48.504683168109324
29.656364856667977
32.84976945464014
34.630519134874675
37.3317049247248
39.69409583614002
40.182659535210036
36.580395277916516
31.268321414419532
27.257590342680274
26.08116595351396
28.140510412346188
32.43410051222715
37.460067718117244
39.89490819153392
39.99283189365677
39.43974460132654
37.99558560158815
37.9135556796557
38.70333648748308
40.306725395641614
42.39942085520336
44.57645277098325
46.70028878160965
48.1500913253978
48.82173689931355
48.838451362577665
48.810309919069525
48.712789734955244
48.55198579578154
48.4115785140229
48.37351378924018
48.353917250427166
47.531735995357565
46.11726997453886
42.118419205029326
42.14822136542068
41.978123013875305
46.45373273299493
40.05996262686815
53.80486129899692
31.02759725389663
34.318094941530546
36.19889521398796
40.459087053595134
44.45120113400287
46.38217694124764
38.09295966317256
31.21988867673427
26.5473495232948
25.25681651131015
27.43850213992701
32.232455623583846
38.02007806630002
41.32262856449745
41.64485903382736
41.52083140837489
41.57042861611414
42.23308606666052
43.304469184298675
45.08407594762306
46.73985377850577
48.201512380418365
49.412342585216855
50.31666402752719
50.91192658209957
51.32640964985153
51.58560137012183
51.66337792940295
51.61152595088893
51.35232424297771
50.989619662001566
50.04356027208068
48.425613115883664
46.46025290755431
42.70540996530478
42.37757817413928
42.00257269138319
43.313292787094376
43.721623827774785
58.82736930027983
35.14803834895672
40.27542624401861
39.132182495253566
41.932770692313774
46.12704447255141
42.82319125910713
36.595929207021356
29.859969360815
25.329675780237025
24.475063391422907
27.43720703150713
33.2738617419171
40.36567708955823
43.29238606124667
43.895973671987385
43.921171820173996
44.223844825987015
45.18576162084821
46.535398014194215
48.047276661258145
49.46396273809805
50.70479937321632
51.63745147406749
52.25992002535837
52.6491722312356
52.856824330031735
52.9347015129347
52.882782958866976
52.701082288208845
52.33775925790918
51.844888354471536
51.2745836389161
50.329226446694214
47.9267979561635
44.59782779820055
43.07690647812606
41.97566344997372
40.513311787570885
46.12667572560512
66.3086695334554
54.80623019346269
51.6267419540617
45.312443261703734
44.17793717825997
43.594476438765916
39.94627321698906
32.98162130675097
26.292203119859508
22.94025348015407
23.70837250750185
28.623786858080024
36.56725375388094
43.77004049757625
45.948631506691655
46.61204757426007
46.84214930872184
47.37991348356309
48.43301794149913
49.696340410565156
50.937823070914256
52.026440426164854
52.83086614722555
53.3760677724234
53.713632076981675
53.843470285371254
53.86943811279736
53.791534784680906
53.635730273804256
53.427998712303264
53.09046679530964
52.62321799149052
52.05237963018165
51.40415655344396
50.67891421192919
49.877173663847515
49.3689450248932
47.88672206003188
43.636797436900316
39.15263628018338
76.57653379882164
69.4660183656816
61.0102652739122
53.22943387317055
48.24042361267378
44.426930178499305
34.639866727236225
24.831812074957426
19.77676471221166
19.74449924278335
24.15267558022998
33.115239116631656
42.94135893550625
47.20052851765116
48.79348506569358
49.48977549016601
49.9546981456181
50.60126662423857
51.50783338485787
52.467504249998356
53.272208820528384
53.92137386914763
54.26422809193686
54.00238196637273
53.688731679644924
53.337907652526496
52.911905704206724
52.44010531441938
51.880644242517306
51.25630469369391
50.54043906493057
49.73029972403496
48.97076444040882
48.06141803682164
47.00946630932965
46.052285641405156
45.437046970124996
45.211445010028285
44.68174782017568
43.011546476853496
59.545207075728335
16.931984879301737
5.776886002223378
5.001458212402227
5.4672600451623055
7.297315444117032
11.806437665714668
20.04571816139395
32.1994964249585
42.81618827390102
48.17580071740391
49.301959628585855
49.759811590896156
50.214074142375694
50.78670045889943
51.47572802495031
52.115450552088426
52.57193646792753
52.77521266090734
52.78740387096738
52.6357392469026
52.37934198001823
52.038810967471264
51.631649647911246
51.15808628432175
50.65900696828956
50.1883607828246
49.78241965343846
49.47033063577818
49.26074906584062
49.10984728249456
49.00908337344827
48.902726728465154
48.93900612479412
49.50477021067108
51.476001541580096
55.13445922736084
46.8696284578292
60.184605736768354
12.178363147555928
5.001766798248411
7.042433731180012
10.657644143323793
17.75440579582157
28.00835835499109
39.0416522223071
44.02732866802111
46.30905060075703
47.84514417768405
48.744314570661416
49.3507501990656
49.838526665231385
50.30158857266359
50.70210498580589
51.03172695692747
51.28764916219813
51.4378840268746
51.43770804825695
51.373308776855005
51.22595748003724
51.057082376404054
50.87584333719816
50.69168421624242
50.541353147728394
50.41025972699881
50.350231896060755
50.3590594719012
50.50419799537499
50.87354385057823
51.50474796826616
52.17318591872781
52.735700751895735
53.31695172556307
55.23391965109625
52.41036955141876
49.19781122562952
32.08772284737594
32.02390574580129
26.51014067496814
5.921472336923259
7.867616311572746
17.92032435218522
29.67856867872814
36.73153047891523
41.26300046502236
44.085666396286264
45.912007844578255
47.24428410108923
48.04176753798386
48.512046070170335
48.777972276312724
48.960068944627984
49.051594321510045
49.04535424115801
48.96095299449607
48.84515546412343
48.682123544536786
48.538121897792266
48.39299622872796
48.25183907136002
48.14902045782794
48.09444097609755
48.1022301296915
48.22028367529577
48.42185466968052
48.775175302156256
49.28673091795906
50.06691123686822
51.362170934881405
53.571752652330524
56.85322391667785
57.1639579213629
55.66404412053099
52.37650665158496
49.556930820778774
50.29942497127398
)
;

boundaryField
{
    ".*"
    {
        type            zeroGradient;
    }
}


// ************************************************************************* //
