/*--------------------------------*- C++ -*----------------------------------*\
  =========                 |
  \\      /  F ield         | OpenFOAM: The Open Source CFD Toolbox
   \\    /   O peration     | Website:  https://openfoam.org
    \\  /    A nd           | Version:  6
     \\/     M anipulation  |
\*---------------------------------------------------------------------------*/
FoamFile
{
    version     2.0;
    format      ascii;
    class       volScalarField;
    location    "14900";
    object      k;
}
// * * * * * * * * * * * * * * * * * * * * * * * * * * * * * * * * * * * * * //

dimensions      [0 2 -2 0 0 0 0];

internalField   nonuniform List<scalar> 
778
(
0.00158594
0.00180109
0.00178788
0.00194636
0.00209753
0.00223975
0.00237638
0.00251197
0.0026523
0.00280565
0.00295597
0.00310241
0.00325012
0.00341275
0.00358661
0.000792922
0.00162573
0.0016524
0.00157363
0.0014459
0.00128348
0.00113115
0.000999327
0.000887528
0.00079297
0.000713222
0.000645199
0.000586198
0.000533673
0.000484917
0.000436429
0.000398079
0.00032616
0.00340705
0.00643345
0.00268742
0.00274591
0.00288753
0.00305404
0.00323434
0.00343005
0.00364328
0.00387367
0.00412592
0.00437994
0.00459604
0.00470158
0.00459597
0.00429959
0.00390832
0.00358085
0.00253581
0.00281228
0.00295509
0.00289798
0.00266543
0.00226629
0.00190673
0.00161021
0.00137027
0.00117627
0.00101736
0.000885504
0.000774218
0.000681391
0.000615379
0.000574895
0.000864256
0.000524166
0.00549094
0.0127813
0.00347788
0.00321194
0.0032972
0.00345499
0.00363633
0.00384048
0.00407082
0.00432757
0.00463583
0.0050115
0.0054521
0.00596206
0.00653344
0.00686223
0.00627964
0.005387
0.00403657
0.00416812
0.0041718
0.00397499
0.0035779
0.00266625
0.00201636
0.00157682
0.00127044
0.00105017
0.000887625
0.000765143
0.000672229
0.000603968
0.000551709
0.000548887
0.00116459
0.000678248
0.00797384
0.0217587
0.0044911
0.00339055
0.00334127
0.00343782
0.00354919
0.00366868
0.00380894
0.00399136
0.00425936
0.00464906
0.00517234
0.00582693
0.00655683
0.00713667
0.00722986
0.00724392
0.00534304
0.00554937
0.00537471
0.00512419
0.00478606
0.00434785
0.00345591
0.00285945
0.00243664
0.00211075
0.00185139
0.00163289
0.00143941
0.00125932
0.00107836
0.000801205
0.000660161
0.00141921
0.000822231
0.0108768
0.0336346
0.0062127
0.0034248
0.00315803
0.00316673
0.0031894
0.00320976
0.00325208
0.00336112
0.00359489
0.00398972
0.00455465
0.00527879
0.0060896
0.00682026
0.00728556
0.00764546
0.00751814
0.00665396
0.00607242
0.00557803
0.0050984
0.00462922
0.0041233
0.00366604
0.00327558
0.00293804
0.00263189
0.00234846
0.00207989
0.00181903
0.00155533
0.00122243
0.000931256
0.00118962
0.00121613
0.0011678
0.00200737
0.00185205
0.0141753
0.0475979
0.00928361
0.00348981
0.00290829
0.00282251
0.00276427
0.00269953
0.00266426
0.00273455
0.00298085
0.00341464
0.00402471
0.00480001
0.00565674
0.00646418
0.00707147
0.00740908
0.00732471
0.00679008
0.00621465
0.0056366
0.00507396
0.00455601
0.00409159
0.00369604
0.00336348
0.00307409
0.00280726
0.00255209
0.00229959
0.00204271
0.0017741
0.00147172
0.00117971
0.00111342
0.00111189
0.00170019
0.00504614
0.00265684
0.0179924
0.0606044
0.0143589
0.00381933
0.00271498
0.0025292
0.00241173
0.00229411
0.0022212
0.00231153
0.00263016
0.00313938
0.00380288
0.00463322
0.00553158
0.00637011
0.00700393
0.00733045
0.00725606
0.00681895
0.00621565
0.00555479
0.00491189
0.00434291
0.0038727
0.00350059
0.0032068
0.00296188
0.00274163
0.00252959
0.00231412
0.00208776
0.00184553
0.00158322
0.00132895
0.00116259
0.00109367
0.00154598
0.00619196
0.00367709
0.0216411
0.0704797
0.0214341
0.00510193
0.00274264
0.00237171
0.00221018
0.00208216
0.00202666
0.00221969
0.00264974
0.00323092
0.00393779
0.00477614
0.00570154
0.00657648
0.0072266
0.00751662
0.00738654
0.0068979
0.00619921
0.00542742
0.0046917
0.00406454
0.00357439
0.00321225
0.00294728
0.00274064
0.00256414
0.00239611
0.00222265
0.00203601
0.00183258
0.00161359
0.00139956
0.00123572
0.00115855
0.00207082
0.0137364
0.00622783
0.0228334
0.069495
0.0325308
0.0110544
0.00406662
0.00258735
0.00223572
0.00210348
0.00219082
0.00251331
0.00300102
0.00360233
0.00433283
0.00521322
0.00618599
0.00708878
0.00771885
0.00792525
0.00766708
0.00702782
0.00616685
0.00524924
0.00440758
0.0037221
0.00321608
0.0028681
0.00263464
0.00246814
0.00233558
0.00221098
0.00207933
0.00193332
0.00177052
0.001594
0.00142056
0.00129903
0.00135137
0.00381108
0.0262645
0.00812048
0.0219185
0.0516372
0.0336419
0.0174314
0.0085866
0.00475959
0.0032623
0.0027315
0.00285529
0.00321311
0.00367401
0.00424702
0.00499479
0.00593658
0.00697163
0.0078853
0.00844088
0.008485
0.0080062
0.00712673
0.00604329
0.0049546
0.00401093
0.00328965
0.00279668
0.00248734
0.00230082
0.00218281
0.00209488
0.00201021
0.0019152
0.00180414
0.00167615
0.00153583
0.00139995
0.00133291
0.00176128
0.00812658
0.0245931
0.00841738
0.0192334
0.0394373
0.030237
0.0195653
0.0121825
0.00794008
0.00571947
0.00467238
0.00436573
0.00440287
0.00465446
0.00514507
0.0059315
0.00697377
0.00807931
0.00895612
0.00933901
0.00909707
0.0082769
0.00706465
0.00571355
0.00445955
0.00346005
0.00276695
0.00234692
0.00211367
0.00198928
0.00192164
0.00187177
0.00181799
0.00175007
0.00166402
0.00156051
0.00144724
0.00134974
0.00142189
0.00304025
0.00967662
0.0207162
0.00822369
0.0159487
0.0315846
0.0266491
0.0195383
0.0139766
0.0102855
0.00802931
0.00675427
0.00605223
0.00573377
0.00578394
0.00627113
0.00719915
0.0084002
0.00954624
0.0102667
0.0103038
0.009596
0.00829282
0.00667084
0.00505634
0.00371866
0.00279058
0.0022335
0.00195431
0.00181401
0.00174457
0.0017105
0.00168318
0.00164796
0.00159715
0.00152731
0.00143964
0.00134738
0.00130373
0.00172588
0.00432619
0.0100545
0.0170941
0.0076912
0.0132642
0.0256643
0.023345
0.0186875
0.0145831
0.0115885
0.00954452
0.00821114
0.00730198
0.00684214
0.00695712
0.00770954
0.00895465
0.0103292
0.0113685
0.01168
0.0110996
0.00970241
0.00779822
0.00576806
0.00402696
0.00283548
0.00219587
0.00186506
0.00170077
0.00161776
0.00157531
0.00155299
0.00153238
0.00150386
0.00146172
0.00140328
0.00133104
0.00126324
0.00128307
0.00187546
0.00456273
0.00984606
0.0161939
0.0073265
0.0133463
0.0224045
0.0220483
0.0177552
0.0143898
0.0118927
0.0100836
0.00876914
0.00791983
0.00777581
0.00846641
0.00984281
0.0114769
0.0128088
0.0133459
0.0128133
0.0112785
0.00900052
0.00653128
0.00431688
0.00296586
0.00222966
0.00186336
0.00167791
0.00157703
0.00151614
0.00147629
0.00144877
0.00142271
0.00139181
0.00135234
0.00130372
0.00125136
0.00121834
0.00129045
0.00182661
0.00404168
0.00895282
0.015903
0.00810816
0.0108736
0.0117592
0.0129211
0.0125517
0.0113742
0.0100749
0.00894736
0.00820564
0.00830793
0.00941579
0.0112699
0.0133039
0.0148646
0.0154354
0.0147688
0.0128593
0.0101709
0.00704167
0.00465475
0.00314678
0.00236132
0.00198019
0.00178752
0.00167268
0.00158943
0.00152058
0.00146177
0.00141389
0.00137291
0.00133465
0.00129984
0.00127667
0.00128316
0.00135059
0.00154547
0.00208855
0.00384772
0.0090221
0.0140151
0.00859431
0.00354685
0.0048286
0.00600213
0.00660716
0.00728517
0.00880645
0.0113207
0.014126
0.0164973
0.0178847
0.0179519
0.0166401
0.0141643
0.0106111
0.00734248
0.00485349
0.00335299
0.00259386
0.0022454
0.00207211
0.00196268
0.00187272
0.00178577
0.00169714
0.00161002
0.00153539
0.00148309
0.00145538
0.00146675
0.00154337
0.0017141
0.00200182
0.00244773
0.0032088
0.00483229
0.01021
0.013621
0.00881148
0.00444436
0.00629389
0.00811166
0.0110288
0.0147116
0.0181602
0.0203776
0.021401
0.021276
0.0200141
0.0174695
0.0140079
0.0103861
0.0071465
0.00487246
0.00357696
0.00296658
0.00269737
0.0025617
0.00247179
0.00239792
0.0023293
0.00225983
0.0021857
0.00210865
0.00204119
0.00200699
0.00202293
0.00211822
0.00233077
0.00269596
0.00323972
0.00400034
0.00509796
0.0068715
0.0106199
0.0156727
0.00842333
0.0150797
0.024443
0.0180783
0.0143874
0.0170189
0.0207322
0.022872
0.0235681
0.0230876
0.021701
0.0196481
0.0169889
0.0138266
0.0105433
0.00766764
0.00559339
0.00441054
0.00384826
0.00357819
0.00341566
0.00329592
0.00320469
0.00314154
0.00310494
0.00308757
0.00307775
0.00306626
0.00305792
0.00307585
0.00314852
0.00330907
0.00359729
0.00405574
0.00472477
0.00564592
0.00688071
0.00853225
0.0106897
0.0131517
0.00785848
0.0138116
0.0170511
0.0178841
0.0207855
0.021719
0.0221392
0.0211436
0.0193303
0.017206
0.0150164
0.0128599
0.0107897
0.00888943
0.00729188
0.00612547
0.0053919
0.00492703
0.00461629
0.00438378
0.00420097
0.00406835
0.00399715
0.00399788
0.00407371
0.00421678
0.00440682
0.00461242
0.00479453
0.00493613
0.0050873
0.00529816
0.00561108
0.00606462
0.00670051
0.0075745
0.00876251
0.0103478
0.0124639
0.0137599
0.00831019
0.012136
0.00890675
0.00881663
0.00933356
0.00977094
0.00918776
0.00810588
0.00692512
0.00583403
0.00488958
0.00409518
0.00344736
0.00294871
0.00260137
0.00239169
0.0022867
0.00225853
0.00226314
0.00229096
0.00234355
0.00242462
0.00253537
0.00267243
0.00282835
0.00299416
0.00316221
0.00332865
0.00349518
0.00366631
0.00384621
0.0040488
0.00428853
0.00457741
0.0049237
0.00532815
0.00577639
0.00624324
0.00677717
0.00763654
0.00777574
)
;

boundaryField
{
    floor
    {
        type            kqRWallFunction;
        value           nonuniform List<scalar> 
36
(
0.00358661
0.000792922
0.00162573
0.0016524
0.00157363
0.0014459
0.00128348
0.00113115
0.000999327
0.000887528
0.00079297
0.000713222
0.000645199
0.000586198
0.000533673
0.000484917
0.000436429
0.000398079
0.00032616
0.00032616
0.000524166
0.000678248
0.000822231
0.0011678
0.00200737
0.00185205
0.00358661
0.00429959
0.00390832
0.00358085
0.000792922
0.00358085
0.00253581
0.005387
0.00403657
0.00534304
)
;
    }
    ceiling
    {
        type            kqRWallFunction;
        value           nonuniform List<scalar> 
43
(
0.012136
0.00890675
0.00881663
0.00933356
0.00977094
0.00918776
0.00810588
0.00692512
0.00583403
0.00488958
0.00409518
0.00344736
0.00294871
0.00260137
0.00239169
0.0022867
0.00225853
0.00226314
0.00229096
0.00234355
0.00242462
0.00253537
0.00267243
0.00282835
0.00299416
0.00316221
0.00332865
0.00349518
0.00366631
0.00384621
0.0040488
0.00428853
0.00457741
0.0049237
0.00532815
0.00577639
0.00624324
0.00677717
0.00763654
0.00777574
0.0108736
0.0117592
0.00444436
)
;
    }
    sWall
    {
        type            kqRWallFunction;
        value           nonuniform List<scalar> 9(0.0219185 0.0192334 0.0159487 0.0132642 0.0133463 0.0108736 0.0150797 0.0138116 0.012136);
    }
    nWall
    {
        type            kqRWallFunction;
        value           nonuniform List<scalar> 
14
(
0.00185205
0.00265684
0.00367709
0.00841738
0.00822369
0.0076912
0.0073265
0.00810816
0.00859431
0.00881148
0.00842333
0.00785848
0.00831019
0.00777574
)
;
    }
    sideWalls
    {
        type            empty;
    }
    glass1
    {
        type            kqRWallFunction;
        value           nonuniform List<scalar> 9(0.00158594 0.00340705 0.00549094 0.00797384 0.0108768 0.0141753 0.0179924 0.0216411 0.0228334);
    }
    glass2
    {
        type            kqRWallFunction;
        value           nonuniform List<scalar> 2(0.00622783 0.00812048);
    }
    sun
    {
        type            kqRWallFunction;
        value           nonuniform List<scalar> 
14
(
0.00158594
0.00180109
0.00178788
0.00194636
0.00209753
0.00223975
0.00237638
0.00251197
0.0026523
0.00280565
0.00295597
0.00310241
0.00325012
0.00341275
)
;
    }
    Table_master
    {
        type            kqRWallFunction;
        value           nonuniform List<scalar> 9(0.00266625 0.00201636 0.00157682 0.00127044 0.00105017 0.000887625 0.000765143 0.000672229 0.000603968);
    }
    Table_slave
    {
        type            kqRWallFunction;
        value           nonuniform List<scalar> 9(0.00345591 0.00285945 0.00243664 0.00211075 0.00185139 0.00163289 0.00143941 0.00125932 0.00107836);
    }
    inlet
    {
        type            turbulentIntensityKineticEnergyInlet;
        intensity       0.05;
        value           uniform 0.0009375;
    }
    outlet
    {
        type            zeroGradient;
    }
}


// ************************************************************************* //
