/*--------------------------------*- C++ -*----------------------------------*\
  =========                 |
  \\      /  F ield         | OpenFOAM: The Open Source CFD Toolbox
   \\    /   O peration     | Website:  https://openfoam.org
    \\  /    A nd           | Version:  6
     \\/     M anipulation  |
\*---------------------------------------------------------------------------*/
FoamFile
{
    version     2.0;
    format      ascii;
    class       surfaceScalarField;
    location    "14900";
    object      phi;
}
// * * * * * * * * * * * * * * * * * * * * * * * * * * * * * * * * * * * * * //

dimensions      [1 0 -1 0 0 0 0];

internalField   nonuniform List<scalar> 
1482
(
-0.00279983
0.00286387
-0.00348415
0.000684322
-0.00414498
0.000660827
-0.00475924
0.000614263
-0.00528083
0.000521592
-0.00569299
0.000412158
-0.00598447
0.000291474
-0.00614216
0.0001577
-0.00614872
6.55811e-06
-0.00597813
-0.000170589
-0.00560041
-0.000377727
-0.00498447
-0.000615942
-0.00406008
-0.000924383
-0.0025809
-0.00147918
-0.00257798
-6.52815e-05
7.0135e-05
0.000778217
-0.000843498
0.00143077
-0.000652551
0.00183033
-0.000399561
0.00205215
-0.000221819
0.00215667
-0.000104522
0.00220396
-4.7294e-05
0.00222663
-2.26652e-05
0.00223623
-9.60067e-06
0.00223702
-7.92797e-07
0.00222992
7.10354e-06
0.00221092
1.9003e-05
0.00216669
4.42259e-05
0.00206405
0.00010264
0.00184765
0.000216401
0.00149062
0.000357026
0.00101977
0.000470857
0.00102621
-0.00204043
0.00507462
-0.00290865
0.00155254
-0.0036946
0.00144678
-0.00434579
0.00126545
-0.00488325
0.00105905
-0.00531226
0.000841171
-0.00563103
0.00061024
-0.00583272
0.000359393
-0.00590663
8.04699e-05
-0.00584489
-0.000232338
-0.00564164
-0.00058097
-0.00528558
-0.000972006
-0.00477551
-0.00143445
-0.00428952
-0.00196517
-0.00470564
-0.00216186
-0.00311867
-0.00158153
-0.0016346
-0.00147839
-0.00161975
0.00131724
-0.00123689
0.00166072
-0.00118698
0.00191183
-0.000903659
0.00210264
-0.000590367
0.00220972
-0.000328898
0.00221865
-0.000113454
0.00222075
-4.93913e-05
0.00222242
-2.43447e-05
0.00222338
-1.05557e-05
0.00222334
-7.48735e-07
0.00222192
8.52238e-06
0.00221768
2.3238e-05
0.00220503
5.68736e-05
0.00214312
0.000164557
0.00189363
0.000465886
0.00146459
0.000786072
0.000901687
0.00103376
0.00194478
-0.00148833
0.00682087
-0.00235932
0.00242353
-0.00312941
0.00221686
-0.00371377
0.00184981
-0.00418459
0.00152988
-0.00455624
0.00121281
-0.00483049
0.000884491
-0.0050041
0.000533003
-0.00507064
0.000147009
-0.00502101
-0.00028197
-0.00484444
-0.000757538
-0.0045335
-0.00128294
-0.00411904
-0.00184891
-0.00372179
-0.00236243
-0.00330161
-0.00258204
-0.00237019
-0.00251296
-0.00127584
-0.00257274
-0.00288276
0.00114943
-0.00237186
0.0016524
-0.00168995
0.00195027
-0.00120154
0.00214248
-0.000782573
0.00217153
-0.000357943
0.00205823
0.00200899
0.0019848
0.0019744
0.0019738
0.00198248
0.00200587
0.0020629
0.00222761
0.00186932
0.00082418
0.00142189
0.0012335
0.000803007
0.00165264
0.00277382
-0.00110615
0.00825822
-0.00192818
0.00324557
-0.00257034
0.00285902
-0.0030308
0.00231027
-0.00339845
0.00189754
-0.00368737
0.00150172
-0.00390054
0.00109767
-0.00403614
0.0006686
-0.00408663
0.000197499
-0.00403881
-0.000329795
-0.00388038
-0.000915969
-0.00360726
-0.00155606
-0.00324209
-0.00221408
-0.00282075
-0.00278377
-0.00228194
-0.00312085
-0.00156279
-0.0032321
-0.000875056
-0.00326047
-0.000696631
-0.00306119
0.00144005
-0.00212124
0.00137383
-0.00230563
0.00169003
-0.00200616
0.00200279
-0.0015143
0.00226914
-0.00104892
0.00254561
-0.000634417
0.00285931
-0.000313855
0.00302644
-0.000167281
0.00309122
-6.49372e-05
0.00307418
1.68884e-05
0.00298412
8.99055e-05
0.0028221
0.000161866
0.00258038
0.000241569
0.00223608
0.000344143
0.001732
0.000503928
0.00159609
0.000960094
0.00126932
0.00156027
0.000743794
0.00217816
0.00355192
-0.000803858
0.00945527
-0.00158014
0.00402185
-0.00204894
0.00332782
-0.00236477
0.0026261
-0.00260924
0.002142
-0.00279485
0.00168733
-0.00292662
0.00122944
-0.00300529
0.000747271
-0.00302432
0.000216523
-0.00296708
-0.00038703
-0.00282036
-0.00106269
-0.00257726
-0.00179916
-0.00224443
-0.00254691
-0.00182899
-0.00319921
-0.0013246
-0.00362524
-0.000748801
-0.00380789
-0.000218067
-0.00379121
0.0002592
-0.00353845
0.0011208
-0.00298284
0.00148747
-0.0026723
0.00174703
-0.00226571
0.00199985
-0.00176713
0.00222994
-0.00127901
0.00244437
-0.000848844
0.00264551
-0.000514991
0.00275565
-0.000277422
0.00279197
-0.000101264
0.00276622
4.26457e-05
0.00268483
0.00017129
0.00255039
0.000296312
0.00236178
0.000430175
0.00211674
0.000589183
0.00182339
0.000797279
0.00161874
0.00116475
0.0014786
0.00170041
0.00130112
0.00235564
0.00228766
0.00256538
0.00132323
0.00099936
0.00187725
-0.000525182
0.00199639
-0.000575929
0.0104776
-0.00132497
0.00477089
-0.00158478
0.00358763
-0.00175085
0.00279217
-0.00186494
0.0022561
-0.00193651
0.0017589
-0.00197202
0.00126495
-0.00197576
0.000751017
-0.00194456
0.000185322
-0.00185674
-0.000474849
-0.00170259
-0.00121685
-0.00147228
-0.00202947
-0.00116875
-0.00285043
-0.00079781
-0.00357015
-0.000379196
-0.00404385
6.0382e-05
-0.00424747
0.000465372
-0.00419619
0.000839906
-0.00391298
0.00129146
-0.0034344
0.00159099
-0.00297183
0.00179498
-0.0024697
0.00196696
-0.00193911
0.00211902
-0.00143107
0.00225382
-0.00098364
0.00235885
-0.00062003
0.00241716
-0.000335732
0.00242838
-0.00011248
0.00239771
7.3317e-05
0.00232999
0.000239007
0.00222912
0.000397183
0.00209927
0.000560025
0.00194764
0.00074081
0.00178886
0.000956068
0.0016991
0.0012545
0.00175725
0.00164225
0.00196889
0.002144
0.00221006
0.0023242
0.00171905
0.00149037
0.00080156
0.000392314
0.00289565
-0.000543471
0.0115133
-0.0012438
0.00547122
-0.00119236
0.00353619
-0.00120093
0.00280074
-0.00119344
0.00224861
-0.00116008
0.00172554
-0.00110302
0.00120789
-0.00102799
0.000675989
-0.000929477
8.68063e-05
-0.000780531
-0.000623795
-0.000591559
-0.00140582
-0.000352222
-0.00226881
-6.96598e-05
-0.00313299
0.000233808
-0.00387361
0.00054266
-0.0043527
0.000837094
-0.0045419
0.00109979
-0.00445888
0.00133336
-0.00414656
0.00156575
-0.00366678
0.0017262
-0.00313228
0.00182689
-0.00257039
0.00189762
-0.00200984
0.00195403
-0.00148748
0.00200124
-0.00103085
0.00203392
-0.000652709
0.00204629
-0.000348103
0.00203489
-0.000101078
0.00200044
0.000107766
0.00194606
0.000293391
0.0018756
0.000467641
0.00179441
0.000641216
0.00171124
0.000823983
0.00164141
0.00102589
0.00162839
0.00126753
0.00171678
0.00155386
0.00192732
0.00193345
0.00217711
0.00207442
0.00218497
0.00148251
0.00164281
0.00093447
0.00464167
-0.000483623
0.0125324
-0.00105173
0.00603932
-0.000697881
0.00318235
-0.000637303
0.00274016
-0.000569122
0.00218043
-0.000464564
0.00162098
-0.000335593
0.00107892
-0.000184372
0.000524768
5.01153e-06
-0.000102577
0.000223235
-0.000842018
0.000462703
-0.00164529
0.000719649
-0.00252575
0.000975404
-0.00338875
0.00120278
-0.00410099
0.00140103
-0.00455094
0.00156156
-0.00470242
0.0016792
-0.00457652
0.00175875
-0.00422609
0.00181254
-0.00372057
0.00182358
-0.00314331
0.00179991
-0.00254672
0.0017604
-0.00197033
0.00171982
-0.00144691
0.00168553
-0.000996569
0.00165741
-0.000624582
0.0016314
-0.000322095
0.00160262
-7.22988e-05
0.00156884
0.000141545
0.00153035
0.000331883
0.00148859
0.000509399
0.00144692
0.000682889
0.00141189
0.000859011
0.00139503
0.00104275
0.00142062
0.00124193
0.00151733
0.00145716
0.00173318
0.00171759
0.00201779
0.00178982
0.00212523
0.00137507
0.00165677
0.00140294
0.00666639
0.00297652
0.010143
0.00202107
0.00699477
0.000868208
0.00433521
0.000369806
0.00323856
0.000212795
0.00233744
0.000269105
0.00156467
0.000423018
0.000925006
0.000637
0.000310786
0.000896373
-0.00036195
0.00116122
-0.00110686
0.00143941
-0.00192349
0.0017057
-0.00279204
0.00193071
-0.00361376
0.00209042
-0.00426071
0.00217922
-0.00463973
0.00219999
-0.0047232
0.00216174
-0.00453826
0.00207817
-0.00414252
0.00196445
-0.00360686
0.00182612
-0.00300498
0.00167519
-0.00239579
0.00152843
-0.00182357
0.00140034
-0.00131881
0.00129891
-0.000895145
0.00122514
-0.00055081
0.001174
-0.000270958
0.00113818
-3.64727e-05
0.00111241
0.000167312
0.00109329
0.000351003
0.00107871
0.000523975
0.00106886
0.000692744
0.00106678
0.000861092
0.00107923
0.0010303
0.00112047
0.00120069
0.00121074
0.00136689
0.00139416
0.00153417
0.00165155
0.00153243
0.00176174
0.00126487
0.000425634
0.00273905
0.00747794
0.0040311
0.00625218
0.00366709
0.00735877
0.00254166
0.00546064
0.00188847
0.00389175
0.00153189
0.00269402
0.00138702
0.00170954
0.00142083
0.000891199
0.00159528
0.000136331
0.00184734
-0.000614006
0.00212434
-0.00138386
0.0024036
-0.00220275
0.00264771
-0.00303615
0.00281508
-0.00378114
0.00287894
-0.00432458
0.0028363
-0.0045971
0.00270121
-0.00458811
0.00249614
-0.00433319
0.00224546
-0.00389184
0.00197195
-0.00333334
0.00169274
-0.00272576
0.00142498
-0.00212803
0.00118653
-0.00158512
0.000991933
-0.00112421
0.000847094
-0.000750307
0.00075042
-0.000454137
0.00069271
-0.000213248
0.000662959
-6.72126e-06
0.000652449
0.000177822
0.000654365
0.000349087
0.000663914
0.000514426
0.000678517
0.000678141
0.00069719
0.000842418
0.000720195
0.00100729
0.000750097
0.00117079
0.000787556
0.00132943
0.00081074
0.00151099
0.000496696
0.00184644
-0.000715964
0.00247726
-0.00194333
0.00396631
0.00563933
0.00240965
0.00400706
0.00330469
0.00646373
0.00324866
0.00551665
0.00303785
0.00410256
0.00284679
0.00288507
0.00272353
0.0018328
0.00270969
0.000905039
0.00279872
4.73028e-05
0.00296069
-0.000775974
0.00317116
-0.00159433
0.00338807
-0.00241967
0.00355131
-0.0031994
0.00360627
-0.00383611
0.00352656
-0.00424487
0.00331783
-0.00438837
0.00300642
-0.0042767
0.00262689
-0.00395366
0.00221278
-0.00347773
0.0017938
-0.00291435
0.00139381
-0.00232577
0.00103446
-0.00176868
0.000735519
-0.00128617
0.000510501
-0.000899189
0.000357182
-0.000596988
0.000266017
-0.000362971
0.000220134
-0.000167365
0.00020558
7.83207e-06
0.000212123
0.00017128
0.000232221
0.000328989
0.000260876
0.000485771
0.000294001
0.000645015
0.000326864
0.000809555
0.000352725
0.000981433
0.000363083
0.00116043
0.000342313
0.0013502
0.000210216
0.00164309
-0.000284111
0.0023406
-0.000989881
0.00318271
-0.00120171
0.00417789
0.00455454
0.00145713
0.00274418
0.00274874
0.00517212
0.00343291
0.00483248
0.00371887
0.0038166
0.00381725
0.00278668
0.00384536
0.00180469
0.00388167
0.000868731
0.00395116
-2.21905e-05
0.00406147
-0.000886283
0.00420151
-0.00173438
0.00431963
-0.00253778
0.00434513
-0.00322491
0.00422672
-0.00371771
0.00395242
-0.00397058
0.00354485
-0.00398082
0.003044
-0.00377585
0.00249397
-0.00340364
0.00193372
-0.00291748
0.00139765
-0.00237828
0.000913405
-0.00184152
0.000508137
-0.00136341
0.0002007
-0.000978732
-4.65776e-06
-0.000693831
-0.000125808
-0.000475836
-0.000188579
-0.0003002
-0.000214435
-0.000141509
-0.000215175
8.57246e-06
-0.000197589
0.000153694
-0.000166035
0.000297434
-0.000123912
0.000443647
-7.55681e-05
0.00059667
-2.82371e-05
0.000762224
5.26923e-06
0.000947926
2.06912e-06
0.00116363
-8.23917e-05
0.00143467
-0.000341189
0.00190196
-0.000912167
0.00291164
-0.00168632
0.00395673
-0.00171626
0.00420765
0.00296928
0.00217389
0.000796258
0.00294498
0.00440104
0.00359477
0.00418269
0.00416459
0.00324678
0.0044921
0.00245917
0.00466639
0.0016304
0.00478346
0.000751661
0.00488884
-0.000127571
0.00499593
-0.000993369
0.00507417
-0.00181262
0.00505773
-0.00252133
0.0048866
-0.00305379
0.00453856
-0.00336969
0.00403264
-0.00346468
0.00341387
-0.00336206
0.0027332
-0.0030952
0.00203962
-0.00271005
0.00137163
-0.00224949
0.000768893
-0.00177554
0.000259956
-0.00133259
-0.000117457
-0.000986
-0.000360156
-0.000736032
-0.000498261
-0.000555724
-0.000570213
-0.000403882
-0.00060552
-0.00026489
-0.000617036
-0.000129992
-0.000610491
2.02655e-06
-0.000587986
0.000131189
-0.000550196
0.000259644
-0.000498327
0.000391778
-0.0004357
0.000534043
-0.000369559
0.000696081
-0.000313851
0.000892217
-0.000295834
0.00114561
-0.000364809
0.00150367
-0.000568442
0.00210578
-0.00091398
0.00325759
-0.00172632
0.00476938
-0.00210084
0.00458242
0.0010135
-0.00157826
0.00261968
0.00111905
0.00170373
0.00335107
0.00195066
0.00435343
0.00224442
0.00485723
0.00195537
0.00517202
0.00131561
0.0054008
0.000522885
0.00557986
-0.000306625
0.00568006
-0.00109355
0.00563883
-0.00177137
0.0054052
-0.0022877
0.00496758
-0.00261618
0.00435391
-0.00275603
0.00361699
-0.00272777
0.00281697
-0.00256205
0.00200404
-0.00228228
0.00122736
-0.00193337
0.000518808
-0.00154095
-6.97513e-05
-0.00118699
-0.000494433
-0.000907907
-0.000753954
-0.000726478
-0.0008978
-0.000592181
-0.000975022
-0.000478496
-0.00101295
-0.000365948
-0.00102871
-0.000249128
-0.00102989
-0.00012881
-0.00101867
-9.19681e-06
-0.000993753
0.000106273
-0.000952597
0.000218487
-0.000893453
0.000332632
-0.000816905
0.000457494
-0.000727132
0.000606307
-0.000633797
0.000798876
-0.000553912
0.00106571
-0.000506528
0.00145628
-0.000467216
0.00206659
-0.000271174
0.00306198
4.19701e-05
0.0044566
0.000319074
0.00430576
0.0014857
0.00288144
0.00456999
0.00487047
0.00165018
0.00535687
0.00175802
0.00559329
0.00171895
0.00582496
0.00108395
0.00601318
0.000334683
0.00608056
-0.000373976
0.00595535
-0.000968317
0.00560401
-0.00142001
0.00503899
-0.00172267
0.00430707
-0.00188426
0.00346619
-0.00191516
0.00257468
-0.00183628
0.00168765
-0.00167503
0.000838382
-0.00143301
7.10392e-05
-0.00116604
-0.000550341
-0.000919575
-0.000981278
-0.000756058
-0.00124132
-0.000647864
-0.00139045
-0.000577343
-0.0014696
-0.000513007
-0.00150886
-0.00043922
-0.00152437
-0.000350419
-0.00152544
-0.000248048
-0.00151712
-0.000137138
-0.00150124
-2.50883e-05
-0.00147583
8.08625e-05
-0.00143611
0.000178758
-0.00137746
0.000273981
-0.00129724
0.000377276
-0.00119508
0.000504143
-0.00107212
0.000675898
-0.000926946
0.000920477
-0.000741219
0.00127044
-0.000441444
0.00176672
0.000120223
0.00250042
0.00093841
0.00363871
0.00137215
0.00387238
0.00301941
0.00793013
0.00536827
0.00580964
0.00387852
0.00556171
0.00196692
0.00563433
0.00101137
0.0056003
0.000368772
0.00535823
-0.000131859
0.00489663
-0.000506678
0.00425559
-0.000778953
0.00348827
-0.000955369
0.00264729
-0.00104329
0.00177321
-0.00104111
0.000902411
-0.000965498
7.03062e-05
-0.000842942
-0.000660659
-0.000702059
-0.00122841
-0.000598307
-0.00161856
-0.000529441
-0.00186958
-0.000505038
-0.0020179
-0.000499532
-0.00210402
-0.000491193
-0.00215194
-0.000465035
-0.0021752
-0.000415922
-0.00218143
-0.000344153
-0.00217599
-0.00025348
-0.00216305
-0.0001501
-0.00214571
-4.2464e-05
-0.00212447
5.95878e-05
-0.00209563
0.000149898
-0.00205391
0.000232262
-0.00199371
0.000317096
-0.00190756
0.000418023
-0.00178287
0.0005512
-0.00159794
0.000735452
-0.00131669
0.000988959
-0.000867565
0.00131726
-9.74351e-05
0.00172998
0.00109464
0.00244661
0.00165941
0.00330764
0.00484933
0.00409154
0.00152332
0.00449321
0.00347688
0.00372608
0.00273409
0.00322869
0.00150881
0.00288876
0.000708772
0.00252569
0.000231248
0.00208026
-6.12283e-05
0.0015414
-0.000240102
0.000927069
-0.000341054
0.000253775
-0.000370019
-0.00044187
-0.00034548
-0.00110105
-0.000306345
-0.00166971
-0.000274315
-0.00211134
-0.000260461
-0.00242916
-0.000280522
-0.00263689
-0.000321717
-0.00277122
-0.000370684
-0.00286028
-0.000410419
-0.00292132
-0.000430078
-0.00296226
-0.000424005
-0.00298724
-0.000390866
-0.00299905
-0.000332294
-0.00300008
-0.000252467
-0.00299245
-0.000157789
-0.00297864
-5.63807e-05
-0.00296224
4.30891e-05
-0.00294455
0.000132153
-0.0029215
0.0002092
-0.00288683
0.000282494
-0.00283084
0.00036215
-0.00273702
0.000457502
-0.00257743
0.000575881
-0.00230675
0.000718128
-0.00185551
0.000865671
-0.00110475
0.000978695
0.000154894
0.00118641
0.000680886
0.00278122
0.00571312
-0.00263162
-0.00680597
-0.00743401
-0.00747937
-0.00375796
-0.00215274
-0.00168336
0.00140231
-0.000769076
0.00181986
-0.000567173
0.00130696
-0.000642731
0.000784373
-0.000822882
0.000411425
-0.00105779
0.000173699
-0.00134282
4.49319e-05
-0.00168181
-2.09466e-06
-0.00205382
1.96919e-06
-0.00242687
2.75321e-05
-0.0027751
4.18475e-05
-0.00307354
2.40661e-05
-0.00330166
-3.23768e-05
-0.00345637
-0.000125834
-0.00355986
-0.0002182
-0.00363686
-0.000293607
-0.00370026
-0.000346907
-0.00375462
-0.000375583
-0.00380077
-0.000377725
-0.00383873
-0.000352803
-0.00386879
-0.00030221
-0.00389162
-0.000229694
-0.00390785
-0.0001417
-0.00391662
-4.78152e-05
-0.00391283
3.90967e-05
-0.00389148
0.000110654
-0.00385385
0.00017151
-0.00380038
0.000229072
-0.00372919
0.000291126
-0.00363707
0.000365615
-0.00351919
0.000458254
-0.00336427
0.000563396
-0.00316876
0.000670251
-0.00307671
0.000886566
-0.00352154
0.00163097
-0.0034163
0.00267553
0.00249392
-0.00737819
0.001026
-0.00814682
-0.0067107
-0.00719327
-0.00310624
-0.00566906
-0.000121843
-0.00457647
0.000727339
-0.0039861
0.000716659
-0.00372836
0.000526673
-0.0036624
0.000345499
-0.00370393
0.000215237
-0.00379692
0.000137909
-0.0039006
0.000101556
-0.00398946
9.07668e-05
-0.00404993
8.79237e-05
-0.00408574
7.75885e-05
-0.00411189
5.01474e-05
-0.00414328
-1.01219e-06
-0.00418805
-8.10387e-05
-0.0042476
-0.000158569
-0.00432155
-0.000219531
-0.00440769
-0.000260599
-0.00450196
-0.000281138
-0.00459847
-0.000281071
-0.00468987
-0.000261333
-0.00476824
-0.000223857
-0.00482662
-0.000171444
-0.00486033
-0.000108212
-0.00486808
-4.03496e-05
-0.00485006
2.0785e-05
-0.00480064
6.09954e-05
-0.00471989
9.06122e-05
-0.00460791
0.000117056
-0.00446225
0.000145543
-0.00427652
0.000180063
-0.00404136
0.000223348
-0.00374727
0.000269589
-0.00336431
0.000287551
-0.00269669
0.000219155
-0.00116973
0.000104119
0.000334728
0.00117098
0.00303253
0.00156798
-0.00507787
-0.00812081
-0.00818318
-0.00740152
-0.00663839
-0.00607198
-0.00569156
-0.00544445
-0.00527633
-0.00514516
-0.00502457
-0.00490611
-0.00479707
-0.00471471
-0.00468305
-0.00473131
-0.00485727
-0.00504463
-0.00527373
-0.00552423
-0.00577558
-0.00600807
-0.0062038
-0.00634762
-0.00642852
-0.0064417
-0.0063938
-0.00630575
-0.00618824
-0.00604463
-0.00587308
-0.0056678
-0.00542023
-0.00512758
-0.00481825
-0.00457864
-0.00445546
-0.00326702
)
;

boundaryField
{
    floor
    {
        type            calculated;
        value           nonuniform List<scalar> 
36
(
0
0
0
0
0
0
0
0
0
0
0
0
0
0
0
0
0
0
0
-6.43868e-06
-1.68837e-05
-2.60318e-05
-3.43053e-05
-3.49333e-05
-2.8831e-05
-2.87061e-05
-2.9199e-06
-5.44111e-06
-5.68736e-06
-5.9076e-06
-4.85384e-06
-8.93818e-06
-1.02119e-05
-1.28328e-05
-1.44575e-05
-1.54453e-05
)
;
    }
    ceiling
    {
        type            calculated;
        value           nonuniform List<scalar> 
43
(
-5.79398e-05
-6.48005e-05
-6.32153e-05
-5.93806e-05
-5.42264e-05
-4.63857e-05
-3.96734e-05
-3.48986e-05
-3.18803e-05
-3.02568e-05
-2.96926e-05
-2.99112e-05
-3.06297e-05
-3.15154e-05
-3.22553e-05
-3.26817e-05
-3.2732e-05
-3.25054e-05
-3.20285e-05
-3.13353e-05
-3.04991e-05
-2.96292e-05
-2.88414e-05
-2.822e-05
-2.77967e-05
-2.75526e-05
-2.74337e-05
-2.73651e-05
-2.726e-05
-2.7032e-05
-2.66173e-05
-2.5984e-05
-2.51285e-05
-2.4071e-05
-2.28519e-05
-2.1531e-05
-2.01727e-05
-1.87809e-05
-1.72477e-05
-1.57488e-05
1.93369e-05
1.51882e-05
-0.000246586
)
;
    }
    sWall
    {
        type            calculated;
        value           nonuniform List<scalar> 9(-0.000140236 -0.000164522 -0.000194253 -0.000225972 -0.000245164 -0.000281096 -0.000423773 -0.000453755 -0.000484027);
    }
    nWall
    {
        type            calculated;
        value           nonuniform List<scalar> 
14
(
-9.04382e-05
-9.76854e-05
-0.000103198
-0.000104656
-0.000116915
-0.000131038
-0.000144924
-0.000152654
-0.000161344
-0.00017053
-0.000183211
-0.000197486
-0.000203797
-0.000218517
)
;
    }
    sideWalls
    {
        type            empty;
        value           nonuniform 0();
    }
    glass1
    {
        type            calculated;
        value           nonuniform List<scalar> 9(-6.40345e-05 -0.000170321 -0.000257923 -0.000331207 -0.000393191 -0.000446396 -0.000492209 -0.000535491 -0.000587172);
    }
    glass2
    {
        type            calculated;
        value           nonuniform List<scalar> 2(-0.000367925 -0.000385839);
    }
    sun
    {
        type            calculated;
        value           uniform 0;
    }
    Table_master
    {
        type            calculated;
        value           nonuniform List<scalar> 9(-1.53994e-07 -1.54111e-07 -1.54143e-07 -1.54163e-07 -1.54176e-07 -1.54181e-07 -1.54179e-07 -1.54165e-07 -1.54112e-07);
    }
    Table_slave
    {
        type            calculated;
        value           nonuniform List<scalar> 9(1.53662e-07 1.53719e-07 1.53718e-07 1.53735e-07 1.53756e-07 1.538e-07 1.53867e-07 1.5396e-07 1.54088e-07);
    }
    inlet
    {
        type            calculated;
        value           uniform -0.0116482;
    }
    outlet
    {
        type            calculated;
        value           nonuniform List<scalar> 2(0.00986137 0.0122818);
    }
}


// ************************************************************************* //
