/*--------------------------------*- C++ -*----------------------------------*\
  =========                 |
  \\      /  F ield         | OpenFOAM: The Open Source CFD Toolbox
   \\    /   O peration     | Website:  https://openfoam.org
    \\  /    A nd           | Version:  6
     \\/     M anipulation  |
\*---------------------------------------------------------------------------*/
FoamFile
{
    version     2.0;
    format      ascii;
    class       volScalarField;
    location    "170";
    object      alphat;
}
// * * * * * * * * * * * * * * * * * * * * * * * * * * * * * * * * * * * * * //

dimensions      [1 -1 -1 0 0 0 0];

internalField   nonuniform List<scalar> 
458
(
0.00151555
0.00167656
0.00174296
0.00184023
0.00193587
0.00203687
0.00213333
0.00221061
0.00225557
0.00225418
0.00211115
0.00194221
0.00175016
0.00155677
0.00136268
0.000711008
0.000833123
0.000975671
0.0010591
0.00105736
0.000991716
0.000918005
0.000852511
0.000796303
0.00074799
0.000706278
0.000669905
0.000637729
0.000608647
0.000580985
0.00055251
0.000523533
0.000475236
0.00194239
0.00479691
0.00466086
0.00539495
0.00613958
0.00674612
0.00727781
0.00779113
0.00824247
0.00859108
0.00869712
0.00829011
0.00756318
0.00600788
0.00392546
0.00160752
0.00141724
0.00119248
0.000687112
0.00184169
0.00295123
0.00376805
0.00392834
0.00267048
0.00220874
0.00191223
0.00170074
0.00154261
0.00142011
0.00132355
0.00123988
0.00114416
0.00104574
0.000955226
0.00100452
0.000537151
0.00229114
0.00646767
0.00570827
0.00651769
0.00691511
0.00721117
0.00753014
0.00793714
0.00847641
0.00910946
0.00962665
0.00965896
0.00931398
0.00846736
0.006849
0.00477412
0.00354956
0.00133947
0.000866487
0.00193193
0.00327097
0.00450969
0.00468496
0.00131371
0.00114011
0.000995772
0.000879168
0.000785281
0.000709305
0.000647385
0.00059786
0.000563156
0.000649884
0.000782939
0.00116482
0.00058206
0.00261968
0.00796084
0.00576396
0.00661473
0.00666167
0.00671378
0.0068772
0.00720693
0.00783151
0.00864748
0.00931921
0.00957916
0.0094809
0.00906674
0.00814813
0.0067434
0.00522211
0.0028367
0.00144653
0.0019024
0.00307661
0.00467736
0.00603593
0.0060392
0.00150281
0.0013687
0.00126561
0.00118024
0.00110641
0.00103675
0.000966734
0.000892893
0.000809918
0.000730434
0.000758232
0.00132993
0.00062852
0.00295244
0.00987147
0.0060905
0.00657174
0.00653349
0.00645826
0.0065066
0.00678454
0.0074864
0.00835345
0.00904655
0.00934715
0.00929435
0.00903308
0.00855859
0.00777896
0.00672285
0.00530764
0.0050411
0.00586918
0.00701931
0.00812396
0.00883644
0.00883932
0.00738821
0.0065316
0.00595191
0.00546068
0.00488181
0.00423367
0.00353314
0.00280147
0.00207731
0.00146249
0.00111055
0.00128362
0.000943457
0.000779964
0.000845951
0.000919455
0.00331019
0.0120236
0.00783061
0.00679131
0.00696569
0.00660858
0.00648253
0.00672564
0.00742771
0.00833493
0.00903451
0.00929836
0.00921126
0.00903711
0.00892505
0.00876153
0.00846981
0.00818999
0.00870161
0.00972114
0.0105306
0.0109798
0.0110208
0.0106498
0.00986598
0.00908118
0.00835563
0.00759165
0.00677568
0.00590103
0.00497553
0.00401657
0.00306806
0.00222734
0.00166422
0.00142331
0.00116825
0.00103724
0.001332
0.000953231
0.00364132
0.0135039
0.010574
0.00819711
0.00774286
0.00700812
0.00661683
0.0068411
0.00761327
0.00857821
0.00926287
0.00946566
0.00940177
0.00953728
0.00999501
0.0103347
0.0105659
0.0109157
0.0116361
0.0123181
0.0125644
0.0124191
0.0119522
0.0112541
0.0104148
0.00957306
0.00875605
0.00794523
0.0071252
0.00627361
0.00542152
0.00456826
0.00373088
0.00294296
0.00234555
0.00194034
0.00165621
0.00155284
0.00148648
0.00112608
0.00371417
0.0117908
0.0103679
0.0092375
0.00800394
0.00691883
0.00657555
0.00703156
0.00801835
0.00906169
0.00966147
0.00978518
0.0100153
0.0108478
0.0114685
0.011831
0.012148
0.0125354
0.0129622
0.0131467
0.0128929
0.0122863
0.0114408
0.0104626
0.00944573
0.00848043
0.00760827
0.00680093
0.00605632
0.00540378
0.00485877
0.00436924
0.0039069
0.0034269
0.00307857
0.00294798
0.00304869
0.00330998
0.00410396
0.00176123
0.00362873
0.00434356
0.00482609
0.00491143
0.00493791
0.00525949
0.00611777
0.0074164
0.00878505
0.00977703
0.0100151
0.0102764
0.0109158
0.011681
0.0120568
0.0122528
0.0124198
0.0125437
0.0125106
0.0121774
0.0115014
0.0105525
0.00942811
0.00822843
0.00706658
0.00602861
0.00512999
0.0043768
0.00377725
0.00332865
0.00301656
0.00281518
0.00268701
0.00261288
0.0025846
0.00258351
0.00255254
0.00245054
0.00230226
0.00163514
0.00154476
0.00270749
0.00438191
0.0064356
0.008278
0.00960479
0.0102472
0.0103277
0.00996351
0.0101984
0.0107376
0.0110373
0.0111242
0.0111335
0.0110682
0.0108524
0.010398
0.0096612
0.00867224
0.00752157
0.0063273
0.00521742
0.00429398
0.00359306
0.00309933
0.00277998
0.00259455
0.00250231
0.00247093
0.00247837
0.00250979
0.00255331
0.0025911
0.00259102
0.00251095
0.00234169
0.00209444
0.001324
0.00261336
0.00673432
0.00984423
0.0108892
0.0106567
0.00986994
0.00887102
0.00818005
0.00794206
0.0079684
0.00795683
0.00789842
0.00783798
0.00774845
0.0075638
0.00721546
0.00666277
0.00592021
0.00506359
0.00421218
0.00348261
0.00293707
0.00257153
0.00234803
0.00222741
0.00217996
0.00218474
0.00222767
0.00229977
0.00239509
0.00250788
0.00262774
0.00273429
0.00280753
0.00278632
0.0027958
0.00263847
0.0013426
0.00276927
0.00284962
0.00292284
0.00328836
0.00291618
0.00241565
0.00207882
0.00185433
0.00166461
0.00150952
0.00139719
0.00132488
0.00127748
0.00124236
0.00120993
0.00117314
0.0011272
0.0010701
0.0010039
0.000935079
0.000872091
0.000821758
0.000786946
0.000766973
0.000759684
0.000763244
0.000776749
0.000799959
0.000832833
0.000875202
0.000926719
0.00098707
0.00105625
0.00113451
0.00122147
0.00133136
0.00136531
0.00133181
0.0012417
0.00115048
)
;

boundaryField
{
    floor
    {
        type            compressible::alphatWallFunction;
        Prt             0.85;
        value           nonuniform List<scalar> 
36
(
0.000192349
0.000100772
0.000118502
0.000138816
0.000150545
0.000150304
0.000141086
0.00013065
0.000121295
0.000113198
0.000106184
0.000100085
9.47315e-05
8.99661e-05
8.56339e-05
8.14896e-05
7.71979e-05
7.28021e-05
6.54076e-05
6.54068e-05
7.48707e-05
8.16496e-05
8.85959e-05
0.000110845
0.000120378
0.000130881
0.000192347
0.00022531
0.000199747
0.000169044
0.000100771
0.000169042
9.72594e-05
0.00018919
0.000123281
0.000203709
)
;
    }
    ceiling
    {
        type            compressible::alphatWallFunction;
        Prt             0.85;
        value           nonuniform List<scalar> 
43
(
0.000375358
0.000385453
0.000394628
0.000440203
0.000393999
0.000330799
0.000287483
0.000258193
0.000233132
0.000212413
0.000197259
0.000187432
0.000180959
0.000176146
0.000171688
0.000166614
0.00016025
0.000152298
0.000143016
0.000133288
0.000124309
0.000117077
0.000112043
0.00010914
0.000108074
0.000108586
0.000110542
0.000113898
0.000118635
0.000124709
0.00013205
0.000140591
0.000150308
0.000161213
0.000173229
0.000188276
0.000192897
0.00018834
0.000176014
0.000163435
0.000482259
0.000568892
0.000355512
)
;
    }
    sWall
    {
        type            compressible::alphatWallFunction;
        Prt             0.85;
        value           uniform 0.000374072;
    }
    nWall
    {
        type            compressible::alphatWallFunction;
        Prt             0.85;
        value           nonuniform List<scalar> 6(0.000130665 0.000135449 0.000159667 0.000186955 0.000189488 0.000163105);
    }
    sideWalls
    {
        type            empty;
    }
    glass1
    {
        type            compressible::alphatWallFunction;
        Prt             0.85;
        value           nonuniform List<scalar> 9(0.000207503 0.000263242 0.000307913 0.000349416 0.000390958 0.000435119 0.000475604 0.00048461 0.000474495);
    }
    glass2
    {
        type            compressible::alphatWallFunction;
        Prt             0.85;
        value           nonuniform List<scalar> 2(0.000243924 0.000227409);
    }
    sun
    {
        type            compressible::alphatWallFunction;
        Prt             0.85;
        value           nonuniform List<scalar> 
14
(
0.000213008
0.000234493
0.000243294
0.000256121
0.00026866
0.000281829
0.000294339
0.000304319
0.000310106
0.00030993
0.000291463
0.000269488
0.00024425
0.000218527
)
;
    }
    Table_master
    {
        type            compressible::alphatWallFunction;
        Prt             0.85;
        value           nonuniform List<scalar> 9(0.000185896 0.000162011 0.000141832 0.000125281 0.000111766 0.000100688 9.15527e-05 8.41694e-05 7.8951e-05);
    }
    Table_slave
    {
        type            compressible::alphatWallFunction;
        Prt             0.85;
        value           nonuniform List<scalar> 9(0.000211515 0.000193389 0.000179319 0.00016757 0.000157329 0.000147595 0.000137734 0.000127242 0.00011533);
    }
    inlet
    {
        type            fixedValue;
        value           uniform 1.94e-05;
    }
    outlet
    {
        type            zeroGradient;
    }
}


// ************************************************************************* //
