/*--------------------------------*- C++ -*----------------------------------*=========                 |
  \      /  F ield         | OpenFOAM: The Open Source CFD Toolbox
   \    /   O peration     | Website:  https://openfoam.org
    \  /    A nd           | Version:  6
     \/     M anipulation  |
\*---------------------------------------------------------------------------*/
FoamFile
{
    version     2.0;
    format      ascii;
    class       volScalarField;
    location    "170";
    object      PMV;
}
// * * * * * * * * * * * * * * * * * * * * * * * * * * * * * * * * * * * * * //

dimensions      [0 0 0 0 0 0 0];

internalField   nonuniform List<scalar> 
458
(
1.23434424455331
0.9807340263370544
0.9423380821929875
0.9145931575433519
0.9015900953201202
0.903505634109676
0.9217295574020642
0.9594986120723762
1.02134228876517
1.103181962730342
1.1807736534687374
1.1734352966531438
1.1493371667748358
1.1568999237865436
1.167435579927966
1.4743672793512577
1.4504740637874167
1.4370924160445724
1.444261281918862
1.4552529758801191
1.4550816617478628
1.4432956364366787
1.442587922708697
1.4467462857555422
1.4530280315022435
1.4604622411660504
1.4686308174477671
1.47844568488934
1.4910576881674091
1.5091976947902472
1.5365622110779031
1.57626635853314
1.6095297471754222
1.1549294332527031
0.9963931447876329
0.979967787826445
0.9536658348220602
0.9415756729865169
0.9422712554521404
0.9528723719945523
0.9705800042137476
0.9990902233000347
1.046776420424132
1.1315764316706902
1.1848519801533257
1.1850817190105096
1.1566757225856912
1.1197000576409721
1.1069887292693072
1.1430099433634786
1.2008167754373926
1.4682791352041233
1.4222758598704335
1.413672155777766
1.4101139312990059
1.413363942927584
1.420763453312077
1.4275992356392695
1.435919131767062
1.4434211877166163
1.4515189935043273
1.4598144218190117
1.4693421019941273
1.4791635722024445
1.4916006902069052
1.5092808765464247
1.5385964137343004
1.5697373676682924
1.5898328060851832
1.170735084764499
0.9906118985537945
1.0191194111931279
1.0103713330362325
1.0076311826321735
1.0084920496987697
1.0016519707443259
0.9763952584393181
0.9574058599032343
0.9823425300787559
1.0676565860386167
1.153087895485319
1.2012688003307357
1.1963045161935861
1.1647319162297267
1.1570659288381173
1.1685163628690858
1.1817861232408786
1.3541189984555442
1.3447667918009416
1.33452470222148
1.3527623819064436
1.3790689881039833
1.3900894549504341
1.4228945749485105
1.4511056555115367
1.4693050689932554
1.4831215129991095
1.4969745881282897
1.5102005112063916
1.5226207439528734
1.530934163294973
1.5408810673121642
1.5615903258899688
1.561455438293172
1.5306236634568195
1.2337774527570002
0.9865400935537759
1.0501286022896155
1.0763624798781923
1.1022641386032745
1.1103482512058218
1.067638747280476
0.9801484945030903
0.917403438391248
0.9347060004953838
1.0240477609161338
1.1301517581004255
1.2132814108896737
1.2421213011631342
1.2202790533274817
1.1936821438125087
1.1611074805012211
1.132229828022264
1.1107410491390077
1.1754063035757472
1.231599687379296
1.289257899816341
1.35467773764425
1.4199358350663451
1.4714582289200693
1.4864497578403093
1.4997805163515092
1.5173007628243704
1.537621840664077
1.5596106142202126
1.5838556314628454
1.6124470258496113
1.6506410796593642
1.6367366127646177
1.6080426397454513
1.56121890884233
1.499067473638216
1.3196555099466099
0.9978510883436706
1.0748725599360143
1.1396671233634343
1.2249401397830624
1.2482052880474814
1.120611384051011
0.9738664809432812
0.8836282242110656
0.90068746733554
0.9993182887202863
1.1286927704215068
1.240419714829688
1.3008170318844225
1.291750758545907
1.2557378294977115
1.2146019802608585
1.1867929482907105
1.198480771598593
1.2332823461466844
1.2917154879904684
1.3657503253100247
1.4446503369724963
1.5192432461541345
1.581061870395144
1.6156113807374106
1.6400161380526697
1.6632075910384665
1.6822950902860454
1.6964327802098746
1.7074425318748592
1.7150380445216722
1.7164091300860722
1.6886801423647426
1.6393582143520573
1.565175694972241
1.5477772009834958
1.633441245229456
1.757260752628323
1.6396431500620265
1.4128605971948176
1.0310117585666858
1.1165119507520491
1.1908659900961898
1.2984440971150646
1.2937565058168707
1.1138490520204616
0.9496025877239072
0.8548040660923413
0.8772660975666012
0.9965251058808761
1.1559229168141594
1.2997188484750848
1.3797316241941127
1.3802096993273851
1.36396568263209
1.3233333038644006
1.3043346192262062
1.3248167228373744
1.3720509374977545
1.4403613329814284
1.5183801071076535
1.5966067798713415
1.6620284008301092
1.7011473112079472
1.729761247467086
1.7516927325403857
1.7664696487601674
1.7764784040388029
1.7817206206844838
1.7817206206844838
1.7764784040388029
1.7640864421250462
1.7357532415369474
1.6788702759436822
1.5975559549797047
1.576018845649164
1.610349906022256
1.6562933182616382
1.6783274511551523
1.508711457439592
1.1225567274738468
1.2554427241993178
1.2796205664296034
1.3259213060997317
1.227154092813661
1.062502953580696
0.8933090271122852
0.8105406448865103
0.8643966538593939
1.0246469102680875
1.2278435577531448
1.4110027626299264
1.460509625602964
1.4633768205542612
1.451429856764338
1.4456950203368657
1.459076009929389
1.4992125273029249
1.5560545071647447
1.6166900582412362
1.6749106393156963
1.7254696996539314
1.7655163738810584
1.7955394495431072
1.81602516447758
1.8298381397946006
1.837934257612384
1.8422200896885137
1.8422200896885137
1.8365055931632728
1.8260279076595434
1.8093559671409745
1.7831502600854061
1.736972232798733
1.660410073285639
1.6195556010214507
1.6131952194437054
1.603240968073804
1.696897135964274
1.6473620130891944
1.4875909674548462
1.442557602491559
1.3474380168208049
1.3028005507090799
1.163490416258076
0.9490617178669837
0.7779153805263871
0.7459793499491308
0.879789312315789
1.1131280626533515
1.3776250287230751
1.5254868028896909
1.5636953751070441
1.5651265801219014
1.5608301005401957
1.5670367096860376
1.5932981455153095
1.6419863237576124
1.7006703413365443
1.7521694454853363
1.7974453149121898
1.8326956906866583
1.858884881819185
1.8764978126365732
1.8879200774059293
1.8936305043361514
1.896009708372924
1.8945821959113247
1.8898236057443938
1.8807813805997469
1.8679298993395952
1.851267155498898
1.8265041969033913
1.7974453149121898
1.7674229132501837
1.747414654583853
1.7231296444055344
1.6673732845308777
1.6037936525949874
1.8579792515417253
1.7282171749264819
1.584641202746614
1.4647003141953152
1.2884224961587407
0.9372114163096694
0.6511645131419246
0.564136416917297
0.6950074920573406
0.9973410199992088
1.3375077481531779
1.5741994490993343
1.6507085438743676
1.6543312134582253
1.6572102438657055
1.6693371258124992
1.6961141368307215
1.73718984765991
1.7855891300106304
1.8281889654970362
1.8582864895913394
1.878314748431133
1.8905942834180884
1.8977047751130487
1.9009016997322503
1.9010432238368795
1.8979613479099613
1.8913895527187927
1.881193722271414
1.8677132316701923
1.851532262836577
1.8330097637243037
1.8134096281153353
1.7921310474576606
1.7706591508810625
1.7544433197684788
1.7472268447848571
1.7474024840080344
1.7401884994951817
1.7226118663365058
-2.066942397343021
-1.506846694254933
-1.233844328414804
-0.7733106025320465
-0.20571722968384015
0.381693230502092
0.948473434195634
1.421319912165018
1.6101596560091724
1.674000326325045
1.701875963935926
1.7167503873403758
1.73164928702103
1.7523270818129277
1.7802921929493698
1.8139435951241225
1.8486984899214753
1.8784090303797738
1.899367727927559
1.91201006524921
1.9180075715574156
1.9186825308704467
1.915501165735177
1.9096853713671502
1.901438428900408
1.891593701468888
1.8805846392915595
1.8693663310861837
1.857877729368745
1.846991515168683
1.837365571460169
1.8302524772719584
1.8258110235429272
1.8269576512710468
1.8413385001194496
1.8841454187223172
1.972691686405737
1.8854506283138315
-1.9940270918267808
-0.923805786105989
-0.090680468526377
0.6046357579756914
1.0549339042062076
1.3238766322176665
1.5172113760513763
1.6531629708023685
1.7243556750193667
1.7620388274892953
1.7859075855941997
1.8055772990163574
1.8248956125654476
1.8463406602697565
1.8707774007770168
1.895379782837807
1.9182571460333877
1.9357483366573822
1.9470075478787963
1.951880808564113
1.9517295784921254
1.948300134403714
1.942678722777895
1.9358385791424204
1.928226157024759
1.9203164586920158
1.9116393816109198
1.9037893303947504
1.896555502139279
1.8915002814717485
1.8893623431677962
1.8921085249376077
1.8979455744025022
1.9064273119201878
1.9192191728829409
1.9644292341985223
1.9220041973255768
1.9109392674713452
-0.9131114045086698
-0.924319015774234
-0.8084209419345408
0.21673991064203646
0.987922089585909
1.42886317524954
1.6239893315794973
1.7225129018044911
1.7851425845764757
1.8277394071145914
1.8579102649246921
1.87998455578469
1.898331814180001
1.91460092456175
1.9296509668844732
1.9442891163617901
1.95864767868539
1.972156730904892
1.9831031091094122
1.9913055576001522
1.9961991059662183
1.9978746892919712
1.9975297527557938
1.995343550734543
1.9923878661264063
1.9881064265613206
1.982822981575837
1.9763123526438813
1.9694582714688655
1.961561901429251
1.9550383375455278
1.9518015644129652
1.9548816273086975
1.968197236440845
1.9806522544179335
1.9729395326769958
1.9452717933720116
1.9292572017520604
1.9044604821362565
1.9122502112174666
)
;

boundaryField
{
    ".*"
    {
        type            zeroGradient;
    }
}


// ************************************************************************* //
