/*--------------------------------*- C++ -*----------------------------------*=========                 |
  \      /  F ield         | OpenFOAM: The Open Source CFD Toolbox
   \    /   O peration     | Website:  https://openfoam.org
    \  /    A nd           | Version:  6
     \/     M anipulation  |
\*---------------------------------------------------------------------------*/
FoamFile
{
    version     2.0;
    format      ascii;
    class       volScalarField;
    location    "170";
    object      PPD;
}
// * * * * * * * * * * * * * * * * * * * * * * * * * * * * * * * * * * * * * //

dimensions      [0 0 0 0 0 0 0];

internalField   nonuniform List<scalar> 
458
(
36.93807595139235
25.313443405899562
23.75398336721453
22.663362084591355
22.162868863983107
22.236168955100908
22.940943533959242
24.443838018097395
27.024487496057844
30.65646059981016
34.30942897670887
33.955836953548214
32.80629984346501
33.16511787757891
33.66795935316962
49.50270821690164
48.21182661904815
47.49133148870833
47.87707686570721
48.46958845622761
48.46034429288729
47.82508396959389
47.78698523437771
48.010922095706285
48.349552370002364
48.75081754637038
49.19231532241536
49.72354892613221
50.407260281095354
51.392438689064505
52.88146599443449
55.044500616816386
56.85505982483489
33.07145413840858
25.965838072764825
25.281761593790677
24.208059862010884
23.723604065910294
23.751319638051896
24.176088941020538
24.895444263974127
26.079149293381036
28.127533849108744
31.970787029648122
34.50663786830779
34.51776170903749
33.154454752433566
31.417797748182338
30.831106569584577
32.50749122094416
35.28333859630024
49.17329528668019
46.69597181359966
46.23538244023827
46.045184560336175
46.21890074687252
46.61493722581402
46.98142682503438
47.428253940164915
47.83184340926587
48.26816770568763
48.71583007953867
49.230786990195796
49.76243514301401
50.4367218728049
51.396960402639
52.992249350880584
54.68881113550714
55.78334232597272
33.82613985555851
25.72388581365199
26.929218541813412
26.556081793755723
26.439794788107392
26.47629799368312
26.187030482559322
25.134346467611422
24.359089301357557
25.380024074481724
29.050632443336767
32.98402993580662
35.30543793932084
35.063059162191934
33.538592723217135
33.173014175489584
33.71973613817393
34.35834097910049
43.07740095326602
42.58693449653152
42.05170919529247
43.00615395837505
44.39352654708059
44.97816716021164
46.72913089334695
48.24587979312574
49.22878385724919
49.97689726021215
50.72839421988924
51.44695346950039
52.122508877933996
52.57501300862999
53.116682773436615
54.2449232714587
54.23757378790694
52.55810844607947
36.90984562462604
25.554241958453062
28.274676020659797
29.440096685118263
30.61442623039528
30.985639740214324
29.04983716056182
25.289231269127697
22.772427915566666
23.45091217642981
27.140687543361267
31.904207391652506
35.89486709372359
37.32629275957816
36.24009673249166
34.9353116902185
33.36552203550026
32.00134446292388
31.00373263607389
34.05064850378386
36.80145734343582
39.712143572375965
43.10675470028945
46.57060592932426
49.34526867589805
50.15732796746946
50.88075823887657
51.83306777392877
52.939172631168404
54.13705669345802
55.457869653803456
57.013650497120096
59.08508190972061
58.33218622507046
56.77420108186934
54.22468624464625
50.84203509194067
41.27840072446326
26.02705572930992
29.37325486753022
32.35013931741311
36.47080407671926
37.63110342069669
31.460066663411652
25.030298306053098
21.482804168272835
22.128380468431786
26.088743574172284
31.836092721340066
37.24121580903413
40.30532887691204
39.83981344108558
38.00981247897116
35.95991303037236
34.60066785161305
35.16922605041184
36.88519278076791
39.83800609019962
43.689617832823316
47.89802746288357
51.938738500307274
55.30571320204375
57.18562401041978
58.509905362194665
59.76406382881578
60.79226080025724
61.55103996613707
62.14009653075291
62.545462557657515
62.61854360266743
61.13526506049515
58.47425876068296
54.440274300681146
53.49233556799108
58.15352758961229
64.7815890019797
58.48969711823916
46.19198706566411
27.441038334147564
31.270144341898714
34.798347967058945
40.183309441581926
39.94263974428067
31.14707435513695
24.044601222532975
20.41913861781822
21.245087053275427
25.971375667373962
33.11866241548019
40.24884318404948
44.42862482348643
44.453951771765965
43.595527115906314
41.46925248417678
40.48643840909654
41.546310753613675
44.0222408997607
47.66715590640079
51.89178201545122
56.1520789425446
59.700415769073075
61.80348925624813
63.32867921104682
64.48852853982619
65.2649488335462
65.78833455433404
66.06161949543343
66.06161949543343
65.78833455433404
65.14002051017717
63.64640931700087
60.60807665258589
56.203734485436456
55.031017498081184
56.89964995795801
59.39066332707601
60.57887123469331
51.36600777942136
31.550386920594363
37.994948362388634
39.21993481140866
41.603719225709874
36.58059542314697
28.82134421914367
21.8477004411761
18.85297763989155
20.769316945341174
27.166457754438454
36.614813692631294
46.09267914364236
48.75337684232658
48.908276547809386
48.26336114877926
47.954291657181535
48.675954704555444
50.849912268845664
53.94330013812632
57.24423484738592
60.39495969838398
63.10074616851678
65.21499169257248
66.77910913358312
67.83455168537492
68.54032173138974
68.95166945718162
69.16870829128705
69.16870829128705
68.87920949882857
68.34613072058819
67.49206402122371
66.13604543554109
63.71097182903093
59.6130422044949
57.39990514310751
57.05431734751246
56.51305066859028
61.575918270448916
58.90767224561511
50.2192132187645
47.78535311192664
42.72685713065174
40.407420337068004
33.479264051773
24.0228918338737
17.751415191105806
16.71698470405059
21.33916679383853
31.113793402011595
44.317068239320776
52.27848444660993
54.35961859146193
54.43759827568604
54.203501630296024
54.54167089780877
55.9719939095926
58.6166305929283
61.77796278765167
64.51364243383476
66.87772303286354
68.68570797330118
70.00776622181064
70.88580171766853
71.45018502703942
71.73080657500809
71.84741789426991
71.77747341947754
71.54384323702214
71.09793044374105
70.45983039415962
69.62519427003446
68.37042586280401
66.87772303286354
65.31488695801772
64.26296267590541
62.97633393720759
59.988797918347515
56.54311483074503
69.96237166231747
63.24670538286919
55.50065109907089
48.97980341008469
39.66939106831983
23.550147573777892
13.904164162888947
11.664924596517722
15.156604837608299
26.00562926024064
42.207384811993585
54.93190423504887
59.08873098571828
59.28461771612724
59.440207886448924
60.094681832036905
61.53396666653376
63.72249483613378
66.26290749857826
68.45631712070562
69.97777457713136
70.97584798151316
71.58172980068426
71.93038649554391
72.0866130922181
72.09352136571253
71.94293689126023
71.62080550131745
71.11832038632872
70.44902972293374
69.63853612120471
68.70167414003154
67.70036565256831
66.60254148893117
65.48428296642342
64.63337386776675
64.25305241889893
64.26232048455469
63.88119293707647
62.948793621663725
79.68200078728974
51.264653836781015
36.91317606794739
17.599577723886043
5.877656867424037
8.033898513867285
23.99929244897794
46.64474883735999
56.88930679556154
60.345939283408704
61.842479178831226
62.63672866568945
63.428859785872774
64.52194598639926
65.98721212946796
67.72777384765314
69.49582025247186
70.98051777630687
72.011692785989
72.62684170077956
72.91680024411872
72.94935575016387
72.79577235654541
72.51412493933218
72.1128092049176
71.63083313973385
71.08819990089185
70.5313996852043
69.95728140169528
69.40974380600201
68.92283306332382
68.56141574747626
68.33506567658351
68.39355072685251
69.12410472138588
71.26412513882748
75.50187232235105
71.32851188169656
76.48003967745511
23.02208580099378
5.170281520683972
12.666099404479198
28.486309618658368
41.49747117638528
51.8282055209139
59.22146094113718
63.0415285864241
65.03259279757492
66.2794628143682
67.29753146797549
68.2883495769809
69.37690214292273
70.60164520277654
71.81656123261021
72.92883985208749
73.76725985004417
74.30123490950085
74.530927641455
74.5238127621995
74.36224337353008
74.09647774756384
73.77155770878863
73.40799963076873
73.02810100932385
72.60888060811318
72.22743835253448
71.87414304887076
71.62624458205636
71.52115852616615
71.65611499572321
71.94216538323347
72.35584886345632
72.97522866008903
75.11833339778059
73.10934353796492
72.5749447249361
22.605983949588193
23.042170255641068
18.78003979423964
5.974421824139569
25.6117489845321
47.049254420689834
57.64067282887821
62.94352926610218
66.2396894833979
68.4334054210542
69.95891274732261
71.05851324348458
71.96105468250909
72.75225000832927
73.47620144863404
74.1727300487718
74.8484216343093
75.47711879081635
75.9814314353856
76.35626116985992
76.57861343397437
76.65452833810461
76.63890965905311
76.53980779511372
76.40552110520625
76.21038511314563
75.9685836628868
75.66911911919652
75.35208837755019
74.98462883165398
74.67928645604194
74.52719956876459
74.67193199780351
75.29356432725012
75.86892152456825
75.51333697727588
74.21921380823025
73.45736007207128
72.26013016099523
72.63847526215338
)
;

boundaryField
{
    ".*"
    {
        type            zeroGradient;
    }
}


// ************************************************************************* //
