/*--------------------------------*- C++ -*----------------------------------*\
  =========                 |
  \\      /  F ield         | OpenFOAM: The Open Source CFD Toolbox
   \\    /   O peration     | Website:  https://openfoam.org
    \\  /    A nd           | Version:  6
     \\/     M anipulation  |
\*---------------------------------------------------------------------------*/
FoamFile
{
    version     2.0;
    format      ascii;
    class       volScalarField;
    location    "340";
    object      k;
}
// * * * * * * * * * * * * * * * * * * * * * * * * * * * * * * * * * * * * * //

dimensions      [0 2 -2 0 0 0 0];

internalField   nonuniform List<scalar> 
458
(
0.00266355
0.00318742
0.00336938
0.00371968
0.00406733
0.00442681
0.00482873
0.00519648
0.0054772
0.00559836
0.00548664
0.00502549
0.0039028
0.00280262
0.00202521
0.000561819
0.00077366
0.00100215
0.00109764
0.00106275
0.000933355
0.00080144
0.00069175
0.000602904
0.000530437
0.000470777
0.000421383
0.000379678
0.000343394
0.000310488
0.000278889
0.000258573
0.00021718
0.00469353
0.00855783
0.00495792
0.00525605
0.00572738
0.00632964
0.00703413
0.00783905
0.00857116
0.00901414
0.00901374
0.0085471
0.00731112
0.00595384
0.00416371
0.00313876
0.0023556
0.00165596
0.000540199
0.00116341
0.00158752
0.00179614
0.0018139
0.00154778
0.00126132
0.00103226
0.000857488
0.000723001
0.000617992
0.000533461
0.000463109
0.000403365
0.000360085
0.000335253
0.000596136
0.000356926
0.00678939
0.015017
0.00574118
0.00555332
0.00585902
0.00638115
0.0070907
0.00793388
0.00869285
0.00921353
0.00938927
0.00913942
0.00822665
0.00699443
0.00560652
0.00440134
0.00355217
0.00208186
0.00110055
0.00157711
0.00189222
0.00209645
0.00210174
0.00163398
0.00124246
0.00095956
0.000758633
0.000614638
0.000509686
0.000432262
0.000375037
0.000334574
0.000312279
0.000320818
0.00093606
0.00048866
0.00913459
0.023912
0.0067429
0.00545962
0.0055582
0.00603065
0.00683506
0.00777094
0.00853416
0.00911245
0.00942808
0.00924892
0.00840508
0.00719627
0.00596147
0.00486919
0.00398224
0.00298646
0.00250784
0.00257647
0.00262588
0.00272054
0.00273659
0.0025962
0.00205344
0.00171688
0.00150123
0.00134624
0.00121712
0.0011003
0.000992666
0.000884385
0.000765989
0.000568713
0.000460087
0.00139897
0.000629301
0.0118599
0.0359793
0.00923206
0.00544523
0.0052373
0.00578968
0.00702781
0.00813112
0.00887266
0.0094632
0.00980714
0.00953356
0.00851769
0.00711999
0.00583797
0.00486477
0.00412956
0.00363131
0.00380216
0.00374301
0.00369823
0.00362248
0.00343091
0.00312013
0.0027638
0.0025156
0.00235767
0.00222431
0.00207676
0.0018907
0.00166967
0.00142701
0.00117512
0.000902916
0.000685181
0.00108927
0.00125891
0.0011205
0.00123972
0.00144872
0.0151628
0.0491319
0.0157077
0.00653503
0.00543469
0.00599606
0.00814349
0.00917174
0.00978553
0.0102955
0.0105444
0.010107
0.00877665
0.00701658
0.00551576
0.00458262
0.00415914
0.00412258
0.00440363
0.00459283
0.00456203
0.004309
0.00389897
0.0034292
0.0030419
0.00282877
0.00271344
0.00261041
0.00247863
0.00229547
0.00204569
0.00176333
0.00147027
0.0011798
0.000955846
0.000988255
0.00118621
0.00123402
0.00187589
0.00156524
0.0188065
0.0576973
0.0276547
0.0127218
0.00909245
0.00958315
0.0105913
0.0109519
0.0112278
0.0115434
0.0116241
0.0109119
0.00914291
0.00693275
0.00521304
0.00438877
0.0042945
0.00458677
0.00497681
0.0051162
0.00491177
0.00446481
0.00391561
0.00339792
0.00303889
0.00287686
0.00281878
0.00278339
0.00273622
0.00265643
0.00250009
0.00226191
0.00198735
0.00170381
0.00149289
0.00143145
0.00158256
0.00191126
0.00258142
0.00226282
0.0197836
0.0589936
0.0394349
0.0269828
0.0199425
0.0166492
0.0145367
0.0134889
0.0131533
0.0131532
0.0129502
0.0117865
0.00936764
0.00664808
0.00493444
0.00444374
0.00453328
0.00484311
0.00507838
0.00499613
0.0045997
0.00404924
0.00350735
0.00308868
0.00284787
0.00276347
0.00277002
0.00282517
0.00291653
0.00304259
0.00319754
0.00330139
0.00331276
0.00334227
0.00351921
0.00423394
0.00583399
0.00818885
0.015892
0.00536045
0.0190348
0.0277584
0.0258872
0.0228785
0.0198134
0.0174522
0.0160089
0.0153295
0.0150385
0.0148695
0.0142564
0.0122641
0.00873294
0.00593559
0.0047983
0.00451825
0.00456633
0.00466437
0.004614
0.0043308
0.00387486
0.00338159
0.00297066
0.00270007
0.00256659
0.00253279
0.00256288
0.00264158
0.00276879
0.00294952
0.00318819
0.00348405
0.0038567
0.00435919
0.00501709
0.0057823
0.0064677
0.00685851
0.00701042
0.00452416
0.00858431
0.0129565
0.0157439
0.0173444
0.0180812
0.0178201
0.0169688
0.0160162
0.0142817
0.0104438
0.00715559
0.00541728
0.00471901
0.00448468
0.00440912
0.00432817
0.0041448
0.00383894
0.00347079
0.00312401
0.00285948
0.0026853
0.00258133
0.00252511
0.00250406
0.00251799
0.00257674
0.00269795
0.00290635
0.00321754
0.0036281
0.00413555
0.00470124
0.00520059
0.00542022
0.005189
0.00449107
0.00292393
0.00924673
0.0232183
0.0253946
0.0247644
0.0220276
0.0175118
0.0131615
0.0100804
0.00772249
0.00612914
0.00528532
0.00486826
0.00468736
0.00460985
0.0045459
0.00443674
0.00425469
0.00400974
0.00373287
0.00347233
0.00325825
0.00308888
0.00295691
0.00285994
0.00280186
0.00279014
0.00283292
0.0029369
0.00312615
0.00341511
0.00381196
0.00431237
0.00487988
0.00544901
0.00580854
0.00607241
0.00468219
0.00300147
0.0101235
0.0105565
0.0109854
0.0137643
0.0112806
0.00777723
0.00521144
0.00418791
0.00346612
0.0029923
0.00266905
0.00239585
0.00219582
0.0020661
0.0019781
0.00190307
0.00182147
0.00172504
0.00161941
0.00152157
0.00144949
0.00140319
0.00137797
0.00137153
0.00138227
0.00141016
0.00145649
0.00152389
0.00161694
0.00174381
0.00190293
0.00209923
0.00233654
0.00262011
0.00295352
0.00340851
0.00358638
0.00343339
0.00297682
0.00253604
)
;

boundaryField
{
    floor
    {
        type            kqRWallFunction;
        value           nonuniform List<scalar> 
36
(
0.00202521
0.000561819
0.00077366
0.00100215
0.00109764
0.00106275
0.000933355
0.00080144
0.00069175
0.000602904
0.000530437
0.000470777
0.000421383
0.000379678
0.000343394
0.000310488
0.000278889
0.000258573
0.00021718
0.00021718
0.000356926
0.00048866
0.000629301
0.0011205
0.00123972
0.00144872
0.00202521
0.00313876
0.0023556
0.00165596
0.000561819
0.00165596
0.000540199
0.00208186
0.00110055
0.00250784
)
;
    }
    ceiling
    {
        type            kqRWallFunction;
        value           nonuniform List<scalar> 
43
(
0.0101235
0.0105565
0.0109854
0.0137643
0.0112806
0.00777723
0.00521144
0.00418791
0.00346612
0.0029923
0.00266905
0.00239585
0.00219582
0.0020661
0.0019781
0.00190307
0.00182147
0.00172504
0.00161941
0.00152157
0.00144949
0.00140319
0.00137797
0.00137153
0.00138227
0.00141016
0.00145649
0.00152389
0.00161694
0.00174381
0.00190293
0.00209923
0.00233654
0.00262011
0.00295352
0.00340851
0.00358638
0.00343339
0.00297682
0.00253604
0.0190348
0.0277584
0.00924673
)
;
    }
    sWall
    {
        type            kqRWallFunction;
        value           uniform 0.0101235;
    }
    nWall
    {
        type            kqRWallFunction;
        value           nonuniform List<scalar> 6(0.00144872 0.00156524 0.00226282 0.00292393 0.00300147 0.00253604);
    }
    sideWalls
    {
        type            empty;
    }
    glass1
    {
        type            kqRWallFunction;
        value           nonuniform List<scalar> 9(0.00266355 0.00469353 0.00678939 0.00913459 0.0118599 0.0151628 0.0188065 0.0197836 0.0190348);
    }
    glass2
    {
        type            kqRWallFunction;
        value           nonuniform List<scalar> 2(0.00536045 0.00452416);
    }
    sun
    {
        type            kqRWallFunction;
        value           nonuniform List<scalar> 
14
(
0.00266355
0.00318742
0.00336938
0.00371968
0.00406733
0.00442681
0.00482873
0.00519648
0.0054772
0.00559836
0.00548664
0.00502549
0.0039028
0.00280262
)
;
    }
    Table_master
    {
        type            kqRWallFunction;
        value           nonuniform List<scalar> 9(0.00163398 0.00124246 0.00095956 0.000758633 0.000614638 0.000509686 0.000432262 0.000375037 0.000334574);
    }
    Table_slave
    {
        type            kqRWallFunction;
        value           nonuniform List<scalar> 9(0.00205344 0.00171688 0.00150123 0.00134624 0.00121712 0.0011003 0.000992666 0.000884385 0.000765989);
    }
    inlet
    {
        type            turbulentIntensityKineticEnergyInlet;
        intensity       0.05;
        value           uniform 0.0009375;
    }
    outlet
    {
        type            zeroGradient;
    }
}


// ************************************************************************* //
