/*--------------------------------*- C++ -*----------------------------------*\
  =========                 |
  \\      /  F ield         | OpenFOAM: The Open Source CFD Toolbox
   \\    /   O peration     | Website:  https://openfoam.org
    \\  /    A nd           | Version:  6
     \\/     M anipulation  |
\*---------------------------------------------------------------------------*/
FoamFile
{
    version     2.0;
    format      ascii;
    class       volScalarField;
    location    "1820";
    object      alphat;
}
// * * * * * * * * * * * * * * * * * * * * * * * * * * * * * * * * * * * * * //

dimensions      [1 -1 -1 0 0 0 0];

internalField   nonuniform List<scalar> 
458
(
0.0012441
0.00135522
0.00138591
0.00145223
0.00151332
0.00157116
0.00162902
0.00168777
0.00173581
0.00176602
0.00176947
0.00173736
0.00165865
0.001492
0.00113178
0.000559106
0.000655482
0.00074317
0.000774883
0.000762739
0.000713757
0.000659567
0.000611079
0.000569077
0.000532596
0.000500741
0.000472865
0.000448146
0.000425633
0.000404279
0.000382836
0.000370091
0.000340108
0.00167643
0.00377447
0.00348167
0.00398932
0.00449543
0.00501606
0.00548327
0.00584462
0.00621594
0.00656368
0.00684271
0.00701221
0.00702801
0.00678325
0.00551269
0.00149404
0.00123947
0.0010112
0.000554588
0.00131632
0.00191862
0.00238479
0.0025322
0.0018454
0.00155787
0.00136223
0.00121785
0.00110722
0.00101944
0.000943755
0.000872618
0.000801606
0.000738172
0.000684992
0.000837897
0.000447112
0.00203693
0.00507245
0.0041865
0.00510446
0.00549013
0.005761
0.00596922
0.00616152
0.00642941
0.00675526
0.00711143
0.00746032
0.00773556
0.00783165
0.0073792
0.00601391
0.00455772
0.00119431
0.000854299
0.00147429
0.00214537
0.0028128
0.00300335
0.000959316
0.000839866
0.000740476
0.000659975
0.000595013
0.000542368
0.000499574
0.000464968
0.000438049
0.000485439
0.000562192
0.000983097
0.000528387
0.00238376
0.00647815
0.00407216
0.00528781
0.00549875
0.00547764
0.00545809
0.00555031
0.00576835
0.00609105
0.00650105
0.00695798
0.0073577
0.00760869
0.0075515
0.00716063
0.00614556
0.00337381
0.00137584
0.00175206
0.0024086
0.00321246
0.00390914
0.00394324
0.00108044
0.000990342
0.000928975
0.00088368
0.00084538
0.000807322
0.000771183
0.000733001
0.000688375
0.000648451
0.000639028
0.00117168
0.000608554
0.00273781
0.00836884
0.00427101
0.0050192
0.00532066
0.00514038
0.0049937
0.00507737
0.00530774
0.00564386
0.00608621
0.00658741
0.00697911
0.00717361
0.00716826
0.00703113
0.00662584
0.00547884
0.00496562
0.00500148
0.00529273
0.00563968
0.00585226
0.00575583
0.00491062
0.00447595
0.00423635
0.00406468
0.00389102
0.00366739
0.00328733
0.00279787
0.002241
0.00170473
0.00127865
0.0011913
0.00103423
0.000813327
0.000860759
0.000935588
0.00311664
0.0104977
0.00584862
0.00464678
0.00506418
0.00505341
0.00486616
0.00493543
0.00517065
0.00550725
0.00595619
0.0064369
0.00679948
0.0069148
0.00680433
0.00664686
0.00657609
0.00648154
0.00667644
0.00701451
0.00725144
0.00729331
0.00713315
0.00679852
0.00633157
0.00595223
0.0056568
0.00539647
0.00514097
0.00486982
0.00451964
0.00403956
0.00343238
0.00274551
0.00210982
0.00152987
0.00125749
0.00109687
0.00138115
0.000970514
0.00348935
0.0121021
0.00872442
0.00571028
0.00496899
0.00504025
0.00510383
0.00514058
0.00527443
0.00557176
0.00601381
0.00649035
0.00682266
0.00685885
0.00664942
0.00649808
0.00674749
0.00730056
0.00786336
0.00818073
0.00818098
0.00790824
0.00744644
0.00688472
0.00632526
0.00587511
0.00553429
0.00525798
0.00501628
0.00479932
0.00460195
0.00434387
0.00391947
0.00335244
0.00276335
0.00219739
0.00182801
0.00167462
0.00159619
0.0011531
0.00357895
0.0112154
0.00952688
0.00799806
0.00682822
0.00631003
0.00582353
0.00549394
0.0054902
0.0057744
0.00623171
0.00670231
0.00698158
0.00691641
0.00665976
0.00672357
0.0074362
0.00802084
0.0083251
0.0083107
0.00797993
0.0074082
0.00670489
0.00599578
0.00540673
0.00499391
0.00471551
0.00451559
0.00436769
0.00426798
0.00422371
0.00422575
0.0041127
0.0037757
0.00344716
0.00326414
0.00334401
0.00353
0.00419317
0.00178524
0.00350477
0.00423038
0.0046753
0.00492484
0.00496209
0.00488889
0.00489237
0.00510061
0.00552043
0.00605421
0.00659951
0.0070282
0.00716478
0.00691735
0.00684694
0.00720842
0.00762632
0.00776937
0.0076653
0.00730216
0.00669391
0.00594288
0.00519304
0.00457797
0.00415246
0.00388152
0.00369977
0.00356169
0.00344389
0.00333336
0.00321991
0.00309535
0.00298236
0.00288455
0.00281976
0.0027832
0.00271369
0.00257068
0.00239705
0.00166669
0.00157978
0.00276054
0.00377662
0.00457225
0.00530103
0.00601008
0.0065716
0.00694746
0.00719148
0.00722409
0.00698584
0.00669696
0.00669772
0.00681719
0.00672538
0.00645449
0.00602735
0.00545232
0.00479091
0.00414491
0.00363067
0.00328433
0.00307201
0.00294171
0.00285522
0.00279218
0.00274384
0.00270812
0.00268806
0.00269432
0.00271006
0.00272404
0.00272477
0.00268165
0.00254866
0.00231437
0.00202418
0.00134113
0.00238086
0.00465364
0.0059514
0.006792
0.00744568
0.00749585
0.0071038
0.00670974
0.00637249
0.00573437
0.00528058
0.00517489
0.00510321
0.00490327
0.00460221
0.00422908
0.00379162
0.00333128
0.00291643
0.00259365
0.00237113
0.00224291
0.00218285
0.00216992
0.00219118
0.00223841
0.00230445
0.00238083
0.0024703
0.00257294
0.00268276
0.00279062
0.00287832
0.00292216
0.00288125
0.00284556
0.00261992
0.00135861
0.0024916
0.0025535
0.00260944
0.00289323
0.00272905
0.00241427
0.00203353
0.00172836
0.0015418
0.00136498
0.00120951
0.00108786
0.000984913
0.000906902
0.000852687
0.000813082
0.000781225
0.00075381
0.000731175
0.000715902
0.000710204
0.000714484
0.00072717
0.000745821
0.000769386
0.00079731
0.000829438
0.000865956
0.000907469
0.000955271
0.00100966
0.00107024
0.00113731
0.0012112
0.00129192
0.00138864
0.00143094
0.00140161
0.00130367
0.00120557
)
;

boundaryField
{
    floor
    {
        type            compressible::alphatWallFunction;
        Prt             0.85;
        value           nonuniform List<scalar> 
36
(
0.000160684
7.82011e-05
9.2608e-05
0.000105493
0.000110107
0.000108343
0.000101193
9.32136e-05
8.60058e-05
7.97054e-05
7.41863e-05
6.93287e-05
6.50461e-05
6.12217e-05
5.77153e-05
5.43674e-05
5.09828e-05
4.89597e-05
4.41641e-05
4.41635e-05
6.10618e-05
7.35478e-05
8.56302e-05
0.000115679
0.000122505
0.000133176
0.000160682
0.000210149
0.000175553
0.000143837
7.82001e-05
0.000143836
7.75179e-05
0.000169335
0.000121562
0.000194178
)
;
    }
    ceiling
    {
        type            compressible::alphatWallFunction;
        Prt             0.85;
        value           nonuniform List<scalar> 
43
(
0.000340273
0.000348137
0.000355228
0.000391034
0.000370448
0.000330557
0.000281541
0.000241532
0.000216693
0.000192838
0.00017157
0.000154711
0.000140273
0.000129215
0.000121464
0.000115765
0.000111157
0.000107173
0.000103871
0.000101636
0.0001008
0.000101428
0.000103285
0.000106009
0.000109439
0.000113487
0.000118124
0.000123368
0.000129298
0.000136087
0.000143764
0.000152257
0.000161596
0.000171811
0.00018289
0.000196064
0.000201793
0.000197823
0.000184499
0.000171041
0.000467119
0.000555333
0.000326055
)
;
    }
    sWall
    {
        type            compressible::alphatWallFunction;
        Prt             0.85;
        value           uniform 0.000339031;
    }
    nWall
    {
        type            compressible::alphatWallFunction;
        Prt             0.85;
        value           nonuniform List<scalar> 6(0.000132957 0.000137898 0.000163426 0.000189266 0.000191642 0.0001707);
    }
    sideWalls
    {
        type            empty;
    }
    glass1
    {
        type            compressible::alphatWallFunction;
        Prt             0.85;
        value           nonuniform List<scalar> 9(0.000171656 0.000229164 0.000275988 0.000320286 0.000364869 0.000411952 0.000457739 0.000468807 0.000459996);
    }
    glass2
    {
        type            compressible::alphatWallFunction;
        Prt             0.85;
        value           nonuniform List<scalar> 2(0.000247083 0.00023154);
    }
    sun
    {
        type            compressible::alphatWallFunction;
        Prt             0.85;
        value           nonuniform List<scalar> 
14
(
0.000176207
0.000191376
0.000195544
0.000204517
0.000212741
0.000220494
0.000228219
0.000236031
0.000242398
0.00024639
0.000246845
0.000242601
0.000232162
0.000209874
)
;
    }
    Table_master
    {
        type            compressible::alphatWallFunction;
        Prt             0.85;
        value           nonuniform List<scalar> 9(0.000136673 0.000119637 0.000105242 9.34126e-05 8.37378e-05 7.58019e-05 6.92799e-05 6.39545e-05 5.97773e-05);
    }
    Table_slave
    {
        type            compressible::alphatWallFunction;
        Prt             0.85;
        value           nonuniform List<scalar> 9(0.000153698 0.000141059 0.000132374 0.00012592 0.000120432 0.00011495 0.000109716 0.000104153 9.76073e-05);
    }
    inlet
    {
        type            fixedValue;
        value           uniform 1.94e-05;
    }
    outlet
    {
        type            zeroGradient;
    }
}


// ************************************************************************* //
