/*--------------------------------*- C++ -*----------------------------------*\
  =========                 |
  \\      /  F ield         | OpenFOAM: The Open Source CFD Toolbox
   \\    /   O peration     | Website:  https://openfoam.org
    \\  /    A nd           | Version:  6
     \\/     M anipulation  |
\*---------------------------------------------------------------------------*/
FoamFile
{
    version     2.0;
    format      ascii;
    class       volScalarField;
    location    "1820";
    object      epsilon;
}
// * * * * * * * * * * * * * * * * * * * * * * * * * * * * * * * * * * * * * //

dimensions      [0 2 -3 0 0 0 0];

internalField   nonuniform List<scalar> 
458
(
0.000432812
0.000557919
0.000596606
0.000686395
0.000776679
0.000869151
0.000968724
0.00107731
0.00117188
0.00123403
0.00124116
0.00117477
0.00102226
0.000744154
0.000324963
3.92315e-05
6.32033e-05
9.2106e-05
0.000104414
9.95878e-05
8.16118e-05
6.44026e-05
5.12201e-05
4.13699e-05
3.39145e-05
2.81872e-05
2.37383e-05
2.02078e-05
1.73136e-05
1.4837e-05
1.25999e-05
1.13838e-05
8.83717e-06
0.00106102
0.00158339
0.000518474
0.000502648
0.000518497
0.000550969
0.000606314
0.00068852
0.000779765
0.00085398
0.000882067
0.000847826
0.000756899
0.000624004
0.000502019
0.000747381
0.000426777
0.000231795
3.8293e-05
7.5364e-05
9.27387e-05
9.34224e-05
8.97233e-05
9.00269e-05
7.05541e-05
5.34893e-05
4.08031e-05
3.15342e-05
2.47388e-05
1.9721e-05
1.59662e-05
1.31676e-05
1.14056e-05
1.06884e-05
3.04911e-05
2.00754e-05
0.00190709
0.00384795
0.00060378
0.00045831
0.000466054
0.000508195
0.000580498
0.000683703
0.000797175
0.000884421
0.000918089
0.000887992
0.00080205
0.00066721
0.000517663
0.000416429
0.000353076
0.000381894
0.000139922
0.000139211
0.000125564
0.000111509
0.000103516
0.000198156
0.00013297
9.11292e-05
6.45224e-05
4.72834e-05
3.58109e-05
2.79855e-05
2.25634e-05
1.88673e-05
1.48277e-05
1.31277e-05
6.48776e-05
3.31341e-05
0.00306285
0.0079946
0.000903833
0.000438992
0.000429234
0.000481257
0.00057498
0.000717959
0.000862728
0.000958108
0.00098935
0.000953032
0.000855349
0.000703424
0.000548577
0.000432411
0.000365903
0.000380537
0.000583922
0.000375863
0.000245181
0.000178285
0.000140468
0.000122994
0.000283254
0.000218172
0.000180101
0.000155037
0.000135752
0.000118238
0.000103066
8.85059e-05
7.33065e-05
4.53965e-05
2.92899e-05
0.000114641
5.06237e-05
0.00464968
0.0144278
0.00174039
0.000470874
0.000395634
0.000451613
0.000588914
0.000832861
0.00101856
0.00111187
0.0011284
0.00106927
0.000937512
0.000753781
0.000564908
0.000420098
0.000331685
0.000302702
0.000303825
0.000253605
0.000209381
0.000175118
0.000146297
0.000122069
0.000113062
0.000103812
9.75355e-05
9.21906e-05
8.61949e-05
7.87652e-05
7.08811e-05
6.31532e-05
5.58999e-05
4.6027e-05
3.61886e-05
7.47588e-05
0.000114592
0.00012097
0.000143505
0.000184282
0.00687176
0.0217356
0.00400183
0.000790777
0.000465126
0.000474091
0.000700782
0.00111997
0.0013063
0.00136596
0.00134362
0.00124618
0.00106727
0.000825274
0.000577675
0.000388748
0.000278834
0.000238527
0.00022823
0.000218242
0.000201136
0.000176759
0.000149292
0.00012375
0.000107323
0.000100904
9.97442e-05
9.93408e-05
9.72034e-05
9.1665e-05
8.17105e-05
7.04473e-05
5.98024e-05
5.01439e-05
4.3437e-05
5.55246e-05
8.83482e-05
0.000106129
0.000206707
0.000205618
0.00965918
0.0261945
0.00879605
0.0028009
0.0014544
0.00114112
0.00148328
0.00172681
0.00178613
0.00174923
0.00164986
0.0014835
0.00122998
0.000908146
0.000588259
0.000355912
0.000234503
0.000200211
0.000202372
0.000203019
0.000190039
0.000166857
0.000141339
0.0001202
0.000109066
0.000108549
0.000113662
0.000120153
0.000125728
0.000128178
0.000124097
0.000111086
9.74838e-05
8.59281e-05
8.044e-05
8.87171e-05
0.000120579
0.000176771
0.000327316
0.000344792
0.0104471
0.0300975
0.0160955
0.00965292
0.00597045
0.00418094
0.00338388
0.00287622
0.00253832
0.00228132
0.00203918
0.00176102
0.00139722
0.000968388
0.000561366
0.000300487
0.000190394
0.000174394
0.000179646
0.00017713
0.000162215
0.000141965
0.000124124
0.000113533
0.000112227
0.00011906
0.000131175
0.00014686
0.000165746
0.000187738
0.000212036
0.000232939
0.000246001
0.000273113
0.000329066
0.000480057
0.000820481
0.00137762
0.00411018
0.0012819
0.00984346
0.017256
0.0132405
0.00999026
0.00750813
0.00579404
0.00458979
0.00379091
0.00325122
0.00282377
0.00242688
0.00200638
0.00148381
0.000914066
0.000407052
0.000216097
0.000158891
0.000147546
0.000144472
0.000136947
0.000124612
0.000112495
0.000104973
0.000104107
0.000109949
0.000121519
0.000138067
0.000159897
0.000188368
0.000225725
0.00027504
0.000339931
0.000427243
0.000551964
0.000734059
0.000976787
0.00125104
0.00149865
0.00170332
0.00104491
0.00347934
0.0047207
0.00512319
0.00502808
0.00473279
0.00431949
0.0037831
0.00315781
0.00254749
0.00194816
0.00116385
0.000536615
0.000254574
0.000159702
0.000129175
0.000118204
0.000110936
0.000103122
9.54699e-05
8.99815e-05
8.84527e-05
9.13128e-05
9.81718e-05
0.000108626
0.000122677
0.000140906
0.00016456
0.000195766
0.000237991
0.000297012
0.000378474
0.000488611
0.000629983
0.000786508
0.000911386
0.000944893
0.000871287
0.000544328
0.00289514
0.00862045
0.00828145
0.00717231
0.0060745
0.00478898
0.00347797
0.00225665
0.00128281
0.000710023
0.000375257
0.000215429
0.000151285
0.000124197
0.000111118
0.000102229
9.42367e-05
8.70646e-05
8.17187e-05
7.89402e-05
7.90127e-05
8.20455e-05
8.7998e-05
9.70501e-05
0.000109723
0.000126924
0.000150045
0.000181158
0.000223225
0.000280014
0.000356653
0.000458343
0.000585914
0.000728745
0.000842215
0.000956473
0.000733729
0.000565822
0.00336792
0.00362378
0.00386704
0.00532551
0.00449775
0.00313028
0.00187949
0.00115782
0.000823466
0.000572152
0.00039839
0.000289998
0.000215277
0.000168098
0.000139733
0.000121162
0.000107477
9.65593e-05
8.81225e-05
8.2717e-05
8.07585e-05
8.22278e-05
8.66857e-05
9.35278e-05
0.000102676
0.000114266
0.000128642
0.000146392
0.00016847
0.000196521
0.000232039
0.000276362
0.000331649
0.000400583
0.000486153
0.000603781
0.000660734
0.000620972
0.000499707
0.000395336
)
;

boundaryField
{
    floor
    {
        Cmu             0.09;
        kappa           0.41;
        E               9.8;
        type            epsilonWallFunction;
        value           nonuniform List<scalar> 
36
(
0.000324963
3.92315e-05
6.32033e-05
9.2106e-05
0.000104414
9.95878e-05
8.16118e-05
6.44026e-05
5.12201e-05
4.13699e-05
3.39145e-05
2.81872e-05
2.37383e-05
2.02078e-05
1.73136e-05
1.4837e-05
1.25999e-05
1.13838e-05
8.83717e-06
8.83717e-06
2.00754e-05
3.31341e-05
5.06237e-05
0.00012097
0.000143505
0.000184282
0.000324963
0.000747381
0.000426777
0.000231795
3.92315e-05
0.000231795
3.8293e-05
0.000381894
0.000139922
0.000583922
)
;
    }
    ceiling
    {
        Cmu             0.09;
        kappa           0.41;
        E               9.8;
        type            epsilonWallFunction;
        value           nonuniform List<scalar> 
43
(
0.00336792
0.00362378
0.00386704
0.00532551
0.00449775
0.00313028
0.00187949
0.00115782
0.000823466
0.000572152
0.00039839
0.000289998
0.000215277
0.000168098
0.000139733
0.000121162
0.000107477
9.65593e-05
8.81225e-05
8.2717e-05
8.07585e-05
8.22278e-05
8.66857e-05
9.35278e-05
0.000102676
0.000114266
0.000128642
0.000146392
0.00016847
0.000196521
0.000232039
0.000276362
0.000331649
0.000400583
0.000486153
0.000603781
0.000660734
0.000620972
0.000499707
0.000395336
0.00984346
0.017256
0.00289514
)
;
    }
    sWall
    {
        Cmu             0.09;
        kappa           0.41;
        E               9.8;
        type            epsilonWallFunction;
        value           uniform 0.00336792;
    }
    nWall
    {
        Cmu             0.09;
        kappa           0.41;
        E               9.8;
        type            epsilonWallFunction;
        value           nonuniform List<scalar> 6(0.000184282 0.000205618 0.000344792 0.000544328 0.000565822 0.000395336);
    }
    sideWalls
    {
        type            empty;
    }
    glass1
    {
        Cmu             0.09;
        kappa           0.41;
        E               9.8;
        type            epsilonWallFunction;
        value           nonuniform List<scalar> 9(0.000432812 0.00106102 0.00190709 0.00306285 0.00464968 0.00687176 0.00965918 0.0104471 0.00984346);
    }
    glass2
    {
        Cmu             0.09;
        kappa           0.41;
        E               9.8;
        type            epsilonWallFunction;
        value           nonuniform List<scalar> 2(0.0012819 0.00104491);
    }
    sun
    {
        Cmu             0.09;
        kappa           0.41;
        E               9.8;
        type            epsilonWallFunction;
        value           nonuniform List<scalar> 
14
(
0.000432812
0.000557919
0.000596606
0.000686395
0.000776679
0.000869151
0.000968724
0.00107731
0.00117188
0.00123403
0.00124116
0.00117477
0.00102226
0.000744154
)
;
    }
    Table_master
    {
        Cmu             0.09;
        kappa           0.41;
        E               9.8;
        type            epsilonWallFunction;
        value           nonuniform List<scalar> 9(0.000198156 0.00013297 9.11292e-05 6.45224e-05 4.72834e-05 3.58109e-05 2.79855e-05 2.25634e-05 1.88673e-05);
    }
    Table_slave
    {
        Cmu             0.09;
        kappa           0.41;
        E               9.8;
        type            epsilonWallFunction;
        value           nonuniform List<scalar> 9(0.000283254 0.000218172 0.000180101 0.000155037 0.000135752 0.000118238 0.000103066 8.85059e-05 7.33065e-05);
    }
    inlet
    {
        type            turbulentMixingLengthDissipationRateInlet;
        mixingLength    0.01;
        phi             phi;
        k               k;
        value           uniform 0.000471672;
    }
    outlet
    {
        type            zeroGradient;
    }
}


// ************************************************************************* //
