/*--------------------------------*- C++ -*----------------------------------*\
  =========                 |
  \\      /  F ield         | OpenFOAM: The Open Source CFD Toolbox
   \\    /   O peration     | Website:  https://openfoam.org
    \\  /    A nd           | Version:  6
     \\/     M anipulation  |
\*---------------------------------------------------------------------------*/
FoamFile
{
    version     2.0;
    format      ascii;
    class       volScalarField;
    location    "1820";
    object      k;
}
// * * * * * * * * * * * * * * * * * * * * * * * * * * * * * * * * * * * * * //

dimensions      [0 2 -2 0 0 0 0];

internalField   nonuniform List<scalar> 
458
(
0.00226778
0.00268606
0.00280883
0.00308402
0.00334885
0.00360965
0.00388033
0.00416513
0.00440545
0.00455986
0.00457742
0.0044127
0.00402201
0.00325469
0.00187337
0.000457605
0.000628871
0.000808339
0.000878832
0.000851541
0.00074571
0.000636801
0.000546632
0.000474086
0.000415264
0.000367087
0.000327366
0.000294045
0.000265252
0.000239312
0.000214608
0.000200567
0.000169412
0.00412305
0.00755223
0.00415042
0.00437438
0.00471623
0.00513549
0.00563254
0.00619681
0.00680075
0.00731313
0.00758846
0.00753111
0.00712383
0.00635479
0.00513861
0.00326409
0.00224665
0.00149556
0.000450278
0.000973113
0.00130323
0.00145832
0.00147269
0.00125934
0.00102433
0.000834016
0.000688748
0.000577331
0.00049067
0.000421517
0.0003647
0.000317437
0.000283508
0.000264382
0.000493882
0.000292759
0.00609511
0.0136494
0.00491163
0.00472523
0.00494182
0.00528626
0.00575105
0.00634107
0.00699407
0.00755068
0.00789262
0.00794989
0.00769347
0.00706069
0.00603717
0.00488835
0.00391857
0.00208623
0.00106821
0.00139967
0.00160354
0.00173035
0.00172277
0.00134712
0.00103253
0.000802613
0.000637591
0.000518251
0.000430604
0.000365334
0.000316474
0.000280894
0.00026214
0.000265442
0.000780344
0.00040887
0.00835895
0.0222362
0.00592715
0.00470727
0.00474682
0.00501682
0.00547399
0.00616832
0.00689274
0.00746325
0.00783397
0.00795377
0.00774847
0.00714588
0.00628707
0.00543562
0.00463227
0.00350021
0.00276888
0.00250694
0.00237411
0.00233817
0.00228957
0.00215186
0.00170943
0.00143637
0.00126399
0.00114382
0.00104688
0.000954789
0.000871253
0.000787135
0.000694219
0.000530203
0.000422757
0.00113249
0.00054238
0.0110412
0.0339568
0.00842379
0.00475008
0.00448323
0.00470845
0.00529988
0.0063554
0.00718526
0.00773974
0.00809529
0.00819742
0.00790059
0.00718269
0.00621614
0.00530925
0.00457969
0.0039784
0.00379459
0.00347947
0.00325251
0.00307065
0.00285921
0.00259028
0.0023027
0.00210665
0.00198662
0.00189192
0.00178988
0.00166112
0.00149191
0.00129916
0.00109388
0.000865692
0.000664765
0.000922199
0.00106382
0.000969437
0.00108637
0.00128348
0.0143256
0.0466879
0.0149492
0.00592324
0.0047427
0.00478356
0.00570776
0.00726719
0.00803212
0.00847452
0.00873882
0.00874784
0.0083204
0.00737889
0.00612462
0.00496614
0.00418359
0.00384157
0.00381394
0.003823
0.00373182
0.0035087
0.00318917
0.0028348
0.00254779
0.00239535
0.00232174
0.00226314
0.00218504
0.00206516
0.00187837
0.00164886
0.00140033
0.00114677
0.000935593
0.000900697
0.00103003
0.00105444
0.00165138
0.00138073
0.0179761
0.0550462
0.0270759
0.0123598
0.00830837
0.00741249
0.00850529
0.00921
0.00948615
0.00964581
0.00972989
0.00958371
0.00894725
0.00770937
0.00611016
0.00469878
0.00388681
0.00373581
0.00389816
0.0039826
0.00385348
0.0035503
0.00317089
0.00281184
0.00256741
0.00246855
0.00245169
0.002457
0.00245492
0.00242451
0.002336
0.00214723
0.00191063
0.00165894
0.00145719
0.00136457
0.00145094
0.00168148
0.00223391
0.00194882
0.0189408
0.0568462
0.0383015
0.0271711
0.0197419
0.0158809
0.0137256
0.0122888
0.0115365
0.0112124
0.0110098
0.01061
0.00964657
0.00799484
0.00597422
0.00439236
0.0036772
0.00365518
0.00377968
0.00375004
0.00351672
0.00317
0.00282003
0.0025505
0.00240805
0.00238374
0.00243135
0.00251748
0.00263028
0.00276718
0.00292547
0.00306696
0.00310924
0.00313889
0.00329203
0.00386908
0.00511959
0.00681591
0.0128318
0.00467703
0.018204
0.0264664
0.0243621
0.0217105
0.0188863
0.0164645
0.0146541
0.0135907
0.0130868
0.0127678
0.012357
0.011596
0.0100712
0.00776909
0.00515929
0.0038575
0.00340245
0.00330945
0.0032529
0.00309124
0.00282335
0.0025277
0.00228254
0.00213428
0.00208894
0.00212326
0.0022096
0.00233306
0.00249002
0.00268166
0.00290931
0.00317116
0.00348969
0.00390092
0.00444789
0.00509767
0.00569694
0.00606911
0.00624825
0.00408118
0.00718502
0.011095
0.013543
0.0147734
0.0154373
0.0157079
0.0153774
0.0144518
0.0132126
0.0115857
0.00880999
0.00585888
0.00403621
0.00322543
0.00288132
0.00270024
0.00252794
0.00231816
0.00209088
0.00188811
0.00175205
0.00169312
0.00169788
0.00174771
0.0018298
0.00193927
0.0020775
0.00225114
0.00247287
0.00276576
0.00313122
0.00356698
0.0040509
0.00449044
0.00471263
0.00457282
0.00410676
0.00264226
0.00805096
0.019469
0.0216102
0.0215003
0.0207278
0.0184767
0.0153378
0.0120147
0.00883287
0.00623577
0.00435116
0.00326399
0.00271636
0.00241258
0.00221088
0.00203286
0.00184811
0.00166509
0.00150939
0.00139901
0.00133827
0.00132633
0.00135509
0.00141886
0.00151603
0.00164802
0.00181809
0.00203056
0.00229598
0.00262439
0.00302441
0.00349684
0.00401536
0.0045122
0.00481685
0.00510149
0.00428735
0.00271136
0.00890518
0.00935066
0.00976459
0.0120867
0.0107994
0.00848119
0.00603617
0.00437014
0.00348202
0.00273155
0.00214589
0.00173646
0.00142364
0.00120719
0.00106725
0.000970462
0.00089594
0.000834188
0.000784861
0.000752427
0.000740503
0.000749457
0.000776306
0.000816636
0.000869054
0.000933279
0.00101001
0.00110089
0.00120897
0.0013397
0.00149661
0.00168159
0.00189898
0.00215376
0.00245047
0.00283131
0.00300667
0.0028848
0.00249581
0.00213491
)
;

boundaryField
{
    floor
    {
        type            kqRWallFunction;
        value           nonuniform List<scalar> 
36
(
0.00187337
0.000457605
0.000628871
0.000808339
0.000878832
0.000851541
0.00074571
0.000636801
0.000546632
0.000474086
0.000415264
0.000367087
0.000327366
0.000294045
0.000265252
0.000239312
0.000214608
0.000200567
0.000169412
0.000169412
0.000292759
0.00040887
0.00054238
0.000969437
0.00108637
0.00128348
0.00187337
0.00326409
0.00224665
0.00149556
0.000457605
0.00149556
0.000450278
0.00208623
0.00106821
0.00276888
)
;
    }
    ceiling
    {
        type            kqRWallFunction;
        value           nonuniform List<scalar> 
43
(
0.00890518
0.00935066
0.00976459
0.0120867
0.0107994
0.00848119
0.00603617
0.00437014
0.00348202
0.00273155
0.00214589
0.00173646
0.00142364
0.00120719
0.00106725
0.000970462
0.00089594
0.000834188
0.000784861
0.000752427
0.000740503
0.000749457
0.000776306
0.000816636
0.000869054
0.000933279
0.00101001
0.00110089
0.00120897
0.0013397
0.00149661
0.00168159
0.00189898
0.00215376
0.00245047
0.00283131
0.00300667
0.0028848
0.00249581
0.00213491
0.018204
0.0264664
0.00805096
)
;
    }
    sWall
    {
        type            kqRWallFunction;
        value           uniform 0.00890518;
    }
    nWall
    {
        type            kqRWallFunction;
        value           nonuniform List<scalar> 6(0.00128348 0.00138073 0.00194882 0.00264226 0.00271136 0.00213491);
    }
    sideWalls
    {
        type            empty;
    }
    glass1
    {
        type            kqRWallFunction;
        value           nonuniform List<scalar> 9(0.00226778 0.00412305 0.00609511 0.00835895 0.0110412 0.0143256 0.0179761 0.0189408 0.018204);
    }
    glass2
    {
        type            kqRWallFunction;
        value           nonuniform List<scalar> 2(0.00467703 0.00408118);
    }
    sun
    {
        type            kqRWallFunction;
        value           nonuniform List<scalar> 
14
(
0.00226778
0.00268606
0.00280883
0.00308402
0.00334885
0.00360965
0.00388033
0.00416513
0.00440545
0.00455986
0.00457742
0.0044127
0.00402201
0.00325469
)
;
    }
    Table_master
    {
        type            kqRWallFunction;
        value           nonuniform List<scalar> 9(0.00134712 0.00103253 0.000802613 0.000637591 0.000518251 0.000430604 0.000365334 0.000316474 0.000280894);
    }
    Table_slave
    {
        type            kqRWallFunction;
        value           nonuniform List<scalar> 9(0.00170943 0.00143637 0.00126399 0.00114382 0.00104688 0.000954789 0.000871253 0.000787135 0.000694219);
    }
    inlet
    {
        type            turbulentIntensityKineticEnergyInlet;
        intensity       0.05;
        value           uniform 0.000937501;
    }
    outlet
    {
        type            zeroGradient;
    }
}


// ************************************************************************* //
