/*--------------------------------*- C++ -*----------------------------------*\
  =========                 |
  \\      /  F ield         | OpenFOAM: The Open Source CFD Toolbox
   \\    /   O peration     | Website:  https://openfoam.org
    \\  /    A nd           | Version:  6
     \\/     M anipulation  |
\*---------------------------------------------------------------------------*/
FoamFile
{
    version     2.0;
    format      ascii;
    class       surfaceScalarField;
    location    "1820";
    object      phi;
}
// * * * * * * * * * * * * * * * * * * * * * * * * * * * * * * * * * * * * * //

dimensions      [1 0 -1 0 0 0 0];

internalField   nonuniform List<scalar> 
850
(
-0.0030531
0.00311356
-0.00414579
0.00109269
-0.00501488
0.000869095
-0.00570375
0.000688862
-0.00617584
0.000472093
-0.00639711
0.000221271
-0.00632794
-6.91723e-05
-0.00592417
-0.000403765
-0.00517399
-0.000750179
-0.0041289
-0.00104509
-0.00290066
-0.00122824
-0.00164189
-0.00125877
-0.000539362
-0.00110252
0.000135723
-0.000675084
0.000138074
-0.000922257
0.000925914
-0.000689618
-0.000232639
-6.00674e-05
-0.000629551
0.000543476
-0.000603543
0.00100265
-0.000459171
0.00125918
-0.00025653
0.00136726
-0.000108087
0.00142006
-5.27971e-05
0.0014504
-3.03382e-05
0.00146544
-1.50456e-05
0.00146903
-3.58799e-06
0.00146201
7.02046e-06
0.00143873
2.32852e-05
0.00138016
5.85719e-05
0.00125415
0.000126003
0.00105043
0.000203717
0.000793591
0.000256844
0.00079843
-0.00220746
0.00548442
-0.00329511
0.00218034
-0.00420832
0.00178231
-0.00490609
0.00138663
-0.0053876
0.000953611
-0.00563056
0.000464229
-0.00559457
-0.000105166
-0.00524042
-0.000757912
-0.00456698
-0.00142363
-0.00364299
-0.00196908
-0.00258835
-0.00228289
-0.00154183
-0.00230529
-0.000628984
-0.00201537
9.26222e-05
-0.00139669
0.000872419
-0.000641723
0.00114838
-0.000272176
0.000956726
0.000196012
0.000969414
4.19807e-05
0.000894934
0.000422329
-0.000612988
0.000787074
-0.000994296
0.00110006
-0.000916527
0.00135096
-0.00071007
0.00140744
-0.00031301
0.00141557
-0.000116219
0.00142629
-6.35147e-05
0.00143527
-3.93214e-05
0.00144053
-2.031e-05
0.0014427
-5.75269e-06
0.0014423
7.41794e-06
0.00143682
2.87706e-05
0.00140034
9.50471e-05
0.0012474
0.000278945
0.000978833
0.000472284
0.000644741
0.000590935
0.00145555
-0.00156234
0.00729718
-0.00251036
0.00312836
-0.00334299
0.00261494
-0.00396555
0.00200919
-0.00441313
0.00140119
-0.00466166
0.000712762
-0.00465602
-0.000110802
-0.00433478
-0.00107916
-0.0037133
-0.00204511
-0.00288893
-0.00279345
-0.00198685
-0.00318497
-0.00112293
-0.00316921
-0.000373727
-0.00276457
0.000240225
-0.00201064
0.000751691
-0.00115319
0.000899053
-0.000419538
0.000707232
0.000387834
0.00168791
0.00143715
-0.000528377
0.00163261
-0.000808449
0.00157502
-0.000936703
0.00160834
-0.00094985
0.00181172
-0.000913455
0.00149887
0.0013828
0.00131944
0.00128027
0.00126012
0.00125452
0.00126209
0.00129102
0.00138622
0.00115914
0.000506018
0.000870199
0.000761229
0.000498996
0.000962138
0.00197312
-0.00109549
0.00871732
-0.00185228
0.00388515
-0.00243659
0.00319925
-0.00288267
0.00245526
-0.00322779
0.00174631
-0.00344065
0.000925628
-0.00344208
-0.000109376
-0.00312371
-0.00139753
-0.00254788
-0.00262093
-0.00184621
-0.00349512
-0.00113059
-0.00390059
-0.000480879
-0.00381892
6.55796e-05
-0.00331103
0.000526113
-0.00247118
0.000902136
-0.00152921
0.00111914
-0.000636541
0.00130324
0.000203736
0.0022568
0.000734348
0.00216718
0.000101551
0.00199417
-0.000355361
0.0019082
-0.000722476
0.00179744
-0.000825948
0.00166529
-0.000817695
0.00143433
-0.000682495
0.00175802
-0.000323846
0.00193576
-0.000177894
0.00206676
-0.00013116
0.00216763
-0.000101015
0.00222792
-6.04458e-05
0.00222541
2.35445e-06
0.00213254
9.27137e-05
0.00191299
0.000219396
0.00150683
0.000406015
0.00126953
0.000743309
0.000902369
0.00112839
0.000384161
0.00148035
0.00238092
-0.000756057
0.0098611
-0.00132706
0.00445616
-0.00150963
0.00338182
-0.00168822
0.00263385
-0.00185318
0.00191128
-0.0019622
0.00103464
-0.00191374
-0.00015783
-0.00155673
-0.00175455
-0.00105574
-0.00312192
-0.000537856
-0.00401301
-7.33812e-05
-0.00436507
0.00030526
-0.00419756
0.000596404
-0.00360217
0.000849222
-0.00272399
0.00106846
-0.00174845
0.00127572
-0.000843806
0.00158625
-0.000106785
0.00202965
0.000290943
0.00206345
6.7755e-05
0.00199603
-0.000287943
0.00181147
-0.000537922
0.00162361
-0.000638086
0.00144656
-0.000640646
0.00131794
-0.000553871
0.0013768
-0.000382704
0.00146497
-0.000266063
0.00154954
-0.000215734
0.00163112
-0.000182596
0.00170133
-0.000130658
0.00174042
-3.67344e-05
0.0017244
0.000108741
0.00163815
0.000305644
0.00148591
0.000558253
0.00132985
0.000899369
0.00115093
0.00130732
0.000803975
0.0018273
0.00101978
0.00216511
-0.00109534
0.00213624
-0.00179354
0.000717821
-0.00172077
-0.000638757
0.0109406
-0.00101441
0.00483181
-0.000633452
0.00300086
-0.000448701
0.0024491
-0.000384064
0.00184664
-0.000303687
0.000954264
-5.18794e-05
-0.000409637
0.000334541
-0.00214097
0.000692232
-0.00347961
0.000952079
-0.00427286
0.0010951
-0.00450809
0.00114542
-0.00424788
0.0011393
-0.00359605
0.00111605
-0.00270075
0.00110046
-0.00173286
0.00113243
-0.000875779
0.00126929
-0.000243647
0.00148388
7.6354e-05
0.00153502
1.66164e-05
0.00143697
-0.000189889
0.00126255
-0.000363504
0.0010829
-0.000458439
0.000925653
-0.000483399
0.000820708
-0.000448926
0.000810016
-0.000372012
0.000859472
-0.000315519
0.000935737
-0.000291999
0.00102657
-0.000273424
0.00112546
-0.000229556
0.00122252
-0.00013379
0.00129546
3.57964e-05
0.00133254
0.000268573
0.00134783
0.000542956
0.00138185
0.000865347
0.00148234
0.00120683
0.00168588
0.00162376
0.00203674
0.00181425
0.00233691
0.00183607
0.00182993
0.00122479
0.000174597
-0.000763867
0.0121918
-0.000621496
0.00468944
0.000492259
0.0018871
0.000960616
0.00198074
0.00121799
0.00158926
0.00159952
0.00057274
0.00210284
-0.000912961
0.00244005
-0.00247817
0.0025739
-0.00361346
0.00250638
-0.00420533
0.00227317
-0.00427488
0.00193623
-0.00391093
0.0015593
-0.00321912
0.00120049
-0.00234194
0.000896606
-0.00142897
0.000704811
-0.000683984
0.000652992
-0.000191829
0.00070398
2.53669e-05
0.000711974
8.62212e-06
0.000635661
-0.000113575
0.000508312
-0.000236155
0.000368043
-0.00031817
0.000242204
-0.00035756
0.000156176
-0.000362898
0.000133312
-0.000349147
0.000162406
-0.000344613
0.000222103
-0.000351696
0.000302611
-0.000353932
0.000404932
-0.000331877
0.000534039
-0.000262898
0.000686962
-0.000117126
0.000844917
0.000110618
0.00100692
0.000380949
0.00120877
0.000663498
0.0014834
0.000932203
0.00188384
0.00122332
0.00241735
0.00128073
0.00318505
0.00106837
0.0033617
0.00104814
0.00360511
0.00273594
0.00999919
0.00339169
0.00403369
0.00344934
0.00182946
0.00353503
0.00189505
0.00374633
0.00137796
0.00422228
9.67857e-05
0.00469349
-0.00138416
0.00478858
-0.00257327
0.00451431
-0.00333919
0.0039612
-0.00365223
0.00323007
-0.00354375
0.00242511
-0.00310597
0.00162829
-0.00242229
0.000922314
-0.00163597
0.000347413
-0.000854068
-2.75888e-06
-0.000333812
-0.000141237
-5.33506e-05
-0.000155757
3.98862e-05
-0.000163646
1.65118e-05
-0.000215818
-6.14036e-05
-0.000306654
-0.000145319
-0.000412836
-0.000211987
-0.000512087
-0.000258309
-0.000586285
-0.0002887
-0.00062422
-0.000311212
-0.000633394
-0.000335439
-0.000625548
-0.000359543
-0.000604973
-0.000374506
-0.000566687
-0.000370163
-0.000494464
-0.00033512
-0.000357004
-0.000254587
-0.00014687
-9.95161e-05
0.00010391
0.000130168
0.000388626
0.000378781
0.0007071
0.000613729
0.00108944
0.000840987
0.00150684
0.000863332
0.00189862
0.000676588
0.001206
0.00174077
0.00509752
0.0105981
0.0146276
0.0125615
0.0038956
0.0112293
0.00322719
0.0103409
0.0022664
0.00953411
0.000903569
0.00853174
-0.000381788
0.00735287
-0.0013944
0.00607962
-0.00206594
0.00476081
-0.00233341
0.00342964
-0.00221259
0.00216463
-0.00184097
0.0010098
-0.00126746
5.66027e-05
-0.000682774
-0.00056609
-0.000231376
-0.000859831
-4.00704e-05
-0.000956964
4.37823e-05
-0.000976545
5.94674e-05
-0.000991938
3.19051e-05
-0.00103542
-1.79202e-05
-0.00110804
-7.27047e-05
-0.00119701
-0.00012301
-0.00128877
-0.000166551
-0.00137436
-0.000203108
-0.00145154
-0.000234036
-0.00152709
-0.000259888
-0.00161028
-0.000276356
-0.00170962
-0.00027516
-0.00183478
-0.000245004
-0.00199865
-0.000171256
-0.00221664
-3.65994e-05
-0.00248312
0.000166967
-0.00280707
0.00045412
-0.00327101
0.00084272
-0.00398819
0.00133091
-0.00502972
0.00188252
-0.00651693
0.00235054
-0.00825541
0.00241506
-0.00777184
0.0012572
-0.0023573
0.0089505
0.0056035
0.00747195
0.00470574
0.00708011
0.00265825
0.00672931
0.00125437
0.00611937
0.000228153
0.005247
-0.00052203
0.00417841
-0.000997349
0.00298299
-0.001138
0.00169147
-0.000921064
0.000430605
-0.000580104
-0.000609397
-0.000227458
-0.00127081
-2.13577e-05
-0.00156328
6.10885e-05
-0.00167772
7.43677e-05
-0.00170749
7.35613e-05
-0.00171317
6.51452e-05
-0.00172824
4.69735e-05
-0.00176711
2.09525e-05
-0.00183106
-8.75372e-06
-0.00191253
-4.15434e-05
-0.002004
-7.50841e-05
-0.00210332
-0.000103788
-0.00221179
-0.00012556
-0.00233289
-0.000138791
-0.00246871
-0.000140539
-0.0026181
-0.000125773
-0.00277563
-8.74745e-05
-0.00292895
-1.79301e-05
-0.00306254
9.69865e-05
-0.00317482
0.000279254
-0.00327576
0.000555056
-0.00337725
0.000944211
-0.00348606
0.00143971
-0.00356954
0.001966
-0.00356787
0.00234888
-0.00330985
0.00215704
-0.00194988
-0.000102766
-0.00422386
-0.000826071
0.00648288
0.00074211
0.00313756
0.00140779
0.00199257
0.00164669
0.00101547
0.00158285
0.000291995
0.00121184
-0.000151024
0.00052965
-0.000315159
-0.000363721
-0.000244624
-0.00124099
-4.37909e-05
-0.00188631
6.5211e-05
-0.00222703
0.000113263
-0.0023578
0.000109409
-0.00238052
8.38097e-05
-0.00236999
6.38361e-05
-0.00234877
5.23454e-05
-0.00232822
4.45946e-05
-0.00231735
3.61011e-05
-0.00232136
2.49627e-05
-0.0023408
1.06899e-05
-0.00237466
-7.68653e-06
-0.00242323
-2.65074e-05
-0.00248462
-4.24e-05
-0.00255676
-5.34247e-05
-0.00263705
-5.84961e-05
-0.00272141
-5.61788e-05
-0.00280325
-4.39332e-05
-0.0028731
-1.7624e-05
-0.00291841
2.73779e-05
-0.00291844
9.70142e-05
-0.0028479
0.000208717
-0.00267226
0.000379419
-0.0023602
0.00063215
-0.00190389
0.000983398
-0.0012893
0.00135141
-0.000299603
0.00135918
0.00114768
0.000709754
0.00164259
-0.000597673
-0.00248959
-0.0120485
-0.015577
-0.00905367
-0.0058887
-0.00387386
-0.00283978
-0.00253276
-0.00267178
-0.00297701
-0.00321314
-0.00324926
-0.00317676
-0.00305636
-0.00293984
-0.00284891
-0.00277793
-0.00271841
-0.00266659
-0.00262323
-0.00259098
-0.002573
-0.00257343
-0.00259275
-0.00262807
-0.00267454
-0.00272623
-0.00277576
-0.00281322
-0.00282456
-0.0027911
-0.00268823
-0.00247389
-0.00208909
-0.00145183
-0.000463625
0.000892215
0.00225554
0.00296934
0.00237585
)
;

boundaryField
{
    floor
    {
        type            calculated;
        value           nonuniform List<scalar> 
36
(
0
0
0
0
0
0
0
0
0
0
0
0
0
0
0
0
0
0
0
-4.83914e-06
-1.23784e-05
-1.85698e-05
-2.36401e-05
-2.11164e-05
-1.96191e-05
-1.84535e-05
-2.35096e-06
-3.78394e-06
-4.35938e-06
-5.04468e-06
-3.65661e-06
-7.64379e-06
-1.10003e-05
-1.12617e-05
-1.38371e-05
-1.19389e-05
)
;
    }
    ceiling
    {
        type            calculated;
        value           nonuniform List<scalar> 
43
(
-4.18424e-05
-4.11775e-05
-4.04777e-05
-2.74135e-05
-2.22693e-05
-1.86046e-05
-1.50286e-05
-1.20033e-05
-9.92777e-06
-8.50091e-06
-7.66616e-06
-7.28617e-06
-7.13852e-06
-7.11133e-06
-7.12406e-06
-7.14488e-06
-7.17615e-06
-7.21764e-06
-7.25922e-06
-7.29102e-06
-7.29072e-06
-7.25694e-06
-7.18299e-06
-7.08083e-06
-6.9528e-06
-6.80958e-06
-6.64878e-06
-6.4754e-06
-6.28403e-06
-6.07901e-06
-5.85933e-06
-5.62543e-06
-5.37669e-06
-5.10607e-06
-4.8115e-06
-4.42496e-06
-4.13959e-06
-4.04935e-06
-4.18148e-06
-3.60379e-06
6.94079e-06
4.17895e-06
-5.33147e-05
)
;
    }
    sWall
    {
        type            calculated;
        value           uniform -0.000241395;
    }
    nWall
    {
        type            calculated;
        value           nonuniform List<scalar> 6(-5.43172e-05 -6.54339e-05 -6.88136e-05 -8.33261e-05 -9.16831e-05 -0.000110141);
    }
    sideWalls
    {
        type            empty;
        value           nonuniform 0();
    }
    glass1
    {
        type            calculated;
        value           nonuniform List<scalar> 9(-6.04581e-05 -0.000163403 -0.000250424 -0.00032465 -0.000387723 -0.000440785 -0.000487284 -0.000543338 -0.000605862);
    }
    glass2
    {
        type            calculated;
        value           nonuniform List<scalar> 2(-0.00028641 -0.000317011);
    }
    sun
    {
        type            calculated;
        value           uniform 0;
    }
    Table_master
    {
        type            calculated;
        value           nonuniform List<scalar> 9(-1.5364e-07 -1.53789e-07 -1.53839e-07 -1.53869e-07 -1.53889e-07 -1.53902e-07 -1.53906e-07 -1.539e-07 -1.5387e-07);
    }
    Table_slave
    {
        type            calculated;
        value           nonuniform List<scalar> 9(1.5353e-07 1.53515e-07 1.53468e-07 1.53431e-07 1.53408e-07 1.53408e-07 1.53413e-07 1.53451e-07 1.53535e-07);
    }
    inlet
    {
        type            calculated;
        value           uniform -0.0106584;
    }
    outlet
    {
        type            calculated;
        value           nonuniform List<scalar> 2(0.0123317 0.00356972);
    }
}


// ************************************************************************* //
