/*--------------------------------*- C++ -*----------------------------------*\
  =========                 |
  \\      /  F ield         | OpenFOAM: The Open Source CFD Toolbox
   \\    /   O peration     | Website:  https://openfoam.org
    \\  /    A nd           | Version:  6
     \\/     M anipulation  |
\*---------------------------------------------------------------------------*/
FoamFile
{
    version     2.0;
    format      ascii;
    class       volScalarField;
    location    "23600";
    object      alphat;
}
// * * * * * * * * * * * * * * * * * * * * * * * * * * * * * * * * * * * * * //

dimensions      [1 -1 -1 0 0 0 0];

internalField   nonuniform List<scalar> 
778
(
0.001041
0.00111058
0.0011066
0.00115465
0.00119868
0.00123866
0.00127588
0.00131175
0.00134786
0.00138624
0.00142282
0.00145758
0.00149183
0.00152868
0.00156714
0.000736694
0.0010555
0.00106396
0.00103813
0.000994999
0.000937425
0.0008801
0.000827315
0.000779721
0.00073703
0.000698972
0.000664783
0.000633637
0.000604567
0.000576279
0.000546702
0.000522149
0.000472615
0.00152468
0.00300741
0.00263936
0.00304646
0.00334194
0.00365518
0.00396762
0.0042555
0.00448717
0.00462196
0.00470121
0.00466856
0.00443582
0.0038592
0.0028187
0.00171597
0.00163609
0.00156617
0.00131906
0.00224661
0.00311365
0.00362542
0.00364906
0.00287986
0.00246298
0.00217388
0.00195451
0.00178014
0.0016315
0.00150005
0.00137769
0.00125797
0.00115052
0.00105786
0.00119175
0.000599275
0.00193416
0.00419897
0.00311348
0.0044533
0.00497608
0.00541848
0.00582019
0.00617364
0.00647295
0.0067075
0.00693488
0.00717426
0.00739447
0.00752603
0.00744027
0.00681375
0.00498444
0.00192137
0.00166376
0.00355913
0.00496731
0.00563344
0.00512365
0.00135186
0.00117541
0.00103927
0.000932765
0.000848043
0.000779687
0.000723949
0.000678616
0.000643267
0.000707177
0.000831919
0.00131783
0.000681868
0.00232912
0.00565867
0.00297919
0.00500686
0.00578061
0.00619455
0.00649881
0.00672378
0.00689154
0.0070274
0.00722086
0.00754801
0.00802574
0.00862703
0.00923234
0.00953221
0.00895434
0.00668638
0.00191352
0.00442676
0.00658981
0.00769059
0.00796294
0.00679884
0.00153929
0.00140008
0.0012923
0.00120262
0.00112621
0.00105761
0.00099296
0.000928764
0.000859428
0.00080286
0.000832305
0.00142726
0.000750873
0.0027184
0.00749086
0.00300573
0.00475933
0.0059488
0.00630157
0.00642943
0.00643405
0.00636978
0.00631283
0.0063936
0.00671124
0.00729456
0.00812129
0.00908092
0.00996599
0.010528
0.0105226
0.00944369
0.00960846
0.00983016
0.00986262
0.00966304
0.00904517
0.00719877
0.00621834
0.00554668
0.00500139
0.00446614
0.00394746
0.00343998
0.0029333
0.00241305
0.00185349
0.00141421
0.00141341
0.00111821
0.000895738
0.00118929
0.00113799
0.00310135
0.00954113
0.00353866
0.00401322
0.00569936
0.00609065
0.00605891
0.00584034
0.00552813
0.00527069
0.00526475
0.00559746
0.00626188
0.00722019
0.00834237
0.00946473
0.0104193
0.0110298
0.0111417
0.0110307
0.0108362
0.0105597
0.0102036
0.00974992
0.00908754
0.00844918
0.0078695
0.00730944
0.00670428
0.00605791
0.0053676
0.00462772
0.00383367
0.00299124
0.00222823
0.00167294
0.0012994
0.00146099
0.00254855
0.00135972
0.00349214
0.0114363
0.0047156
0.00328778
0.00512083
0.00576088
0.00568925
0.00533575
0.00482334
0.00437293
0.00435998
0.00478019
0.00554072
0.00661221
0.00783129
0.00903887
0.0100783
0.0108229
0.0111658
0.0111402
0.0108965
0.0105267
0.0101029
0.00967986
0.00927047
0.00889467
0.00854151
0.00816466
0.00770907
0.00716066
0.00651164
0.00575911
0.004906
0.00397359
0.00306129
0.00221179
0.00162904
0.00145737
0.00259858
0.00160524
0.0038279
0.0128689
0.00642851
0.00313076
0.00405628
0.00510713
0.0052532
0.00496259
0.0043573
0.0037448
0.00388363
0.00443963
0.00529072
0.00639513
0.00766214
0.00892623
0.010004
0.0107526
0.0110926
0.0110486
0.0107333
0.0102679
0.00976702
0.00932257
0.00897991
0.00873508
0.00854403
0.00833628
0.00804665
0.00764129
0.00710464
0.00643374
0.0056349
0.0047311
0.00378952
0.00283797
0.00197871
0.00134013
0.00374357
0.00211002
0.00392905
0.0121727
0.00795116
0.00404789
0.00274934
0.00336909
0.00394364
0.00399204
0.00352466
0.00342523
0.00378089
0.00443508
0.00535646
0.00652915
0.00785822
0.00916141
0.0102345
0.0109238
0.0111652
0.010998
0.0105403
0.00993996
0.00934409
0.00886847
0.00856661
0.00841863
0.00835161
0.00827185
0.00810504
0.00781192
0.00737715
0.00679926
0.00608541
0.00525367
0.00433847
0.00330814
0.0018924
0.00173828
0.00579599
0.00241598
0.00384949
0.00980963
0.00820765
0.00555407
0.00366853
0.00283993
0.00268966
0.00281655
0.00305285
0.00342919
0.00396401
0.0047013
0.00570532
0.00697196
0.00837486
0.00969636
0.0107117
0.0112683
0.0113237
0.0109463
0.0102845
0.0095233
0.00884336
0.00837718
0.00816374
0.00813943
0.00818632
0.00818583
0.00807758
0.00783995
0.00746592
0.00695514
0.00631114
0.0055387
0.00461705
0.00326389
0.00139933
0.00342952
0.00535065
0.0024423
0.0036057
0.00838286
0.00793341
0.00635328
0.00489047
0.00393703
0.00346511
0.00335804
0.00355291
0.00391246
0.00443625
0.00521645
0.00632805
0.00771944
0.00919489
0.0104871
0.0113585
0.0116773
0.0114427
0.0107713
0.00986264
0.00895282
0.00826015
0.00791228
0.00787319
0.00798914
0.00810527
0.00810777
0.00799325
0.00776317
0.00741356
0.00693883
0.00633111
0.00556889
0.00456667
0.00300315
0.00147441
0.00369267
0.0055852
0.00243895
0.00328293
0.00755846
0.00765197
0.00672353
0.00572063
0.00496501
0.00451972
0.00436
0.00439962
0.00461724
0.00509992
0.00597449
0.00726307
0.00880647
0.0103128
0.0114711
0.0120584
0.0119964
0.011355
0.0103215
0.00917192
0.00820971
0.00766282
0.00755505
0.0076558
0.00781077
0.00791045
0.00788162
0.00774783
0.00751519
0.00717657
0.00671128
0.00608589
0.00523129
0.00403407
0.00254781
0.00175189
0.00374145
0.00599216
0.0025312
0.0029935
0.00676247
0.007307
0.00686844
0.00622493
0.00568395
0.00532388
0.00514766
0.00509572
0.00528311
0.00589852
0.00704474
0.00860689
0.0102778
0.0116817
0.0125103
0.0126097
0.0119993
0.0108543
0.00945719
0.00819183
0.00737808
0.0070241
0.00699365
0.00711156
0.00725402
0.0073355
0.00730396
0.00716472
0.00692708
0.00657766
0.00607372
0.00532121
0.00420529
0.00285306
0.00197708
0.00215377
0.0041879
0.00597991
0.00265052
0.00300439
0.00671272
0.00746622
0.00695114
0.00643019
0.00600343
0.00569561
0.0054964
0.00549003
0.00594535
0.00703285
0.00865933
0.0104916
0.0121001
0.0131096
0.013307
0.0126814
0.0113868
0.00974961
0.00816173
0.00700857
0.00633779
0.00604284
0.00599894
0.00608591
0.00619744
0.00625592
0.00621937
0.00606128
0.00579835
0.00540339
0.0047912
0.00383582
0.00266157
0.00191738
0.00198069
0.00276328
0.0046616
0.00631889
0.00260548
0.00271026
0.00282061
0.00416517
0.00489691
0.00512416
0.00512894
0.00508076
0.00517793
0.00581036
0.00716075
0.00906538
0.0111214
0.0128722
0.0139378
0.0141018
0.0133357
0.0118341
0.0098882
0.00803387
0.00658439
0.00562468
0.00509545
0.00487697
0.00483202
0.00485337
0.00486553
0.00482277
0.00470783
0.00449851
0.00420756
0.00382765
0.00330458
0.00261715
0.00201454
0.00191128
0.00240524
0.00336499
0.00461891
0.0054519
0.00244511
0.000963822
0.00173692
0.00266415
0.00340877
0.00427539
0.00574579
0.0079114
0.0103199
0.0125149
0.0141507
0.0149885
0.0148747
0.0138237
0.0119611
0.00976328
0.00769544
0.00606835
0.00499898
0.00443307
0.00417799
0.00406554
0.00399738
0.00391932
0.00380281
0.00364188
0.00345045
0.00325162
0.00304738
0.00284479
0.00262691
0.00238213
0.0021916
0.00227694
0.00281134
0.00372916
0.00472686
0.00521853
0.00234067
0.00178757
0.00246812
0.00359003
0.00559438
0.00831346
0.0110365
0.0131436
0.0146666
0.0155892
0.0158374
0.0152836
0.0138079
0.0116463
0.00922442
0.00702521
0.00540795
0.00448792
0.00407381
0.00390943
0.00383969
0.00379209
0.00373274
0.00364818
0.00354038
0.00342263
0.00331118
0.00321584
0.0031341
0.00306186
0.00299637
0.00294095
0.00292612
0.00304349
0.00345091
0.00426608
0.00542768
0.00636934
0.00248517
0.00323847
0.0078754
0.00726807
0.00649344
0.00823099
0.0109544
0.0132471
0.0147952
0.0156166
0.0158241
0.0155071
0.0146011
0.0130498
0.010906
0.00849533
0.00636921
0.00498419
0.00432714
0.00409038
0.00402959
0.00402553
0.00402504
0.00400505
0.00395958
0.00389408
0.00381996
0.00374921
0.00369125
0.00365314
0.00364087
0.00365814
0.00370671
0.0037933
0.00393514
0.00419257
0.0046532
0.00546743
0.00704414
0.00724206
0.00265654
0.0030952
0.00597972
0.0077154
0.00987763
0.0109574
0.0120658
0.0127067
0.0128574
0.0126106
0.0120273
0.0111207
0.00987964
0.00833595
0.00668177
0.00525465
0.00433951
0.00389614
0.00374027
0.00372775
0.00377704
0.00384149
0.00389358
0.0039199
0.00391858
0.00389533
0.00385849
0.00381635
0.00377855
0.00376004
0.00378318
0.00387509
0.00405993
0.00434468
0.00471386
0.00513087
0.00567913
0.00647572
0.0078055
0.00775832
0.00275529
0.00289456
0.0024812
0.00246895
0.00254121
0.0026009
0.00252376
0.00237408
0.0021994
0.00202303
0.00185237
0.00168849
0.00153438
0.00140055
0.00130284
0.00124948
0.00122901
0.00122904
0.00123946
0.00125432
0.00127053
0.00128658
0.00130203
0.00131731
0.00133352
0.00135239
0.00137616
0.00140767
0.0014502
0.00150691
0.00157967
0.00166778
0.00176801
0.00187655
0.00199201
0.00211585
0.00224392
0.00237571
0.00251582
0.00265874
0.00253585
)
;

boundaryField
{
    floor
    {
        type            compressible::alphatWallFunction;
        Prt             0.85;
        value           nonuniform List<scalar> 
36
(
0.000219858
0.000104464
0.000149954
0.000151136
0.000147521
0.000141459
0.000133321
0.000125159
0.000117589
0.000110713
0.000104503
9.89314e-05
9.38945e-05
8.92785e-05
8.49452e-05
8.07041e-05
7.62422e-05
7.25156e-05
6.49307e-05
6.49298e-05
8.41547e-05
9.64161e-05
0.000106522
0.000127394
0.000168564
0.00016146
0.000219855
0.000239666
0.000229057
0.000219723
0.000104463
0.000219721
0.000186344
0.000266697
0.00023273
0.000265672
)
;
    }
    ceiling
    {
        type            compressible::alphatWallFunction;
        Prt             0.85;
        value           nonuniform List<scalar> 
43
(
0.000391156
0.000338971
0.000337416
0.000346615
0.000354199
0.000344446
0.000325398
0.000302993
0.000280174
0.000257886
0.000236269
0.000215722
0.00019768
0.000184371
0.00017705
0.000174224
0.000174222
0.000175653
0.000177699
0.000179929
0.000182135
0.000184255
0.000186345
0.000188554
0.000191112
0.00019432
0.000198555
0.000204252
0.000211829
0.000221525
0.000233238
0.00024652
0.00026084
0.000275981
0.000292136
0.000308749
0.000325726
0.000343647
0.000361776
0.000346072
0.000368317
0.00038219
0.000248641
)
;
    }
    sWall
    {
        type            compressible::alphatWallFunction;
        Prt             0.85;
        value           nonuniform List<scalar> 9(0.000507606 0.000477867 0.000438176 0.00040225 0.000403598 0.000366742 0.000432042 0.000414327 0.000389406);
    }
    nWall
    {
        type            compressible::alphatWallFunction;
        Prt             0.85;
        value           nonuniform List<scalar> 
14
(
0.000161012
0.000191426
0.000224476
0.000333523
0.000333182
0.000345185
0.000360114
0.000353868
0.000333516
0.000320388
0.000339456
0.000360639
0.000373016
0.000345377
)
;
    }
    sideWalls
    {
        type            empty;
    }
    glass1
    {
        type            compressible::alphatWallFunction;
        Prt             0.85;
        value           nonuniform List<scalar> 9(0.000143929 0.000209136 0.000262693 0.000313302 0.000362376 0.00041 0.000458013 0.000498873 0.000511229);
    }
    glass2
    {
        type            compressible::alphatWallFunction;
        Prt             0.85;
        value           nonuniform List<scalar> 2(0.000288605 0.000327778);
    }
    sun
    {
        type            compressible::alphatWallFunction;
        Prt             0.85;
        value           nonuniform List<scalar> 
14
(
0.000147964
0.000157651
0.000157096
0.000163766
0.00016985
0.000175353
0.000180457
0.00018536
0.000190281
0.000195494
0.000200449
0.000205143
0.000209756
0.000214706
)
;
    }
    Table_master
    {
        type            compressible::alphatWallFunction;
        Prt             0.85;
        value           nonuniform List<scalar> 9(0.000191079 0.000166885 0.000147934 0.000132908 0.000120811 0.000110947 0.000102827 9.61665e-05 9.09357e-05);
    }
    Table_slave
    {
        type            compressible::alphatWallFunction;
        Prt             0.85;
        value           nonuniform List<scalar> 9(0.000216397 0.000197632 0.000182959 0.000170646 0.000160071 0.000150507 0.000141427 0.000132343 0.000122448);
    }
    inlet
    {
        type            fixedValue;
        value           uniform 1.94e-05;
    }
    outlet
    {
        type            zeroGradient;
    }
}


// ************************************************************************* //
