/*--------------------------------*- C++ -*----------------------------------*\
  =========                 |
  \\      /  F ield         | OpenFOAM: The Open Source CFD Toolbox
   \\    /   O peration     | Website:  https://openfoam.org
    \\  /    A nd           | Version:  6
     \\/     M anipulation  |
\*---------------------------------------------------------------------------*/
FoamFile
{
    version     2.0;
    format      ascii;
    class       volScalarField;
    location    "27299.9999985638678";
    object      alphat;
}
// * * * * * * * * * * * * * * * * * * * * * * * * * * * * * * * * * * * * * //

dimensions      [1 -1 -1 0 0 0 0];

internalField   nonuniform List<scalar> 
778
(
0.001041
0.00111053
0.00110651
0.00115452
0.00119852
0.00123849
0.00127571
0.00131161
0.00134775
0.00138618
0.00142285
0.00145771
0.00149205
0.00152899
0.00156752
0.000736839
0.00105571
0.00106435
0.00103866
0.000995596
0.00093797
0.000880518
0.00082761
0.000779941
0.000737222
0.000699163
0.000664977
0.000633831
0.000604755
0.000576455
0.000546861
0.000522263
0.000472686
0.00152468
0.00300726
0.00263928
0.00304633
0.00334159
0.00365458
0.00396679
0.00425456
0.00448629
0.00462137
0.00470091
0.00466862
0.00443624
0.00385979
0.00281922
0.00171648
0.00163658
0.00156655
0.00131851
0.00224637
0.00311423
0.00362718
0.00365146
0.00288122
0.00246416
0.0021751
0.00195561
0.00178095
0.00163201
0.00150042
0.00137799
0.00125823
0.00115075
0.00105807
0.00119133
0.000599298
0.00193417
0.00419873
0.00311333
0.0044533
0.00497583
0.00541787
0.00581928
0.0061726
0.00647205
0.00670709
0.00693494
0.00717501
0.00739603
0.00752819
0.00744241
0.00681514
0.00498465
0.00192161
0.00166348
0.0035582
0.00496619
0.00563321
0.00512403
0.00135223
0.00117594
0.00103987
0.000933358
0.000848567
0.000780114
0.000724283
0.00067888
0.000643487
0.000707355
0.000831952
0.00131645
0.000681771
0.00232914
0.00565832
0.00297898
0.0050069
0.00578052
0.00619413
0.00649809
0.00672287
0.00689068
0.00702694
0.00722082
0.00754874
0.00802752
0.00862978
0.00923533
0.00953421
0.00895354
0.00667945
0.00191374
0.00443173
0.00659164
0.00768963
0.00796163
0.00679812
0.00153935
0.00140026
0.00129262
0.00120308
0.00112673
0.00105814
0.000993471
0.000929246
0.000859904
0.000803287
0.00083236
0.00142425
0.000750749
0.00271841
0.00749032
0.00300545
0.0047593
0.00594882
0.0063014
0.00642905
0.00643355
0.00636932
0.00631264
0.0063938
0.00671232
0.00729706
0.00812529
0.0090858
0.00997061
0.0105321
0.0105262
0.0094471
0.0096117
0.00983109
0.00986175
0.00966183
0.00904463
0.00719893
0.00621922
0.00554808
0.00500284
0.00446786
0.00394955
0.00344242
0.00293585
0.00241532
0.00185548
0.00141627
0.00141303
0.00111832
0.000894707
0.00117111
0.0011269
0.00310135
0.0095404
0.0035382
0.00401313
0.00569936
0.00609065
0.0060589
0.00584041
0.00552836
0.00527103
0.00526531
0.00559884
0.006265
0.00722528
0.00834909
0.00947138
0.0104265
0.0110363
0.0111471
0.0110343
0.0108376
0.0105594
0.0102027
0.00974929
0.00908764
0.00845007
0.0078711
0.00731143
0.00670703
0.0060615
0.00537188
0.00463224
0.00383784
0.00299514
0.00223316
0.00167694
0.00130177
0.00145229
0.00251162
0.00135017
0.0034921
0.0114355
0.00471474
0.00328772
0.00512066
0.00576086
0.0056895
0.00533634
0.00482425
0.00437364
0.00436029
0.00478095
0.0055432
0.00661651
0.00783795
0.00904667
0.0100864
0.0108306
0.0111723
0.0111448
0.0108989
0.0105272
0.0101024
0.00967905
0.00926987
0.00889443
0.00854176
0.00816545
0.00771098
0.0071639
0.00651601
0.00576406
0.00491096
0.00397902
0.00306972
0.002223
0.0016378
0.00145763
0.00254572
0.00158731
0.00382784
0.0128683
0.00642725
0.00313075
0.00405597
0.00510648
0.005253
0.00496297
0.00435751
0.00374498
0.00388327
0.00443938
0.00529157
0.00639762
0.0076663
0.00893181
0.0100107
0.0107598
0.0110994
0.0110539
0.0107364
0.0102689
0.00976651
0.00932135
0.00897838
0.00873338
0.0085424
0.00833502
0.00804657
0.00764283
0.00710773
0.00643783
0.00563958
0.00473772
0.00380299
0.0028632
0.00201625
0.00133531
0.00360344
0.00206016
0.00392906
0.0121739
0.00795028
0.00404757
0.00275027
0.00336895
0.00394222
0.00399087
0.00352352
0.00342475
0.00378031
0.00443423
0.00535542
0.00652806
0.00785754
0.00916206
0.0102373
0.0109288
0.0111711
0.0110032
0.0105434
0.00994053
0.00934273
0.0088661
0.0085637
0.00841518
0.00834774
0.00826791
0.008102
0.00781042
0.0073773
0.00680067
0.00608805
0.00526042
0.00435632
0.00334697
0.00200773
0.00162882
0.00536106
0.00236031
0.00384958
0.00981119
0.00820763
0.00555382
0.00366933
0.0028414
0.00269063
0.0028166
0.00305326
0.00342993
0.00396429
0.00470019
0.00570177
0.0069656
0.00836698
0.00968965
0.0107088
0.0112698
0.0113282
0.0109509
0.0102867
0.00952223
0.00884004
0.00837304
0.00815923
0.00813399
0.00817974
0.00817846
0.00807052
0.00783382
0.00746066
0.00695013
0.00630699
0.00553902
0.00460999
0.00320448
0.00153819
0.00293708
0.00541556
0.00239428
0.0036059
0.00838372
0.0079335
0.00635337
0.00489145
0.00393896
0.00346771
0.00336114
0.0035563
0.0039155
0.00443789
0.00521463
0.00632029
0.00770512
0.00917692
0.0104709
0.011349
0.0116758
0.0114465
0.0107755
0.00986317
0.00894932
0.00825539
0.00790783
0.00786782
0.0079809
0.00809464
0.00809627
0.00798194
0.00775203
0.00740137
0.00692395
0.00631584
0.00555841
0.00445954
0.00248916
0.00178292
0.00354215
0.00502874
0.00235737
0.00328309
0.0075578
0.00765111
0.00672319
0.00572119
0.00496651
0.00452216
0.00436363
0.00440388
0.00462128
0.00510172
0.00596977
0.00724751
0.00878
0.0102814
0.0114443
0.0120436
0.0119946
0.0113602
0.0103263
0.00917133
0.00820703
0.00766353
0.00755405
0.00764756
0.00779517
0.0078936
0.00786564
0.00773349
0.00750162
0.00716047
0.00669424
0.0060839
0.00528993
0.00391083
0.00186255
0.00217829
0.0037812
0.00474452
0.00227984
0.00299334
0.00675779
0.00730292
0.00686623
0.00622413
0.0056843
0.00532536
0.00515022
0.00509921
0.00528676
0.00589819
0.00703276
0.00857761
0.0102338
0.0116345
0.0124746
0.0125949
0.012003
0.0108648
0.00946601
0.00819913
0.00739124
0.00703922
0.00699314
0.0070853
0.00721138
0.00729697
0.00727689
0.00714889
0.00691813
0.0065696
0.00608027
0.00542997
0.00458
0.00328795
0.001863
0.00229349
0.00391697
0.005209
0.00225475
0.00300352
0.00670609
0.00746058
0.00694777
0.00642832
0.00600286
0.00569627
0.00549801
0.00549333
0.00594848
0.00702707
0.00863325
0.0104409
0.0120339
0.0130479
0.0132702
0.0126779
0.0114053
0.00977071
0.00819142
0.00705351
0.00639055
0.00607276
0.00597766
0.00601057
0.0060979
0.0061772
0.00617749
0.00605029
0.00579633
0.00538962
0.00481106
0.00408862
0.00331234
0.00257199
0.00198197
0.00238445
0.00412293
0.00534645
0.00240974
0.00270968
0.00281948
0.00416537
0.00489775
0.00512535
0.00513042
0.00508244
0.00518141
0.00581712
0.00716321
0.00904784
0.011072
0.0127937
0.0138509
0.0140365
0.0133146
0.0118589
0.00993622
0.00810483
0.00668339
0.00573468
0.00517963
0.00490053
0.00477637
0.00472965
0.00472092
0.0047215
0.00467887
0.0045083
0.00419686
0.00372844
0.00315128
0.00260971
0.00225433
0.00213284
0.00223482
0.00282013
0.00466702
0.00543886
0.00244108
0.000965057
0.00174037
0.00266996
0.00341445
0.00428022
0.00575659
0.00792233
0.0103138
0.012474
0.0140704
0.0148841
0.0147807
0.0137756
0.0119758
0.00984439
0.00783088
0.00624393
0.00517884
0.00458082
0.00426677
0.00407916
0.00393878
0.00381669
0.00370459
0.00359708
0.00347597
0.00329047
0.00301968
0.00268685
0.00238117
0.0022209
0.00225908
0.00247728
0.00287747
0.00361059
0.00533993
0.00586593
0.00246925
0.00178709
0.00247035
0.00359367
0.00560117
0.00832556
0.0110436
0.0131422
0.0146393
0.0155213
0.015734
0.0151734
0.01374
0.0116584
0.00933652
0.00723672
0.00567925
0.00476267
0.00430669
0.00406818
0.00390733
0.00377276
0.00365228
0.003546
0.0034541
0.00337114
0.00328193
0.0031614
0.00300597
0.00284227
0.00272891
0.00273707
0.0029005
0.00320145
0.00361653
0.00416872
0.00492206
0.00537123
0.00237003
0.00323881
0.00785619
0.00724638
0.00648833
0.00823859
0.0109742
0.0132755
0.0148183
0.0156164
0.0157917
0.0154364
0.0145245
0.0130232
0.0110005
0.00876713
0.00678298
0.00544114
0.00474206
0.0043994
0.00418847
0.00401583
0.00385882
0.00372226
0.00361818
0.00355606
0.00353739
0.00355271
0.00358008
0.00358625
0.00357014
0.00355982
0.00358587
0.00368117
0.00386819
0.00414107
0.00446127
0.00475977
0.00488577
0.00471108
0.0023251
0.00309576
0.00598149
0.0077325
0.00989146
0.0109739
0.0120894
0.0127355
0.0128853
0.0126273
0.0120212
0.0110882
0.00983928
0.00836057
0.00687473
0.00566849
0.00489954
0.00446059
0.00419818
0.00400397
0.00382981
0.00366655
0.00352375
0.00341853
0.00336867
0.00338701
0.00347635
0.00362487
0.00380162
0.00395267
0.00405114
0.00413997
0.00425463
0.00442023
0.00465266
0.00495834
0.00533202
0.00574464
0.00611438
0.00544599
0.00252951
0.0028947
0.00248023
0.00246714
0.00253774
0.00259524
0.00251389
0.00235859
0.00217739
0.00199523
0.00182233
0.00166281
0.00152133
0.00140503
0.00132097
0.0012705
0.00124669
0.00124129
0.0012439
0.0012509
0.00126251
0.00128019
0.00130538
0.00133854
0.0013786
0.0014233
0.00146994
0.00151635
0.00156151
0.00160597
0.00165049
0.00169634
0.00174691
0.00180542
0.00187421
0.00195409
0.00204314
0.00213571
0.00222806
0.00234387
0.00238599
)
;

boundaryField
{
    floor
    {
        type            compressible::alphatWallFunction;
        Prt             0.85;
        value           nonuniform List<scalar> 
36
(
0.000219908
0.000104484
0.000149985
0.000151192
0.000147596
0.000141544
0.000133398
0.000125219
0.000117631
0.000110745
0.000104532
9.89597e-05
9.39234e-05
8.93076e-05
8.49737e-05
8.07308e-05
7.62665e-05
7.25331e-05
6.49416e-05
6.49408e-05
8.41586e-05
9.64028e-05
0.000106506
0.000127249
0.000166035
0.000159924
0.000219906
0.000239735
0.000229122
0.000219774
0.000104483
0.000219772
0.00018627
0.000266729
0.000232693
0.000265699
)
;
    }
    ceiling
    {
        type            compressible::alphatWallFunction;
        Prt             0.85;
        value           nonuniform List<scalar> 
43
(
0.000391171
0.000338847
0.000337185
0.000346174
0.000353484
0.000343193
0.000323417
0.000300148
0.000276533
0.00025389
0.000232781
0.000213869
0.000198179
0.000186758
0.000179873
0.000176626
0.000175898
0.000176264
0.000177227
0.000178811
0.000181218
0.000184644
0.000189152
0.000194596
0.000200665
0.000206988
0.000213266
0.000219357
0.00022533
0.000231294
0.000237407
0.000244115
0.000251844
0.000260896
0.00027137
0.000283006
0.000295063
0.000307043
0.000321922
0.000327304
0.000368246
0.000382047
0.000248577
)
;
    }
    sWall
    {
        type            compressible::alphatWallFunction;
        Prt             0.85;
        value           nonuniform List<scalar> 9(0.000507618 0.00047789 0.000438195 0.00040223 0.000403491 0.000366671 0.000432083 0.000414395 0.00038942);
    }
    nWall
    {
        type            compressible::alphatWallFunction;
        Prt             0.85;
        value           nonuniform List<scalar> 
14
(
0.000159477
0.000190139
0.000222082
0.000327351
0.000322608
0.000312695
0.000309607
0.000329463
0.000333401
0.000336943
0.000324231
0.000318605
0.000345195
0.000326618
)
;
    }
    sideWalls
    {
        type            empty;
    }
    glass1
    {
        type            compressible::alphatWallFunction;
        Prt             0.85;
        value           nonuniform List<scalar> 9(0.000143929 0.000209137 0.000262695 0.000313305 0.000362378 0.000410001 0.000458009 0.000498865 0.000511231);
    }
    glass2
    {
        type            compressible::alphatWallFunction;
        Prt             0.85;
        value           nonuniform List<scalar> 2(0.000282118 0.000320699);
    }
    sun
    {
        type            compressible::alphatWallFunction;
        Prt             0.85;
        value           nonuniform List<scalar> 
14
(
0.000147963
0.000157645
0.000157084
0.000163748
0.000169829
0.00017533
0.000180434
0.00018534
0.000190266
0.000195486
0.000200452
0.000205159
0.000209785
0.000214747
)
;
    }
    Table_master
    {
        type            compressible::alphatWallFunction;
        Prt             0.85;
        value           nonuniform List<scalar> 9(0.000191132 0.00016696 0.00014802 0.000132993 0.000120887 0.000111009 0.000102876 9.62057e-05 9.09685e-05);
    }
    Table_slave
    {
        type            compressible::alphatWallFunction;
        Prt             0.85;
        value           nonuniform List<scalar> 9(0.000216405 0.000197658 0.000183005 0.00017071 0.000160144 0.000150582 0.0001415 0.000132412 0.000122517);
    }
    inlet
    {
        type            fixedValue;
        value           uniform 1.94e-05;
    }
    outlet
    {
        type            zeroGradient;
    }
}


// ************************************************************************* //
