/*--------------------------------*- C++ -*----------------------------------*\
  =========                 |
  \\      /  F ield         | OpenFOAM: The Open Source CFD Toolbox
   \\    /   O peration     | Website:  https://openfoam.org
    \\  /    A nd           | Version:  6
     \\/     M anipulation  |
\*---------------------------------------------------------------------------*/
FoamFile
{
    version     2.0;
    format      ascii;
    class       surfaceScalarField;
    location    "1400";
    object      phi;
}
// * * * * * * * * * * * * * * * * * * * * * * * * * * * * * * * * * * * * * //

dimensions      [1 0 -1 0 0 0 0];

internalField   nonuniform List<scalar> 
850
(
-0.00305325
0.00311371
-0.00414609
0.00109284
-0.00501524
0.000869155
-0.00570413
0.000688892
-0.00617623
0.000472099
-0.00639748
0.000221246
-0.00632824
-6.92346e-05
-0.00592438
-0.000403869
-0.00517406
-0.000750313
-0.00412882
-0.00104524
-0.00290044
-0.00122838
-0.00164156
-0.00125887
-0.000539017
-0.00110255
0.000135915
-0.000674932
0.000138266
-0.000922221
0.000925877
-0.000689544
-0.000232677
-5.99297e-05
-0.000629614
0.000543758
-0.000603687
0.00100311
-0.00045935
0.00125971
-0.000256608
0.00136781
-0.000108094
0.00142059
-5.27826e-05
0.00145092
-3.0324e-05
0.00146593
-1.5018e-05
0.00146949
-3.55711e-06
0.00146245
7.03977e-06
0.00143914
2.33101e-05
0.00138054
5.86047e-05
0.00125449
0.000126045
0.0010507
0.000203792
0.000793719
0.000256981
0.000798558
-0.00220756
0.00548466
-0.00329528
0.00218057
-0.00420855
0.00178242
-0.00490634
0.00138668
-0.00538786
0.000953615
-0.00563079
0.000464175
-0.00559473
-0.000105293
-0.00524048
-0.00075812
-0.00456691
-0.00142389
-0.00364279
-0.00196935
-0.00258804
-0.00228314
-0.00154145
-0.00230546
-0.0006286
-0.0020154
9.30027e-05
-0.00139653
0.000872824
-0.000641555
0.00114863
-0.000272019
0.000956816
0.000196169
0.000969505
4.18354e-05
0.000895042
0.000422096
-0.000612938
0.000786894
-0.000994412
0.00110001
-0.000916803
0.00135108
-0.000710415
0.00140761
-0.00031314
0.00141573
-0.000116221
0.00142644
-6.34918e-05
0.00143543
-3.93068e-05
0.00144069
-2.02765e-05
0.00144285
-5.72442e-06
0.00144244
7.44829e-06
0.00143695
2.8801e-05
0.00140047
9.50854e-05
0.00124754
0.000278975
0.000978937
0.000472397
0.000644793
0.000591125
0.00145573
-0.00156239
0.00729747
-0.00251044
0.00312862
-0.00334309
0.00261507
-0.00396566
0.00200925
-0.00441322
0.00140118
-0.00466172
0.000712675
-0.00465602
-0.000110995
-0.00433466
-0.00107948
-0.00371306
-0.00204549
-0.00288858
-0.00279383
-0.00198642
-0.00318529
-0.00112247
-0.00316942
-0.000373275
-0.00276459
0.000240695
-0.0020105
0.000752133
-0.00115299
0.000899405
-0.000419291
0.00070746
0.000388115
0.00168823
0.00143685
-0.000527968
0.00163214
-0.000808226
0.00157443
-0.000936709
0.00160778
-0.000950146
0.00181148
-0.000914123
0.0014985
0.00138243
0.00131909
0.00127994
0.00125982
0.00125425
0.00126185
0.0012908
0.00138604
0.00115915
0.000505865
0.00087014
0.000761409
0.000498945
0.000962321
0.00197324
-0.00109551
0.00871762
-0.00185229
0.0038854
-0.00243659
0.00319937
-0.00288264
0.0024553
-0.00322772
0.00174626
-0.00344054
0.000925496
-0.0034419
-0.000109639
-0.00312338
-0.001398
-0.00254745
-0.00262141
-0.00184571
-0.00349557
-0.00113005
-0.00390096
-0.000480334
-0.00381913
6.61058e-05
-0.00331103
0.000526633
-0.00247103
0.000902608
-0.00152897
0.00111952
-0.000636204
0.00130349
0.00020415
0.00225686
0.000734853
0.00216664
0.000102155
0.00199352
-0.000354849
0.0019074
-0.000722106
0.0017965
-0.000825801
0.00166415
-0.000817802
0.0014328
-0.000682776
0.00175665
-0.000323999
0.00193452
-0.000178019
0.0020657
-0.000131337
0.00216679
-0.000101241
0.00222735
-6.07165e-05
0.00222512
2.0803e-06
0.00213247
9.24903e-05
0.0019131
0.000219221
0.00150708
0.000405868
0.0012698
0.000743142
0.000902466
0.00112874
0.000384134
0.00148065
0.00238102
-0.000756063
0.0098614
-0.00132702
0.00445637
-0.00150955
0.00338189
-0.00168807
0.00263382
-0.00185297
0.00191116
-0.00196191
0.00103444
-0.00191338
-0.000158167
-0.00155619
-0.0017552
-0.00105513
-0.00312247
-0.000537229
-0.00401347
-7.27623e-05
-0.00436543
0.000305853
-0.00419774
0.00059698
-0.00360216
0.000849774
-0.00272383
0.00106896
-0.00174815
0.00127612
-0.000843371
0.00158646
-0.00010619
0.00202961
0.000291705
0.00206315
6.86171e-05
0.0019955
-0.000287196
0.00181074
-0.000537351
0.00162267
-0.000637727
0.0014454
-0.000640539
0.0013166
-0.000553972
0.00137547
-0.000382872
0.00146376
-0.000266305
0.0015485
-0.000216081
0.0016303
-0.000183034
0.00170075
-0.000131168
0.00174009
-3.72611e-05
0.00172429
0.000108286
0.0016382
0.000305313
0.00148604
0.000558029
0.00132996
0.000899225
0.00115101
0.00130769
0.00080397
0.0018277
0.00101965
0.00216534
-0.00109553
0.00213629
-0.00179366
0.000717749
-0.00172089
-0.000638765
0.0109409
-0.00101435
0.00483195
-0.000633331
0.00300087
-0.000448481
0.00244897
-0.000383733
0.00184641
-0.000303232
0.000953941
-5.12608e-05
-0.000410138
0.000335247
-0.00214171
0.00069296
-0.00348018
0.000952779
-0.00427329
0.00109574
-0.00450838
0.00114601
-0.00424802
0.00113986
-0.00359601
0.00111658
-0.00270055
0.00110094
-0.00173251
0.00113282
-0.000875251
0.00126951
-0.000242878
0.00148385
7.73606e-05
0.0015348
1.76765e-05
0.00143653
-0.000188927
0.0012619
-0.000362723
0.00108204
-0.000457869
0.000924615
-0.000483114
0.000819555
-0.000448912
0.000808863
-0.00037218
0.000858407
-0.000315849
0.000934807
-0.000292481
0.00102581
-0.000274035
0.0011249
-0.000230264
0.00122219
-0.000134544
0.00129534
3.51339e-05
0.00133251
0.000268144
0.00134782
0.000542719
0.00138177
0.000865272
0.00148231
0.00120715
0.00168584
0.00162417
0.00203668
0.0018145
0.00233686
0.00183612
0.00182988
0.00122473
0.000174421
-0.00076381
0.012192
-0.000621396
0.00468954
0.00049243
0.00188704
0.000960896
0.00198051
0.00121841
0.00158889
0.00160015
0.000572207
0.00210366
-0.000913645
0.00244083
-0.00247888
0.00257466
-0.00361402
0.00250707
-0.0042057
0.00227376
-0.00427508
0.00193673
-0.00391099
0.00155974
-0.00321902
0.0012009
-0.00234171
0.000896983
-0.00142859
0.000705124
-0.000683393
0.000653149
-0.000190904
0.000703939
2.65707e-05
0.00071174
9.87592e-06
0.000635251
-0.000112438
0.000507741
-0.000235213
0.000367302
-0.00031743
0.000241354
-0.000357165
0.00015527
-0.000362829
0.000132412
-0.000349322
0.000161555
-0.000344992
0.000221326
-0.000352252
0.000301916
-0.000354625
0.000404313
-0.000332661
0.000533481
-0.000263712
0.000686546
-0.000117931
0.000844647
0.000110043
0.00100669
0.000380678
0.00120849
0.000663474
0.00148318
0.000932453
0.00188371
0.00122363
0.0024173
0.00128091
0.00318506
0.00106836
0.00336178
0.00104801
0.00360501
0.00273616
0.0099992
0.00339197
0.00403373
0.00344966
0.00182936
0.00353548
0.00189469
0.00374695
0.00137742
0.00422312
9.60421e-05
0.00469439
-0.00138491
0.00478941
-0.0025739
0.00451502
-0.00333963
0.00396175
-0.00365244
0.00323046
-0.00354378
0.00242537
-0.00310589
0.00162845
-0.0024221
0.000922447
-0.00163571
0.000347512
-0.000853654
-2.71223e-06
-0.000333169
-0.000141295
-5.23206e-05
-0.000155917
4.11924e-05
-0.00016391
1.78693e-05
-0.000216153
-6.01958e-05
-0.000307035
-0.000144331
-0.000413313
-0.000211153
-0.000512595
-0.000257883
-0.000586806
-0.000288618
-0.000624748
-0.00031138
-0.000633938
-0.000335801
-0.000626095
-0.000360096
-0.000605536
-0.000375185
-0.000567282
-0.000370915
-0.000495104
-0.00033589
-0.000357731
-0.000255304
-0.000147527
-0.00010016
0.000103387
0.000129763
0.000388146
0.000378715
0.000706752
0.000613847
0.00108926
0.000841122
0.00150679
0.000863378
0.00189862
0.000676537
0.00120597
0.00174066
0.00509739
0.0105981
0.0146277
0.0125618
0.00389524
0.0112299
0.00322654
0.0103418
0.00226557
0.00953502
0.000902785
0.00853251
-0.000382407
0.00735348
-0.00139486
0.00608005
-0.0020662
0.004761
-0.00233338
0.00342959
-0.00221237
0.00216442
-0.00184073
0.00100946
-0.00126714
5.62405e-05
-0.000682485
-0.000566466
-0.000230947
-0.000860253
-3.93815e-05
-0.000957364
4.47904e-05
-0.000976846
6.06742e-05
-0.000992108
3.31314e-05
-0.00103547
-1.6835e-05
-0.00110799
-7.18145e-05
-0.00119695
-0.000122185
-0.00128872
-0.000166121
-0.00137432
-0.000203018
-0.00145152
-0.000234175
-0.00152714
-0.000260183
-0.00161038
-0.000276852
-0.0017098
-0.000275769
-0.00183502
-0.000245696
-0.00199892
-0.000171991
-0.00221692
-3.73025e-05
-0.00248349
0.000166409
-0.00280746
0.000453738
-0.00327126
0.000842518
-0.0039883
0.00133088
-0.00502975
0.00188258
-0.00651697
0.0023506
-0.00825548
0.00241504
-0.00777188
0.00125707
-0.00235748
0.00895059
0.00560306
0.00747204
0.00470509
0.00708016
0.00265745
0.00672936
0.00125358
0.00611933
0.000227631
0.00524677
-0.000522308
0.004178
-0.00099743
0.00298231
-0.00113769
0.00169055
-0.000920617
0.000429611
-0.000579783
-0.000610331
-0.000227202
-0.00127163
-2.11852e-05
-0.00156401
6.14287e-05
-0.00167834
7.49466e-05
-0.00170795
7.44015e-05
-0.00171338
6.61111e-05
-0.00172812
4.78706e-05
-0.00176668
2.17239e-05
-0.00183041
-8.0838e-06
-0.00191178
-4.08174e-05
-0.00200318
-7.47215e-05
-0.00210246
-0.000103741
-0.00221097
-0.000125665
-0.00233212
-0.000139024
-0.00246807
-0.000140911
-0.00261757
-0.00012626
-0.00277523
-8.80394e-05
-0.0029287
-1.85255e-05
-0.00306242
9.6426e-05
-0.00317483
0.00027881
-0.00327581
0.000554719
-0.00337729
0.000944005
-0.00348605
0.00143964
-0.00356947
0.001966
-0.00356775
0.00234887
-0.00330965
0.00215695
-0.00194973
-0.000102856
-0.00422389
-0.000826143
0.00648252
0.000741801
0.00313714
0.0014072
0.00199206
0.00164579
0.00101499
0.00158168
0.00029174
0.00121048
-0.000151107
0.000528047
-0.000314998
-0.000365378
-0.000244269
-0.00124241
-4.35896e-05
-0.00188742
6.52332e-05
-0.00222789
0.000113265
-0.00235855
0.000109478
-0.00238117
8.40409e-05
-0.00237048
6.4259e-05
-0.00234897
5.28888e-05
-0.00232795
4.5096e-05
-0.00231659
3.65069e-05
-0.00232027
2.54094e-05
-0.00233953
1.1175e-05
-0.0023732
-7.14727e-06
-0.00242172
-2.62055e-05
-0.00248312
-4.2335e-05
-0.00255533
-5.34559e-05
-0.00263574
-5.8612e-05
-0.00272026
-5.63904e-05
-0.00280225
-4.42735e-05
-0.0028722
-1.80878e-05
-0.00291765
2.69239e-05
-0.00291789
9.66672e-05
-0.00284754
0.000208458
-0.00267205
0.000379229
-0.00236008
0.000632031
-0.00190379
0.00098335
-0.0012892
0.00135141
-0.000299489
0.00135916
0.00114774
0.000709723
0.00164257
-0.000597686
-0.00248963
-0.0120482
-0.0155768
-0.00905384
-0.00588928
-0.00387496
-0.00284137
-0.00253461
-0.00267372
-0.00297879
-0.00321456
-0.00325048
-0.00317796
-0.00305756
-0.00294097
-0.00284981
-0.00277841
-0.00271835
-0.00266605
-0.00262228
-0.00258958
-0.00257112
-0.00257101
-0.00259005
-0.00262532
-0.00267183
-0.00272365
-0.00277341
-0.00281122
-0.00282303
-0.00279003
-0.0026875
-0.00247342
-0.00208881
-0.00145168
-0.000463515
0.000892322
0.00225562
0.00296939
0.00237589
)
;

boundaryField
{
    floor
    {
        type            calculated;
        value           nonuniform List<scalar> 
36
(
0
0
0
0
0
0
0
0
0
0
0
0
0
0
0
0
0
0
0
-4.83912e-06
-1.23785e-05
-1.857e-05
-2.36399e-05
-2.11163e-05
-1.96192e-05
-1.84536e-05
-2.35094e-06
-3.78387e-06
-4.35926e-06
-5.04456e-06
-3.65657e-06
-7.64361e-06
-1.10002e-05
-1.12613e-05
-1.38375e-05
-1.19385e-05
)
;
    }
    ceiling
    {
        type            calculated;
        value           nonuniform List<scalar> 
43
(
-4.18396e-05
-4.11748e-05
-4.04752e-05
-2.741e-05
-2.22648e-05
-1.85992e-05
-1.50234e-05
-1.20012e-05
-9.92611e-06
-8.49923e-06
-7.66497e-06
-7.28602e-06
-7.13866e-06
-7.11115e-06
-7.12245e-06
-7.14015e-06
-7.16707e-06
-7.20868e-06
-7.25812e-06
-7.28962e-06
-7.28846e-06
-7.25052e-06
-7.17123e-06
-7.06624e-06
-6.9407e-06
-6.79438e-06
-6.63455e-06
-6.4594e-06
-6.27626e-06
-6.07835e-06
-5.85939e-06
-5.62558e-06
-5.37668e-06
-5.10624e-06
-4.81183e-06
-4.42506e-06
-4.13959e-06
-4.04934e-06
-4.18172e-06
-3.6042e-06
6.94149e-06
4.1794e-06
-5.33158e-05
)
;
    }
    sWall
    {
        type            calculated;
        value           uniform -0.000241391;
    }
    nWall
    {
        type            calculated;
        value           nonuniform List<scalar> 6(-5.43174e-05 -6.54341e-05 -6.88131e-05 -8.33263e-05 -9.16834e-05 -0.000110143);
    }
    sideWalls
    {
        type            empty;
        value           nonuniform 0();
    }
    glass1
    {
        type            calculated;
        value           nonuniform List<scalar> 9(-6.04565e-05 -0.000163399 -0.000250418 -0.000324644 -0.000387715 -0.000440776 -0.000487278 -0.000543332 -0.000605855);
    }
    glass2
    {
        type            calculated;
        value           nonuniform List<scalar> 2(-0.00028641 -0.000317009);
    }
    sun
    {
        type            calculated;
        value           uniform 0;
    }
    Table_master
    {
        type            calculated;
        value           nonuniform List<scalar> 9(-1.5364e-07 -1.53789e-07 -1.53839e-07 -1.53869e-07 -1.5389e-07 -1.53902e-07 -1.53906e-07 -1.539e-07 -1.5387e-07);
    }
    Table_slave
    {
        type            calculated;
        value           nonuniform List<scalar> 9(1.53531e-07 1.53516e-07 1.53469e-07 1.53431e-07 1.53408e-07 1.53409e-07 1.53414e-07 1.53451e-07 1.53535e-07);
    }
    inlet
    {
        type            calculated;
        value           uniform -0.0106584;
    }
    outlet
    {
        type            calculated;
        value           nonuniform List<scalar> 2(0.0123315 0.00356977);
    }
}


// ************************************************************************* //
