/*--------------------------------*- C++ -*----------------------------------*\
  =========                 |
  \\      /  F ield         | OpenFOAM: The Open Source CFD Toolbox
   \\    /   O peration     | Website:  https://openfoam.org
    \\  /    A nd           | Version:  6
     \\/     M anipulation  |
\*---------------------------------------------------------------------------*/
FoamFile
{
    version     2.0;
    format      ascii;
    class       volScalarField;
    location    "30499.9999980516404";
    object      alphat;
}
// * * * * * * * * * * * * * * * * * * * * * * * * * * * * * * * * * * * * * //

dimensions      [1 -1 -1 0 0 0 0];

internalField   nonuniform List<scalar> 
778
(
0.00104101
0.00111056
0.00110654
0.00115455
0.00119855
0.00123851
0.00127571
0.00131158
0.0013477
0.0013861
0.00142274
0.00145757
0.00149191
0.00152884
0.00156736
0.000736749
0.0010558
0.00106438
0.00103865
0.000995541
0.000937888
0.000880439
0.000827556
0.000779915
0.000737213
0.000699158
0.000664971
0.000633821
0.000604742
0.00057644
0.000546846
0.000522251
0.00047268
0.0015247
0.00300737
0.00263937
0.00304647
0.0033418
0.00365485
0.00396707
0.00425479
0.00448643
0.00462138
0.00470082
0.00466847
0.00443609
0.0038597
0.00281918
0.00171636
0.00163646
0.00156648
0.00131874
0.00224663
0.00311454
0.00362739
0.00365154
0.00288114
0.00246412
0.00217498
0.00195542
0.00178075
0.00163189
0.00150035
0.00137795
0.00125821
0.00115074
0.00105807
0.00119139
0.000599345
0.0019342
0.00419891
0.00311337
0.00445341
0.00497606
0.00541817
0.00581959
0.00617281
0.00647208
0.00670689
0.00693456
0.00717449
0.0073955
0.00752789
0.00744264
0.00681599
0.00498564
0.0019216
0.00166346
0.00355799
0.00496633
0.00563374
0.00512491
0.00135238
0.00117604
0.00103991
0.000933342
0.000848522
0.000780062
0.000724238
0.000678849
0.000643466
0.000707297
0.000831906
0.00131653
0.000681899
0.00232918
0.00565861
0.00297903
0.00500689
0.00578066
0.00619436
0.00649831
0.00672301
0.00689063
0.00702662
0.00722023
0.00754787
0.00802646
0.00862877
0.00923475
0.0095345
0.00895518
0.0066832
0.00191356
0.00442865
0.00658894
0.00768839
0.00796148
0.00679874
0.00153942
0.00140035
0.0012927
0.00120311
0.00112674
0.00105813
0.000993449
0.000929227
0.000859893
0.000803218
0.000832285
0.00142443
0.000750993
0.00271846
0.00749076
0.0030056
0.00475915
0.00594884
0.0063015
0.00642916
0.00643359
0.00636918
0.00631224
0.00639309
0.00671123
0.00729564
0.00812372
0.00908429
0.00996942
0.010531
0.0105249
0.00944535
0.0096092
0.00982905
0.00986062
0.00966151
0.00904495
0.00719963
0.00621999
0.0055488
0.00500382
0.00446875
0.00395018
0.00344275
0.00293593
0.0024153
0.00185544
0.00141619
0.00141314
0.00111857
0.000895151
0.00117306
0.00113013
0.00310142
0.00954096
0.00353856
0.00401291
0.00569925
0.00609064
0.00605889
0.00584032
0.00552812
0.00527063
0.00526471
0.00559796
0.00626382
0.00722405
0.00834774
0.00947019
0.0104246
0.011034
0.0111445
0.0110319
0.0108357
0.0105582
0.0102022
0.00974935
0.00908806
0.00845062
0.00787164
0.00731224
0.00670777
0.00606196
0.00537202
0.00463213
0.00383765
0.00299487
0.00223275
0.00167665
0.00130202
0.00145126
0.00250986
0.00135394
0.00349219
0.0114361
0.00471542
0.00328759
0.00512043
0.00576079
0.00568943
0.00533618
0.00482397
0.00437337
0.00436007
0.00478067
0.0055429
0.00661666
0.00783795
0.00904642
0.0100855
0.0108289
0.0111702
0.0111427
0.0108972
0.0105262
0.010102
0.00967907
0.00927016
0.00889482
0.00854213
0.00816596
0.00771135
0.00716397
0.00651581
0.00576373
0.00491054
0.00397831
0.00306837
0.00222196
0.00163754
0.00145581
0.00254882
0.00159167
0.00382793
0.0128687
0.00642816
0.00313092
0.00405552
0.00510624
0.00525297
0.00496298
0.0043572
0.00374504
0.00388336
0.00443967
0.00529239
0.00639921
0.00766839
0.00893371
0.0100117
0.0107596
0.0110984
0.0110527
0.0107356
0.0102685
0.00976661
0.00932172
0.00897894
0.00873404
0.00854303
0.00833565
0.00804692
0.00764278
0.00710739
0.00643735
0.00563889
0.00473618
0.00379969
0.00285991
0.00201193
0.00134088
0.00359145
0.00206522
0.00392911
0.0121735
0.00795094
0.00404843
0.00275003
0.00336798
0.00394179
0.0039909
0.0035236
0.00342472
0.00378029
0.00443478
0.00535728
0.00653159
0.0078622
0.00916657
0.0102405
0.0109303
0.0111714
0.0110033
0.0105438
0.00994149
0.00934398
0.0088674
0.00856507
0.00841666
0.00834922
0.00826931
0.00810295
0.0078108
0.00737722
0.00680026
0.00608702
0.00525762
0.00435067
0.00333798
0.00198286
0.00166477
0.00534409
0.00237322
0.00384957
0.00981029
0.00820771
0.00555466
0.00367002
0.00284144
0.00269016
0.00281608
0.00305278
0.00342933
0.00396394
0.00470103
0.00570493
0.00697146
0.00837448
0.00969681
0.010714
0.0112727
0.0113297
0.0109524
0.010289
0.00952518
0.00884304
0.00837582
0.00816204
0.00813707
0.00818292
0.0081816
0.00807302
0.00783556
0.00746181
0.00695076
0.00630643
0.00553622
0.00460806
0.00318011
0.00148609
0.00318302
0.00522178
0.0023986
0.00360578
0.00838278
0.00793324
0.00635379
0.00489202
0.00393927
0.0034676
0.00336061
0.00355547
0.00391454
0.00443747
0.00521622
0.00632541
0.00771386
0.00918737
0.0104802
0.0113552
0.011679
0.0114486
0.0107784
0.00986761
0.00895454
0.00826008
0.00791225
0.0078729
0.00798676
0.00810043
0.00810212
0.00798679
0.0077561
0.00740525
0.00692754
0.00631841
0.00556275
0.00451033
0.00255903
0.00175755
0.00367308
0.00483455
0.00235606
0.0032829
0.00755723
0.00765091
0.00672344
0.00572158
0.00496681
0.00452224
0.00436355
0.00440329
0.0046205
0.00510189
0.00597305
0.0072556
0.00879216
0.0102944
0.0114542
0.0120487
0.0119962
0.0113617
0.0103301
0.00917719
0.00821292
0.00766854
0.00756054
0.00765689
0.00780534
0.00790217
0.0078741
0.00774029
0.00750793
0.00716759
0.00669942
0.00608575
0.00529889
0.00414926
0.00213556
0.00199036
0.00385061
0.00490476
0.00229752
0.00299324
0.00675852
0.00730367
0.00686696
0.00622479
0.00568485
0.00532573
0.00515023
0.00509881
0.00528639
0.00589974
0.00703905
0.00858977
0.0102492
0.011648
0.0124818
0.0125951
0.012
0.0108636
0.00946824
0.00820131
0.00739333
0.0070455
0.00700832
0.0071068
0.00723114
0.00730938
0.00728631
0.00715385
0.00692219
0.00657461
0.00607913
0.00540412
0.00453557
0.00345064
0.00213518
0.0020632
0.00394492
0.00538881
0.00236302
0.00300394
0.0067073
0.00746212
0.00694896
0.00642927
0.00600358
0.00569672
0.00549789
0.00549276
0.00594867
0.00703119
0.00864409
0.0104574
0.0120504
0.0130574
0.0132688
0.0126675
0.0113935
0.00976244
0.00818339
0.00704537
0.00639083
0.006091
0.00601409
0.00605391
0.00613114
0.00619048
0.00618181
0.00604715
0.00579447
0.00538786
0.0047791
0.00397235
0.00310366
0.00241499
0.00205314
0.00235474
0.00423964
0.00533427
0.0024665
0.00270998
0.00281975
0.00416559
0.00489788
0.00512529
0.00513005
0.00508162
0.00518003
0.00581569
0.00716474
0.00905634
0.011088
0.0128117
0.0138619
0.0140331
0.0132961
0.0118311
0.00990772
0.00807533
0.00665541
0.00571963
0.00518845
0.00493602
0.00483116
0.00478637
0.00475738
0.00472407
0.00466457
0.00449708
0.00420445
0.00375082
0.00313649
0.00251044
0.00211045
0.00204355
0.00228597
0.00296963
0.00488717
0.00557779
0.00249176
0.000964898
0.00173969
0.00266812
0.0034113
0.00427574
0.00575177
0.00791997
0.0103186
0.0124874
0.0140876
0.0148947
0.0147739
0.0137472
0.0119306
0.00978669
0.00776858
0.00618725
0.00514165
0.00457121
0.00428617
0.00412229
0.00399327
0.00386586
0.00373263
0.0035962
0.00345694
0.00329443
0.00306227
0.00275722
0.00241724
0.00217858
0.00217956
0.0024444
0.00293713
0.00370912
0.00503808
0.00592491
0.00242539
0.0017872
0.00246812
0.00358852
0.00559229
0.00831527
0.0110363
0.0131413
0.0146466
0.0155333
0.0157403
0.0151601
0.013696
0.0115828
0.00923651
0.00712661
0.00558231
0.0046974
0.00428155
0.004084
0.00395784
0.00384507
0.00372988
0.00361346
0.003502
0.0033998
0.00330463
0.00320317
0.00307586
0.00292576
0.00278003
0.00271128
0.00281387
0.00312616
0.00360484
0.00416358
0.00463667
0.00471964
0.00234343
0.003239
0.00786093
0.00724832
0.00648223
0.00822565
0.0109579
0.0132593
0.0148067
0.0156125
0.0157926
0.0154306
0.0144959
0.012958
0.0108917
0.00861275
0.0066176
0.00531684
0.00468295
0.0044112
0.00426709
0.004148
0.00402265
0.00388995
0.00376098
0.00365093
0.00357369
0.00353729
0.00354009
0.00356698
0.00358628
0.00359181
0.00360987
0.00367781
0.00384417
0.00415114
0.00460398
0.00515644
0.00565716
0.00583655
0.00240053
0.00309575
0.0059794
0.00772179
0.00987958
0.010958
0.0120707
0.0127163
0.0128684
0.0126149
0.0120121
0.0110743
0.00979959
0.00826729
0.00671634
0.00547757
0.00472259
0.00434978
0.00417852
0.00407606
0.00398133
0.00387402
0.00375399
0.00363173
0.00352426
0.00345229
0.00343639
0.00349171
0.00362187
0.00381163
0.00401552
0.00416977
0.00430445
0.00447091
0.00471401
0.00507061
0.00556356
0.00619936
0.00702519
0.00647115
0.00271371
0.00289441
0.00248056
0.0024677
0.00253875
0.00259686
0.0025166
0.00236243
0.00218176
0.00199864
0.00182247
0.0016573
0.0015091
0.00138777
0.00130296
0.00125611
0.00123817
0.00123752
0.00124337
0.00125189
0.00126226
0.00127544
0.00129338
0.00131836
0.00135219
0.00139539
0.00144674
0.00150357
0.00156279
0.00162205
0.00168067
0.0017398
0.00179956
0.00186335
0.00193563
0.00201974
0.00211615
0.00222164
0.00233653
0.00247378
0.00248014
)
;

boundaryField
{
    floor
    {
        type            compressible::alphatWallFunction;
        Prt             0.85;
        value           nonuniform List<scalar> 
36
(
0.000219887
0.000104471
0.000149996
0.000151196
0.000147593
0.000141536
0.000133386
0.000125208
0.000117623
0.000110741
0.00010453
9.89589e-05
9.39224e-05
8.93061e-05
8.49716e-05
8.07284e-05
7.6264e-05
7.25312e-05
6.49407e-05
6.49398e-05
8.41656e-05
9.64215e-05
0.000106541
0.000127312
0.000166319
0.000160378
0.000219885
0.000239718
0.000229106
0.000219764
0.00010447
0.000219762
0.000186302
0.000266728
0.000232691
0.000265675
)
;
    }
    ceiling
    {
        type            compressible::alphatWallFunction;
        Prt             0.85;
        value           nonuniform List<scalar> 
43
(
0.000391135
0.000338889
0.000337257
0.000346304
0.000353691
0.000343543
0.000323916
0.000300726
0.000276999
0.000253939
0.000232085
0.000212262
0.000195867
0.000184313
0.000177903
0.000175455
0.000175374
0.000176187
0.000177363
0.000178787
0.000180587
0.000183026
0.000186412
0.000190994
0.000196841
0.000203783
0.000211455
0.000219432
0.000227392
0.000235235
0.000243116
0.000251045
0.000259462
0.000268947
0.000279929
0.000292456
0.000306098
0.000320892
0.000338481
0.000339175
0.000368284
0.000382083
0.000248593
)
;
    }
    sWall
    {
        type            compressible::alphatWallFunction;
        Prt             0.85;
        value           nonuniform List<scalar> 9(0.000507616 0.000477876 0.000438172 0.000402217 0.000403543 0.000366709 0.000432107 0.000414395 0.000389384);
    }
    nWall
    {
        type            compressible::alphatWallFunction;
        Prt             0.85;
        value           nonuniform List<scalar> 
14
(
0.000159931
0.000190655
0.000222674
0.000327931
0.000322495
0.000315075
0.000323816
0.000336765
0.000339965
0.000331131
0.000320845
0.0003285
0.00036816
0.000338484
)
;
    }
    sideWalls
    {
        type            empty;
    }
    glass1
    {
        type            compressible::alphatWallFunction;
        Prt             0.85;
        value           nonuniform List<scalar> 9(0.000143931 0.000209139 0.000262698 0.000313309 0.000362385 0.000410009 0.00045802 0.000498877 0.000511236);
    }
    glass2
    {
        type            compressible::alphatWallFunction;
        Prt             0.85;
        value           nonuniform List<scalar> 2(0.0002828 0.000322356);
    }
    sun
    {
        type            compressible::alphatWallFunction;
        Prt             0.85;
        value           nonuniform List<scalar> 
14
(
0.000147965
0.000157649
0.000157088
0.000163753
0.000169832
0.000175331
0.000180433
0.000185337
0.000190259
0.000195475
0.000200438
0.000205142
0.000209766
0.000214726
)
;
    }
    Table_master
    {
        type            compressible::alphatWallFunction;
        Prt             0.85;
        value           nonuniform List<scalar> 9(0.000191152 0.000166973 0.000148024 0.000132991 0.000120881 0.000111001 0.000102869 9.62009e-05 9.09654e-05);
    }
    Table_slave
    {
        type            compressible::alphatWallFunction;
        Prt             0.85;
        value           nonuniform List<scalar> 9(0.000216414 0.000197669 0.000183015 0.000170715 0.000160145 0.00015058 0.000141497 0.000132409 0.000122515);
    }
    inlet
    {
        type            fixedValue;
        value           uniform 1.94e-05;
    }
    outlet
    {
        type            zeroGradient;
    }
}


// ************************************************************************* //
