/*--------------------------------*- C++ -*----------------------------------*\
  =========                 |
  \\      /  F ield         | OpenFOAM: The Open Source CFD Toolbox
   \\    /   O peration     | Website:  https://openfoam.org
    \\  /    A nd           | Version:  6
     \\/     M anipulation  |
\*---------------------------------------------------------------------------*/
FoamFile
{
    version     2.0;
    format      ascii;
    class       volVectorField;
    location    "30499.9999980516404";
    object      U;
}
// * * * * * * * * * * * * * * * * * * * * * * * * * * * * * * * * * * * * * //

dimensions      [0 1 -1 0 0 0 0];

internalField   nonuniform List<vector> 
778
(
(0.0655975 0.0794072 0)
(-0.155178 0.0157645 0)
(-0.164303 0.0146232 0)
(-0.192417 0.0122739 0)
(-0.216851 0.00872483 0)
(-0.236911 0.00474528 0)
(-0.25204 0.000419756 0)
(-0.261815 -0.00436449 0)
(-0.265722 -0.00980628 0)
(-0.262757 -0.0161863 0)
(-0.250963 -0.0242603 0)
(-0.226271 -0.0348812 0)
(-0.18615 -0.0504062 0)
(-0.144208 -0.0751817 0)
(-0.150089 -0.108582 0)
(0.0546503 0.0355152 0)
(0.0157594 -0.0268961 0)
(0.0449694 -0.0232849 0)
(0.0694026 -0.0161798 0)
(0.0844948 -0.0103681 0)
(0.0917246 -0.00641813 0)
(0.094563 -0.00433445 0)
(0.0955893 -0.00331246 0)
(0.0960363 -0.00272768 0)
(0.0962059 -0.00231599 0)
(0.0960829 -0.00195215 0)
(0.0955579 -0.00151145 0)
(0.0943001 -0.000756584 0)
(0.0914503 0.000849259 0)
(0.0852393 0.00407548 0)
(0.0736852 0.00778981 0)
(0.0599913 0.0116448 0)
(-0.00786616 0.0300099 0)
(0.258396 0.167394 0)
(-0.161236 0.0483925 0)
(-0.141603 0.0459773 0)
(-0.174004 0.041611 0)
(-0.199364 0.0356651 0)
(-0.220083 0.0291289 0)
(-0.236113 0.0220615 0)
(-0.24737 0.0142359 0)
(-0.253554 0.00530752 0)
(-0.253885 -0.00513976 0)
(-0.247743 -0.0170715 0)
(-0.23405 -0.0308453 0)
(-0.214151 -0.0480802 0)
(-0.197582 -0.0699732 0)
(-0.194077 -0.0826583 0)
(-0.16647 -0.0425588 0)
(-0.105401 -0.0363834 0)
(-0.0983238 -0.0444932 0)
(0.109343 -0.0420904 0)
(0.0644536 -0.0412007 0)
(0.0719148 -0.0323208 0)
(0.0859284 -0.0207769 0)
(0.0938704 -0.0105217 0)
(0.0961346 -0.003653 0)
(0.0959033 -0.000184642 0)
(0.0955104 0.00126155 0)
(0.0954682 0.00190143 0)
(0.0955454 0.00226867 0)
(0.095551 0.00258822 0)
(0.0954507 0.00313119 0)
(0.09516 0.00441528 0)
(0.0939025 0.00773563 0)
(0.0883031 0.0167778 0)
(0.0745363 0.0253795 0)
(0.0631535 0.0330282 0)
(-0.0518533 0.0636327 0)
(0.429974 0.253957 0)
(-0.194236 0.084761 0)
(-0.112781 0.0784268 0)
(-0.148243 0.066948 0)
(-0.170671 0.0554937 0)
(-0.188762 0.0437258 0)
(-0.202599 0.0313505 0)
(-0.212293 0.0180229 0)
(-0.21765 0.00342231 0)
(-0.218017 -0.012605 0)
(-0.212771 -0.0302997 0)
(-0.201674 -0.0498939 0)
(-0.186038 -0.0715699 0)
(-0.169501 -0.0932293 0)
(-0.151126 -0.104588 0)
(-0.12028 -0.0931644 0)
(-0.0795734 -0.0949658 0)
(-0.0714519 -0.107632 0)
(0.0921547 -0.0881419 0)
(0.062583 -0.0657802 0)
(0.0743873 -0.0461915 0)
(0.0880399 -0.0293391 0)
(0.0949134 -0.015013 0)
(0.0920416 -0.0120911 0)
(0.0878021 -0.00798162 0)
(0.0854263 -0.00578815 0)
(0.084737 -0.00455704 0)
(0.0847179 -0.00379461 0)
(0.0849739 -0.00322488 0)
(0.0856253 -0.00259921 0)
(0.0873874 -0.00143883 0)
(0.0920768 0.0029251 0)
(0.0902455 0.0251228 0)
(0.073453 0.0424069 0)
(0.070141 0.0575829 0)
(-0.0897796 0.101043 0)
(0.578536 0.325844 0)
(-0.240105 0.121814 0)
(-0.0808388 0.109216 0)
(-0.121578 0.0898434 0)
(-0.139008 0.0740602 0)
(-0.153066 0.0586322 0)
(-0.163823 0.0427585 0)
(-0.171418 0.0258259 0)
(-0.17563 0.00722481 0)
(-0.175702 -0.0134985 0)
(-0.171021 -0.0364384 0)
(-0.16146 -0.0614338 0)
(-0.147596 -0.0873672 0)
(-0.130617 -0.110312 0)
(-0.109656 -0.12322 0)
(-0.0821748 -0.124561 0)
(-0.0525628 -0.126392 0)
(-0.0334384 -0.123213 0)
(0.0163 -0.0568212 0)
(0.060798 -0.093019 0)
(0.0684777 -0.0792116 0)
(0.0791069 -0.0588859 0)
(0.0916021 -0.0396741 0)
(0.102939 -0.0210254 0)
(0.115696 -0.013291 0)
(0.126908 -0.00887311 0)
(0.132558 -0.00563935 0)
(0.133573 -0.00311742 0)
(0.131064 -0.000884315 0)
(0.125609 0.00128907 0)
(0.117086 0.00366966 0)
(0.104732 0.00672155 0)
(0.0854968 0.0111474 0)
(0.0716289 0.0368241 0)
(0.0603752 0.0605861 0)
(0.0763914 0.0834954 0)
(-0.117191 0.13746 0)
(0.70571 0.383685 0)
(-0.287679 0.157012 0)
(-0.0477042 0.133775 0)
(-0.0962992 0.106909 0)
(-0.107749 0.0875868 0)
(-0.116779 0.0691707 0)
(-0.123565 0.0504548 0)
(-0.128222 0.0306074 0)
(-0.130579 0.00875506 0)
(-0.129773 -0.0157818 0)
(-0.125276 -0.0430393 0)
(-0.116656 -0.0726548 0)
(-0.103936 -0.102812 0)
(-0.0874619 -0.129091 0)
(-0.0675123 -0.145794 0)
(-0.0441681 -0.152275 0)
(-0.0203068 -0.152381 0)
(0.000235043 -0.143736 0)
(0.0307703 -0.115017 0)
(0.0569566 -0.109376 0)
(0.0705576 -0.0924751 0)
(0.0807064 -0.0713273 0)
(0.0907735 -0.0508941 0)
(0.100337 -0.0328607 0)
(0.109469 -0.019463 0)
(0.116532 -0.0100648 0)
(0.119992 -0.00335385 0)
(0.120219 0.00191267 0)
(0.117823 0.00646764 0)
(0.113179 0.0108239 0)
(0.106319 0.0154914 0)
(0.0971799 0.0211729 0)
(0.0852738 0.0291719 0)
(0.0737553 0.047175 0)
(0.0633433 0.0712437 0)
(0.0949674 0.0994607 0)
(0.0173883 0.138656 0)
(0.0968343 0.182734 0)
(0.140386 0.14747 0)
(-0.223472 0.202426 0)
(0.81041 0.431981 0)
(-0.331314 0.190685 0)
(-0.0173268 0.150246 0)
(-0.0733782 0.117514 0)
(-0.0786038 0.0955049 0)
(-0.0822228 0.0749423 0)
(-0.0844731 0.0543482 0)
(-0.0855053 0.032737 0)
(-0.0852434 0.0088902 0)
(-0.0825619 -0.018369 0)
(-0.0773924 -0.0489778 0)
(-0.0687634 -0.0824576 0)
(-0.0567667 -0.116475 0)
(-0.0417079 -0.146298 0)
(-0.0247226 -0.165998 0)
(-0.00633345 -0.174505 0)
(0.0120553 -0.172758 0)
(0.0279768 -0.161022 0)
(0.0461489 -0.139346 0)
(0.0626102 -0.122378 0)
(0.0732934 -0.102547 0)
(0.0809808 -0.0805203 0)
(0.0877474 -0.0591991 0)
(0.0939414 -0.0403351 0)
(0.0992971 -0.0251549 0)
(0.10302 -0.0137848 0)
(0.104658 -0.00507519 0)
(0.104256 0.00213361 0)
(0.102116 0.00861422 0)
(0.0984871 0.0148811 0)
(0.093532 0.0214583 0)
(0.0874882 0.0289784 0)
(0.0806304 0.0383589 0)
(0.0749167 0.0527525 0)
(0.0697798 0.0727384 0)
(0.0919631 0.0985093 0)
(0.0741466 0.107488 0)
(0.0909817 0.0484191 0)
(0.146316 -0.0353416 0)
(-0.324313 0.105869 0)
(0.879875 0.474695 0)
(-0.36863 0.220971 0)
(0.0037045 0.15556 0)
(-0.0526751 0.121568 0)
(-0.0522226 0.0978462 0)
(-0.0510392 0.0758171 0)
(-0.0490292 0.054046 0)
(-0.0465056 0.0315489 0)
(-0.0433064 0.00679936 0)
(-0.0373321 -0.0222573 0)
(-0.0302481 -0.0553136 0)
(-0.0204587 -0.0918826 0)
(-0.00865338 -0.128845 0)
(0.00454844 -0.161212 0)
(0.0175947 -0.181863 0)
(0.0303773 -0.190211 0)
(0.0421849 -0.187234 0)
(0.0524943 -0.174433 0)
(0.0624692 -0.154086 0)
(0.071052 -0.132441 0)
(0.076585 -0.109441 0)
(0.0800542 -0.0859624 0)
(0.0826643 -0.0638081 0)
(0.0849194 -0.0443237 0)
(0.0867786 -0.0282253 0)
(0.0879045 -0.0154187 0)
(0.0880661 -0.00513081 0)
(0.0871099 0.00354946 0)
(0.0852152 0.011298 0)
(0.0825301 0.0186312 0)
(0.0792341 0.026043 0)
(0.075615 0.0340308 0)
(0.0720925 0.0431501 0)
(0.0700682 0.0546989 0)
(0.0689795 0.0690963 0)
(0.0821865 0.0881315 0)
(0.08564 0.0916623 0)
(0.0913158 0.0548678 0)
(0.181187 0.0272305 0)
(-0.277902 0.155621 0)
(0.927917 0.517154 0)
(-0.383147 0.234175 0)
(0.0168819 0.132977 0)
(-0.0273373 0.116651 0)
(-0.0265653 0.0949127 0)
(-0.0227533 0.0724176 0)
(-0.0176317 0.0500958 0)
(-0.012345 0.0272497 0)
(-0.00535294 0.00185486 0)
(0.00463468 -0.0307153 0)
(0.0143737 -0.0652821 0)
(0.0256782 -0.103266 0)
(0.0373085 -0.140779 0)
(0.0479577 -0.172063 0)
(0.0570179 -0.192273 0)
(0.0644838 -0.199784 0)
(0.0701884 -0.195386 0)
(0.0741351 -0.181208 0)
(0.0768335 -0.160134 0)
(0.0781975 -0.136149 0)
(0.0778444 -0.111152 0)
(0.0763512 -0.0866509 0)
(0.0745503 -0.0641141 0)
(0.0729683 -0.0445334 0)
(0.0717417 -0.0282772 0)
(0.0707287 -0.0150608 0)
(0.0697234 -0.00419187 0)
(0.0684303 0.00509511 0)
(0.0669476 0.0133717 0)
(0.0652482 0.0211141 0)
(0.0634147 0.0287376 0)
(0.0616411 0.0365829 0)
(0.0602503 0.0449251 0)
(0.0601563 0.054221 0)
(0.0613166 0.0644486 0)
(0.0704981 0.0772827 0)
(0.0810735 0.080664 0)
(0.0821926 0.0618202 0)
(0.238716 0.0567173 0)
(-0.548116 0.234576 0)
(1.01128 0.506816 0)
(-0.137198 0.296346 0)
(0.0410865 0.161514 0)
(0.0406153 0.122066 0)
(0.0130954 0.0919432 0)
(0.00867214 0.0653236 0)
(0.0141102 0.0413455 0)
(0.0207553 0.0169378 0)
(0.0325964 -0.0110554 0)
(0.0440875 -0.0421585 0)
(0.0559834 -0.0768816 0)
(0.0682656 -0.114565 0)
(0.0793834 -0.150994 0)
(0.0878426 -0.180446 0)
(0.0930107 -0.198487 0)
(0.0950127 -0.203688 0)
(0.094265 -0.197082 0)
(0.091318 -0.181075 0)
(0.0868473 -0.158707 0)
(0.0813019 -0.133298 0)
(0.0749736 -0.10729 0)
(0.0684647 -0.0825133 0)
(0.0625004 -0.060319 0)
(0.0576019 -0.0414236 0)
(0.0539568 -0.0258988 0)
(0.0514496 -0.0132429 0)
(0.049794 -0.00268793 0)
(0.0485826 0.00644563 0)
(0.0477659 0.014647 0)
(0.0471145 0.0223443 0)
(0.0465722 0.02986 0)
(0.0461827 0.0373952 0)
(0.0460849 0.0450213 0)
(0.0467638 0.052749 0)
(0.0483546 0.0601515 0)
(0.0547456 0.0675114 0)
(0.0661516 0.0656661 0)
(0.0639081 0.039275 0)
(0.290646 0.0714484 0)
(-0.74716 0.306961 0)
(0.779313 0.395689 0)
(0.000902337 0.319479 0)
(0.0934265 0.218898 0)
(0.110657 0.155139 0)
(0.0772325 0.106773 0)
(0.0598532 0.0674724 0)
(0.0582795 0.0356691 0)
(0.0624668 0.00631346 0)
(0.0739355 -0.0235247 0)
(0.0855416 -0.0551009 0)
(0.0977624 -0.0897537 0)
(0.109629 -0.12619 0)
(0.118974 -0.15991 0)
(0.124024 -0.185595 0)
(0.124191 -0.199677 0)
(0.119914 -0.201314 0)
(0.112151 -0.191849 0)
(0.101979 -0.173812 0)
(0.0904389 -0.150224 0)
(0.0783706 -0.124123 0)
(0.0664661 -0.0980568 0)
(0.0554669 -0.0739552 0)
(0.0461085 -0.0530614 0)
(0.038868 -0.0358084 0)
(0.0338426 -0.021959 0)
(0.0307685 -0.0107222 0)
(0.0291574 -0.00119682 0)
(0.0285228 0.00722673 0)
(0.0285637 0.0149786 0)
(0.0289416 0.0224142 0)
(0.0294992 0.0297577 0)
(0.0301259 0.0371217 0)
(0.0307001 0.0444913 0)
(0.0311319 0.0517174 0)
(0.0308099 0.0582531 0)
(0.0307168 0.0636394 0)
(0.0171978 0.0631989 0)
(0.014984 0.0903285 0)
(0.0659412 0.172191 0)
(-0.633587 0.309702 0)
(0.617243 0.220733 0)
(0.00474742 0.298067 0)
(0.113079 0.241512 0)
(0.148362 0.177506 0)
(0.130941 0.123435 0)
(0.117926 0.0777321 0)
(0.115077 0.0387641 0)
(0.117271 0.0032525 0)
(0.123677 -0.0308605 0)
(0.131944 -0.0651062 0)
(0.141657 -0.100514 0)
(0.150534 -0.135283 0)
(0.155631 -0.165069 0)
(0.155024 -0.185562 0)
(0.14841 -0.194461 0)
(0.136697 -0.19178 0)
(0.121361 -0.179236 0)
(0.103905 -0.159377 0)
(0.0857019 -0.135103 0)
(0.0678614 -0.10921 0)
(0.0513392 -0.0841903 0)
(0.0370351 -0.0619333 0)
(0.0257197 -0.0435182 0)
(0.0176943 -0.0289868 0)
(0.0127317 -0.0176913 0)
(0.0101451 -0.00845856 0)
(0.00918286 -0.000331012 0)
(0.00937432 0.00716819 0)
(0.0102239 0.0143581 0)
(0.0114708 0.0214846 0)
(0.0129388 0.0286998 0)
(0.0144261 0.0361253 0)
(0.015595 0.043842 0)
(0.0158946 0.0519249 0)
(0.0142443 0.0603399 0)
(0.00995996 0.0701074 0)
(-0.022797 0.0959028 0)
(-0.0188585 0.142301 0)
(0.0123173 0.186807 0)
(-0.545228 0.208429 0)
(0.570781 0.118324 0)
(-0.0202276 0.258566 0)
(0.113743 0.229851 0)
(0.165095 0.176006 0)
(0.166766 0.126099 0)
(0.164436 0.080976 0)
(0.165443 0.0398114 0)
(0.16843 0.00143824 0)
(0.172431 -0.0355795 0)
(0.178055 -0.0720428 0)
(0.184257 -0.107596 0)
(0.187947 -0.139508 0)
(0.18611 -0.163949 0)
(0.177377 -0.17814 0)
(0.1622 -0.181289 0)
(0.142125 -0.174274 0)
(0.119085 -0.159096 0)
(0.0948341 -0.138168 0)
(0.0709651 -0.1142 0)
(0.0487222 -0.0897059 0)
(0.0292992 -0.0670951 0)
(0.0137644 -0.0481481 0)
(0.00277075 -0.033591 0)
(-0.0040271 -0.0226555 0)
(-0.00746349 -0.0143841 0)
(-0.00892072 -0.00717221 0)
(-0.00909693 -0.000359327 0)
(-0.00827749 0.00628711 0)
(-0.00690834 0.0129192 0)
(-0.00506623 0.0196798 0)
(-0.00287578 0.0267108 0)
(-0.000492374 0.0342743 0)
(0.0017117 0.0426551 0)
(0.00302684 0.0523343 0)
(0.00236452 0.0642208 0)
(-0.000870149 0.0825261 0)
(-0.0294956 0.124497 0)
(-0.0230567 0.182437 0)
(0.0112105 0.183111 0)
(-0.517211 0.0788287 0)
(0.628518 0.0534257 0)
(0.00939091 0.197235 0)
(0.113799 0.196941 0)
(0.175097 0.157896 0)
(0.191345 0.117604 0)
(0.198006 0.0771295 0)
(0.203363 0.037066 0)
(0.208623 -0.00177376 0)
(0.213209 -0.0399296 0)
(0.217599 -0.0767213 0)
(0.219467 -0.109991 0)
(0.215648 -0.136625 0)
(0.204264 -0.154078 0)
(0.185412 -0.161392 0)
(0.160705 -0.159126 0)
(0.1323 -0.148666 0)
(0.102425 -0.132048 0)
(0.0727871 -0.111345 0)
(0.0451562 -0.0890871 0)
(0.0207648 -0.0674932 0)
(0.00124434 -0.0489527 0)
(-0.0122946 -0.0351708 0)
(-0.0200461 -0.0259155 0)
(-0.0241804 -0.0188755 0)
(-0.026018 -0.0127864 0)
(-0.0265054 -0.00690878 0)
(-0.026096 -0.000993678 0)
(-0.0249153 0.00500175 0)
(-0.0232777 0.011102 0)
(-0.0210886 0.0173955 0)
(-0.0183752 0.0240427 0)
(-0.0151667 0.0313749 0)
(-0.0116206 0.0399377 0)
(-0.00821851 0.0507154 0)
(-0.00588469 0.0655777 0)
(-0.0021577 0.0890252 0)
(-0.0118377 0.133514 0)
(-0.01146 0.204064 0)
(0.119786 0.203671 0)
(-0.449939 0.045856 0)
(0.471999 0.0747176 0)
(-0.132076 0.137578 0)
(0.0941476 0.133321 0)
(0.172604 0.116782 0)
(0.203703 0.0952591 0)
(0.217987 0.0642199 0)
(0.228004 0.0281134 0)
(0.237157 -0.00932552 0)
(0.243637 -0.0456809 0)
(0.245227 -0.0785271 0)
(0.239305 -0.105219 0)
(0.224525 -0.123751 0)
(0.201418 -0.133332 0)
(0.171896 -0.134433 0)
(0.138515 -0.128298 0)
(0.103541 -0.116176 0)
(0.0692461 -0.0998966 0)
(0.0368184 -0.0810642 0)
(0.00863674 -0.0622146 0)
(-0.0144446 -0.0454206 0)
(-0.0288116 -0.0343832 0)
(-0.0373853 -0.0270324 0)
(-0.0419421 -0.0216611 0)
(-0.0441153 -0.0169356 0)
(-0.0447891 -0.0122472 0)
(-0.0445066 -0.00729201 0)
(-0.0435747 -0.0020213 0)
(-0.0420672 0.00347295 0)
(-0.0402904 0.00906739 0)
(-0.037979 0.0147907 0)
(-0.0350406 0.020817 0)
(-0.0313606 0.027502 0)
(-0.0268686 0.0355039 0)
(-0.0217614 0.046141 0)
(-0.0166205 0.0619653 0)
(-0.0085765 0.0864334 0)
(-0.000121158 0.125331 0)
(0.00281034 0.187326 0)
(0.163639 0.194946 0)
(-0.342289 0.109612 0)
(0.723903 0.13441 0)
(0.0818485 0.115213 0)
(0.149641 0.0992121 0)
(0.222238 0.0804757 0)
(0.24387 0.0698492 0)
(0.248661 0.0474701 0)
(0.255014 0.0172155 0)
(0.261182 -0.0151447 0)
(0.260276 -0.0451651 0)
(0.249849 -0.0698958 0)
(0.229681 -0.0876579 0)
(0.201361 -0.0980387 0)
(0.167265 -0.101402 0)
(0.129906 -0.0987492 0)
(0.0917345 -0.0913186 0)
(0.0541472 -0.0797638 0)
(0.0197718 -0.0656989 0)
(-0.0118365 -0.0502835 0)
(-0.034423 -0.0384258 0)
(-0.0494545 -0.0304716 0)
(-0.0583282 -0.0256898 0)
(-0.0633531 -0.0223329 0)
(-0.0659373 -0.0193799 0)
(-0.0669382 -0.016203 0)
(-0.0668054 -0.012545 0)
(-0.0658534 -0.00830148 0)
(-0.0643454 -0.003493 0)
(-0.0623839 0.00172037 0)
(-0.0604688 0.00699682 0)
(-0.0583378 0.0122156 0)
(-0.0557842 0.0175539 0)
(-0.0526963 0.0233599 0)
(-0.0489529 0.0304016 0)
(-0.0444775 0.0402991 0)
(-0.0391063 0.0553598 0)
(-0.0303243 0.0764421 0)
(-0.0139512 0.102319 0)
(0.00324477 0.143898 0)
(0.180937 0.167214 0)
(-0.325397 0.17073 0)
(0.191907 0.0880239 0)
(0.225699 0.0998105 0)
(0.246417 0.0700983 0)
(0.242474 0.0396177 0)
(0.239688 0.0117953 0)
(0.234661 -0.0132787 0)
(0.219951 -0.0337551 0)
(0.196299 -0.0488298 0)
(0.166073 -0.0584946 0)
(0.131709 -0.0632472 0)
(0.0949873 -0.0634461 0)
(0.0577618 -0.0597976 0)
(0.0219277 -0.0531344 0)
(-0.0132506 -0.0435725 0)
(-0.0409277 -0.0344844 0)
(-0.0618253 -0.0273779 0)
(-0.0758528 -0.0232507 0)
(-0.0847564 -0.0211175 0)
(-0.090227 -0.0200104 0)
(-0.093558 -0.0189721 0)
(-0.0953762 -0.0175763 0)
(-0.0959834 -0.0155985 0)
(-0.0955517 -0.0129084 0)
(-0.0942554 -0.00941924 0)
(-0.0923293 -0.00510738 0)
(-0.0899977 -9.84539e-05 0)
(-0.08755 0.00517885 0)
(-0.0856807 0.0103398 0)
(-0.0839484 0.0154885 0)
(-0.0823807 0.0210285 0)
(-0.0808062 0.0277407 0)
(-0.0787259 0.0367993 0)
(-0.0757293 0.0490947 0)
(-0.0702819 0.0633402 0)
(-0.0551991 0.0754461 0)
(-0.0240743 0.0890524 0)
(0.153388 0.141398 0)
(-0.439487 0.23485 0)
(0.451219 0.209618 0)
(0.206586 0.178776 0)
(0.152951 0.1188 0)
(0.139765 0.0638981 0)
(0.128308 0.025607 0)
(0.114244 0.00144959 0)
(0.0987894 -0.013315 0)
(0.0777993 -0.0224826 0)
(0.0532619 -0.0280732 0)
(0.026293 -0.0304493 0)
(-0.00334881 -0.0295039 0)
(-0.0325169 -0.0261243 0)
(-0.0586395 -0.0216723 0)
(-0.0807157 -0.0174571 0)
(-0.0972206 -0.0149618 0)
(-0.108774 -0.0140502 0)
(-0.116588 -0.0144328 0)
(-0.122102 -0.0152384 0)
(-0.126157 -0.0159805 0)
(-0.129105 -0.016378 0)
(-0.131025 -0.0162718 0)
(-0.131907 -0.0155082 0)
(-0.131747 -0.0139164 0)
(-0.130593 -0.0113193 0)
(-0.128594 -0.00757815 0)
(-0.125965 -0.0026941 0)
(-0.122799 0.00296612 0)
(-0.120173 0.00860689 0)
(-0.118263 0.0141028 0)
(-0.116833 0.0200311 0)
(-0.115615 0.027192 0)
(-0.114277 0.0363755 0)
(-0.11358 0.0479213 0)
(-0.115313 0.0611905 0)
(-0.115241 0.0749015 0)
(-0.0986846 0.094089 0)
(-0.0922029 0.144999 0)
(-0.547777 0.216397 0)
(0.361931 -0.414688 0)
(-0.346124 -0.513067 0)
(-0.218729 -0.0279207 0)
(-0.0928383 0.11098 0)
(-0.0535925 0.0926336 0)
(-0.0313515 0.0545312 0)
(-0.0266165 0.0282808 0)
(-0.0316435 0.0114626 0)
(-0.0403372 0.000488838 0)
(-0.0506747 -0.00676441 0)
(-0.0641754 -0.0111333 0)
(-0.0792619 -0.0134844 0)
(-0.0949527 -0.0149455 0)
(-0.11022 -0.016737 0)
(-0.124006 -0.0192099 0)
(-0.135289 -0.0220693 0)
(-0.14364 -0.0248053 0)
(-0.149761 -0.0268626 0)
(-0.154654 -0.0282806 0)
(-0.15894 -0.0291603 0)
(-0.162757 -0.0295562 0)
(-0.165994 -0.0294494 0)
(-0.16846 -0.0287896 0)
(-0.169977 -0.0275044 0)
(-0.170444 -0.0254984 0)
(-0.169864 -0.0226529 0)
(-0.168357 -0.0188347 0)
(-0.166132 -0.0139147 0)
(-0.163329 -0.00782208 0)
(-0.160025 -0.000593299 0)
(-0.156867 0.00714441 0)
(-0.153238 0.0149628 0)
(-0.148598 0.0234561 0)
(-0.14227 0.0334366 0)
(-0.134166 0.045379 0)
(-0.125289 0.0596686 0)
(-0.111442 0.0782867 0)
(-0.0652517 0.104288 0)
(-0.00775105 0.118274 0)
(-0.58907 0.0416896 0)
(0.124217 -0.185105 0)
(-0.387858 -0.2976 0)
(-0.343299 -0.0965092 0)
(-0.264873 0.0517712 0)
(-0.21121 0.083764 0)
(-0.179137 0.0747508 0)
(-0.162948 0.061192 0)
(-0.157032 0.0511579 0)
(-0.157132 0.045956 0)
(-0.160364 0.0453957 0)
(-0.16469 0.0486291 0)
(-0.16893 0.0547273 0)
(-0.172365 0.0624568 0)
(-0.174706 0.0699166 0)
(-0.176316 0.0752077 0)
(-0.17786 0.0771344 0)
(-0.179872 0.0756689 0)
(-0.182384 0.0727917 0)
(-0.185294 0.0692971 0)
(-0.188469 0.0653762 0)
(-0.191781 0.061011 0)
(-0.195109 0.056209 0)
(-0.198343 0.0510951 0)
(-0.201379 0.0459773 0)
(-0.204101 0.0413533 0)
(-0.206343 0.0378089 0)
(-0.207864 0.0358281 0)
(-0.208376 0.0355918 0)
(-0.207561 0.0367793 0)
(-0.204913 0.0381522 0)
(-0.200801 0.0380333 0)
(-0.194898 0.0375184 0)
(-0.186359 0.0375487 0)
(-0.174355 0.038685 0)
(-0.158139 0.0407932 0)
(-0.135959 0.0428663 0)
(-0.100395 0.0458114 0)
(-0.035274 0.0585972 0)
(0.144933 0.0903852 0)
(-0.342135 0.0719316 0)
(1.14722 -0.0112607 0)
(-0.295477 -0.32333 0)
(-0.353012 -0.234078 0)
(-0.352396 -0.149685 0)
(-0.328632 -0.108265 0)
(-0.296985 -0.0997432 0)
(-0.269758 -0.102067 0)
(-0.250096 -0.108026 0)
(-0.237108 -0.116082 0)
(-0.22881 -0.126183 0)
(-0.223353 -0.138497 0)
(-0.219315 -0.152749 0)
(-0.215758 -0.16773 0)
(-0.212354 -0.181402 0)
(-0.209347 -0.191721 0)
(-0.207311 -0.197769 0)
(-0.206805 -0.199759 0)
(-0.208135 -0.199564 0)
(-0.211191 -0.197953 0)
(-0.215852 -0.19517 0)
(-0.222058 -0.19114 0)
(-0.229764 -0.185666 0)
(-0.238859 -0.178594 0)
(-0.249098 -0.169941 0)
(-0.260018 -0.159959 0)
(-0.270898 -0.149103 0)
(-0.280771 -0.137893 0)
(-0.288521 -0.126715 0)
(-0.293055 -0.115647 0)
(-0.293539 -0.104459 0)
(-0.289592 -0.093056 0)
(-0.282281 -0.0829816 0)
(-0.272081 -0.0740859 0)
(-0.259185 -0.0655345 0)
(-0.244054 -0.0570037 0)
(-0.225521 -0.0486959 0)
(-0.194421 -0.0388273 0)
(-0.13895 -0.0176636 0)
(-0.121299 0.0272309 0)
(-0.570411 0.0692077 0)
)
;

boundaryField
{
    floor
    {
        type            noSlip;
    }
    ceiling
    {
        type            noSlip;
    }
    sWall
    {
        type            noSlip;
    }
    nWall
    {
        type            noSlip;
    }
    sideWalls
    {
        type            empty;
    }
    glass1
    {
        type            noSlip;
    }
    glass2
    {
        type            noSlip;
    }
    sun
    {
        type            noSlip;
    }
    Table_master
    {
        type            noSlip;
    }
    Table_slave
    {
        type            noSlip;
    }
    inlet
    {
        type            fixedValue;
        value           uniform (0.5 0 0);
    }
    outlet
    {
        type            zeroGradient;
    }
}


// ************************************************************************* //
