/*--------------------------------*- C++ -*----------------------------------*\
  =========                 |
  \\      /  F ield         | OpenFOAM: The Open Source CFD Toolbox
   \\    /   O peration     | Website:  https://openfoam.org
    \\  /    A nd           | Version:  6
     \\/     M anipulation  |
\*---------------------------------------------------------------------------*/
FoamFile
{
    version     2.0;
    format      ascii;
    class       volScalarField;
    location    "100";
    object      alphat;
}
// * * * * * * * * * * * * * * * * * * * * * * * * * * * * * * * * * * * * * //

dimensions      [1 -1 -1 0 0 0 0];

internalField   nonuniform List<scalar> 
459
(
0.00091111
0.000936343
0.000732131
0.000691265
0.000697882
0.000713206
0.000732463
0.000753845
0.000775942
0.000797301
0.000816176
0.000830498
0.000838215
0.000837074
0.000819673
0.000411299
0.000484529
0.000421861
0.000289217
0.000218266
0.000201844
0.00020237
0.000215381
0.000234468
0.000259164
0.00028669
0.000313999
0.000340023
0.000362911
0.000390197
0.00042075
0.000441783
0.000443171
0.000407137
0.00164983
0.00356912
0.00199926
0.00296209
0.00350905
0.00366766
0.003765
0.00385197
0.00392558
0.00396963
0.00395806
0.00385065
0.00358219
0.00304604
0.00212019
0.000909442
0.000632385
0.000529155
0.00136559
0.00122594
0.000844038
0.000524052
0.00035049
0.000358687
0.000361945
0.000389996
0.000447923
0.000539274
0.000674854
0.000880203
0.00109872
0.00123914
0.00147577
0.00130989
0.00109424
0.00046726
0.00228723
0.00642095
0.00291576
0.00337058
0.00485272
0.00541307
0.00562172
0.00573139
0.00578798
0.00578399
0.00569134
0.00546365
0.00503153
0.00430805
0.0032545
0.00204025
0.000993831
0.00085941
0.00242256
0.00207901
0.00162469
0.00123774
0.000856548
0.00026735
0.000259684
0.000316564
0.000381042
0.000442457
0.000499348
0.00055531
0.000616787
0.000696581
0.00184714
0.00166675
0.00124807
0.000726887
0.00285635
0.00968349
0.00500053
0.00373921
0.0049672
0.00602493
0.00655566
0.0068389
0.0070077
0.00709317
0.00708333
0.0069377
0.00658355
0.00591507
0.00483527
0.00339414
0.00198018
0.00118468
0.00321622
0.00354782
0.00313714
0.00256679
0.00198177
0.00138444
0.000907075
0.000893682
0.000882121
0.000871176
0.000863024
0.000861635
0.000873096
0.000906053
0.000973925
0.00278621
0.00285209
0.00244085
0.00103735
0.00334722
0.0128369
0.00809553
0.00541909
0.00500371
0.00568281
0.00657103
0.00721667
0.00767036
0.00800539
0.0082488
0.00840228
0.00845041
0.00836354
0.00811069
0.00768575
0.00715259
0.00668886
0.00674269
0.00651739
0.00630088
0.0060937
0.00585079
0.00559158
0.00534143
0.00518066
0.00499651
0.00477651
0.00452444
0.00426087
0.0040245
0.00386052
0.00380071
0.00386317
0.00377961
0.00360659
0.00315852
0.00131548
0.00114107
0.000988382
0.00377187
0.0152678
0.0116319
0.00829705
0.00627187
0.0054289
0.0058094
0.00668014
0.00748699
0.00817035
0.00873051
0.00917745
0.00952341
0.00976721
0.00989408
0.00988619
0.00973615
0.00947152
0.0091655
0.0088471
0.00857689
0.00835961
0.00817011
0.00798474
0.007783
0.0075557
0.00728765
0.00696474
0.00657274
0.00610815
0.00559615
0.00509898
0.00468731
0.00438669
0.00415487
0.00391297
0.00354445
0.0029917
0.00221359
0.0010383
0.00411809
0.0159351
0.0133839
0.0107844
0.00845529
0.0065272
0.00549582
0.0056492
0.00646531
0.00741403
0.00832027
0.00908707
0.00971118
0.0102031
0.01056
0.0107688
0.0108095
0.0106868
0.0104503
0.0101709
0.00990631
0.0096787
0.00948135
0.00929579
0.00910288
0.00889311
0.00866164
0.00839707
0.00807597
0.00766255
0.00712199
0.0064582
0.00575237
0.00512418
0.00461643
0.00416168
0.00364726
0.00302961
0.00231516
0.00107307
0.00407719
0.0130725
0.0119658
0.0116687
0.00994519
0.00787373
0.00626565
0.00542749
0.00540645
0.00610256
0.00712438
0.00811939
0.00899859
0.00973778
0.0103099
0.0107191
0.0109514
0.0110047
0.0109118
0.0107317
0.0105222
0.0103183
0.0101311
0.00995531
0.00978152
0.00960654
0.00943317
0.00926316
0.00909097
0.00889523
0.00862834
0.00821589
0.00759806
0.00682116
0.00601687
0.00528091
0.00456222
0.00390965
0.00338506
0.00175006
0.00384597
0.00447721
0.0145489
0.0143939
0.0114467
0.00873964
0.00693156
0.00591298
0.0055278
0.00565843
0.00618734
0.00695472
0.00778504
0.00857023
0.00926128
0.00982641
0.0102376
0.0104803
0.0105672
0.0105368
0.0104358
0.010302
0.0101581
0.0100114
0.00986277
0.00971482
0.00957398
0.00944901
0.00934926
0.00928142
0.00924263
0.00920956
0.00913163
0.00894773
0.00868066
0.00831836
0.00781733
0.00699085
0.00657881
0.0019071
0.0286746
0.0240233
0.0134459
0.00962706
0.00799121
0.00707993
0.00662946
0.006523
0.00666906
0.00698173
0.00739245
0.00785278
0.00832504
0.00877325
0.00916574
0.00947482
0.00968429
0.00979567
0.0098253
0.00979426
0.00972037
0.00961776
0.00949804
0.00937104
0.00924592
0.00913174
0.00903747
0.00897113
0.00893646
0.0089255
0.00890797
0.00882831
0.00862662
0.00825444
0.00769004
0.0069182
0.00586027
0.00189292
0.00928283
0.0181515
0.0127647
0.00950453
0.00781829
0.00694753
0.0065545
0.00649684
0.00667594
0.00698329
0.0073451
0.00770889
0.00804515
0.00834084
0.00859003
0.00878841
0.00893336
0.00902641
0.00907347
0.00908051
0.00903757
0.00895813
0.00885718
0.00874652
0.00863436
0.00852568
0.00842247
0.00832362
0.00822439
0.00811511
0.00797982
0.0077966
0.00754041
0.00718791
0.00671917
0.00609543
0.00563751
0.00184564
0.00158138
0.0021364
0.00615516
0.00558243
0.00472647
0.00398467
0.00341915
0.00299572
0.00267841
0.00244198
0.00227036
0.00215404
0.00208229
0.00204351
0.00202626
0.00202107
0.00202103
0.0020216
0.00201999
0.00201474
0.00200541
0.00199227
0.00197764
0.00196111
0.00194273
0.0019229
0.00190215
0.00188093
0.00185952
0.00183788
0.00181567
0.00179216
0.0017664
0.0017373
0.00170387
0.001665
0.00161895
0.00156437
0.00154863
0.00135694
)
;

boundaryField
{
    floor
    {
        type            compressible::alphatWallFunction;
        Prt             0.85;
        value           nonuniform List<scalar> 
29
(
0.000116662
5.55055e-05
6.68763e-05
5.71158e-05
3.58946e-05
2.40423e-05
2.1232e-05
2.13254e-05
2.35586e-05
2.68041e-05
3.09524e-05
3.55168e-05
3.99891e-05
4.4203e-05
4.78779e-05
5.22181e-05
5.70329e-05
6.03224e-05
6.0528e-05
5.48844e-05
5.48837e-05
6.42504e-05
0.000103251
0.000147685
0.00011666
5.55048e-05
7.36553e-05
0.000122324
0.000168089
)
;
    }
    ceiling
    {
        type            compressible::alphatWallFunction;
        Prt             0.85;
        value           nonuniform List<scalar> 
43
(
0.000222474
0.000295412
0.000783174
0.000716327
0.000615152
0.000525997
0.000456905
0.000404407
0.00036456
0.000334545
0.000312561
0.000297554
0.000288249
0.000283199
0.000280944
0.000280257
0.000280244
0.00028031
0.000280093
0.000279403
0.000278181
0.000276463
0.000274547
0.000272384
0.000269976
0.000267376
0.000264653
0.000261867
0.00025905
0.000256201
0.000253272
0.00025017
0.000246763
0.000242912
0.000238478
0.000233312
0.000227176
0.00021988
0.00021777
0.000191896
0.000508916
0.000585099
0.00113874
)
;
    }
    sWall
    {
        type            compressible::alphatWallFunction;
        Prt             0.85;
        value           uniform 0.000221631;
    }
    nWall
    {
        type            compressible::alphatWallFunction;
        Prt             0.85;
        value           nonuniform List<scalar> 6(0.000140609 0.000147627 0.000152493 0.00026309 0.000256879 0.000191613);
    }
    sideWalls
    {
        type            empty;
    }
    glass1
    {
        type            compressible::alphatWallFunction;
        Prt             0.85;
        value           nonuniform List<scalar> 9(0.000126404 0.000226301 0.000308702 0.000380359 0.000441075 0.000492934 0.000534832 0.000530088 0.000502419);
    }
    glass2
    {
        type            compressible::alphatWallFunction;
        Prt             0.85;
        value           nonuniform List<scalar> 2(0.000243593 0.000264238);
    }
    sun
    {
        type            compressible::alphatWallFunction;
        Prt             0.85;
        value           nonuniform List<scalar> 
14
(
0.000129766
0.000133335
0.000103947
9.79583e-05
9.8933e-05
0.000101184
0.000104004
0.000107125
0.000110338
0.000113435
0.000116162
0.000118227
0.000119337
0.000119171
)
;
    }
    heatsource1
    {
        type            compressible::alphatWallFunction;
        Prt             0.85;
        value           nonuniform List<scalar> 3(0.000186144 0.000162153 0.000140799);
    }
    heatsource2
    {
        type            compressible::alphatWallFunction;
        Prt             0.85;
        value           nonuniform List<scalar> 4(0.000129598 8.93248e-05 8.93238e-05 0.000141543);
    }
    Table_master
    {
        type            compressible::alphatWallFunction;
        Prt             0.85;
        value           nonuniform List<scalar> 9(3.23713e-05 3.11017e-05 4.04577e-05 5.08082e-05 6.04628e-05 6.92559e-05 7.77826e-05 8.70258e-05 9.88533e-05);
    }
    Table_slave
    {
        type            compressible::alphatWallFunction;
        Prt             0.85;
        value           nonuniform List<scalar> 9(0.000129277 0.000127368 0.000125717 0.000124152 0.000122983 0.000122783 0.000124423 0.000129128 0.000138759);
    }
    inlet
    {
        type            fixedValue;
        value           uniform 1.94e-05;
    }
    outlet
    {
        type            zeroGradient;
    }
}


// ************************************************************************* //
