/*--------------------------------*- C++ -*----------------------------------*\
  =========                 |
  \\      /  F ield         | OpenFOAM: The Open Source CFD Toolbox
   \\    /   O peration     | Website:  https://openfoam.org
    \\  /    A nd           | Version:  6
     \\/     M anipulation  |
\*---------------------------------------------------------------------------*/
FoamFile
{
    version     2.0;
    format      ascii;
    class       volScalarField;
    location    "100";
    object      epsilon;
}
// * * * * * * * * * * * * * * * * * * * * * * * * * * * * * * * * * * * * * //

dimensions      [0 2 -3 0 0 0 0];

internalField   nonuniform List<scalar> 
459
(
0.00017222
0.000186363
8.90917e-05
7.50055e-05
7.71907e-05
8.2399e-05
8.92678e-05
9.73292e-05
0.000106155
0.000115177
0.000123562
0.000130187
0.000133848
0.000133291
0.00012513
1.57303e-05
2.57109e-05
1.69252e-05
5.4564e-06
2.35027e-06
1.86071e-06
1.87587e-06
2.26058e-06
2.9159e-06
3.93787e-06
5.33245e-06
7.00936e-06
8.90434e-06
1.08333e-05
1.34739e-05
1.6907e-05
1.95841e-05
1.97568e-05
1.53086e-05
0.00102506
0.00217196
0.00024113
6.79525e-05
5.51304e-05
5.71917e-05
6.19999e-05
6.80386e-05
7.50979e-05
8.31986e-05
9.23754e-05
0.000102488
0.000112778
0.000121341
0.000128919
0.000170954
5.73805e-05
3.34296e-05
7.03754e-05
3.58789e-05
1.3101e-05
7.36293e-06
4.32421e-06
1.89856e-06
2.43571e-06
3.7774e-06
6.20512e-06
9.743e-06
1.42198e-05
1.95705e-05
2.64492e-05
3.16306e-05
3.20829e-05
3.21794e-05
4.48678e-05
2.31456e-05
0.00273734
0.00719414
0.000859949
0.00014058
7.4437e-05
6.79587e-05
7.09972e-05
7.7097e-05
8.50384e-05
9.46307e-05
0.000105894
0.000118735
0.000132597
0.000146191
0.000159013
0.000177167
0.000223121
0.000143676
0.00011941
6.46196e-05
5.55698e-05
5.34991e-05
4.95237e-05
4.31188e-06
3.95415e-06
7.16489e-06
1.25134e-05
1.96298e-05
2.82704e-05
3.89436e-05
5.34342e-05
7.70685e-05
5.50412e-05
5.46276e-05
6.70965e-05
8.77472e-05
0.00534257
0.0150134
0.00245622
0.000399213
0.000139892
9.83629e-05
9.21423e-05
9.55906e-05
0.000103128
0.000113299
0.000125615
0.000139636
0.000154605
0.000169681
0.000185723
0.000209549
0.000261695
0.000378124
0.000157149
0.000102459
9.38434e-05
9.7854e-05
0.000108348
0.000128721
0.00017044
0.000163051
0.000156852
0.000151133
0.000146978
0.000146318
0.000152289
0.000170257
0.000211528
0.000119078
0.000133151
0.000154043
0.000256268
0.00861534
0.0240919
0.00538568
0.0011863
0.000381663
0.000193224
0.000141585
0.000130598
0.000133148
0.0001421
0.000155189
0.000170982
0.000187471
0.000201505
0.000209046
0.00020666
0.0001939
0.000170815
0.000134129
0.00011745
0.000113326
0.000114327
0.00011659
0.00011861
0.000119313
0.000117095
0.000115216
0.000114473
0.000115784
0.000120425
0.000129982
0.000146049
0.000169501
0.000198209
0.000245626
0.000304317
0.000366117
0.000523451
0.000341478
0.000221824
0.012353
0.0310802
0.0101065
0.00328873
0.00130919
0.000564237
0.000293352
0.000210832
0.000188549
0.000187632
0.000198076
0.000215975
0.000238139
0.000260411
0.000277096
0.000281991
0.000270873
0.00024569
0.000216468
0.000195009
0.000182835
0.000177349
0.000174927
0.000172889
0.00016975
0.000165631
0.000161679
0.00015867
0.000157664
0.000160385
0.000169446
0.000188323
0.000220971
0.000271186
0.000341858
0.00042779
0.000505047
0.000539201
0.000381842
0.000257166
0.0161084
0.0319621
0.0174348
0.0087935
0.00448166
0.00203523
0.000837914
0.000454211
0.000316577
0.00027122
0.000263186
0.00027591
0.000301241
0.000333253
0.000364274
0.000385373
0.000388817
0.000373652
0.000347774
0.000321817
0.000301939
0.000288893
0.000280421
0.000273772
0.000267033
0.000259877
0.000252784
0.000246299
0.000241322
0.000239579
0.0002442
0.000260152
0.000293889
0.000351562
0.000435995
0.000541995
0.000647538
0.000712964
0.000682458
0.000283906
0.0156709
0.0322352
0.0320761
0.0224579
0.0123652
0.00586446
0.00267312
0.00127663
0.000698179
0.00046755
0.000388879
0.00037556
0.000393339
0.000430402
0.00047469
0.000514933
0.000539728
0.000543212
0.000528857
0.00050597
0.000482961
0.000463856
0.000448764
0.000436087
0.000424207
0.000412564
0.000401284
0.000390696
0.000381483
0.00037514
0.000374736
0.000385978
0.000418149
0.00048326
0.000589033
0.000736529
0.000924577
0.00116865
0.00148229
0.00123671
0.0131939
0.0208192
0.11293
0.0697228
0.0306908
0.0124661
0.00530746
0.00251674
0.00137988
0.000893982
0.000685303
0.000607317
0.0005984
0.000626707
0.00067275
0.00072309
0.000765262
0.000789758
0.000794151
0.000783169
0.000764214
0.000743003
0.000721776
0.000701137
0.000681018
0.000661407
0.000642445
0.000624274
0.000607155
0.000591821
0.00058009
0.000575656
0.000584654
0.000615177
0.000680453
0.000783351
0.000917235
0.00109875
0.00227355
0.0016013
0.329896
0.212889
0.0396204
0.0107667
0.00519159
0.00300682
0.00200647
0.00152613
0.0013009
0.00120823
0.00118459
0.00119597
0.00122416
0.00125917
0.00129289
0.00131799
0.00132934
0.00132586
0.00131015
0.00128603
0.00125502
0.00121987
0.00118316
0.00114658
0.00111113
0.0010772
0.00104474
0.00101341
0.000982917
0.000953347
0.000925476
0.000901603
0.000884373
0.000878466
0.00089008
0.000962109
0.0014088
0.00156545
0.196259
0.108534
0.0349615
0.0140368
0.00723317
0.00456494
0.00338212
0.00284409
0.00263586
0.00260165
0.00264932
0.00272113
0.00278466
0.00282495
0.00283759
0.00282317
0.00278536
0.00273019
0.00266468
0.00259478
0.00251887
0.00243916
0.00235908
0.00228127
0.00220684
0.00213534
0.00206477
0.00199187
0.00191273
0.00182429
0.00172683
0.00162666
0.00153506
0.00146395
0.00142056
0.001419
0.00224888
0.00145154
0.000959732
0.0023672
0.0570279
0.0423227
0.0255563
0.0152534
0.00961059
0.00644995
0.00460083
0.00348046
0.00279212
0.00238034
0.00214654
0.00202535
0.00197127
0.00195313
0.00195018
0.00194915
0.00194196
0.00192448
0.0018956
0.00185646
0.00181383
0.00176682
0.00171578
0.00166206
0.00160722
0.00155252
0.00149865
0.00144558
0.0013925
0.00133791
0.0012799
0.00121665
0.00114682
0.00106929
0.000982264
0.000885581
0.000858498
0.000577132
)
;

boundaryField
{
    floor
    {
        Cmu             0.09;
        kappa           0.41;
        E               9.8;
        type            epsilonWallFunction;
        value           nonuniform List<scalar> 
29
(
0.00012513
1.57303e-05
2.57109e-05
1.69252e-05
5.4564e-06
2.35027e-06
1.86071e-06
1.87587e-06
2.26058e-06
2.9159e-06
3.93787e-06
5.33245e-06
7.00936e-06
8.90434e-06
1.08333e-05
1.34739e-05
1.6907e-05
1.95841e-05
1.97568e-05
1.53086e-05
1.53086e-05
2.31456e-05
8.77472e-05
0.000256268
0.00012513
1.57303e-05
3.34296e-05
0.000143676
0.000378124
)
;
    }
    ceiling
    {
        Cmu             0.09;
        kappa           0.41;
        E               9.8;
        type            epsilonWallFunction;
        value           nonuniform List<scalar> 
43
(
0.000959732
0.0023672
0.0570279
0.0423227
0.0255563
0.0152534
0.00961059
0.00644995
0.00460083
0.00348046
0.00279212
0.00238034
0.00214654
0.00202535
0.00197127
0.00195313
0.00195018
0.00194915
0.00194196
0.00192448
0.0018956
0.00185646
0.00181383
0.00176682
0.00171578
0.00166206
0.00160722
0.00155252
0.00149865
0.00144558
0.0013925
0.00133791
0.0012799
0.00121665
0.00114682
0.00106929
0.000982264
0.000885581
0.000858498
0.000577132
0.0131939
0.0208192
0.196259
)
;
    }
    sWall
    {
        Cmu             0.09;
        kappa           0.41;
        E               9.8;
        type            epsilonWallFunction;
        value           uniform 0.000959732;
    }
    nWall
    {
        Cmu             0.09;
        kappa           0.41;
        E               9.8;
        type            epsilonWallFunction;
        value           nonuniform List<scalar> 6(0.000221824 0.000257166 0.000283906 0.00156545 0.00145154 0.000577132);
    }
    sideWalls
    {
        type            empty;
    }
    glass1
    {
        Cmu             0.09;
        kappa           0.41;
        E               9.8;
        type            epsilonWallFunction;
        value           nonuniform List<scalar> 9(0.00017222 0.00102506 0.00273734 0.00534257 0.00861534 0.012353 0.0161084 0.0156709 0.0131939);
    }
    glass2
    {
        Cmu             0.09;
        kappa           0.41;
        E               9.8;
        type            epsilonWallFunction;
        value           nonuniform List<scalar> 2(0.00123671 0.0016013);
    }
    sun
    {
        Cmu             0.09;
        kappa           0.41;
        E               9.8;
        type            epsilonWallFunction;
        value           nonuniform List<scalar> 
14
(
0.00017222
0.000186363
8.90917e-05
7.50055e-05
7.71907e-05
8.2399e-05
8.92678e-05
9.73292e-05
0.000106155
0.000115177
0.000123562
0.000130187
0.000133848
0.000133291
)
;
    }
    heatsource1
    {
        Cmu             0.09;
        kappa           0.41;
        E               9.8;
        type            epsilonWallFunction;
        value           nonuniform List<scalar> 3(0.000523451 0.000341478 0.000221824);
    }
    heatsource2
    {
        Cmu             0.09;
        kappa           0.41;
        E               9.8;
        type            epsilonWallFunction;
        value           nonuniform List<scalar> 4(0.000170954 5.73805e-05 5.73805e-05 0.000223121);
    }
    Table_master
    {
        Cmu             0.09;
        kappa           0.41;
        E               9.8;
        type            epsilonWallFunction;
        value           nonuniform List<scalar> 9(4.31188e-06 3.95415e-06 7.16489e-06 1.25134e-05 1.96298e-05 2.82704e-05 3.89436e-05 5.34342e-05 7.70685e-05);
    }
    Table_slave
    {
        Cmu             0.09;
        kappa           0.41;
        E               9.8;
        type            epsilonWallFunction;
        value           nonuniform List<scalar> 9(0.00017044 0.000163051 0.000156852 0.000151133 0.000146978 0.000146318 0.000152289 0.000170257 0.000211528);
    }
    inlet
    {
        type            turbulentMixingLengthDissipationRateInlet;
        mixingLength    0.01;
        phi             phi;
        k               k;
        value           uniform 0.329896;
    }
    outlet
    {
        type            zeroGradient;
    }
}


// ************************************************************************* //
