/*--------------------------------*- C++ -*----------------------------------*\
  =========                 |
  \\      /  F ield         | OpenFOAM: The Open Source CFD Toolbox
   \\    /   O peration     | Website:  https://openfoam.org
    \\  /    A nd           | Version:  6
     \\/     M anipulation  |
\*---------------------------------------------------------------------------*/
FoamFile
{
    version     2.0;
    format      ascii;
    class       volScalarField;
    location    "100";
    object      nut;
}
// * * * * * * * * * * * * * * * * * * * * * * * * * * * * * * * * * * * * * //

dimensions      [0 2 -1 0 0 0 0];

internalField   nonuniform List<scalar> 
459
(
0.000786585
0.000807558
0.00063142
0.00059619
0.000601917
0.000615155
0.000631788
0.000650253
0.000669334
0.000687776
0.00070407
0.000716431
0.000723087
0.000722097
0.000707072
0.000354221
0.000417273
0.000363296
0.00024906
0.000187959
0.000173819
0.000174271
0.000185473
0.000201912
0.000223186
0.000246905
0.000270444
0.000292883
0.000312628
0.000336179
0.000362568
0.000380749
0.00038194
0.000350855
0.00142551
0.00307974
0.00172491
0.00255567
0.00302775
0.00316478
0.00324892
0.00332413
0.00338779
0.00342591
0.00341598
0.00332328
0.00309151
0.00262865
0.00182948
0.00078462
0.000545266
0.000455771
0.00117621
0.00105589
0.000726933
0.000451311
0.000301812
0.000308839
0.000311647
0.000335823
0.000385755
0.000464513
0.000581417
0.000758488
0.000947041
0.00106838
0.00127272
0.00112962
0.000943387
0.000402726
0.00197772
0.00554346
0.00251671
0.00290926
0.00418881
0.00467283
0.00485329
0.00494828
0.00499742
0.00499419
0.00491432
0.00471771
0.00434441
0.0037194
0.00280937
0.00176083
0.00085753
0.000740667
0.00208801
0.0017921
0.00140068
0.00106717
0.000738428
0.000230209
0.000223611
0.00027265
0.000328301
0.000381379
0.000430602
0.000479045
0.000532256
0.000601322
0.00159512
0.0014394
0.00107786
0.00062786
0.00247157
0.00836532
0.0043187
0.00322909
0.00428966
0.00520348
0.00566232
0.00590748
0.00605376
0.006128
0.00611976
0.00599401
0.00568783
0.00510981
0.00417628
0.00293082
0.00170934
0.00102238
0.00277516
0.00306205
0.00270837
0.00221653
0.00171169
0.00119596
0.000783703
0.000772199
0.000762281
0.000752901
0.000745942
0.000744835
0.000754845
0.000783445
0.000842228
0.00240955
0.00246686
0.00211155
0.000897639
0.0028983
0.0110974
0.00699712
0.0046832
0.0043239
0.00491081
0.00567877
0.00623734
0.00663014
0.00692037
0.00713131
0.00726431
0.00730594
0.00723048
0.00701114
0.00664279
0.0061809
0.0057793
0.00582536
0.00563106
0.00544485
0.00526662
0.00505729
0.00483372
0.00461786
0.00447923
0.0043204
0.00413058
0.00391306
0.00368559
0.00348166
0.00334032
0.00328909
0.00334365
0.00327191
0.00312268
0.00273518
0.00113924
0.000988017
0.000855679
0.00326819
0.01321
0.0100647
0.00717853
0.00542514
0.00469523
0.00502415
0.0057775
0.00647599
0.00706785
0.00755319
0.00794046
0.00824011
0.00845099
0.00856023
0.00855245
0.00842151
0.00819159
0.00792633
0.00765094
0.00741758
0.00723011
0.00706662
0.00690665
0.00673247
0.00653617
0.00630467
0.00602574
0.00568711
0.00528572
0.00484334
0.00441377
0.00405814
0.00379855
0.00359843
0.00338942
0.0030705
0.00259169
0.00191707
0.000898907
0.00357053
0.0138016
0.0116003
0.00934642
0.00732528
0.00565264
0.00475812
0.00489046
0.00559705
0.00641895
0.00720434
0.00786909
0.00841015
0.0088364
0.00914529
0.00932546
0.00935969
0.00925228
0.00904663
0.00880423
0.00857498
0.00837789
0.00820706
0.00804643
0.00787944
0.00769787
0.00749756
0.00726866
0.00699093
0.00663343
0.00616601
0.00559203
0.00498166
0.00443843
0.00399931
0.00360586
0.0031604
0.00262517
0.00200572
0.000929053
0.00353789
0.0113375
0.0103924
0.0101363
0.00863453
0.00683149
0.00543363
0.00470541
0.00468652
0.00528972
0.00617574
0.00703887
0.00780168
0.00844298
0.00893906
0.00929349
0.00949402
0.00953912
0.00945745
0.00930045
0.00911803
0.00894073
0.00877799
0.00862517
0.00847409
0.00832201
0.00817135
0.00802364
0.00787412
0.00770434
0.00747313
0.00711615
0.00658157
0.0059094
0.0052135
0.00457662
0.0039544
0.00338922
0.00293477
0.00151742
0.00334067
0.00388932
0.0126844
0.0125486
0.00996582
0.00759962
0.00602283
0.00513575
0.00480034
0.00491345
0.00537262
0.00603892
0.00675995
0.00744179
0.00804171
0.008532
0.00888822
0.00909783
0.00917204
0.00914433
0.00905538
0.00893805
0.00881211
0.00868376
0.00855379
0.00842444
0.00830127
0.00819189
0.0081044
0.00804463
0.00801016
0.00798087
0.00791303
0.00775375
0.00752278
0.0072095
0.006776
0.00606035
0.00570394
0.00165391
0.0254698
0.021045
0.0117339
0.00838637
0.00695726
0.00616243
0.00576986
0.00567709
0.00580415
0.0060761
0.00643314
0.00683311
0.0072432
0.00763212
0.00797227
0.00823963
0.00842015
0.00851527
0.00853927
0.00851058
0.0084447
0.00835392
0.00824835
0.00813651
0.00802634
0.00792571
0.00784239
0.00778334
0.00775182
0.00774102
0.00772474
0.00765492
0.00747968
0.00715699
0.00666786
0.00599895
0.00508191
0.00164158
0.00821643
0.0159463
0.0111841
0.00831387
0.00683285
0.00606911
0.00572428
0.00567278
0.00582801
0.00609508
0.00640942
0.0067252
0.00701669
0.00727255
0.00748765
0.00765829
0.00778228
0.00786098
0.00789963
0.00790347
0.00786391
0.00779268
0.00770285
0.00760465
0.00750523
0.00740891
0.00731739
0.00722973
0.00714181
0.00704528
0.00692635
0.00676607
0.00654279
0.00623626
0.00582915
0.00528772
0.00489018
0.00160084
0.00139446
0.00188415
0.0054418
0.00492694
0.00416447
0.00350633
0.00300596
0.0026318
0.00235151
0.00214264
0.00199091
0.00188781
0.00182389
0.00178893
0.00177289
0.00176744
0.00176655
0.00176623
0.00176405
0.00175873
0.00174988
0.00173775
0.00172434
0.00170931
0.00169269
0.00167484
0.00165621
0.0016372
0.00161804
0.00159871
0.0015789
0.001558
0.00153514
0.00150943
0.00147999
0.00144586
0.00140553
0.00135782
0.00134381
0.00117716
)
;

boundaryField
{
    floor
    {
        type            nutkWallFunction;
        Cmu             0.09;
        kappa           0.41;
        E               9.8;
        value           nonuniform List<scalar> 
29
(
8.55957e-05
4.06895e-05
4.90168e-05
4.18672e-05
2.63202e-05
1.76343e-05
1.55743e-05
1.56428e-05
1.72797e-05
1.96585e-05
2.26992e-05
2.6045e-05
2.93236e-05
3.24133e-05
3.51085e-05
3.82928e-05
4.18268e-05
4.42427e-05
4.4393e-05
4.02538e-05
4.02537e-05
4.71244e-05
7.5846e-05
0.000108645
8.55957e-05
4.06894e-05
5.39888e-05
8.9679e-05
0.000123357
)
;
    }
    ceiling
    {
        type            nutkWallFunction;
        Cmu             0.09;
        kappa           0.41;
        E               9.8;
        value           nonuniform List<scalar> 
43
(
0.000166408
0.000221091
0.00058811
0.000536979
0.000460334
0.000393079
0.000341108
0.000301675
0.000271756
0.000249218
0.000232699
0.000221397
0.000214353
0.000210485
0.000208704
0.000208095
0.000207991
0.000207951
0.000207705
0.000207112
0.000206129
0.000204781
0.000203291
0.000201621
0.000199771
0.000197783
0.000195707
0.000193586
0.000191446
0.000189284
0.000187066
0.000184721
0.000182156
0.000179264
0.000175947
0.000172094
0.000167528
0.000162109
0.000160514
0.0001414
0.000375608
0.000431891
0.000856263
)
;
    }
    sWall
    {
        type            nutkWallFunction;
        Cmu             0.09;
        kappa           0.41;
        E               9.8;
        value           uniform 0.00016644;
    }
    nWall
    {
        type            nutkWallFunction;
        Cmu             0.09;
        kappa           0.41;
        E               9.8;
        value           nonuniform List<scalar> 6(0.000103611 0.000108779 0.000112366 0.000194062 0.000189512 0.000141408);
    }
    sideWalls
    {
        type            empty;
    }
    glass1
    {
        type            nutkWallFunction;
        Cmu             0.09;
        kappa           0.41;
        E               9.8;
        value           nonuniform List<scalar> 9(9.52707e-05 0.000169956 0.000231366 0.000284698 0.000329875 0.000368476 0.000399697 0.000396358 0.000376029);
    }
    glass2
    {
        type            nutkWallFunction;
        Cmu             0.09;
        kappa           0.41;
        E               9.8;
        value           nonuniform List<scalar> 2(0.000180208 0.000195478);
    }
    sun
    {
        type            nutkWallFunction;
        Cmu             0.09;
        kappa           0.41;
        E               9.8;
        value           nonuniform List<scalar> 
14
(
9.52728e-05
9.78065e-05
7.62572e-05
7.18674e-05
7.25841e-05
7.42368e-05
7.63071e-05
7.85979e-05
8.09569e-05
8.32293e-05
8.5231e-05
8.67456e-05
8.75596e-05
8.74373e-05
)
;
    }
    heatsource1
    {
        type            nutkWallFunction;
        Cmu             0.09;
        kappa           0.41;
        E               9.8;
        value           nonuniform List<scalar> 3(0.000137023 0.000119342 0.00010361);
    }
    heatsource2
    {
        type            nutkWallFunction;
        Cmu             0.09;
        kappa           0.41;
        E               9.8;
        value           nonuniform List<scalar> 4(9.50378e-05 6.54655e-05 6.54655e-05 0.000103812);
    }
    Table_master
    {
        type            nutkWallFunction;
        Cmu             0.09;
        kappa           0.41;
        E               9.8;
        value           nonuniform List<scalar> 9(2.36933e-05 2.27644e-05 2.96189e-05 3.72098e-05 4.42993e-05 5.07637e-05 5.70358e-05 6.38348e-05 7.25354e-05);
    }
    Table_slave
    {
        type            nutkWallFunction;
        Cmu             0.09;
        kappa           0.41;
        E               9.8;
        value           nonuniform List<scalar> 9(9.49386e-05 9.35451e-05 9.23415e-05 9.12008e-05 9.03529e-05 9.0217e-05 9.14345e-05 9.49053e-05 0.000101995);
    }
    inlet
    {
        type            calculated;
        value           uniform 0.0254698;
    }
    outlet
    {
        type            calculated;
        value           nonuniform List<scalar> 2(0.00139446 0.00188415);
    }
}


// ************************************************************************* //
