/*--------------------------------*- C++ -*----------------------------------*\
  =========                 |
  \\      /  F ield         | OpenFOAM: The Open Source CFD Toolbox
   \\    /   O peration     | Website:  https://openfoam.org
    \\  /    A nd           | Version:  6
     \\/     M anipulation  |
\*---------------------------------------------------------------------------*/
FoamFile
{
    version     2.0;
    format      ascii;
    class       surfaceScalarField;
    location    "100";
    object      phi;
}
// * * * * * * * * * * * * * * * * * * * * * * * * * * * * * * * * * * * * * //

dimensions      [1 0 -1 0 0 0 0];

internalField   nonuniform List<scalar> 
852
(
-0.00222741
0.00228559
-0.00222003
-7.20059e-06
-0.00206025
-0.000159601
-0.00198241
-7.76519e-05
-0.00194733
-3.49046e-05
-0.0019268
-2.03385e-05
-0.00190475
-2.18672e-05
-0.00186851
-3.60519e-05
-0.00180582
-6.24884e-05
-0.00170391
-0.000101711
-0.00155008
-0.000153627
-0.00133187
-0.000217995
-0.00102923
-0.000302418
-0.000593609
-0.000435381
-0.000591864
-0.000461106
0.000464356
-0.000328467
-0.00013259
-6.84126e-05
-0.000259992
6.8108e-05
-0.000136478
6.29954e-05
5.13476e-06
-4.61998e-06
6.76326e-05
2.94307e-05
-3.40418e-05
0.000150804
-0.000121375
0.000305677
-0.000154868
0.000464118
-0.000158426
0.000597139
-0.000133
0.000688384
-9.12265e-05
0.000739219
-5.0825e-05
0.000740025
-8.0975e-07
0.000682349
5.76595e-05
0.000595436
8.68851e-05
0.000603947
-8.52764e-06
0.000574553
2.94468e-05
0.000577564
-0.00158609
0.00401756
-0.00198367
0.000390571
-0.00202567
-0.000117395
-0.00202531
-7.78145e-05
-0.00202002
-3.99996e-05
-0.00201035
-2.97937e-05
-0.00199436
-3.76473e-05
-0.00196724
-6.29589e-05
-0.00192173
-0.000107778
-0.00184827
-0.00017494
-0.0017344
-0.00026725
-0.00156411
-0.000388033
-0.00132322
-0.000543027
-0.00102582
-0.0007325
-0.000702761
-0.000914615
0.000175157
-0.000877654
0.000175315
0.000650421
-0.000177822
0.000434465
8.34728e-05
0.00011563
5.89804e-05
8.08295e-06
-2.87804e-05
1.77673e-05
-4.44249e-06
-0.000101648
0.000187115
-6.60045e-05
-6.9671e-05
-1.73439e-05
-0.000170018
2.14462e-05
-0.000193606
4.8131e-05
-0.000185013
5.86474e-05
-0.000143398
4.79836e-05
-8.04594e-05
8.65895e-07
-3.64679e-06
-7.12853e-05
7.14256e-05
-0.000131211
0.000117633
-0.000180194
0.000135897
-0.000285874
9.72022e-05
-0.000361286
0.000104932
0.000224206
-0.0011322
0.00536233
-0.00166416
0.000922736
-0.00186135
8.00178e-05
-0.00194098
2.02208e-06
-0.00196957
-1.11881e-05
-0.00197646
-2.26841e-05
-0.00197381
-4.00602e-05
-0.00196598
-7.05552e-05
-0.00195245
-0.000121063
-0.00192957
-0.000197559
-0.00189112
-0.000305419
-0.00182973
-0.000449138
-0.00174238
-0.00063006
-0.0016386
-0.000835942
-0.00153209
-0.00102077
-0.00129829
-0.00111108
-0.00112259
-0.000649316
0.000480571
-0.000777821
0.000212293
-0.000795212
7.67022e-05
-0.000770043
-5.35866e-05
-0.000620626
-0.000153497
-0.000137557
-0.000295622
-0.000207003
-0.000376776
-0.000570025
-0.000754573
-0.000897461
-0.000977441
-0.00098069
-0.000908976
-0.000791131
-0.000584766
-7.04592e-05
-0.000531912
4.43667e-05
-0.000484856
5.78989e-05
-0.000254786
-0.000777533
0.00640654
-0.00132172
0.00146716
-0.00157673
0.000335272
-0.001727
0.000152533
-0.00180656
6.8603e-05
-0.00183834
9.33929e-06
-0.00184785
-3.03091e-05
-0.00185414
-6.40097e-05
-0.00186672
-0.000108214
-0.00189035
-0.000173652
-0.00192784
-0.000267632
-0.00198291
-0.000393751
-0.00206466
-0.000547973
-0.00218862
-0.000711616
-0.00236045
-0.000848537
-0.0025666
-0.000904509
-0.00296468
-0.000724062
-0.00262001
-0.000338093
-0.00216274
2.37717e-05
-0.0020753
0.000125286
-0.00205676
5.8591e-05
-0.00207524
-3.46792e-05
-0.00209968
-0.000128623
-0.00221235
-0.000182506
-0.00206557
-0.000146475
-0.00192035
-0.00014492
-0.00176795
-0.000152093
-0.00161188
-0.000155773
-0.00145712
-0.000154473
-0.00130837
-0.000148476
-0.00116688
-0.000141242
-0.00102625
-0.000140419
-0.000871533
-0.000154568
-0.000741204
-0.000200563
-0.000456844
-0.000239834
-8.10988e-05
-0.000317713
-0.000332763
-0.000495273
0.00721504
-0.00099766
0.0019698
-0.00113052
0.000468418
-0.00127406
0.000296357
-0.00144365
0.000238461
-0.00154521
0.000111161
-0.00157951
4.24758e-06
-0.00159209
-5.11565e-05
-0.00160977
-9.02563e-05
-0.00164632
-0.000136813
-0.00171043
-0.000203217
-0.00180816
-0.000295693
-0.00194387
-0.000411913
-0.00211798
-0.000537134
-0.00232392
-0.000642197
-0.00255201
-0.000675982
-0.00271121
-0.000564406
-0.00270466
-0.00034415
-0.00254252
-0.000137866
-0.00237766
-3.9089e-05
-0.00227571
-4.28865e-05
-0.00221878
-9.11587e-05
-0.00219405
-0.00015291
-0.00218092
-0.00019519
-0.0021168
-0.000210145
-0.00203653
-0.000224756
-0.00195023
-0.000237958
-0.00185956
-0.000246007
-0.00176625
-0.000247373
-0.00167071
-0.000243607
-0.00157057
-0.000241002
-0.00145852
-0.000252101
-0.00131859
-0.00029417
-0.001137
-0.000381854
-0.000842147
-0.000534401
-0.000383251
-0.000776331
0.000338438
-0.00105416
0.00136828
-0.00102974
0.00151215
-0.00014376
0.00153974
-0.00040766
0.00797722
-0.000736112
0.00229852
-0.000469243
0.000201869
-0.00042711
0.000254556
-0.000705282
0.000516953
-0.000983733
0.00038991
-0.00111117
0.000131971
-0.00115942
-2.62952e-06
-0.00118184
-6.75455e-05
-0.00121322
-0.000105138
-0.00127122
-0.000144906
-0.00136565
-0.000200941
-0.00149961
-0.000277608
-0.00166991
-0.000366469
-0.00186646
-0.000445258
-0.00206484
-0.000477176
-0.00220145
-0.000427354
-0.00223458
-0.000310567
-0.00217699
-0.000194986
-0.00208752
-0.000128085
-0.00201339
-0.000116562
-0.00196443
-0.000139667
-0.00193934
-0.000177545
-0.00192288
-0.000211211
-0.001898
-0.000234591
-0.00186791
-0.000254411
-0.00183597
-0.000269468
-0.00180419
-0.000277367
-0.0017745
-0.000276651
-0.00174874
-0.000268965
-0.00172765
-0.000261715
-0.00170905
-0.000270328
-0.00168492
-0.000317955
-0.00163423
-0.00043222
-0.00152097
-0.000647341
-0.00129965
-0.000997342
-0.000880602
-0.0014729
-7.94851e-05
-0.00183054
0.00058325
-0.000806171
0.00215574
-0.000702146
0.00907206
-0.000171859
0.00176853
0.000714459
-0.000684073
0.000874243
9.51499e-05
0.000455172
0.000936386
-1.57095e-06
0.000846993
-0.000315058
0.000445771
-0.000483727
0.000166337
-0.000562599
1.16224e-05
-0.000604927
-6.25016e-05
-0.000653581
-9.59343e-05
-0.000729261
-0.00012493
-0.000839827
-0.000166698
-0.000984449
-0.000221485
-0.00115263
-0.000276696
-0.00131988
-0.000309519
-0.00144736
-0.000299452
-0.00150683
-0.000250655
-0.00150678
-0.000194574
-0.00147665
-0.000157759
-0.00144447
-0.000148285
-0.00142357
-0.000160113
-0.0014172
-0.000183464
-0.0014197
-0.000208263
-0.00142426
-0.000229601
-0.00143038
-0.000247852
-0.00143874
-0.000260687
-0.00145092
-0.000264772
-0.00147031
-0.000256849
-0.00150328
-0.0002356
-0.00155967
-0.00020493
-0.00165128
-0.000178347
-0.00178647
-0.000182412
-0.00196122
-0.00025713
-0.00215928
-0.000448951
-0.00236336
-0.000792936
-0.00254481
-0.00129113
-0.00256152
-0.00181351
-0.00158893
-0.00177843
0.000604491
0.00185877
0.00765692
0.00302799
0.000599596
0.0033042
-0.000959891
0.00259397
0.000805794
0.00175215
0.00177859
0.00118842
0.00141108
0.000796404
0.000838114
0.000525227
0.000437834
0.00033999
0.000197179
0.000222041
5.57701e-05
0.000146836
-2.03927e-05
8.01018e-05
-5.78482e-05
-3.87309e-06
-8.23642e-05
-0.000113798
-0.000111189
-0.000244721
-0.000145388
-0.000379616
-0.000174224
-0.000493388
-0.000185261
-0.000567132
-0.000176475
-0.000602163
-0.000159095
-0.000613312
-0.000146154
-0.000617044
-0.000144094
-0.000624154
-0.000152545
-0.000639567
-0.000167598
-0.00066252
-0.000184862
-0.000690234
-0.000201444
-0.000721604
-0.000216047
-0.000755694
-0.000226169
-0.000791842
-0.000228203
-0.000830642
-0.000217638
-0.000876014
-0.000189826
-0.000938571
-0.000141981
-0.00103959
-7.69513e-05
-0.0012127
-8.93231e-06
-0.00150018
3.07131e-05
-0.00193347
-1.53205e-05
-0.00254552
-0.000180555
-0.00342968
-0.000406643
-0.00457241
-0.000670444
-0.00466118
-0.00168935
-0.00393058
0.00814458
0.00873165
0.00662141
0.00115081
0.00365359
0.00377408
0.00242077
0.00301181
0.00188731
0.0019449
0.00161153
0.00111422
0.00144636
0.000603336
0.00132817
0.000315725
0.00123067
0.000153623
0.00114737
6.32861e-05
0.0010745
1.54067e-05
0.00100456
-1.20277e-05
0.000926774
-3.30042e-05
0.000835723
-5.39267e-05
0.000736644
-7.47255e-05
0.000642464
-9.06534e-05
0.000565327
-9.8898e-05
0.000508583
-0.000101899
0.000467396
-0.000104508
0.000434018
-0.000110252
0.000401827
-0.00011989
0.000365694
-0.000131003
0.000324266
-0.000142976
0.000278259
-0.000154984
0.000228565
-0.000165906
0.000176764
-0.000173928
0.000125532
-0.000176539
7.88469e-05
-0.00017053
4.18096e-05
-0.000152376
1.98196e-05
-0.000119588
1.71699e-05
-7.3909e-05
3.59139e-05
-2.72931e-05
7.71008e-05
-1.00987e-05
0.000124467
-6.2319e-05
0.000156703
-0.000212431
0.000198711
-0.000448295
0.000319446
-0.00079083
0.000263814
-0.00163337
-0.00353186
-0.00392631
0.00276948
-0.00198467
0.001833
-1.65675e-06
0.00102926
0.00111306
0.000830568
0.00164628
0.000581381
0.00191752
0.00033251
0.0020588
0.000174864
0.00213065
8.221e-05
0.00216554
2.88425e-05
0.00217395
7.4614e-06
0.0021602
2.17519e-06
0.00212576
1.89286e-06
0.00207186
4.34459e-07
0.00200248
-4.89121e-06
0.00192479
-1.24968e-05
0.001847
-2.06479e-05
0.00177473
-2.91616e-05
0.00170956
-3.88734e-05
0.0016502
-5.04243e-05
0.00159431
-6.35247e-05
0.00153779
-7.40102e-05
0.00147922
-8.39399e-05
0.00141823
-9.35317e-05
0.0013549
-0.000102121
0.00129018
-0.000108751
0.00122632
-0.000112234
0.00116745
-0.000111225
0.00112002
-0.000104521
0.00109278
-9.19278e-05
0.00109553
-7.6249e-05
0.00113551
-6.68728e-05
0.0012096
-8.37955e-05
0.00130147
-0.000153796
0.00138985
-0.000300432
0.00147576
-0.000533841
0.00156251
-0.000877217
0.00140077
-0.00147128
-0.00210245
-0.000601693
0.00334673
0.000993799
0.000238121
0.00167049
0.000353144
0.00225345
0.000248144
0.00276214
7.32337e-05
0.00310298
-7.7735e-06
0.00330055
-2.21442e-05
0.00339884
-1.55158e-05
0.00342824
-2.66068e-09
0.00341349
2.27606e-05
0.00337238
4.38225e-05
0.00331647
5.83246e-05
0.00325284
6.45695e-05
0.0031845
6.39533e-05
0.00311419
5.83093e-05
0.00304458
4.94562e-05
0.00297731
3.85951e-05
0.00291244
2.6481e-05
0.0028488
1.36999e-05
0.0027847
1.05389e-06
0.00272071
-9.54024e-06
0.00265614
-1.89017e-05
0.0025899
-2.68282e-05
0.00252152
-3.32737e-05
0.00245141
-3.81845e-05
0.00238116
-4.15298e-05
0.00231379
-4.34189e-05
0.002254
-4.42868e-05
0.00220776
-4.52605e-05
0.00218079
-4.8858e-05
0.00217442
-6.00897e-05
0.00217856
-8.75339e-05
0.00216765
-0.000142489
0.00210414
-0.000236534
0.00194866
-0.00037798
0.00163663
-0.000564824
0.001008
-0.000842287
-0.00106291
0.00442347
0.000837501
0.00414592
0.0043451
0.00465624
0.00485841
0.00488139
0.00481931
0.00473941
0.00466342
0.00460114
0.00456089
0.00454198
0.00453865
0.00454313
0.00454877
0.00455057
0.00454527
0.00453073
0.00450553
0.00446888
0.00442078
0.00436321
0.00429735
0.00422458
0.00414633
0.00406409
0.00397941
0.00389373
0.00380807
0.0037223
0.00363375
0.00353474
0.00340896
0.00322878
0.00295496
0.00253993
0.0019381
0.0010597
)
;

boundaryField
{
    floor
    {
        type            calculated;
        value           nonuniform List<scalar> 
29
(
0
0
0
0
0
0
0
0
0
0
0
0
0
0
0
0
0
0
0
0
-2.9081e-06
-7.82379e-06
-5.86634e-06
-2.92615e-06
-1.49737e-06
-3.21651e-06
-8.11231e-06
-8.77677e-06
-6.11263e-06
)
;
    }
    ceiling
    {
        type            calculated;
        value           nonuniform List<scalar> 
43
(
0.000110308
8.64154e-05
3.89294e-05
3.96093e-05
4.2686e-05
4.66767e-05
5.09573e-05
5.50021e-05
5.84465e-05
6.11421e-05
6.29399e-05
6.36513e-05
6.33439e-05
6.22497e-05
6.06722e-05
5.88761e-05
5.70457e-05
5.52894e-05
5.36626e-05
5.21856e-05
5.08557e-05
4.96557e-05
4.85142e-05
4.74368e-05
4.64196e-05
4.54507e-05
4.4516e-05
4.36029e-05
4.27033e-05
4.18155e-05
4.09461e-05
4.01111e-05
3.9336e-05
3.86517e-05
3.8089e-05
3.76756e-05
3.74378e-05
3.7367e-05
3.64688e-05
3.91384e-05
1.44871e-05
1.27823e-05
2.51973e-05
)
;
    }
    sWall
    {
        type            calculated;
        value           uniform -9.82192e-05;
    }
    nWall
    {
        type            calculated;
        value           nonuniform List<scalar> 6(-2.74634e-05 -3.24091e-05 -3.73287e-05 -2.83004e-05 -3.12002e-05 -4.20146e-05);
    }
    sideWalls
    {
        type            empty;
        value           nonuniform 0();
    }
    glass1
    {
        type            calculated;
        value           nonuniform List<scalar> 9(-5.80123e-05 -0.000145702 -0.000212395 -0.000266498 -0.000313038 -0.000354322 -0.000392488 -0.000443425 -0.000501935);
    }
    glass2
    {
        type            calculated;
        value           nonuniform List<scalar> 2(-0.000125785 -0.000134585);
    }
    sun
    {
        type            calculated;
        value           uniform 0;
    }
    heatsource1
    {
        type            calculated;
        value           nonuniform List<scalar> 3(2.01762e-07 2.01845e-07 2.01968e-07);
    }
    heatsource2
    {
        type            calculated;
        value           nonuniform List<scalar> 4(5.09001e-08 5.10606e-08 0 0);
    }
    Table_master
    {
        type            calculated;
        value           nonuniform List<scalar> 9(-1.53601e-07 -1.5355e-07 -1.53413e-07 -1.53236e-07 -1.53051e-07 -1.52885e-07 -1.52756e-07 -1.52645e-07 -1.52537e-07);
    }
    Table_slave
    {
        type            calculated;
        value           nonuniform List<scalar> 9(1.51779e-07 1.51812e-07 1.51835e-07 1.51857e-07 1.51878e-07 1.51895e-07 1.51905e-07 1.51909e-07 1.51887e-07);
    }
    inlet
    {
        type            calculated;
        value           uniform 0.00230848;
    }
    outlet
    {
        type            calculated;
        value           nonuniform List<scalar> 2(-0.00443515 0.00349998);
    }
}


// ************************************************************************* //
