// -*- C++ -*-
// File generated by PyFoam - sorry for the ugliness

FoamFile
{
 version 2.0;
 format ascii;
 class volScalarField;
 location "100";
 object T;
}

dimensions [ 0 0 0 1 0 0 0 ];

internalField nonuniform List<scalar> 459
(
  304.055
  303.749
  303.743
  303.75
  303.76
  303.771
  303.782
  303.792
  303.802
  303.809
  303.815
  303.817
  303.817
  303.814
  303.808
  303.315
  303.303
  303.297
  303.289
  303.287
  303.289
  303.289
  303.285
  303.288
  303.298
  303.315
  303.337
  303.363
  303.392
  303.433
  303.488
  303.533
  303.529
  303.503
  304.297
  303.892
  303.852
  303.86
  303.877
  303.893
  303.908
  303.922
  303.934
  303.943
  303.949
  303.948
  303.941
  303.923
  303.892
  303.844
  303.664
  303.341
  303.342
  303.332
  303.319
  303.297
  303.269
  303.238
  303.24
  303.261
  303.302
  303.358
  303.42
  303.482
  303.564
  303.651
  303.725
  303.713
  303.629
  303.542
  304.517
  304.046
  303.975
  303.973
  303.992
  304.014
  304.035
  304.055
  304.072
  304.085
  304.093
  304.092
  304.08
  304.053
  304.006
  303.943
  303.874
  303.515
  303.54
  303.573
  303.615
  303.641
  303.608
  303.249
  303.253
  303.32
  303.428
  303.559
  303.689
  303.808
  303.908
  304.013
  304.125
  304.135
  304.145
  304.196
  304.725
  304.227
  304.147
  304.122
  304.129
  304.151
  304.177
  304.203
  304.227
  304.247
  304.26
  304.263
  304.253
  304.223
  304.17
  304.093
  303.999
  303.919
  303.872
  303.948
  304.034
  304.111
  304.172
  304.223
  304.268
  304.294
  304.323
  304.354
  304.389
  304.428
  304.469
  304.51
  304.545
  304.557
  304.598
  304.653
  304.736
  304.928
  304.437
  304.377
  304.337
  304.314
  304.318
  304.339
  304.369
  304.4
  304.428
  304.45
  304.463
  304.464
  304.449
  304.417
  304.37
  304.317
  304.271
  304.247
  304.267
  304.314
  304.36
  304.397
  304.428
  304.454
  304.478
  304.505
  304.536
  304.572
  304.612
  304.657
  304.705
  304.754
  304.8
  304.854
  304.908
  304.958
  304.978
  304.923
  304.876
  305.125
  304.687
  304.704
  304.677
  304.609
  304.56
  304.55
  304.567
  304.598
  304.632
  304.662
  304.685
  304.697
  304.695
  304.676
  304.642
  304.6
  304.563
  304.54
  304.538
  304.552
  304.57
  304.588
  304.603
  304.618
  304.633
  304.651
  304.673
  304.7
  304.735
  304.778
  304.827
  304.881
  304.936
  304.989
  305.033
  305.062
  305.065
  304.978
  304.875
  305.319
  304.994
  305.213
  305.188
  305.08
  304.96
  304.874
  304.847
  304.851
  304.879
  304.912
  304.943
  304.965
  304.974
  304.968
  304.945
  304.911
  304.874
  304.844
  304.826
  304.817
  304.815
  304.814
  304.814
  304.814
  304.814
  304.816
  304.821
  304.831
  304.848
  304.875
  304.913
  304.962
  305.016
  305.068
  305.111
  305.136
  305.133
  305.076
  304.881
  305.556
  305.4
  305.831
  305.89
  305.727
  305.523
  305.374
  305.286
  305.244
  305.231
  305.246
  305.273
  305.297
  305.312
  305.314
  305.301
  305.274
  305.239
  305.202
  305.17
  305.144
  305.122
  305.103
  305.085
  305.067
  305.049
  305.031
  305.015
  305
  304.991
  304.989
  304.999
  305.025
  305.066
  305.118
  305.172
  305.22
  305.26
  305.293
  305.324
  305.862
  305.89
  307
  306.983
  306.572
  306.194
  305.963
  305.842
  305.786
  305.766
  305.76
  305.758
  305.76
  305.762
  305.757
  305.742
  305.715
  305.678
  305.635
  305.591
  305.548
  305.507
  305.468
  305.43
  305.393
  305.355
  305.317
  305.279
  305.241
  305.204
  305.172
  305.148
  305.136
  305.139
  305.158
  305.187
  305.221
  305.257
  305.3
  305.379
  312.766
  308.465
  307.286
  306.739
  306.56
  306.487
  306.462
  306.456
  306.453
  306.444
  306.425
  306.397
  306.361
  306.319
  306.27
  306.215
  306.155
  306.093
  306.03
  305.968
  305.908
  305.848
  305.789
  305.731
  305.673
  305.614
  305.556
  305.498
  305.441
  305.39
  305.347
  305.318
  305.303
  305.303
  305.314
  305.331
  305.35
  305.364
  311.662
  309.334
  308.51
  308.001
  307.73
  307.591
  307.511
  307.449
  307.388
  307.325
  307.256
  307.18
  307.099
  307.013
  306.924
  306.833
  306.74
  306.649
  306.558
  306.469
  306.384
  306.302
  306.221
  306.142
  306.065
  305.988
  305.912
  305.837
  305.762
  305.692
  305.626
  305.57
  305.525
  305.493
  305.47
  305.453
  305.434
  305.409
  310.486
  310.53
  311.296
  310.759
  310.237
  309.836
  309.554
  309.33
  309.129
  308.942
  308.763
  308.586
  308.41
  308.239
  308.075
  307.918
  307.768
  307.626
  307.491
  307.362
  307.239
  307.121
  307.006
  306.894
  306.786
  306.681
  306.578
  306.478
  306.379
  306.283
  306.189
  306.096
  306.007
  305.921
  305.839
  305.762
  305.688
  305.614
  305.534
  305.454
)
;

boundaryField
{
  floor
  {
    type wallHeatTransfer;
    Tinf uniform 305.2;
    alphaWall uniform 0.24;
    value nonuniform List<scalar> 29
(
  304.009
  303.745
  303.693
  303.725
  303.824
  303.91
  303.935
  303.934
  303.913
  303.888
  303.864
  303.846
  303.836
  303.832
  303.837
  303.849
  303.873
  303.897
  303.893
  303.892
  303.892
  303.891
  304.353
  304.792
  304.009
  303.745
  303.702
  303.75
  304.06
)
;
  }
  ceiling
  {
    type wallHeatTransfer;
    Tinf uniform 303.2;
    alphaWall uniform 0.24;
    value nonuniform List<scalar> 43
(
  309.843
  310.02
  311.062
  310.522
  309.982
  309.559
  309.252
  309.006
  308.785
  308.583
  308.394
  308.213
  308.04
  307.876
  307.721
  307.574
  307.436
  307.304
  307.178
  307.058
  306.943
  306.832
  306.724
  306.619
  306.517
  306.417
  306.32
  306.225
  306.132
  306.041
  305.952
  305.864
  305.779
  305.697
  305.619
  305.544
  305.472
  305.399
  305.325
  305.23
  305.747
  305.788
  311.49
)
;
  }
  sWall
  {
    type wallHeatTransfer;
    Tinf uniform 315.2;
    alphaWall uniform 0.36;
    value uniform 311.085;
  }
  nWall
  {
    type wallHeatTransfer;
    Tinf uniform 307.2;
    alphaWall uniform 0.36;
    value nonuniform List<scalar> 6
(
  305.29
  305.275
  305.27
  305.568
  305.611
  305.702
)
;
  }
  sideWalls
  {
    type empty;
  }
  glass1
  {
    type wallHeatTransfer;
    Tinf uniform 315.2;
    alphaWall uniform 4.3;
    value nonuniform List<scalar> 9
(
  312.287
  311.171
  310.526
  310.112
  309.853
  309.692
  309.609
  309.762
  310.053
)
;
  }
  glass2
  {
    type wallHeatTransfer;
    Tinf uniform 307.2;
    alphaWall uniform 4.3;
    value nonuniform List<scalar> 2
(
  306.478
  306.466
)
;
  }
  sun
  {
    type wallHeatTransfer;
    Tinf uniform 305.2;
    alphaWall uniform 0.24;
    value nonuniform List<scalar> 14
(
  304.208
  303.939
  303.97
  303.986
  303.993
  303.998
  304.003
  304.008
  304.011
  304.014
  304.015
  304.015
  304.013
  304.011
)
;
  }
  heatsource1
  {
    type fixedGradient;
    gradient uniform 0;
  }
  heatsource2
  {
    type fixedGradient;
    gradient uniform 0;
  }
  Table_master
  {
    type zeroGradient;
  }
  Table_slave
  {
    type zeroGradient;
  }
  inlet
  {
    type fixedValue;
    value uniform 299.15;
  }
  outlet
  {
    type zeroGradient;
  }
} 	// ************************************************************************* //

