// -*- C++ -*-
// File generated by PyFoam - sorry for the ugliness

FoamFile
{
 version 2.0;
 format ascii;
 class volVectorField;
 location "100";
 object U;
}

dimensions [ 0 1 -1 0 0 0 0 ];

internalField nonuniform List<vector> 459
(
  (0.10178 0.0601026 0)
  (-0.126422 -0.00427046 0)
  (-0.0910111 -0.00511088 0)
  (-0.0868736 -0.00238844 0)
  (-0.0846624 -0.00127256 0)
  (-0.0836135 -0.000982511 0)
  (-0.0828113 -0.00118612 0)
  (-0.0816694 -0.00178264 0)
  (-0.0796778 -0.00276422 0)
  (-0.0763023 -0.00415692 0)
  (-0.0707822 -0.0060052 0)
  (-0.0619722 -0.00844963 0)
  (-0.049272 -0.0119502 0)
  (-0.0367626 -0.0172342 0)
  (-0.041534 -0.0228166 0)
  (0.0240243 0.00801188 0)
  (-0.0212578 -0.0065614 0)
  (-0.0106886 -0.0086424 0)
  (-0.000331931 -0.00424264 0)
  (0.00329355 0.000180503 0)
  (0.0010678 0.00235067 0)
  (0.000303172 -0.000690264 0)
  (0.0037714 -0.00283113 0)
  (0.00988854 -0.00402063 0)
  (0.0165778 -0.00454446 0)
  (0.022734 -0.00432229 0)
  (0.0275669 -0.00356978 0)
  (0.0307723 -0.0026862 0)
  (0.0323481 -0.00148713 0)
  (0.0311396 0.000163806 0)
  (0.0275952 0.000892743 0)
  (0.0258378 -0.00277676 0)
  (0.029553 -0.00483034 0)
  (-0.0151731 0.00902402 0)
  (0.286537 0.132723 0)
  (-0.148347 0.00588597 0)
  (-0.0851335 -0.00737468 0)
  (-0.0871846 -0.00379668 0)
  (-0.0872869 -0.00177581 0)
  (-0.087036 -0.00107503 0)
  (-0.0865238 -0.00123637 0)
  (-0.0856621 -0.00213464 0)
  (-0.0841894 -0.00377812 0)
  (-0.0817334 -0.00622759 0)
  (-0.0777436 -0.00955262 0)
  (-0.0714592 -0.01388 0)
  (-0.0622707 -0.019591 0)
  (-0.0506658 -0.0272802 0)
  (-0.0384914 -0.0360397 0)
  (-0.0253326 -0.0411787 0)
  (0.0209231 0.00365532 0)
  (0.101531 0.00798636 0)
  (0.0241762 0.00340206 0)
  (0.00125611 -0.00221966 0)
  (0.000162627 -0.00229449 0)
  (0.000636345 0.00200897 0)
  (-0.00191147 0.00727334 0)
  (-0.00268658 -0.0013988 0)
  (-0.00178534 -0.00547814 0)
  (0.000182593 -0.00711371 0)
  (0.00133876 -0.00737974 0)
  (0.0018926 -0.0060677 0)
  (0.00186941 -0.00357107 0)
  (0.0014252 -0.000360339 0)
  (-0.00175987 0.00314047 0)
  (-0.00457462 0.00551121 0)
  (-0.00542728 0.00619279 0)
  (-0.00224087 0.00479742 0)
  (-0.0126355 0.0102078 0)
  (-0.0912118 0.0230074 0)
  (0.433098 0.201311 0)
  (-0.183138 0.0275826 0)
  (-0.0724693 -0.00180849 0)
  (-0.081354 -0.00228089 0)
  (-0.0845627 -0.00149234 0)
  (-0.0852997 -0.00140242 0)
  (-0.0853349 -0.0019218 0)
  (-0.0851076 -0.00320354 0)
  (-0.0846787 -0.00542383 0)
  (-0.0839349 -0.00876375 0)
  (-0.0826239 -0.0134027 0)
  (-0.0804027 -0.0195165 0)
  (-0.0770136 -0.0272402 0)
  (-0.0724972 -0.0362476 0)
  (-0.0673384 -0.0445601 0)
  (-0.063887 -0.0481132 0)
  (-0.0697991 -0.0445469 0)
  (0.0373991 0.0108406 0)
  (-0.0371543 0.00736257 0)
  (-0.0358154 0.00474181 0)
  (-0.0339383 -0.000502404 0)
  (-0.0306889 -0.00402179 0)
  (-0.0252632 -0.00647556 0)
  (0.0038526 -0.0068362 0)
  (-0.011925 -0.011612 0)
  (-0.0203693 -0.0118043 0)
  (-0.028906 -0.0107502 0)
  (-0.0362466 -0.00885336 0)
  (-0.0412809 -0.00668408 0)
  (-0.043392 -0.00460543 0)
  (-0.0414994 -0.00271263 0)
  (-0.0364368 -0.00128396 0)
  (-0.0284183 0.00173917 0)
  (-0.0179022 0.00556438 0)
  (-0.0198436 0.00608073 0)
  (-0.0860602 0.0041236 0)
  (0.547314 0.255783 0)
  (-0.211802 0.0531049 0)
  (-0.0551396 0.00910311 0)
  (-0.068306 0.00271638 0)
  (-0.0767624 0.000585702 0)
  (-0.0790712 -0.000685063 0)
  (-0.0796914 -0.00174082 0)
  (-0.0799155 -0.00309968 0)
  (-0.0802742 -0.00523188 0)
  (-0.0810221 -0.00847662 0)
  (-0.0822918 -0.0130822 0)
  (-0.0841922 -0.0191726 0)
  (-0.0869268 -0.0265771 0)
  (-0.0909147 -0.0344105 0)
  (-0.0972206 -0.0404613 0)
  (-0.108417 -0.0405989 0)
  (-0.124042 -0.0272014 0)
  (-0.122213 0.0101783 0)
  (-0.0939518 0.0110359 0)
  (-0.0942211 0.00814792 0)
  (-0.089167 0.0028092 0)
  (-0.089148 -0.00239157 0)
  (-0.0908166 -0.00687908 0)
  (-0.0938349 -0.00990121 0)
  (-0.0929432 -0.00692309 0)
  (-0.0862321 -0.00637393 0)
  (-0.0797011 -0.00662872 0)
  (-0.073018 -0.00676939 0)
  (-0.0663064 -0.00673569 0)
  (-0.0597584 -0.00652654 0)
  (-0.0534705 -0.00621362 0)
  (-0.0474228 -0.00590047 0)
  (-0.0413476 -0.00542758 0)
  (-0.0351795 -0.00443173 0)
  (-0.0245828 -0.00296867 0)
  (-0.0115053 -0.0042622 0)
  (-0.0346767 -0.00933668 0)
  (0.636445 0.297638 0)
  (-0.232316 0.0787584 0)
  (-0.0360086 0.020359 0)
  (-0.0441496 0.0105468 0)
  (-0.0589406 0.00567136 0)
  (-0.0655966 0.0015849 0)
  (-0.0679186 -0.00102314 0)
  (-0.0685544 -0.00265105 0)
  (-0.0690477 -0.00435011 0)
  (-0.0701241 -0.00676709 0)
  (-0.0722285 -0.0102913 0)
  (-0.0756619 -0.0150945 0)
  (-0.0806341 -0.021009 0)
  (-0.0873095 -0.0273402 0)
  (-0.0958885 -0.0327954 0)
  (-0.106162 -0.03529 0)
  (-0.115212 -0.0310804 0)
  (-0.118129 -0.0166411 0)
  (-0.113168 -0.00363066 0)
  (-0.106148 0.00162181 0)
  (-0.100142 0.000468142 0)
  (-0.09689 -0.0024517 0)
  (-0.0954262 -0.00567736 0)
  (-0.094786 -0.00783322 0)
  (-0.0930659 -0.00777217 0)
  (-0.08986 -0.00828884 0)
  (-0.0862193 -0.00874635 0)
  (-0.082379 -0.00901135 0)
  (-0.0784104 -0.00902037 0)
  (-0.0743577 -0.00883846 0)
  (-0.0701915 -0.00872241 0)
  (-0.0657506 -0.00915362 0)
  (-0.0605813 -0.0106883 0)
  (-0.0534725 -0.0135689 0)
  (-0.0426533 -0.0179091 0)
  (-0.0262291 -0.0253621 0)
  (-0.00636013 -0.0354413 0)
  (0.0308465 -0.0513488 0)
  (0.0822466 -0.0296954 0)
  (-0.0568819 0.0219475 0)
  (0.695726 0.332221 0)
  (-0.249599 0.0958941 0)
  (-0.016568 0.0209469 0)
  (-0.00587863 0.0175597 0)
  (-0.0223183 0.0178337 0)
  (-0.038348 0.0089071 0)
  (-0.0465025 0.0015859 0)
  (-0.0495888 -0.00176117 0)
  (-0.0506302 -0.00359013 0)
  (-0.0515876 -0.00521226 0)
  (-0.0534036 -0.00740344 0)
  (-0.0566394 -0.0105603 0)
  (-0.0615651 -0.014692 0)
  (-0.0682264 -0.0192596 0)
  (-0.0764675 -0.0231511 0)
  (-0.0855185 -0.0246369 0)
  (-0.0931436 -0.0217854 0)
  (-0.0967636 -0.0148985 0)
  (-0.0958302 -0.00802038 0)
  (-0.0922481 -0.00425242 0)
  (-0.0884706 -0.00381106 0)
  (-0.0858081 -0.0052176 0)
  (-0.0843191 -0.00733402 0)
  (-0.0835413 -0.00907249 0)
  (-0.0826792 -0.00995356 0)
  (-0.0814611 -0.0107569 0)
  (-0.0800953 -0.011418 0)
  (-0.0786978 -0.0118157 0)
  (-0.0773503 -0.0119041 0)
  (-0.0761416 -0.0117782 0)
  (-0.0751561 -0.0117732 0)
  (-0.0744134 -0.0125405 0)
  (-0.0736722 -0.0149907 0)
  (-0.0720718 -0.0200975 0)
  (-0.0681475 -0.0288436 0)
  (-0.0604418 -0.0425368 0)
  (-0.0485338 -0.0599718 0)
  (-0.0327628 -0.0716607 0)
  (0.036827 -0.0279082 0)
  (-0.118467 0.0754343 0)
  (0.712689 0.363008 0)
  (-0.255788 0.0738907 0)
  (0.0201547 -0.032619 0)
  (0.0489153 0.0106696 0)
  (0.0340059 0.0343094 0)
  (0.00866125 0.0262929 0)
  (-0.00953098 0.00953184 0)
  (-0.0183417 0.00132208 0)
  (-0.0232685 -0.00235857 0)
  (-0.0253213 -0.00410567 0)
  (-0.0270635 -0.00534456 0)
  (-0.0296237 -0.00700708 0)
  (-0.0336163 -0.00949077 0)
  (-0.0392137 -0.0125801 0)
  (-0.0462035 -0.015518 0)
  (-0.0538096 -0.0170476 0)
  (-0.0604701 -0.0160053 0)
  (-0.0645559 -0.0127412 0)
  (-0.0656411 -0.00912898 0)
  (-0.0647062 -0.00682816 0)
  (-0.0631581 -0.0062504 0)
  (-0.0619401 -0.00690743 0)
  (-0.0613695 -0.00819378 0)
  (-0.0613411 -0.00948671 0)
  (-0.061523 -0.0104973 0)
  (-0.0617477 -0.011348 0)
  (-0.0620441 -0.0119645 0)
  (-0.0624581 -0.0122238 0)
  (-0.0630841 -0.0120347 0)
  (-0.0641215 -0.0114305 0)
  (-0.0659337 -0.0107064 0)
  (-0.0690511 -0.0105735 0)
  (-0.0739638 -0.0122084 0)
  (-0.080721 -0.0170657 0)
  (-0.0890266 -0.0265381 0)
  (-0.0981076 -0.041338 0)
  (-0.105008 -0.0588354 0)
  (-0.103773 -0.0657845 0)
  (-0.103547 -0.0275149 0)
  (-0.181903 0.124334 0)
  (0.805838 0.375182 0)
  (-0.0538616 0.0292301 0)
  (0.0944504 -0.0888054 0)
  (0.146102 -0.00543303 0)
  (0.104808 0.0449861 0)
  (0.0599875 0.0431273 0)
  (0.0385552 0.0255518 0)
  (0.027352 0.0114641 0)
  (0.0184378 0.00315724 0)
  (0.0115947 -0.00114432 0)
  (0.00767588 -0.00311845 0)
  (0.00500553 -0.00423911 0)
  (0.00189286 -0.00548282 0)
  (-0.00234102 -0.00725243 0)
  (-0.00766454 -0.0092483 0)
  (-0.0136389 -0.0107202 0)
  (-0.0192382 -0.010908 0)
  (-0.0233797 -0.0098188 0)
  (-0.0256541 -0.00829192 0)
  (-0.0264918 -0.007174 0)
  (-0.0266705 -0.00682339 0)
  (-0.0268234 -0.00715473 0)
  (-0.0272903 -0.0079091 0)
  (-0.0281381 -0.00878128 0)
  (-0.029253 -0.00958622 0)
  (-0.0305372 -0.0102766 0)
  (-0.0319552 -0.0107357 0)
  (-0.033469 -0.0107976 0)
  (-0.035062 -0.0102739 0)
  (-0.0368044 -0.00901523 0)
  (-0.0389713 -0.00703854 0)
  (-0.0422098 -0.00473676 0)
  (-0.0476988 -0.00317227 0)
  (-0.0571328 -0.00439147 0)
  (-0.0732766 -0.0114336 0)
  (-0.0966671 -0.0262424 0)
  (-0.125814 -0.0486962 0)
  (-0.155503 -0.0763187 0)
  (-0.205078 -0.104066 0)
  (-0.42495 -0.126121 0)
  (0.934659 0.348706 0)
  (0.435394 0.16043 0)
  (0.181074 0.0720074 0)
  (0.245094 0.112065 0)
  (0.152891 0.116521 0)
  (0.0851879 0.0857852 0)
  (0.0682584 0.0524522 0)
  (0.0650609 0.0295241 0)
  (0.0607663 0.0158978 0)
  (0.0558084 0.00795428 0)
  (0.0515982 0.00347624 0)
  (0.0481153 0.00110429 0)
  (0.0451339 -0.000240962 0)
  (0.0420378 -0.00133968 0)
  (0.0383782 -0.00249977 0)
  (0.0341612 -0.0035737 0)
  (0.0298274 -0.00422221 0)
  (0.0260083 -0.00429535 0)
  (0.023097 -0.00401852 0)
  (0.0210388 -0.00374627 0)
  (0.019505 -0.00371093 0)
  (0.018151 -0.00396062 0)
  (0.0166989 -0.00441214 0)
  (0.0150177 -0.00496691 0)
  (0.0131126 -0.00553544 0)
  (0.0110283 -0.00605334 0)
  (0.00881346 -0.00642256 0)
  (0.00655634 -0.00650405 0)
  (0.0044009 -0.00611376 0)
  (0.00254787 -0.00503864 0)
  (0.00123588 -0.00310172 0)
  (0.000705359 -0.000305105 0)
  (0.00114852 0.00293469 0)
  (0.00220309 0.00551145 0)
  (0.00426106 0.00571861 0)
  (0.00535131 0.00213474 0)
  (0.00676686 -0.00406715 0)
  (0.0153302 -0.0150869 0)
  (0.0622541 -0.06722 0)
  (-0.290626 -0.172663 0)
  (-1.63295 0.0799246 0)
  (0.0239435 0.139856 0)
  (0.00538417 0.105235 0)
  (0.0195662 0.0683105 0)
  (0.0540967 0.0426147 0)
  (0.0779093 0.027261 0)
  (0.088284 0.019904 0)
  (0.0922073 0.0172122 0)
  (0.0939566 0.016839 0)
  (0.0947197 0.0172602 0)
  (0.0945533 0.0174602 0)
  (0.0934529 0.0169891 0)
  (0.0914757 0.0158114 0)
  (0.0887257 0.0140717 0)
  (0.0854286 0.01213 0)
  (0.0819495 0.0102911 0)
  (0.0786289 0.00866413 0)
  (0.0756315 0.00721156 0)
  (0.072945 0.00585742 0)
  (0.0704714 0.00456016 0)
  (0.0680432 0.00337256 0)
  (0.0655441 0.00225462 0)
  (0.0629389 0.0012093 0)
  (0.060226 0.000268765 0)
  (0.0574245 -0.000510914 0)
  (0.054598 -0.00104977 0)
  (0.0518798 -0.00124445 0)
  (0.0494956 -0.000983608 0)
  (0.0477776 -0.000205118 0)
  (0.0471453 0.000963343 0)
  (0.0480147 0.00194637 0)
  (0.0504951 0.00141729 0)
  (0.0542884 -0.00240206 0)
  (0.0582964 -0.0109261 0)
  (0.0618796 -0.0242258 0)
  (0.0658628 -0.0429064 0)
  (0.0939898 -0.0767245 0)
  (-0.066492 -0.134207 0)
  (-0.696061 0.103747 0)
  (0.232406 0.0495207 0)
  (0.0914587 0.00660449 0)
  (0.0774219 -0.0129622 0)
  (0.104747 -0.0330307 0)
  (0.129023 -0.0522316 0)
  (0.141948 -0.0682829 0)
  (0.147611 -0.081914 0)
  (0.149668 -0.0928163 0)
  (0.14968 -0.0994684 0)
  (0.148293 -0.102222 0)
  (0.146046 -0.101974 0)
  (0.143345 -0.0997743 0)
  (0.140388 -0.0964719 0)
  (0.13729 -0.092729 0)
  (0.134168 -0.0890176 0)
  (0.131125 -0.085652 0)
  (0.128207 -0.0828063 0)
  (0.125377 -0.0805323 0)
  (0.12256 -0.0787647 0)
  (0.119776 -0.0770274 0)
  (0.116962 -0.0754326 0)
  (0.11409 -0.0740285 0)
  (0.111134 -0.0727995 0)
  (0.108089 -0.0717013 0)
  (0.104993 -0.0706803 0)
  (0.101941 -0.0696859 0)
  (0.0990997 -0.0686832 0)
  (0.0967032 -0.0676705 0)
  (0.0950227 -0.066711 0)
  (0.0942564 -0.0659843 0)
  (0.0942809 -0.0658349 0)
  (0.0943912 -0.0666816 0)
  (0.0931388 -0.0688539 0)
  (0.0886878 -0.0723866 0)
  (0.0788049 -0.0771472 0)
  (0.090156 -0.0850218 0)
  (-0.109381 -0.0960527 0)
  (0.503346 0.200117 0)
  (0.286115 -0.146461 0)
  (-0.142122 0.166343 0)
  (0.237428 0.12302 0)
  (0.248209 0.128279 0)
  (0.215938 0.149727 0)
  (0.210044 0.174651 0)
  (0.212126 0.202159 0)
  (0.210823 0.229191 0)
  (0.206975 0.253955 0)
  (0.20322 0.274516 0)
  (0.200548 0.28809 0)
  (0.199087 0.294502 0)
  (0.198539 0.29479 0)
  (0.198531 0.290625 0)
  (0.198719 0.283671 0)
  (0.198839 0.275329 0)
  (0.198708 0.266644 0)
  (0.198213 0.258329 0)
  (0.197284 0.250819 0)
  (0.195877 0.244326 0)
  (0.193991 0.238877 0)
  (0.191587 0.233826 0)
  (0.1888 0.229282 0)
  (0.185702 0.225314 0)
  (0.18234 0.221895 0)
  (0.178772 0.218941 0)
  (0.175064 0.21635 0)
  (0.171281 0.214015 0)
  (0.167481 0.211836 0)
  (0.163688 0.209718 0)
  (0.159856 0.207565 0)
  (0.155788 0.20525 0)
  (0.151011 0.202577 0)
  (0.144626 0.199289 0)
  (0.135205 0.195125 0)
  (0.120869 0.189963 0)
  (0.0997723 0.184192 0)
  (0.10325 0.173584 0)
  (-0.169558 0.199458 0)
)
;

boundaryField
{
  floor
  {
    type noSlip;
  }
  ceiling
  {
    type noSlip;
  }
  sWall
  {
    type noSlip;
  }
  nWall
  {
    type noSlip;
  }
  sideWalls
  {
    type empty;
  }
  glass1
  {
    type noSlip;
  }
  glass2
  {
    type noSlip;
  }
  sun
  {
    type noSlip;
  }
  heatsource1
  {
    type noSlip;
  }
  heatsource2
  {
    type noSlip;
  }
  Table_master
  {
    type noSlip;
  }
  Table_slave
  {
    type noSlip;
  }
  inlet
  {
    type fixedValue;
    value uniform (0.353553 -0.353553 0);
  }
  outlet
  {
    type zeroGradient;
  }
} 	// ************************************************************************* //

