/*--------------------------------*- C++ -*----------------------------------*\
  =========                 |
  \\      /  F ield         | OpenFOAM: The Open Source CFD Toolbox
   \\    /   O peration     | Website:  https://openfoam.org
    \\  /    A nd           | Version:  6
     \\/     M anipulation  |
\*---------------------------------------------------------------------------*/
FoamFile
{
    version     2.0;
    format      ascii;
    class       volScalarField;
    location    "1530";
    object      alphat;
}
// * * * * * * * * * * * * * * * * * * * * * * * * * * * * * * * * * * * * * //

dimensions      [1 -1 -1 0 0 0 0];

internalField   nonuniform List<scalar> 
458
(
0.00124411
0.00135524
0.00138593
0.00145225
0.00151334
0.00157118
0.00162905
0.0016878
0.00173585
0.00176606
0.0017695
0.00173738
0.00165866
0.00149198
0.0011318
0.000559112
0.000655487
0.000743174
0.000774891
0.00076275
0.000713766
0.000659573
0.000611083
0.000569081
0.000532599
0.000500744
0.000472868
0.00044815
0.000425636
0.000404282
0.00038284
0.000370094
0.00034011
0.00167644
0.00377433
0.00348162
0.00398927
0.0044954
0.00501606
0.0054833
0.00584469
0.00621603
0.00656378
0.00684282
0.00701231
0.00702805
0.00678315
0.00551246
0.00149407
0.00123949
0.00101122
0.000554593
0.00131634
0.00191859
0.00238473
0.00253214
0.00184535
0.00155784
0.0013622
0.00121781
0.00110719
0.00101941
0.000943727
0.000872588
0.000801586
0.000738145
0.000684979
0.000837898
0.000447109
0.00203694
0.00507223
0.00418646
0.0051044
0.00549015
0.00576103
0.00596926
0.00616157
0.00642948
0.00675535
0.00711155
0.00746048
0.00773569
0.00783167
0.0073791
0.00601383
0.0045576
0.00119435
0.000854275
0.00147427
0.00214533
0.00281271
0.0030033
0.000959337
0.000839882
0.000740489
0.000659987
0.000595022
0.000542376
0.000499581
0.000464973
0.000438054
0.000485437
0.000562193
0.000983126
0.000528382
0.00238377
0.00647797
0.00407218
0.00528777
0.00549874
0.00547762
0.00545807
0.00555029
0.00576833
0.00609107
0.0065011
0.0069581
0.00735784
0.00760875
0.00755147
0.00716056
0.00614546
0.00337376
0.00137589
0.001752
0.00240845
0.00321225
0.00390901
0.00394314
0.00108047
0.000990371
0.000929001
0.000883707
0.000845408
0.000807342
0.000771201
0.000733017
0.000688389
0.00064846
0.000639032
0.00117172
0.000608553
0.00273781
0.00836866
0.00427106
0.00501918
0.00532065
0.0051403
0.00499359
0.00507727
0.00530769
0.00564381
0.0060862
0.00658744
0.0069792
0.00717368
0.00716828
0.00703109
0.00662575
0.00547877
0.00496542
0.00500131
0.00529253
0.00563943
0.00585211
0.0057557
0.00491043
0.00447584
0.00423626
0.00406467
0.00389102
0.00366754
0.00328742
0.00279786
0.00224104
0.00170474
0.00127867
0.00119135
0.00103425
0.000813324
0.000860759
0.000935588
0.00311664
0.0104976
0.0058487
0.00464685
0.00506418
0.00505332
0.00486598
0.00493537
0.0051706
0.0055072
0.00595611
0.00643686
0.00679948
0.00691486
0.00680439
0.00664685
0.006576
0.0064814
0.00667624
0.0070142
0.00725115
0.00729304
0.00713298
0.00679842
0.00633149
0.00595221
0.00565686
0.00539658
0.0051411
0.00486996
0.00451977
0.00403969
0.00343245
0.00274556
0.00210984
0.00152992
0.0012575
0.00109688
0.00138118
0.000970514
0.00348933
0.0121019
0.00872455
0.00571047
0.00496924
0.00504035
0.00510386
0.00514061
0.00527444
0.00557171
0.00601376
0.00649032
0.00682261
0.00685887
0.00664946
0.00649811
0.00674742
0.00730035
0.00786299
0.00818039
0.00818073
0.00790806
0.00744651
0.00688483
0.00632544
0.00587537
0.00553452
0.00525821
0.00501647
0.00479947
0.00460215
0.00434402
0.0039196
0.00335253
0.00276345
0.00219745
0.00182807
0.00167465
0.00159623
0.00115311
0.00357894
0.011215
0.00952693
0.00799822
0.00682856
0.00631033
0.00582366
0.00549403
0.00549024
0.00577443
0.00623175
0.00670224
0.00698159
0.00691646
0.00665983
0.00672361
0.00743605
0.00802057
0.00832479
0.00831047
0.00797983
0.00740823
0.00670509
0.00599609
0.00540701
0.00499414
0.00471572
0.00451575
0.00436778
0.00426805
0.00422377
0.00422584
0.00411279
0.00377575
0.00344722
0.00326418
0.003344
0.00353
0.00419316
0.00178524
0.00350477
0.00423034
0.00467526
0.00492481
0.00496208
0.00488889
0.00489238
0.0051007
0.00552061
0.00605438
0.0065996
0.00702835
0.00716485
0.00691744
0.0068471
0.00720852
0.0076263
0.00776925
0.00766523
0.00730224
0.00669407
0.00594314
0.00519345
0.00457837
0.00415275
0.0038817
0.0036999
0.00356177
0.00344396
0.00333339
0.00321995
0.00309537
0.0029824
0.00288457
0.00281978
0.00278322
0.00271375
0.00257076
0.00239709
0.0016667
0.00157972
0.00276044
0.00377656
0.00457229
0.0053012
0.00601034
0.00657183
0.00694777
0.0071917
0.00722425
0.0069859
0.00669708
0.00669803
0.00681752
0.00672563
0.00645475
0.00602767
0.00545259
0.00479131
0.00414525
0.00363094
0.00328457
0.00307219
0.00294186
0.0028553
0.00279222
0.00274388
0.00270816
0.0026881
0.00269435
0.00271008
0.00272409
0.00272479
0.00268167
0.00254868
0.0023144
0.00202419
0.00134113
0.00238085
0.0046538
0.00595168
0.00679233
0.00744597
0.00749592
0.00710387
0.00671004
0.00637255
0.00573437
0.0052808
0.00517528
0.00510368
0.0049038
0.00460269
0.00422956
0.00379207
0.00333176
0.00291676
0.00259396
0.00237136
0.00224304
0.0021829
0.00216995
0.0021912
0.00223838
0.00230446
0.00238084
0.0024703
0.00257296
0.0026828
0.00279064
0.00287837
0.00292217
0.00288126
0.00284557
0.00261995
0.00135861
0.00249159
0.00255349
0.00260943
0.00289321
0.00272901
0.00241419
0.00203349
0.00172838
0.00154183
0.00136501
0.00120953
0.00108787
0.000984903
0.000906884
0.000852668
0.000813057
0.000781201
0.000753789
0.000731156
0.000715883
0.000710183
0.000714458
0.000727143
0.000745793
0.000769357
0.000797281
0.000829408
0.000865927
0.000907442
0.000955245
0.00100964
0.00107022
0.00113729
0.00121118
0.0012919
0.00138863
0.00143094
0.0014016
0.00130366
0.00120556
)
;

boundaryField
{
    floor
    {
        type            compressible::alphatWallFunction;
        Prt             0.85;
        value           nonuniform List<scalar> 
36
(
0.000160686
7.82021e-05
9.26087e-05
0.000105493
0.000110108
0.000108345
0.000101194
9.32144e-05
8.60064e-05
7.9706e-05
7.41869e-05
6.93291e-05
6.50465e-05
6.12222e-05
5.77158e-05
5.4368e-05
5.09834e-05
4.89602e-05
4.41644e-05
4.41638e-05
6.10613e-05
7.3547e-05
8.56301e-05
0.000115679
0.000122505
0.000133176
0.000160684
0.000210153
0.000175556
0.00014384
7.82011e-05
0.000143838
7.75187e-05
0.00016934
0.000121559
0.000194184
)
;
    }
    ceiling
    {
        type            compressible::alphatWallFunction;
        Prt             0.85;
        value           nonuniform List<scalar> 
43
(
0.000340273
0.000348137
0.000355228
0.000391033
0.000370443
0.000330548
0.000281535
0.000241535
0.000216697
0.000192842
0.000171573
0.000154712
0.000140272
0.000129212
0.000121461
0.000115761
0.000111153
0.00010717
0.000103868
0.000101633
0.000100797
0.000101424
0.000103281
0.000106005
0.000109435
0.000113483
0.000118119
0.000123364
0.000129294
0.000136083
0.00014376
0.000152254
0.000161593
0.000171808
0.000182888
0.000196063
0.000201792
0.000197822
0.000184498
0.000171039
0.000467119
0.000555328
0.000326054
)
;
    }
    sWall
    {
        type            compressible::alphatWallFunction;
        Prt             0.85;
        value           uniform 0.00033903;
    }
    nWall
    {
        type            compressible::alphatWallFunction;
        Prt             0.85;
        value           nonuniform List<scalar> 6(0.000132957 0.000137898 0.000163427 0.000189266 0.000191642 0.000170698);
    }
    sideWalls
    {
        type            empty;
    }
    glass1
    {
        type            compressible::alphatWallFunction;
        Prt             0.85;
        value           nonuniform List<scalar> 9(0.000171659 0.000229165 0.000275989 0.000320287 0.000364868 0.000411951 0.000457737 0.000468806 0.000459996);
    }
    glass2
    {
        type            compressible::alphatWallFunction;
        Prt             0.85;
        value           nonuniform List<scalar> 2(0.000247084 0.000231542);
    }
    sun
    {
        type            compressible::alphatWallFunction;
        Prt             0.85;
        value           nonuniform List<scalar> 
14
(
0.000176209
0.000191379
0.000195547
0.00020452
0.000212745
0.000220498
0.000228223
0.000236036
0.000242402
0.000246395
0.000246848
0.000242604
0.000232163
0.000209871
)
;
    }
    Table_master
    {
        type            compressible::alphatWallFunction;
        Prt             0.85;
        value           nonuniform List<scalar> 9(0.000136676 0.000119639 0.000105244 9.34143e-05 8.37393e-05 7.58031e-05 6.9281e-05 6.39553e-05 5.97781e-05);
    }
    Table_slave
    {
        type            compressible::alphatWallFunction;
        Prt             0.85;
        value           nonuniform List<scalar> 9(0.000153702 0.000141063 0.000132377 0.000125924 0.000120436 0.000114953 0.000109718 0.000104156 9.76094e-05);
    }
    inlet
    {
        type            fixedValue;
        value           uniform 1.94e-05;
    }
    outlet
    {
        type            zeroGradient;
    }
}


// ************************************************************************* //
