/*--------------------------------*- C++ -*----------------------------------*\
  =========                 |
  \\      /  F ield         | OpenFOAM: The Open Source CFD Toolbox
   \\    /   O peration     | Website:  https://openfoam.org
    \\  /    A nd           | Version:  6
     \\/     M anipulation  |
\*---------------------------------------------------------------------------*/
FoamFile
{
    version     2.0;
    format      ascii;
    class       volScalarField;
    location    "750";
    object      alphat;
}
// * * * * * * * * * * * * * * * * * * * * * * * * * * * * * * * * * * * * * //

dimensions      [1 -1 -1 0 0 0 0];

internalField   nonuniform List<scalar> 
775
(
0.00047199
0.000532454
0.000558556
0.000590739
0.000618387
0.000642545
0.000664293
0.00068462
0.000704628
0.000723486
0.000737257
0.000744913
0.000746543
0.000744782
0.000742314
0.000211659
0.000237507
0.00025766
0.000270885
0.000284192
0.000292858
0.00029825
0.000300291
0.000302784
0.000309546
0.000320846
0.000302326
0.00025386
0.000379986
0.000547281
0.000740533
0.000864213
0.000742439
0.000616221
0.00162935
0.0015915
0.00178798
0.00200824
0.00224837
0.00249592
0.00272987
0.00291789
0.00304515
0.00311488
0.00308653
0.00289295
0.00243344
0.00162457
0.000797028
0.000721776
0.000639516
0.000266816
0.000457579
0.00066723
0.00102583
0.00138615
0.00159984
0.0016165
0.00148896
0.00126492
0.00100609
0.000794063
0.000621921
0.000280459
0.000414195
0.0012584
0.0020811
0.00294045
0.00101899
0.000735967
0.00239265
0.00239711
0.00275627
0.00304509
0.00331143
0.00354935
0.00375516
0.00392487
0.00406028
0.00417762
0.0042581
0.00427218
0.00418591
0.00395472
0.00347427
0.00250354
0.000844017
0.000606507
0.000868428
0.00113593
0.0014533
0.00180933
0.00213256
0.00235186
0.00238702
0.00207906
0.00155019
0.00113386
0.000946906
0.000472267
0.000529112
0.00150444
0.0026731
0.00417796
0.00125608
0.000839846
0.00289203
0.00283463
0.00334383
0.003591
0.00376574
0.00389905
0.0040111
0.00411387
0.00421492
0.00433368
0.00446098
0.00458266
0.00468481
0.00473948
0.00465381
0.00421353
0.00300132
0.000846231
0.0019861
0.00252199
0.00254424
0.00252786
0.0025721
0.00269174
0.00284306
0.00294806
0.00291318
0.00270771
0.00234192
0.00199785
0.000532531
0.000593623
0.0017109
0.00315972
0.00516391
0.00146821
0.000932327
0.00324635
0.00299609
0.00363679
0.00380836
0.00386839
0.00389248
0.00391583
0.00395757
0.0040278
0.00414043
0.00428727
0.00445561
0.00463308
0.00479986
0.00491405
0.00490732
0.00470827
0.00414142
0.00418675
0.00414909
0.00394948
0.00368718
0.00348104
0.00336659
0.00333866
0.00335595
0.00335168
0.00325805
0.00297584
0.0023739
0.000587045
0.000646169
0.00175835
0.00333233
0.00572158
0.00164904
0.00101726
0.00353114
0.00300058
0.00373116
0.00383598
0.00379552
0.0037323
0.00369086
0.00369407
0.00375318
0.00387299
0.00404044
0.00423549
0.00444119
0.00463669
0.00480382
0.0049158
0.00496769
0.00491808
0.00487065
0.00478897
0.00463387
0.00439773
0.00414808
0.00393785
0.00379144
0.003705
0.00365041
0.00358569
0.00344618
0.00307128
0.00236397
0.000619572
0.000571945
0.000573934
0.0012046
0.00181102
0.0033099
0.00596107
0.0017847
0.0010988
0.00377178
0.00294559
0.00369489
0.00376438
0.00364972
0.00352467
0.00344191
0.00342767
0.00349508
0.00364138
0.00384109
0.00406069
0.00428164
0.00447849
0.00464273
0.00475345
0.00483107
0.00486991
0.00487251
0.00484262
0.0047676
0.00463701
0.004456
0.00426494
0.00409571
0.00396389
0.00386801
0.00379453
0.00372107
0.00359313
0.00322583
0.0025919
0.00251746
0.00250585
0.00222155
0.00202416
0.00349015
0.00601081
0.00180913
0.00119007
0.00392168
0.0028943
0.00356721
0.00365331
0.00349431
0.00332603
0.00321395
0.00319292
0.00328528
0.00347906
0.00372149
0.00396361
0.00419409
0.00438182
0.00451794
0.00460405
0.00465156
0.00467073
0.00466936
0.00465423
0.0046221
0.00456397
0.00447041
0.00434766
0.00421781
0.0040993
0.00400257
0.0039304
0.00388069
0.00384234
0.00376733
0.00358614
0.00338727
0.00305799
0.00232258
0.00213426
0.00380816
0.00528
0.00176944
0.00134792
0.00382787
0.00275675
0.00330743
0.00353301
0.003376
0.00317933
0.00303614
0.00300129
0.00314638
0.00340387
0.00368819
0.00394369
0.00416589
0.00434009
0.00445443
0.00450864
0.00451527
0.00449265
0.0044583
0.0044251
0.00439675
0.00436835
0.00433106
0.00427442
0.0042038
0.00413003
0.004064
0.00401389
0.00398486
0.00397755
0.00397995
0.00395604
0.00383642
0.00336597
0.00239686
0.00231779
0.0039002
0.00570555
0.00186697
0.00173041
0.0048383
0.00244504
0.00262458
0.00332362
0.00330217
0.00312469
0.00297006
0.00286612
0.0031215
0.00343365
0.00372514
0.0039838
0.00419916
0.00435639
0.00444366
0.00446209
0.00442782
0.00436507
0.00429732
0.00424124
0.00420382
0.00418318
0.00417261
0.00416249
0.00414585
0.00412369
0.0041017
0.00408672
0.00408475
0.00409906
0.00412591
0.00414072
0.00403822
0.00348514
0.00238495
0.00235856
0.00416
0.00665784
0.00203622
0.00210549
0.00746357
0.00352631
0.0020061
0.00273825
0.00303423
0.0029498
0.00275971
0.00286974
0.00323038
0.00356412
0.00385004
0.00409453
0.00429061
0.00442124
0.00447366
0.00445186
0.00437824
0.00428367
0.00419551
0.00413065
0.00409486
0.00408549
0.00409556
0.00411979
0.00414612
0.00416918
0.00418901
0.00420845
0.00423094
0.00425865
0.00428821
0.00429315
0.00414925
0.00347371
0.00227725
0.00244066
0.00462456
0.00778665
0.00218353
0.00250221
0.00990451
0.00601683
0.00282759
0.0022207
0.00235661
0.00257032
0.00278656
0.00318081
0.00353079
0.00381429
0.00405677
0.00426693
0.00443046
0.00452314
0.00453097
0.00446389
0.00435467
0.0042419
0.00415394
0.00410289
0.00408918
0.0041079
0.0041519
0.00420921
0.00426894
0.00432354
0.00436948
0.00440576
0.00443273
0.00445043
0.00445401
0.00441303
0.00418849
0.00338279
0.00221745
0.00270925
0.00527125
0.00880077
0.00232068
0.00286396
0.0110895
0.00848767
0.0051331
0.0036501
0.00318732
0.00331669
0.00358652
0.00379512
0.00397087
0.00414285
0.00431901
0.00448389
0.00460413
0.00464563
0.00459715
0.00448146
0.0043467
0.00423595
0.00416875
0.00414439
0.00415796
0.00420737
0.00428836
0.00437805
0.0044596
0.00452538
0.00457077
0.00459359
0.00459343
0.00457021
0.00451949
0.0044119
0.00411329
0.00327338
0.00232004
0.00316624
0.00599225
0.00960376
0.0024409
0.00293874
0.00957392
0.00827368
0.00694382
0.00575365
0.00502046
0.00468684
0.00446003
0.00436394
0.00437879
0.00447047
0.00460069
0.00472423
0.00478999
0.00476172
0.0046443
0.00448353
0.00434149
0.00424602
0.00419262
0.00417405
0.00419489
0.00425815
0.00435883
0.00447482
0.00456243
0.00461718
0.00463708
0.00462337
0.00457794
0.00450251
0.00439528
0.00423539
0.00392352
0.0032317
0.00268682
0.00384257
0.00677472
0.0102024
0.0025547
0.00284012
0.00341812
0.00416408
0.00444586
0.00449722
0.00443927
0.0043928
0.00442513
0.00451377
0.00463447
0.00476912
0.00489401
0.00497039
0.00495205
0.00482438
0.00463062
0.00443657
0.00428653
0.00417397
0.00410535
0.00409614
0.00414117
0.00422394
0.00433011
0.00444629
0.00453528
0.00457223
0.00456274
0.00451695
0.0044393
0.00433326
0.00420064
0.00403588
0.00380362
0.00344823
0.00343427
0.00478243
0.00763658
0.0106709
0.0026526
0.00469053
0.00635094
0.00584627
0.00564147
0.00554221
0.0054198
0.00532157
0.00527967
0.00527832
0.00527141
0.00520094
0.00502095
0.00475375
0.00447569
0.00421728
0.00401004
0.00390681
0.00389899
0.00395736
0.00405085
0.00415913
0.00426884
0.00436982
0.00445052
0.0044951
0.00448617
0.00444538
0.00437896
0.00429343
0.00419599
0.0041006
0.00403926
0.00408116
0.00452208
0.0058943
0.00845632
0.0109527
0.00270578
0.00268689
0.00630003
0.00608154
0.0057558
0.0055516
0.00547494
0.00548452
0.00551189
0.00548433
0.00535616
0.00510737
0.00473736
0.00429976
0.00391226
0.00365189
0.00354727
0.00355908
0.00363779
0.00374917
0.0038723
0.00399512
0.00410977
0.00421068
0.00429341
0.00435457
0.00439283
0.0044134
0.00442574
0.00444139
0.00447047
0.00454017
0.00469535
0.00501803
0.00567837
0.00694582
0.00911718
0.0109486
0.00274733
0.00283206
0.00550876
0.00385026
0.00564671
0.0046934
0.00428726
0.00454427
0.00491918
0.00516349
0.00521001
0.005052
0.00471861
0.00426707
0.00376974
0.00334369
0.00309083
0.00300478
0.00302818
0.00310908
0.00321776
0.00333812
0.0034611
0.00358158
0.00369677
0.0038058
0.00390961
0.00401089
0.00411478
0.00422935
0.00436517
0.0045346
0.00475124
0.0050357
0.00541833
0.00594441
0.00672635
0.00794253
0.0100021
0.0112457
0.00282639
0.00282779
0.00418984
0.00312284
0.00275194
0.00244956
0.00252294
0.00318203
0.0036958
0.00385716
0.00372239
0.00339755
0.00298194
0.00257651
0.00227366
0.00211412
0.00207406
0.00210796
0.0021826
0.00227901
0.00238672
0.00249969
0.00261447
0.00272954
0.00284507
0.00296288
0.0030863
0.00322014
0.0033706
0.00354511
0.00375223
0.00400176
0.00430592
0.00468231
0.00515584
0.00574818
0.00645752
0.00732338
0.0087926
0.0103707
0.0027995
0.00263024
0.00233259
0.00196444
0.00156701
0.00107705
0.000788447
0.000797694
0.000803214
0.000788665
0.000763959
0.00074251
0.000732929
0.000737308
0.000753413
0.00077747
0.000806274
0.000837901
0.000871435
0.000906553
0.00094327
0.000981813
0.00102256
0.00106598
0.00111267
0.00116326
0.0012185
0.00127917
0.00134616
0.00142046
0.00150321
0.00159575
0.00169972
0.00181712
0.00195044
0.00210268
0.00227739
0.00247756
0.00270255
0.00293923
0.00259205
)
;

boundaryField
{
    floor
    {
        type            compressible::alphatWallFunction;
        Prt             0.85;
        value           nonuniform List<scalar> 
42
(
0.000105504
2.29684e-05
2.73685e-05
3.07534e-05
3.29551e-05
3.51561e-05
3.65819e-05
3.74662e-05
3.78007e-05
3.82088e-05
3.93126e-05
4.11498e-05
3.81336e-05
3.0119e-05
5.06372e-05
7.65286e-05
0.000105233
0.000123116
0.000105517
3.01185e-05
5.06366e-05
3.45387e-05
5.60302e-05
6.50651e-05
7.37721e-05
7.42919e-05
8.35133e-05
8.25256e-05
8.73952e-05
8.02578e-05
9.13498e-05
8.05582e-05
0.000105503
0.000113452
0.000102502
9.03716e-05
2.2968e-05
9.03706e-05
3.22788e-05
0.000120226
8.5447e-05
0.000120544
)
;
    }
    ceiling
    {
        type            compressible::alphatWallFunction;
        Prt             0.85;
        value           nonuniform List<scalar> 
43
(
0.000358131
0.000320233
0.000272626
0.000220121
0.00015323
0.000112217
0.000113555
0.000114353
0.000112247
0.000108661
0.000105536
0.000104137
0.000104777
0.000107125
0.000110622
0.000114793
0.000119351
0.000124162
0.000129177
0.000134395
0.000139848
0.000145585
0.00015167
0.00015818
0.000165201
0.000172825
0.000181155
0.000190301
0.000200385
0.000211546
0.000223947
0.000237784
0.000253297
0.000270779
0.000290584
0.000313125
0.000338725
0.000367243
0.000396978
0.000353288
0.00038458
0.000456402
0.000365188
)
;
    }
    sWall
    {
        type            compressible::alphatWallFunction;
        Prt             0.85;
        value           nonuniform List<scalar> 9(0.000240299 0.000289356 0.000340235 0.00038589 0.000395256 0.000382917 0.0003819 0.000381341 0.000356485);
    }
    nWall
    {
        type            compressible::alphatWallFunction;
        Prt             0.85;
        value           nonuniform List<scalar> 
18
(
0.000105028
0.000144545
0.000177426
0.000206249
0.000230452
0.000248423
0.000251658
0.000281354
0.000300428
0.000318064
0.000333448
0.00034794
0.000360314
0.000367008
0.000372247
0.000382212
0.000378842
0.000352668
)
;
    }
    sideWalls
    {
        type            empty;
    }
    glass1
    {
        type            compressible::alphatWallFunction;
        Prt             0.85;
        value           nonuniform List<scalar> 9(6.49143e-05 8.67596e-05 0.000104415 0.00011945 0.000132651 0.000144639 0.000156039 0.000168685 0.000190301);
    }
    glass2
    {
        type            compressible::alphatWallFunction;
        Prt             0.85;
        value           nonuniform List<scalar> 2(0.000246747 0.000259567);
    }
    sun
    {
        type            compressible::alphatWallFunction;
        Prt             0.85;
        value           nonuniform List<scalar> 
14
(
6.50323e-05
7.42893e-05
7.82444e-05
8.30895e-05
8.7226e-05
9.08216e-05
9.40444e-05
9.70451e-05
9.9988e-05
0.000102753
0.000104766
0.000105883
0.000106121
0.000105864
)
;
    }
    inlet
    {
        type            fixedValue;
        value           uniform 1.94e-05;
    }
    outlet
    {
        type            zeroGradient;
    }
}


// ************************************************************************* //
