/*--------------------------------*- C++ -*----------------------------------*\
  =========                 |
  \\      /  F ield         | OpenFOAM: The Open Source CFD Toolbox
   \\    /   O peration     | Website:  https://openfoam.org
    \\  /    A nd           | Version:  6
     \\/     M anipulation  |
\*---------------------------------------------------------------------------*/
FoamFile
{
    version     2.0;
    format      ascii;
    class       volScalarField;
    location    "750";
    object      epsilon;
}
// * * * * * * * * * * * * * * * * * * * * * * * * * * * * * * * * * * * * * //

dimensions      [0 2 -3 0 0 0 0];

internalField   nonuniform List<scalar> 
796
(
2.79973e-05
2.75956e-05
1.81931e-05
1.97406e-05
2.17557e-05
2.37926e-05
2.58001e-05
2.77677e-05
2.96967e-05
3.15956e-05
3.34803e-05
3.53745e-05
3.73135e-05
3.93501e-05
4.14245e-05
4.3446e-05
4.53855e-05
4.71931e-05
4.87833e-05
5.00118e-05
5.06483e-05
5.03625e-05
4.87751e-05
4.56227e-05
4.09488e-05
3.50718e-05
2.82818e-05
2.31372e-05
1.89242e-05
1.52817e-05
1.2195e-05
9.76438e-06
8.02283e-06
6.71627e-06
5.97807e-06
6.04912e-06
7.42332e-06
1.67504e-05
5.47553e-05
4.184e-05
0.000166346
0.000441925
2.87297e-05
1.35394e-05
1.3542e-05
1.4146e-05
1.47326e-05
1.52935e-05
1.58523e-05
1.64387e-05
1.70856e-05
1.78303e-05
1.87156e-05
1.97923e-05
2.10424e-05
2.24166e-05
2.39113e-05
2.55167e-05
2.72042e-05
2.89017e-05
3.04525e-05
3.15714e-05
3.18602e-05
3.09645e-05
2.87875e-05
2.53658e-05
2.12399e-05
1.79637e-05
1.51455e-05
1.27031e-05
1.06343e-05
8.91494e-06
7.51119e-06
6.35206e-06
5.47499e-06
5.28073e-06
8.80671e-06
4.47179e-05
0.00027526
0.0001473
0.000450372
0.0014648
8.96957e-05
1.52131e-05
1.20094e-05
1.21189e-05
1.24565e-05
1.28501e-05
1.33046e-05
1.38403e-05
1.44783e-05
1.5238e-05
1.61349e-05
1.71781e-05
1.83618e-05
1.96736e-05
2.11079e-05
2.26626e-05
2.43354e-05
2.6104e-05
2.78766e-05
2.94223e-05
3.03629e-05
3.03031e-05
2.89546e-05
2.60405e-05
2.28853e-05
1.99427e-05
1.7164e-05
1.46341e-05
1.24051e-05
1.04817e-05
8.84212e-06
7.4826e-06
6.49643e-06
6.70199e-06
1.53686e-05
0.000109889
0.000774784
0.000332779
0.000898206
0.00303372
0.000236254
2.18632e-05
1.15691e-05
1.10908e-05
1.13154e-05
1.16592e-05
1.20872e-05
1.26089e-05
1.32389e-05
1.39913e-05
1.48774e-05
1.59013e-05
1.70496e-05
1.82913e-05
1.95985e-05
2.09561e-05
2.23717e-05
2.38661e-05
2.54192e-05
2.689e-05
2.804e-05
2.85738e-05
2.78817e-05
2.60689e-05
2.37997e-05
2.12698e-05
1.86753e-05
1.6187e-05
1.39032e-05
1.18648e-05
1.00847e-05
8.59861e-06
7.60951e-06
8.52117e-06
2.53354e-05
0.00020849
0.00142515
0.000577912
0.0015001
0.00499691
0.000508457
3.65596e-05
1.17091e-05
1.02457e-05
1.03608e-05
1.06881e-05
1.11234e-05
1.16718e-05
1.23514e-05
1.31816e-05
1.41776e-05
1.5344e-05
1.66314e-05
1.79736e-05
1.93002e-05
2.05604e-05
2.17526e-05
2.29243e-05
2.41031e-05
2.52145e-05
2.62504e-05
2.70392e-05
2.69491e-05
2.59343e-05
2.417e-05
2.19196e-05
1.94743e-05
1.70503e-05
1.47767e-05
1.27189e-05
1.09093e-05
9.40742e-06
8.53352e-06
1.05591e-05
3.92312e-05
0.000339367
0.00214379
0.000861938
0.002231
0.00719986
0.000928404
6.62684e-05
1.27242e-05
9.52866e-06
9.49135e-06
9.82927e-06
1.03154e-05
1.09504e-05
1.17622e-05
1.27816e-05
1.40326e-05
1.55072e-05
1.71144e-05
1.87321e-05
2.02269e-05
2.1499e-05
2.25352e-05
2.34125e-05
2.419e-05
2.48314e-05
2.56432e-05
2.66002e-05
2.69511e-05
2.63085e-05
2.47262e-05
2.25312e-05
2.0069e-05
1.75994e-05
1.52807e-05
1.3195e-05
1.13831e-05
9.91565e-06
9.22905e-06
1.28003e-05
5.83707e-05
0.000492054
0.0028774
0.00116889
0.00306148
0.00949795
0.00149042
0.000121399
1.5284e-05
9.0172e-06
8.73134e-06
9.09514e-06
9.67272e-06
1.04537e-05
1.14801e-05
1.27999e-05
1.4449e-05
1.63919e-05
1.8477e-05
2.04938e-05
2.22267e-05
2.35294e-05
2.43988e-05
2.49677e-05
2.53185e-05
2.54635e-05
2.61358e-05
2.72725e-05
2.7894e-05
2.73875e-05
2.57875e-05
2.34584e-05
2.08103e-05
1.81592e-05
1.56976e-05
1.35213e-05
1.16731e-05
1.02277e-05
9.74185e-06
1.50849e-05
8.03226e-05
0.000654629
0.00359516
0.0014884
0.00396353
0.0117672
0.002169
0.000213806
2.06393e-05
8.82937e-06
8.1077e-06
8.48713e-06
9.18106e-06
1.01551e-05
1.14722e-05
1.32092e-05
1.54257e-05
1.80325e-05
2.07574e-05
2.32483e-05
2.52001e-05
2.64489e-05
2.70517e-05
2.72375e-05
2.71026e-05
2.68678e-05
2.7541e-05
2.88957e-05
2.97126e-05
2.9235e-05
2.74659e-05
2.48325e-05
2.18364e-05
1.88677e-05
1.61597e-05
1.38184e-05
1.18787e-05
1.04163e-05
1.01368e-05
1.76624e-05
0.000106716
0.000828787
0.00428482
0.00181439
0.0049201
0.0138914
0.00293381
0.000355201
3.14837e-05
9.19493e-06
7.6514e-06
7.99208e-06
8.80302e-06
1.00026e-05
1.16904e-05
1.40036e-05
1.70584e-05
2.06292e-05
2.41743e-05
2.71471e-05
2.91882e-05
3.01891e-05
3.03393e-05
2.99989e-05
2.9395e-05
2.89245e-05
2.97171e-05
3.14089e-05
3.2467e-05
3.19451e-05
2.98509e-05
2.67249e-05
2.31982e-05
1.97579e-05
1.66883e-05
1.41038e-05
1.20128e-05
1.04992e-05
1.04658e-05
2.08372e-05
0.000138889
0.00101519
0.00494434
0.00214226
0.00586382
0.0158396
0.0037726
0.000561594
5.44975e-05
1.08119e-05
7.49814e-06
7.64667e-06
8.53716e-06
9.98154e-06
1.21482e-05
1.53098e-05
1.97237e-05
2.47292e-05
2.92259e-05
3.25362e-05
3.4375e-05
3.48081e-05
3.42345e-05
3.33036e-05
3.22061e-05
3.15109e-05
3.2643e-05
3.49378e-05
3.63358e-05
3.56871e-05
3.30774e-05
2.92307e-05
2.49504e-05
2.08465e-05
1.72699e-05
1.43456e-05
1.2053e-05
1.04799e-05
1.08081e-05
2.51164e-05
0.000178717
0.00121563
0.00557618
0.00246858
0.00685188
0.0174031
0.00468458
0.000866217
0.000109561
1.69562e-05
8.45324e-06
7.82898e-06
8.63727e-06
1.03183e-05
1.31546e-05
1.77709e-05
2.45086e-05
3.14924e-05
3.67646e-05
3.99483e-05
4.10506e-05
4.05035e-05
3.90007e-05
3.72762e-05
3.54637e-05
3.46142e-05
3.6488e-05
3.97686e-05
4.16185e-05
4.07257e-05
3.73691e-05
3.25366e-05
2.72365e-05
2.22221e-05
1.79391e-05
1.45548e-05
1.20164e-05
1.04126e-05
1.13466e-05
3.14505e-05
0.000229099
0.00143274
0.00616993
0.00279816
0.00781119
0.0185815
0.00586799
0.00136551
0.000260981
4.92027e-05
1.64334e-05
1.10903e-05
1.07719e-05
1.24242e-05
1.62382e-05
2.40157e-05
3.41667e-05
4.29335e-05
4.79988e-05
5.00749e-05
4.97485e-05
4.77435e-05
4.48415e-05
4.1937e-05
3.91482e-05
3.83672e-05
4.15987e-05
4.63555e-05
4.87532e-05
4.74665e-05
4.31289e-05
3.70602e-05
3.04621e-05
2.42248e-05
1.89379e-05
1.49244e-05
1.20956e-05
1.05375e-05
1.2568e-05
4.18634e-05
0.00029536
0.00167489
0.00671627
0.00314631
0.00874226
0.0194135
0.00706229
0.00221758
0.000733464
0.000235963
7.91373e-05
3.67493e-05
2.59193e-05
2.43391e-05
2.86138e-05
4.2162e-05
5.40911e-05
6.15807e-05
6.46603e-05
6.42087e-05
6.1271e-05
5.68317e-05
5.18386e-05
4.73127e-05
4.32639e-05
4.3036e-05
4.85197e-05
5.53419e-05
5.8357e-05
5.65708e-05
5.11538e-05
4.37688e-05
3.56992e-05
2.78965e-05
2.11537e-05
1.62353e-05
1.30577e-05
1.17128e-05
1.5961e-05
6.11076e-05
0.000387373
0.00196265
0.00727254
0.0034891
0.00971907
0.0184023
0.00839332
0.00354401
0.00164262
0.000771009
0.000373175
0.000196646
0.000119268
8.69927e-05
7.90667e-05
8.70642e-05
9.24957e-05
9.31056e-05
8.97121e-05
8.36165e-05
7.5995e-05
6.78099e-05
5.99292e-05
5.33255e-05
4.777e-05
4.90604e-05
5.80322e-05
6.75843e-05
7.13166e-05
6.92051e-05
6.30697e-05
5.48068e-05
4.55294e-05
3.60606e-05
2.73771e-05
2.11269e-05
1.76714e-05
1.71978e-05
2.68798e-05
0.000100724
0.000520875
0.00230893
0.00785283
0.00377052
0.00929235
0.017344
0.00975976
0.00584706
0.00336174
0.00188416
0.00107865
0.000645391
0.000410858
0.000284707
0.000218603
0.000184056
0.000160804
0.00014156
0.00012415
0.000108076
9.33299e-05
8.0081e-05
6.86331e-05
5.96361e-05
5.25408e-05
5.71527e-05
7.11826e-05
8.41595e-05
8.89722e-05
8.74955e-05
8.20325e-05
7.44962e-05
6.55187e-05
5.55987e-05
4.57301e-05
3.83062e-05
3.60907e-05
4.0072e-05
6.50791e-05
0.000191945
0.000743334
0.00275724
0.0082866
0.00405102
0.00752892
0.0115634
0.0108139
0.00755497
0.00498414
0.00316755
0.00199041
0.00126615
0.000832031
0.000574549
0.000419201
0.000316719
0.000247679
0.000198666
0.000162007
0.000133392
0.000110403
9.17348e-05
7.66939e-05
6.54242e-05
5.73553e-05
6.84349e-05
8.92222e-05
0.000106297
0.000113424
0.000115215
0.000114157
0.000111188
0.00010658
0.000100756
9.47532e-05
9.12094e-05
9.82429e-05
0.000121613
0.000188261
0.000393996
0.00106276
0.00324006
0.00870742
0.00435572
0.00929862
0.0133763
0.00603813
0.00350491
0.00220742
0.00144921
0.000986878
0.000698397
0.000513401
0.000387827
0.00029898
0.000234466
0.000186424
0.000149827
0.00012144
9.92642e-05
8.18458e-05
6.91101e-05
6.19214e-05
8.43915e-05
0.000113135
0.000135046
0.000148465
0.000159161
0.000168498
0.000177301
0.000186038
0.000195336
0.000206385
0.000221893
0.00025071
0.000310948
0.00043563
0.00072223
0.00147444
0.00374002
0.00911464
0.00472234
0.00812041
0.0094808
0.00473301
0.00287275
0.00190342
0.00131406
0.000933034
0.000680069
0.000508217
0.000388119
0.000300891
0.000236321
0.000187757
0.00015066
0.000121917
9.95177e-05
8.15574e-05
6.84621e-05
6.60974e-05
0.000105842
0.000139944
0.000171446
0.000198635
0.00022563
0.000254412
0.000286604
0.000323671
0.000367227
0.000419293
0.000482918
0.000563952
0.000687765
0.000901157
0.00129594
0.00213383
0.00436023
0.00858039
0.00531387
0.00328473
0.0193096
0.00648433
0.0064145
0.00291773
0.00194602
0.00139711
0.00102458
0.000760242
0.000572287
0.000437673
0.000339843
0.000268456
0.000215036
0.000174004
0.000141708
0.000115697
9.44015e-05
7.58277e-05
6.23128e-05
7.13874e-05
0.00012555
0.000167636
0.00021302
0.000260317
0.000312847
0.000373249
0.000444371
0.000529523
0.000632769
0.000759233
0.000915681
0.00111195
0.00136382
0.00171141
0.00223112
0.00305647
0.00467996
0.00838894
0.00497228
0.00296606
0.00377887
0.00428966
0.00350239
0.00202368
0.00157485
0.001175
0.00091297
0.000714613
0.000562697
0.000444569
0.000351375
0.000281131
0.000227173
0.000183661
0.000147372
0.000116375
8.94442e-05
6.5722e-05
4.72158e-05
7.47459e-05
0.00015794
0.000222419
0.000288146
0.000358231
0.000435543
0.00052313
0.000624561
0.000744187
0.000887432
0.00106115
0.00127417
0.00153826
0.00186962
0.00229162
0.0028377
0.00355318
0.00449254
0.00568703
0.00392364
)
;

boundaryField
{
    floor
    {
        Cmu             0.09;
        kappa           0.41;
        E               9.8;
        type            epsilonWallFunction;
        value           nonuniform List<scalar> 
40
(
2.79973e-05
2.75956e-05
1.81931e-05
1.97406e-05
2.17557e-05
2.37926e-05
2.58001e-05
2.77677e-05
2.96967e-05
3.15956e-05
3.34803e-05
3.53745e-05
3.73135e-05
3.93501e-05
4.14245e-05
4.3446e-05
4.53855e-05
4.71931e-05
4.87833e-05
5.00118e-05
5.06483e-05
5.03625e-05
4.87751e-05
4.56227e-05
4.09488e-05
3.50718e-05
2.82818e-05
2.31372e-05
1.89242e-05
1.52817e-05
1.2195e-05
9.76438e-06
8.02283e-06
6.71627e-06
5.97807e-06
6.04912e-06
7.42332e-06
1.67504e-05
5.47553e-05
4.184e-05
)
;
    }
    ceiling
    {
        Cmu             0.09;
        kappa           0.41;
        E               9.8;
        type            epsilonWallFunction;
        value           nonuniform List<scalar> 
43
(
0.00296606
0.00377887
0.00428966
0.00350239
0.00202368
0.00157485
0.001175
0.00091297
0.000714613
0.000562697
0.000444569
0.000351375
0.000281131
0.000227173
0.000183661
0.000147372
0.000116375
8.94442e-05
6.5722e-05
4.72158e-05
7.47459e-05
0.00015794
0.000222419
0.000288146
0.000358231
0.000435543
0.00052313
0.000624561
0.000744187
0.000887432
0.00106115
0.00127417
0.00153826
0.00186962
0.00229162
0.0028377
0.00355318
0.00449254
0.00568703
0.00392364
0.00752892
0.0115634
0.00812041
)
;
    }
    sWall
    {
        Cmu             0.09;
        kappa           0.41;
        E               9.8;
        type            epsilonWallFunction;
        value           nonuniform List<scalar> 
18
(
2.79973e-05
0.000166346
0.000450372
0.000898206
0.0015001
0.002231
0.00306148
0.00396353
0.0049201
0.00586382
0.00685188
0.00781119
0.00874226
0.00971907
0.00929235
0.00752892
0.00328473
0.00296606
)
;
    }
    nWall
    {
        Cmu             0.09;
        kappa           0.41;
        E               9.8;
        type            epsilonWallFunction;
        value           nonuniform List<scalar> 
20
(
4.184e-05
0.0001473
0.000332779
0.000577912
0.000861938
0.00116889
0.0014884
0.00181439
0.00214226
0.00246858
0.00279816
0.00314631
0.0034891
0.00377052
0.00405102
0.00435572
0.00472234
0.00531387
0.00497228
0.00392364
)
;
    }
    sideWalls
    {
        type            empty;
    }
    inlet
    {
        type            fixedValue;
        value           uniform 0.00082175;
    }
    outlet
    {
        type            zeroGradient;
    }
}


// ************************************************************************* //
