/*--------------------------------*- C++ -*----------------------------------*\
  =========                 |
  \\      /  F ield         | OpenFOAM: The Open Source CFD Toolbox
   \\    /   O peration     | Website:  https://openfoam.org
    \\  /    A nd           | Version:  6
     \\/     M anipulation  |
\*---------------------------------------------------------------------------*/
FoamFile
{
    version     2.0;
    format      ascii;
    class       surfaceScalarField;
    location    "750";
    object      phi;
}
// * * * * * * * * * * * * * * * * * * * * * * * * * * * * * * * * * * * * * //

dimensions      [1 0 -1 0 0 0 0];

internalField   nonuniform List<scalar> 
1530
(
-0.00216078
0.00220115
-0.00221839
5.76302e-05
-0.00236795
0.000149588
-0.00256674
0.000198812
-0.00277628
0.000209568
-0.00297883
0.000202575
-0.00316596
0.000187152
-0.00333262
0.000166685
-0.00347524
0.000142648
-0.00359083
0.000115607
-0.0036765
8.56998e-05
-0.00372934
5.28642e-05
-0.00374623
1.69099e-05
-0.0037236
-2.25984e-05
-0.00365788
-6.56956e-05
-0.00354581
-0.000112053
-0.00338406
-0.000161721
-0.00316934
-0.0002147
-0.00289874
-0.000270572
-0.00257096
-0.000327756
-0.00218871
-0.000382224
-0.00176251
-0.000426171
-0.00131383
-0.000448661
-0.000872812
-0.000440987
-0.000469669
-0.000403117
-0.000125289
-0.000344353
0.000150357
-0.000275618
0.000352072
-0.000201689
0.000482559
-0.00013046
0.00055318
-7.05949e-05
0.00057746
-2.42544e-05
0.000570392
7.09219e-06
0.000548793
2.16223e-05
0.000534215
1.46019e-05
0.000554687
-2.04504e-05
0.000641211
-8.65009e-05
0.000824704
-0.00018347
0.00111034
-0.000285612
0.00129542
-0.000185053
0.00131027
-0.00147098
0.00375791
-0.00189606
0.000482728
-0.00216789
0.000421443
-0.0023909
0.000421853
-0.00259857
0.000417264
-0.00279024
0.000394268
-0.00296295
0.000359885
-0.00311408
0.000317845
-0.00324119
0.000269774
-0.00334177
0.000216221
-0.00341325
0.000157196
-0.00345282
9.2465e-05
-0.0034576
2.1716e-05
-0.00342479
-5.539e-05
-0.00335181
-0.000138647
-0.00323611
-0.000227731
-0.00307494
-0.00032286
-0.00286542
-0.000424202
-0.00260468
-0.000531287
-0.00229087
-0.000641539
-0.00192553
-0.00074754
-0.0015178
-0.000833872
-0.0010884
-0.000878035
-0.000666626
-0.000862734
-0.000279947
-0.000789768
5.25022e-05
-0.000676775
0.000319866
-0.000542954
0.000520492
-0.000402288
0.000663003
-0.000272943
0.000754199
-0.000161764
0.000802882
-7.29103e-05
0.000820447
-1.04459e-05
0.000820516
2.15794e-05
0.000817305
1.78389e-05
0.000825422
-2.85414e-05
0.000859751
-0.000120805
0.000933831
-0.000257524
0.00100693
-0.000358682
0.000866976
-4.50752e-05
0.0022119
-0.0010575
0.00493008
-0.00160137
0.00102662
-0.00191483
0.000734934
-0.00214343
0.000650476
-0.00234375
0.000617612
-0.00252245
0.000572989
-0.00268008
0.000517545
-0.00281598
0.000453767
-0.00292871
0.000382527
-0.00301626
0.000303801
-0.0030762
0.000217155
-0.00310573
0.000122021
-0.00310205
1.80643e-05
-0.00306266
-9.47628e-05
-0.0029857
-0.000215576
-0.00286933
-0.000344079
-0.00271157
-0.0004806
-0.0025101
-0.000625644
-0.00226206
-0.000779301
-0.00196443
-0.000939141
-0.00161635
-0.0010956
-0.00122472
-0.00122547
-0.000811129
-0.0012916
-0.000407677
-0.00126616
-4.19618e-05
-0.00115546
0.000266942
-0.000985651
0.000514904
-0.00079089
0.000707833
-0.00059519
0.000848809
-0.000413892
0.000942757
-0.000255684
0.000996665
-0.00012679
0.00101895
-3.27078e-05
0.00101907
2.14935e-05
0.00100617
3.0764e-05
0.000988599
-1.09428e-05
0.000973284
-0.000105463
0.000959546
-0.000243758
0.000886557
-0.000285665
0.00062938
0.000212129
0.00288954
-0.00079065
0.0058571
-0.00136004
0.00159604
-0.00167609
0.001051
-0.00189591
0.000870322
-0.00208015
0.000801884
-0.00224065
0.00073351
-0.00238
0.000656923
-0.00249842
0.000572205
-0.00259491
0.000479041
-0.00266767
0.000376586
-0.00271431
0.00026382
-0.00273201
0.000139753
-0.00271775
3.82886e-06
-0.0026695
-0.000142994
-0.00258623
-0.000298817
-0.00246679
-0.000463492
-0.00231029
-0.000637082
-0.00211549
-0.000820414
-0.00187993
-0.00101484
-0.00159935
-0.0012197
-0.00126966
-0.00142526
-0.000894852
-0.00160025
-0.000498727
-0.0016877
-0.000117362
-0.0016475
0.000218435
-0.00149122
0.000501596
-0.00126878
0.000732702
-0.00102197
0.000913366
-0.000775826
0.00104573
-0.000546231
0.0011337
-0.00034363
0.0011827
-0.000175754
0.00119905
-4.9037e-05
0.00118925
3.13263e-05
0.00115889
6.11493e-05
0.00111162
3.63553e-05
0.00104928
-4.30966e-05
0.000962191
-0.000156637
0.000784376
-0.000107822
0.000473661
0.000522871
0.00342263
-0.000582204
0.00659383
-0.00114633
0.00216019
-0.00146415
0.00136884
-0.00166859
0.00107479
-0.00182878
0.000962099
-0.00196585
0.000870606
-0.00208339
0.000774491
-0.00218183
0.000670671
-0.00226019
0.000557427
-0.00231659
0.000433009
-0.00234852
0.000295772
-0.00235312
0.000144386
-0.00232765
-2.16195e-05
-0.00226986
-0.000200765
-0.00217834
-0.000390305
-0.00205284
-0.00058897
-0.00189392
-0.000795981
-0.00170215
-0.00101215
-0.00147638
-0.00124058
-0.00121184
-0.00148421
-0.000901259
-0.00173581
-0.000546224
-0.00195526
-0.000174872
-0.00205902
0.000171335
-0.00199367
0.000475112
-0.00179497
0.000733154
-0.0015268
0.000943693
-0.00123248
0.00110703
-0.000939134
0.00122532
-0.000664491
0.00130198
-0.000420272
0.00134114
-0.000214883
0.00134717
-5.50395e-05
0.00132406
5.4464e-05
0.00127505
0.000110186
0.00120161
0.000109826
0.00110159
5.69546e-05
0.000953342
-8.3596e-06
0.00069435
0.000151198
0.000356996
0.000860253
0.003849
-0.000410104
0.0071747
-0.000954017
0.00270413
-0.00127763
0.00169248
-0.00146668
0.00126386
-0.00159851
0.00109395
-0.00170894
0.000981059
-0.00180282
0.0008684
-0.00188063
0.000748502
-0.00194122
0.000618047
-0.00198249
0.000474302
-0.00200159
0.000314896
-0.00199518
0.000137995
-0.00195973
-5.70448e-05
-0.00189236
-0.000268111
-0.00179137
-0.000491263
-0.00165717
-0.000723144
-0.00149187
-0.00096126
-0.00129829
-0.00120571
-0.00107738
-0.00146147
-0.00082483
-0.00173674
-0.000531035
-0.00202958
-0.000198003
-0.00228826
0.000137137
-0.00239413
0.000444503
-0.00230101
0.00071595
-0.00206639
0.000945225
-0.00175604
0.00112924
-0.00141647
0.00126901
-0.00107887
0.00136752
-0.000762972
0.00142824
-0.000480963
0.0014543
-0.000240918
0.00144823
-4.89428e-05
0.00141169
9.10291e-05
0.00134582
0.000176087
0.0012504
0.000205277
0.00112051
0.000186875
0.000927027
0.000185149
0.000624545
0.000453708
0.000269456
0.00121537
0.00419708
-0.000269683
0.00763031
-0.000784449
0.00321892
-0.0011112
0.00201926
-0.00128904
0.00144174
-0.00139157
0.00119651
-0.00147413
0.00106364
-0.00154404
0.000938336
-0.00160183
0.00080632
-0.00164619
0.000662424
-0.00167463
0.000502771
-0.00168371
0.000323998
-0.00166899
0.000123301
-0.00162534
-0.000100663
-0.00154884
-0.00034459
-0.00143781
-0.000602267
-0.00129354
-0.000867389
-0.00111965
-0.00113512
-0.00092115
-0.00140419
-0.000701147
-0.00168145
-0.000456152
-0.0019817
-0.000175928
-0.00230978
0.000128446
-0.0025926
0.000423673
-0.00268932
0.000695448
-0.00257275
0.000932737
-0.00230365
0.00112742
-0.00195069
0.00127826
-0.00156728
0.00138815
-0.00118874
0.00146143
-0.000836221
0.00150203
-0.000521534
0.00151255
-0.000251412
0.00149391
-3.02803e-05
0.00144581
0.000139159
0.00136744
0.00025448
0.00125665
0.000316103
0.00110631
0.000337239
0.000886576
0.000404916
0.00056838
0.000771933
0.000205484
0.00157829
0.00448998
-0.000158727
0.00798944
-0.000639739
0.00369996
-0.000958849
0.00233839
-0.00113014
0.00161305
-0.00120516
0.00127155
-0.00126015
0.00111866
-0.00130668
0.000984891
-0.00134539
0.000845052
-0.0013748
0.000691862
-0.00139206
0.000520057
-0.00139288
0.000324837
-0.00137126
0.000101707
-0.00131984
-0.000152061
-0.00123367
-0.000430735
-0.00111208
-0.000723829
-0.000957976
-0.00102147
-0.000776356
-0.00131672
-0.000573792
-0.00160673
-0.000354595
-0.00190062
-0.000115537
-0.00222074
0.000145725
-0.00257101
0.00041694
-0.00286379
0.000679545
-0.00295189
0.000917058
-0.00281023
0.00111514
-0.00250169
0.00126906
-0.00210458
0.00138088
-0.00167907
0.00145595
-0.00126378
0.00150014
-0.00088039
0.00151807
-0.00053943
0.00151214
-0.00024546
0.00148197
-8.28145e-08
0.00142596
0.000195201
0.00134186
0.0003386
0.00122577
0.000432228
0.00106807
0.000494963
0.000837079
0.00063594
0.000515789
0.00109325
0.000158608
0.0019355
0.00474445
-8.33023e-05
0.0082871
-0.000521489
0.00413817
-0.000810657
0.00262759
-0.000977626
0.00178005
-0.00103181
0.00132577
-0.00106142
0.0011483
-0.001086
0.00100949
-0.00110644
0.000865515
-0.00112129
0.000706743
-0.00112746
0.000526251
-0.00111977
0.000317169
-0.00109019
7.21506e-05
-0.00102881
-0.000213417
-0.000930476
-0.000529043
-0.000797719
-0.000856562
-0.000635958
-0.00118321
-0.000451033
-0.00150162
-0.00025036
-0.00180738
-3.64239e-05
-0.00211453
0.00018552
-0.00244266
0.000420233
-0.0028057
0.000665617
-0.00310914
0.000899156
-0.0031854
0.00109754
-0.00300858
0.00125019
-0.00265432
0.00135771
-0.00221207
0.00142626
-0.00174758
0.0014638
-0.0013013
0.00147762
-0.000894179
0.00147278
-0.000534563
0.00145143
-0.000224084
0.00141276
3.86137e-05
0.0013545
0.000253494
0.00127284
0.000420285
0.00116194
0.000543162
0.00100875
0.000648175
0.000778229
0.000866496
0.000465292
0.00140622
0.000122058
0.00227877
0.00497056
6.77226e-06
0.00850875
-0.000393541
0.00453851
-0.000628795
0.00286287
-0.000800723
0.001952
-0.000856548
0.00138162
-0.000868252
0.00116003
-0.000874156
0.00101542
-0.000877327
0.000868712
-0.00087701
0.000706451
-0.000870246
0.000519512
-0.000851376
0.000298323
-0.000809021
2.98196e-05
-0.000732156
-0.000290258
-0.000617381
-0.000643795
-0.00047395
-0.00099997
-0.000309977
-0.00134716
-0.000130302
-0.00168127
5.72438e-05
-0.0019949
0.00024811
-0.00230537
0.000440864
-0.00263538
0.000651213
-0.00301602
0.00087304
-0.00333094
0.0010716
-0.00338393
0.00122316
-0.00316011
0.00132348
-0.0027546
0.00137991
-0.00226847
0.00140305
-0.00177069
0.00140318
-0.0013014
0.00138842
-0.000879394
0.00136385
-0.000509957
0.00133116
-0.000191369
0.00128941
8.03936e-05
0.00123569
0.00030724
0.00116485
0.000491149
0.00106887
0.000639179
0.000930225
0.000786845
0.000710146
0.0010866
0.000415588
0.00170081
8.99793e-05
0.0026044
0.00517258
0.000162714
0.00858793
-0.000113213
0.00481446
-0.000326352
0.00307603
-0.000534459
0.00216014
-0.0006427
0.00148988
-0.000663307
0.00118066
-0.000658846
0.00101099
-0.00064689
0.000856782
-0.000630088
0.000689675
-0.000605677
0.000495126
-0.000567887
0.000260558
-0.000502112
-3.59325e-05
-0.000401916
-0.000390431
-0.000268904
-0.000776785
-0.00012012
-0.00114873
3.57493e-05
-0.00150301
0.00019213
-0.00183763
0.000347
-0.00214974
0.000500491
-0.00245884
0.000659749
-0.00279461
0.000840925
-0.00319716
0.00103143
-0.00352141
0.00118458
-0.00353705
0.00127916
-0.00325466
0.00131991
-0.00279532
0.00132212
-0.00227065
0.00130041
-0.00174894
0.00126654
-0.00126751
0.00122843
-0.00084125
0.00119026
-0.000471756
0.0011529
-0.000153984
0.00111518
0.000118142
0.00107349
0.000348955
0.00102135
0.000543319
0.000948573
0.000711984
0.000832553
0.000902896
0.000633286
0.0012859
0.000370836
0.00196328
6.79103e-05
0.00290736
0.0053603
0.000318244
0.00852516
0.000178377
0.00495436
4.93655e-05
0.00320507
-0.000115739
0.00232527
-0.000302037
0.00167621
-0.000394888
0.00127354
-0.000408046
0.00102417
-0.00038922
0.000837982
-0.0003565
0.00065698
-0.000308152
0.000446803
-0.000236336
0.000188766
-0.000130666
-0.00014158
2.04983e-06
-0.000523124
0.00014235
-0.000917062
0.000277967
-0.00128433
0.000403919
-0.00162893
0.000518291
-0.00195198
0.000626681
-0.00225811
0.00073207
-0.0025642
0.00084376
-0.00290628
0.000984003
-0.00333738
0.00113075
-0.00366813
0.00122399
-0.00363025
0.00124944
-0.00328007
0.00122391
-0.00276976
0.00117121
-0.00221793
0.00110854
-0.00168624
0.00104777
-0.00120671
0.000995022
-0.000788473
0.000952298
-0.000429004
0.000918942
-0.0001206
0.000893028
0.000144084
0.000870147
0.000371864
0.000842662
0.000570833
0.000798579
0.000756096
0.000709492
0.000992013
0.000542165
0.00145326
0.00033394
0.00217154
7.35496e-05
0.00316777
0.00556106
6.81919e-05
0.00872606
0.000149149
0.00487343
0.000487012
0.00286723
0.000539334
0.00227297
0.000334672
0.0018809
0.000125075
0.00148316
1.73197e-05
0.00113195
-3.86744e-06
0.000859195
2.97456e-05
0.000623393
0.000103499
0.000373075
0.000220247
7.20417e-05
0.000366405
-0.000287715
0.000509924
-0.000666621
0.000630198
-0.00103731
0.000729054
-0.00138316
0.000805225
-0.00170508
0.00086141
-0.00200814
0.000904424
-0.0023011
0.000941817
-0.00260157
0.000987184
-0.00295162
0.00107129
-0.00342146
0.0011578
-0.00375461
0.0011729
-0.00364532
0.00111611
-0.00322325
0.00101928
-0.00267289
0.000914498
-0.00211311
0.000818303
-0.00159001
0.000741062
-0.00112944
0.000685162
-0.000732543
0.000648854
-0.000392667
0.000628936
-0.000100653
0.000621828
0.00015122
0.000622389
0.000371331
0.000622213
0.000571038
0.000606774
0.000771565
0.000540664
0.00105815
0.000411139
0.00158281
0.00027894
0.00230376
7.52325e-05
0.0033715
0.00577077
-0.000284388
0.00929242
0.000314772
0.00427429
0.00124761
0.00193442
0.00150757
0.00201304
0.00131971
0.00206879
0.00107202
0.00173088
0.00089116
0.00131284
0.000789805
0.000960578
0.000767586
0.000645638
0.000819725
0.00032096
0.000930145
-3.83542e-05
0.00105387
-0.000411418
0.00115591
-0.000768631
0.00122185
-0.00110324
0.00125191
-0.0014132
0.00124945
-0.00170259
0.00122066
-0.00197933
0.00117434
-0.00225475
0.00112109
-0.0025483
0.00107898
-0.00290948
0.00108955
-0.00343199
0.00109506
-0.00376009
0.00101063
-0.00356086
0.000859535
-0.00307212
0.000689724
-0.00250305
0.000539431
-0.00196279
0.000420017
-0.00147057
0.000337837
-0.00104723
0.00028976
-0.000684436
0.000269534
-0.000372412
0.000270691
-0.000101782
0.000287362
0.000134578
0.000313473
0.000345249
0.000339475
0.000545065
0.000345155
0.000765916
0.000291937
0.0011114
0.000193649
0.00168113
0.000138382
0.00235905
4.90281e-06
0.00350498
0.00591783
0.00170305
0.00789487
0.00287217
0.0031052
0.00343588
0.00137073
0.00329652
0.00215243
0.00291424
0.00245109
0.00257964
0.00206551
0.00230824
0.00158427
0.00211095
0.00115789
0.00199925
0.000757361
0.00196032
0.00035992
0.00196393
-4.19455e-05
0.00197282
-0.000420281
0.00196058
-0.000756368
0.00191459
-0.00105722
0.00183301
-0.00133159
0.00171893
-0.00158849
0.00157825
-0.00183862
0.00141927
-0.00209575
0.00125334
-0.00238234
0.00110219
-0.0027583
0.00102078
-0.00335055
0.00092009
-0.00365936
0.000712995
-0.00335373
0.000460229
-0.00281933
0.000222176
-0.00226496
3.35896e-05
-0.00177417
-9.83092e-05
-0.00133864
-0.000178128
-0.000967379
-0.00021452
-0.000648014
-0.000216392
-0.00037051
-0.00019272
-0.000125424
-0.0001519
9.37874e-05
-0.000101537
0.000294915
-5.37594e-05
0.000497318
-3.18282e-05
0.000744015
-5.52202e-05
0.00113483
-0.000105646
0.00173159
-0.000175555
0.002429
-0.000263427
0.00359287
0.00580408
0.00823015
0.0113289
0.00977311
0.00292651
0.00747022
0.00445535
0.00603694
0.00388439
0.00507521
0.00302726
0.00437238
0.00228713
0.00388904
0.00164126
0.00357572
0.00107071
0.00336286
0.000572803
0.00318109
0.000139853
0.00300129
-0.000240456
0.00281692
-0.000571977
0.00261928
-0.000859553
0.00240146
-0.00111375
0.0021603
-0.00134732
0.00189581
-0.0015741
0.00161111
-0.00181102
0.00131496
-0.00208617
0.00103308
-0.0024764
0.00084139
-0.00315883
0.000605896
-0.00342384
0.000256232
-0.00300403
-9.84393e-05
-0.00246462
-0.000390451
-0.00197292
-0.000608238
-0.00155636
-0.000753932
-0.00119292
-0.000840157
-0.000881125
-0.000875247
-0.000612895
-0.00086718
-0.000378546
-0.000825357
-0.000167217
-0.0007631
3.15604e-05
-0.000690981
0.000222825
-0.000617712
0.000424077
-0.000554471
0.000680804
-0.000487219
0.00106761
-0.000398922
0.00164334
-0.000395514
0.00242564
-0.000434303
0.00363172
0.00552664
0.00155447
0.0036653
0.00279618
0.00321367
0.00389966
0.00278093
0.0041928
0.00273414
0.00416274
0.00231721
0.00407691
0.00172711
0.00398683
0.00116082
0.00388402
0.00067564
0.0037513
0.000272598
0.00357604
-6.51689e-05
0.00335789
-0.000353808
0.00310126
-0.000602892
0.00280926
-0.000821727
0.00248292
-0.00102094
0.00212138
-0.00121254
0.0017228
-0.00141242
0.00128908
-0.00165242
0.00084868
-0.00203598
0.000525487
-0.0028356
0.00011975
-0.00301807
-0.000370241
-0.00251401
-0.000806143
-0.0020287
-0.00115071
-0.00162833
-0.00141318
-0.00129387
-0.00159561
-0.00101045
-0.00170656
-0.000770149
-0.00175466
-0.000564768
-0.001748
-0.000385165
-0.0016947
-0.000220484
-0.00160496
-5.81544e-05
-0.00149322
0.000111112
-0.00136585
0.000296737
-0.00121126
0.000526236
-0.000983572
0.000839952
-0.000637405
0.00129721
-0.000278182
0.00206648
-0.000207622
0.00356123
0.00548243
-0.000126584
0.0038065
0.00152428
0.00156282
0.00234607
0.00195917
0.0028743
0.00220593
0.00327265
0.00191889
0.00355632
0.00144346
0.00373015
0.000987023
0.00380405
0.000601758
0.00379021
0.00028647
0.00369584
2.92216e-05
0.00352704
-0.00018498
0.00329126
-0.000367087
0.00299537
-0.000525814
0.00264297
-0.000668516
0.00223306
-0.000802606
0.00175843
-0.000937761
0.00120379
-0.00109776
0.00056722
-0.00139938
5.73179e-05
-0.00232566
-0.000549917
-0.0024108
-0.00116395
-0.00189995
-0.00169034
-0.00150229
-0.00211545
-0.00120319
-0.00244214
-0.000967157
-0.00267714
-0.000775421
-0.00282947
-0.000617784
-0.0029077
-0.000486499
-0.00291872
-0.000374104
-0.00286671
-0.000272461
-0.00275352
-0.00017131
-0.00258774
-5.46486e-05
-0.00238078
8.9797e-05
-0.00211466
0.000260137
-0.0017149
0.000440206
-0.00106679
0.000649121
-0.000150145
0.00114987
0.000385308
0.00302583
0.00603572
0.00776353
-0.00785686
0.000404137
-0.000996543
-0.000182347
0.004393
-0.000117443
0.00149794
0.000667775
0.00117397
0.00152266
0.00135107
0.0022694
0.00117218
0.0028577
0.000855186
0.00326474
0.000580003
0.00350651
0.000360019
0.0036096
0.0001834
0.0035978
4.10497e-05
0.00348598
-7.31389e-05
0.00328709
-0.000168166
0.00301096
-0.000249665
0.00266365
-0.00032118
0.0022463
-0.000385228
0.00175242
-0.00044386
0.00115659
-0.000501904
0.000358607
-0.000601374
-0.000490307
-0.00147672
-0.00139542
-0.00150567
-0.00219278
-0.00110256
-0.0028437
-0.000851352
-0.00336232
-0.000684543
-0.00376657
-0.000562873
-0.00407202
-0.000469945
-0.00429182
-0.000397936
-0.00443638
-0.000341897
-0.00451268
-0.000297763
-0.00452326
-0.000261848
-0.0044642
-0.000230335
-0.00432254
-0.00019629
-0.0040907
-0.000142039
-0.00377517
-5.53977e-05
-0.00333486
-1.15954e-07
-0.00256584
-0.000119899
-0.00132922
-8.67449e-05
-0.000415821
0.00211245
0.0058001
-0.0072693
-0.00825528
-0.0038515
-0.00234864
-0.00117222
0.000179835
0.00135199
0.00220674
0.00278605
0.00314517
0.00332754
0.00336746
0.0032931
0.00312366
0.00287267
0.00255015
0.00216357
0.00171839
0.00121526
0.00061313
-0.000860368
-0.00236107
-0.00345889
-0.00430574
-0.00498603
-0.00554488
-0.00601105
-0.00640547
-0.00674411
-0.00703888
-0.00729797
-0.00752577
-0.00771975
-0.00785966
-0.00791312
-0.00791148
-0.0080298
-0.00811515
-0.0060015
)
;

boundaryField
{
    floor
    {
        type            calculated;
        value           uniform 0;
    }
    ceiling
    {
        type            calculated;
        value           nonuniform List<scalar> 
43
(
-6.16674e-06
-1.05449e-05
-1.07528e-05
-4.90249e-06
-2.4273e-06
-9.64639e-07
4.62763e-08
4.57338e-07
7.24997e-07
9.15381e-07
1.0555e-06
1.15915e-06
1.2386e-06
1.29953e-06
1.34318e-06
1.36841e-06
1.37116e-06
1.34183e-06
1.24856e-06
7.78669e-07
-3.18887e-06
-4.94751e-06
-4.7236e-06
-4.47189e-06
-4.23106e-06
-3.98624e-06
-3.7329e-06
-3.47359e-06
-3.21455e-06
-2.96323e-06
-2.72615e-06
-2.50721e-06
-2.30657e-06
-2.12033e-06
-1.94076e-06
-1.75936e-06
-1.57188e-06
-1.38122e-06
-1.17914e-06
-2.0044e-07
9.09533e-06
6.5125e-06
-1.46026e-05
)
;
    }
    sWall
    {
        type            calculated;
        value           nonuniform List<scalar> 
18
(
-4.03439e-05
-8.57491e-05
-0.000114648
-0.000136346
-0.000154496
-0.000170747
-0.0001859
-0.000200376
-0.000214331
-0.000228395
-0.000241872
-0.000255453
-0.000269065
-0.000281949
-0.000305465
-0.000344357
-0.000531978
-0.000581381
)
;
    }
    nWall
    {
        type            calculated;
        value           nonuniform List<scalar> 
20
(
-1.48329e-05
-3.46233e-05
-4.82426e-05
-5.94016e-05
-6.93488e-05
-7.85977e-05
-8.7386e-05
-9.58348e-05
-0.000104027
-0.00011202
-0.000119781
-0.000127175
-0.000134458
-0.000142148
-0.000149657
-0.000156828
-0.000163364
-0.00016793
-0.000180156
-0.000201153
)
;
    }
    sideWalls
    {
        type            empty;
        value           nonuniform 0();
    }
    inlet
    {
        type            calculated;
        value           uniform -0.00229325;
    }
    outlet
    {
        type            calculated;
        value           nonuniform List<scalar> 2(0.000625332 0.00835595);
    }
}


// ************************************************************************* //
