/*--------------------------------*- C++ -*----------------------------------*=========                 |
  \      /  F ield         | OpenFOAM: The Open Source CFD Toolbox
   \    /   O peration     | Website:  https://openfoam.org
    \  /    A nd           | Version:  6
     \/     M anipulation  |
\*---------------------------------------------------------------------------*/
FoamFile
{
    version     2.0;
    format      ascii;
    class       volScalarField;
    location    "750";
    object      PMV;
}
// * * * * * * * * * * * * * * * * * * * * * * * * * * * * * * * * * * * * * //

dimensions      [0 0 0 0 0 0 0];

internalField   nonuniform List<scalar> 
458
(
1.3228873999045223
1.0769997104373206
1.0443879734331931
1.0154461061896995
0.9969096244782012
0.9881913225528046
0.990633167738303
1.005280961804798
1.0343658917299638
1.082248368284702
1.152708095678133
1.2236067019201133
1.2393614137306104
1.247477165192161
1.2598890630367865
1.3739550093819426
1.3605945586283583
1.3567771311676993
1.3634575842105616
1.36822920687589
1.3720464262210632
1.3676834118449412
1.3634487493543468
1.364449869566401
1.3663771558273352
1.3693906634189694
1.3726887932783056
1.377077601483259
1.3835549840087644
1.394860236717479
1.403058643447839
1.4073522520153474
1.4211865385630909
1.2557551154801712
1.088898869303479
1.0765039753443728
1.0479235170696208
1.0310450099526345
1.0230638231592646
1.0240785580261045
1.0323609628292503
1.0465822057361764
1.0711923018257512
1.1115443609433355
1.172416649678388
1.2355421621035083
1.246522382213194
1.2536831798404595
1.211917343853226
1.2116833331997114
1.2334806933359308
1.3268025885681234
1.3477104699838716
1.3472332668556632
1.3548683919169056
1.3577927187462657
1.3573889685056655
1.3574617895327963
1.3586281827139841
1.3593600263440608
1.3596459570907449
1.3600936674983883
1.3613854912424441
1.3625173526172367
1.3656416307241428
1.3742611670200204
1.3825434120637266
1.3892230263283132
1.3724652606881995
1.2869943196756828
1.0798277069829838
1.1091610701160513
1.0939611447521633
1.0871577023708128
1.0829917517086705
1.0833243275209559
1.0796690966948903
1.0665037970217732
1.055325883782595
1.0661181888155526
1.1148432699262079
1.206361454788071
1.2532057987305896
1.2598890630367865
1.262753271730304
1.2641678332839625
1.243994901901149
1.2378254700751636
1.3023072155378927
1.3116341328216965
1.3204984463601956
1.3312610964991063
1.334840167043967
1.3573731146722938
1.3715692776608845
1.3715692776608845
1.3720464262210632
1.3720464262210632
1.3720464262210632
1.372523573674612
1.3730007200202854
1.375863574747052
1.3792035210403348
1.3716454460890746
1.298950866450454
1.3617998310087633
1.0729434775058106
1.132756661947484
1.1434920253520284
1.1605021161202043
1.1720112994381082
1.1740008339382473
1.1505385322469037
1.0938248611980268
1.0402407401082814
1.0277016504563334
1.073093313178927
1.1658894298829183
1.259259875949667
1.273255121376115
1.274687160991567
1.2492810744227398
1.2250590934143681
1.1741643845609924
1.240553588888232
1.2764237780253727
1.3023205142981962
1.3323634527591441
1.3664331169105006
1.3930307068964003
1.3867173763888516
1.380420392491409
1.379147094963984
1.3802533403382486
1.3826818546053792
1.3891811116705657
1.4023238038871015
1.4255564174794522
1.424535286473613
1.4106916574166621
1.3514054454288642
1.2548640649281364
1.4559032173991533
1.0811713303929065
1.15025539401899
1.187408723622047
1.2422298556855667
1.288905901543838
1.2984315037973322
1.2271494962885492
1.1164717941683888
1.0267633018984728
0.9991381720006638
1.0470713539066667
1.141451640496126
1.2447937621228233
1.2928256690809572
1.2947349129008092
1.2839284920954401
1.2554542996468112
1.2538258088591414
1.2694594498847473
1.30084476061332
1.34118342621319
1.3825217275691026
1.4223568433367602
1.4493288520983765
1.4617759142507416
1.4620850515064276
1.4615639379957308
1.4597582717782833
1.4567795890300133
1.4541772455239859
1.4534713335943088
1.4531078825989971
1.4378429038880898
1.4114626387239515
1.335803586652166
1.3363757121963313
1.3331125962403894
1.4177531048187073
1.296042845037692
1.5535137311277578
1.111259357155939
1.1809530818318608
1.2194454172944662
1.3038043760000273
1.3801577812797408
1.416416212523724
1.2573866380945535
1.1154242289401086
1.0101657190864424
0.979364015764313
1.0309530442470585
1.137163121243178
1.2559419472230038
1.3205082818461793
1.3267125725702398
1.3243263262493228
1.3252808276924237
1.3379997469022828
1.3584387423189688
1.3920827036261352
1.4230946338558743
1.4502827483932224
1.4726977281832814
1.489387697353264
1.500354406651201
1.507982948467535
1.5127505863177475
1.5141808472367555
1.5132273415244815
1.5084597192458136
1.5017847881080595
1.484350274938393
1.4544371162100054
1.4178744228078775
1.3470286557602196
1.3407655902416555
1.3335817362492317
1.358606078114316
1.366357200833806
1.6458782721559697
1.1980464710289225
1.3002356536424553
1.2778977075436002
1.3322438202971247
1.4116457622482539
1.3492735727571277
1.22746192688177
1.0856812731179282
0.9811262412812404
0.9602684856275985
1.0309231155768328
1.1591856810567434
1.3019904969831482
1.3582086744650685
1.3696606723833022
1.370137825355419
1.375863574747052
1.393994040616497
1.419278423151812
1.4474210433443748
1.4736514884197267
1.4965399892978206
1.513704095164684
1.5251457081530744
1.5322962470594161
1.53610971773569
1.537539742074629
1.5365863941669353
1.5332496245750746
1.5265758450881874
1.5175180676892004
1.5070294022691468
1.4896186538448057
1.4451840691532354
1.3829239851275847
1.354109626653668
1.333066339790391
1.3048560905234836
1.4116385407786936
1.7864695900606593
1.5718921271538395
1.5135071969263356
1.3963739191110225
1.374994912511097
1.3639447430796574
1.2938264511998074
1.1530362227678352
1.0041432604738028
0.9217118816517277
0.9411939507949735
1.058046512618825
1.2268859944830635
1.3672748910592678
1.4083063739365493
1.4207095115926152
1.425002708933443
1.4350197675805507
1.4545752146549409
1.4779433385578615
1.5008312019933685
1.520855210632827
1.5356330396551696
1.545642930665295
1.5518391586254017
1.5542222465951372
1.554698859046415
1.5532690165444958
1.5504092853373923
1.54659621513254
1.540399746033144
1.531819555847778
1.5213319389775772
1.509413256152007
1.4960631803266795
1.4812813634375268
1.4718959471324595
1.444440558769226
1.364748535791512
1.2782998027887205
1.9961532394724097
1.848107308033227
1.6863520780883086
1.5429509176945424
1.451004236216626
1.3796993046498216
1.1876009157303966
0.9690251465752996
0.8369278610073075
0.8360200733470587
0.952291649575536
1.1558522350645388
1.351528057628738
1.431680811108101
1.4612521641538478
1.4741283663951332
1.4827119237361364
1.4946327443837553
1.5113203113157587
1.5289593743343877
1.54373634153091
1.555652078791982
1.5619454879343022
1.5571398532145475
1.5513829797224723
1.5449433631736538
1.5371219982753628
1.528456836954462
1.518175796072566
1.50669335992862
1.4935119553893794
1.478570338721239
1.4645331360947988
1.4476835336866332
1.4281218079735611
1.4102468364606022
1.3987146132959505
1.3944772186782226
1.3845064749519655
1.3528650755722955
-1.659153043170626
-0.7527282091166138
-0.19356680976536444
0.00839314931447418
0.15016619538969803
0.332366083470724
0.5700413739235786
0.8444592245445345
1.1364627572236368
1.3491420731521362
1.4498058009206396
1.4706564444920946
1.4791142175413892
1.4874954604073454
1.49804803116381
1.51072970089018
1.5224911219250439
1.5308778819581743
1.534611382923332
1.5348355420969455
1.53205039327185
1.527340859474688
1.5210835935557725
1.5135986047773975
1.5048856549301022
1.4956964314641907
1.4870220054867245
1.4795334602427024
1.4737691328098155
1.4698960403452488
1.467105884296339
1.4652420921914322
1.4632741873042654
1.4639448590786968
1.474405370839172
1.510734823164153
1.577916713286746
1.4255151211731898
-1.671004528765515
-0.5852635373423403
-0.009235915044277438
0.31346082963036226
0.5201289452509952
0.7780058026036966
1.0440545485423798
1.2761191931112077
1.3721446651199705
1.4150482956616999
1.4436672364739298
1.4603408749330355
1.4715585825436974
1.4805681489082814
1.4891087546925703
1.4964902621327414
1.5025596216970398
1.5072692988923464
1.5100343259714528
1.5100312865619747
1.5088467057844865
1.5061355774724463
1.5030275212449993
1.4996909229893545
1.4962992662096581
1.4935297408160593
1.4911138989532229
1.4900065049662026
1.49017013432742
1.49284422916189
1.4996477117645013
1.5112636118107405
1.5235520663922628
1.5338854291167328
1.5445576834481798
1.5797436384505676
1.5279097907797925
1.4687321013597638
-1.1340752184450957
-1.1327120558735282
-1.0092892808220721
-0.21078091754378658
0.3711381904143807
0.7830025736251249
1.081662875587076
1.23019214386421
1.319358430174573
1.3732502837227671
1.4076203917788712
1.432494858059491
1.4473187971864963
1.4560391773914005
1.4609644502706698
1.4643357732492746
1.4660279270153447
1.4659135702519412
1.4643515448830018
1.4622090178311808
1.4591900587200128
1.456522694570779
1.4538336047330123
1.4512160157275662
1.4493088433877965
1.4482961823700595
1.448440740830083
1.4506304074612315
1.454368276425829
1.4609126838827948
1.4703762802696325
1.4847817821638296
1.5086414417856286
1.54923494898849
1.609495980075359
1.6152126659735189
1.587641897715312
1.5272877032839682
1.4753688688379
1.4890698851405553
)
;

boundaryField
{
    ".*"
    {
        type            zeroGradient;
    }
}


// ************************************************************************* //
