/*--------------------------------*- C++ -*----------------------------------*\
  =========                 |
  \\      /  F ield         | OpenFOAM: The Open Source CFD Toolbox
   \\    /   O peration     | Website:  https://openfoam.org
    \\  /    A nd           | Version:  6
     \\/     M anipulation  |
\*---------------------------------------------------------------------------*/
FoamFile
{
    version     2.0;
    format      ascii;
    class       volScalarField;
    location    "30099.9999981156689";
    object      epsilon;
}
// * * * * * * * * * * * * * * * * * * * * * * * * * * * * * * * * * * * * * //

dimensions      [0 2 -3 0 0 0 0];

internalField   nonuniform List<scalar> 
778
(
0.000253107
0.000306332
0.000302997
0.000344192
0.000385088
0.000424937
0.00046443
0.000504754
0.000547644
0.000595814
0.000644301
0.000692713
0.000742696
0.000799048
0.000860801
8.95113e-05
0.000262467
0.000268913
0.000249875
0.000220068
0.000184082
0.000152342
0.000126524
0.000105901
8.94321e-05
7.62827e-05
6.56321e-05
5.68381e-05
4.93737e-05
4.27662e-05
3.65169e-05
3.18166e-05
2.35994e-05
0.000796953
0.00144313
0.000287006
0.000259633
0.000261748
0.000267736
0.000276648
0.000290097
0.000310377
0.000340613
0.000379864
0.000431018
0.000499439
0.000600679
0.000785856
0.00112956
0.000978973
0.000858558
0.000511642
0.000369292
0.000294049
0.000242753
0.00020396
0.000186826
0.000154677
0.000124999
0.000100693
8.14816e-05
6.65177e-05
5.48132e-05
4.56233e-05
3.87007e-05
3.45099e-05
3.27486e-05
6.5761e-05
4.80667e-05
0.00163051
0.00407875
0.000407383
0.000242971
0.000229159
0.000231081
0.000238306
0.000250588
0.000268509
0.000292798
0.000324941
0.000367014
0.000421393
0.000495084
0.000601448
0.000724711
0.000829969
0.00158397
0.00102806
0.000512253
0.000367625
0.000294212
0.000262017
0.000550949
0.000362245
0.000250509
0.000181195
0.000136208
0.000105866
8.47434e-05
6.97935e-05
5.94406e-05
4.51147e-05
3.79619e-05
0.000108158
7.07349e-05
0.00285327
0.00876951
0.000709793
0.000240757
0.000202526
0.000200068
0.000203247
0.00020988
0.000220706
0.000237633
0.000263331
0.000300074
0.000349263
0.000412352
0.000487981
0.000560148
0.000612466
0.000824741
0.00156536
0.000728751
0.000459698
0.000358256
0.000301896
0.000291808
0.000813871
0.000612327
0.000481525
0.000388176
0.000318857
0.000264107
0.000218585
0.000178868
0.000141717
8.36874e-05
5.48204e-05
0.000148617
9.4341e-05
0.00454553
0.0158256
0.00134608
0.000258353
0.000175766
0.000166831
0.000165844
0.000167824
0.000173991
0.000187502
0.00021175
0.00024842
0.000297796
0.000359266
0.000427661
0.000488997
0.00052847
0.000582554
0.000627822
0.000483325
0.000393579
0.000331087
0.000282321
0.000248625
0.000247821
0.000226752
0.000202912
0.000181059
0.00016269
0.000146531
0.000131856
0.00011825
0.000105071
8.44408e-05
6.41206e-05
0.00010511
0.000138711
0.000159951
0.000370924
0.000322299
0.00676279
0.0248756
0.00255279
0.000318037
0.000155554
0.000137091
0.000132157
0.000130727
0.000134497
0.000148589
0.000176738
0.000218082
0.000270739
0.000333935
0.000401459
0.000462307
0.000502786
0.00052165
0.000504905
0.000438374
0.000373924
0.000315715
0.00026477
0.000223388
0.000193282
0.000169623
0.000150815
0.000135642
0.000123317
0.00011277
0.000103306
9.45252e-05
8.60619e-05
7.58764e-05
6.52971e-05
7.75143e-05
9.95817e-05
0.000212594
0.00108511
0.000549946
0.00967071
0.0336345
0.00458236
0.000464857
0.000150837
0.000116355
0.000107109
0.000103309
0.000107108
0.000127945
0.000166143
0.000215854
0.000273166
0.000339729
0.00040889
0.00046999
0.000509813
0.000520271
0.000494292
0.000437669
0.000371887
0.000307504
0.000250551
0.000204428
0.000169737
0.000144553
0.000126332
0.000112754
0.000102308
9.37413e-05
8.62399e-05
7.93404e-05
7.27714e-05
6.61094e-05
6.03168e-05
6.36606e-05
7.66263e-05
0.000176259
0.00162463
0.000904517
0.0127572
0.0404048
0.007488
0.00087086
0.000194209
0.000115371
9.73985e-05
9.14849e-05
9.8669e-05
0.00013776
0.000189316
0.000246206
0.000306836
0.000373412
0.000444204
0.00050746
0.000546917
0.000550658
0.000515578
0.000451502
0.000375465
0.000300902
0.000236422
0.00018592
0.000149291
0.000123975
0.00010672
9.45893e-05
8.57702e-05
7.8848e-05
7.29368e-05
6.75514e-05
6.2465e-05
5.76526e-05
5.39831e-05
5.56165e-05
6.98423e-05
0.00036095
0.00583978
0.00205818
0.0138265
0.0414626
0.0139288
0.00316073
0.000629091
0.000207828
0.00013266
0.000116027
0.000142505
0.000193003
0.000249343
0.000306362
0.000367086
0.000436122
0.000510378
0.000575017
0.000610339
0.000602789
0.000551922
0.000470775
0.000378294
0.000290722
0.000218103
0.000163926
0.000126735
0.000102599
8.72974e-05
7.73638e-05
7.07012e-05
6.57217e-05
6.15281e-05
5.76797e-05
5.40149e-05
5.06437e-05
4.84293e-05
5.17225e-05
9.27008e-05
0.00105467
0.0152374
0.00293221
0.0130046
0.0283761
0.0144143
0.00572339
0.00210223
0.000833739
0.000413446
0.000276882
0.000279079
0.0003147
0.000356154
0.000401638
0.000458259
0.000530279
0.000609175
0.000673174
0.000698043
0.00067016
0.000593441
0.000486313
0.000372239
0.000270324
0.000190891
0.000135627
0.000100632
7.98732e-05
6.79774e-05
6.12046e-05
5.71367e-05
5.42069e-05
5.1667e-05
4.92144e-05
4.68055e-05
4.47176e-05
4.43067e-05
5.38931e-05
0.000171995
0.00248908
0.0126862
0.00318168
0.0106909
0.0193619
0.012039
0.0062986
0.00317288
0.00167368
0.000986184
0.000678791
0.000559981
0.000517382
0.000510432
0.000531307
0.000583272
0.000662048
0.000746609
0.000804274
0.000806694
0.000743618
0.00062751
0.000485392
0.000346836
0.000232971
0.000152169
0.00010166
7.35349e-05
5.88026e-05
5.13338e-05
4.79342e-05
4.61449e-05
4.48335e-05
4.35309e-05
4.20987e-05
4.06528e-05
3.98853e-05
4.30206e-05
7.03182e-05
0.000290132
0.00234706
0.0106294
0.00321878
0.00807394
0.0137724
0.00969267
0.00593266
0.00356877
0.00222666
0.00149016
0.00109243
0.000869019
0.00074346
0.000685813
0.000689887
0.000750042
0.000844031
0.000931507
0.000967886
0.000925727
0.000805271
0.00063423
0.000451138
0.000291937
0.000176644
0.00010674
6.93433e-05
5.24274e-05
4.43087e-05
4.04941e-05
3.9098e-05
3.85145e-05
3.8062e-05
3.74547e-05
3.66471e-05
3.59528e-05
3.70823e-05
4.93151e-05
0.000140795
0.000615512
0.00249776
0.00837786
0.00302644
0.00612436
0.0101666
0.00779058
0.00531209
0.00356979
0.00246875
0.0017876
0.00136798
0.00109281
0.000925989
0.000859121
0.00088633
0.000982174
0.0010968
0.00116915
0.00115025
0.00102732
0.000821953
0.000585544
0.000367384
0.00020728
0.000114068
7.19437e-05
5.21982e-05
4.27545e-05
3.79608e-05
3.56216e-05
3.47976e-05
3.45124e-05
3.43314e-05
3.40696e-05
3.37921e-05
3.43358e-05
4.04296e-05
7.95879e-05
0.000282942
0.000978845
0.00274111
0.00615918
0.00270657
0.00617911
0.00781095
0.00680318
0.00473888
0.00336517
0.002462
0.00186544
0.00146215
0.00119451
0.00106454
0.00107011
0.00117969
0.00132861
0.00143721
0.00143875
0.00130188
0.00105299
0.000742907
0.000456071
0.000237711
0.000130862
8.19183e-05
6.01594e-05
4.92744e-05
4.29827e-05
3.90125e-05
3.66287e-05
3.55634e-05
3.51618e-05
3.5121e-05
3.53427e-05
3.60317e-05
3.8578e-05
5.0089e-05
0.000104518
0.000329753
0.00102076
0.00262557
0.0054739
0.00251752
0.00454406
0.00511346
0.00418511
0.00336199
0.00263995
0.00207029
0.00164917
0.00136198
0.00124496
0.00130038
0.00147755
0.00168566
0.00182337
0.00181655
0.00163924
0.00130588
0.000913324
0.000520832
0.000279427
0.000155889
0.000102931
8.00537e-05
6.82958e-05
6.04456e-05
5.43029e-05
4.9444e-05
4.60575e-05
4.44491e-05
4.42229e-05
4.51666e-05
4.73144e-05
5.09789e-05
5.76025e-05
7.36099e-05
0.000124562
0.000297473
0.000818929
0.00210398
0.00493505
0.00299878
0.00140089
0.00143138
0.00143394
0.00135505
0.00131288
0.00142414
0.00170821
0.00204274
0.00230488
0.00240331
0.00228983
0.00198029
0.00153604
0.000985932
0.000573226
0.000315469
0.000190216
0.000137977
0.000116492
0.000105217
9.6861e-05
8.92358e-05
8.20332e-05
7.57938e-05
7.15227e-05
7.03038e-05
7.23661e-05
7.7833e-05
8.70544e-05
0.000100345
0.000118633
0.000146423
0.000200426
0.000332025
0.000695485
0.0020497
0.00388231
0.00332463
0.00118796
0.00171867
0.00195646
0.00231291
0.00276042
0.00316467
0.00334261
0.00330705
0.00308298
0.0026927
0.00212626
0.00151107
0.000979439
0.000579312
0.000347949
0.000238939
0.000195295
0.000177317
0.000167546
0.000159948
0.000152668
0.000145262
0.000138122
0.000132407
0.00012989
0.000132544
0.00014137
0.000157643
0.000182603
0.000217207
0.000262872
0.000324154
0.000415275
0.000576023
0.000931667
0.00231117
0.00360424
0.00351828
0.00741634
0.0080497
0.00480671
0.00340838
0.00374538
0.00415622
0.00416796
0.00395451
0.00359493
0.0031373
0.00262966
0.00208742
0.00154042
0.00105884
0.000698835
0.000475837
0.000366727
0.000320471
0.000300058
0.000289143
0.000282252
0.00027723
0.000272683
0.000267646
0.00026207
0.000257397
0.000256552
0.000262485
0.000277199
0.000303319
0.000343555
0.000401142
0.000480719
0.000591096
0.000751991
0.00101009
0.00148895
0.00269123
0.00454618
0.0031725
0.00650347
0.00512756
0.00437219
0.00462715
0.00455111
0.00428412
0.00370252
0.00305421
0.00246648
0.00197207
0.00156821
0.00124531
0.000994799
0.000812558
0.000690019
0.000607568
0.000549747
0.000510535
0.000485849
0.000473577
0.000472079
0.000479288
0.000492535
0.000508908
0.00052589
0.000542057
0.000557531
0.000574546
0.000598446
0.000634018
0.000686304
0.000761901
0.000871089
0.00103243
0.00128052
0.00167293
0.00229334
0.00349706
0.00583901
0.00302738
0.00536092
0.00337065
0.00332172
0.00362055
0.00388154
0.00354631
0.00295028
0.00234593
0.00183288
0.00142402
0.0011035
0.000855247
0.000670514
0.000544165
0.000468999
0.000435269
0.000425255
0.000428808
0.000442637
0.000464751
0.000493145
0.000525594
0.000559976
0.000594695
0.000629008
0.000663238
0.0006988
0.000737536
0.000781862
0.000834479
0.000897547
0.000973164
0.00106484
0.00118138
0.00134104
0.00157712
0.00193394
0.00244347
0.00308953
0.00260734
)
;

boundaryField
{
    floor
    {
        Cmu             0.09;
        kappa           0.41;
        E               9.8;
        type            epsilonWallFunction;
        value           nonuniform List<scalar> 
36
(
0.000860801
8.95113e-05
0.000262467
0.000268913
0.000249875
0.000220068
0.000184082
0.000152342
0.000126524
0.000105901
8.94321e-05
7.62827e-05
6.56321e-05
5.68381e-05
4.93737e-05
4.27662e-05
3.65169e-05
3.18166e-05
2.35994e-05
2.35994e-05
4.80667e-05
7.07349e-05
9.4341e-05
0.000159951
0.000370924
0.000322299
0.000860801
0.00112956
0.000978973
0.000858558
8.95113e-05
0.000858558
0.000511642
0.00158397
0.00102806
0.00156536
)
;
    }
    ceiling
    {
        Cmu             0.09;
        kappa           0.41;
        E               9.8;
        type            epsilonWallFunction;
        value           nonuniform List<scalar> 
43
(
0.00536092
0.00337065
0.00332172
0.00362055
0.00388154
0.00354631
0.00295028
0.00234593
0.00183288
0.00142402
0.0011035
0.000855247
0.000670514
0.000544165
0.000468999
0.000435269
0.000425255
0.000428808
0.000442637
0.000464751
0.000493145
0.000525594
0.000559976
0.000594695
0.000629008
0.000663238
0.0006988
0.000737536
0.000781862
0.000834479
0.000897547
0.000973164
0.00106484
0.00118138
0.00134104
0.00157712
0.00193394
0.00244347
0.00308953
0.00260734
0.00454406
0.00511346
0.00118796
)
;
    }
    sWall
    {
        Cmu             0.09;
        kappa           0.41;
        E               9.8;
        type            epsilonWallFunction;
        value           nonuniform List<scalar> 9(0.0130046 0.0106909 0.00807394 0.00612436 0.00617911 0.00454406 0.00741634 0.00650347 0.00536092);
    }
    nWall
    {
        Cmu             0.09;
        kappa           0.41;
        E               9.8;
        type            epsilonWallFunction;
        value           nonuniform List<scalar> 
14
(
0.000322299
0.000549946
0.000904517
0.00318168
0.00321878
0.00302644
0.00270657
0.00251752
0.00299878
0.00332463
0.00351828
0.0031725
0.00302738
0.00260734
)
;
    }
    sideWalls
    {
        type            empty;
    }
    glass1
    {
        Cmu             0.09;
        kappa           0.41;
        E               9.8;
        type            epsilonWallFunction;
        value           nonuniform List<scalar> 9(0.000253107 0.000796953 0.00163051 0.00285327 0.00454553 0.00676279 0.00967071 0.0127572 0.0138265);
    }
    glass2
    {
        Cmu             0.09;
        kappa           0.41;
        E               9.8;
        type            epsilonWallFunction;
        value           nonuniform List<scalar> 2(0.00205818 0.00293221);
    }
    sun
    {
        Cmu             0.09;
        kappa           0.41;
        E               9.8;
        type            epsilonWallFunction;
        value           nonuniform List<scalar> 
14
(
0.000253107
0.000306332
0.000302997
0.000344192
0.000385088
0.000424937
0.00046443
0.000504754
0.000547644
0.000595814
0.000644301
0.000692713
0.000742696
0.000799048
)
;
    }
    Table_master
    {
        Cmu             0.09;
        kappa           0.41;
        E               9.8;
        type            epsilonWallFunction;
        value           nonuniform List<scalar> 9(0.000550949 0.000362245 0.000250509 0.000181195 0.000136208 0.000105866 8.47434e-05 6.97935e-05 5.94406e-05);
    }
    Table_slave
    {
        Cmu             0.09;
        kappa           0.41;
        E               9.8;
        type            epsilonWallFunction;
        value           nonuniform List<scalar> 9(0.000813871 0.000612327 0.000481525 0.000388176 0.000318857 0.000264107 0.000218585 0.000178868 0.000141717);
    }
    inlet
    {
        type            turbulentMixingLengthDissipationRateInlet;
        mixingLength    0.01;
        phi             phi;
        k               k;
        value           uniform 0.000471671;
    }
    outlet
    {
        type            zeroGradient;
    }
}


// ************************************************************************* //
