/*--------------------------------*- C++ -*----------------------------------*\
  =========                 |
  \\      /  F ield         | OpenFOAM: The Open Source CFD Toolbox
   \\    /   O peration     | Website:  https://openfoam.org
    \\  /    A nd           | Version:  6
     \\/     M anipulation  |
\*---------------------------------------------------------------------------*/
FoamFile
{
    version     2.0;
    format      ascii;
    class       volScalarField;
    location    "30099.9999981156689";
    object      k;
}
// * * * * * * * * * * * * * * * * * * * * * * * * * * * * * * * * * * * * * //

dimensions      [0 2 -2 0 0 0 0];

internalField   nonuniform List<scalar> 
778
(
0.00158588
0.00180107
0.00178797
0.00194656
0.00209785
0.00224019
0.00237692
0.00251259
0.00265298
0.00280635
0.00295661
0.00310292
0.00325044
0.00341284
0.00358649
0.000793085
0.00162474
0.00165123
0.00157235
0.00144468
0.00128255
0.00113052
0.000998884
0.000887156
0.000792616
0.000712882
0.000644879
0.000585904
0.000533414
0.000484694
0.000436245
0.000397957
0.000326088
0.00340688
0.00643317
0.00268754
0.00274619
0.00288791
0.00305453
0.00323493
0.00343076
0.00364405
0.00387444
0.00412656
0.0043803
0.00459597
0.00470101
0.00459508
0.00429872
0.00390764
0.00358025
0.0025354
0.00281139
0.00295344
0.00289579
0.00266309
0.00226441
0.00190539
0.0016093
0.00136965
0.00117586
0.00101705
0.000885239
0.000773978
0.000681165
0.000615144
0.000574604
0.000864181
0.000523959
0.00549057
0.0127804
0.00347793
0.00321227
0.00329762
0.00345549
0.00363692
0.00384115
0.00407154
0.00432824
0.00463634
0.00501163
0.00545158
0.0059607
0.00653116
0.0068593
0.00627715
0.00538558
0.00403721
0.00416851
0.00417133
0.00397364
0.00357575
0.00266363
0.00201404
0.001575
0.0012691
0.00104922
0.000886961
0.000764664
0.000671857
0.000603655
0.000551465
0.000548653
0.00116538
0.000677886
0.00797315
0.0217567
0.00449093
0.00339089
0.0033417
0.00343829
0.0035497
0.00366922
0.00380951
0.00399191
0.0042598
0.00464917
0.00517179
0.00582548
0.00655452
0.00713383
0.00722737
0.00724187
0.00534332
0.00555075
0.00537612
0.00512509
0.00478632
0.00434739
0.00345492
0.00285796
0.00243489
0.00210905
0.00184982
0.0016315
0.00143818
0.00125822
0.00107732
0.000800286
0.000659506
0.00142148
0.000821361
0.0108757
0.0336315
0.00621203
0.00342508
0.00315843
0.00316714
0.00318979
0.00321013
0.00325246
0.00336152
0.00359524
0.00398974
0.00455392
0.00527696
0.00608687
0.00681713
0.00728307
0.00764428
0.00751825
0.00665463
0.00607353
0.00557902
0.00509889
0.00462901
0.0041225
0.00366491
0.00327434
0.00293674
0.00263063
0.00234729
0.0020788
0.00181803
0.0015544
0.00122127
0.000929656
0.00118977
0.00121558
0.00116787
0.00204628
0.00186321
0.0141738
0.0475942
0.00928203
0.00348994
0.00290861
0.00282284
0.00276454
0.00269973
0.00266445
0.00273481
0.00298111
0.00341455
0.00402365
0.0047974
0.00565296
0.00645996
0.00706798
0.00740699
0.0073239
0.00679014
0.00621523
0.00563722
0.00507425
0.00455582
0.00409103
0.00369535
0.00336281
0.00307339
0.00280653
0.00255131
0.00229871
0.0020418
0.00177328
0.00147081
0.00117776
0.00111193
0.00111025
0.00172235
0.00513506
0.00266048
0.0179904
0.0606013
0.0143561
0.00381906
0.00271515
0.0025294
0.00241186
0.00229416
0.00222122
0.00231174
0.00263049
0.00313937
0.00380165
0.0046299
0.00552669
0.00636463
0.00699907
0.00732699
0.00725403
0.00681798
0.00621535
0.00555473
0.00491178
0.00434265
0.00387237
0.00350034
0.00320671
0.0029618
0.00274148
0.00252925
0.0023135
0.00208693
0.00184473
0.00158254
0.00132723
0.0011591
0.00109101
0.00156756
0.00633083
0.00370713
0.021639
0.0704782
0.0214306
0.00510044
0.00274239
0.00237166
0.00221009
0.00208198
0.00202644
0.00221971
0.00265006
0.00323093
0.0039364
0.00477256
0.00569602
0.00657016
0.00722076
0.00751203
0.0073833
0.00689572
0.0061978
0.00542652
0.00469113
0.00406419
0.00357427
0.00321242
0.00294772
0.00274116
0.00256459
0.00239633
0.00222245
0.00203538
0.00183179
0.00161289
0.00139779
0.00122846
0.00115144
0.0021337
0.0145487
0.00641399
0.0228319
0.0694973
0.0325274
0.0110489
0.00406385
0.00258646
0.00223521
0.00210297
0.00219011
0.00251293
0.00300107
0.00360211
0.00433123
0.00520954
0.00618051
0.00708256
0.00771294
0.00792015
0.00766279
0.00702428
0.00616412
0.0052474
0.0044066
0.00372179
0.00321626
0.0028687
0.00263558
0.00246921
0.00233669
0.00221196
0.00207994
0.00193346
0.00177029
0.00159341
0.00141746
0.00128191
0.0013168
0.00403557
0.0293477
0.00812
0.0219179
0.0516426
0.033641
0.0174256
0.00858022
0.00475491
0.00325937
0.00272962
0.00285327
0.00321165
0.00367314
0.00424608
0.00499288
0.0059333
0.00696735
0.00788067
0.00843622
0.00848009
0.00800089
0.00712141
0.00603885
0.00495173
0.00400975
0.00328963
0.00279726
0.00248828
0.00230206
0.00218427
0.00209658
0.00201203
0.00191702
0.00180594
0.00167802
0.00153729
0.00139679
0.0013039
0.00161081
0.00791
0.0269853
0.00857455
0.0192343
0.0394441
0.0302383
0.0195615
0.0121767
0.00793409
0.00571409
0.00466763
0.00436158
0.00439972
0.00465218
0.00514315
0.00592963
0.00697218
0.00807835
0.00895542
0.00933732
0.00909289
0.00827006
0.00705668
0.00570704
0.00445587
0.0034592
0.00276729
0.00234751
0.00211437
0.0019898
0.00192303
0.00187362
0.00182014
0.00175258
0.00166733
0.00156535
0.00145332
0.00134948
0.00134905
0.00213794
0.00851832
0.0252479
0.00864237
0.0159511
0.0315911
0.0266522
0.0195372
0.0139731
0.010281
0.00802438
0.00674837
0.00604719
0.00572969
0.00578065
0.00626889
0.00719902
0.00840337
0.00955253
0.0102735
0.0103069
0.00959234
0.00828311
0.00665918
0.00504844
0.0037151
0.0027903
0.00223259
0.00195338
0.00181366
0.00174501
0.00171171
0.0016847
0.00164937
0.0015984
0.00152912
0.00144388
0.00135525
0.00130462
0.00159251
0.00347962
0.00945386
0.0220007
0.008296
0.0132671
0.0256722
0.0233512
0.018689
0.0145821
0.0115862
0.0095413
0.00820778
0.00729861
0.00683855
0.00695388
0.00770905
0.0089604
0.0103432
0.0113885
0.0116986
0.0111085
0.00969733
0.00778418
0.00575361
0.00402225
0.00283165
0.00219262
0.00186091
0.00169674
0.00161528
0.00157509
0.00155422
0.0015339
0.00150429
0.0014599
0.00139906
0.00132728
0.00127086
0.00135443
0.00218155
0.00490509
0.0102248
0.0175418
0.00770103
0.013346
0.0224184
0.0220569
0.0177593
0.0143915
0.0118928
0.0100826
0.00876823
0.00791777
0.00777214
0.00846421
0.00984858
0.0114969
0.012844
0.0133881
0.0128465
0.0112906
0.00899051
0.00651756
0.00430608
0.002961
0.0022245
0.00185517
0.0016672
0.00156663
0.00150917
0.00147444
0.00145073
0.00142588
0.00139327
0.00134949
0.00129507
0.00124016
0.00122713
0.00142833
0.00244791
0.0052604
0.0101721
0.0163313
0.00733542
0.0108734
0.0117637
0.012924
0.0125537
0.0113761
0.0100769
0.00894948
0.0082061
0.00830405
0.00941025
0.0112724
0.0133264
0.0149133
0.0155049
0.0148391
0.0129023
0.0101791
0.00703217
0.00464714
0.00314374
0.00235626
0.00196797
0.00176727
0.00164721
0.00156421
0.00150184
0.00145372
0.00141591
0.00137993
0.00134219
0.0013036
0.0012703
0.00125812
0.00131109
0.00156851
0.00245073
0.00481769
0.00935216
0.0162988
0.0082362
0.0035454
0.00482785
0.00600404
0.00661297
0.00729351
0.00880527
0.0113129
0.0141244
0.01652
0.0179446
0.0180468
0.016751
0.0142574
0.0106524
0.00735904
0.00485911
0.00335401
0.00258585
0.00222364
0.00203559
0.00191337
0.00181501
0.00172689
0.00164705
0.00157893
0.00152806
0.00149377
0.00147973
0.00149525
0.00154998
0.0016528
0.00182783
0.00216326
0.0029136
0.00474269
0.00995546
0.0146875
0.00882894
0.00444566
0.006301
0.00812546
0.0110451
0.0147209
0.0181702
0.0203882
0.0214301
0.021342
0.0201224
0.017599
0.0141484
0.0105103
0.00723486
0.00492041
0.00358409
0.00293768
0.00263978
0.00248413
0.00238173
0.00229994
0.0022262
0.00215656
0.00209323
0.00204416
0.00202205
0.00203753
0.0021049
0.00223672
0.00243883
0.00271334
0.00307609
0.00359342
0.00445076
0.00616929
0.0114925
0.0147195
0.00916892
0.0150728
0.02442
0.0180909
0.0144126
0.0170471
0.0207488
0.0228764
0.0235656
0.0230911
0.021719
0.0196958
0.017058
0.0139052
0.010617
0.00769677
0.0055443
0.00429707
0.00369156
0.0034039
0.00325105
0.00316304
0.00311337
0.00308618
0.00306736
0.00304641
0.00302213
0.00300675
0.0030207
0.00308556
0.00321933
0.00343448
0.0037398
0.0041446
0.00467317
0.0053945
0.00647736
0.00833573
0.0124645
0.0168918
0.00856568
0.0138091
0.0170471
0.01789
0.0207975
0.0217434
0.022166
0.0211691
0.0193532
0.0172293
0.0150497
0.0129177
0.0108854
0.00901088
0.00739906
0.00615362
0.00526779
0.00467054
0.00428746
0.00404993
0.00392403
0.00389309
0.00394187
0.00404982
0.00419063
0.00433618
0.00446361
0.00456369
0.00465206
0.00476796
0.00493799
0.00518352
0.0055264
0.00599553
0.00663847
0.0075424
0.00882609
0.0106445
0.0140142
0.0195566
0.00830251
0.0121403
0.00891002
0.0088236
0.00934518
0.0097891
0.00921712
0.00815315
0.00699791
0.00593641
0.00501712
0.00423278
0.00357131
0.00303633
0.0026416
0.00239227
0.00227621
0.00224119
0.00225374
0.00230203
0.00237812
0.00247399
0.00258124
0.00269245
0.00280243
0.00290902
0.00301346
0.0031201
0.00323428
0.00336256
0.00351174
0.00368649
0.00389071
0.00413156
0.00442841
0.00482035
0.0053728
0.00615759
0.00719785
0.00841658
0.00751249
)
;

boundaryField
{
    floor
    {
        type            kqRWallFunction;
        value           nonuniform List<scalar> 
36
(
0.00358649
0.000793085
0.00162474
0.00165123
0.00157235
0.00144468
0.00128255
0.00113052
0.000998884
0.000887156
0.000792616
0.000712882
0.000644879
0.000585904
0.000533414
0.000484694
0.000436245
0.000397957
0.000326088
0.000326088
0.000523959
0.000677886
0.000821361
0.00116787
0.00204628
0.00186321
0.00358649
0.00429872
0.00390764
0.00358025
0.000793085
0.00358025
0.0025354
0.00538558
0.00403721
0.00534332
)
;
    }
    ceiling
    {
        type            kqRWallFunction;
        value           nonuniform List<scalar> 
43
(
0.0121403
0.00891002
0.0088236
0.00934518
0.0097891
0.00921712
0.00815315
0.00699791
0.00593641
0.00501712
0.00423278
0.00357131
0.00303633
0.0026416
0.00239227
0.00227621
0.00224119
0.00225374
0.00230203
0.00237812
0.00247399
0.00258124
0.00269245
0.00280243
0.00290902
0.00301346
0.0031201
0.00323428
0.00336256
0.00351174
0.00368649
0.00389071
0.00413156
0.00442841
0.00482035
0.0053728
0.00615759
0.00719785
0.00841658
0.00751249
0.0108734
0.0117637
0.00444566
)
;
    }
    sWall
    {
        type            kqRWallFunction;
        value           nonuniform List<scalar> 9(0.0219179 0.0192343 0.0159511 0.0132671 0.013346 0.0108734 0.0150728 0.0138091 0.0121403);
    }
    nWall
    {
        type            kqRWallFunction;
        value           nonuniform List<scalar> 
14
(
0.00186321
0.00266048
0.00370713
0.00857455
0.00864237
0.008296
0.00770103
0.00733542
0.0082362
0.00882894
0.00916892
0.00856568
0.00830251
0.00751249
)
;
    }
    sideWalls
    {
        type            empty;
    }
    glass1
    {
        type            kqRWallFunction;
        value           nonuniform List<scalar> 9(0.00158588 0.00340688 0.00549057 0.00797315 0.0108757 0.0141738 0.0179904 0.021639 0.0228319);
    }
    glass2
    {
        type            kqRWallFunction;
        value           nonuniform List<scalar> 2(0.00641399 0.00812);
    }
    sun
    {
        type            kqRWallFunction;
        value           nonuniform List<scalar> 
14
(
0.00158588
0.00180107
0.00178797
0.00194656
0.00209785
0.00224019
0.00237692
0.00251259
0.00265298
0.00280635
0.00295661
0.00310292
0.00325044
0.00341284
)
;
    }
    Table_master
    {
        type            kqRWallFunction;
        value           nonuniform List<scalar> 9(0.00266363 0.00201404 0.001575 0.0012691 0.00104922 0.000886961 0.000764664 0.000671857 0.000603655);
    }
    Table_slave
    {
        type            kqRWallFunction;
        value           nonuniform List<scalar> 9(0.00345492 0.00285796 0.00243489 0.00210905 0.00184982 0.0016315 0.00143818 0.00125822 0.00107732);
    }
    inlet
    {
        type            turbulentIntensityKineticEnergyInlet;
        intensity       0.05;
        value           uniform 0.0009375;
    }
    outlet
    {
        type            zeroGradient;
    }
}


// ************************************************************************* //
