/*--------------------------------*- C++ -*----------------------------------*\
  =========                 |
  \\      /  F ield         | OpenFOAM: The Open Source CFD Toolbox
   \\    /   O peration     | Website:  https://openfoam.org
    \\  /    A nd           | Version:  6
     \\/     M anipulation  |
\*---------------------------------------------------------------------------*/
FoamFile
{
    version     2.0;
    format      ascii;
    class       surfaceScalarField;
    location    "30099.9999981156689";
    object      phi;
}
// * * * * * * * * * * * * * * * * * * * * * * * * * * * * * * * * * * * * * //

dimensions      [1 0 -1 0 0 0 0];

internalField   nonuniform List<scalar> 
1482
(
-0.00279982
0.00286385
-0.00348416
0.00068435
-0.00414508
0.000660915
-0.00475943
0.000614349
-0.00528107
0.000521641
-0.00569321
0.000412145
-0.00598459
0.000291381
-0.00614212
0.000157526
-0.00614844
6.32164e-06
-0.00597758
-0.000170861
-0.00559961
-0.000377975
-0.00498352
-0.000616085
-0.00405918
-0.000924343
-0.00258028
-0.0014789
-0.00257736
-6.50239e-05
6.98773e-05
0.000777691
-0.000842715
0.00142935
-0.000651657
0.00182791
-0.000398558
0.00204882
-0.000220917
0.00215297
-0.000104143
0.00220036
-4.73878e-05
0.0022232
-2.28448e-05
0.0022329
-9.69708e-06
0.0022337
-7.99264e-07
0.00222656
7.14021e-06
0.00220753
1.9026e-05
0.00216335
4.41856e-05
0.00206086
0.00010249
0.00184479
0.000216067
0.00148851
0.000356283
0.00101895
0.000469554
0.00102539
-0.00204043
0.0050746
-0.00290866
0.00155259
-0.00369471
0.00144696
-0.00434601
0.00126565
-0.00488355
0.00105918
-0.00531258
0.000841176
-0.00563128
0.00061008
-0.00583281
0.000359056
-0.00590647
7.99843e-05
-0.00584444
-0.000232897
-0.00564092
-0.000581492
-0.00528464
-0.000972362
-0.00477445
-0.00143453
-0.00428839
-0.00196496
-0.00470421
-0.00216154
-0.00311744
-0.00158133
-0.00163363
-0.00147812
-0.00161878
0.0013173
-0.00123721
0.00166043
-0.00118585
0.00191068
-0.000901908
0.00210041
-0.000588281
0.00220644
-0.000326948
0.00221504
-0.000112745
0.0022171
-4.94493e-05
0.00221881
-2.45531e-05
0.00221983
-1.07166e-05
0.00221984
-8.14462e-07
0.00221845
8.53145e-06
0.00221422
2.32575e-05
0.00220158
5.68306e-05
0.0021397
0.000164366
0.00189033
0.000465439
0.00146182
0.000784787
0.000900323
0.00103105
0.0019426
-0.00148831
0.00682083
-0.0023593
0.00242358
-0.00312946
0.00221712
-0.00371391
0.0018501
-0.00418482
0.00153009
-0.0045565
0.00121286
-0.00483073
0.000884305
-0.00500423
0.000532557
-0.00507058
0.000146338
-0.00502072
-0.00028276
-0.00484393
-0.000758285
-0.00453283
-0.00128346
-0.00411831
-0.00184906
-0.00372108
-0.00236219
-0.00330101
-0.00258162
-0.00236986
-0.00251247
-0.00127583
-0.00257215
-0.00288178
0.00114865
-0.0023714
0.00165139
-0.00168859
0.00194885
-0.00119937
0.00214029
-0.000779728
0.00216775
-0.000354405
0.00205516
0.00200586
0.00198146
0.0019709
0.00197024
0.00197893
0.00200234
0.00205932
0.00222384
0.00186502
0.000824258
0.00141757
0.00123224
0.000800192
0.00164844
0.00276883
-0.00110611
0.00825815
-0.0019281
0.00324557
-0.0025703
0.00285932
-0.00303082
0.00231062
-0.00339856
0.00189783
-0.00368755
0.00150185
-0.00390077
0.00109752
-0.00403634
0.000668127
-0.00408672
0.000196723
-0.00403873
-0.000330755
-0.0038801
-0.000916909
-0.00360682
-0.00155674
-0.00324157
-0.0022143
-0.00282024
-0.00278352
-0.00228152
-0.00312033
-0.00156255
-0.00323144
-0.000874992
-0.00325971
-0.00069656
-0.00306021
0.00143937
-0.00212049
0.00137271
-0.00230474
0.00168864
-0.00200451
0.00200124
-0.00151197
0.00226759
-0.00104607
0.00254476
-0.000631578
0.00285671
-0.000312111
0.00302278
-0.000166216
0.00308685
-6.42318e-05
0.00306939
1.73134e-05
0.0029791
9.01363e-05
0.00281692
0.000162025
0.00257497
0.000241792
0.00223031
0.000344514
0.00172574
0.00050441
0.00158936
0.000960639
0.00126183
0.00155977
0.000736453
0.00217381
0.0035396
-0.000803802
0.00945515
-0.00158002
0.00402179
-0.00204881
0.00332811
-0.00236468
0.00262649
-0.00260923
0.00214238
-0.00279495
0.00168757
-0.00292683
0.0012294
-0.00300558
0.000746878
-0.00302463
0.000215765
-0.00296732
-0.000388062
-0.00282044
-0.00106378
-0.00257716
-0.00180003
-0.00224413
-0.00254732
-0.00182856
-0.00319909
-0.00132408
-0.00362481
-0.000748334
-0.00380718
-0.000217788
-0.00379025
0.000259293
-0.00353728
0.00112035
-0.00298154
0.00148639
-0.00267078
0.00174554
-0.00226366
0.00199809
-0.00176452
0.00222802
-0.001276
0.00244224
-0.000845796
0.00264258
-0.000512453
0.00275192
-0.000275553
0.00278766
-9.99744e-05
0.00276152
4.34553e-05
0.0026799
0.000171752
0.00254528
0.000296642
0.00235642
0.000430656
0.00211083
0.000590103
0.00181642
0.000798816
0.0016101
0.00116697
0.00146735
0.00170252
0.00128557
0.00235558
0.00226643
0.00255875
0.00131434
0.000987025
0.00189904
-0.000556069
0.00201794
-0.00057585
0.0104774
-0.00132481
0.00477075
-0.00158456
0.00358787
-0.00175064
0.00279257
-0.00186483
0.00225657
-0.00193655
0.00175929
-0.00197224
0.0012651
-0.00197619
0.000750823
-0.0019452
0.000184779
-0.00185749
-0.000475778
-0.00170328
-0.00121799
-0.00147273
-0.00203057
-0.00116881
-0.00285124
-0.000797427
-0.00357048
-0.000378418
-0.00404382
6.13155e-05
-0.00424691
0.000466178
-0.00419512
0.000840358
-0.00391146
0.00129135
-0.00343253
0.00159021
-0.00296965
0.00179363
-0.00246707
0.00196512
-0.00193601
0.00211673
-0.00142761
0.00225103
-0.000980093
0.0023554
-0.000616831
0.00241304
-0.000333187
0.00242376
-0.000110698
0.00239284
7.43751e-05
0.00232509
0.000239502
0.0022243
0.000397434
0.00209444
0.000560518
0.00194238
0.000742165
0.00178224
0.000958949
0.00168974
0.00125947
0.00174319
0.00164907
0.00194807
0.0021507
0.00218294
0.00232388
0.00169654
0.00147343
0.00078187
0.000358603
0.00289744
-0.000543339
0.011513
-0.00124357
0.00547098
-0.00119204
0.00353634
-0.00120062
0.00280115
-0.00119323
0.00224918
-0.00116007
0.00172613
-0.00110328
0.00120831
-0.00102854
0.000676083
-0.000930531
8.67678e-05
-0.000781907
-0.000624402
-0.000593026
-0.00140687
-0.000353416
-0.00227018
-7.02012e-05
-0.00313446
0.000234143
-0.00387482
0.000543742
-0.00435342
0.000838601
-0.00454177
0.00110132
-0.00445783
0.00133456
-0.0041447
0.00156634
-0.00366431
0.00172604
-0.00312934
0.00182596
-0.00256699
0.00189593
-0.00200598
0.00195156
-0.00148324
0.00199797
-0.0010265
0.00202983
-0.000648692
0.0020415
-0.000344857
0.00202968
-9.88755e-05
0.00199517
0.000108879
0.0019411
0.000293576
0.00187122
0.000467314
0.00179064
0.000641096
0.00170767
0.000825139
0.00163686
0.00102976
0.00162057
0.00127576
0.00170208
0.00156756
0.00190146
0.00195132
0.00213971
0.00208563
0.00214973
0.00146342
0.00162514
0.000883197
0.00462547
-0.000483482
0.012532
-0.00105149
0.00603898
-0.000697508
0.00318236
-0.000636939
0.00274058
-0.000568867
0.00218111
-0.000464573
0.00162183
-0.000336017
0.00107975
-0.000185373
0.000525439
3.41798e-06
-0.000102023
0.000221194
-0.000842178
0.000460491
-0.00164617
0.000717797
-0.00252749
0.000974439
-0.00339111
0.00120302
-0.00410341
0.00140233
-0.00455275
0.00156361
-0.00470305
0.00168152
-0.00457575
0.00176087
-0.00422405
0.00181411
-0.00371755
0.00182433
-0.00313956
0.00179972
-0.00254237
0.00175913
-0.00196539
0.00171738
-0.00144149
0.00168187
-0.000990989
0.00165257
-0.000619402
0.00162567
-0.000317956
0.00159646
-6.96605e-05
0.00156282
0.000142517
0.0015251
0.000331298
0.00148469
0.00050772
0.00144477
0.000681021
0.00141142
0.000858479
0.00139516
0.00104602
0.00141821
0.00125271
0.00150566
0.00148011
0.00170095
0.00175603
0.00195458
0.001832
0.0020571
0.0013609
0.00165549
0.00128483
0.00664686
0.00297629
0.0101428
0.00202078
0.00699449
0.00086797
0.00433517
0.000369714
0.00323883
0.00021278
0.00233804
0.000268913
0.0015657
0.000422369
0.000926297
0.000635717
0.000312091
0.000894481
-0.000360787
0.00115867
-0.00110636
0.00143666
-0.00192416
0.00170336
-0.0027942
0.00192941
-0.00361716
0.00209051
-0.00426451
0.00218067
-0.00464291
0.00220249
-0.00472488
0.0021648
-0.00453806
0.00208127
-0.00414052
0.00196716
-0.00360343
0.00182806
-0.00300047
0.00167607
-0.00239037
0.00152793
-0.00181725
0.00139816
-0.00131173
0.00129488
-0.000887708
0.00121934
-0.000543863
0.0011669
-0.000265511
0.00113047
-3.32321e-05
0.00110498
0.000168008
0.00108715
0.000349128
0.00107493
0.000519934
0.00106854
0.000687412
0.0010709
0.000856124
0.00108792
0.001029
0.00113103
0.0012096
0.00121318
0.00139796
0.00136146
0.00160775
0.00153246
0.001661
0.00157337
0.00132
0.000220842
0.00263741
0.00725288
0.00403045
0.00625263
0.00366619
0.00735875
0.00254074
0.00546062
0.00188759
0.00389198
0.00153101
0.00269462
0.00138604
0.00171066
0.00141955
0.000892791
0.00159342
0.000138217
0.00184479
-0.000612156
0.00212119
-0.00138277
0.00240032
-0.00220329
0.00264495
-0.00303884
0.00281347
-0.00378568
0.00287885
-0.00432991
0.00283776
-0.00460183
0.00270396
-0.00459109
0.00249976
-0.00433386
0.00224948
-0.00389025
0.00197591
-0.00332987
0.00169618
-0.00272074
0.0014274
-0.00212159
0.00118724
-0.00157709
0.000990283
-0.00111478
0.000842573
-0.000739998
0.000743103
-0.000444394
0.00068334
-0.000205748
0.000652624
-2.51677e-06
0.000642437
0.000178195
0.000646124
0.000345441
0.000659047
0.00050701
0.000679112
0.000667347
0.000706228
0.000829008
0.000741626
0.000993603
0.00078745
0.00116378
0.00083925
0.00134616
0.000859628
0.00158737
0.000559151
0.00196145
-0.000819978
0.00269912
-0.00215795
0.00397554
0.00519876
0.00240908
0.00400807
0.00330371
0.00646412
0.00324762
0.00551671
0.00303681
0.0041028
0.00284564
0.00288579
0.00272211
0.00183418
0.00270786
0.000907038
0.00279627
4.98072e-05
0.00295747
-0.000773355
0.00316735
-0.00159266
0.0033842
-0.00242013
0.00354805
-0.00320269
0.00360422
-0.00384186
0.00352606
-0.00425175
0.00331895
-0.00439473
0.00300903
-0.00428118
0.00263076
-0.0039556
0.00221761
-0.00347711
0.00179923
-0.00291149
0.00139928
-0.00232079
0.00103918
-0.00176148
0.00073804
-0.00127595
0.000509512
-0.000886248
0.000351629
-0.000582114
0.000256004
-0.000348769
0.000206697
-0.000156441
0.000190688
1.34923e-05
0.000197805
0.000171077
0.000220011
0.000323235
0.000252482
0.000474539
0.000292026
0.000627803
0.000336166
0.000784868
0.000382515
0.000947254
0.000428781
0.00111751
0.000468177
0.00130677
0.000441728
0.0016138
0.000179477
0.00222353
-0.00012975
0.00300797
-0.000299297
0.00414492
0.00501427
0.00145665
0.00274566
0.00274799
0.00517278
0.00343224
0.00483245
0.00371834
0.0038167
0.00381668
0.00278746
0.00384443
0.00180643
0.00387996
0.000871503
0.00394844
-1.8678e-05
0.00405779
-0.000882708
0.00419714
-0.001732
0.00431513
-0.00253812
0.00434121
-0.00322876
0.00422387
-0.00372453
0.00395096
-0.00397885
0.00354496
-0.00398875
0.0030458
-0.00378203
0.00249761
-0.00340741
0.0019393
-0.0029188
0.00140513
-0.00237732
0.00092197
-0.00183763
0.000516377
-0.00135589
0.000205695
-0.000965269
-5.41846e-06
-0.000675135
-0.000133492
-0.000454041
-0.000202578
-0.000279683
-0.000232828
-0.000126192
-0.000235445
1.61087e-05
-0.000217489
0.000153121
-0.00018396
0.000289705
-0.000138766
0.000429345
-8.59571e-05
0.000574994
-3.05318e-05
0.000729443
2.08478e-05
0.000895874
5.99264e-05
0.00107844
6.79421e-05
0.00129876
-4.05179e-05
0.0017222
-0.000295575
0.00247828
-0.000319252
0.00303111
-0.000236618
0.00406184
0.00490499
0.00217026
0.000801358
0.00294311
0.00439992
0.00359444
0.00418112
0.004165
0.00324614
0.00449276
0.0024597
0.00466679
0.0016324
0.0047831
0.000755186
0.00488707
-0.00012265
0.00499252
-0.000988147
0.00506957
-0.00180905
0.00505268
-0.00252122
0.00488175
-0.00305783
0.00453431
-0.00337709
0.00402929
-0.00347383
0.00341187
-0.00337135
0.00273325
-0.00310342
0.0020426
-0.00271677
0.0013784
-0.00225461
0.000779973
-0.00177889
0.000273871
-0.00133153
-0.000104417
-0.000977597
-0.000352492
-0.000717192
-0.0004992
-0.000528425
-0.000580821
-0.000372419
-0.000624899
-0.000235606
-0.000642341
-0.000108751
-0.00063808
1.18466e-05
-0.000614848
0.000129888
-0.000574838
0.000249694
-0.000521184
0.00037569
-0.000459021
0.00051283
-0.000396619
0.00066704
-0.000347654
0.00084691
-0.000337719
0.00106851
-0.000419292
0.00138037
-0.00066582
0.00196882
-0.00113754
0.00294995
-0.00184206
0.00373537
-0.0018662
0.00408565
0.00318045
-0.00157434
0.00262086
0.00112064
0.00170494
0.00335236
0.0019494
0.00435541
0.00224309
0.00485962
0.00195548
0.00517405
0.00131797
0.00540149
0.000527741
0.00557846
-0.000299611
0.00567673
-0.00108639
0.00563413
-0.00176642
0.00539965
-0.00228672
0.00496144
-0.00261961
0.0043473
-0.00276294
0.00361035
-0.00273689
0.00281141
-0.00257241
0.0020014
-0.00229341
0.00123
-0.00194537
0.00052913
-0.00155375
-5.19045e-05
-0.00119786
-0.000472864
-0.000910564
-0.000734639
-0.000715815
-0.000885972
-0.000565852
-0.000974992
-0.0004394
-0.0010264
-0.00032101
-0.00105435
-0.000207659
-0.00106357
-9.95409e-05
-0.00105492
3.19937e-06
-0.00102795
0.000102917
-0.000982552
0.00020429
-0.000920812
0.000313949
-0.00084796
0.000439978
-0.000773612
0.00059269
-0.000714026
0.000787322
-0.000697487
0.00105198
-0.000768759
0.00145174
-0.00093771
0.00213807
-0.00125781
0.00327047
-0.00213947
0.00461737
-0.00249408
0.00444055
0.000842531
0.00288261
0.00457237
0.00487313
0.00164864
0.00536039
0.00175582
0.00559722
0.00171865
0.00582818
0.00108702
0.00601456
0.000341371
0.00608007
-0.000365089
0.00595323
-0.000959494
0.00560025
-0.00141339
0.00503332
-0.00171976
0.00429914
-0.00188542
0.00345592
-0.00191971
0.00256313
-0.00184409
0.00167733
-0.0016866
0.000833369
-0.00144945
7.65519e-05
-0.00118855
-0.000531993
-0.000945198
-0.00095296
-0.000776883
-0.00120894
-0.000654568
-0.00136149
-0.000563244
-0.00145083
-0.000476498
-0.00150543
-0.000384797
-0.00153866
-0.000287793
-0.00155624
-0.000190091
-0.00155938
-9.64091e-05
-0.00154709
-9.10332e-06
-0.00151728
7.30948e-05
-0.00146805
0.000155056
-0.00139945
0.000245356
-0.00131435
0.000354875
-0.00121865
0.000496979
-0.0011209
0.000689551
-0.00103012
0.000961178
-0.000946009
0.00136766
-0.000818532
0.00201085
-0.000527491
0.00297994
-0.000132255
0.00422256
0.000281243
0.00402752
0.00128717
0.00793209
0.0053649
0.00581267
0.00387522
0.00556497
0.00196631
0.0056366
0.00101539
0.00560168
0.000376317
0.00535926
-0.00012262
0.00489654
-0.000496728
0.004253
-0.000769812
0.0034818
-0.000948536
0.00263612
-0.00103973
0.00175753
-0.00104111
0.000884982
-0.000971545
5.68282e-05
-0.000858447
-0.00066279
-0.000729834
-0.00121375
-0.000637581
-0.00158742
-0.00057151
-0.00182687
-0.000537401
-0.00197142
-0.000509984
-0.00206245
-0.000472176
-0.00212315
-0.000415782
-0.00216508
-0.000342869
-0.00219304
-0.000259855
-0.00220888
-0.000174298
-0.00221278
-9.25531e-05
-0.00220371
-1.82091e-05
-0.00217927
4.86432e-05
-0.00213652
0.000112307
-0.00207226
0.000181114
-0.001983
0.000265627
-0.00186414
0.000378103
-0.00170927
0.000534614
-0.00150693
0.000758713
-0.00122608
0.00108667
-0.000786855
0.00157159
-7.86046e-05
0.0022719
0.000844124
0.00330014
0.0013812
0.00349084
0.00283912
0.00409172
0.00151973
0.00449332
0.0034736
0.0037259
0.00273373
0.0032286
0.00151271
0.00288876
0.000716207
0.00252589
0.000240289
0.00207949
-5.03099e-05
0.00153655
-0.000226871
0.000915862
-0.000327853
0.000235394
-0.00035927
-0.000464397
-0.000341323
-0.00112088
-0.000315072
-0.00167848
-0.000300853
-0.00210215
-0.000306152
-0.00239906
-0.000340649
-0.00258806
-0.00038246
-0.00271067
-0.000414719
-0.00279788
-0.000422708
-0.00286751
-0.000402498
-0.00292604
-0.000357236
-0.00297476
-0.000294184
-0.00301292
-0.000221769
-0.00303954
-0.000147777
-0.00305413
-7.8065e-05
-0.00305712
-1.52876e-05
-0.00304757
3.90692e-05
-0.00302119
8.59571e-05
-0.00297159
0.000131582
-0.00288869
0.000182793
-0.00275813
0.000247569
-0.00256154
0.000337959
-0.00227493
0.000471926
-0.00185836
0.000669827
-0.00123788
0.000950793
-0.000317817
0.00135159
0.00094861
0.00203372
0.00166205
0.0027775
0.00467971
-0.00263167
-0.00680422
-0.00742504
-0.00747539
-0.00375432
-0.00215093
-0.00168107
0.00140038
-0.000766878
0.00181956
-0.000564289
0.00131015
-0.000639808
0.000791739
-0.000822947
0.000423428
-0.00106365
0.000190387
-0.00135572
6.51828e-05
-0.00170261
1.90159e-05
-0.00208064
1.87306e-05
-0.00245471
3.27186e-05
-0.00279885
2.90523e-05
-0.00308665
-1.3049e-05
-0.00328778
-0.000104981
-0.00341138
-0.000216972
-0.00349002
-0.000303728
-0.00355456
-0.000350076
-0.00361976
-0.000357419
-0.00368906
-0.000333167
-0.00376054
-0.000285786
-0.00383088
-0.000223943
-0.00389641
-0.00015638
-0.0039529
-9.14689e-05
-0.00399494
-3.61859e-05
-0.00401544
5.11119e-06
-0.00401388
3.74707e-05
-0.00399301
6.51426e-05
-0.00395162
9.03126e-05
-0.00388296
0.000114306
-0.00377371
0.000138468
-0.00360263
0.000166975
-0.0033378
0.000207066
-0.00292496
0.000256811
-0.00226158
0.000287079
-0.0012649
0.000354443
-9.75791e-05
0.000865926
0.000482995
0.00219658
0.00535535
-0.00737791
0.00102729
-0.00814277
-0.00671046
-0.00718925
-0.0031044
-0.00566545
-0.000123386
-0.00457243
0.000726553
-0.0039806
0.00071831
-0.00372077
0.00053188
-0.00365296
0.000355579
-0.00369365
0.000231013
-0.00378703
0.000158492
-0.00389173
0.000123651
-0.00398008
0.00010703
-0.00403788
9.04824e-05
-0.00406884
6.00154e-05
-0.00409105
9.20317e-06
-0.00412127
-7.46743e-05
-0.00417215
-0.000165971
-0.00424577
-0.000229971
-0.00433879
-0.000256946
-0.00444291
-0.000253242
-0.00454781
-0.00022828
-0.00464386
-0.00018984
-0.00472403
-0.000143934
-0.00478466
-9.59766e-05
-0.00482464
-5.17183e-05
-0.00484418
-1.6845e-05
-0.00484319
3.97383e-06
-0.00481799
1.22121e-05
-0.00477223
1.94244e-05
-0.00470673
2.49321e-05
-0.00461735
2.51255e-05
-0.00449348
1.48358e-05
-0.0043167
-9.55891e-06
-0.00406286
-4.6542e-05
-0.00370704
-9.88083e-05
-0.0031942
-0.000225601
-0.00229088
-0.000548775
-0.000618404
-0.000806595
0.000196751
0.00138114
0.00575603
0.00156903
-0.00507685
-0.00811831
-0.00818259
-0.00740205
-0.00663755
-0.00606612
-0.00567569
-0.00541277
-0.00522396
-0.00507054
-0.00493354
-0.00481239
-0.00472083
-0.0046794
-0.00472164
-0.00485537
-0.00505358
-0.00527938
-0.00550212
-0.00570044
-0.0058607
-0.00597528
-0.00604198
-0.00606443
-0.00605201
-0.00601883
-0.00597761
-0.00592955
-0.00587656
-0.00582415
-0.00578301
-0.0057674
-0.0057901
-0.00586658
-0.0060715
-0.00660133
-0.00739057
-0.00599332
)
;

boundaryField
{
    floor
    {
        type            calculated;
        value           nonuniform List<scalar> 
36
(
0
0
0
0
0
0
0
0
0
0
0
0
0
0
0
0
0
0
0
-6.43905e-06
-1.68856e-05
-2.60359e-05
-3.43161e-05
-3.49321e-05
-2.86339e-05
-2.86471e-05
-2.92004e-06
-5.44171e-06
-5.68797e-06
-5.90823e-06
-4.85361e-06
-8.93913e-06
-1.02126e-05
-1.28342e-05
-1.44573e-05
-1.5445e-05
)
;
    }
    ceiling
    {
        type            calculated;
        value           nonuniform List<scalar> 
43
(
-5.78573e-05
-6.45363e-05
-6.28876e-05
-5.90855e-05
-5.39874e-05
-4.62246e-05
-3.9609e-05
-3.4936e-05
-3.20016e-05
-3.04205e-05
-2.98475e-05
-3.00225e-05
-3.06894e-05
-3.15213e-05
-3.21559e-05
-3.23351e-05
-3.21196e-05
-3.16532e-05
-3.10693e-05
-3.0496e-05
-3.00288e-05
-2.97121e-05
-2.95411e-05
-2.94761e-05
-2.94589e-05
-2.94239e-05
-2.93036e-05
-2.90387e-05
-2.85872e-05
-2.79323e-05
-2.70767e-05
-2.60351e-05
-2.48265e-05
-2.34664e-05
-2.19704e-05
-2.03765e-05
-1.87906e-05
-1.74017e-05
-1.63771e-05
-1.66083e-05
1.93413e-05
1.51867e-05
-0.000246549
)
;
    }
    sWall
    {
        type            calculated;
        value           nonuniform List<scalar> 9(-0.000140237 -0.000164519 -0.000194243 -0.000225956 -0.000245159 -0.000281092 -0.000423691 -0.000453551 -0.000483855);
    }
    nWall
    {
        type            calculated;
        value           nonuniform List<scalar> 
14
(
-9.02639e-05
-9.76213e-05
-0.000102886
-0.000103774
-0.000114763
-0.00012737
-0.000141736
-0.000155948
-0.000162847
-0.000170482
-0.000178507
-0.000192818
-0.000204285
-0.000221151
)
;
    }
    sideWalls
    {
        type            empty;
        value           nonuniform 0();
    }
    glass1
    {
        type            calculated;
        value           nonuniform List<scalar> 9(-6.40348e-05 -0.000170323 -0.000257926 -0.000331212 -0.000393198 -0.000446406 -0.00049222 -0.000535502 -0.00058718);
    }
    glass2
    {
        type            calculated;
        value           nonuniform List<scalar> 2(-0.000365914 -0.000385124);
    }
    sun
    {
        type            calculated;
        value           uniform 0;
    }
    Table_master
    {
        type            calculated;
        value           nonuniform List<scalar> 9(-1.53995e-07 -1.54112e-07 -1.54144e-07 -1.54164e-07 -1.54177e-07 -1.54182e-07 -1.5418e-07 -1.54166e-07 -1.54113e-07);
    }
    Table_slave
    {
        type            calculated;
        value           nonuniform List<scalar> 9(1.53663e-07 1.5372e-07 1.5372e-07 1.53736e-07 1.53757e-07 1.53801e-07 1.53869e-07 1.53962e-07 1.5409e-07);
    }
    inlet
    {
        type            calculated;
        value           uniform -0.0116484;
    }
    outlet
    {
        type            calculated;
        value           nonuniform List<scalar> 2(0.00985964 0.0122688);
    }
}


// ************************************************************************* //
