/*--------------------------------*- C++ -*----------------------------------*\
  =========                 |
  \\      /  F ield         | OpenFOAM: The Open Source CFD Toolbox
   \\    /   O peration     | Website:  https://openfoam.org
    \\  /    A nd           | Version:  6
     \\/     M anipulation  |
\*---------------------------------------------------------------------------*/
FoamFile
{
    version     2.0;
    format      ascii;
    class       volVectorField;
    location    "30099.9999981156689";
    object      U;
}
// * * * * * * * * * * * * * * * * * * * * * * * * * * * * * * * * * * * * * //

dimensions      [0 1 -1 0 0 0 0];

internalField   nonuniform List<vector> 
778
(
(0.065596 0.07941 0)
(-0.15518 0.0157701 0)
(-0.164316 0.0146315 0)
(-0.192445 0.0122823 0)
(-0.216894 0.00873161 0)
(-0.236967 0.00474901 0)
(-0.252105 0.000419396 0)
(-0.261882 -0.00436948 0)
(-0.265784 -0.00981579 0)
(-0.262807 -0.0161995 0)
(-0.250997 -0.0242763 0)
(-0.226286 -0.0348978 0)
(-0.186151 -0.0504216 0)
(-0.144212 -0.0751957 0)
(-0.15012 -0.108594 0)
(0.0546159 0.03545 0)
(0.0156873 -0.0268419 0)
(0.0448304 -0.0232366 0)
(0.0691785 -0.0161348 0)
(0.0841901 -0.0103334 0)
(0.0913694 -0.00640902 0)
(0.0941973 -0.00433695 0)
(0.0952342 -0.00331407 0)
(0.0956882 -0.00272613 0)
(0.0958554 -0.00231297 0)
(0.0957265 -0.00194936 0)
(0.0951983 -0.00151068 0)
(0.0939431 -0.000759423 0)
(0.0911045 0.000840554 0)
(0.0849181 0.00405611 0)
(0.0734145 0.0077496 0)
(0.0598204 0.011577 0)
(-0.0080173 0.02994 0)
(0.258392 0.167398 0)
(-0.161237 0.0484022 0)
(-0.141617 0.0459959 0)
(-0.174033 0.0416333 0)
(-0.199409 0.0356874 0)
(-0.220144 0.0291475 0)
(-0.236187 0.0220729 0)
(-0.247449 0.0142372 0)
(-0.253631 0.00529794 0)
(-0.253951 -0.00515912 0)
(-0.247794 -0.0170959 0)
(-0.234084 -0.0308679 0)
(-0.214173 -0.0480954 0)
(-0.197598 -0.0699818 0)
(-0.194083 -0.0826717 0)
(-0.166455 -0.0426003 0)
(-0.105368 -0.0364302 0)
(-0.0983444 -0.0445152 0)
(0.109327 -0.0419819 0)
(0.0644234 -0.0410678 0)
(0.071804 -0.0321809 0)
(0.0857236 -0.0206346 0)
(0.0935638 -0.0103974 0)
(0.0957635 -0.00362202 0)
(0.0955186 -0.000198148 0)
(0.0951351 0.00124949 0)
(0.0951018 0.00190176 0)
(0.0951834 0.00227636 0)
(0.0951899 0.00259552 0)
(0.0950888 0.00313279 0)
(0.0947974 0.00440766 0)
(0.0935418 0.00771365 0)
(0.0879521 0.0167272 0)
(0.0742195 0.0252721 0)
(0.062951 0.0328391 0)
(-0.0521516 0.0634385 0)
(0.429969 0.253962 0)
(-0.194233 0.0847762 0)
(-0.112792 0.0784574 0)
(-0.148268 0.0669854 0)
(-0.170711 0.0555319 0)
(-0.188818 0.0437579 0)
(-0.202667 0.0313698 0)
(-0.212368 0.0180246 0)
(-0.217726 0.00340482 0)
(-0.218087 -0.0126381 0)
(-0.212829 -0.0303404 0)
(-0.201722 -0.0499313 0)
(-0.186082 -0.0715938 0)
(-0.169553 -0.0932379 0)
(-0.151191 -0.104593 0)
(-0.120353 -0.0931811 0)
(-0.0796552 -0.0949997 0)
(-0.0715942 -0.107659 0)
(0.0920449 -0.0880383 0)
(0.0624853 -0.0656157 0)
(0.0742539 -0.0459861 0)
(0.0878423 -0.0290993 0)
(0.0946126 -0.0147466 0)
(0.0916507 -0.0119607 0)
(0.0874278 -0.00795455 0)
(0.0850635 -0.00579921 0)
(0.084365 -0.004571 0)
(0.0843411 -0.00380094 0)
(0.0846014 -0.00322458 0)
(0.085257 -0.00259793 0)
(0.0870171 -0.0014417 0)
(0.091693 0.00291187 0)
(0.0898347 0.0250728 0)
(0.0730296 0.042261 0)
(0.0698597 0.0572624 0)
(-0.0903561 0.100623 0)
(0.578535 0.325851 0)
(-0.240101 0.121833 0)
(-0.080847 0.109256 0)
(-0.121597 0.0898938 0)
(-0.139041 0.0741129 0)
(-0.153113 0.0586785 0)
(-0.163884 0.0427895 0)
(-0.171489 0.0258345 0)
(-0.175706 0.00720809 0)
(-0.175775 -0.0135366 0)
(-0.171086 -0.0364864 0)
(-0.161519 -0.0614745 0)
(-0.147659 -0.0873848 0)
(-0.130697 -0.110304 0)
(-0.109759 -0.123205 0)
(-0.0823022 -0.124557 0)
(-0.0527155 -0.126405 0)
(-0.0336078 -0.123197 0)
(0.0160372 -0.0567978 0)
(0.0606012 -0.0929502 0)
(0.0682954 -0.0790522 0)
(0.0789376 -0.0586676 0)
(0.0914387 -0.0394106 0)
(0.102798 -0.0207383 0)
(0.115537 -0.013108 0)
(0.126624 -0.00877111 0)
(0.132166 -0.00558447 0)
(0.133113 -0.00308841 0)
(0.130564 -0.000869261 0)
(0.125082 0.00129842 0)
(0.11654 0.00367886 0)
(0.104169 0.00673242 0)
(0.0849064 0.0111577 0)
(0.0710462 0.036814 0)
(0.0597491 0.0604486 0)
(0.0759203 0.0830762 0)
(-0.118371 0.136583 0)
(0.705717 0.383694 0)
(-0.287676 0.157033 0)
(-0.0477083 0.133824 0)
(-0.0963149 0.10697 0)
(-0.107774 0.0876527 0)
(-0.116819 0.0692315 0)
(-0.12362 0.0504995 0)
(-0.128291 0.0306263 0)
(-0.130658 0.00874315 0)
(-0.129855 -0.0158214 0)
(-0.125355 -0.0430918 0)
(-0.116732 -0.0726961 0)
(-0.104018 -0.102819 0)
(-0.0875637 -0.129058 0)
(-0.0676323 -0.145751 0)
(-0.0443135 -0.152242 0)
(-0.0204705 -0.15237 0)
(4.39295e-05 -0.143737 0)
(0.0305759 -0.114976 0)
(0.0567588 -0.109295 0)
(0.0703607 -0.0923263 0)
(0.0805203 -0.0711184 0)
(0.0905924 -0.0506423 0)
(0.100154 -0.0326022 0)
(0.109243 -0.0192698 0)
(0.116224 -0.00992261 0)
(0.119602 -0.00324537 0)
(0.119758 0.00199196 0)
(0.117314 0.00652162 0)
(0.112638 0.010859 0)
(0.105757 0.0155175 0)
(0.0965994 0.0212003 0)
(0.0846552 0.0292047 0)
(0.0730649 0.0472121 0)
(0.0624838 0.0712101 0)
(0.0939818 0.0991727 0)
(0.0156979 0.137767 0)
(0.0949723 0.182989 0)
(0.141222 0.145542 0)
(-0.222902 0.203133 0)
(0.810432 0.431989 0)
(-0.331317 0.190706 0)
(-0.0173228 0.150301 0)
(-0.0733913 0.117584 0)
(-0.0786237 0.0955833 0)
(-0.0822581 0.0750183 0)
(-0.0845259 0.0544093 0)
(-0.0855758 0.0327715 0)
(-0.0853305 0.0088914 0)
(-0.0826621 -0.0184024 0)
(-0.0774964 -0.0490301 0)
(-0.0688704 -0.082498 0)
(-0.0568797 -0.116474 0)
(-0.0418343 -0.146245 0)
(-0.0248487 -0.165937 0)
(-0.00647569 -0.174452 0)
(0.0119099 -0.172728 0)
(0.0278127 -0.160997 0)
(0.0459742 -0.139303 0)
(0.0624283 -0.122297 0)
(0.0731088 -0.102405 0)
(0.0807963 -0.0803126 0)
(0.0875543 -0.058939 0)
(0.0937245 -0.0400525 0)
(0.09903 -0.0248931 0)
(0.102679 -0.0135608 0)
(0.104239 -0.00489524 0)
(0.103768 0.00226762 0)
(0.101583 0.008704 0)
(0.0979315 0.0149359 0)
(0.09297 0.0214967 0)
(0.086923 0.0290283 0)
(0.0800358 0.0384536 0)
(0.0742217 0.0529244 0)
(0.0688155 0.072965 0)
(0.0906547 0.0986486 0)
(0.0720058 0.107151 0)
(0.0883703 0.0472684 0)
(0.146177 -0.0381337 0)
(-0.330854 0.106862 0)
(0.879926 0.4747 0)
(-0.368642 0.220992 0)
(0.00372588 0.155623 0)
(-0.0526849 0.121647 0)
(-0.052239 0.0979382 0)
(-0.051074 0.0759105 0)
(-0.049086 0.0541266 0)
(-0.0465845 0.0316018 0)
(-0.0434129 0.00681786 0)
(-0.0374637 -0.0222766 0)
(-0.0303954 -0.0553605 0)
(-0.020617 -0.0919217 0)
(-0.00881331 -0.128845 0)
(0.00439346 -0.161156 0)
(0.0174689 -0.181809 0)
(0.0302629 -0.190159 0)
(0.042073 -0.187193 0)
(0.0523738 -0.174394 0)
(0.0623386 -0.154033 0)
(0.0709123 -0.132353 0)
(0.0764364 -0.109292 0)
(0.079893 -0.085742 0)
(0.0824781 -0.0635214 0)
(0.0846891 -0.0439947 0)
(0.0864816 -0.0278919 0)
(0.0875238 -0.0151145 0)
(0.0876025 -0.00487984 0)
(0.0865731 0.00373463 0)
(0.0846381 0.0114135 0)
(0.0819459 0.0186864 0)
(0.0786745 0.0260655 0)
(0.0750991 0.0340721 0)
(0.0716045 0.0432899 0)
(0.069523 0.0550434 0)
(0.0681393 0.0697317 0)
(0.0807596 0.0890159 0)
(0.0830131 0.0922687 0)
(0.0874119 0.0539127 0)
(0.180919 0.0230831 0)
(-0.283955 0.153569 0)
(0.927994 0.517152 0)
(-0.383179 0.234208 0)
(0.0169201 0.133064 0)
(-0.0273483 0.116752 0)
(-0.0265806 0.0950243 0)
(-0.0227908 0.0725341 0)
(-0.0176996 0.0502036 0)
(-0.0124439 0.0273341 0)
(-0.00552108 0.00193639 0)
(0.00446155 -0.030711 0)
(0.0141669 -0.0653122 0)
(0.0254574 -0.103304 0)
(0.0370974 -0.140798 0)
(0.0477821 -0.172054 0)
(0.056888 -0.192248 0)
(0.0643898 -0.199749 0)
(0.0701164 -0.195349 0)
(0.0740706 -0.181165 0)
(0.0767671 -0.160073 0)
(0.0781237 -0.136049 0)
(0.0777578 -0.110987 0)
(0.0762411 -0.0864027 0)
(0.0743981 -0.0637811 0)
(0.0727488 -0.0441358 0)
(0.0714291 -0.0278556 0)
(0.0703077 -0.0146625 0)
(0.0691992 -0.00385895 0)
(0.0678165 0.00533513 0)
(0.0662928 0.0135033 0)
(0.0646054 0.0211409 0)
(0.0628441 0.0286909 0)
(0.0612014 0.0365354 0)
(0.0599737 0.045014 0)
(0.0599919 0.0546749 0)
(0.0609835 0.0655853 0)
(0.0693145 0.0793934 0)
(0.0776581 0.0832038 0)
(0.0746974 0.0615594 0)
(0.239371 0.0490843 0)
(-0.559172 0.229135 0)
(1.01134 0.506825 0)
(-0.137377 0.296357 0)
(0.0410804 0.161564 0)
(0.0405568 0.122169 0)
(0.0130411 0.0920751 0)
(0.00861823 0.065475 0)
(0.0140249 0.0414972 0)
(0.0206295 0.017071 0)
(0.0324177 -0.010957 0)
(0.0438664 -0.0421127 0)
(0.0557213 -0.0768884 0)
(0.0679887 -0.114608 0)
(0.0791262 -0.151046 0)
(0.0876364 -0.180489 0)
(0.0928699 -0.198514 0)
(0.0949323 -0.203696 0)
(0.0942301 -0.19707 0)
(0.0913115 -0.181043 0)
(0.0868551 -0.158646 0)
(0.0813131 -0.13319 0)
(0.0749771 -0.107105 0)
(0.0684408 -0.0822243 0)
(0.0624198 -0.0599182 0)
(0.0574263 -0.0409278 0)
(0.0536478 -0.0253564 0)
(0.0509869 -0.0127195 0)
(0.0491862 -0.00224704 0)
(0.0478492 0.00675475 0)
(0.0469771 0.0147885 0)
(0.0463498 0.022306 0)
(0.0459339 0.0296612 0)
(0.0458002 0.037107 0)
(0.0461065 0.0448189 0)
(0.0473056 0.0530117 0)
(0.0492939 0.0616409 0)
(0.0549251 0.0716157 0)
(0.0617568 0.0739308 0)
(0.0485665 0.0501699 0)
(0.293877 0.0707287 0)
(-0.792653 0.298397 0)
(0.779367 0.395762 0)
(0.000680169 0.319512 0)
(0.093349 0.218935 0)
(0.110557 0.155214 0)
(0.0771164 0.106888 0)
(0.0597422 0.0676292 0)
(0.0581554 0.0358519 0)
(0.0623079 0.0064966 0)
(0.0737156 -0.0233691 0)
(0.0852704 -0.0550024 0)
(0.0974501 -0.0897321 0)
(0.109304 -0.12624 0)
(0.118676 -0.160006 0)
(0.123788 -0.185707 0)
(0.124034 -0.19978 0)
(0.119835 -0.201389 0)
(0.112139 -0.191888 0)
(0.10202 -0.173814 0)
(0.0905198 -0.150183 0)
(0.0784812 -0.124021 0)
(0.0665924 -0.0978586 0)
(0.0555779 -0.0736192 0)
(0.0461554 -0.0525709 0)
(0.0387842 -0.0351737 0)
(0.0335603 -0.0212413 0)
(0.0302551 -0.0100165 0)
(0.028422 -0.000597274 0)
(0.027602 0.0076397 0)
(0.0275506 0.0151403 0)
(0.0279412 0.0222852 0)
(0.0286547 0.029317 0)
(0.0296537 0.0363764 0)
(0.0309483 0.0435395 0)
(0.0326644 0.050899 0)
(0.0344746 0.0585355 0)
(0.0366902 0.0675441 0)
(0.0282205 0.074428 0)
(0.0171901 0.08805 0)
(0.124263 0.159584 0)
(-0.664129 0.291819 0)
(0.617303 0.220929 0)
(0.00455438 0.298151 0)
(0.11301 0.241562 0)
(0.148276 0.177579 0)
(0.130833 0.123552 0)
(0.117807 0.0778962 0)
(0.114934 0.0389651 0)
(0.117084 0.00347503 0)
(0.123428 -0.0306455 0)
(0.131635 -0.0649536 0)
(0.141306 -0.100465 0)
(0.150173 -0.135345 0)
(0.155299 -0.165216 0)
(0.154755 -0.185752 0)
(0.148222 -0.194652 0)
(0.136594 -0.191937 0)
(0.121339 -0.179347 0)
(0.103964 -0.159442 0)
(0.0858428 -0.135117 0)
(0.0680853 -0.10915 0)
(0.051637 -0.0840086 0)
(0.0373576 -0.0615593 0)
(0.0259797 -0.0429174 0)
(0.0177635 -0.0281506 0)
(0.012493 -0.0167046 0)
(0.0095486 -0.00746555 0)
(0.00820958 0.000512029 0)
(0.00816524 0.00773806 0)
(0.00886327 0.0145765 0)
(0.0100714 0.0212839 0)
(0.0116426 0.0279988 0)
(0.0134608 0.0347922 0)
(0.0154097 0.0416991 0)
(0.0174387 0.0487946 0)
(0.0194888 0.0563976 0)
(0.0212695 0.066793 0)
(0.00505648 0.0860316 0)
(-0.0049323 0.120239 0)
(0.186557 0.174089 0)
(-0.567709 0.227802 0)
(0.57077 0.118591 0)
(-0.0203547 0.258663 0)
(0.113732 0.229899 0)
(0.165075 0.176083 0)
(0.166731 0.126232 0)
(0.164381 0.0811719 0)
(0.16535 0.0400632 0)
(0.168233 0.00172648 0)
(0.172178 -0.0352997 0)
(0.177734 -0.0718362 0)
(0.183888 -0.107519 0)
(0.187565 -0.139579 0)
(0.185749 -0.164143 0)
(0.177062 -0.178401 0)
(0.161947 -0.181563 0)
(0.141942 -0.174519 0)
(0.118991 -0.159303 0)
(0.0948576 -0.13834 0)
(0.0711442 -0.114333 0)
(0.0490878 -0.0897646 0)
(0.0298583 -0.0670014 0)
(0.014422 -0.0477723 0)
(0.00336281 -0.0328611 0)
(-0.00376441 -0.0214838 0)
(-0.00766376 -0.0129628 0)
(-0.00964613 -0.00573395 0)
(-0.0103051 0.000849506 0)
(-0.0098727 0.00710773 0)
(-0.0087263 0.0132794 0)
(-0.0070022 0.019515 0)
(-0.00485456 0.0259156 0)
(-0.00247382 0.0325576 0)
(-0.000122724 0.0395163 0)
(0.0019589 0.0468709 0)
(0.00392999 0.0550271 0)
(0.00297191 0.0695469 0)
(-0.0198375 0.100325 0)
(-0.0203905 0.13082 0)
(0.164851 0.17934 0)
(-0.531175 0.209245 0)
(0.628361 0.0538294 0)
(0.00922057 0.197336 0)
(0.113867 0.196958 0)
(0.175181 0.157963 0)
(0.191426 0.117749 0)
(0.198066 0.0773631 0)
(0.203373 0.0373849 0)
(0.208548 -0.00138906 0)
(0.213025 -0.03955 0)
(0.217316 -0.0764354 0)
(0.219119 -0.109869 0)
(0.215267 -0.136688 0)
(0.203871 -0.154291 0)
(0.185015 -0.161691 0)
(0.160315 -0.159454 0)
(0.131941 -0.148988 0)
(0.10216 -0.132374 0)
(0.0727004 -0.111692 0)
(0.0453656 -0.0894529 0)
(0.02136 -0.0678251 0)
(0.00224815 -0.04911 0)
(-0.0111606 -0.0347936 0)
(-0.0190666 -0.0248881 0)
(-0.0236622 -0.0172299 0)
(-0.0261707 -0.0107679 0)
(-0.0274112 -0.00487031 0)
(-0.0276642 0.00071007 0)
(-0.0270348 0.00615791 0)
(-0.025659 0.0116592 0)
(-0.0236151 0.0173697 0)
(-0.0210679 0.0234461 0)
(-0.0182977 0.0300606 0)
(-0.0158014 0.0374387 0)
(-0.0142333 0.0459724 0)
(-0.0141699 0.0573159 0)
(-0.0216239 0.0801302 0)
(-0.0491777 0.11816 0)
(-0.0444233 0.147534 0)
(0.0266688 0.179989 0)
(-0.534359 0.182838 0)
(0.472972 0.0748365 0)
(-0.132105 0.137579 0)
(0.0943071 0.13329 0)
(0.172804 0.116826 0)
(0.203903 0.0954106 0)
(0.218167 0.0644993 0)
(0.228117 0.0285195 0)
(0.237154 -0.00882107 0)
(0.243515 -0.0451844 0)
(0.245012 -0.0781499 0)
(0.239018 -0.105034 0)
(0.224167 -0.123769 0)
(0.200973 -0.133502 0)
(0.171341 -0.134693 0)
(0.137865 -0.128613 0)
(0.102854 -0.116544 0)
(0.0686793 -0.100373 0)
(0.0365607 -0.0817026 0)
(0.00896975 -0.0630446 0)
(-0.0133917 -0.046273 0)
(-0.0272474 -0.0348128 0)
(-0.0356463 -0.0266354 0)
(-0.0404341 -0.0202563 0)
(-0.0432347 -0.0146111 0)
(-0.0448345 -0.00936879 0)
(-0.0456008 -0.00439037 0)
(-0.0455933 0.000373539 0)
(-0.0448395 0.00504126 0)
(-0.0432915 0.00980362 0)
(-0.040968 0.0148958 0)
(-0.038017 0.0205942 0)
(-0.0347469 0.0272398 0)
(-0.0317798 0.0353373 0)
(-0.0300653 0.0458885 0)
(-0.0298133 0.0617424 0)
(-0.0338471 0.0907556 0)
(-0.0547869 0.137227 0)
(-0.0456228 0.177794 0)
(-0.0189762 0.170189 0)
(-0.56209 0.075529 0)
(0.724199 0.134491 0)
(0.0818445 0.115273 0)
(0.149797 0.0992058 0)
(0.222458 0.0804941 0)
(0.244114 0.0699946 0)
(0.248891 0.0477969 0)
(0.255157 0.0177182 0)
(0.261258 -0.014535 0)
(0.260282 -0.044574 0)
(0.249791 -0.0694305 0)
(0.229526 -0.0873753 0)
(0.201042 -0.097934 0)
(0.166702 -0.101412 0)
(0.129053 -0.0988354 0)
(0.0906376 -0.0915082 0)
(0.0529351 -0.0801267 0)
(0.0188187 -0.0664033 0)
(-0.0121472 -0.0514819 0)
(-0.0336932 -0.0400282 0)
(-0.0478079 -0.0319492 0)
(-0.056053 -0.0264196 0)
(-0.0608738 -0.0218216 0)
(-0.0637411 -0.0174243 0)
(-0.0655083 -0.0129537 0)
(-0.0665425 -0.00850271 0)
(-0.0669698 -0.00421262 0)
(-0.0667585 -0.000151563 0)
(-0.0658747 0.00375425 0)
(-0.0642187 0.00771134 0)
(-0.0616944 0.0120492 0)
(-0.0583742 0.0171773 0)
(-0.054443 0.0236161 0)
(-0.0503039 0.0321318 0)
(-0.0465264 0.0440728 0)
(-0.0421651 0.062149 0)
(-0.0344925 0.0917951 0)
(-0.0328809 0.139186 0)
(-0.0224629 0.197224 0)
(0.116273 0.188852 0)
(-0.458372 0.0387618 0)
(0.191854 0.0879703 0)
(0.225714 0.0997505 0)
(0.246505 0.0702229 0)
(0.242571 0.0400151 0)
(0.239754 0.0123952 0)
(0.234809 -0.0126229 0)
(0.220143 -0.0331279 0)
(0.196454 -0.0482762 0)
(0.166038 -0.0580324 0)
(0.131327 -0.0628655 0)
(0.0941051 -0.063088 0)
(0.0563714 -0.0594953 0)
(0.0201755 -0.0530565 0)
(-0.0151225 -0.0440312 0)
(-0.0419822 -0.0358929 0)
(-0.0617954 -0.0296538 0)
(-0.0745546 -0.0259622 0)
(-0.0823518 -0.0235064 0)
(-0.0870716 -0.0212898 0)
(-0.090138 -0.0185558 0)
(-0.0922374 -0.0152386 0)
(-0.0936771 -0.011544 0)
(-0.0945797 -0.00776046 0)
(-0.0949808 -0.00412073 0)
(-0.0948548 -0.000731347 0)
(-0.0941337 0.00245731 0)
(-0.0927645 0.00560517 0)
(-0.0905336 0.00907086 0)
(-0.0873219 0.013349 0)
(-0.0829452 0.0190412 0)
(-0.0772067 0.0269307 0)
(-0.0698779 0.0381861 0)
(-0.0595873 0.0547462 0)
(-0.0424322 0.0796471 0)
(-0.0204365 0.116661 0)
(-0.00131238 0.170796 0)
(0.167897 0.168504 0)
(-0.374196 0.0951321 0)
(0.450941 0.209687 0)
(0.205933 0.178707 0)
(0.152456 0.118771 0)
(0.139506 0.0640776 0)
(0.128304 0.0259737 0)
(0.114343 0.001903 0)
(0.0990712 -0.0127824 0)
(0.0779843 -0.0217968 0)
(0.0530789 -0.0272107 0)
(0.0255124 -0.0294372 0)
(-0.00501637 -0.0284044 0)
(-0.0347192 -0.0252895 0)
(-0.0609953 -0.0217133 0)
(-0.0826038 -0.0191092 0)
(-0.097996 -0.0185744 0)
(-0.108086 -0.0192364 0)
(-0.114375 -0.0201954 0)
(-0.118613 -0.0202528 0)
(-0.121846 -0.0190023 0)
(-0.124539 -0.016498 0)
(-0.126814 -0.0130624 0)
(-0.128659 -0.00911894 0)
(-0.130029 -0.00512317 0)
(-0.130891 -0.00149129 0)
(-0.131248 0.00149638 0)
(-0.131114 0.00377492 0)
(-0.130415 0.00572003 0)
(-0.128912 0.00774104 0)
(-0.12624 0.0102557 0)
(-0.121839 0.0137274 0)
(-0.115012 0.0187721 0)
(-0.104984 0.0262874 0)
(-0.0903218 0.0374776 0)
(-0.0679995 0.0536961 0)
(-0.0361016 0.0767175 0)
(-0.000243499 0.114448 0)
(0.186093 0.132187 0)
(-0.360392 0.154756 0)
(0.358481 -0.416905 0)
(-0.34608 -0.512482 0)
(-0.218221 -0.0272848 0)
(-0.0933901 0.110964 0)
(-0.0538651 0.0925766 0)
(-0.0314249 0.0546144 0)
(-0.0265067 0.0284947 0)
(-0.0314257 0.0118381 0)
(-0.0402888 0.00117602 0)
(-0.050978 -0.0056355 0)
(-0.064932 -0.00959408 0)
(-0.0807996 -0.0115765 0)
(-0.0973998 -0.0129205 0)
(-0.11322 -0.0151026 0)
(-0.127024 -0.0183014 0)
(-0.137723 -0.0215577 0)
(-0.14455 -0.024554 0)
(-0.148592 -0.026728 0)
(-0.151442 -0.0279944 0)
(-0.154138 -0.0283596 0)
(-0.157014 -0.0279257 0)
(-0.16005 -0.0268403 0)
(-0.163106 -0.0252789 0)
(-0.166033 -0.0233812 0)
(-0.168672 -0.0211866 0)
(-0.170806 -0.0186146 0)
(-0.172178 -0.0155424 0)
(-0.172555 -0.012049 0)
(-0.172073 -0.00871644 0)
(-0.170822 -0.00547583 0)
(-0.1686 -0.00215881 0)
(-0.164934 0.00144799 0)
(-0.159087 0.00576354 0)
(-0.150134 0.0115275 0)
(-0.136562 0.0194359 0)
(-0.115077 0.0294694 0)
(-0.080279 0.0421629 0)
(-0.0289133 0.0654002 0)
(0.164282 0.113422 0)
(-0.494399 0.219762 0)
(0.122151 -0.186298 0)
(-0.388585 -0.298052 0)
(-0.343496 -0.0963803 0)
(-0.265187 0.0515152 0)
(-0.211486 0.0833915 0)
(-0.179345 0.0744502 0)
(-0.163053 0.0610498 0)
(-0.157017 0.0512428 0)
(-0.157024 0.0463067 0)
(-0.160238 0.0459966 0)
(-0.164773 0.0494283 0)
(-0.169084 0.0553531 0)
(-0.172313 0.0623796 0)
(-0.174277 0.0686789 0)
(-0.175398 0.0718346 0)
(-0.176353 0.0687319 0)
(-0.177993 0.0619809 0)
(-0.180652 0.0558359 0)
(-0.184308 0.0519141 0)
(-0.188654 0.0503183 0)
(-0.193248 0.0506276 0)
(-0.197638 0.0523096 0)
(-0.201454 0.0547784 0)
(-0.204468 0.0573591 0)
(-0.206599 0.0592831 0)
(-0.207873 0.0597908 0)
(-0.208284 0.0583843 0)
(-0.207682 0.0555409 0)
(-0.206156 0.0524535 0)
(-0.203824 0.0491558 0)
(-0.200607 0.0455509 0)
(-0.196097 0.0415309 0)
(-0.189607 0.0369756 0)
(-0.180622 0.0315171 0)
(-0.168893 0.0238552 0)
(-0.15262 0.0101265 0)
(-0.123622 -0.0117306 0)
(-0.0622306 -0.0229249 0)
(0.186651 0.0555906 0)
(-0.590586 0.249106 0)
(1.14912 -0.0109518 0)
(-0.297716 -0.323165 0)
(-0.353397 -0.232588 0)
(-0.353151 -0.148292 0)
(-0.329511 -0.107116 0)
(-0.298027 -0.0986319 0)
(-0.270903 -0.100821 0)
(-0.251152 -0.10639 0)
(-0.237686 -0.113668 0)
(-0.228319 -0.122569 0)
(-0.221115 -0.133515 0)
(-0.214861 -0.146879 0)
(-0.20916 -0.162265 0)
(-0.204302 -0.177914 0)
(-0.201165 -0.190524 0)
(-0.201089 -0.196337 0)
(-0.205072 -0.196276 0)
(-0.212542 -0.192833 0)
(-0.221969 -0.187483 0)
(-0.231859 -0.181397 0)
(-0.241087 -0.175398 0)
(-0.248904 -0.169932 0)
(-0.254852 -0.165089 0)
(-0.258713 -0.16068 0)
(-0.260515 -0.15636 0)
(-0.260579 -0.151753 0)
(-0.259476 -0.146597 0)
(-0.257821 -0.141052 0)
(-0.255896 -0.135272 0)
(-0.253729 -0.129119 0)
(-0.251435 -0.1227 0)
(-0.249175 -0.116267 0)
(-0.247371 -0.109898 0)
(-0.247521 -0.10302 0)
(-0.252639 -0.0944722 0)
(-0.262679 -0.0818761 0)
(-0.265292 -0.0587499 0)
(-0.247698 -0.00990633 0)
(-0.264151 0.0768845 0)
(-0.677437 0.188759 0)
)
;

boundaryField
{
    floor
    {
        type            noSlip;
    }
    ceiling
    {
        type            noSlip;
    }
    sWall
    {
        type            noSlip;
    }
    nWall
    {
        type            noSlip;
    }
    sideWalls
    {
        type            empty;
    }
    glass1
    {
        type            noSlip;
    }
    glass2
    {
        type            noSlip;
    }
    sun
    {
        type            noSlip;
    }
    Table_master
    {
        type            noSlip;
    }
    Table_slave
    {
        type            noSlip;
    }
    inlet
    {
        type            fixedValue;
        value           uniform (0.5 0 0);
    }
    outlet
    {
        type            zeroGradient;
    }
}


// ************************************************************************* //
