/*--------------------------------*- C++ -*----------------------------------*\
  =========                 |
  \\      /  F ield         | OpenFOAM: The Open Source CFD Toolbox
   \\    /   O peration     | Website:  https://openfoam.org
    \\  /    A nd           | Version:  6
     \\/     M anipulation  |
\*---------------------------------------------------------------------------*/
FoamFile
{
    version     2.0;
    format      ascii;
    class       volScalarField;
    location    "5700";
    object      k;
}
// * * * * * * * * * * * * * * * * * * * * * * * * * * * * * * * * * * * * * //

dimensions      [0 2 -2 0 0 0 0];

internalField   nonuniform List<scalar> 
778
(
0.00139625
0.00156507
0.00301292
0.00155974
0.0055806
0.0048939
0.00169254
0.00216929
0.0112078
0.00719687
0.0018156
0.00220468
0.00275013
0.0195528
0.00996279
0.00192858
0.00228469
0.00255074
0.00355369
0.0310693
0.0131722
0.00203444
0.0023851
0.00259209
0.00268718
0.00502157
0.0450408
0.0169436
0.00213685
0.00249801
0.00269412
0.00263377
0.00270384
0.00781526
0.058353
0.0207239
0.0022401
0.00262576
0.00281478
0.00269707
0.00248787
0.00274582
0.0127106
0.0685513
0.0220517
0.00234974
0.00277113
0.00295119
0.00276515
0.00248977
0.00228713
0.00301512
0.0198706
0.0688449
0.0213646
0.00246282
0.00293581
0.00310313
0.00283042
0.00249089
0.00222239
0.00212999
0.00414929
0.031309
0.051393
0.0189519
0.0025782
0.003122
0.00326932
0.00289962
0.00247912
0.00216472
0.0019934
0.00214326
0.00983185
0.0329739
0.0392917
0.0158485
0.00270284
0.00332062
0.00345964
0.00298873
0.00247088
0.00209053
0.00189479
0.00186701
0.00329073
0.0165052
0.029838
0.0313931
0.0132082
0.00284976
0.00351264
0.00370258
0.00312529
0.00249916
0.0020253
0.00178475
0.00173902
0.00204361
0.00775215
0.0189664
0.0263586
0.0253668
0.0132001
0.0030183
0.00364983
0.00401274
0.00335221
0.00260659
0.00202492
0.00169546
0.00162236
0.00176286
0.00409628
0.0115438
0.01915
0.0230762
0.0221466
0.0107849
0.00366755
0.00440909
0.00369367
0.00282903
0.0021522
0.00171377
0.00155307
0.00164074
0.00270713
0.00733633
0.0135435
0.0184113
0.021841
0.0116393
0.00360846
0.00489006
0.00416678
0.0031825
0.00241195
0.00191355
0.00166179
0.00166636
0.00220879
0.00515231
0.00984126
0.0142932
0.0175495
0.0122146
0.0034328
0.00523873
0.00474901
0.00367915
0.00279093
0.00225022
0.00197265
0.00192452
0.00227147
0.00411667
0.00758222
0.0112859
0.0141691
0.011725
0.0196549
0.00330989
0.00499815
0.005301
0.00430963
0.003295
0.0026701
0.00238045
0.00231389
0.00259166
0.00381009
0.00629749
0.00922898
0.0116507
0.0105987
0.00550461
0.0145749
0.00468707
0.0056198
0.0050003
0.00393527
0.00318582
0.00282754
0.00273666
0.00296128
0.00381316
0.00559401
0.00787207
0.00981063
0.00932771
0.00302006
0.00570609
0.0106228
0.00593065
0.00568606
0.00466834
0.00383783
0.00334152
0.00317359
0.0033152
0.0039145
0.00517193
0.0068861
0.00842242
0.00812419
0.00258281
0.00294589
0.00571282
0.017275
0.0126525
0.00502869
0.00649831
0.00543799
0.00459165
0.00398503
0.00368972
0.00369739
0.00406934
0.00491258
0.00611871
0.00719831
0.00687945
0.00222361
0.00257744
0.00792282
0.0142668
0.0116442
0.0133674
0.00675251
0.00554002
0.00696728
0.00616641
0.00536482
0.00475756
0.00436285
0.00421966
0.00436855
0.00486145
0.00562401
0.00628197
0.0058792
0.00233952
0.00458785
0.0135234
0.0155139
0.00712251
0.0111031
0.00730182
0.00405245
0.00538319
0.00624078
0.00649499
0.00601267
0.00554723
0.00517962
0.00495825
0.0049397
0.00516549
0.00559288
0.00597027
0.00569105
0.00390098
0.00932762
0.0176944
0.0171467
0.00754337
0.0106774
0.00275505
0.00429259
0.0051731
0.00583743
0.00623058
0.00632135
0.00617059
0.00599525
0.00585227
0.00580633
0.00591348
0.00618034
0.00649906
0.00663738
0.00682453
0.0143367
0.0199933
0.0175149
0.00745944
0.00152846
0.00298508
0.00433664
0.00484579
0.00545659
0.00586701
0.00620969
0.00644708
0.00659326
0.00669578
0.0068081
0.00699811
0.00732214
0.00781461
0.00856961
0.0104023
0.0177694
0.0205699
0.0168056
0.00690792
0.00162271
0.00313044
0.00412138
0.00440255
0.00503462
0.00542114
0.00584331
0.00632025
0.00679508
0.0072321
0.00764859
0.00810219
0.00868178
0.00951103
0.010871
0.0136112
0.0192427
0.0199315
0.0155114
0.00615849
0.00164541
0.00304619
0.00369592
0.00347919
0.00459106
0.00492938
0.00532609
0.00588025
0.00655545
0.00728434
0.00803338
0.00883036
0.00975668
0.0109676
0.0127303
0.0155392
0.0189902
0.0184231
0.0139964
0.00542249
0.00159462
0.00279077
0.00274338
0.00288117
0.00408588
0.00444456
0.00475542
0.00525727
0.00596717
0.0068352
0.00781189
0.00888585
0.0101091
0.0115845
0.013487
0.0157587
0.0170583
0.0161653
0.0124185
0.00477697
0.00148959
0.0023766
0.00206776
0.00246264
0.00362707
0.00399147
0.00421434
0.00458544
0.00518998
0.00601789
0.00702993
0.00820297
0.00953596
0.011071
0.0127736
0.0143564
0.014043
0.0133511
0.0108408
0.00421418
0.00133926
0.00200739
0.00161486
0.00213895
0.00323759
0.00359956
0.00374997
0.00397073
0.00438969
0.00503619
0.0058976
0.00694234
0.00815777
0.00947673
0.0107887
0.0113988
0.010721
0.010428
0.00933539
0.0037178
0.00119204
0.00170374
0.00130133
0.00188194
0.00290676
0.00327156
0.00337719
0.00347041
0.00368985
0.00409047
0.00467703
0.00543548
0.00630482
0.00724945
0.00793308
0.00808131
0.0076346
0.00785028
0.00801155
0.00329203
0.0010617
0.00145723
0.0010772
0.00166573
0.00260904
0.00299292
0.00308543
0.00309472
0.00315015
0.00331493
0.00360692
0.0040038
0.00449399
0.00488927
0.0052459
0.00542491
0.00533904
0.00593554
0.00695272
0.00295429
0.000949352
0.00125552
0.000912406
0.0014741
0.00233528
0.00273979
0.00285014
0.00282284
0.00277167
0.00276027
0.00281193
0.00292718
0.00303435
0.00324203
0.00347468
0.00370562
0.00394904
0.0047712
0.00613545
0.00271847
0.000853838
0.00108919
0.000788582
0.00129519
0.00207755
0.00250096
0.00264525
0.00261961
0.00252048
0.00240532
0.00230984
0.00224301
0.0022404
0.00231974
0.00250589
0.00279503
0.00323166
0.00416229
0.00550809
0.00258943
0.000772052
0.000950217
0.00069509
0.00111454
0.00182832
0.00226654
0.0024527
0.00245541
0.00235001
0.00219466
0.00202963
0.00189353
0.00183242
0.00186198
0.00202375
0.00235169
0.00288178
0.00384652
0.00505833
0.00253662
0.000701355
0.000831711
0.000627435
0.000835436
0.00157621
0.00202821
0.00225877
0.00230584
0.00222574
0.00206986
0.00188577
0.00172595
0.00163258
0.0016321
0.00177556
0.00211737
0.00268921
0.00366592
0.00475527
0.00253099
0.000639334
0.000731295
0.000577822
0.000692706
0.0012512
0.00177685
0.00205391
0.00215375
0.00211734
0.00198945
0.00181528
0.0016481
0.00153628
0.00151074
0.00162736
0.00196311
0.00255674
0.00355359
0.00457856
0.00256508
0.000583539
0.00065968
0.000579858
0.00146534
0.000960531
0.00148683
0.00183091
0.00198848
0.0020054
0.00192006
0.00177479
0.00161594
0.0014915
0.00144322
0.00152597
0.00183857
0.00244717
0.00348185
0.00451433
0.00263207
0.000531267
0.000616323
0.00120533
0.000853493
0.00123152
0.00119716
0.00158247
0.00180388
0.00187915
0.00184338
0.00173591
0.00159804
0.00147307
0.00140492
0.00145206
0.00172853
0.00234689
0.00343266
0.00454492
0.00272337
0.000478824
0.000900868
0.000706384
0.00124381
0.00114174
0.0013318
0.00159841
0.00173344
0.00175047
0.00168491
0.0015757
0.00146054
0.00138307
0.0013983
0.00163164
0.00225257
0.00338976
0.0046447
0.00282923
0.000434964
0.000552057
0.00119665
0.00113734
0.00117193
0.00138835
0.0015686
0.00163791
0.0016156
0.00153915
0.0014418
0.00136435
0.00136033
0.00155238
0.00216786
0.0033416
0.00478134
0.00294067
0.000355657
0.00206861
0.00174079
0.0011086
0.00122354
0.00139699
0.00150731
0.00152665
0.00148362
0.0014096
0.00134072
0.00132871
0.00149694
0.00210211
0.0032879
0.00492144
0.00305124
0.0018901
0.00516992
0.00158673
0.00115243
0.00126222
0.00136985
0.00142227
0.00140941
0.00136037
0.00130731
0.00129832
0.00146375
0.00206873
0.0032436
0.00503924
0.00315802
0.00269381
0.0063552
0.00212203
0.00129665
0.00127431
0.00131829
0.00132561
0.00129733
0.00126292
0.0012686
0.00145375
0.00207825
0.00323425
0.00512615
0.00326197
0.00374032
0.0145705
0.00397746
0.00155928
0.00130112
0.00126734
0.00124255
0.00121539
0.00124371
0.00147385
0.00214248
0.00328117
0.00519787
0.00336762
0.00645038
0.0295527
0.00786628
0.00201238
0.00148816
0.00130388
0.00120305
0.00123726
0.00153185
0.00227234
0.00340287
0.00530067
0.00348141
0.00816594
0.0272874
0.00845716
0.0032435
0.00203351
0.00138728
0.00129171
0.00163687
0.00247326
0.00361031
0.00546357
0.00360999
0.00863959
0.0257056
0.00941797
0.00469771
0.00235948
0.00154628
0.00181572
0.00274869
0.00391151
0.00570951
0.00376029
0.00874277
0.0226952
0.0103299
0.00520643
0.00242967
0.00216106
0.00311738
0.00431639
0.00606198
0.00393657
0.0084402
0.0184304
0.0104281
0.00486647
0.0029395
0.00365048
0.0048518
0.00655141
0.00414254
0.00788731
0.0168732
0.00967454
0.0048634
0.00454448
0.00559279
0.00722748
0.00438656
0.00752485
0.0172086
0.0102665
0.0063551
0.00672083
0.00818036
0.00469025
0.00826032
0.0153992
0.0119182
0.00868095
0.00952578
0.00509434
0.0090609
0.0151787
0.0131736
0.0113994
0.00566261
0.00940864
0.0174825
0.0148235
0.00645891
0.00888984
0.0201584
0.00750115
0.00852382
0.00872182
0.00770907
)
;

boundaryField
{
    floor
    {
        type            kqRWallFunction;
        value           nonuniform List<scalar> 
36
(
0.0030183
0.00152846
0.00162271
0.00164541
0.00159462
0.00148959
0.00133926
0.00119204
0.0010617
0.000949352
0.000853838
0.000772052
0.000701355
0.000639334
0.000583539
0.000531267
0.000478824
0.000434964
0.000355657
0.000355657
0.000552057
0.000706384
0.000853493
0.00119665
0.00206861
0.0018901
0.0030183
0.00360846
0.0034328
0.00330989
0.00152846
0.00330989
0.00275505
0.00468707
0.00405245
0.00502869
)
;
    }
    ceiling
    {
        type            kqRWallFunction;
        value           nonuniform List<scalar> 
43
(
0.0106774
0.00730182
0.00675251
0.00712251
0.00754337
0.00745944
0.00690792
0.00615849
0.00542249
0.00477697
0.00421418
0.0037178
0.00329203
0.00295429
0.00271847
0.00258943
0.00253662
0.00253099
0.00256508
0.00263207
0.00272337
0.00282923
0.00294067
0.00305124
0.00315802
0.00326197
0.00336762
0.00348141
0.00360999
0.00376029
0.00393657
0.00414254
0.00438656
0.00469025
0.00509434
0.00566261
0.00645891
0.00750115
0.00872182
0.00770907
0.0107849
0.0116393
0.0145749
)
;
    }
    sWall
    {
        type            kqRWallFunction;
        value           nonuniform List<scalar> 9(0.0213646 0.0189519 0.0158485 0.0132082 0.0132001 0.0107849 0.0116442 0.0111031 0.0106774);
    }
    nWall
    {
        type            kqRWallFunction;
        value           nonuniform List<scalar> 
14
(
0.0018901
0.00269381
0.00374032
0.00863959
0.00874277
0.0084402
0.00788731
0.00752485
0.00826032
0.0090609
0.00940864
0.00888984
0.00852382
0.00770907
)
;
    }
    sideWalls
    {
        type            empty;
    }
    glass1
    {
        type            kqRWallFunction;
        value           nonuniform List<scalar> 9(0.00139625 0.00301292 0.0048939 0.00719687 0.00996279 0.0131722 0.0169436 0.0207239 0.0220517);
    }
    glass2
    {
        type            kqRWallFunction;
        value           nonuniform List<scalar> 2(0.00645038 0.00816594);
    }
    sun
    {
        type            kqRWallFunction;
        value           nonuniform List<scalar> 
14
(
0.00139625
0.00156507
0.00155974
0.00169254
0.0018156
0.00192858
0.00203444
0.00213685
0.0022401
0.00234974
0.00246282
0.0025782
0.00270284
0.00284976
)
;
    }
    Table_master
    {
        type            kqRWallFunction;
        value           nonuniform List<scalar> 9(0.00274338 0.00206776 0.00161486 0.00130133 0.0010772 0.000912406 0.000788582 0.00069509 0.000627435);
    }
    Table_slave
    {
        type            kqRWallFunction;
        value           nonuniform List<scalar> 9(0.00347919 0.00288117 0.00246264 0.00213895 0.00188194 0.00166573 0.0014741 0.00129519 0.00111454);
    }
    inlet
    {
        type            turbulentIntensityKineticEnergyInlet;
        intensity       0.5;
        value           uniform 0.09375;
    }
    outlet
    {
        type            zeroGradient;
    }
}


// ************************************************************************* //
