/*--------------------------------*- C++ -*----------------------------------*\
  =========                 |
  \\      /  F ield         | OpenFOAM: The Open Source CFD Toolbox
   \\    /   O peration     | Website:  https://openfoam.org
    \\  /    A nd           | Version:  6
     \\/     M anipulation  |
\*---------------------------------------------------------------------------*/
FoamFile
{
    version     2.0;
    format      ascii;
    class       volScalarField;
    location    "5700";
    object      nut;
}
// * * * * * * * * * * * * * * * * * * * * * * * * * * * * * * * * * * * * * //

dimensions      [0 2 -1 0 0 0 0];

internalField   nonuniform List<scalar> 
662
(
0.000999244
0.00107951
0.00109826
0.00114987
0.00119797
0.00124353
0.00128865
0.00133597
0.00138378
0.00142821
0.00146332
0.00147653
0.00144811
0.00135359
0.00109876
0.000495862
0.00058211
0.000658628
0.000682726
0.00066913
0.000624719
0.000576387
0.00053331
0.000496091
0.00046384
0.00043575
0.000411206
0.000389518
0.000369846
0.000351279
0.00033279
0.000322816
0.000297683
0.00136412
0.00286604
0.00255803
0.00292606
0.00327541
0.00363882
0.00399121
0.00428833
0.00458004
0.00493274
0.00533168
0.00572069
0.00599253
0.00599302
0.00519916
0.00132856
0.00109383
0.000890611
0.000494498
0.00116606
0.00169262
0.00209812
0.00222067
0.00162191
0.00136737
0.00119381
0.00106548
0.000967062
0.000888878
0.000822386
0.000760374
0.000698867
0.000643778
0.000597065
0.00073629
0.000394812
0.00169353
0.0039878
0.00293951
0.00373599
0.00406493
0.0042717
0.00438806
0.00445924
0.00457712
0.00482526
0.00523444
0.00580152
0.00639935
0.00679206
0.00662563
0.005466
0.00425243
0.00106465
0.000777489
0.00132579
0.00191184
0.00249169
0.00264939
0.000845958
0.000738955
0.000650544
0.000579198
0.00052173
0.000475202
0.000437345
0.00040667
0.000382675
0.000421742
0.00048717
0.000868046
0.000468757
0.00203098
0.00548081
0.00293898
0.00385795
0.0042157
0.00422286
0.00406439
0.00389497
0.00385394
0.00400076
0.004397
0.0050982
0.00591157
0.00651135
0.0067062
0.00649352
0.0056681
0.00313213
0.00123889
0.00158511
0.00217712
0.00289009
0.00349858
0.00350679
0.000953304
0.000869604
0.000812118
0.000769536
0.000733749
0.000698919
0.00066589
0.00063118
0.000590933
0.000556449
0.000552998
0.00104727
0.000539228
0.00236814
0.00716238
0.00378577
0.00352876
0.00408531
0.00415141
0.00390417
0.00355522
0.003401
0.0034754
0.00385333
0.00464881
0.00553357
0.00609771
0.00634892
0.00636843
0.00608085
0.00506211
0.00462242
0.00462837
0.00486471
0.00514048
0.00529327
0.005167
0.00435865
0.00394413
0.00371249
0.00354609
0.00338089
0.00316986
0.00282952
0.00239912
0.00191539
0.00145437
0.00109232
0.00103116
0.000920216
0.00072484
0.00076006
0.000824483
0.00274811
0.00866832
0.00564843
0.00371709
0.00355427
0.00371367
0.00375855
0.00349196
0.00331228
0.00333734
0.00370611
0.00449813
0.00542469
0.00592093
0.00608291
0.00608611
0.00608993
0.00604506
0.00624229
0.00650495
0.0066586
0.00663973
0.00645297
0.00611922
0.00566198
0.00528625
0.00498961
0.00472801
0.00447408
0.00421037
0.00388662
0.00345952
0.00293252
0.00234544
0.00180883
0.00130167
0.00109382
0.00097304
0.00122009
0.000856191
0.00129146
0.00406485
0.00528275
0.00458532
0.00385909
0.00355882
0.00352748
0.00350845
0.00337171
0.00329605
0.00356478
0.00435403
0.00563813
0.00599895
0.00606779
0.00608866
0.00637569
0.00686993
0.00731318
0.00751921
0.00745534
0.00716643
0.00672536
0.006202
0.00567357
0.00523246
0.00488329
0.00459218
0.00433695
0.00411175
0.0039153
0.00369578
0.00334137
0.00286529
0.00237877
0.00190597
0.00160378
0.0014716
0.0013797
0.00101273
0.00101838
0.00205785
0.00295739
0.00357715
0.00384711
0.00380132
0.00364869
0.00348137
0.00328291
0.00328952
0.0038411
0.00484899
0.00601767
0.00622191
0.00624536
0.00646311
0.00702518
0.00744895
0.00764206
0.00756987
0.00723723
0.00670586
0.00606499
0.0054133
0.00485157
0.00443229
0.00412948
0.00390233
0.00373175
0.00361554
0.00355869
0.00355586
0.00351319
0.00324445
0.00298968
0.00285381
0.00291257
0.00300359
0.00364836
0.0015356
0.000265015
0.00129314
0.00208773
0.00259098
0.00281802
0.00287674
0.00300868
0.00359384
0.00466982
0.00569161
0.00635535
0.00640326
0.00659811
0.00685231
0.00707393
0.00712475
0.00699601
0.00665143
0.00610236
0.00543105
0.0047532
0.00417502
0.00374692
0.00344984
0.0032364
0.0030719
0.0029385
0.00282604
0.00272634
0.00263156
0.00254972
0.00248278
0.00243863
0.00241378
0.00236059
0.00224731
0.00209543
0.00143832
0.000619958
0.00065129
0.00120847
0.0018297
0.00236672
0.00295249
0.00385918
0.00501339
0.00590093
0.00622117
0.00626312
0.00636676
0.00640339
0.00632383
0.00613656
0.00589005
0.00555075
0.00509226
0.00454591
0.00399619
0.00353101
0.00318387
0.00294007
0.00276703
0.00263801
0.00253839
0.0024622
0.00240856
0.00238017
0.00238127
0.0024008
0.00242848
0.00245729
0.00246996
0.0024438
0.0023728
0.00211755
0.00119134
0.00107026
0.00284367
0.00146208
0.00129147
0.00196478
0.00284335
0.00379345
0.00481626
0.00564354
0.00598069
0.00582311
0.00528735
0.00481142
0.00487525
0.00474667
0.00455515
0.0043577
0.00413081
0.00385086
0.00352968
0.00320334
0.00290935
0.00267407
0.00249791
0.00237109
0.00228431
0.00223173
0.00220941
0.00221274
0.00223452
0.00227829
0.00234508
0.00242852
0.00252028
0.00260692
0.00267245
0.00272429
0.00282029
0.00190679
0.00123526
0.000823853
0.00197858
0.00269741
0.00326073
0.00371854
0.00410033
0.00434594
0.00438918
0.00417929
0.0037135
0.00290458
0.00174235
0.000869831
0.000848314
0.000827349
0.000807485
0.00078816
0.000767911
0.000747085
0.000728051
0.000713837
0.000706146
0.000704619
0.00070892
0.000718574
0.000733258
0.000752871
0.000777564
0.00080784
0.000844805
0.00088846
0.000938528
0.000995135
0.0010582
0.00112708
0.00120148
0.00124335
0.00113036
0.00105654
0.00119502
0.00215795
0.00553169
0.00518918
0.00420358
0.00366759
0.00352644
0.00354355
0.00344515
0.00331553
0.00336921
0.00390573
0.00485279
0.00160326
0.00258808
0.00329598
0.0037638
0.00384982
0.00372771
0.00357119
0.00337715
0.0032367
0.00348644
0.0043192
0.00534255
0.000838349
0.00172278
0.00237754
0.00273392
0.00285833
0.00291123
0.00322533
0.00409731
0.00522486
0.00602695
0.00049756
0.000902479
0.00152695
0.00210679
0.00263528
0.00335294
0.00443608
0.00552093
0.00612518
0.00626272
0.00302609
0.00238517
0.0011271
0.00160176
0.00238049
0.00330456
0.00430547
0.00528076
0.00586992
0.00596804
0.00555867
0.00513762
0.00208731
0.00232697
0.00304243
0.00349572
0.00392212
0.00424361
0.00439747
0.00431625
0.00398015
0.00336182
0.00234221
0.00125708
0.00134774
0.00271114
0.00403532
0.0044093
0.00419067
0.00385302
0.00364623
0.0035306
0.0033623
0.00329012
0.00365541
0.00454669
0.00107589
0.00118069
0.00159412
0.00234098
0.00296044
0.00325498
0.00330015
0.00322164
0.00312621
0.00334993
0.0041653
0.00524587
0.000464596
0.000743437
0.00146177
0.00206266
0.00244278
0.00270036
0.00317436
0.00416234
0.0053151
0.00607054
0.000488514
0.000776048
0.00133596
0.00203185
0.00281155
0.00379949
0.00490739
0.00576502
0.00613643
0.00599012
0.00108016
0.0026864
0.00231568
0.00239601
0.00308788
0.00386688
0.00461224
0.00523271
0.0055368
0.00540192
0.00482363
0.00403524
0.000987318
0.000900543
0.000954803
0.000991274
0.000983268
0.000934411
0.000852343
0.000745295
0.000632329
0.000528626
0.00043867
0.000405692
0.00186616
0.00359976
0.00433973
0.00434624
0.00401325
0.00372828
0.00359287
0.00345008
0.00329485
0.00339926
0.00405497
0.00505313
0.00109638
0.00119887
0.00196326
0.00268812
0.00314683
0.00330027
0.00326939
0.00316082
0.00317128
0.00368867
0.00471252
0.00568389
0.000447779
0.0011006
0.00178902
0.00227813
0.0025737
0.00287831
0.00361113
0.00475889
0.00576106
0.00625128
0.000550638
0.00103183
0.0016734
0.00240658
0.00327097
0.00437431
0.00538135
0.00602594
0.00609858
0.00595438
0.00293944
0.00263348
0.00223093
0.00272247
0.00347304
0.00424611
0.00494918
0.00543585
0.00552412
0.00516851
0.00440818
0.00391879
0.000877394
0.00093125
0.000975201
0.000993407
0.000963234
0.000897233
0.000800979
0.000688156
0.000579243
0.000480531
0.000411263
0.000415987
)
;

boundaryField
{
    floor
    {
        type            nutkWallFunction;
        Cmu             0.09;
        kappa           0.41;
        E               9.8;
        value           nonuniform List<scalar> 
36
(
0.00013227
5.91906e-05
7.01121e-05
7.96358e-05
8.26068e-05
8.09322e-05
7.54329e-05
6.9394e-05
6.39592e-05
5.92201e-05
5.50775e-05
5.144e-05
4.82375e-05
4.53873e-05
4.27845e-05
4.03115e-05
3.78319e-05
3.64869e-05
3.30726e-05
3.30725e-05
4.60837e-05
5.571e-05
6.47076e-05
8.77678e-05
9.20579e-05
9.98455e-05
0.00013227
0.000158718
0.000131696
0.000107764
5.91906e-05
0.000107764
5.90158e-05
0.000128294
9.41723e-05
0.000148466
)
;
    }
    ceiling
    {
        type            nutkWallFunction;
        Cmu             0.09;
        kappa           0.41;
        E               9.8;
        value           nonuniform List<scalar> 
58
(
0.000106175
0.000112579
0.000117774
0.00011992
0.000116368
0.000108547
9.70117e-05
8.32752e-05
6.97535e-05
5.72268e-05
4.82468e-05
4.88647e-05
0.000105284
0.000102708
0.00010019
9.77981e-05
9.54641e-05
9.30111e-05
9.04804e-05
8.81601e-05
8.64226e-05
8.54808e-05
8.52935e-05
8.58206e-05
8.70021e-05
8.87954e-05
9.11842e-05
9.41813e-05
9.78406e-05
0.000102287
0.000107509
0.000113461
0.000120146
0.000127544
0.000135566
0.000144169
0.000148984
0.000135947
0.000127351
0.000143428
0.000132038
0.000143903
5.83606e-05
9.97639e-05
0.000108933
0.000115366
0.000119667
0.000118729
0.000112961
0.000103187
9.02634e-05
7.63795e-05
6.33661e-05
5.18209e-05
4.75166e-05
0.000122922
0.000141809
7.48887e-05
)
;
    }
    sWall
    {
        type            nutkWallFunction;
        Cmu             0.09;
        kappa           0.41;
        E               9.8;
        value           nonuniform List<scalar> 4(0.000130085 0.000119211 0.00012893 9.9767e-05);
    }
    nWall
    {
        type            nutkWallFunction;
        Cmu             0.09;
        kappa           0.41;
        E               9.8;
        value           nonuniform List<scalar> 6(9.98466e-05 0.000103653 0.00012222 0.000143013 0.000148068 0.000143438);
    }
    sideWalls
    {
        type            empty;
    }
    glass1
    {
        type            nutkWallFunction;
        Cmu             0.09;
        kappa           0.41;
        E               9.8;
        value           nonuniform List<scalar> 10(0.000120711 0.00016297 0.000200019 0.000237154 0.000273597 0.000314013 0.00016107 0.000129719 0.000154649 0.000122967);
    }
    glass2
    {
        type            nutkWallFunction;
        Cmu             0.09;
        kappa           0.41;
        E               9.8;
        value           nonuniform List<scalar> 2(0.000182209 0.000171256);
    }
    sun
    {
        type            nutkWallFunction;
        Cmu             0.09;
        kappa           0.41;
        E               9.8;
        value           nonuniform List<scalar> 
14
(
0.00012063
0.000130028
0.000132212
0.000138203
0.000143759
0.000148997
0.000154165
0.000159563
0.000164995
0.000170024
0.000173985
0.000175473
0.000172269
0.000161566
)
;
    }
    Table_master
    {
        type            nutkWallFunction;
        Cmu             0.09;
        kappa           0.41;
        E               9.8;
        value           nonuniform List<scalar> 9(0.000102424 8.9492e-05 7.86389e-05 6.97513e-05 6.24956e-05 5.6549e-05 5.16572e-05 4.76543e-05 4.44966e-05);
    }
    Table_slave
    {
        type            nutkWallFunction;
        Cmu             0.09;
        kappa           0.41;
        E               9.8;
        value           nonuniform List<scalar> 9(0.000115208 0.000105256 9.83566e-05 9.32092e-05 8.8857e-05 8.45971e-05 8.05339e-05 7.62378e-05 7.12205e-05);
    }
    inlet
    {
        type            calculated;
        value           uniform 0.000167705;
    }
    outlet
    {
        type            calculated;
        value           nonuniform List<scalar> 4(0.00302609 0.00238517 0.00108016 0.00284367);
    }
}


// ************************************************************************* //
