/*--------------------------------*- C++ -*----------------------------------*\
  =========                 |
  \\      /  F ield         | OpenFOAM: The Open Source CFD Toolbox
   \\    /   O peration     | Website:  https://openfoam.org
    \\  /    A nd           | Version:  6
     \\/     M anipulation  |
\*---------------------------------------------------------------------------*/
FoamFile
{
    version     2.0;
    format      ascii;
    class       volScalarField;
    location    "1910";
    object      k;
}
// * * * * * * * * * * * * * * * * * * * * * * * * * * * * * * * * * * * * * //

dimensions      [0 2 -2 0 0 0 0];

internalField   nonuniform List<scalar> 
458
(
0.00226776
0.00268604
0.00280881
0.003084
0.00334882
0.00360961
0.00388028
0.00416509
0.0044054
0.00455981
0.00457738
0.00441266
0.00402199
0.00325471
0.00187336
0.000457603
0.000628869
0.000808336
0.000878826
0.000851534
0.000745705
0.000636797
0.00054663
0.000474085
0.000415263
0.000367086
0.000327366
0.000294045
0.000265252
0.000239312
0.000214608
0.000200566
0.000169411
0.00412304
0.00755227
0.00415039
0.00437434
0.00471618
0.00513543
0.00563246
0.0061967
0.00680064
0.007313
0.00758834
0.00753101
0.00712375
0.00635475
0.0051386
0.00326406
0.00224662
0.00149554
0.000450276
0.000973108
0.00130323
0.00145832
0.00147267
0.00125933
0.00102432
0.000834008
0.000688743
0.000577327
0.000490667
0.000421515
0.000364698
0.000317435
0.000283506
0.000264382
0.000493886
0.00029276
0.00609511
0.0136495
0.0049116
0.00472518
0.00494176
0.00528618
0.00575095
0.00634095
0.00699393
0.00755053
0.00789246
0.00794974
0.00769334
0.0070606
0.0060371
0.0048883
0.00391852
0.0020862
0.00106823
0.00139967
0.00160354
0.00173033
0.00172275
0.0013471
0.00103252
0.000802606
0.000637584
0.000518247
0.000430601
0.000365331
0.000316472
0.000280892
0.000262138
0.000265441
0.000780347
0.000408872
0.00835896
0.0222364
0.00592711
0.00470722
0.00474677
0.00501676
0.00547391
0.00616821
0.00689262
0.00746311
0.00783382
0.00795361
0.00774833
0.00714576
0.00628698
0.00543554
0.00463221
0.00350018
0.00276884
0.00250693
0.0023741
0.00233814
0.00228954
0.00215183
0.00170941
0.00143636
0.00126398
0.00114381
0.00104687
0.000954775
0.000871242
0.000787126
0.000694211
0.000530198
0.000422753
0.00113249
0.000542381
0.0110412
0.033957
0.00842374
0.00475002
0.00448318
0.00470839
0.0052998
0.0063553
0.00718516
0.00773964
0.00809517
0.00819729
0.00790046
0.00718258
0.00621605
0.00530918
0.00457963
0.00397836
0.00379457
0.00347944
0.00325247
0.00307061
0.00285917
0.00259024
0.00230267
0.00210661
0.00198659
0.0018919
0.00178986
0.00166109
0.00149189
0.00129914
0.00109388
0.000865685
0.00066476
0.000922198
0.00106382
0.000969439
0.00108637
0.00128348
0.0143256
0.0466881
0.0149491
0.00592316
0.00474262
0.00478349
0.00570764
0.00726705
0.00803202
0.00847442
0.0087387
0.00874771
0.00832027
0.00737878
0.00612452
0.00496605
0.00418352
0.00384151
0.00381389
0.00382295
0.00373177
0.00350864
0.0031891
0.00283474
0.00254774
0.00239531
0.00232171
0.0022631
0.002185
0.00206513
0.00187835
0.00164884
0.00140031
0.00114676
0.000935586
0.000900692
0.00103003
0.00105444
0.00165138
0.00138073
0.0179762
0.0550464
0.0270757
0.0123595
0.00830815
0.00741228
0.00850505
0.00920982
0.00948601
0.00964567
0.00972974
0.00958356
0.00894712
0.00770926
0.00611006
0.00469869
0.00388673
0.00373574
0.00389809
0.00398253
0.00385341
0.00355023
0.00317081
0.00281177
0.00256736
0.0024685
0.00245166
0.00245697
0.00245489
0.00242448
0.00233597
0.0021472
0.00191061
0.00165892
0.00145717
0.00136455
0.00145093
0.00168147
0.0022339
0.00194882
0.0189409
0.0568468
0.0383016
0.0271709
0.0197416
0.0158806
0.0137254
0.0122886
0.0115363
0.0112122
0.0110096
0.0106098
0.00964645
0.00799474
0.00597414
0.00439229
0.00367713
0.00365512
0.00377961
0.00374997
0.00351665
0.00316994
0.00281997
0.00255045
0.00240801
0.00238372
0.00243133
0.00251748
0.00263027
0.00276718
0.00292548
0.00306694
0.00310921
0.00313889
0.00329203
0.00386907
0.0051196
0.00681592
0.0128318
0.00467702
0.018204
0.0264665
0.0243622
0.0217105
0.0188863
0.0164644
0.0146541
0.0135905
0.0130866
0.0127676
0.0123568
0.0115959
0.010071
0.00776899
0.00515924
0.00385744
0.0034024
0.00330939
0.00325284
0.00309118
0.0028233
0.00252764
0.00228249
0.00213425
0.00208892
0.00212324
0.00220959
0.00233306
0.00249003
0.00268167
0.00290932
0.00317116
0.00348969
0.00390093
0.0044479
0.00509768
0.00569693
0.00606908
0.00624824
0.00408117
0.0071851
0.0110951
0.013543
0.0147733
0.0154371
0.0157076
0.015377
0.0144515
0.0132123
0.0115855
0.00881003
0.00585892
0.00403623
0.00322543
0.00288131
0.00270023
0.00252793
0.00231816
0.00209088
0.00188811
0.00175205
0.00169313
0.00169789
0.00174772
0.00182981
0.00193927
0.00207751
0.00225114
0.00247287
0.00276576
0.00313122
0.00356697
0.0040509
0.00449044
0.00471262
0.00457281
0.00410675
0.00264226
0.00805097
0.0194688
0.0216097
0.0214998
0.0207273
0.0184764
0.0153375
0.0120146
0.00883274
0.00623571
0.00435116
0.003264
0.00271639
0.00241262
0.00221094
0.00203291
0.00184815
0.00166513
0.00150943
0.00139905
0.00133831
0.00132637
0.00135513
0.0014189
0.00151606
0.00164804
0.00181811
0.00203056
0.00229599
0.0026244
0.00302442
0.00349684
0.00401536
0.00451219
0.00481686
0.0051015
0.00428733
0.00271136
0.00890518
0.00935067
0.0097646
0.0120867
0.0107995
0.00848134
0.00603626
0.00437012
0.00348199
0.00273151
0.00214587
0.00173645
0.00142365
0.0012072
0.00106726
0.000970473
0.00089595
0.000834198
0.000784872
0.000752438
0.000740514
0.000749475
0.000776325
0.000816656
0.000869074
0.0009333
0.00101002
0.00110091
0.00120899
0.00133973
0.00149664
0.00168162
0.00189901
0.00215377
0.00245049
0.00283132
0.00300668
0.00288481
0.00249582
0.00213492
)
;

boundaryField
{
    floor
    {
        type            kqRWallFunction;
        value           nonuniform List<scalar> 
36
(
0.00187336
0.000457603
0.000628869
0.000808336
0.000878826
0.000851534
0.000745705
0.000636797
0.00054663
0.000474085
0.000415263
0.000367086
0.000327366
0.000294045
0.000265252
0.000239312
0.000214608
0.000200566
0.000169411
0.000169411
0.00029276
0.000408872
0.000542381
0.000969439
0.00108637
0.00128348
0.00187336
0.00326406
0.00224662
0.00149554
0.000457603
0.00149554
0.000450276
0.0020862
0.00106823
0.00276884
)
;
    }
    ceiling
    {
        type            kqRWallFunction;
        value           nonuniform List<scalar> 
43
(
0.00890518
0.00935067
0.0097646
0.0120867
0.0107995
0.00848134
0.00603626
0.00437012
0.00348199
0.00273151
0.00214587
0.00173645
0.00142365
0.0012072
0.00106726
0.000970473
0.00089595
0.000834198
0.000784872
0.000752438
0.000740514
0.000749475
0.000776325
0.000816656
0.000869074
0.0009333
0.00101002
0.00110091
0.00120899
0.00133973
0.00149664
0.00168162
0.00189901
0.00215377
0.00245049
0.00283132
0.00300668
0.00288481
0.00249582
0.00213492
0.018204
0.0264665
0.00805097
)
;
    }
    sWall
    {
        type            kqRWallFunction;
        value           uniform 0.00890518;
    }
    nWall
    {
        type            kqRWallFunction;
        value           nonuniform List<scalar> 6(0.00128348 0.00138073 0.00194882 0.00264226 0.00271136 0.00213492);
    }
    sideWalls
    {
        type            empty;
    }
    glass1
    {
        type            kqRWallFunction;
        value           nonuniform List<scalar> 9(0.00226776 0.00412304 0.00609511 0.00835896 0.0110412 0.0143256 0.0179762 0.0189409 0.018204);
    }
    glass2
    {
        type            kqRWallFunction;
        value           nonuniform List<scalar> 2(0.00467702 0.00408117);
    }
    sun
    {
        type            kqRWallFunction;
        value           nonuniform List<scalar> 
14
(
0.00226776
0.00268604
0.00280881
0.003084
0.00334882
0.00360961
0.00388028
0.00416509
0.0044054
0.00455981
0.00457738
0.00441266
0.00402199
0.00325471
)
;
    }
    Table_master
    {
        type            kqRWallFunction;
        value           nonuniform List<scalar> 9(0.0013471 0.00103252 0.000802606 0.000637584 0.000518247 0.000430601 0.000365331 0.000316472 0.000280892);
    }
    Table_slave
    {
        type            kqRWallFunction;
        value           nonuniform List<scalar> 9(0.00170941 0.00143636 0.00126398 0.00114381 0.00104687 0.000954775 0.000871242 0.000787126 0.000694211);
    }
    inlet
    {
        type            turbulentIntensityKineticEnergyInlet;
        intensity       0.05;
        value           uniform 0.000937501;
    }
    outlet
    {
        type            zeroGradient;
    }
}


// ************************************************************************* //
