/*--------------------------------*- C++ -*----------------------------------*\
  =========                 |
  \\      /  F ield         | OpenFOAM: The Open Source CFD Toolbox
   \\    /   O peration     | Website:  https://openfoam.org
    \\  /    A nd           | Version:  6
     \\/     M anipulation  |
\*---------------------------------------------------------------------------*/
FoamFile
{
    version     2.0;
    format      ascii;
    class       volScalarField;
    location    "1910";
    object      nut;
}
// * * * * * * * * * * * * * * * * * * * * * * * * * * * * * * * * * * * * * //

dimensions      [0 2 -1 0 0 0 0];

internalField   nonuniform List<scalar> 
458
(
0.00106941
0.00116386
0.00119016
0.0012471
0.00129954
0.0013492
0.00139887
0.00144929
0.00149052
0.00151641
0.00151933
0.00149175
0.00142418
0.00128115
0.000971976
0.000480384
0.000563151
0.00063847
0.000665727
0.000655308
0.000613236
0.000566689
0.000525038
0.000488959
0.000457621
0.000430257
0.000406313
0.00038508
0.000365741
0.000347397
0.000328978
0.000318034
0.000292291
0.00144196
0.00324197
0.00299019
0.00342619
0.00386088
0.00430801
0.00470924
0.00501946
0.00533812
0.00563633
0.00587548
0.00602073
0.00603433
0.00582448
0.00473388
0.00128299
0.00106441
0.000868448
0.000476523
0.00113085
0.00164826
0.00204881
0.0021755
0.00158548
0.00133845
0.00117037
0.00104634
0.000951286
0.000875879
0.000810863
0.000749746
0.000688736
0.000634245
0.000588565
0.000719976
0.000384238
0.00175321
0.00435755
0.00359597
0.00438458
0.00471605
0.00494888
0.00512781
0.00529293
0.0055226
0.00580164
0.00610654
0.00640547
0.00664172
0.00672469
0.00633666
0.00516447
0.00391408
0.0010257
0.000733968
0.00126655
0.00184307
0.00241657
0.00258041
0.000824223
0.000721597
0.000636203
0.00056704
0.000511226
0.000465996
0.000429228
0.000399496
0.000376369
0.000417094
0.00048305
0.00084473
0.000454086
0.00205315
0.00556636
0.00349821
0.00454278
0.00472446
0.00470675
0.00469024
0.0047695
0.00495622
0.00523216
0.00558281
0.00597415
0.00631723
0.00653331
0.00648484
0.00614954
0.00527794
0.00289757
0.00118166
0.00150489
0.00206902
0.00275983
0.00335873
0.00338835
0.000928471
0.00085109
0.000798388
0.000759487
0.000726591
0.000693897
0.000662848
0.000630038
0.000591684
0.000557316
0.000549166
0.00100685
0.000522994
0.00235968
0.00719284
0.00366949
0.00431257
0.00457225
0.00441805
0.00429261
0.0043647
0.00456182
0.00484884
0.00522685
0.00565594
0.00599212
0.00615982
0.00615607
0.00603888
0.00569098
0.00470591
0.00426533
0.00429647
0.0045472
0.0048459
0.00502919
0.00494686
0.00422085
0.0038475
0.00364174
0.0034943
0.00334508
0.00315285
0.00282613
0.00240528
0.00192651
0.00146539
0.00109901
0.00102383
0.000888841
0.000699205
0.000740174
0.000804525
0.00268783
0.00902573
0.00502597
0.00399304
0.0043523
0.00434393
0.00418399
0.00424392
0.00444489
0.0047319
0.00511527
0.00552666
0.00583784
0.00593776
0.00584405
0.00570963
0.00564928
0.00556827
0.00573612
0.00602721
0.00623155
0.00626834
0.0061314
0.00584441
0.00544342
0.0051176
0.00486385
0.00464014
0.00442051
0.00418738
0.00388617
0.00347328
0.00295106
0.00236036
0.00181365
0.00131495
0.00108079
0.000942869
0.00118735
0.000834447
0.00301088
0.0104109
0.00750096
0.00490861
0.00427151
0.00433343
0.00438927
0.00442092
0.00453427
0.00478709
0.00516428
0.00557213
0.00585766
0.00589009
0.00571183
0.005583
0.00579798
0.00627371
0.00675792
0.00703137
0.00703242
0.00679871
0.00640237
0.00591988
0.00543922
0.00505235
0.00475939
0.00452183
0.00431402
0.00412737
0.00395748
0.00373539
0.00337021
0.00288245
0.00237573
0.00188894
0.00157133
0.00143951
0.00137215
0.000991356
0.00309061
0.00966315
0.00820291
0.00688326
0.005875
0.0054289
0.00501054
0.00472534
0.00471888
0.00495962
0.00534983
0.00575312
0.00599408
0.00594032
0.00572208
0.00577843
0.00639181
0.00689494
0.00715702
0.00714531
0.00686157
0.00637056
0.00576612
0.00515659
0.00465016
0.00429524
0.00405586
0.00388391
0.00375666
0.00367083
0.00363265
0.00363424
0.00353678
0.00324678
0.00296406
0.00280648
0.00287504
0.00303502
0.00360543
0.00153578
0.0030299
0.00365336
0.0040343
0.00424625
0.00427568
0.0042107
0.00421084
0.00438508
0.00474086
0.00519565
0.00566258
0.00603182
0.00615207
0.00594294
0.00588527
0.00619731
0.0065573
0.00668076
0.00659172
0.00627986
0.00575717
0.0051115
0.00446675
0.00393781
0.0035719
0.00333886
0.00318254
0.00306375
0.00296241
0.00286728
0.00276967
0.00266249
0.00256532
0.00248122
0.0024256
0.00239433
0.00233479
0.00221202
0.00206282
0.00143462
0.00133539
0.00234693
0.00322206
0.00390662
0.00453171
0.00514092
0.00562536
0.00595244
0.00616737
0.00620091
0.00600204
0.00575717
0.00575937
0.00586281
0.00578422
0.00555153
0.00518437
0.00469003
0.00412123
0.00356563
0.00312332
0.00282543
0.0026428
0.00253071
0.00245631
0.00240208
0.00236049
0.00232975
0.0023125
0.00231791
0.00233148
0.00234357
0.00234431
0.00230736
0.00219313
0.00199171
0.00174212
0.00115434
0.00201497
0.00395727
0.0050751
0.00580046
0.00636545
0.00641571
0.0060875
0.00575708
0.00547368
0.00492887
0.00454067
0.00445071
0.00438951
0.0042178
0.00395898
0.00363812
0.00326188
0.00286595
0.00250911
0.00223143
0.00204002
0.00192973
0.00187807
0.00186695
0.00188522
0.00192588
0.00198268
0.0020484
0.00212539
0.00221371
0.00230823
0.00240107
0.00247661
0.00251444
0.0024794
0.00244886
0.00225466
0.00116933
0.00211917
0.00217153
0.00221907
0.00246887
0.0023337
0.00206812
0.00174473
0.00148454
0.00132513
0.00117367
0.00104027
0.000935785
0.000847317
0.00078025
0.000733634
0.000699578
0.000672181
0.000648603
0.000629135
0.000615999
0.000611098
0.000614785
0.0006257
0.000641747
0.000662023
0.000686049
0.000713691
0.000745111
0.00078083
0.000821963
0.000868765
0.00092089
0.000978606
0.00104218
0.00111166
0.00119492
0.00123137
0.00120616
0.00112189
0.00103761
)
;

boundaryField
{
    floor
    {
        type            nutkWallFunction;
        Cmu             0.09;
        kappa           0.41;
        E               9.8;
        value           nonuniform List<scalar> 
36
(
0.000117416
5.72032e-05
6.77267e-05
7.71384e-05
8.05104e-05
7.92235e-05
7.4001e-05
6.8172e-05
6.29063e-05
5.83032e-05
5.42706e-05
5.07211e-05
4.75917e-05
4.4797e-05
4.22343e-05
3.97873e-05
3.73134e-05
3.58348e-05
3.23301e-05
3.233e-05
4.46851e-05
5.38129e-05
6.26457e-05
8.4629e-05
8.96381e-05
9.74411e-05
0.000117416
0.000153522
0.000128268
0.000105118
5.72031e-05
0.000105118
5.67068e-05
0.000123738
8.88819e-05
0.000141881
)
;
    }
    ceiling
    {
        type            nutkWallFunction;
        Cmu             0.09;
        kappa           0.41;
        E               9.8;
        value           nonuniform List<scalar> 
43
(
0.000246191
0.000251845
0.000256969
0.000283773
0.000269376
0.000240772
0.00020538
0.000176378
0.000158334
0.000140961
0.000125447
0.000113137
0.000102589
9.45067e-05
8.8841e-05
8.4675e-05
8.13059e-05
7.83934e-05
7.59789e-05
7.43446e-05
7.37339e-05
7.41933e-05
7.5552e-05
7.75441e-05
8.00526e-05
8.30132e-05
8.64042e-05
9.02397e-05
9.45768e-05
9.95426e-05
0.000105157
0.00011137
0.000118201
0.000125673
0.000133778
0.000143417
0.000147613
0.000144712
0.000134967
0.000125138
0.000343193
0.000407605
0.000234817
)
;
    }
    sWall
    {
        type            nutkWallFunction;
        Cmu             0.09;
        kappa           0.41;
        E               9.8;
        value           uniform 0.000246258;
    }
    nWall
    {
        type            nutkWallFunction;
        Cmu             0.09;
        kappa           0.41;
        E               9.8;
        value           nonuniform List<scalar> 6(9.74417e-05 0.000101045 0.000119708 0.000138739 0.000140474 0.000125145);
    }
    sideWalls
    {
        type            empty;
    }
    glass1
    {
        type            nutkWallFunction;
        Cmu             0.09;
        kappa           0.41;
        E               9.8;
        value           nonuniform List<scalar> 9(0.000128959 0.000171808 0.000206643 0.000239572 0.000272693 0.000307648 0.000341626 0.000349963 0.000343641);
    }
    glass2
    {
        type            nutkWallFunction;
        Cmu             0.09;
        kappa           0.41;
        E               9.8;
        value           nonuniform List<scalar> 2(0.000182232 0.00017084);
    }
    sun
    {
        type            nutkWallFunction;
        Cmu             0.09;
        kappa           0.41;
        E               9.8;
        value           nonuniform List<scalar> 
14
(
0.000128855
0.000139824
0.000142861
0.000149411
0.000155413
0.000161072
0.000166709
0.00017241
0.000177053
0.000179963
0.00018029
0.000177191
0.000169573
0.000153311
)
;
    }
    Table_master
    {
        type            nutkWallFunction;
        Cmu             0.09;
        kappa           0.41;
        E               9.8;
        value           nonuniform List<scalar> 9(9.98135e-05 8.73724e-05 7.68598e-05 6.82205e-05 6.1155e-05 5.53594e-05 5.05964e-05 4.67073e-05 4.36567e-05);
    }
    Table_slave
    {
        type            nutkWallFunction;
        Cmu             0.09;
        kappa           0.41;
        E               9.8;
        value           nonuniform List<scalar> 9(0.000112267 0.00010304 9.66998e-05 9.19886e-05 8.79822e-05 8.39791e-05 8.01565e-05 7.60936e-05 7.13118e-05);
    }
    inlet
    {
        type            calculated;
        value           uniform 0.000167705;
    }
    outlet
    {
        type            calculated;
        value           nonuniform List<scalar> 2(0.00211917 0.00217153);
    }
}


// ************************************************************************* //
