/*--------------------------------*- C++ -*----------------------------------*\
  =========                 |
  \\      /  F ield         | OpenFOAM: The Open Source CFD Toolbox
   \\    /   O peration     | Website:  https://openfoam.org
    \\  /    A nd           | Version:  6
     \\/     M anipulation  |
\*---------------------------------------------------------------------------*/
FoamFile
{
    version     2.0;
    format      ascii;
    class       surfaceScalarField;
    location    "1910";
    object      phi;
}
// * * * * * * * * * * * * * * * * * * * * * * * * * * * * * * * * * * * * * //

dimensions      [1 0 -1 0 0 0 0];

internalField   nonuniform List<scalar> 
850
(
-0.0030531
0.00311356
-0.00414578
0.00109268
-0.00501487
0.000869086
-0.00570372
0.000688853
-0.00617581
0.000472085
-0.00639707
0.000221263
-0.00632789
-6.91785e-05
-0.00592412
-0.000403767
-0.00517395
-0.000750174
-0.00412887
-0.00104508
-0.00290064
-0.00122823
-0.00164187
-0.00125876
-0.000539348
-0.00110252
0.000135733
-0.000675081
0.000138084
-0.000922291
0.000925948
-0.000689695
-0.000232596
-6.01989e-05
-0.000629496
0.000543321
-0.00060352
0.00100248
-0.00045916
0.00125902
-0.000256533
0.00136711
-0.000108092
0.00141991
-5.28016e-05
0.00145025
-3.03398e-05
0.0014653
-1.50498e-05
0.0014689
-3.59644e-06
0.00146188
7.01256e-06
0.00143861
2.32763e-05
0.00138004
5.85626e-05
0.00125405
0.000125989
0.00105036
0.000203692
0.00079356
0.000256802
0.000798399
-0.00220746
0.00548442
-0.0032951
0.00218033
-0.00420831
0.00178229
-0.00490607
0.00138661
-0.00538758
0.000953595
-0.00563053
0.000464213
-0.00559453
-0.000105178
-0.00524038
-0.000757916
-0.00456694
-0.00142362
-0.00364297
-0.00196905
-0.00258834
-0.00228286
-0.00154183
-0.00230527
-0.00062899
-0.00201536
9.26189e-05
-0.00139669
0.000872422
-0.000641719
0.00114838
-0.000272177
0.00095673
0.000196013
0.000969418
4.19212e-05
0.000895027
0.000422269
-0.000612943
0.000787036
-0.000994264
0.00110001
-0.000916491
0.00135089
-0.00071004
0.00140736
-0.000313007
0.00141549
-0.000116227
0.00142622
-6.35228e-05
0.0014352
-3.93237e-05
0.00144047
-2.03154e-05
0.00144263
-5.75829e-06
0.00144223
7.40892e-06
0.00143675
2.87617e-05
0.00140027
9.50336e-05
0.00124734
0.000278921
0.00097879
0.000472245
0.000644722
0.000590871
0.0014555
-0.00156234
0.00729718
-0.00251036
0.00312835
-0.00334299
0.00261492
-0.00396554
0.00200917
-0.00441312
0.00140117
-0.00466164
0.000712741
-0.004656
-0.000110818
-0.00433476
-0.00107916
-0.00371328
-0.00204509
-0.00288892
-0.00279341
-0.00198686
-0.00318492
-0.00112295
-0.00316918
-0.000373749
-0.00276456
0.000240207
-0.00201065
0.000751688
-0.0011532
0.000899066
-0.000419555
0.000707254
0.000387825
0.00168793
0.00143721
-0.000528345
0.0016327
-0.000808433
0.00157512
-0.000936682
0.00160843
-0.000949808
0.00181177
-0.000913377
0.00149892
0.00138284
0.00131948
0.00128031
0.00126014
0.00125454
0.0012621
0.00129102
0.00138621
0.00115913
0.000505997
0.000870184
0.00076119
0.000498987
0.000962068
0.00197306
-0.00109549
0.00871731
-0.00185228
0.00388515
-0.0024366
0.00319924
-0.00288268
0.00245525
-0.0032278
0.00174629
-0.00344067
0.000925607
-0.00344209
-0.000109395
-0.00312372
-0.00139754
-0.00254789
-0.00262092
-0.00184623
-0.00349508
-0.00113062
-0.00390054
-0.000480917
-0.00381888
6.55387e-05
-0.00331102
0.000526078
-0.00247119
0.000902122
-0.00152924
0.00111916
-0.000636591
0.0013033
0.000203681
0.00225693
0.0007343
0.00216738
0.000101498
0.00199441
-0.000355378
0.00190845
-0.000722473
0.0017977
-0.000825928
0.00166554
-0.000817656
0.00143461
-0.000682445
0.00175827
-0.000323813
0.00193598
-0.000177862
0.00206695
-0.000131124
0.00216777
-0.000100976
0.00222802
-6.0407e-05
0.00222548
2.38754e-06
0.00213259
9.27357e-05
0.00191303
0.000219409
0.00150686
0.00040602
0.00126955
0.000743301
0.000902376
0.00112837
0.000384142
0.0014803
0.00238084
-0.000756059
0.00986109
-0.00132707
0.00445616
-0.00150964
0.00338181
-0.00168824
0.00263384
-0.00185321
0.00191127
-0.00196224
0.00103463
-0.00191379
-0.000157845
-0.00155678
-0.00175454
-0.00105579
-0.00312191
-0.000537905
-0.00401296
-7.34327e-05
-0.00436501
0.000305203
-0.00419752
0.000596342
-0.00360215
0.000849163
-0.00272401
0.00106842
-0.0017485
0.00127573
-0.000843901
0.00158632
-0.000106911
0.00202981
0.000290811
0.00206367
6.76432e-05
0.0019963
-0.000288009
0.00181177
-0.000537947
0.00162392
-0.000638076
0.00144687
-0.000640608
0.00131824
-0.000553814
0.00137707
-0.000382641
0.0014652
-0.000265992
0.00154973
-0.000215657
0.00163127
-0.000182517
0.00170145
-0.000130583
0.00174051
-3.66685e-05
0.00172445
0.000108789
0.00163819
0.000305672
0.00148594
0.000558264
0.00132988
0.000899367
0.00115095
0.0013073
0.000803984
0.00182727
0.00101978
0.00216504
-0.00109531
0.00213621
-0.00179352
0.000717828
-0.00172075
-0.000638755
0.0109406
-0.00101441
0.00483182
-0.000633462
0.00300086
-0.000448723
0.0024491
-0.000384102
0.00184665
-0.000303743
0.000954271
-5.19579e-05
-0.000409631
0.00033445
-0.00214095
0.00069214
-0.0034796
0.000951999
-0.00427282
0.00109503
-0.00450804
0.00114534
-0.00424783
0.00113921
-0.00359603
0.00111596
-0.00270076
0.00110039
-0.00173292
0.00113241
-0.000875923
0.00126936
-0.000243864
0.00148405
7.61197e-05
0.00153525
1.64411e-05
0.00143724
-0.000189998
0.00126285
-0.000363556
0.00108321
-0.000458434
0.000925953
-0.000483351
0.000820987
-0.000448847
0.000810259
-0.000371914
0.000859675
-0.000315408
0.000935903
-0.000291885
0.0010267
-0.000273311
0.00112557
-0.00022945
0.00122259
-0.000133696
0.00129551
3.58668e-05
0.00133258
0.00026861
0.00134787
0.000542971
0.00138189
0.000865346
0.00148238
0.00120681
0.0016859
0.00162374
0.00203675
0.0018142
0.00233691
0.00183605
0.00182994
0.00122479
0.000174627
-0.000763864
0.0121918
-0.000621494
0.00468945
0.000492253
0.00188711
0.000960596
0.00198076
0.00121795
0.00158929
0.00159945
0.000572772
0.00210275
-0.000912927
0.00243995
-0.00247814
0.00257379
-0.00361344
0.00250628
-0.00420532
0.00227309
-0.00427485
0.00193614
-0.00391088
0.00155919
-0.00321908
0.00120038
-0.00234194
0.0008965
-0.00142905
0.000704761
-0.000684184
0.000653055
-0.000192159
0.000704153
2.50222e-05
0.000712198
8.39581e-06
0.000635918
-0.000113718
0.000508592
-0.00023623
0.000368319
-0.00031816
0.00024246
-0.000357492
0.000156402
-0.000362789
0.000133499
-0.000349011
0.00016256
-0.000344469
0.00022223
-0.000351555
0.000302717
-0.000353798
0.000405024
-0.000331757
0.000534124
-0.000262795
0.000687033
-0.000117042
0.000844973
0.000110671
0.00100697
0.00038097
0.00120882
0.000663498
0.00148344
0.000932194
0.00188387
0.0012233
0.00241737
0.00128071
0.00318505
0.00106836
0.00336169
0.00104816
0.00360513
0.00273594
0.00999918
0.00339169
0.00403369
0.00344933
0.00182948
0.00353501
0.00189508
0.00374628
0.00137801
0.00422221
9.68447e-05
0.00469339
-0.00138411
0.00478847
-0.00257323
0.0045142
-0.00333916
0.0039611
-0.00365222
0.00322999
-0.00354373
0.00242503
-0.00310593
0.00162819
-0.00242223
0.000922193
-0.00163594
0.000347304
-0.000854158
-2.7931e-06
-0.000334087
-0.000141164
-5.37873e-05
-0.000155611
3.94684e-05
-0.000163483
1.62681e-05
-0.000215626
-6.15751e-05
-0.000306437
-0.000145419
-0.000412633
-0.000211963
-0.00051191
-0.000258215
-0.000586141
-0.000288558
-0.00062411
-0.000311042
-0.000633307
-0.000335272
-0.000625473
-0.00035939
-0.000604902
-0.000374369
-0.000566614
-0.000370045
-0.000494386
-0.000335023
-0.000356917
-0.000254511
-0.000146791
-9.94557e-05
0.000103974
0.000130206
0.000388682
0.00037879
0.000707149
0.000613727
0.00108947
0.00084098
0.00150685
0.000863325
0.00189863
0.000676592
0.001206
0.00174078
0.00509754
0.0105981
0.0146276
0.0125615
0.00389563
0.0112293
0.00322725
0.0103408
0.00226647
0.00953403
0.000903638
0.00853166
-0.000381733
0.00735279
-0.00139436
0.00607955
-0.00206592
0.00476076
-0.00233344
0.00342961
-0.00221258
0.0021646
-0.00184091
0.00100974
-0.00126738
5.6532e-05
-0.000682737
-0.000566117
-0.000231509
-0.000859772
-4.04317e-05
-0.000956882
4.33228e-05
-0.000976521
5.91075e-05
-0.000991922
3.16694e-05
-0.00103537
-1.81279e-05
-0.00110794
-7.2847e-05
-0.00119693
-0.000122972
-0.00128871
-0.000166436
-0.00137433
-0.000202936
-0.00145154
-0.000233834
-0.0015271
-0.000259709
-0.00161029
-0.000276207
-0.00170962
-0.000275034
-0.00183477
-0.000244898
-0.00199863
-0.000171167
-0.00221661
-3.65261e-05
-0.00248309
0.000167021
-0.00280704
0.000454156
-0.00327099
0.000842741
-0.00398818
0.00133092
-0.00502972
0.00188252
-0.00651693
0.00235054
-0.0082554
0.00241506
-0.00777184
0.00125721
-0.00235728
0.00895048
0.00560354
0.00747193
0.0047058
0.00708009
0.00265832
0.00672928
0.00125444
0.00611934
0.000228206
0.00524698
-0.000521993
0.00417839
-0.000997337
0.00298303
-0.00113808
0.00169151
-0.000921053
0.000430628
-0.000580035
-0.000609374
-0.000227376
-0.00127076
-2.13533e-05
-0.0015632
6.09348e-05
-0.00167769
7.40551e-05
-0.00170756
7.31957e-05
-0.00171333
6.48778e-05
-0.00172839
4.67316e-05
-0.00176725
2.07321e-05
-0.00183117
-8.93023e-06
-0.00191263
-4.15136e-05
-0.00200411
-7.49579e-05
-0.00210346
-0.000103581
-0.00221198
-0.000125317
-0.00233306
-0.000138624
-0.00246885
-0.000140422
-0.0026182
-0.000125682
-0.0027757
-8.74003e-05
-0.00292899
-1.78696e-05
-0.00306256
9.70378e-05
-0.00317483
0.000279296
-0.00327577
0.000555088
-0.00337726
0.000944233
-0.00348606
0.00143972
-0.00356955
0.001966
-0.00356789
0.00234888
-0.00330988
0.00215705
-0.0019499
-0.000102757
-0.00422386
-0.000826076
0.00648293
0.000742125
0.0031376
0.00140783
0.00199262
0.00164675
0.00101552
0.00158293
0.000292026
0.00121194
-0.000151006
0.000529772
-0.000315166
-0.000363607
-0.000244698
-0.00124093
-4.37327e-05
-0.00188625
6.52916e-05
-0.00222695
0.000113318
-0.00235771
0.000109405
-0.00238049
8.37158e-05
-0.00237008
6.36535e-05
-0.00234903
5.21397e-05
-0.00232857
4.44184e-05
-0.00231772
3.58832e-05
-0.00232173
2.47408e-05
-0.00234114
1.04846e-05
-0.00237495
-7.7045e-06
-0.00242354
-2.63717e-05
-0.00248497
-4.21559e-05
-0.00255707
-5.32175e-05
-0.0026373
-5.83879e-05
-0.00272161
-5.61162e-05
-0.0028034
-4.38884e-05
-0.00287321
-1.75864e-05
-0.00291849
2.74094e-05
-0.0029185
9.70411e-05
-0.00284794
0.000208742
-0.00267229
0.000379438
-0.00236022
0.000632164
-0.0019039
0.000983405
-0.00128931
0.00135141
-0.000299617
0.00135918
0.00114767
0.000709755
0.00164259
-0.000597674
-0.00248959
-0.0120485
-0.0155771
-0.00905365
-0.00588864
-0.00387376
-0.00283963
-0.00253257
-0.00267157
-0.00297681
-0.00321301
-0.00324908
-0.0031765
-0.00305604
-0.00293952
-0.00284868
-0.00277788
-0.00271857
-0.00266693
-0.00262379
-0.00259175
-0.00257397
-0.00257441
-0.00259359
-0.00262866
-0.00267493
-0.00272651
-0.00277597
-0.00281339
-0.00282469
-0.0027912
-0.0026883
-0.00247393
-0.00208912
-0.00145185
-0.000463632
0.000892208
0.00225553
0.00296933
0.00237584
)
;

boundaryField
{
    floor
    {
        type            calculated;
        value           nonuniform List<scalar> 
36
(
0
0
0
0
0
0
0
0
0
0
0
0
0
0
0
0
0
0
0
-4.83914e-06
-1.23784e-05
-1.85698e-05
-2.36401e-05
-2.11164e-05
-1.96191e-05
-1.84535e-05
-2.35096e-06
-3.78396e-06
-4.3594e-06
-5.0447e-06
-3.65662e-06
-7.64382e-06
-1.10003e-05
-1.12618e-05
-1.3837e-05
-1.1939e-05
)
;
    }
    ceiling
    {
        type            calculated;
        value           nonuniform List<scalar> 
43
(
-4.18425e-05
-4.11777e-05
-4.04779e-05
-2.74138e-05
-2.22697e-05
-1.86052e-05
-1.50292e-05
-1.20039e-05
-9.92851e-06
-8.50178e-06
-7.66631e-06
-7.28617e-06
-7.1385e-06
-7.11144e-06
-7.12455e-06
-7.14594e-06
-7.17754e-06
-7.21882e-06
-7.26085e-06
-7.29351e-06
-7.29638e-06
-7.26678e-06
-7.19271e-06
-7.08152e-06
-6.95274e-06
-6.80952e-06
-6.64873e-06
-6.47538e-06
-6.28401e-06
-6.07897e-06
-5.8593e-06
-5.6254e-06
-5.37667e-06
-5.10604e-06
-4.81145e-06
-4.42495e-06
-4.13958e-06
-4.04934e-06
-4.18146e-06
-3.60375e-06
6.94079e-06
4.17895e-06
-5.33145e-05
)
;
    }
    sWall
    {
        type            calculated;
        value           uniform -0.000241395;
    }
    nWall
    {
        type            calculated;
        value           nonuniform List<scalar> 6(-5.43172e-05 -6.54339e-05 -6.88137e-05 -8.33261e-05 -9.16831e-05 -0.000110141);
    }
    sideWalls
    {
        type            empty;
        value           nonuniform 0();
    }
    glass1
    {
        type            calculated;
        value           nonuniform List<scalar> 9(-6.04582e-05 -0.000163403 -0.000250424 -0.00032465 -0.000387723 -0.000440784 -0.000487283 -0.000543338 -0.000605862);
    }
    glass2
    {
        type            calculated;
        value           nonuniform List<scalar> 2(-0.00028641 -0.000317011);
    }
    sun
    {
        type            calculated;
        value           uniform 0;
    }
    Table_master
    {
        type            calculated;
        value           nonuniform List<scalar> 9(-1.5364e-07 -1.53789e-07 -1.53839e-07 -1.53869e-07 -1.53889e-07 -1.53902e-07 -1.53906e-07 -1.539e-07 -1.5387e-07);
    }
    Table_slave
    {
        type            calculated;
        value           nonuniform List<scalar> 9(1.5353e-07 1.53515e-07 1.53468e-07 1.53431e-07 1.53408e-07 1.53408e-07 1.53413e-07 1.53451e-07 1.53535e-07);
    }
    inlet
    {
        type            calculated;
        value           uniform -0.0106584;
    }
    outlet
    {
        type            calculated;
        value           nonuniform List<scalar> 2(0.0123318 0.00356972);
    }
}


// ************************************************************************* //
