/*--------------------------------*- C++ -*----------------------------------*\
  =========                 |
  \\      /  F ield         | OpenFOAM: The Open Source CFD Toolbox
   \\    /   O peration     | Website:  https://openfoam.org
    \\  /    A nd           | Version:  6
     \\/     M anipulation  |
\*---------------------------------------------------------------------------*/
FoamFile
{
    version     2.0;
    format      ascii;
    class       volVectorField;
    location    "1910";
    object      U;
}
// * * * * * * * * * * * * * * * * * * * * * * * * * * * * * * * * * * * * * //

dimensions      [0 1 -1 0 0 0 0];

internalField   nonuniform List<vector> 
458
(
(0.0348269 0.0885216 0)
(-0.172079 0.0265833 0)
(-0.199346 0.0191131 0)
(-0.233221 0.0130813 0)
(-0.258393 0.00641421 0)
(-0.273598 -0.000803984 0)
(-0.276729 -0.00877682 0)
(-0.265484 -0.0177761 0)
(-0.239429 -0.0274244 0)
(-0.199721 -0.0361089 0)
(-0.150459 -0.0420488 0)
(-0.0978441 -0.0436497 0)
(-0.0487437 -0.0390817 0)
(-0.00628579 -0.0236921 0)
(-0.010272 0.00976713 0)
(-0.0102287 0.0105066 0)
(-0.0372466 -0.0174967 0)
(-0.0144951 -0.0291158 0)
(0.0137026 -0.0251859 0)
(0.0334675 -0.0178899 0)
(0.048085 -0.00955575 0)
(0.0568436 -0.00517745 0)
(0.0607209 -0.00363353 0)
(0.0621554 -0.00308368 0)
(0.062804 -0.00276066 0)
(0.0631133 -0.00251019 0)
(0.0630519 -0.00224216 0)
(0.0624535 -0.00179776 0)
(0.0608607 -0.000838553 0)
(0.0572566 0.00107559 0)
(0.0505337 0.00317293 0)
(0.0451219 0.00509038 0)
(-0.0141375 0.0219518 0)
(0.214276 0.181889 0)
(-0.162149 0.0709915 0)
(-0.16294 0.0577617 0)
(-0.198655 0.0457431 0)
(-0.224131 0.0319887 0)
(-0.240107 0.0161769 0)
(-0.244611 -0.00240745 0)
(-0.235118 -0.0239627 0)
(-0.211872 -0.0461646 0)
(-0.176494 -0.0649211 0)
(-0.133367 -0.0764222 0)
(-0.08814 -0.0781968 0)
(-0.0462737 -0.0687314 0)
(-0.010043 -0.0460251 0)
(0.0193965 -0.0133899 0)
(0.0442287 0.00784486 0)
(0.0548386 0.0347561 0)
(-0.0118183 0.0706811 0)
(0.0670487 0.0439709 0)
(0.0103161 -0.0218346 0)
(0.0265313 -0.0379026 0)
(0.0407622 -0.0356476 0)
(0.053152 -0.0273407 0)
(0.0595764 -0.0120916 0)
(0.0611968 -0.00275181 0)
(0.0612459 0.000747053 0)
(0.0614102 0.00202455 0)
(0.0617353 0.00272336 0)
(0.0619602 0.00322307 0)
(0.0620175 0.00367628 0)
(0.0619133 0.00440891 0)
(0.0612018 0.00620771 0)
(0.0578041 0.0112282 0)
(0.0491106 0.0155396 0)
(0.0476976 0.0187137 0)
(-0.0584155 0.0475573 0)
(0.379538 0.272954 0)
(-0.180118 0.113731 0)
(-0.123511 0.0941082 0)
(-0.159196 0.072434 0)
(-0.182598 0.0495034 0)
(-0.198408 0.0236446 0)
(-0.204062 -0.00653093 0)
(-0.195375 -0.0409732 0)
(-0.173595 -0.0757723 0)
(-0.141432 -0.10364 0)
(-0.103851 -0.118946 0)
(-0.0659067 -0.119152 0)
(-0.0318352 -0.10412 0)
(-0.00229165 -0.0744046 0)
(0.0220155 -0.0400804 0)
(0.0375812 -0.0152256 0)
(0.0431651 0.0131557 0)
(-0.0236781 0.0623074 0)
(0.122496 -0.00756273 0)
(0.0725065 -0.032109 0)
(0.064309 -0.0419382 0)
(0.0672598 -0.0417614 0)
(0.071871 -0.0380457 0)
(0.0734943 -0.0282271 0)
(0.0643723 -0.0183278 0)
(0.057418 -0.0130259 0)
(0.0548199 -0.0100777 0)
(0.0541294 -0.00818517 0)
(0.0538961 -0.0068968 0)
(0.0539672 -0.00590173 0)
(0.0547676 -0.0047522 0)
(0.0572204 -0.00139666 0)
(0.0561154 0.0149992 0)
(0.0445979 0.0258787 0)
(0.0541339 0.0332606 0)
(-0.0993608 0.0728056 0)
(0.530034 0.346651 0)
(-0.216671 0.151753 0)
(-0.080199 0.125834 0)
(-0.115538 0.096296 0)
(-0.133416 0.0672245 0)
(-0.146928 0.0337654 0)
(-0.152515 -0.00710621 0)
(-0.142622 -0.0550454 0)
(-0.121291 -0.102297 0)
(-0.0929845 -0.137827 0)
(-0.0625395 -0.155415 0)
(-0.0335814 -0.153422 0)
(-0.00880851 -0.133438 0)
(0.0128531 -0.0979268 0)
(0.0304177 -0.0589775 0)
(0.0443393 -0.0229025 0)
(0.0599356 0.0131408 0)
(0.0588009 0.0534265 0)
(0.100312 0.0614975 0)
(0.0987964 -0.00245677 0)
(0.0851284 -0.0294016 0)
(0.0784454 -0.0376986 0)
(0.0735963 -0.0383995 0)
(0.0670028 -0.0341112 0)
(0.0665851 -0.0208399 0)
(0.0772631 -0.0138309 0)
(0.0862277 -0.0101078 0)
(0.0916283 -0.00782476 0)
(0.0948692 -0.00591695 0)
(0.0962766 -0.00385579 0)
(0.0945089 -0.00119015 0)
(0.0882467 0.00248053 0)
(0.0757031 0.00774358 0)
(0.0597914 0.0251036 0)
(0.0440582 0.0405932 0)
(0.0629736 0.0533582 0)
(-0.131369 0.0942931 0)
(0.662688 0.403809 0)
(-0.262356 0.182676 0)
(-0.0350341 0.145256 0)
(-0.0687499 0.111318 0)
(-0.0779464 0.0792334 0)
(-0.0862937 0.0412521 0)
(-0.0890493 -0.00798181 0)
(-0.0740305 -0.068804 0)
(-0.0534856 -0.125888 0)
(-0.0315832 -0.165059 0)
(-0.01128 -0.18183 0)
(0.00615572 -0.175984 0)
(0.0193188 -0.151481 0)
(0.0303348 -0.114539 0)
(0.0401814 -0.0729595 0)
(0.0494216 -0.0337252 0)
(0.061916 0.000669195 0)
(0.0760154 0.0197062 0)
(0.0903022 -0.000579509 0)
(0.0896574 -0.0213853 0)
(0.0825889 -0.0300449 0)
(0.073782 -0.0325584 0)
(0.0655387 -0.0316364 0)
(0.0585967 -0.0266375 0)
(0.0568182 -0.0155154 0)
(0.0603748 -0.00902959 0)
(0.0647189 -0.00637502 0)
(0.0684445 -0.0048324 0)
(0.0716892 -0.00275178 0)
(0.0741974 0.000779701 0)
(0.0750478 0.00596769 0)
(0.0731541 0.0129867 0)
(0.0682444 0.0224386 0)
(0.0611974 0.037181 0)
(0.0500467 0.0536364 0)
(0.0748532 0.0727587 0)
(-0.00684757 0.101397 0)
(0.0557828 0.150675 0)
(-0.0835262 0.0748341 0)
(-0.277796 0.000482652 0)
(0.761895 0.451324 0)
(-0.308553 0.203337 0)
(0.00242919 0.143884 0)
(-0.0205856 0.116258 0)
(-0.0197915 0.085722 0)
(-0.0215007 0.0472971 0)
(-0.0143155 -0.00693117 0)
(0.0103133 -0.0859137 0)
(0.0269228 -0.146179 0)
(0.0388252 -0.182409 0)
(0.0460457 -0.194542 0)
(0.048894 -0.185044 0)
(0.0486286 -0.158117 0)
(0.0472218 -0.119916 0)
(0.0460442 -0.0779363 0)
(0.0464553 -0.0397042 0)
(0.0508015 -0.00999157 0)
(0.0599455 0.00481901 0)
(0.066219 -0.00105976 0)
(0.0649635 -0.0110239 0)
(0.0585768 -0.0188172 0)
(0.0504061 -0.0229215 0)
(0.0427697 -0.0236702 0)
(0.0367961 -0.0211426 0)
(0.0342478 -0.0157772 0)
(0.0354003 -0.0123004 0)
(0.0383569 -0.0108686 0)
(0.0420154 -0.00977972 0)
(0.0460771 -0.00764251 0)
(0.0502608 -0.00338701 0)
(0.0544724 0.00368275 0)
(0.0569897 0.0131867 0)
(0.0581556 0.0249453 0)
(0.0592803 0.0395811 0)
(0.0583567 0.0560052 0)
(0.0797021 0.0767035 0)
(0.0654418 0.0889963 0)
(0.0997196 0.096737 0)
(0.117478 0.0571987 0)
(-0.1369 -0.0299334 0)
(0.815618 0.494189 0)
(-0.334125 0.187369 0)
(0.0322392 0.0937989 0)
(0.0390607 0.101054 0)
(0.0459291 0.0830001 0)
(0.0516219 0.0393724 0)
(0.0790953 -0.0311654 0)
(0.103108 -0.103694 0)
(0.113286 -0.157003 0)
(0.112863 -0.186318 0)
(0.104585 -0.192421 0)
(0.090795 -0.178768 0)
(0.0740995 -0.149765 0)
(0.0575043 -0.111558 0)
(0.0429701 -0.070902 0)
(0.0326072 -0.0356855 0)
(0.0280833 -0.010752 0)
(0.0294795 0.000989456 0)
(0.0311132 -0.000286448 0)
(0.0296107 -0.00657765 0)
(0.0249586 -0.0126407 0)
(0.0188397 -0.0163807 0)
(0.0128159 -0.0177539 0)
(0.00801174 -0.0171151 0)
(0.00565318 -0.0152053 0)
(0.00599769 -0.0141103 0)
(0.00803888 -0.013976 0)
(0.0110387 -0.0137489 0)
(0.0148349 -0.0123666 0)
(0.0195135 -0.0087432 0)
(0.0256825 -0.0016371 0)
(0.0332927 0.00886912 0)
(0.040059 0.0208916 0)
(0.0478678 0.0341627 0)
(0.0558671 0.0479636 0)
(0.0754448 0.0644625 0)
(0.0882275 0.0697777 0)
(0.119669 0.0632116 0)
(0.163391 0.0513036 0)
(-0.0203461 0.0954851 0)
(0.921874 0.497288 0)
(-0.0766822 0.167418 0)
(0.110606 0.0261603 0)
(0.163735 0.0227925 0)
(0.161397 0.0155473 0)
(0.162863 -0.0293603 0)
(0.196487 -0.0804057 0)
(0.211272 -0.125535 0)
(0.205363 -0.158268 0)
(0.185097 -0.173972 0)
(0.155593 -0.171665 0)
(0.121096 -0.153967 0)
(0.0853015 -0.12427 0)
(0.0523733 -0.0880676 0)
(0.0244621 -0.0510447 0)
(0.00510696 -0.0219085 0)
(-0.00464655 -0.00442001 0)
(-0.00657419 0.00175758 0)
(-0.00645585 0.000657506 0)
(-0.00765722 -0.00367171 0)
(-0.0109574 -0.00802411 0)
(-0.0154549 -0.0110903 0)
(-0.0200874 -0.0128613 0)
(-0.0239499 -0.0136972 0)
(-0.0263307 -0.0141473 0)
(-0.0272216 -0.0148973 0)
(-0.0271852 -0.0158798 0)
(-0.0266032 -0.0165917 0)
(-0.0254755 -0.0165042 0)
(-0.023496 -0.0150397 0)
(-0.0198703 -0.0114672 0)
(-0.0117172 -0.00490943 0)
(-0.000103225 0.00446049 0)
(0.0110781 0.0137635 0)
(0.0226818 0.0208691 0)
(0.0398941 0.0277409 0)
(0.055427 0.0224425 0)
(0.0795691 0.00564825 0)
(0.146407 0.0479757 0)
(-0.428341 0.212664 0)
(1.06591 0.444167 0)
(0.518239 0.298303 0)
(0.529534 0.249859 0)
(0.518392 0.182906 0)
(0.469838 0.122439 0)
(0.433158 0.0601141 0)
(0.39205 -0.00742043 0)
(0.342848 -0.066974 0)
(0.289092 -0.107854 0)
(0.232756 -0.126603 0)
(0.175376 -0.125092 0)
(0.118919 -0.108907 0)
(0.0654725 -0.0822805 0)
(0.0202487 -0.0512512 0)
(-0.0160988 -0.0208182 0)
(-0.0329512 -0.00604543 0)
(-0.0401312 0.000451113 0)
(-0.0416851 0.00220659 0)
(-0.0420637 0.00100311 0)
(-0.0432064 -0.00164818 0)
(-0.0458348 -0.00453005 0)
(-0.0494827 -0.00706115 0)
(-0.053506 -0.00915142 0)
(-0.0573701 -0.0108785 0)
(-0.0608181 -0.0123784 0)
(-0.0640122 -0.013758 0)
(-0.0673558 -0.0148546 0)
(-0.0712244 -0.0153092 0)
(-0.0759714 -0.0146371 0)
(-0.0820701 -0.0121851 0)
(-0.0902124 -0.00711617 0)
(-0.101122 0.00142836 0)
(-0.112755 0.0133231 0)
(-0.127986 0.0284155 0)
(-0.152909 0.0467857 0)
(-0.190233 0.0673939 0)
(-0.241635 0.0862241 0)
(-0.297565 0.0999147 0)
(-0.371649 0.106905 0)
(-0.650668 0.106296 0)
(0.233926 0.052832 0)
(0.305891 0.115962 0)
(0.321219 0.0913662 0)
(0.299645 0.0395769 0)
(0.275051 -0.0106024 0)
(0.244392 -0.0469371 0)
(0.203106 -0.0684075 0)
(0.154013 -0.07541 0)
(0.100449 -0.0686953 0)
(0.0461777 -0.0529138 0)
(-0.00861802 -0.0295056 0)
(-0.0451305 -0.0114707 0)
(-0.0635936 -0.00310056 0)
(-0.0709174 -0.00072751 0)
(-0.073146 -0.000270901 0)
(-0.073463 -0.000976261 0)
(-0.0737662 -0.00258014 0)
(-0.0749065 -0.00467848 0)
(-0.077123 -0.00677056 0)
(-0.080376 -0.00855441 0)
(-0.0841692 -0.0100276 0)
(-0.0882767 -0.0111488 0)
(-0.0927088 -0.0119226 0)
(-0.0976168 -0.012316 0)
(-0.103151 -0.0121387 0)
(-0.109344 -0.0110457 0)
(-0.116063 -0.00856757 0)
(-0.122966 -0.00416044 0)
(-0.129429 0.00273686 0)
(-0.134403 0.012336 0)
(-0.13837 0.0256178 0)
(-0.141806 0.0431804 0)
(-0.146017 0.064224 0)
(-0.151771 0.0850533 0)
(-0.155356 0.0955489 0)
(-0.141299 0.0734017 0)
(-0.110238 -0.0250096 0)
(-0.286612 -0.213743 0)
(0.120029 0.324335 0)
(0.00839137 0.203591 0)
(0.0392653 0.118447 0)
(0.0584794 0.0604325 0)
(0.0631278 0.0216218 0)
(0.0601138 -0.00478666 0)
(0.0402023 -0.0199085 0)
(0.00542669 -0.0189524 0)
(-0.0365891 -0.00172202 0)
(-0.0701109 0.0128756 0)
(-0.0912231 0.0208814 0)
(-0.100232 0.0232689 0)
(-0.102441 0.0233933 0)
(-0.102378 0.0234353 0)
(-0.101503 0.0241346 0)
(-0.100473 0.0252538 0)
(-0.0997569 0.0263916 0)
(-0.0996355 0.0271413 0)
(-0.100163 0.0270749 0)
(-0.101305 0.0258655 0)
(-0.103098 0.0238446 0)
(-0.105476 0.0216137 0)
(-0.108372 0.0194402 0)
(-0.111693 0.0174738 0)
(-0.115304 0.0158268 0)
(-0.11899 0.014609 0)
(-0.122441 0.0139575 0)
(-0.125173 0.0140292 0)
(-0.126371 0.0155206 0)
(-0.124864 0.0198894 0)
(-0.119075 0.0282963 0)
(-0.107618 0.0417413 0)
(-0.0903504 0.0602424 0)
(-0.0683153 0.0804265 0)
(-0.0434442 0.0948381 0)
(-0.00757999 0.0857761 0)
(0.14694 0.00930286 0)
(-0.209929 -0.129685 0)
(-0.422117 -0.516028 0)
(-0.637317 -0.143277 0)
(-0.449398 0.177757 0)
(-0.357935 0.0560772 0)
(-0.213901 -0.00554149 0)
(-0.145614 -0.0477898 0)
(-0.117172 -0.0705353 0)
(-0.112992 -0.0713545 0)
(-0.122349 -0.0626781 0)
(-0.134863 -0.0549655 0)
(-0.140345 -0.0504902 0)
(-0.138582 -0.049043 0)
(-0.134113 -0.0499185 0)
(-0.128918 -0.0527302 0)
(-0.124439 -0.0562523 0)
(-0.120981 -0.0598965 0)
(-0.118175 -0.063537 0)
(-0.115757 -0.0672194 0)
(-0.113684 -0.0708043 0)
(-0.112032 -0.0738144 0)
(-0.11094 -0.0756164 0)
(-0.110571 -0.0757671 0)
(-0.111019 -0.0743644 0)
(-0.112237 -0.0719925 0)
(-0.114054 -0.06892 0)
(-0.116249 -0.0652796 0)
(-0.118541 -0.0610915 0)
(-0.120561 -0.0562819 0)
(-0.121828 -0.0506352 0)
(-0.121708 -0.0438045 0)
(-0.119185 -0.0358162 0)
(-0.112353 -0.0266909 0)
(-0.0984053 -0.0158837 0)
(-0.0748435 -0.00248676 0)
(-0.0415495 0.0143641 0)
(0.00931908 0.0362847 0)
(0.0618681 0.0423462 0)
(0.1096 0.024043 0)
(0.172059 -0.0159443 0)
(-0.19629 -0.0826859 0)
)
;

boundaryField
{
    floor
    {
        type            noSlip;
    }
    ceiling
    {
        type            noSlip;
    }
    sWall
    {
        type            noSlip;
    }
    nWall
    {
        type            noSlip;
    }
    sideWalls
    {
        type            empty;
    }
    glass1
    {
        type            noSlip;
    }
    glass2
    {
        type            noSlip;
    }
    sun
    {
        type            noSlip;
    }
    Table_master
    {
        type            noSlip;
    }
    Table_slave
    {
        type            noSlip;
    }
    inlet
    {
        type            fixedValue;
        value           uniform (0.46194 -0.191342 0);
    }
    outlet
    {
        type            zeroGradient;
    }
}


// ************************************************************************* //
