/*--------------------------------*- C++ -*----------------------------------*\
  =========                 |
  \\      /  F ield         | OpenFOAM: The Open Source CFD Toolbox
   \\    /   O peration     | Website:  https://openfoam.org
    \\  /    A nd           | Version:  6
     \\/     M anipulation  |
\*---------------------------------------------------------------------------*/
FoamFile
{
    version     2.0;
    format      ascii;
    class       surfaceScalarField;
    location    "14800";
    object      phi;
}
// * * * * * * * * * * * * * * * * * * * * * * * * * * * * * * * * * * * * * //

dimensions      [1 0 -1 0 0 0 0];

internalField   nonuniform List<scalar> 
1482
(
-0.00279983
0.00286387
-0.00348419
0.000684361
-0.0041451
0.000660905
-0.00475945
0.000614348
-0.00528111
0.000521664
-0.00569331
0.000412202
-0.00598479
0.000291475
-0.00614244
0.000157652
-0.0061489
6.46409e-06
-0.00597819
-0.000170718
-0.00560032
-0.000377865
-0.00498427
-0.000616047
-0.00405986
-0.000924414
-0.00258074
-0.00147912
-0.00257782
-6.5337e-05
7.01903e-05
0.000777592
-0.000842929
0.00142955
-0.000651962
0.00182849
-0.000398933
0.00204976
-0.00022127
0.00215406
-0.000104301
0.0022014
-4.73361e-05
0.00222414
-2.27422e-05
0.00223377
-9.62837e-06
0.00223454
-7.77469e-07
0.00222741
7.13088e-06
0.0022084
1.90111e-05
0.00216421
4.4188e-05
0.00206169
0.000102525
0.00184554
0.000216151
0.00148903
0.000356505
0.00101905
0.000469984
0.00102549
-0.00204044
0.00507463
-0.00290869
0.00155261
-0.00369472
0.00144694
-0.00434601
0.00126563
-0.00488356
0.00105921
-0.00531263
0.000841278
-0.00563142
0.00061026
-0.00583308
0.000359309
-0.0059069
8.02847e-05
-0.00584503
-0.000232594
-0.00564165
-0.000581241
-0.00528548
-0.000972223
-0.00477534
-0.00143455
-0.0042893
-0.00196515
-0.00470531
-0.00216182
-0.00311831
-0.00158156
-0.0016342
-0.00147843
-0.00161935
0.00131714
-0.00123674
0.00166028
-0.00118607
0.00191078
-0.000902463
0.00210087
-0.000589025
0.00220727
-0.000327667
0.00221601
-0.000113039
0.0022181
-4.94275e-05
0.0022198
-2.4447e-05
0.0022208
-1.06205e-05
0.00222078
-7.60932e-07
0.00221937
8.54127e-06
0.00221513
2.32483e-05
0.00220249
5.68338e-05
0.0021406
0.000164409
0.00189123
0.000465519
0.0014626
0.000785138
0.000900639
0.00103195
0.00194301
-0.00148833
0.00682089
-0.00235935
0.00242363
-0.00312951
0.00221709
-0.00371395
0.00185008
-0.00418486
0.00153013
-0.00455658
0.00121299
-0.00483086
0.000884547
-0.00500446
0.000532908
-0.00507094
0.000146764
-0.00502122
-0.00028232
-0.00484455
-0.00075791
-0.00453354
-0.00128323
-0.00411907
-0.00184903
-0.00372187
-0.00236236
-0.00330178
-0.0025819
-0.00237048
-0.00251286
-0.00127619
-0.00257271
-0.00288271
0.00114881
-0.00237109
0.00165156
-0.00168882
0.00194911
-0.00120002
0.00214078
-0.00078069
0.0021687
-0.000355588
0.00205581
0.00200654
0.00198225
0.00197178
0.00197117
0.00197987
0.00200327
0.00206026
0.00222482
0.00186629
0.000824052
0.00141897
0.00123246
0.000801083
0.00164984
0.00277013
-0.00110614
0.00825824
-0.00192818
0.00324567
-0.00257039
0.0028593
-0.00303092
0.0023106
-0.00339866
0.00189787
-0.00368765
0.00150198
-0.00390089
0.00109779
-0.00403652
0.000668532
-0.00408699
0.000197235
-0.0040391
-0.000330206
-0.00388059
-0.000916418
-0.00360742
-0.0015564
-0.00324226
-0.00221418
-0.00282101
-0.00278361
-0.00228233
-0.00312058
-0.00156334
-0.00323184
-0.000875767
-0.00326028
-0.000697585
-0.00306089
0.00143874
-0.00212088
0.00137266
-0.00230501
0.00168885
-0.002005
0.00200157
-0.00151275
0.00226794
-0.00104706
0.00254492
-0.000632561
0.00285748
-0.000312716
0.00302389
-0.000166562
0.00308816
-6.44276e-05
0.00307078
1.72308e-05
0.0029805
9.0123e-05
0.00281833
0.000162014
0.00257647
0.00024171
0.002232
0.00034431
0.00172777
0.000504084
0.00159168
0.000960143
0.00126459
0.00155954
0.00073933
0.0021751
0.00354377
-0.000803844
0.00945528
-0.00158012
0.00402194
-0.00204896
0.00332814
-0.00236484
0.00262649
-0.00260938
0.00214241
-0.00279508
0.00168768
-0.00292695
0.00122965
-0.00300569
0.000747277
-0.00302476
0.000216298
-0.00296751
-0.000387453
-0.00282073
-0.00106319
-0.00257758
-0.00179955
-0.00224473
-0.00254703
-0.00182934
-0.003199
-0.00132502
-0.00362491
-0.000749342
-0.00380751
-0.000218788
-0.00379084
0.000258364
-0.00353804
0.00111977
-0.00298228
0.00148626
-0.00267151
0.00174575
-0.00226449
0.00199852
-0.00176552
0.00222857
-0.00127711
0.00244289
-0.000846881
0.00264349
-0.000513318
0.00275305
-0.000276125
0.00278892
-0.000100292
0.00276281
4.33331e-05
0.00268119
0.000171744
0.00254658
0.000296624
0.00235782
0.000430474
0.00211252
0.000589606
0.00181868
0.000797923
0.00161319
0.00116564
0.00147161
0.00170111
0.00129167
0.00235504
0.00227431
0.00256114
0.00131664
0.000992604
0.00188742
-0.000542038
0.00200651
-0.0005759
0.0104776
-0.00132492
0.00477097
-0.00158475
0.00358797
-0.00175086
0.0027926
-0.00186504
0.00225659
-0.00193672
0.00175936
-0.00197235
0.00126528
-0.00197623
0.000751149
-0.00194516
0.00018523
-0.00185741
-0.000475201
-0.00170326
-0.00121735
-0.00147288
-0.00202992
-0.00116926
-0.00285065
-0.000798234
-0.00357002
-0.000379542
-0.0040436
6.00303e-05
-0.00424708
0.000464917
-0.00419572
0.000839274
-0.0039124
0.00129063
-0.00343363
0.00158994
-0.00297082
0.00179377
-0.00246832
0.00196559
-0.00193734
0.00211745
-0.00142897
0.00225196
-0.000981388
0.00235654
-0.000617905
0.00241434
-0.000333924
0.00242513
-0.000111078
0.00239416
7.43017e-05
0.00232628
0.00023962
0.00222536
0.000397548
0.00209547
0.000560361
0.00194365
0.000741425
0.00178424
0.000957334
0.00169309
0.00125679
0.00174863
0.00164558
0.00195619
0.00214748
0.00219297
0.00232436
0.00170337
0.00148221
0.000788567
0.000372762
0.00289278
-0.000543398
0.0115132
-0.0012437
0.00547127
-0.00119228
0.00353654
-0.0012009
0.00280123
-0.0011935
0.00224919
-0.00116028
0.00172614
-0.00110339
0.00120839
-0.00102853
0.000676288
-0.000930299
8.69953e-05
-0.000781528
-0.000623971
-0.000592633
-0.00140624
-0.000353233
-0.00226932
-7.04594e-05
-0.00313342
0.000233331
-0.00387381
0.00054246
-0.00435273
0.000837037
-0.00454166
0.00109971
-0.00445839
0.00133313
-0.00414582
0.00156531
-0.0036658
0.0017255
-0.00313101
0.00182592
-0.00256874
0.00189635
-0.00200777
0.00195239
-0.00148501
0.00199915
-0.00102814
0.00203128
-0.000650041
0.00204311
-0.000345754
0.00203128
-9.92491e-05
0.00199659
0.00010899
0.00194219
0.000294027
0.0018719
0.000467835
0.00179098
0.000641277
0.00170798
0.00082443
0.00163781
0.0010275
0.00162328
0.00127132
0.00170806
0.0015608
0.0019121
0.00194344
0.00215399
0.00208247
0.00216063
0.00147557
0.00163231
0.000901084
0.0046282
-0.000483542
0.0125322
-0.00105163
0.00603936
-0.000697776
0.00318268
-0.000637259
0.00274071
-0.00056918
0.00218111
-0.000464801
0.00162176
-0.000336084
0.00107967
-0.000185199
0.000525403
3.85858e-06
-0.000102062
0.000221838
-0.00084195
0.000461176
-0.00164558
0.000718227
-0.00252638
0.000974333
-0.00338953
0.00120224
-0.00410172
0.00140093
-0.00455142
0.00156178
-0.00470251
0.00167955
-0.00457615
0.00175903
-0.0042253
0.00181264
-0.0037194
0.00182339
-0.00314176
0.00179938
-0.00254472
0.00175941
-0.0019678
0.00171826
-0.00144386
0.0016833
-0.000993179
0.00165443
-0.000621174
0.00162775
-0.000319066
0.00159847
-6.99756e-05
0.00156448
0.00014298
0.00152613
0.000332381
0.00148488
0.000509086
0.00144403
0.00068212
0.00140999
0.000858475
0.0013938
0.0010437
0.00141867
0.00124645
0.00151112
0.00146834
0.00171585
0.00173871
0.00198083
0.00181749
0.00207824
0.00137816
0.00164287
0.00133647
0.00663817
0.0029761
0.0101433
0.00202063
0.00699483
0.000867877
0.00433543
0.000369562
0.00323902
0.00021257
0.00233811
0.000268752
0.00156558
0.000422389
0.000926037
0.000636008
0.000311784
0.000895034
-0.000361088
0.00115948
-0.0011064
0.00143751
-0.00192361
0.00170394
-0.0027928
0.0019294
-0.003615
0.00208975
-0.00426207
0.00217917
-0.00464086
0.00220045
-0.00472379
0.00216249
-0.00453819
0.002079
-0.00414181
0.0019652
-0.0036056
0.00182662
-0.00300319
0.00167531
-0.0023934
0.00152797
-0.00182046
0.00139908
-0.00131497
0.00129665
-0.000890756
0.0012218
-0.000546324
0.0011697
-0.000266971
0.0011332
-3.34727e-05
0.00110718
0.000169004
0.00108834
0.000351216
0.00107467
0.000522756
0.00106643
0.000690357
0.00106674
0.000858165
0.00108215
0.00102829
0.00112571
0.00120289
0.00121392
0.00138013
0.00138054
0.0015721
0.00158864
0.00160939
0.00166048
0.00130631
0.000312402
0.00268458
0.00733632
0.00403055
0.00625301
0.00366635
0.00735903
0.00254095
0.00546084
0.0018878
0.00389217
0.00153121
0.00269469
0.00138627
0.00171052
0.00141988
0.00089242
0.00159399
0.000137678
0.00184563
-0.000612728
0.00212225
-0.00138302
0.00240137
-0.00220273
0.00264566
-0.0030371
0.00281354
-0.00378288
0.00287812
-0.00432666
0.00283623
-0.00459898
0.00270179
-0.00458935
0.00249719
-0.00433359
0.0022468
-0.00389142
0.0019734
-0.00333219
0.00169411
-0.0027239
0.00142604
-0.00212533
0.00118692
-0.00158133
0.000991237
-0.00111929
0.000844895
-0.000744414
0.000746564
-0.000447993
0.000687407
-0.000207813
0.000656643
-2.7091e-06
0.000645727
0.000179919
0.000647992
0.000348951
0.00065876
0.000511988
0.000675759
0.000673358
0.000698637
0.000835288
0.000728598
0.00099833
0.000768923
0.00116256
0.000819317
0.00132974
0.000852196
0.00153922
0.000572354
0.0018892
-0.000643873
0.00252236
-0.00190243
0.00394313
0.00553824
0.00240932
0.0040082
0.00330409
0.00646426
0.00324801
0.00551691
0.00303718
0.004103
0.00284603
0.00288584
0.0027226
0.00183394
0.00270851
0.000906507
0.00279716
4.90247e-05
0.00295865
-0.000774227
0.00316874
-0.00159311
0.00338552
-0.00241951
0.00354897
-0.00320056
0.00360447
-0.00383839
0.00352549
-0.00424769
0.00331755
-0.00439105
0.00300688
-0.0042787
0.00262803
-0.00395474
0.00221451
-0.0034779
0.00179602
-0.0029137
0.00139633
-0.00232421
0.00103695
-0.00176595
0.000737241
-0.00128162
0.00051069
-0.000892741
0.000355017
-0.000588741
0.00026123
-0.000354206
0.000212975
-0.000159558
0.000196936
1.33295e-05
0.000203014
0.000173842
0.000223416
0.000328548
0.000253234
0.00048217
0.000288792
0.0006378
0.000326528
0.000797551
0.000362325
0.000962533
0.000391969
0.00113292
0.000407435
0.00131427
0.00033961
0.00160703
-1.34744e-05
0.00224205
-0.000485365
0.00299387
-0.000677707
0.00413523
0.00497649
0.00145694
0.00274551
0.00274843
0.00517278
0.00343263
0.00483271
0.0037186
0.00381702
0.00381689
0.00278755
0.00384475
0.00180609
0.00388058
0.000870667
0.00394949
-1.98882e-05
0.00405926
-0.000883995
0.00419888
-0.00173273
0.00431683
-0.00253746
0.00434251
-0.00322624
0.00422454
-0.00372043
0.00395085
-0.00397401
0.003544
-0.00398422
0.00304394
-0.00377865
0.00249485
-0.00340565
0.00193569
-0.00291875
0.00140083
-0.00237884
0.000917619
-0.001841
0.000512842
-0.00136117
0.000204436
-0.000973215
-3.44763e-06
-0.000684857
-0.000128207
-0.000463981
-0.000194773
-0.00028764
-0.000223787
-0.000130544
-0.00022652
1.60619e-05
-0.000209747
0.000157069
-0.000178127
0.000296927
-0.000135421
0.000439463
-8.60899e-05
0.000588468
-3.6645e-05
0.000748106
2.68437e-06
0.000923203
1.56423e-05
0.00111996
-3.0101e-05
0.00136002
-0.000225146
0.00180208
-0.000662347
0.00267908
-0.00110423
0.00343541
-0.00107269
0.00410336
0.00403324
0.00217233
0.00079914
0.00294442
0.00440068
0.00359491
0.00418222
0.00416497
0.00324695
0.00449249
0.00246003
0.00466655
0.00163203
0.00478316
0.00075405
0.00488778
-0.000124502
0.00499399
-0.000990203
0.00507157
-0.0018103
0.0050548
-0.00252068
0.00488365
-0.00305509
0.00453576
-0.00337255
0.00403011
-0.00346838
0.00341181
-0.00336593
0.00273198
-0.00309883
0.00203977
-0.00271345
0.0013738
-0.00225278
0.000773666
-0.00177871
0.000267101
-0.00133443
-0.000109555
-0.000984515
-0.000353931
-0.000728838
-0.000495921
-0.000542864
-0.000573004
-0.000386896
-0.000613687
-0.000246957
-0.000629573
-0.000114658
-0.000625612
1.21009e-05
-0.00060396
0.000135415
-0.000565995
0.000258962
-0.000514048
0.000387516
-0.000452789
0.000527208
-0.000390781
0.000686097
-0.000343242
0.000875663
-0.000338903
0.00111563
-0.00043257
0.00145373
-0.000690973
0.00206067
-0.0012112
0.00319955
-0.00219785
0.00442212
-0.00244633
0.00435181
0.00173094
-0.0015759
0.00262021
0.00112028
0.0017045
0.0033521
0.0019504
0.00435469
0.00224436
0.00485856
0.00195616
0.00517306
0.00131753
0.00540111
0.000525996
0.00557913
-0.00030251
0.00567837
-0.00108942
0.00563642
-0.00176832
0.00540227
-0.00228651
0.0049642
-0.00261702
0.00435004
-0.00275839
0.00361273
-0.00273108
0.00281277
-0.00256598
0.00200081
-0.00228688
0.0012265
-0.00193914
0.000521955
-0.00154824
-6.18317e-05
-0.00119492
-0.000482986
-0.000913277
-0.000741881
-0.000725616
-0.000888132
-0.00058258
-0.000970714
-0.000460275
-0.00101586
-0.000341745
-0.00103917
-0.000223643
-0.00104639
-0.000107447
-0.00103843
4.14182e-06
-0.00101394
0.000110924
-0.000971385
0.000216401
-0.000911045
0.000327175
-0.000836204
0.000452365
-0.000754436
0.000604328
-0.000679401
0.000800622
-0.000633342
0.00106957
-0.000646987
0.00146742
-0.000708264
0.0021222
-0.000715578
0.00320735
-0.000917222
0.00462419
-0.00102344
0.00445847
0.000864377
0.00288197
0.00457128
0.00487205
0.00164964
0.00535878
0.00175763
0.00559525
0.00171969
0.00582651
0.00108627
0.00601387
0.000338649
0.00608045
-0.000369056
0.00595454
-0.000963458
0.0056024
-0.00141614
0.00503634
-0.00172043
0.00430304
-0.00188371
0.0034605
-0.00191585
0.00256759
-0.00183817
0.00168024
-0.00167864
0.000832672
-0.00143932
7.01408e-05
-0.00117662
-0.000544179
-0.000933926
-0.000968324
-0.000770775
-0.00122404
-0.000657547
-0.00137254
-0.0005771
-0.00145501
-0.000500099
-0.00150118
-0.000414082
-0.00152615
-0.000316777
-0.00153743
-0.000212364
-0.00153772
-0.000107171
-0.00152644
-7.14521e-06
-0.00150071
8.51787e-05
-0.00145683
0.000172519
-0.00139248
0.000262825
-0.00130788
0.00036777
-0.00120601
0.000502453
-0.00109176
0.000686345
-0.000967968
0.00094572
-0.000821464
0.00132087
-0.000583125
0.00188394
-0.000106974
0.00273155
0.000565253
0.00395235
0.00107228
0.00395189
0.00209857
0.00793048
0.00536737
0.00581038
0.00387773
0.00556278
0.0019673
0.00563519
0.0010139
0.00560104
0.000372859
0.00535911
-0.000127068
0.00489716
-0.000501468
0.0042549
-0.000773852
0.00348546
-0.000950982
0.00264165
-0.0010399
0.00176439
-0.0010386
0.000891301
-0.000965096
5.94605e-05
-0.000846809
-0.000667037
-0.000712825
-0.0012264
-0.000617259
-0.00160695
-0.00055337
-0.00184973
-0.000527986
-0.00199304
-0.000514197
-0.00207854
-0.000491559
-0.00213053
-0.000448072
-0.00216211
-0.000382477
-0.00217983
-0.000299052
-0.00218731
-0.000204911
-0.00218635
-0.000108173
-0.00217709
-1.64441e-05
-0.00215741
6.54712e-05
-0.00212332
0.000138415
-0.0020704
0.000209919
-0.00199387
0.000291253
-0.00188706
0.000395655
-0.00173972
0.000538959
-0.00153511
0.000740982
-0.0012395
0.00102505
-0.000772167
0.0014164
-3.64236e-06
0.00196296
0.00107345
0.00287544
0.00158619
0.0034394
0.0038559
0.00408894
0.00152499
0.00449093
0.00347575
0.00372451
0.00273374
0.00322804
0.00151042
0.0028889
0.000712056
0.00252647
0.000235416
0.00208082
-5.57974e-05
0.00153979
-0.000232829
0.000921767
-0.000332973
0.000243765
-0.000361916
-0.000455673
-0.000339172
-0.0011155
-0.000305286
-0.00168044
-0.000281901
-0.00211415
-0.000279127
-0.00242114
-0.000310267
-0.00261736
-0.000357127
-0.00274221
-0.000403085
-0.00282595
-0.000430376
-0.00288715
-0.000430282
-0.00293399
-0.000401174
-0.00296983
-0.000346612
-0.00299586
-0.000273039
-0.00301246
-0.000188383
-0.0030199
-0.000100835
-0.00301906
-1.7388e-05
-0.00301119
5.75368e-05
-0.00299356
0.000120765
-0.00296086
0.000177265
-0.00290454
0.000235023
-0.0028109
0.000302092
-0.00265963
0.000387713
-0.00242253
0.000503777
-0.00205937
0.000661631
-0.00150533
0.000861971
-0.00062835
0.00108556
0.000798929
0.00144793
0.0014905
0.00274769
0.00552535
-0.00263596
-0.00681098
-0.00743184
-0.0074797
-0.00375688
-0.00214994
-0.00168349
0.00140239
-0.000769165
0.00181946
-0.000566439
0.00130774
-0.000641369
0.000787017
-0.000822438
0.0004165
-0.00105993
0.000181703
-0.00134874
5.59759e-05
-0.00169299
1.12477e-05
-0.0020701
1.51642e-05
-0.00244568
3.63812e-05
-0.0027935
4.24923e-05
-0.00308833
1.28965e-05
-0.00330543
-6.20261e-05
-0.00344377
-0.000171891
-0.00353102
-0.000269796
-0.00359603
-0.000337968
-0.0036542
-0.000372087
-0.00371096
-0.000373414
-0.00376664
-0.000345438
-0.00381994
-0.00029332
-0.00386935
-0.000223705
-0.00391317
-0.000144712
-0.00394861
-6.55817e-05
-0.00396962
3.43941e-06
-0.00396935
5.71399e-05
-0.00395025
0.000101622
-0.00391432
0.000141381
-0.00385987
0.000180719
-0.00378088
0.000223291
-0.00366662
0.000273653
-0.00350026
0.000337546
-0.00325055
0.000411913
-0.00286167
0.000472916
-0.00234752
0.000571051
-0.00202783
0.00112778
-0.00153702
0.00225641
0.00418343
-0.00738217
0.0010249
-0.00814814
-0.00671367
-0.00719365
-0.00310436
-0.00566912
-0.000122086
-0.00457631
0.000726706
-0.00398527
0.000716732
-0.00372651
0.00052827
-0.00365964
0.000349622
-0.00370082
0.000222843
-0.00379409
0.000149201
-0.00389839
0.000115474
-0.00398668
0.000103383
-0.00404542
9.50601e-05
-0.00407846
7.54866e-05
-0.00410128
3.57029e-05
-0.00413028
-3.29919e-05
-0.00417588
-0.000126203
-0.00424045
-0.000205095
-0.00432353
-0.000254734
-0.00442062
-0.000274853
-0.00452414
-0.000269799
-0.00462488
-0.000244674
-0.00471392
-0.000204357
-0.00478435
-0.00015343
-0.00483234
-9.69518e-05
-0.00485688
-4.12951e-05
-0.00485955
5.86205e-06
-0.00483497
3.23753e-05
-0.00478361
5.01583e-05
-0.00470834
6.6125e-05
-0.00460946
8.19377e-05
-0.00448291
9.6935e-05
-0.00431881
0.000109796
-0.0041006
0.000119589
-0.00380533
0.000116866
-0.00338435
5.21038e-05
-0.00264176
-0.000171414
-0.00113476
-0.000379209
-0.000109366
0.00123083
0.004282
0.00156677
-0.00508217
-0.00812343
-0.00818625
-0.00740542
-0.00664241
-0.00607456
-0.00569011
-0.00543543
-0.00525601
-0.00511087
-0.00497761
-0.00485195
-0.00474496
-0.00467701
-0.00467737
-0.004771
-0.00494388
-0.005167
-0.005411
-0.00565072
-0.00586602
-0.00604153
-0.00616645
-0.00623506
-0.00624806
-0.00621393
-0.00615333
-0.00607513
-0.00598131
-0.00587225
-0.00574897
-0.00561379
-0.00546994
-0.00533007
-0.00525633
-0.00540761
-0.00576832
-0.00452064
)
;

boundaryField
{
    floor
    {
        type            calculated;
        value           nonuniform List<scalar> 
36
(
0
0
0
0
0
0
0
0
0
0
0
0
0
0
0
0
0
0
0
-6.43884e-06
-1.68847e-05
-2.60344e-05
-3.4312e-05
-3.4936e-05
-2.87456e-05
-2.86912e-05
-2.91992e-06
-5.44134e-06
-5.68758e-06
-5.90785e-06
-4.85365e-06
-8.93855e-06
-1.02125e-05
-1.28336e-05
-1.44575e-05
-1.54451e-05
)
;
    }
    ceiling
    {
        type            calculated;
        value           nonuniform List<scalar> 
43
(
-5.7906e-05
-6.46642e-05
-6.30256e-05
-5.91953e-05
-5.40595e-05
-4.62509e-05
-3.95851e-05
-3.48655e-05
-3.18998e-05
-3.03113e-05
-2.97555e-05
-2.9962e-05
-3.06625e-05
-3.15331e-05
-3.22416e-05
-3.25673e-05
-3.2472e-05
-3.20828e-05
-3.14759e-05
-3.07531e-05
-3.00329e-05
-2.9419e-05
-2.89716e-05
-2.86987e-05
-2.85664e-05
-2.8516e-05
-2.84759e-05
-2.83686e-05
-2.81242e-05
-2.7692e-05
-2.70507e-05
-2.62033e-05
-2.51705e-05
-2.39832e-05
-2.26758e-05
-2.12805e-05
-1.98051e-05
-1.82512e-05
-1.67492e-05
-1.59858e-05
1.93396e-05
1.51877e-05
-0.000246559
)
;
    }
    sWall
    {
        type            calculated;
        value           nonuniform List<scalar> 9(-0.000140236 -0.000164519 -0.000194246 -0.000225963 -0.000245166 -0.000281099 -0.000423746 -0.000453659 -0.000483948);
    }
    nWall
    {
        type            calculated;
        value           nonuniform List<scalar> 
14
(
-9.03949e-05
-9.76948e-05
-0.0001031
-0.00010427
-0.000115929
-0.000129465
-0.000144053
-0.000156408
-0.000161583
-0.000171003
-0.000179105
-0.000195341
-0.000208257
-0.0002228
)
;
    }
    sideWalls
    {
        type            empty;
        value           nonuniform 0();
    }
    glass1
    {
        type            calculated;
        value           nonuniform List<scalar> 9(-6.40347e-05 -0.000170322 -0.000257925 -0.00033121 -0.000393195 -0.000446402 -0.000492216 -0.000535498 -0.000587176);
    }
    glass2
    {
        type            calculated;
        value           nonuniform List<scalar> 2(-0.000367089 -0.000385659);
    }
    sun
    {
        type            calculated;
        value           uniform 0;
    }
    Table_master
    {
        type            calculated;
        value           nonuniform List<scalar> 9(-1.53995e-07 -1.54111e-07 -1.54143e-07 -1.54164e-07 -1.54177e-07 -1.54181e-07 -1.5418e-07 -1.54165e-07 -1.54112e-07);
    }
    Table_slave
    {
        type            calculated;
        value           nonuniform List<scalar> 9(1.53663e-07 1.5372e-07 1.53719e-07 1.53736e-07 1.53757e-07 1.53801e-07 1.53868e-07 1.53961e-07 1.54089e-07);
    }
    inlet
    {
        type            calculated;
        value           uniform -0.0116482;
    }
    outlet
    {
        type            calculated;
        value           nonuniform List<scalar> 2(0.00987072 0.0122756);
    }
}


// ************************************************************************* //
