/*--------------------------------*- C++ -*----------------------------------*\
  =========                 |
  \\      /  F ield         | OpenFOAM: The Open Source CFD Toolbox
   \\    /   O peration     | Website:  https://openfoam.org
    \\  /    A nd           | Version:  6
     \\/     M anipulation  |
\*---------------------------------------------------------------------------*/
FoamFile
{
    version     2.0;
    format      ascii;
    class       volScalarField;
    location    "580";
    object      epsilon;
}
// * * * * * * * * * * * * * * * * * * * * * * * * * * * * * * * * * * * * * //

dimensions      [0 2 -3 0 0 0 0];

internalField   nonuniform List<scalar> 
458
(
0.000517304
0.000673087
0.000727234
0.000841919
0.000960591
0.00108765
0.00123398
0.00137683
0.00149201
0.00154782
0.00151346
0.00136122
0.000943098
0.000571667
0.000342386
5.02478e-05
8.12247e-05
0.00011766
0.000132236
0.000125589
0.000103643
8.27244e-05
6.65124e-05
5.42312e-05
4.48214e-05
3.75181e-05
3.18028e-05
2.72133e-05
2.34101e-05
2.01259e-05
1.71348e-05
1.54545e-05
1.2011e-05
0.00123452
0.00180406
0.000618275
0.000601833
0.000628685
0.000685986
0.000783822
0.000906915
0.00102078
0.00107999
0.00105306
0.00094273
0.000736022
0.000545488
0.000409544
0.000660822
0.000427838
0.000253485
4.82711e-05
8.81259e-05
0.000105564
0.000106758
0.000103411
0.000105868
8.40933e-05
6.47251e-05
5.00942e-05
3.92273e-05
3.11466e-05
2.51153e-05
2.05222e-05
1.70398e-05
1.48686e-05
1.40487e-05
4.04126e-05
2.66244e-05
0.00217192
0.00424213
0.000701221
0.000546529
0.000568151
0.000641318
0.000760325
0.000909364
0.00103707
0.00110023
0.00108055
0.000980935
0.000793201
0.000598712
0.000446098
0.000369083
0.000329852
0.000353889
0.0001483
0.000149404
0.000134766
0.000121504
0.000115853
0.000238062
0.000158895
0.000108546
7.67845e-05
5.63306e-05
4.27763e-05
3.35957e-05
2.72723e-05
2.30394e-05
1.80206e-05
1.63143e-05
8.70895e-05
4.36564e-05
0.00341797
0.00864583
0.00100664
0.000522828
0.000529818
0.000621344
0.000778653
0.000975883
0.00111648
0.00117822
0.0011591
0.00104979
0.000842247
0.00062497
0.000453196
0.000344678
0.000292204
0.000322648
0.000474349
0.000354343
0.000240704
0.000182254
0.000149004
0.000135208
0.000329369
0.000253297
0.000209226
0.000179943
0.000156839
0.000135967
0.000117725
0.000100199
8.19601e-05
4.97349e-05
3.27803e-05
0.000162757
6.48705e-05
0.00508751
0.0154587
0.00184499
0.000544492
0.000492054
0.000611795
0.000871341
0.00115842
0.00130437
0.00135176
0.00131361
0.00116277
0.000909502
0.000641766
0.000441677
0.000323606
0.000262832
0.000263366
0.000308283
0.000265499
0.000224376
0.000191828
0.000162484
0.000136847
0.00012864
0.000119372
0.000113181
0.000107392
0.000100162
9.10154e-05
8.14631e-05
7.2146e-05
6.33357e-05
5.12742e-05
4.02376e-05
0.000102167
0.000159707
0.000155072
0.0001782
0.000224511
0.00738442
0.0232431
0.00408048
0.000821826
0.000526836
0.000633042
0.0011615
0.00151228
0.00162533
0.00162898
0.00154383
0.00133415
0.00100105
0.000655113
0.000408566
0.00027847
0.000230321
0.000234157
0.000254041
0.00025247
0.000235321
0.000206736
0.000173598
0.000143007
0.000124111
0.000117709
0.00011723
0.000116733
0.000113235
0.000105117
9.21166e-05
7.84432e-05
6.60292e-05
5.49125e-05
4.79183e-05
7.04442e-05
0.000119642
0.000141105
0.000255979
0.000251722
0.0102608
0.0279948
0.00884995
0.00268219
0.00141497
0.00138338
0.0019468
0.00212067
0.00211645
0.00202288
0.00185305
0.00154783
0.0011016
0.000657885
0.000363192
0.000233484
0.000206761
0.000225871
0.000251348
0.000255952
0.000237461
0.000205452
0.000171366
0.00014398
0.000130171
0.000129961
0.000136065
0.000142941
0.000147899
0.000148309
0.00013932
0.000122542
0.000106421
9.30683e-05
8.75171e-05
0.0001015
0.00014663
0.000224497
0.000424095
0.000430655
0.0110969
0.0322191
0.0169489
0.00948431
0.00571491
0.00433543
0.00360872
0.00315934
0.00282313
0.00252889
0.00221797
0.00176837
0.0011645
0.000610779
0.000297783
0.000212124
0.000206929
0.000228257
0.000246066
0.000241397
0.000217362
0.00018673
0.000160687
0.000145135
0.000141717
0.000148184
0.000160721
0.000177415
0.000198035
0.000222445
0.000249218
0.000267644
0.000281407
0.000313966
0.000380612
0.000572968
0.00103062
0.00184612
0.00571646
0.00158803
0.0104895
0.0185596
0.0144219
0.0107909
0.00806592
0.00624828
0.00501714
0.00418242
0.00353975
0.00302387
0.00254806
0.00188959
0.00106261
0.000466066
0.000269896
0.000222923
0.000221498
0.000230084
0.00023083
0.000218002
0.000196748
0.000175692
0.000161149
0.000155132
0.000157002
0.000165342
0.000179472
0.000200283
0.000230064
0.000272172
0.000330925
0.000411073
0.000520138
0.000681286
0.000915445
0.00122409
0.00156595
0.00186189
0.00209368
0.00123637
0.0044486
0.0058911
0.00624407
0.00600731
0.00546619
0.00469725
0.00382413
0.00313715
0.00253058
0.00151867
0.000748119
0.000414121
0.000306737
0.000276668
0.00027085
0.000269542
0.000264073
0.000252591
0.000238529
0.000225562
0.000215914
0.000209991
0.000207471
0.000208164
0.00021246
0.000221701
0.000238421
0.000266659
0.000312584
0.000382718
0.000483893
0.000624064
0.000804178
0.000998668
0.00114166
0.00115279
0.000996811
0.000643509
0.00359822
0.0105929
0.00966534
0.00797637
0.00622946
0.00424744
0.00255306
0.00149169
0.000972212
0.000657371
0.000509557
0.000456456
0.000442918
0.000443826
0.000446781
0.000445284
0.000435706
0.000417385
0.000395516
0.000374213
0.000354576
0.000336846
0.000321445
0.000309353
0.000302173
0.000301958
0.000311099
0.000332476
0.000370455
0.000430759
0.000519871
0.000643753
0.000802597
0.000984878
0.0011332
0.00126194
0.00084652
0.000669556
0.00410016
0.00435672
0.00462016
0.00647537
0.00489004
0.00282913
0.00146904
0.0010418
0.000783479
0.000651602
0.000574537
0.00050412
0.000446972
0.000407696
0.000381576
0.000360444
0.000338901
0.000314913
0.000290511
0.000270567
0.000254966
0.000243808
0.000236784
0.000233525
0.000233956
0.000238339
0.000247238
0.000261554
0.000282743
0.000313382
0.00035428
0.00040734
0.000475043
0.000560508
0.000666901
0.000816697
0.000886531
0.000833895
0.000673237
0.000530741
)
;

boundaryField
{
    floor
    {
        Cmu             0.09;
        kappa           0.41;
        E               9.8;
        type            epsilonWallFunction;
        value           nonuniform List<scalar> 
36
(
0.000342386
5.02478e-05
8.12247e-05
0.00011766
0.000132236
0.000125589
0.000103643
8.27244e-05
6.65124e-05
5.42312e-05
4.48214e-05
3.75181e-05
3.18028e-05
2.72133e-05
2.34101e-05
2.01259e-05
1.71348e-05
1.54545e-05
1.2011e-05
1.2011e-05
2.66244e-05
4.36564e-05
6.48705e-05
0.000155072
0.0001782
0.000224511
0.000342386
0.000660822
0.000427838
0.000253485
5.02478e-05
0.000253485
4.82711e-05
0.000353889
0.0001483
0.000474349
)
;
    }
    ceiling
    {
        Cmu             0.09;
        kappa           0.41;
        E               9.8;
        type            epsilonWallFunction;
        value           nonuniform List<scalar> 
43
(
0.00410016
0.00435672
0.00462016
0.00647537
0.00489004
0.00282913
0.00146904
0.0010418
0.000783479
0.000651602
0.000574537
0.00050412
0.000446972
0.000407696
0.000381576
0.000360444
0.000338901
0.000314913
0.000290511
0.000270567
0.000254966
0.000243808
0.000236784
0.000233525
0.000233956
0.000238339
0.000247238
0.000261554
0.000282743
0.000313382
0.00035428
0.00040734
0.000475043
0.000560508
0.000666901
0.000816697
0.000886531
0.000833895
0.000673237
0.000530741
0.0104895
0.0185596
0.00359822
)
;
    }
    sWall
    {
        Cmu             0.09;
        kappa           0.41;
        E               9.8;
        type            epsilonWallFunction;
        value           uniform 0.00410016;
    }
    nWall
    {
        Cmu             0.09;
        kappa           0.41;
        E               9.8;
        type            epsilonWallFunction;
        value           nonuniform List<scalar> 6(0.000224511 0.000251722 0.000430655 0.000643509 0.000669556 0.000530741);
    }
    sideWalls
    {
        type            empty;
    }
    glass1
    {
        Cmu             0.09;
        kappa           0.41;
        E               9.8;
        type            epsilonWallFunction;
        value           nonuniform List<scalar> 9(0.000517304 0.00123452 0.00217192 0.00341797 0.00508751 0.00738442 0.0102608 0.0110969 0.0104895);
    }
    glass2
    {
        Cmu             0.09;
        kappa           0.41;
        E               9.8;
        type            epsilonWallFunction;
        value           nonuniform List<scalar> 2(0.00158803 0.00123637);
    }
    sun
    {
        Cmu             0.09;
        kappa           0.41;
        E               9.8;
        type            epsilonWallFunction;
        value           nonuniform List<scalar> 
14
(
0.000517304
0.000673087
0.000727234
0.000841919
0.000960591
0.00108765
0.00123398
0.00137683
0.00149201
0.00154782
0.00151346
0.00136122
0.000943098
0.000571667
)
;
    }
    Table_master
    {
        Cmu             0.09;
        kappa           0.41;
        E               9.8;
        type            epsilonWallFunction;
        value           nonuniform List<scalar> 9(0.000238062 0.000158895 0.000108546 7.67845e-05 5.63306e-05 4.27763e-05 3.35957e-05 2.72723e-05 2.30394e-05);
    }
    Table_slave
    {
        Cmu             0.09;
        kappa           0.41;
        E               9.8;
        type            epsilonWallFunction;
        value           nonuniform List<scalar> 9(0.000329369 0.000253297 0.000209226 0.000179943 0.000156839 0.000135967 0.000117725 0.000100199 8.19601e-05);
    }
    inlet
    {
        type            turbulentMixingLengthDissipationRateInlet;
        mixingLength    0.01;
        phi             phi;
        k               k;
        value           uniform 0.000471671;
    }
    outlet
    {
        type            zeroGradient;
    }
}


// ************************************************************************* //
