/*--------------------------------*- C++ -*----------------------------------*=========                 |
  \      /  F ield         | OpenFOAM: The Open Source CFD Toolbox
   \    /   O peration     | Website:  https://openfoam.org
    \  /    A nd           | Version:  6
     \/     M anipulation  |
\*---------------------------------------------------------------------------*/
FoamFile
{
    version     2.0;
    format      ascii;
    class       volScalarField;
    location    "580";
    object      PMV;
}
// * * * * * * * * * * * * * * * * * * * * * * * * * * * * * * * * * * * * * //

dimensions      [0 0 0 0 0 0 0];

internalField   nonuniform List<scalar> 
458
(
1.323998156679597
1.0779404400043242
1.044723060271851
1.0157930510510393
0.9978152066974723
0.9891626978533792
0.9917094647242694
1.005980099948993
1.0352610985430954
1.0833856920957146
1.1541046404978534
1.224188158300684
1.2404206832832287
1.2485366265358928
1.2609488164367844
1.3759716772510822
1.362610989795106
1.358793493919325
1.3654740664604152
1.3702457738275904
1.3740630605392055
1.36964174510254
1.3658222010503984
1.3667908998006115
1.368692182201702
1.3716796899836217
1.3749526599783457
1.3793167954478311
1.3862309804948814
1.3970463695956261
1.4055528923537062
1.4103236303877946
1.4241580738623107
1.2565382635349183
1.0899214438863747
1.0774144733902533
1.0488793728419123
1.0320466711344554
1.0236134557942187
1.0247287111285253
1.033128836782301
1.047980654173046
1.0721790838237315
1.1130551230493777
1.1739845521153482
1.237078761519906
1.2475818210272003
1.2542432155553536
1.2120676577963847
1.2124155537392047
1.2347634004586048
1.3293213251728164
1.3492494570586322
1.3492494570586322
1.356884720331069
1.3596686033902354
1.3593134261933317
1.3593852507510225
1.3605388572343526
1.3617253649272079
1.3620074745210378
1.3624536330728747
1.3637409400561826
1.3653320781500997
1.3684521030495582
1.3770592104034856
1.3855144907144552
1.3921941879580508
1.3757392303641858
1.2877763851002935
1.0809422770012675
1.1101271779809814
1.0950261622114457
1.0882778275401035
1.0841679627243292
1.0845749342642377
1.0809493552176062
1.0677619731695231
1.056049571062184
1.066866873024506
1.1157252637813677
1.2084058871362051
1.2542653950616716
1.2609488164367844
1.2638130923073765
1.2640280965925648
1.2450043815369025
1.2400896866212205
1.3036693342333086
1.3133103527129457
1.3216927000391012
1.3329411458320406
1.3365827504793382
1.3596288405786132
1.3740630605392055
1.3740630605392055
1.3740630605392055
1.374540216388822
1.375017371124961
1.375017371124961
1.3759716772510822
1.3788345687574428
1.3821745575776572
1.3746710079018873
1.3022799362854494
1.3625773771610479
1.0741357270546608
1.1337634468430635
1.1446767874658015
1.1617920281470393
1.1733517506018354
1.1753334086926872
1.1511586628385593
1.0942923294689766
1.0406965434390676
1.0282847256622076
1.0744276187783084
1.167276523511552
1.260752243607917
1.2743151875540444
1.2757472605728815
1.249540761752591
1.2248759391213668
1.1746874202430677
1.2412627917605719
1.2772053982960863
1.3031774415724284
1.3333042319016926
1.3679044896504475
1.3945427691656282
1.3883420091696825
1.3826312090942352
1.3819505575201412
1.3826880906155739
1.3857018418294496
1.3922745277688189
1.405460610033122
1.4287159095361712
1.4276674111619014
1.4136630743464338
1.3545414931142654
1.258251065672469
1.4566782535125222
1.0824172868210733
1.1512970286626163
1.18868858211538
1.244243176477893
1.2910443720070508
1.300177205803527
1.2271889660228998
1.1160862513581873
1.0265269760679936
0.9996596591708289
1.0483084584690845
1.1433206186791036
1.2465460741895078
1.2938861899282483
1.295795477891268
1.2841880582122127
1.2553581131837281
1.253971940217019
1.270275331619694
1.3017073151056093
1.342070989778047
1.3839369784663182
1.4243052158432032
1.4523006834067065
1.4639415616435514
1.4648601849981089
1.4644816658529098
1.462800604272311
1.4599035639833293
1.4578538676076847
1.4571846098623418
1.4568208622060155
1.4415223417007392
1.4146113379868681
1.3394986583834148
1.3398737215178427
1.3369241547189392
1.4215239815417806
1.2999761320019332
1.5542876845984206
1.1125427743061205
1.1825418944596595
1.2207383027122727
1.3058989807931016
1.3816974197153191
1.4180803885965267
1.2566886940054776
1.1148778147838734
1.0098871056065788
0.979336327691395
1.03269565515001
1.139093380786043
1.258399257822597
1.3220467087680527
1.3277738711485632
1.3258648325498992
1.3268193537991837
1.338676352691914
1.3592432317664405
1.3934425478867605
1.4255891630320277
1.4527776369723409
1.4751928943955672
1.492359894343822
1.5038034910067888
1.5114320664502854
1.5161997238018663
1.518106742695011
1.5171532364083193
1.5123856104511304
1.5057106719180748
1.4880650822971297
1.4585970227414577
1.4215554316546457
1.3507601959850235
1.3439250326431555
1.337300200032038
1.3622735836611564
1.3700868290520605
1.646638955642971
1.1993615999542238
1.301907999596255
1.27975078654493
1.3347333509680972
1.4141401328482925
1.348630678825121
1.22655812710532
1.0841354014903515
0.9803754573033678
0.9603039629025448
1.032261258963059
1.1617897156403776
1.305287780480977
1.3607022504372277
1.3712001021380136
1.372154426034341
1.3778802760787707
1.3960110553896357
1.421772899940144
1.4499158952504263
1.4766235497413538
1.4995122444651556
1.5171532364083193
1.5290716063243663
1.5362221431076564
1.540035611382686
1.541465634592309
1.540512287451381
1.5371755201061021
1.5309784520806262
1.5214439647328986
1.510955292109702
1.4936958679884034
1.4493016263921552
1.3871076937684117
1.357798956977905
1.3367796740243991
1.3091377055727964
1.4151961310328447
1.7872396179137375
1.5731078593450967
1.5145219812093913
1.3977806374414676
1.3765212322457308
1.3649457559261393
1.29360604184752
1.1514599148292766
1.0022862793554264
0.9206624209914985
0.9419852573178119
1.0606775107607276
1.2304057343813821
1.3702457738275904
1.4108006974906462
1.423204008081782
1.427497264125904
1.4375144574027245
1.4570701577254477
1.4809154379187779
1.5042802885376236
1.5243043785689718
1.539558933650886
1.5495688144110054
1.5557650329222483
1.5586247281747863
1.5586247281747863
1.5576715033352988
1.5548117873774685
1.5505220975798804
1.5443256359162612
1.5357454521339389
1.5252578370206382
1.5133391482003287
1.4999890557287003
1.485207208384667
1.475413477032644
1.4479704280481691
1.369020250681356
1.2825093169363464
1.9963153180383646
1.8488448243419038
1.6870937311082004
1.5441776276952734
1.4520488678009411
1.380136635298267
1.1852892166489692
0.9656972404273534
0.8343956511412209
0.8359830604257692
0.9546942171479853
1.1602005015716268
1.3559303271634782
1.435129463215518
1.464224111262368
1.4771004319815928
1.4856840644519496
1.4980818015761357
1.5147694430724696
1.5324085692898715
1.547662227704697
1.5595779460836614
1.565537296613284
1.5612336353371525
1.5555365235867877
1.5491718741261244
1.5414316268935861
1.53237205004319
1.5221545877951517
1.510722939136109
1.4975844892401866
1.482684126213384
1.468690177591733
1.4518762315094311
1.4323918344260829
1.4146196334661476
1.4031982547410806
1.3985140821421704
1.3886215830834217
1.3571568604306123
-1.6627618414335443
-0.7593584042943503
-0.20244769028361484
-0.0030254762496816448
0.14141972248208665
0.32797812642811286
0.5702673504025533
0.8478874360062248
1.142925895638284
1.3544987294766453
1.4542084895098168
1.4734032376567079
1.482225380621255
1.4907833247093218
1.5014441951313322
1.5137467204489439
1.5260483182251345
1.5344440381982682
1.5386488615378258
1.5388848146771434
1.536130421683916
1.5314719021084142
1.5252859369389
1.5174081230366339
1.5087920299102775
1.5001885024355333
1.4916105032129492
1.483709711560018
1.4780011952708154
1.4741622382711401
1.4713872872500828
1.4690424553561074
1.4671045481418588
1.4678147352857858
1.4783032196357564
1.5151251304678297
1.5823418292274631
1.4295375600782132
-1.674600955423641
-0.5897782251348453
-0.012804654072681084
0.3092465300314016
0.51973691134511
0.7800085748882518
1.050840487912002
1.28099813040295
1.3751030705084109
1.418759882604998
1.4474434027487066
1.463841634468576
1.4756383407523812
1.4847077403352344
1.4928116890629337
1.5002363043043374
1.5068110067358593
1.5114535253877717
1.514264412906741
1.514330430780021
1.5132207640750845
1.5105874085996365
1.5075544544324315
1.5042880929066462
1.5009567776518966
1.4977451178333305
1.4953665738792141
1.4942859812888736
1.4944626994905479
1.4971463475531788
1.5039500922398545
1.515065170335275
1.5278284969792422
1.5381694218768192
1.5488585282620169
1.5840372741246975
1.5315274916872101
1.4731451524001615
-1.1324248238116852
-1.131830026408998
-1.0083110581684054
-0.20776010190353777
0.376234108817753
0.7908181274587065
1.088778243145273
1.236250521941022
1.3245572140226225
1.378539156929117
1.4129498205581474
1.4373178005357763
1.452204851650776
1.4610439224901801
1.466102152479625
1.4695887147974305
1.4713714183332771
1.471305065265131
1.4697286907368419
1.4675063540754405
1.4644971194520644
1.461841596821398
1.458660354858663
1.4565853246659695
1.4547101352457064
1.4537258302070943
1.4538918894000679
1.4555772292188198
1.4593084027690248
1.4658268969477621
1.4752343870163998
1.4895798829979339
1.5133777908538466
1.5539132096628423
1.613421651427418
1.6191383049429116
1.5911211214843728
1.5315936744239478
1.4798934877525471
1.4934546204622068
)
;

boundaryField
{
    ".*"
    {
        type            zeroGradient;
    }
}


// ************************************************************************* //
