/*--------------------------------*- C++ -*----------------------------------*=========                 |
  \      /  F ield         | OpenFOAM: The Open Source CFD Toolbox
   \    /   O peration     | Website:  https://openfoam.org
    \  /    A nd           | Version:  6
     \/     M anipulation  |
\*---------------------------------------------------------------------------*/
FoamFile
{
    version     2.0;
    format      ascii;
    class       volScalarField;
    location    "580";
    object      PPD;
}
// * * * * * * * * * * * * * * * * * * * * * * * * * * * * * * * * * * * * * //

dimensions      [0 0 0 0 0 0 0];

internalField   nonuniform List<scalar> 
458
(
41.503783590740035
29.510973070081732
28.037603811557133
26.787000137048395
26.02554812385118
25.66343494966236
25.769722273333144
26.369862309057055
27.625186877069538
29.756222510013572
33.03228519700902
36.43354329277838
37.241264208677755
37.6477312657367
38.27264647246022
44.22956458104001
43.52414162017565
43.32315339510775
43.67504916135018
43.92687304892189
44.12860729578073
43.89497421423539
43.6934084592982
43.7445050231329
43.844840266830786
44.002623171451205
44.175655587728926
44.406651483027424
44.7732549534219
45.34820466054696
45.80163803227391
46.05638882733899
46.796861183867364
38.05014054916753
30.05194725739065
29.48733882300553
28.219794263752533
27.4858259306871
27.12201582504342
27.169977150874274
27.5327006389726
28.180346220656645
29.252616228148852
31.11042746868877
33.98224601475313
37.07439522144262
37.599823139886944
37.93455326786278
35.83512564193998
35.85224499895807
36.95895847350833
41.780584431374294
42.82181944291856
42.82181944291856
43.222755602134136
43.36920432157669
43.3505121639763
43.354291943135806
43.41501328875595
43.47749111415262
43.49234980248425
43.51585180521632
43.58368208402268
43.667561841400605
43.83216728403223
44.28711722368782
44.73522991583735
45.09004028970298
44.21726594473047
39.63633685854455
29.6460453338497
30.975459032994934
30.28394646834886
29.97743908161209
29.7915401225667
29.809922299665914
29.646364200739953
29.055331014366857
28.53556430060719
29.015436465504678
31.23376180157112
35.655143221545515
37.93566967065427
38.27264647246022
38.4174061641451
38.4282806632261
37.47061617253602
37.22472368867373
40.45216397722556
40.949798463815355
41.38408192318816
41.9691399078551
42.15909342311224
43.36711158438962
44.12860729578073
44.12860729578073
44.12860729578073
44.15384102174897
44.17907848384981
44.17907848384981
44.22956458104001
44.38111161811944
44.558082718909624
44.16075841275441
40.380615925933526
43.52237081381469
29.340227362910653
32.07312179641646
32.586085789937684
33.398178787966955
33.951820730784775
34.04713993909992
32.892556905144474
30.25054018180481
27.8617013213329
27.323210425589195
29.353308720144412
33.66034250205895
38.26271925082408
38.949910757897115
39.0227314406725
37.69813997128669
36.4676223212128
34.016054352584376
37.2833589591219
39.096928156278814
40.426828726187956
41.98806742286711
43.80326428951705
45.21495432022481
44.88533677156911
44.5822926261339
44.546208320416156
44.58530849967906
44.745172100506814
45.09431194308725
45.79671342281038
47.04135060601937
46.98508487404694
46.23489679210967
43.09959647470641
38.136490703171944
48.54650800743148
29.71253083589518
32.89911350760684
34.6926092676278
37.43249007208856
39.803621878031414
40.272415782608384
36.58232587646383
31.250454125331274
27.24740823945305
26.103108070044925
28.194731361829113
32.52213337193268
37.54788043100752
39.9492912690276
40.047263289566544
39.45293948310154
37.990687010168685
37.920899670526765
38.74475213767718
40.35114083088947
42.44586203816145
44.65153789590478
46.804750084547585
48.31032253841623
48.93879546675182
48.988444532839715
48.96798569391632
48.87714049297206
48.72064424112392
48.60996851839027
48.573839860496356
48.55420541816495
47.72963158138466
46.285613101231256
42.31138106426295
42.3309813199993
42.17691517391462
46.65568260060167
40.262074294414255
53.84703561164851
31.08678919757473
34.394871950614856
36.262801400293164
40.56707022524264
44.53279028017116
46.471251289723746
38.05772146271214
31.194592206233708
26.535511523592163
25.25566949771762
27.51393192524735
32.323168375638616
38.143965225617656
41.40245527091754
41.70005848032849
41.60078352173335
41.6504118197227
42.26841812589952
43.34681825984484
45.15642644068421
46.87359937314522
48.33604663367929
49.54740358606011
50.47791713858153
51.09928759908767
51.51390947616055
51.77317834914288
51.87691107068475
51.8250429941114
51.56575573005288
51.20291723123442
50.24492605836086
48.65009142315685
46.65736770271805
42.901064759187896
42.54286997642653
42.19654788014233
43.506367037091785
43.918478552370715
58.86853968438527
35.21223554640085
40.36147003323115
39.22657098551831
42.062592198908916
46.26040996999524
42.78937391688492
36.551027957617634
29.790069638250586
25.298614766389377
24.476497437658523
27.495117517825747
33.39806844401569
40.53556075679252
43.42361558593174
43.97728389363749
44.027709930034185
44.33058121919106
45.29309028549094
46.66902003376424
48.18173556222551
49.6248662539539
50.86618887519568
51.8250429941114
52.47361391981847
52.862946692030135
53.07063388467528
53.14852281158035
53.096596514086485
52.914866036968185
52.577424248281766
52.05847517334148
51.487987815749335
50.55041757973384
48.14862382511282
44.81979423396435
43.27083449642007
42.16937281223121
40.734173810360836
46.31689577847687
66.34868575312443
54.87243677774646
51.681929898541284
45.38730263918219
44.25864478709705
43.64719209545647
39.93492289654037
32.90683280452191
26.21378109972298
22.899305452080185
23.739921685524777
28.740355822718058
36.74208797265121
43.92687304892189
46.08188087006761
46.745716301920694
46.97595551306796
47.51402492607514
48.56766180275606
49.85734598776071
51.12519331576374
52.21413152209542
53.044671615422075
53.58994098805911
53.927528155799564
54.08333980537284
54.08333980537284
54.03140267423749
53.87559093725089
53.64187639690886
53.30430926053505
52.83698767980041
52.26602270736533
51.61760582637751
50.892083924590665
50.08995765891931
49.55934594241513
48.07687992754258
43.862159511525086
39.367243453196416
76.58388223460653
69.50319555719796
61.050090384938144
53.29624680504982
48.29674199694897
44.45008082444692
34.527809988313166
24.69586436979074
19.686848431514832
19.74318442443777
24.24953318788421
33.32227645341999
43.1725810276749
47.385809077872544
48.95406568712144
49.65069059378713
50.11581122770882
50.788511184008385
51.695387995919596
52.65528789084403
53.48607206182452
54.13527673854374
54.459976150427806
54.22548863251827
53.91507786976876
53.568315737773354
53.14667047280409
52.653299507038994
52.09714267138369
51.47535544707994
50.76150833981952
49.953191606779214
49.195525803220605
48.28743200559913
47.23871714668848
46.28605682427744
45.67602151522846
45.426364735677495
44.90018553020014
43.23706563234357
59.74000565889607
17.145038513207112
5.849932414858827
5.000189482239762
5.414367054717374
7.236816796193196
11.811915717618078
20.169014505916408
32.50353057535699
43.097349762516416
48.41323214455626
49.45052599876381
49.92832985118702
50.39237491518534
50.97111885209169
51.639769456346926
52.30904633021506
52.76611978449821
52.995105795304006
53.007956491606116
52.85795180519444
52.60428980570908
52.26755206923647
51.838907747840054
51.37038746055211
50.90291602537229
50.437254313566505
50.00877886976062
49.69947399596964
49.49160899885745
49.34143014593072
49.21457929561702
49.10977785780035
49.14818077997396
49.71583240134242
51.71473235719435
55.37542557720907
47.08545230411258
60.37828424560024
12.290545540464151
5.003394061636854
6.987677205225978
10.64904780372332
17.82073433475739
28.30597614356148
39.29015752508506
44.183611659942265
46.50763135063637
48.048481422544135
48.933395136772795
49.57152047795674
50.062879878239556
50.50243379531523
50.90551221477818
51.2627143139628
51.515076198507906
51.66792245335589
51.67151270318002
51.61116828104134
51.467987156725535
51.30312008217811
51.12561735868001
50.944643756687526
50.770229918683164
50.641099116849304
50.58244538476289
50.59203701372481
50.73771954190555
51.10725271563745
51.711471335808746
52.40594386015456
52.9689944769486
53.55124482269797
55.4677618613117
52.607316386157564
49.436557496118226
32.010466533427504
31.982645264391593
26.4686211235217
5.895206693908122
7.947280722117597
18.181672046168572
30.000113976823172
37.03308534288214
41.5328269393182
44.36546778386238
46.19675755163383
47.503450306227016
48.30515420849224
48.78223637310591
49.055581470984734
49.24412669524592
49.34057151230104
49.33698131053632
49.25169846241119
49.13150471972749
48.968820930812186
48.82532692081273
48.65351096438299
48.54149220960888
48.44029760081485
48.38719342417537
48.39615179873246
48.48708605489751
48.68850371876744
49.040700820860096
49.54964996907736
50.32708906452982
51.6197071677049
53.826632743676946
57.06662412552218
57.37723847273642
55.853481862942374
52.610919723459354
49.801976952250925
50.53732474765327
)
;

boundaryField
{
    ".*"
    {
        type            zeroGradient;
    }
}


// ************************************************************************* //
