/*--------------------------------*- C++ -*----------------------------------*\
  =========                 |
  \\      /  F ield         | OpenFOAM: The Open Source CFD Toolbox
   \\    /   O peration     | Website:  https://openfoam.org
    \\  /    A nd           | Version:  6
     \\/     M anipulation  |
\*---------------------------------------------------------------------------*/
FoamFile
{
    version     2.0;
    format      ascii;
    class       volScalarField;
    location    "13200";
    object      epsilon;
}
// * * * * * * * * * * * * * * * * * * * * * * * * * * * * * * * * * * * * * //

dimensions      [0 2 -3 0 0 0 0];

internalField   nonuniform List<scalar> 
778
(
0.000253145
0.000306393
0.000303045
0.000344223
0.000385085
0.000424882
0.000464305
0.000504547
0.000547341
0.000595408
0.000643795
0.000692128
0.000742064
0.000798402
0.000860169
8.94019e-05
0.00026279
0.000269167
0.00025006
0.000220174
0.000184105
0.000152332
0.000126526
0.000105925
8.94686e-05
7.6319e-05
6.56635e-05
5.68627e-05
4.93919e-05
4.27793e-05
3.6526e-05
3.18217e-05
2.36027e-05
0.000797071
0.00144336
0.000287015
0.000259597
0.000261686
0.000267647
0.00027653
0.000289943
0.000310176
0.000340353
0.000379538
0.000430632
0.000499013
0.000600239
0.000785436
0.00112914
0.000978558
0.000858348
0.000512509
0.000369848
0.000294497
0.000243077
0.000204168
0.00018695
0.000154682
0.000124972
0.000100672
8.14728e-05
6.65173e-05
5.48188e-05
4.56314e-05
3.87098e-05
3.45225e-05
3.27698e-05
6.58269e-05
4.81171e-05
0.00163081
0.00407971
0.00040746
0.00024293
0.000229095
0.000231
0.000238209
0.000250467
0.000268357
0.000292608
0.000324718
0.000366778
0.000421182
0.000494941
0.000601414
0.000724733
0.000829729
0.00158442
0.00102794
0.000512628
0.000367988
0.000294504
0.000262267
0.000552032
0.000362938
0.000250884
0.000181375
0.000136287
0.0001059
8.47633e-05
6.98124e-05
5.94608e-05
4.51401e-05
3.7993e-05
0.000108249
7.08803e-05
0.00285391
0.00877203
0.000710084
0.000240736
0.000202471
0.000199998
0.000203163
0.000209781
0.000220587
0.000237491
0.00026317
0.000299917
0.000349156
0.000412347
0.000488107
0.000560341
0.000612347
0.000824047
0.00156425
0.000729142
0.000459909
0.000358355
0.000301938
0.000291819
0.000814433
0.00061298
0.000482134
0.000388616
0.000319165
0.000264326
0.000218753
0.000179012
0.000141852
8.3856e-05
5.49358e-05
0.000148778
9.46899e-05
0.00454671
0.0158304
0.00134687
0.00025838
0.00017573
0.000166777
0.000165779
0.00016775
0.000173906
0.000187403
0.000211639
0.000248324
0.000297767
0.000359368
0.000427891
0.000489304
0.000528572
0.000582324
0.000627101
0.000483017
0.000393382
0.000330967
0.000282265
0.000248617
0.000247841
0.000226781
0.000202921
0.000181004
0.000162606
0.000146445
0.000131792
0.000118226
0.000105097
8.45359e-05
6.42598e-05
0.000105346
0.000138982
0.000160559
0.000368468
0.000327411
0.00676474
0.0248826
0.00255459
0.000318167
0.000155544
0.000137057
0.000132113
0.000130677
0.000134443
0.000148532
0.000176681
0.000218061
0.000270826
0.000334222
0.000401884
0.00046281
0.000503067
0.000521631
0.000504621
0.000438114
0.000373725
0.000315593
0.000264717
0.000223384
0.000193299
0.000169637
0.000150809
0.000135602
0.000123255
0.000112701
0.000103253
9.45091e-05
8.60882e-05
7.59296e-05
6.53872e-05
7.76765e-05
9.99126e-05
0.000210039
0.00106803
0.000561175
0.00967384
0.0336409
0.00458583
0.000465226
0.000150872
0.000116344
0.000107082
0.000103272
0.000107065
0.000127897
0.000166104
0.00021589
0.000273385
0.000340288
0.000409638
0.000470777
0.000510413
0.000520551
0.000494308
0.000437596
0.000371826
0.000307482
0.000250557
0.000204445
0.000169752
0.000144556
0.000126317
0.00011272
0.000102254
9.36788e-05
8.61907e-05
7.93294e-05
7.28034e-05
6.61438e-05
6.03192e-05
6.38243e-05
7.69528e-05
0.000174725
0.0016076
0.000916199
0.0127611
0.0404083
0.00749287
0.000871977
0.000194408
0.000115413
9.73938e-05
9.1453e-05
9.86518e-05
0.000137672
0.000189239
0.00024627
0.000307213
0.000374221
0.00044538
0.000508707
0.000547911
0.000551259
0.000515872
0.000451668
0.000375618
0.000301056
0.000236546
0.000185996
0.000149323
0.000123979
0.000106701
9.45593e-05
8.57187e-05
7.87788e-05
7.28707e-05
6.75171e-05
6.24736e-05
5.76584e-05
5.39017e-05
5.58907e-05
7.10837e-05
0.00035187
0.00533053
0.00203159
0.0138288
0.0414554
0.0139363
0.00316671
0.000631102
0.000208317
0.000132781
0.000116029
0.000142482
0.000192873
0.000249216
0.000306454
0.000367665
0.000437346
0.000512095
0.000576782
0.000611722
0.000603667
0.000552468
0.000471222
0.000378748
0.000291143
0.000218416
0.000164108
0.000126816
0.000102625
8.72915e-05
7.73488e-05
7.06581e-05
6.5647e-05
6.14347e-05
5.75909e-05
5.39424e-05
5.05463e-05
4.8245e-05
5.27415e-05
0.000104617
0.00105686
0.0132794
0.00308435
0.0130045
0.0283636
0.0144166
0.00572965
0.00210658
0.000835884
0.000414335
0.000277179
0.000279197
0.000314622
0.000356071
0.000401881
0.000459211
0.000532097
0.000611542
0.000675429
0.000699677
0.000671172
0.000594191
0.000487111
0.000373129
0.000271134
0.00019146
0.000135944
0.00010078
7.99418e-05
6.80118e-05
6.12245e-05
5.71241e-05
5.41536e-05
5.15728e-05
4.90804e-05
4.66124e-05
4.43689e-05
4.36939e-05
5.68371e-05
0.000278618
0.00366706
0.0100523
0.00317519
0.0106876
0.0193502
0.0120377
0.00630182
0.00317624
0.00167606
0.000987647
0.000679611
0.000560388
0.000517502
0.000510555
0.000531922
0.000584875
0.000664689
0.000749643
0.00080677
0.000808185
0.000744461
0.000628407
0.000486685
0.000348351
0.000234265
0.000152963
0.000102065
7.37331e-05
5.89331e-05
5.14771e-05
4.80176e-05
4.61971e-05
4.4855e-05
4.35214e-05
4.20465e-05
4.04973e-05
3.93002e-05
4.07395e-05
6.80065e-05
0.000586079
0.00350457
0.00769552
0.00305412
0.00806896
0.0137646
0.00969
0.00593334
0.00357021
0.00222803
0.00149128
0.00109353
0.000869631
0.000743793
0.000686291
0.000691186
0.000752665
0.000847642
0.000934887
0.000969867
0.000926233
0.000805469
0.000635289
0.000453154
0.000294154
0.000178235
0.000107372
6.97202e-05
5.2675e-05
4.45331e-05
4.07009e-05
3.92608e-05
3.86539e-05
3.81915e-05
3.76091e-05
3.68795e-05
3.62664e-05
3.65708e-05
4.09337e-05
7.27878e-05
0.000465776
0.00272705
0.00706565
0.00301518
0.00612125
0.0101657
0.00778932
0.00531194
0.0035701
0.00246928
0.00178824
0.00136849
0.00109319
0.000926403
0.000860143
0.000888771
0.000986172
0.00110108
0.00117167
0.00115003
0.00102543
0.00082105
0.000587
0.000370103
0.000209311
0.000115078
7.22223e-05
5.22892e-05
4.29216e-05
3.82658e-05
3.59737e-05
3.50743e-05
3.47334e-05
3.4518e-05
3.43443e-05
3.44419e-05
3.5504e-05
3.9157e-05
5.02178e-05
9.27478e-05
0.000392575
0.00217084
0.00545233
0.00365206
0.00618597
0.00780922
0.00680301
0.00473863
0.0033651
0.00246216
0.00186579
0.00146234
0.0011947
0.00106522
0.00107225
0.00118394
0.00133386
0.00144051
0.00143748
0.00129664
0.0010472
0.000741146
0.000457961
0.000239145
0.000131087
8.12544e-05
5.92822e-05
4.87043e-05
4.29824e-05
3.95579e-05
3.74167e-05
3.61257e-05
3.54806e-05
3.51901e-05
3.54663e-05
3.72909e-05
4.31074e-05
5.84403e-05
9.55358e-05
0.000184651
0.000476623
0.00206609
0.00434061
0.0038596
0.00454798
0.00511495
0.00418546
0.00336177
0.00263945
0.00206968
0.0016485
0.00136137
0.00124486
0.00130192
0.00148184
0.00169185
0.00182768
0.00181429
0.00162916
0.00129334
0.000903866
0.000519259
0.000277957
0.000153469
9.96416e-05
7.65276e-05
6.53451e-05
5.87869e-05
5.43422e-05
5.10488e-05
4.84401e-05
4.62977e-05
4.4892e-05
4.45556e-05
4.59292e-05
5.18178e-05
6.92909e-05
0.000113631
0.000212965
0.000418204
0.000868983
0.00215037
0.00468235
0.00358579
0.00139984
0.00142971
0.001431
0.00135107
0.00130829
0.00142101
0.00170743
0.00204586
0.00231098
0.00240786
0.0022867
0.00196605
0.00151465
0.000971464
0.000561523
0.000307667
0.000182756
0.000129959
0.000108319
9.78709e-05
9.15748e-05
8.72254e-05
8.4103e-05
8.17899e-05
7.98384e-05
7.77951e-05
7.55379e-05
7.53287e-05
7.82583e-05
8.88116e-05
0.000118531
0.000192479
0.000358362
0.000700283
0.0013714
0.00258155
0.00437826
0.00309762
0.00118818
0.00171126
0.0019469
0.00230178
0.00274964
0.00315579
0.00333931
0.0033081
0.00308405
0.00268807
0.00211488
0.001491
0.000956415
0.000558272
0.000329257
0.000222423
0.000180196
0.000163714
0.000156047
0.000151616
0.000149057
0.000148203
0.000149073
0.000151448
0.00015466
0.000157558
0.000158751
0.000157588
0.000160626
0.000172401
0.00020437
0.000281424
0.000452
0.000805458
0.00150819
0.00284251
0.00508463
0.0029692
0.00742318
0.00812532
0.00481818
0.0033963
0.00372352
0.00413238
0.00414382
0.00393394
0.00358094
0.00312882
0.00261953
0.00207047
0.00151538
0.00102508
0.000663871
0.000449664
0.000350952
0.000313131
0.000299071
0.000292151
0.000286923
0.00028231
0.00027887
0.000277685
0.000279859
0.000286215
0.000296998
0.000311465
0.000327485
0.000341675
0.000352082
0.000374642
0.000419248
0.000503119
0.000666168
0.000987393
0.00163287
0.00299816
0.0050011
0.00411686
0.00650377
0.00514402
0.00435858
0.00461243
0.00452867
0.00426012
0.00367991
0.00303474
0.00245102
0.00196029
0.00155794
0.00122892
0.000963134
0.000762515
0.000628248
0.00055387
0.000519899
0.000507408
0.000504694
0.00050576
0.000507966
0.00051081
0.000515276
0.000523407
0.000537954
0.00056207
0.000598938
0.000651186
0.000719915
0.000803327
0.000895149
0.000983921
0.00108289
0.00121857
0.00143629
0.00180894
0.00247055
0.00393975
0.0050204
0.00485403
0.00535512
0.00337261
0.00332381
0.00362563
0.00389061
0.00356166
0.00296676
0.00235417
0.00182267
0.00138857
0.0010434
0.000780288
0.00059687
0.00048678
0.000434911
0.000418104
0.000419562
0.000429173
0.000441903
0.000455589
0.000469745
0.000485127
0.000503577
0.000527987
0.000562265
0.000611148
0.000679556
0.00077136
0.000887999
0.00102805
0.00118874
0.00136941
0.00157496
0.00180643
0.00207628
0.0024026
0.00279716
0.00328525
0.00390146
0.00365821
)
;

boundaryField
{
    floor
    {
        Cmu             0.09;
        kappa           0.41;
        E               9.8;
        type            epsilonWallFunction;
        value           nonuniform List<scalar> 
36
(
0.000860169
8.94019e-05
0.00026279
0.000269167
0.00025006
0.000220174
0.000184105
0.000152332
0.000126526
0.000105925
8.94686e-05
7.6319e-05
6.56635e-05
5.68627e-05
4.93919e-05
4.27793e-05
3.6526e-05
3.18217e-05
2.36027e-05
2.36027e-05
4.81171e-05
7.08803e-05
9.46899e-05
0.000160559
0.000368468
0.000327411
0.000860169
0.00112914
0.000978558
0.000858348
8.94019e-05
0.000858348
0.000512509
0.00158442
0.00102794
0.00156425
)
;
    }
    ceiling
    {
        Cmu             0.09;
        kappa           0.41;
        E               9.8;
        type            epsilonWallFunction;
        value           nonuniform List<scalar> 
43
(
0.00535512
0.00337261
0.00332381
0.00362563
0.00389061
0.00356166
0.00296676
0.00235417
0.00182267
0.00138857
0.0010434
0.000780288
0.00059687
0.00048678
0.000434911
0.000418104
0.000419562
0.000429173
0.000441903
0.000455589
0.000469745
0.000485127
0.000503577
0.000527987
0.000562265
0.000611148
0.000679556
0.00077136
0.000887999
0.00102805
0.00118874
0.00136941
0.00157496
0.00180643
0.00207628
0.0024026
0.00279716
0.00328525
0.00390146
0.00365821
0.00454798
0.00511495
0.00118818
)
;
    }
    sWall
    {
        Cmu             0.09;
        kappa           0.41;
        E               9.8;
        type            epsilonWallFunction;
        value           nonuniform List<scalar> 9(0.0130045 0.0106876 0.00806896 0.00612125 0.00618597 0.00454798 0.00742318 0.00650377 0.00535512);
    }
    nWall
    {
        Cmu             0.09;
        kappa           0.41;
        E               9.8;
        type            epsilonWallFunction;
        value           nonuniform List<scalar> 
14
(
0.000327411
0.000561175
0.000916199
0.00317519
0.00305412
0.00301518
0.00365206
0.0038596
0.00358579
0.00309762
0.0029692
0.00411686
0.00485403
0.00365821
)
;
    }
    sideWalls
    {
        type            empty;
    }
    glass1
    {
        Cmu             0.09;
        kappa           0.41;
        E               9.8;
        type            epsilonWallFunction;
        value           nonuniform List<scalar> 9(0.000253145 0.000797071 0.00163081 0.00285391 0.00454671 0.00676474 0.00967384 0.0127611 0.0138288);
    }
    glass2
    {
        Cmu             0.09;
        kappa           0.41;
        E               9.8;
        type            epsilonWallFunction;
        value           nonuniform List<scalar> 2(0.00203159 0.00308435);
    }
    sun
    {
        Cmu             0.09;
        kappa           0.41;
        E               9.8;
        type            epsilonWallFunction;
        value           nonuniform List<scalar> 
14
(
0.000253145
0.000306393
0.000303045
0.000344223
0.000385085
0.000424882
0.000464305
0.000504547
0.000547341
0.000595408
0.000643795
0.000692128
0.000742064
0.000798402
)
;
    }
    Table_master
    {
        Cmu             0.09;
        kappa           0.41;
        E               9.8;
        type            epsilonWallFunction;
        value           nonuniform List<scalar> 9(0.000552032 0.000362938 0.000250884 0.000181375 0.000136287 0.0001059 8.47633e-05 6.98124e-05 5.94608e-05);
    }
    Table_slave
    {
        Cmu             0.09;
        kappa           0.41;
        E               9.8;
        type            epsilonWallFunction;
        value           nonuniform List<scalar> 9(0.000814433 0.00061298 0.000482134 0.000388616 0.000319165 0.000264326 0.000218753 0.000179012 0.000141852);
    }
    inlet
    {
        type            turbulentMixingLengthDissipationRateInlet;
        mixingLength    0.01;
        phi             phi;
        k               k;
        value           uniform 0.000471671;
    }
    outlet
    {
        type            zeroGradient;
    }
}


// ************************************************************************* //
