/*--------------------------------*- C++ -*----------------------------------*\
  =========                 |
  \\      /  F ield         | OpenFOAM: The Open Source CFD Toolbox
   \\    /   O peration     | Website:  https://openfoam.org
    \\  /    A nd           | Version:  6
     \\/     M anipulation  |
\*---------------------------------------------------------------------------*/
FoamFile
{
    version     2.0;
    format      ascii;
    class       volScalarField;
    location    "460";
    object      epsilon;
}
// * * * * * * * * * * * * * * * * * * * * * * * * * * * * * * * * * * * * * //

dimensions      [0 2 -3 0 0 0 0];

internalField   nonuniform List<scalar> 
458
(
0.000446313
0.000577182
0.000618879
0.000712916
0.000807761
0.000905282
0.00101081
0.00112522
0.00122453
0.00128906
0.001295
0.00122296
0.00105965
0.000755322
0.00033793
4.06369e-05
6.55416e-05
9.6267e-05
0.000110057
0.000105235
8.60761e-05
6.77713e-05
5.37954e-05
4.33856e-05
3.55263e-05
2.95023e-05
2.48265e-05
2.11249e-05
1.8096e-05
1.55073e-05
1.31691e-05
1.18318e-05
9.13803e-06
0.00108491
0.00160414
0.000536583
0.000521487
0.000538967
0.000573949
0.000633104
0.000719853
0.000815267
0.00089176
0.000919187
0.000881178
0.000784721
0.000642327
0.00051593
0.000777391
0.000445631
0.000240817
3.93713e-05
7.75055e-05
9.68858e-05
9.82591e-05
9.47225e-05
9.5223e-05
7.44865e-05
5.63373e-05
4.28823e-05
3.30785e-05
2.59119e-05
2.06261e-05
1.66783e-05
1.37343e-05
1.18726e-05
1.10887e-05
3.0198e-05
2.01956e-05
0.00194091
0.00386862
0.000621952
0.000474743
0.000484077
0.000529339
0.000606406
0.000715634
0.000834195
0.000924302
0.000958182
0.000925029
0.000833632
0.000691149
0.000538073
0.000434414
0.000369489
0.000403407
0.000141826
0.000143528
0.000131191
0.000117545
0.000109751
0.000210275
0.000140448
9.58206e-05
6.75531e-05
4.93036e-05
3.72015e-05
2.89691e-05
2.32866e-05
1.94332e-05
1.5221e-05
1.34118e-05
6.34797e-05
3.29694e-05
0.00310557
0.00801377
0.000926663
0.000454227
0.000445453
0.000501282
0.000601628
0.000753446
0.000903176
0.00100117
0.00103328
0.00099407
0.000889114
0.000731253
0.000571521
0.000451731
0.000382791
0.000395571
0.000613073
0.000392696
0.000257727
0.000188527
0.000149281
0.000131274
0.00030321
0.000232692
0.000191088
0.000163508
0.000142276
0.000123408
0.00010708
9.14921e-05
7.53439e-05
4.6249e-05
2.95773e-05
0.000112072
5.0089e-05
0.00470152
0.0144427
0.00177914
0.000488368
0.00041155
0.000472415
0.000622126
0.000879011
0.00106608
0.00116053
0.00117802
0.00111469
0.000975315
0.000783069
0.000587847
0.000439046
0.000348182
0.000317293
0.000319018
0.000267659
0.000222218
0.000186766
0.000156573
0.000130877
0.000121177
0.000110787
0.000103451
9.71312e-05
9.02524e-05
8.21245e-05
7.36335e-05
6.52972e-05
5.74392e-05
4.69055e-05
3.65681e-05
7.38295e-05
0.000111838
0.000119304
0.000142332
0.000183118
0.00693476
0.021751
0.00407804
0.000825252
0.000489798
0.000503154
0.000767794
0.00118617
0.00136568
0.00142409
0.0014018
0.00129972
0.00110985
0.000855734
0.000599797
0.000406359
0.000294121
0.00025302
0.000243182
0.000233111
0.000215398
0.000189747
0.000160406
0.000132698
0.000114342
0.000106417
0.000104073
0.000102645
9.96085e-05
9.33825e-05
8.30955e-05
7.16128e-05
6.07731e-05
5.08833e-05
4.39578e-05
5.54243e-05
8.72064e-05
0.000104968
0.0002051
0.000204537
0.00971705
0.0262187
0.00889555
0.00289556
0.00153497
0.00122823
0.00159373
0.00181634
0.00186245
0.00182179
0.00172155
0.00154802
0.00127838
0.000939705
0.000608936
0.000371833
0.000248966
0.000214854
0.000217765
0.00021853
0.000204574
0.000179529
0.00015161
0.000127962
0.000114666
0.000112534
0.000116419
0.000121868
0.000126531
0.000128279
0.000123735
0.000111111
9.79308e-05
8.66472e-05
8.13299e-05
8.95406e-05
0.00012116
0.000177276
0.000327149
0.000345583
0.0104949
0.0299608
0.016094
0.00972974
0.00610246
0.00435253
0.00351616
0.00297769
0.00262775
0.00237112
0.00212965
0.00183983
0.00145076
0.000998551
0.00057781
0.000313205
0.000203553
0.000188234
0.000193939
0.000190973
0.000174421
0.000151916
0.000131657
0.000118854
0.000115799
0.000121355
0.000132485
0.000147329
0.000165471
0.000186843
0.000210715
0.000231395
0.000245383
0.000273363
0.000329974
0.000481233
0.000820583
0.00137419
0.00407622
0.00127645
0.00987756
0.0172693
0.0132382
0.0099917
0.00753038
0.00583504
0.00464381
0.00386441
0.00334658
0.00293837
0.00254508
0.00210054
0.00153256
0.000932391
0.000410005
0.000224936
0.000168446
0.00015754
0.000154223
0.000145744
0.000131857
0.000117925
0.00010867
0.000106381
0.000111196
0.000122049
0.000138053
0.000159424
0.000187477
0.000224437
0.000273348
0.000337804
0.000424798
0.000548977
0.000729518
0.000969624
0.00124082
0.00148615
0.0016899
0.00104037
0.00342332
0.00466155
0.00510724
0.00507639
0.00483593
0.0044645
0.0039499
0.00332912
0.00269216
0.00202634
0.00114276
0.000522737
0.000248898
0.000158924
0.000129986
0.000119229
0.00011148
0.000102817
9.44861e-05
8.83498e-05
8.62489e-05
8.87234e-05
9.53865e-05
0.00010577
0.000119826
0.000138111
0.000161852
0.000193131
0.000235341
0.00029425
0.000375361
0.00048492
0.000625387
0.000780892
0.000905367
0.000940128
0.000869012
0.000542756
0.0028942
0.00880792
0.00855406
0.00745707
0.00634912
0.00500823
0.00364357
0.00231951
0.00133694
0.000722213
0.000366703
0.000205184
0.000140301
0.000112621
9.90975e-05
8.99844e-05
8.2107e-05
7.54363e-05
7.09741e-05
6.93566e-05
7.05916e-05
7.46018e-05
8.13625e-05
9.10647e-05
0.000104233
0.000121776
0.000145088
0.000176243
0.00021819
0.000274618
0.000350662
0.00045149
0.000577874
0.000719345
0.000830897
0.000942693
0.00073443
0.000564626
0.00338257
0.00364515
0.00389352
0.00537201
0.00453118
0.00315142
0.00193197
0.00123113
0.000881392
0.000607654
0.000413733
0.000294637
0.000211863
0.00016258
0.00013401
0.000115411
0.000101698
9.08e-05
8.24522e-05
7.71913e-05
7.53874e-05
7.69077e-05
8.14512e-05
8.84377e-05
9.76636e-05
0.000109276
0.000123629
0.000141318
0.000163309
0.00019124
0.000226492
0.000270491
0.000325416
0.000393987
0.000479261
0.000596771
0.000651926
0.000611802
0.000492598
0.000389739
)
;

boundaryField
{
    floor
    {
        Cmu             0.09;
        kappa           0.41;
        E               9.8;
        type            epsilonWallFunction;
        value           nonuniform List<scalar> 
36
(
0.00033793
4.06369e-05
6.55416e-05
9.6267e-05
0.000110057
0.000105235
8.60761e-05
6.77713e-05
5.37954e-05
4.33856e-05
3.55263e-05
2.95023e-05
2.48265e-05
2.11249e-05
1.8096e-05
1.55073e-05
1.31691e-05
1.18318e-05
9.13803e-06
9.13803e-06
2.01956e-05
3.29694e-05
5.0089e-05
0.000119304
0.000142332
0.000183118
0.00033793
0.000777391
0.000445631
0.000240817
4.06369e-05
0.000240817
3.93713e-05
0.000403407
0.000141826
0.000613073
)
;
    }
    ceiling
    {
        Cmu             0.09;
        kappa           0.41;
        E               9.8;
        type            epsilonWallFunction;
        value           nonuniform List<scalar> 
43
(
0.00338257
0.00364515
0.00389352
0.00537201
0.00453118
0.00315142
0.00193197
0.00123113
0.000881392
0.000607654
0.000413733
0.000294637
0.000211863
0.00016258
0.00013401
0.000115411
0.000101698
9.08e-05
8.24522e-05
7.71913e-05
7.53874e-05
7.69077e-05
8.14512e-05
8.84377e-05
9.76636e-05
0.000109276
0.000123629
0.000141318
0.000163309
0.00019124
0.000226492
0.000270491
0.000325416
0.000393987
0.000479261
0.000596771
0.000651926
0.000611802
0.000492598
0.000389739
0.00987756
0.0172693
0.0028942
)
;
    }
    sWall
    {
        Cmu             0.09;
        kappa           0.41;
        E               9.8;
        type            epsilonWallFunction;
        value           uniform 0.00338257;
    }
    nWall
    {
        Cmu             0.09;
        kappa           0.41;
        E               9.8;
        type            epsilonWallFunction;
        value           nonuniform List<scalar> 6(0.000183118 0.000204537 0.000345583 0.000542756 0.000564626 0.000389739);
    }
    sideWalls
    {
        type            empty;
    }
    glass1
    {
        Cmu             0.09;
        kappa           0.41;
        E               9.8;
        type            epsilonWallFunction;
        value           nonuniform List<scalar> 9(0.000446313 0.00108491 0.00194091 0.00310557 0.00470152 0.00693476 0.00971705 0.0104949 0.00987756);
    }
    glass2
    {
        Cmu             0.09;
        kappa           0.41;
        E               9.8;
        type            epsilonWallFunction;
        value           nonuniform List<scalar> 2(0.00127645 0.00104037);
    }
    sun
    {
        Cmu             0.09;
        kappa           0.41;
        E               9.8;
        type            epsilonWallFunction;
        value           nonuniform List<scalar> 
14
(
0.000446313
0.000577182
0.000618879
0.000712916
0.000807761
0.000905282
0.00101081
0.00112522
0.00122453
0.00128906
0.001295
0.00122296
0.00105965
0.000755322
)
;
    }
    Table_master
    {
        Cmu             0.09;
        kappa           0.41;
        E               9.8;
        type            epsilonWallFunction;
        value           nonuniform List<scalar> 9(0.000210275 0.000140448 9.58206e-05 6.75531e-05 4.93036e-05 3.72015e-05 2.89691e-05 2.32866e-05 1.94332e-05);
    }
    Table_slave
    {
        Cmu             0.09;
        kappa           0.41;
        E               9.8;
        type            epsilonWallFunction;
        value           nonuniform List<scalar> 9(0.00030321 0.000232692 0.000191088 0.000163508 0.000142276 0.000123408 0.00010708 9.14921e-05 7.53439e-05);
    }
    inlet
    {
        type            turbulentMixingLengthDissipationRateInlet;
        mixingLength    0.01;
        phi             phi;
        k               k;
        value           uniform 0.000471672;
    }
    outlet
    {
        type            zeroGradient;
    }
}


// ************************************************************************* //
