/*--------------------------------*- C++ -*----------------------------------*\
  =========                 |
  \\      /  F ield         | OpenFOAM: The Open Source CFD Toolbox
   \\    /   O peration     | Website:  https://openfoam.org
    \\  /    A nd           | Version:  6
     \\/     M anipulation  |
\*---------------------------------------------------------------------------*/
FoamFile
{
    version     2.0;
    format      ascii;
    class       volScalarField;
    location    "460";
    object      T;
}
// * * * * * * * * * * * * * * * * * * * * * * * * * * * * * * * * * * * * * //

dimensions      [0 0 0 1 0 0 0];

internalField   nonuniform List<scalar> 
458
(
302.752
302.474
302.461
302.458
302.454
302.451
302.447
302.442
302.435
302.427
302.418
302.415
302.419
302.434
302.475
302.628
302.605
302.597
302.603
302.61
302.616
302.622
302.628
302.634
302.64
302.645
302.651
302.657
302.662
302.668
302.675
302.683
302.708
302.937
302.508
302.482
302.483
302.485
302.485
302.483
302.477
302.462
302.439
302.415
302.401
302.403
302.419
302.439
302.449
302.459
302.481
302.634
302.582
302.578
302.586
302.597
302.601
302.604
302.606
302.609
302.611
302.614
302.616
302.619
302.623
302.629
302.637
302.65
302.691
303.132
302.553
302.513
302.522
302.535
302.545
302.549
302.544
302.518
302.472
302.423
302.393
302.393
302.413
302.434
302.446
302.455
302.474
302.59
302.568
302.57
302.586
302.606
302.606
302.607
302.609
302.61
302.611
302.612
302.614
302.615
302.617
302.623
302.63
302.642
302.686
303.332
302.611
302.545
302.563
302.593
302.62
302.639
302.638
302.596
302.517
302.435
302.385
302.382
302.41
302.439
302.456
302.463
302.472
302.481
302.5
302.53
302.566
302.602
302.634
302.66
302.678
302.693
302.706
302.716
302.724
302.731
302.736
302.739
302.71
302.68
302.663
302.688
303.529
302.686
302.58
302.596
302.639
302.689
302.733
302.742
302.676
302.558
302.443
302.375
302.373
302.409
302.451
302.479
302.489
302.495
302.51
302.537
302.573
302.614
302.656
302.692
302.723
302.746
302.764
302.778
302.788
302.793
302.793
302.789
302.78
302.757
302.722
302.69
302.691
302.783
302.864
302.866
303.707
302.785
302.635
302.626
302.667
302.726
302.803
302.821
302.726
302.574
302.437
302.362
302.363
302.413
302.474
302.518
302.54
302.551
302.573
302.605
302.645
302.688
302.728
302.763
302.791
302.813
302.828
302.839
302.845
302.846
302.84
302.83
302.815
302.792
302.759
302.722
302.707
302.746
302.776
302.818
303.863
302.948
302.78
302.73
302.739
302.785
302.864
302.856
302.729
302.549
302.4
302.331
302.351
302.427
302.514
302.578
302.614
302.636
302.662
302.695
302.733
302.772
302.807
302.835
302.857
302.873
302.883
302.889
302.89
302.887
302.878
302.863
302.844
302.821
302.792
302.758
302.737
302.744
302.758
302.789
304.094
303.411
303.215
303.076
303.004
302.995
302.996
302.875
302.659
302.443
302.305
302.277
302.347
302.466
302.587
302.666
302.709
302.734
302.759
302.79
302.822
302.852
302.878
302.897
302.911
302.919
302.923
302.923
302.92
302.914
302.905
302.891
302.873
302.852
302.83
302.806
302.793
302.799
302.82
302.969
304.424
304.107
303.861
303.622
303.432
303.295
303.065
302.709
302.38
302.184
302.141
302.222
302.388
302.561
302.711
302.774
302.805
302.826
302.849
302.873
302.896
302.916
302.932
302.942
302.948
302.949
302.949
302.946
302.942
302.937
302.933
302.93
302.93
302.935
302.948
302.971
303.005
303.042
303.07
303.136
297.608
299.291
300.324
300.753
300.931
301.138
301.392
301.694
302.001
302.288
302.581
302.75
302.831
302.867
302.887
302.904
302.921
302.937
302.951
302.961
302.968
302.972
302.973
302.973
302.972
302.971
302.97
302.97
302.97
302.971
302.974
302.982
302.996
303.016
303.043
303.071
303.096
303.121
297.969
299.367
300.213
300.668
301.019
301.39
301.777
302.189
302.501
302.702
302.826
302.889
302.919
302.937
302.95
302.962
302.972
302.98
302.986
302.99
302.992
302.993
302.993
302.993
302.993
302.992
302.992
302.993
302.993
302.994
302.997
303.003
303.012
303.026
303.044
303.066
303.067
303.102
299.485
299.445
299.442
300.488
301.147
301.695
302.171
302.492
302.679
302.808
302.888
302.933
302.962
302.98
302.991
302.999
303.005
303.01
303.014
303.016
303.017
303.017
303.016
303.016
303.015
303.014
303.013
303.012
303.011
303.011
303.01
303.011
303.012
303.014
303.018
303.027
303.038
303.047
303.05
303.092
)
;

boundaryField
{
    floor
    {
        type            wallHeatTransfer;
        Tinf            uniform 305.2;
        alphaWall       uniform 0.24;
        value           nonuniform List<scalar> 
36
(
302.783
303.107
303.039
302.995
302.988
302.998
303.022
303.05
303.078
303.105
303.131
303.155
303.179
303.202
303.224
303.247
303.271
303.291
303.341
303.341
303.234
303.176
303.135
303.135
303.19
303.172
302.783
302.701
302.748
302.815
303.107
302.815
303.115
302.769
302.954
302.746
)
;
    }
    ceiling
    {
        type            wallHeatTransfer;
        Tinf            uniform 303.2;
        alphaWall       uniform 0.24;
        value           nonuniform List<scalar> 
43
(
299.713
299.671
299.664
300.636
301.264
301.79
302.245
302.549
302.725
302.846
302.921
302.964
302.992
303.01
303.021
303.029
303.035
303.04
303.043
303.045
303.046
303.046
303.046
303.044
303.043
303.042
303.04
303.038
303.037
303.035
303.034
303.033
303.033
303.034
303.037
303.044
303.054
303.061
303.066
303.104
304.367
304.071
298.303
)
;
    }
    sWall
    {
        type            wallHeatTransfer;
        Tinf            uniform 315.2;
        alphaWall       uniform 0.36;
        value           uniform 300.895;
    }
    nWall
    {
        type            wallHeatTransfer;
        Tinf            uniform 307.2;
        alphaWall       uniform 0.36;
        value           nonuniform List<scalar> 6(303.668 303.61 303.494 303.706 303.684 303.73);
    }
    sideWalls
    {
        type            empty;
    }
    glass1
    {
        type            wallHeatTransfer;
        Tinf            uniform 315.2;
        alphaWall       uniform 4.3;
        value           nonuniform List<scalar> 9(311.26 310.618 310.209 309.897 309.635 309.395 309.195 309.256 309.481);
    }
    glass2
    {
        type            wallHeatTransfer;
        Tinf            uniform 307.2;
        alphaWall       uniform 4.3;
        value           nonuniform List<scalar> 2(305.559 305.68);
    }
    sun
    {
        type            wallHeatTransfer;
        Tinf            uniform 305.2;
        alphaWall       uniform 0.24;
        value           nonuniform List<scalar> 
14
(
303.01
302.743
302.727
302.714
302.703
302.692
302.682
302.671
302.66
302.649
302.641
302.641
302.653
302.689
)
;
    }
    Table_master
    {
        type            zeroGradient;
    }
    Table_slave
    {
        type            zeroGradient;
    }
    inlet
    {
        type            fixedValue;
        value           uniform 295.15;
    }
    outlet
    {
        type            zeroGradient;
    }
}


// ************************************************************************* //
