/*--------------------------------*- C++ -*----------------------------------*\
  =========                 |
  \\      /  F ield         | OpenFOAM: The Open Source CFD Toolbox
   \\    /   O peration     | Website:  https://openfoam.org
    \\  /    A nd           | Version:  6
     \\/     M anipulation  |
\*---------------------------------------------------------------------------*/
FoamFile
{
    version     2.0;
    format      ascii;
    class       volScalarField;
    location    "26199.999998739946";
    object      alphat;
}
// * * * * * * * * * * * * * * * * * * * * * * * * * * * * * * * * * * * * * //

dimensions      [1 -1 -1 0 0 0 0];

internalField   nonuniform List<scalar> 
778
(
0.00104099
0.00111052
0.0011065
0.00115452
0.00119853
0.00123851
0.00127575
0.00131166
0.00134782
0.00138625
0.00142293
0.00145779
0.00149214
0.00152907
0.00156759
0.000736893
0.00105562
0.00106427
0.00103859
0.000995543
0.000937947
0.000880514
0.000827606
0.000779928
0.000737199
0.000699137
0.000664951
0.000633808
0.000604736
0.000576439
0.000546849
0.000522255
0.00047268
0.00152466
0.00300719
0.00263923
0.00304624
0.00334148
0.00365447
0.00396671
0.00425452
0.00448632
0.00462146
0.00470103
0.00466873
0.00443627
0.00385974
0.00281914
0.00171651
0.00163661
0.00156657
0.0013184
0.0022462
0.00311391
0.00362675
0.00365103
0.00288106
0.002464
0.002175
0.00195559
0.00178098
0.00163203
0.00150041
0.00137798
0.00125821
0.00115072
0.00105804
0.00119133
0.000599257
0.00193415
0.00419861
0.00311332
0.00445321
0.0049757
0.00541773
0.00581919
0.0061726
0.00647217
0.00670732
0.00693525
0.00717532
0.00739621
0.00752808
0.00744187
0.00681419
0.00498372
0.00192159
0.00166352
0.00355853
0.00496627
0.00563284
0.00512323
0.00135204
0.00117577
0.00103975
0.000933277
0.000848519
0.000780087
0.000724264
0.000678863
0.000643468
0.000707374
0.000831982
0.00131659
0.000681685
0.0023291
0.00565811
0.00297898
0.00500691
0.00578043
0.00619403
0.00649803
0.00672291
0.00689086
0.00702728
0.00722131
0.00754933
0.0080281
0.00863014
0.00923528
0.00953355
0.00895204
0.00667673
0.00191385
0.00443379
0.00659367
0.0076908
0.00796194
0.00679768
0.00153928
0.00140016
0.0012925
0.00120297
0.00112664
0.00105807
0.000993406
0.000929185
0.00085984
0.000803286
0.000832414
0.00142454
0.000750574
0.00271837
0.00748999
0.00300536
0.00475945
0.00594881
0.00630135
0.00642903
0.0064336
0.0063695
0.006313
0.00639434
0.00671301
0.00729779
0.00812587
0.00908616
0.00997073
0.0105323
0.0105265
0.00944786
0.00961321
0.00983258
0.00986278
0.00966226
0.00904443
0.00719825
0.00621841
0.00554726
0.00500182
0.00446691
0.00394877
0.00344183
0.00293542
0.00241501
0.00185524
0.00141605
0.00141302
0.00111811
0.00089451
0.00117248
0.00112608
0.0031013
0.00953999
0.00353795
0.00401336
0.00569946
0.00609065
0.00605891
0.00584047
0.00552851
0.00527129
0.00526569
0.00559932
0.00626541
0.00722538
0.00834901
0.00947114
0.0104267
0.011037
0.0111482
0.0110357
0.0108389
0.0105603
0.0102032
0.00974933
0.00908727
0.00844948
0.00787042
0.00731048
0.00670605
0.00606063
0.00537117
0.00463166
0.00383739
0.00299479
0.00223278
0.00167659
0.00130121
0.00145447
0.00251838
0.00134872
0.00349204
0.0114351
0.00471425
0.00328786
0.00512089
0.00576093
0.00568951
0.00533635
0.0048243
0.00437372
0.00436042
0.00478106
0.00554302
0.00661562
0.00783681
0.00904553
0.0100857
0.0108306
0.0111729
0.0111457
0.0108998
0.0105279
0.0101028
0.00967915
0.00926973
0.00889415
0.00854144
0.00816494
0.00771043
0.00716338
0.00651553
0.00576361
0.00491056
0.00397881
0.00306956
0.00222215
0.00163667
0.001459
0.00255129
0.00158662
0.00382777
0.012868
0.0064266
0.0031306
0.0040564
0.00510678
0.00525305
0.00496288
0.00435774
0.00374489
0.00388325
0.0044392
0.00529078
0.00639593
0.00766391
0.00892933
0.0100088
0.0107587
0.011099
0.011054
0.0107366
0.010269
0.00976648
0.00932123
0.00897817
0.00873314
0.00854219
0.00833475
0.00804635
0.00764267
0.00710757
0.00643763
0.00563947
0.00473798
0.00380359
0.00286203
0.00201403
0.00133099
0.00363676
0.00206308
0.00392902
0.0121741
0.00794979
0.00404687
0.00275036
0.00336983
0.00394282
0.00399104
0.00352365
0.00342485
0.00378043
0.00443395
0.00535413
0.00652544
0.00785395
0.00915834
0.0102343
0.0109267
0.0111698
0.0110023
0.0105425
0.00993962
0.00934193
0.00886543
0.0085631
0.00841459
0.00834724
0.00826749
0.00810179
0.00781042
0.0073774
0.00680084
0.00608854
0.00526165
0.00435813
0.00334836
0.00200993
0.00161318
0.00544689
0.00235552
0.00384959
0.00981177
0.00820754
0.00555312
0.00366862
0.00284112
0.00269085
0.00281701
0.00305358
0.00343028
0.00396453
0.00469974
0.00569989
0.00696204
0.00836235
0.00968507
0.0107051
0.0112672
0.0113261
0.0109489
0.0102845
0.00952001
0.00883817
0.00837151
0.00815777
0.00813249
0.00817839
0.00817728
0.00806978
0.0078335
0.00746064
0.0069505
0.00630817
0.00554124
0.00461243
0.00322876
0.00156451
0.00279388
0.00558436
0.00239728
0.00360597
0.00838438
0.00793367
0.00635297
0.0048908
0.00393837
0.00346734
0.00336102
0.00355638
0.00391575
0.00443795
0.0052137
0.00631759
0.00770063
0.00917166
0.0104662
0.0113456
0.0116734
0.0114441
0.0107724
0.00985945
0.00894569
0.00825242
0.00790505
0.00786471
0.00797772
0.00809183
0.00809368
0.00798009
0.00775069
0.00740026
0.00692339
0.00631633
0.00555638
0.00443529
0.00249798
0.00174588
0.00346128
0.00528293
0.00236846
0.00328322
0.00755833
0.00765136
0.006723
0.00572075
0.00496598
0.00452166
0.00436305
0.00440363
0.00462121
0.00510127
0.00596798
0.00724377
0.00877486
0.0102764
0.011441
0.0120421
0.0119936
0.0113581
0.0103224
0.00916665
0.00820272
0.00765931
0.00754897
0.00764158
0.00778997
0.00788968
0.00786194
0.00773071
0.00749891
0.00715724
0.00669168
0.00608385
0.00526803
0.00373419
0.00180155
0.00221828
0.00375371
0.00486193
0.00228995
0.00299346
0.00675794
0.00730295
0.00686599
0.00622372
0.00568379
0.0053248
0.00514978
0.00509895
0.00528641
0.00589698
0.00702979
0.00857297
0.010229
0.0116317
0.0124749
0.0125973
0.0120048
0.0108638
0.00946263
0.00819602
0.00738712
0.00703126
0.00698089
0.00707286
0.00720357
0.00729461
0.00727459
0.0071479
0.00691634
0.00656672
0.00608049
0.00543575
0.00454108
0.00302913
0.0017747
0.00243212
0.00391182
0.00496512
0.00223706
0.00300332
0.00670621
0.00746021
0.00694734
0.00642785
0.00600236
0.00569579
0.00549784
0.00549319
0.00594769
0.00702471
0.00862909
0.0104365
0.0120321
0.0130509
0.0132777
0.0126868
0.0114116
0.00977376
0.0081928
0.00705197
0.00638041
0.00605223
0.00595211
0.00598978
0.00608996
0.0061812
0.00618179
0.00605474
0.00579749
0.00539255
0.00483441
0.00415106
0.00338543
0.0025297
0.00189923
0.00248689
0.00407399
0.00537001
0.00236008
0.00270955
0.0028195
0.00416529
0.00489766
0.00512533
0.00513056
0.00508284
0.00518184
0.00581692
0.00716138
0.00904405
0.0110679
0.0127928
0.013857
0.0140505
0.0133333
0.0118774
0.00995133
0.00811673
0.00668845
0.00572648
0.00515665
0.00486742
0.00474242
0.00470685
0.00471869
0.00473748
0.00469351
0.00451456
0.00419123
0.0037265
0.00318473
0.00268988
0.00234751
0.00217874
0.00219427
0.00278606
0.00453832
0.00542166
0.00242436
0.000965295
0.00174083
0.00267093
0.00341632
0.00428303
0.00575838
0.00792207
0.010311
0.0124707
0.014071
0.0148936
0.014802
0.0138067
0.0120102
0.00987808
0.00785889
0.0062593
0.00517633
0.00456105
0.00423398
0.00404077
0.00390442
0.00379566
0.0037023
0.00360977
0.00348524
0.00327928
0.00298977
0.00266297
0.00239434
0.00226878
0.00230504
0.00248288
0.00282581
0.00352492
0.0053284
0.00578708
0.00245468
0.00178713
0.00247195
0.00359736
0.00560721
0.00833174
0.0110483
0.0131434
0.0146389
0.0155247
0.0157474
0.0152017
0.0137852
0.0117169
0.00939956
0.00729113
0.00571106
0.00476605
0.00428302
0.00402342
0.00385116
0.0037167
0.00360662
0.00351682
0.00344118
0.0033666
0.0032702
0.00313227
0.00296682
0.0028159
0.00274052
0.00278658
0.00295839
0.00323765
0.00363482
0.00423808
0.0053572
0.00608389
0.00239099
0.00323878
0.00785524
0.00724746
0.00649409
0.0082479
0.010984
0.0132838
0.0148238
0.01562
0.0157971
0.0154529
0.0145563
0.0130684
0.0110647
0.00884234
0.0068455
0.00546237
0.00471566
0.00433168
0.00409176
0.00390688
0.0037567
0.00364465
0.00357715
0.00355454
0.00356727
0.00359487
0.00360761
0.0035874
0.00356013
0.00355315
0.00359317
0.00370045
0.0038772
0.00410297
0.00434374
0.00455951
0.00469162
0.00464187
0.00231467
0.00309581
0.00598325
0.00773922
0.00989924
0.0109841
0.0121006
0.0127463
0.0128945
0.0126351
0.0120305
0.0111058
0.00987934
0.00843411
0.00696788
0.00575561
0.00495091
0.00445196
0.00413149
0.00389182
0.00369178
0.00352681
0.00340787
0.00334894
0.00335953
0.00343951
0.00357545
0.00373819
0.00388277
0.00397141
0.0040392
0.00411919
0.00423284
0.00439175
0.00459894
0.00485063
0.00513581
0.00542703
0.00567645
0.00527034
0.0023921
0.00289489
0.0024801
0.00246702
0.00253754
0.00259495
0.00251343
0.00235824
0.00217784
0.00199758
0.00182775
0.00167193
0.00153349
0.00141806
0.00133207
0.00127762
0.00124961
0.00124202
0.00124334
0.00125082
0.00126479
0.00128613
0.00131491
0.00134996
0.00138905
0.0014297
0.00146993
0.0015088
0.00154667
0.00158464
0.00162341
0.00166577
0.00171441
0.00177127
0.00183723
0.00191161
0.0019911
0.00207065
0.00215653
0.00228588
0.00230999
)
;

boundaryField
{
    floor
    {
        type            compressible::alphatWallFunction;
        Prt             0.85;
        value           nonuniform List<scalar> 
36
(
0.000219917
0.000104492
0.000149971
0.00015118
0.000147586
0.000141537
0.000133396
0.000125219
0.000117631
0.000110743
0.000104529
9.8956e-05
9.39197e-05
8.93043e-05
8.49709e-05
8.07285e-05
7.62647e-05
7.2532e-05
6.49408e-05
6.494e-05
8.41525e-05
9.63901e-05
0.00010648
0.00012722
0.000166215
0.000159806
0.000219915
0.000239738
0.000229126
0.000219777
0.000104491
0.000219775
0.000186254
0.000266726
0.000232698
0.000265714
)
;
    }
    ceiling
    {
        type            compressible::alphatWallFunction;
        Prt             0.85;
        value           nonuniform List<scalar> 
43
(
0.000391196
0.00033883
0.00033717
0.000346148
0.000353445
0.000343131
0.000323365
0.000300195
0.000276825
0.000254587
0.000233978
0.000215491
0.000199943
0.000188278
0.000180861
0.000177041
0.000176004
0.00017619
0.000177213
0.000179118
0.000182024
0.000185947
0.000190721
0.000196043
0.00020157
0.00020703
0.000212292
0.0002174
0.000222506
0.000227699
0.000233347
0.000239809
0.000247337
0.000256044
0.000265834
0.000276264
0.000286663
0.000297778
0.000314328
0.000317582
0.000368229
0.000382049
0.000248582
)
;
    }
    sWall
    {
        type            compressible::alphatWallFunction;
        Prt             0.85;
        value           nonuniform List<scalar> 9(0.000507619 0.000477899 0.000438212 0.000402245 0.000403467 0.000366654 0.00043208 0.000414401 0.000389445);
    }
    nWall
    {
        type            compressible::alphatWallFunction;
        Prt             0.85;
        value           nonuniform List<scalar> 
14
(
0.000159359
0.000189938
0.000221982
0.000327719
0.000323995
0.00031393
0.000307242
0.000323277
0.000331254
0.000335116
0.000326625
0.000317133
0.000327598
0.0003169
)
;
    }
    sideWalls
    {
        type            empty;
    }
    glass1
    {
        type            compressible::alphatWallFunction;
        Prt             0.85;
        value           nonuniform List<scalar> 9(0.000143927 0.000209135 0.000262692 0.000313301 0.000362373 0.000409995 0.000458001 0.000498857 0.000511226);
    }
    glass2
    {
        type            compressible::alphatWallFunction;
        Prt             0.85;
        value           nonuniform List<scalar> 2(0.000282476 0.000320084);
    }
    sun
    {
        type            compressible::alphatWallFunction;
        Prt             0.85;
        value           nonuniform List<scalar> 
14
(
0.000147961
0.000157643
0.000157082
0.000163748
0.00016983
0.000175332
0.000180438
0.000185347
0.000190274
0.000195496
0.000200464
0.000205171
0.000209797
0.000214757
)
;
    }
    Table_master
    {
        type            compressible::alphatWallFunction;
        Prt             0.85;
        value           nonuniform List<scalar> 9(0.000191106 0.000166937 0.000148003 0.000132982 0.000120881 0.000111006 0.000102873 9.62033e-05 9.09659e-05);
    }
    Table_slave
    {
        type            compressible::alphatWallFunction;
        Prt             0.85;
        value           nonuniform List<scalar> 9(0.000216395 0.000197644 0.000182989 0.000170695 0.000160132 0.000150572 0.000141491 0.000132404 0.000122508);
    }
    inlet
    {
        type            fixedValue;
        value           uniform 1.94e-05;
    }
    outlet
    {
        type            zeroGradient;
    }
}


// ************************************************************************* //
