/*--------------------------------*- C++ -*----------------------------------*\
  =========                 |
  \\      /  F ield         | OpenFOAM: The Open Source CFD Toolbox
   \\    /   O peration     | Website:  https://openfoam.org
    \\  /    A nd           | Version:  6
     \\/     M anipulation  |
\*---------------------------------------------------------------------------*/
FoamFile
{
    version     2.0;
    format      ascii;
    class       volScalarField;
    location    "26199.999998739946";
    object      T;
}
// * * * * * * * * * * * * * * * * * * * * * * * * * * * * * * * * * * * * * //

dimensions      [0 0 0 1 0 0 0];

internalField   nonuniform List<scalar> 
778
(
302.565
302.246
302.23
302.225
302.22
302.216
302.212
302.207
302.203
302.198
302.192
302.184
302.175
302.164
302.154
302.223
302.094
302.086
302.085
302.087
302.091
302.095
302.1
302.105
302.11
302.115
302.12
302.125
302.13
302.135
302.142
302.15
302.182
302.778
302.277
302.245
302.244
302.245
302.245
302.245
302.243
302.239
302.234
302.226
302.212
302.192
302.166
302.138
302.119
302.105
302.101
302.082
302.063
302.056
302.053
302.053
302.054
302.056
302.057
302.059
302.061
302.063
302.065
302.068
302.072
302.079
302.09
302.106
302.158
302.994
302.324
302.272
302.278
302.289
302.299
302.307
302.313
302.315
302.313
302.304
302.285
302.254
302.212
302.167
302.127
302.095
302.075
302.048
302.041
302.039
302.039
302.04
302.041
302.042
302.044
302.045
302.046
302.047
302.048
302.05
302.052
302.057
302.067
302.084
302.145
303.204
302.385
302.303
302.315
302.336
302.358
302.379
302.395
302.407
302.411
302.403
302.378
302.334
302.274
302.207
302.146
302.097
302.062
302.047
302.036
302.032
302.032
302.033
302.034
302.035
302.035
302.036
302.036
302.036
302.037
302.037
302.037
302.037
302.043
302.053
302.071
302.136
303.405
302.459
302.335
302.349
302.38
302.414
302.448
302.479
302.503
302.517
302.513
302.484
302.425
302.341
302.248
302.164
302.099
302.057
302.035
302.028
302.026
302.028
302.031
302.034
302.036
302.037
302.038
302.039
302.039
302.039
302.039
302.038
302.038
302.039
302.045
302.061
302.113
302.125
302.138
302.236
303.594
302.544
302.372
302.377
302.415
302.458
302.503
302.547
302.587
302.613
302.617
302.587
302.512
302.4
302.279
302.174
302.095
302.049
302.027
302.021
302.022
302.027
302.032
302.037
302.04
302.042
302.043
302.043
302.043
302.043
302.042
302.041
302.04
302.039
302.042
302.052
302.085
302.097
302.112
302.247
303.757
302.639
302.42
302.401
302.439
302.485
302.535
302.585
302.635
302.675
302.692
302.664
302.575
302.436
302.292
302.171
302.086
302.037
302.016
302.013
302.019
302.028
302.036
302.042
302.046
302.048
302.049
302.049
302.048
302.047
302.045
302.044
302.042
302.04
302.04
302.047
302.066
302.079
302.096
302.228
303.91
302.783
302.516
302.436
302.457
302.499
302.544
302.592
302.642
302.701
302.732
302.7
302.597
302.445
302.286
302.154
302.065
302.018
302.003
302.007
302.019
302.033
302.044
302.051
302.055
302.057
302.057
302.055
302.053
302.051
302.049
302.046
302.043
302.041
302.04
302.043
302.055
302.067
302.105
302.409
304.118
303.232
302.843
302.589
302.504
302.516
302.552
302.593
302.65
302.719
302.754
302.712
302.589
302.418
302.247
302.112
302.028
301.992
301.988
302.003
302.024
302.042
302.055
302.063
302.066
302.066
302.064
302.061
302.058
302.055
302.051
302.048
302.045
302.042
302.041
302.042
302.05
302.075
302.152
302.56
304.103
303.535
303.163
302.863
302.687
302.618
302.609
302.634
302.703
302.773
302.786
302.707
302.546
302.35
302.172
302.046
301.98
301.963
301.978
302.007
302.036
302.058
302.071
302.076
302.076
302.074
302.07
302.065
302.061
302.057
302.053
302.049
302.045
302.042
302.041
302.043
302.063
302.191
302.325
302.562
304.107
303.67
303.355
303.095
302.915
302.816
302.778
302.787
302.836
302.865
302.815
302.665
302.451
302.232
302.061
301.961
301.927
301.94
301.978
302.021
302.057
302.079
302.088
302.089
302.085
302.079
302.073
302.067
302.062
302.057
302.053
302.049
302.045
302.043
302.041
302.048
302.121
302.279
302.398
302.573
304.139
303.758
303.494
303.282
303.128
303.033
302.991
302.991
302.994
302.938
302.78
302.537
302.274
302.056
301.92
301.869
301.884
301.935
301.997
302.051
302.087
302.103
302.105
302.098
302.09
302.081
302.074
302.067
302.062
302.057
302.053
302.049
302.045
302.043
302.044
302.066
302.181
302.345
302.461
302.596
304.205
303.877
303.634
303.451
303.319
303.233
303.186
303.158
303.07
302.872
302.576
302.256
301.991
301.828
301.771
301.796
301.87
301.96
302.04
302.096
302.123
302.126
302.118
302.106
302.094
302.084
302.076
302.069
302.063
302.058
302.054
302.05
302.048
302.046
302.049
302.078
302.194
302.365
302.489
302.616
304.139
303.889
303.681
303.54
303.424
303.333
303.256
303.125
302.848
302.466
302.079
301.784
301.625
301.596
301.662
301.78
301.911
302.027
302.107
302.149
302.155
302.146
302.132
302.117
302.104
302.092
302.082
302.074
302.068
302.063
302.059
302.057
302.056
302.058
302.064
302.089
302.177
302.339
302.452
302.559
304.28
304.088
303.617
303.297
303.093
302.928
302.736
302.362
301.888
301.491
301.263
301.213
301.301
301.469
301.667
301.861
302.018
302.131
302.181
302.193
302.186
302.171
302.156
302.141
302.127
302.114
302.102
302.092
302.085
302.08
302.078
302.079
302.084
302.093
302.106
302.127
302.184
302.317
302.409
302.513
294.644
296.448
298.145
299.047
299.39
299.575
299.823
300.15
300.523
300.903
301.263
301.578
301.836
302.045
302.164
302.222
302.239
302.236
302.225
302.213
302.201
302.189
302.177
302.163
302.15
302.137
302.129
302.125
302.126
302.134
302.149
302.17
302.192
302.213
302.248
302.33
302.398
302.505
294.923
295.751
296.649
297.509
298.279
299.001
299.685
300.299
300.823
301.261
301.636
301.913
302.1
302.217
302.275
302.294
302.295
302.291
302.285
302.28
302.275
302.269
302.261
302.251
302.237
302.222
302.211
302.205
302.207
302.22
302.242
302.273
302.306
302.337
302.37
302.409
302.449
302.542
299.756
298.682
297.304
296.755
297.511
298.514
299.415
300.149
300.722
301.163
301.522
301.811
302.035
302.192
302.287
302.336
302.355
302.358
302.358
302.359
302.361
302.364
302.367
302.367
302.364
302.356
302.343
302.327
302.312
302.302
302.3
302.308
302.327
302.356
302.392
302.432
302.474
302.514
302.544
302.594
300.116
299.989
299.403
298.883
299.289
300.011
300.673
301.193
301.578
301.859
302.063
302.21
302.31
302.37
302.401
302.413
302.417
302.42
302.424
302.431
302.439
302.448
302.455
302.458
302.457
302.45
302.437
302.422
302.407
302.395
302.389
302.391
302.401
302.418
302.442
302.47
302.5
302.528
302.561
302.637
300.839
300.832
300.892
300.983
301.14
301.486
301.811
302.056
302.225
302.337
302.409
302.453
302.478
302.49
302.494
302.496
302.497
302.501
302.508
302.517
302.527
302.537
302.543
302.545
302.543
302.536
302.527
302.516
302.506
302.499
302.496
302.498
302.504
302.515
302.531
302.552
302.576
302.603
302.629
302.679
)
;

boundaryField
{
    floor
    {
        type            wallHeatTransfer;
        Tinf            uniform 305.2;
        alphaWall       uniform 0.36;
        value           nonuniform List<scalar> 
36
(
302.544
302.868
302.622
302.613
302.621
302.639
302.665
302.693
302.722
302.751
302.779
302.806
302.832
302.858
302.883
302.91
302.94
302.968
303.04
303.04
302.909
302.841
302.792
302.711
302.622
302.718
302.544
302.487
302.488
302.498
302.868
302.498
302.535
302.417
302.434
302.394
)
;
    }
    ceiling
    {
        type            wallHeatTransfer;
        Tinf            uniform 303.2;
        alphaWall       uniform 0.36;
        value           nonuniform List<scalar> 
43
(
301.027
301.045
301.1
301.179
301.319
301.639
301.941
302.169
302.329
302.436
302.506
302.55
302.577
302.592
302.599
302.602
302.604
302.607
302.612
302.619
302.627
302.633
302.637
302.637
302.633
302.625
302.615
302.604
302.594
302.586
302.582
302.581
302.585
302.593
302.605
302.62
302.64
302.662
302.683
302.728
304.19
304.016
295.883
)
;
    }
    sWall
    {
        type            wallHeatTransfer;
        Tinf            uniform 315.2;
        alphaWall       uniform 0.54;
        value           nonuniform List<scalar> 9(305.123 305.181 305.292 305.436 305.375 305.601 301.386 301.764 302.492);
    }
    nWall
    {
        type            wallHeatTransfer;
        Tinf            uniform 308.2;
        alphaWall       uniform 0.54;
        value           nonuniform List<scalar> 
14
(
303.583
303.439
303.297
303.309
303.325
303.365
303.395
303.315
303.261
303.246
303.295
303.357
303.374
303.431
)
;
    }
    sideWalls
    {
        type            empty;
    }
    glass1
    {
        type            wallHeatTransfer;
        Tinf            uniform 315.2;
        alphaWall       uniform 4.3;
        value           nonuniform List<scalar> 9(311.626 310.812 310.3 309.912 309.605 309.359 309.142 308.996 309.046);
    }
    glass2
    {
        type            wallHeatTransfer;
        Tinf            uniform 308.2;
        alphaWall       uniform 4.3;
        value           nonuniform List<scalar> 2(305.782 305.686);
    }
    sun
    {
        type            wallHeatTransfer;
        Tinf            uniform 305.2;
        alphaWall       uniform 0.36;
        value           nonuniform List<scalar> 
14
(
303.017
302.731
302.719
302.7
302.684
302.669
302.656
302.643
302.631
302.618
302.605
302.591
302.576
302.56
)
;
    }
    Table_master
    {
        type            zeroGradient;
    }
    Table_slave
    {
        type            zeroGradient;
    }
    inlet
    {
        type            fixedValue;
        value           uniform 293.15;
    }
    outlet
    {
        type            zeroGradient;
    }
}


// ************************************************************************* //
