/*--------------------------------*- C++ -*----------------------------------*\
  =========                 |
  \\      /  F ield         | OpenFOAM: The Open Source CFD Toolbox
   \\    /   O peration     | Website:  https://openfoam.org
    \\  /    A nd           | Version:  6
     \\/     M anipulation  |
\*---------------------------------------------------------------------------*/
FoamFile
{
    version     2.0;
    format      ascii;
    class       volVectorField;
    location    "26199.999998739946";
    object      U;
}
// * * * * * * * * * * * * * * * * * * * * * * * * * * * * * * * * * * * * * //

dimensions      [0 1 -1 0 0 0 0];

internalField   nonuniform List<vector> 
778
(
(0.0655952 0.0794092 0)
(-0.155181 0.0157682 0)
(-0.164313 0.0146286 0)
(-0.192437 0.0122802 0)
(-0.216882 0.00873116 0)
(-0.236954 0.00475071 0)
(-0.252094 0.000423418 0)
(-0.261877 -0.00436335 0)
(-0.265789 -0.00980815 0)
(-0.262824 -0.0161913 0)
(-0.251026 -0.0242685 0)
(-0.226324 -0.0348925 0)
(-0.186191 -0.0504208 0)
(-0.144242 -0.0752015 0)
(-0.150134 -0.10861 0)
(0.0546166 0.0354961 0)
(0.0157007 -0.0268728 0)
(0.0448757 -0.0232668 0)
(0.0692673 -0.0161633 0)
(0.0843238 -0.0103556 0)
(0.0915336 -0.00641541 0)
(0.0943691 -0.00433483 0)
(0.0953981 -0.00331147 0)
(0.0958435 -0.00272549 0)
(0.0960081 -0.00231387 0)
(0.0958807 -0.00195091 0)
(0.0953545 -0.00151174 0)
(0.0940992 -0.000758834 0)
(0.0912565 0.000844059 0)
(0.08506 0.00406477 0)
(0.0735344 0.00776969 0)
(0.0598898 0.0116136 0)
(-0.00793569 0.0299709 0)
(0.258392 0.167398 0)
(-0.161239 0.0483999 0)
(-0.141614 0.0459894 0)
(-0.174024 0.0416265 0)
(-0.199395 0.0356827 0)
(-0.220127 0.0291468 0)
(-0.236171 0.0220775 0)
(-0.247438 0.0142475 0)
(-0.253629 0.00531319 0)
(-0.253962 -0.00514087 0)
(-0.247818 -0.0170789 0)
(-0.234119 -0.0308569 0)
(-0.214215 -0.0480943 0)
(-0.197644 -0.069991 0)
(-0.194138 -0.0826847 0)
(-0.166515 -0.0425959 0)
(-0.105416 -0.0364266 0)
(-0.0983377 -0.0445265 0)
(0.109331 -0.0420048 0)
(0.064424 -0.0411213 0)
(0.071837 -0.032249 0)
(0.0858006 -0.0207103 0)
(0.0936917 -0.0104663 0)
(0.0959263 -0.00364205 0)
(0.0956916 -0.000188369 0)
(0.0953047 0.00126288 0)
(0.0952667 0.00190862 0)
(0.0953451 0.00227677 0)
(0.0953499 0.00259307 0)
(0.0952483 0.0031313 0)
(0.094957 0.00441013 0)
(0.0937009 0.00772292 0)
(0.0881088 0.0167486 0)
(0.0743644 0.0253226 0)
(0.0630337 0.0329346 0)
(-0.0519822 0.0635174 0)
(0.429967 0.253963 0)
(-0.194236 0.0847733 0)
(-0.112791 0.0784469 0)
(-0.148263 0.0669739 0)
(-0.170701 0.0555236 0)
(-0.188804 0.0437563 0)
(-0.202653 0.0313776 0)
(-0.212357 0.0180425 0)
(-0.217721 0.00343129 0)
(-0.218092 -0.0126075 0)
(-0.212845 -0.0303114 0)
(-0.201746 -0.0499108 0)
(-0.186111 -0.0715874 0)
(-0.169582 -0.0932463 0)
(-0.151217 -0.104609 0)
(-0.120372 -0.0931956 0)
(-0.0796594 -0.0950151 0)
(-0.0715514 -0.107691 0)
(0.0920921 -0.0880542 0)
(0.0625258 -0.065678 0)
(0.0743074 -0.0460812 0)
(0.0879235 -0.0292201 0)
(0.0947391 -0.0148843 0)
(0.0918184 -0.0120486 0)
(0.0875854 -0.00798546 0)
(0.0852127 -0.00580077 0)
(0.0845212 -0.00456397 0)
(0.0845047 -0.00379501 0)
(0.0847661 -0.00322231 0)
(0.0854202 -0.00259762 0)
(0.0871802 -0.0014404 0)
(0.0918608 0.00291806 0)
(0.0900202 0.0250894 0)
(0.0732346 0.0423254 0)
(0.0699786 0.0574248 0)
(-0.0900138 0.100811 0)
(0.578527 0.325853 0)
(-0.240104 0.121831 0)
(-0.0808501 0.109243 0)
(-0.121597 0.0898783 0)
(-0.139036 0.0741004 0)
(-0.153105 0.0586738 0)
(-0.163872 0.0427964 0)
(-0.171476 0.0258548 0)
(-0.175697 0.00724023 0)
(-0.175773 -0.0134977 0)
(-0.171093 -0.036449 0)
(-0.161533 -0.0614482 0)
(-0.147677 -0.0873771 0)
(-0.130716 -0.110315 0)
(-0.109775 -0.123227 0)
(-0.0823122 -0.124582 0)
(-0.0527177 -0.126434 0)
(-0.0336083 -0.123245 0)
(0.0160713 -0.0568278 0)
(0.0606417 -0.0929722 0)
(0.0683566 -0.07912 0)
(0.0790064 -0.0587714 0)
(0.0915097 -0.0395416 0)
(0.102861 -0.0208817 0)
(0.115607 -0.0132134 0)
(0.126755 -0.00883474 0)
(0.132351 -0.00562007 0)
(0.133328 -0.00310672 0)
(0.130793 -0.000877371 0)
(0.125319 0.00129426 0)
(0.116784 0.00367329 0)
(0.104426 0.00672241 0)
(0.0851914 0.0111428 0)
(0.0713386 0.0367961 0)
(0.060082 0.0604952 0)
(0.0761399 0.083285 0)
(-0.117613 0.137014 0)
(0.705701 0.383697 0)
(-0.287676 0.157033 0)
(-0.0477154 0.13381 0)
(-0.0963185 0.106952 0)
(-0.107775 0.0876361 0)
(-0.116815 0.0692223 0)
(-0.123611 0.0505028 0)
(-0.128277 0.0306455 0)
(-0.130641 0.00877757 0)
(-0.129841 -0.0157769 0)
(-0.125346 -0.0430471 0)
(-0.11673 -0.072663 0)
(-0.104023 -0.102808 0)
(-0.0875743 -0.12907 0)
(-0.0676493 -0.145776 0)
(-0.0443302 -0.152274 0)
(-0.0204831 -0.152407 0)
(4.20039e-05 -0.14378 0)
(0.0305913 -0.115023 0)
(0.0567976 -0.10935 0)
(0.0704236 -0.0924095 0)
(0.080597 -0.0712292 0)
(0.0906773 -0.0507727 0)
(0.100244 -0.0327332 0)
(0.109355 -0.0193653 0)
(0.116373 -0.00998717 0)
(0.119786 -0.0032889 0)
(0.119968 0.00196466 0)
(0.117538 0.00650564 0)
(0.112871 0.0108473 0)
(0.105999 0.0155013 0)
(0.0968571 0.021172 0)
(0.0849488 0.0291626 0)
(0.073418 0.0471558 0)
(0.0629595 0.0711869 0)
(0.0944882 0.0992995 0)
(0.0166789 0.138216 0)
(0.0959587 0.182814 0)
(0.140942 0.147643 0)
(-0.225006 0.203373 0)
(0.810405 0.431996 0)
(-0.331312 0.190709 0)
(-0.0173356 0.150288 0)
(-0.0733983 0.117565 0)
(-0.0786302 0.0955626 0)
(-0.0822585 0.0750028 0)
(-0.0845181 0.0544054 0)
(-0.085559 0.0327839 0)
(-0.0853048 0.00892092 0)
(-0.082629 -0.0183581 0)
(-0.077463 -0.0489802 0)
(-0.068842 -0.0824556 0)
(-0.0568629 -0.116451 0)
(-0.0418342 -0.146247 0)
(-0.024871 -0.165953 0)
(-0.00650919 -0.174484 0)
(0.0118749 -0.172774 0)
(0.0277899 -0.161056 0)
(0.0459722 -0.139372 0)
(0.0624533 -0.122379 0)
(0.0731611 -0.102508 0)
(0.0808712 -0.080439 0)
(0.0876488 -0.0590829 0)
(0.0938385 -0.0401992 0)
(0.09917 -0.0250209 0)
(0.10285 -0.013661 0)
(0.10444 -0.00496665 0)
(0.10399 0.0022224 0)
(0.101812 0.00867887 0)
(0.0981594 0.0149192 0)
(0.0931949 0.0214715 0)
(0.0871543 0.0289749 0)
(0.0803015 0.0383545 0)
(0.0745724 0.052769 0)
(0.0693587 0.0727814 0)
(0.0913619 0.0985403 0)
(0.0731809 0.107373 0)
(0.0896478 0.0481526 0)
(0.146233 -0.0365793 0)
(-0.328388 0.105709 0)
(0.879883 0.47471 0)
(-0.36863 0.221 0)
(0.003704 0.155612 0)
(-0.0526954 0.121627 0)
(-0.0522499 0.0979131 0)
(-0.0510774 0.0758872 0)
(-0.0490786 0.0541125 0)
(-0.0465647 0.0316036 0)
(-0.0433753 0.00683703 0)
(-0.0374075 -0.0222396 0)
(-0.0303296 -0.0553091 0)
(-0.0205528 -0.091867 0)
(-0.00876763 -0.128798 0)
(0.00440598 -0.16113 0)
(0.0174405 -0.1818 0)
(0.0302086 -0.190179 0)
(0.0420085 -0.187243 0)
(0.0523169 -0.17447 0)
(0.0623032 -0.154129 0)
(0.070907 -0.132465 0)
(0.0764644 -0.109425 0)
(0.0799543 -0.0858958 0)
(0.0825726 -0.0636924 0)
(0.0848182 -0.0441706 0)
(0.0866475 -0.0280535 0)
(0.087726 -0.0152456 0)
(0.0878323 -0.00497162 0)
(0.0868185 0.00368239 0)
(0.0848797 0.0113937 0)
(0.0821682 0.0186826 0)
(0.0788688 0.0260509 0)
(0.0752704 0.0340091 0)
(0.0717838 0.043133 0)
(0.069782 0.0547468 0)
(0.0686367 0.0692848 0)
(0.0816005 0.0885052 0)
(0.0844818 0.092101 0)
(0.089379 0.0548534 0)
(0.180805 0.0253874 0)
(-0.280941 0.153986 0)
(0.927939 0.517167 0)
(-0.383157 0.234216 0)
(0.0168915 0.133051 0)
(-0.0273593 0.116726 0)
(-0.0265939 0.0949923 0)
(-0.0227953 0.0725002 0)
(-0.017689 0.050175 0)
(-0.0124158 0.0273167 0)
(-0.00545019 0.00191379 0)
(0.00454158 -0.0306924 0)
(0.0142664 -0.0652674 0)
(0.0255552 -0.103234 0)
(0.0371682 -0.140715 0)
(0.0478053 -0.171977 0)
(0.0568582 -0.192197 0)
(0.0643182 -0.199743 0)
(0.0700216 -0.195393 0)
(0.0739741 -0.181253 0)
(0.0766876 -0.160195 0)
(0.0780746 -0.136197 0)
(0.0777472 -0.111158 0)
(0.0762746 -0.0865972 0)
(0.0744807 -0.063995 0)
(0.0728849 -0.0443564 0)
(0.0716201 -0.0280607 0)
(0.0705478 -0.0148286 0)
(0.0694721 -0.00396985 0)
(0.0681027 0.00528398 0)
(0.0665615 0.013506 0)
(0.0648284 0.0211775 0)
(0.0629977 0.0287246 0)
(0.0612738 0.036507 0)
(0.0599824 0.0448356 0)
(0.0600173 0.0542288 0)
(0.0612503 0.0647558 0)
(0.0701945 0.0781716 0)
(0.0797244 0.0821835 0)
(0.0786151 0.0625525 0)
(0.238607 0.0533855 0)
(-0.556855 0.231562 0)
(1.01129 0.506843 0)
(-0.137324 0.296373 0)
(0.0410758 0.161565 0)
(0.0405679 0.122147 0)
(0.0130484 0.0920365 0)
(0.00862242 0.0654232 0)
(0.0140449 0.0414428 0)
(0.0206716 0.0170232 0)
(0.0324957 -0.0109923 0)
(0.0439706 -0.0421202 0)
(0.0558467 -0.076853 0)
(0.0681114 -0.114521 0)
(0.0792168 -0.15092 0)
(0.0876715 -0.180355 0)
(0.0928413 -0.198408 0)
(0.0948482 -0.203649 0)
(0.094109 -0.197095 0)
(0.0911762 -0.181134 0)
(0.0867271 -0.15879 0)
(0.0812101 -0.133373 0)
(0.0749132 -0.107321 0)
(0.0684298 -0.0824733 0)
(0.0624757 -0.0601945 0)
(0.0575612 -0.0412154 0)
(0.0538668 -0.0256247 0)
(0.0512792 -0.0129331 0)
(0.0495258 -0.0023806 0)
(0.0482053 0.00671234 0)
(0.0473024 0.014836 0)
(0.0465975 0.022424 0)
(0.0460548 0.0298081 0)
(0.0457446 0.0372074 0)
(0.0458397 0.044736 0)
(0.0468579 0.0525062 0)
(0.0489053 0.0603353 0)
(0.0553983 0.0690333 0)
(0.0648194 0.0701387 0)
(0.05776 0.0470852 0)
(0.293626 0.0723826 0)
(-0.765828 0.301499 0)
(0.779335 0.395767 0)
(0.000760559 0.319522 0)
(0.093379 0.21894 0)
(0.110593 0.155204 0)
(0.0771624 0.10686 0)
(0.0597864 0.0675774 0)
(0.0582058 0.0357806 0)
(0.0623759 0.0064181 0)
(0.0738208 -0.0234386 0)
(0.0854043 -0.0550389 0)
(0.0976019 -0.0897056 0)
(0.109449 -0.126133 0)
(0.118784 -0.159832 0)
(0.123835 -0.185507 0)
(0.124011 -0.199608 0)
(0.119747 -0.201288 0)
(0.112001 -0.19188 0)
(0.101852 -0.173895 0)
(0.0903425 -0.150338 0)
(0.0783144 -0.124233 0)
(0.0664564 -0.098122 0)
(0.0554994 -0.0739364 0)
(0.0461654 -0.0529341 0)
(0.0389119 -0.0355614 0)
(0.0338202 -0.0216066 0)
(0.0306304 -0.0103025 0)
(0.0288745 -0.000765151 0)
(0.0280781 0.00761005 0)
(0.0279858 0.0152558 0)
(0.0282687 0.0225329 0)
(0.0287946 0.0296673 0)
(0.0294954 0.0367682 0)
(0.0303347 0.0438303 0)
(0.0314035 0.0507584 0)
(0.0324495 0.0572599 0)
(0.0344995 0.0637557 0)
(0.0252627 0.0666159 0)
(0.0226773 0.0810926 0)
(0.123671 0.162219 0)
(-0.645253 0.307228 0)
(0.617274 0.220889 0)
(0.00463654 0.29814 0)
(0.113045 0.241558 0)
(0.148317 0.177569 0)
(0.130886 0.123523 0)
(0.117866 0.0778415 0)
(0.115007 0.0388861 0)
(0.117181 0.0033781 0)
(0.123559 -0.0307448 0)
(0.131799 -0.0650153 0)
(0.141486 -0.100443 0)
(0.150342 -0.135212 0)
(0.155428 -0.164988 0)
(0.154823 -0.185482 0)
(0.148218 -0.194406 0)
(0.136519 -0.191772 0)
(0.121202 -0.179291 0)
(0.103776 -0.159493 0)
(0.0856157 -0.135261 0)
(0.0678383 -0.109376 0)
(0.0513974 -0.084313 0)
(0.0371762 -0.0619579 0)
(0.0259203 -0.0434018 0)
(0.0178891 -0.0286929 0)
(0.0128289 -0.0172261 0)
(0.0100654 -0.00787334 0)
(0.00887511 0.000286842 0)
(0.00883665 0.00772572 0)
(0.00948567 0.0147784 0)
(0.0105711 0.0216975 0)
(0.0119283 0.0286301 0)
(0.0133796 0.0356562 0)
(0.0146674 0.0427782 0)
(0.0154864 0.0499071 0)
(0.0154668 0.0568793 0)
(0.0139708 0.0651282 0)
(-0.013646 0.0870836 0)
(-0.00519669 0.123709 0)
(0.091868 0.180792 0)
(-0.554617 0.237972 0)
(0.57077 0.118518 0)
(-0.0202822 0.258649 0)
(0.113749 0.229895 0)
(0.165096 0.17607 0)
(0.166757 0.126195 0)
(0.164414 0.0810996 0)
(0.165401 0.0399555 0)
(0.168343 0.00159217 0)
(0.172323 -0.0354355 0)
(0.177919 -0.0719241 0)
(0.184094 -0.1075 0)
(0.187761 -0.139418 0)
(0.18591 -0.163861 0)
(0.177169 -0.178063 0)
(0.16199 -0.181244 0)
(0.141914 -0.174282 0)
(0.118884 -0.159177 0)
(0.0946647 -0.138328 0)
(0.0708577 -0.114425 0)
(0.0487239 -0.0899656 0)
(0.0294568 -0.0673271 0)
(0.0140893 -0.0482723 0)
(0.00321771 -0.0335302 0)
(-0.00360369 -0.0222872 0)
(-0.00719578 -0.0137343 0)
(-0.00892447 -0.00632682 0)
(-0.0094221 0.000540876 0)
(-0.0089436 0.00710669 0)
(-0.00784806 0.0135643 0)
(-0.00623414 0.0200816 0)
(-0.00424714 0.026807 0)
(-0.00211581 0.0339132 0)
(-0.000265513 0.0415993 0)
(0.000579031 0.0499893 0)
(-6.8351e-05 0.0596698 0)
(-0.00608229 0.0762876 0)
(-0.0390683 0.115424 0)
(-0.0312043 0.156688 0)
(0.0234174 0.182552 0)
(-0.523991 0.160259 0)
(0.628451 0.0536297 0)
(0.00944652 0.197296 0)
(0.113874 0.196977 0)
(0.175166 0.157966 0)
(0.1914 0.117712 0)
(0.19804 0.0772743 0)
(0.203367 0.037241 0)
(0.208592 -0.00158193 0)
(0.213141 -0.0397501 0)
(0.217499 -0.0765702 0)
(0.219339 -0.109864 0)
(0.215492 -0.136511 0)
(0.204081 -0.153972 0)
(0.185197 -0.1613 0)
(0.160454 -0.159068 0)
(0.132011 -0.148668 0)
(0.10212 -0.132147 0)
(0.0725097 -0.111561 0)
(0.0449775 -0.0894187 0)
(0.0207957 -0.0679308 0)
(0.00157907 -0.0494174 0)
(-0.0116756 -0.0354818 0)
(-0.0192786 -0.025888 0)
(-0.0234519 -0.0183945 0)
(-0.025525 -0.0118697 0)
(-0.0264122 -0.00569454 0)
(-0.0264654 0.000298933 0)
(-0.0257689 0.00616643 0)
(-0.0244714 0.0120215 0)
(-0.0225305 0.0180312 0)
(-0.0200295 0.0244211 0)
(-0.0171644 0.0315225 0)
(-0.0143779 0.039805 0)
(-0.0125776 0.0499815 0)
(-0.0124384 0.0637221 0)
(-0.0152111 0.0880273 0)
(-0.0399217 0.136554 0)
(-0.0309833 0.18854 0)
(0.00742692 0.177454 0)
(-0.538232 0.0584316 0)
(0.472365 0.0747504 0)
(-0.132002 0.137614 0)
(0.0942425 0.133372 0)
(0.172713 0.116871 0)
(0.203799 0.0953887 0)
(0.218063 0.0643941 0)
(0.228049 0.0283263 0)
(0.237166 -0.00909513 0)
(0.243619 -0.0454687 0)
(0.245188 -0.0783458 0)
(0.239241 -0.10506 0)
(0.224425 -0.123602 0)
(0.201262 -0.133182 0)
(0.171654 -0.134286 0)
(0.138168 -0.128181 0)
(0.103084 -0.116131 0)
(0.0687329 -0.0999906 0)
(0.0363288 -0.0813516 0)
(0.00833932 -0.0627391 0)
(-0.014306 -0.0462228 0)
(-0.028228 -0.0352118 0)
(-0.0364234 -0.0275982 0)
(-0.0407831 -0.0216968 0)
(-0.0430045 -0.0162884 0)
(-0.0439986 -0.010942 0)
(-0.0442731 -0.00553716 0)
(-0.0440108 -0.000165759 0)
(-0.0431807 0.00508499 0)
(-0.0418067 0.0102732 0)
(-0.0396698 0.0156026 0)
(-0.0367445 0.0214005 0)
(-0.0331053 0.0281566 0)
(-0.029039 0.0365961 0)
(-0.0252639 0.0479158 0)
(-0.0221198 0.0643828 0)
(-0.0161055 0.0911757 0)
(-0.0188423 0.138901 0)
(-0.0127236 0.205154 0)
(0.122405 0.197428 0)
(-0.43337 0.0488069 0)
(0.724043 0.134411 0)
(0.0818247 0.115229 0)
(0.149692 0.0992642 0)
(0.222311 0.0805613 0)
(0.243943 0.0699864 0)
(0.248726 0.0476667 0)
(0.255058 0.0174565 0)
(0.261227 -0.0148974 0)
(0.260326 -0.0449426 0)
(0.249903 -0.0696977 0)
(0.229718 -0.0874651 0)
(0.201335 -0.0978292 0)
(0.167114 -0.101155 0)
(0.129567 -0.0984696 0)
(0.0911775 -0.0910579 0)
(0.0533665 -0.0795938 0)
(0.0189131 -0.0657516 0)
(-0.0126358 -0.0507119 0)
(-0.0347415 -0.0393685 0)
(-0.0492107 -0.0317414 0)
(-0.0575008 -0.0269412 0)
(-0.0620394 -0.0231707 0)
(-0.0643456 -0.0194542 0)
(-0.0653631 -0.0153108 0)
(-0.0655975 -0.0107051 0)
(-0.0653519 -0.00579121 0)
(-0.0647551 -0.000834245 0)
(-0.063787 0.00392408 0)
(-0.0624772 0.00844416 0)
(-0.0604251 0.0129466 0)
(-0.0574955 0.0178439 0)
(-0.053624 0.0237512 0)
(-0.0488338 0.0316051 0)
(-0.0432694 0.0428319 0)
(-0.0365131 0.0593692 0)
(-0.0243816 0.0838551 0)
(-0.00764681 0.122197 0)
(0.00415389 0.1808 0)
(0.166804 0.181965 0)
(-0.354006 0.106456 0)
(0.191772 0.0880633 0)
(0.225613 0.0998671 0)
(0.24637 0.0702309 0)
(0.242446 0.0398415 0)
(0.23969 0.0120561 0)
(0.234735 -0.0130446 0)
(0.220091 -0.0335521 0)
(0.196476 -0.0486212 0)
(0.166209 -0.0582344 0)
(0.131704 -0.0629016 0)
(0.0947261 -0.0629824 0)
(0.0571571 -0.0592273 0)
(0.0209631 -0.0525523 0)
(-0.0146082 -0.0431568 0)
(-0.0421845 -0.0345837 0)
(-0.0627717 -0.0281608 0)
(-0.0762091 -0.0247171 0)
(-0.0843947 -0.0229916 0)
(-0.0891283 -0.0218444 0)
(-0.0918289 -0.0202564 0)
(-0.0932413 -0.0178572 0)
(-0.0937728 -0.0145928 0)
(-0.0936842 -0.0105974 0)
(-0.09319 -0.00611568 0)
(-0.0924274 -0.00148354 0)
(-0.0914284 0.0029423 0)
(-0.090415 0.00697134 0)
(-0.0889924 0.0107376 0)
(-0.0869526 0.0146891 0)
(-0.0840506 0.0194902 0)
(-0.0798269 0.0260323 0)
(-0.0736162 0.0353968 0)
(-0.0643886 0.0486253 0)
(-0.049083 0.0663443 0)
(-0.0237762 0.0896672 0)
(0.00521444 0.129565 0)
(0.184327 0.151594 0)
(-0.341442 0.166922 0)
(0.450932 0.209861 0)
(0.205977 0.178852 0)
(0.152493 0.11882 0)
(0.13951 0.063944 0)
(0.128261 0.0256711 0)
(0.114373 0.00151057 0)
(0.0990339 -0.0132197 0)
(0.0780561 -0.0222663 0)
(0.0533888 -0.0276503 0)
(0.0261387 -0.0297787 0)
(-0.00400066 -0.0285556 0)
(-0.0336791 -0.0249844 0)
(-0.0602208 -0.0206234 0)
(-0.0824695 -0.0169883 0)
(-0.0987804 -0.0156121 0)
(-0.109807 -0.0160738 0)
(-0.116834 -0.0176951 0)
(-0.12143 -0.0192078 0)
(-0.124559 -0.0198989 0)
(-0.1267 -0.0194234 0)
(-0.128068 -0.017696 0)
(-0.128789 -0.0147716 0)
(-0.128972 -0.0108262 0)
(-0.12873 -0.00616345 0)
(-0.128152 -0.00124919 0)
(-0.127275 0.00328054 0)
(-0.126491 0.00698777 0)
(-0.125685 0.0101733 0)
(-0.124615 0.0133241 0)
(-0.122945 0.0169785 0)
(-0.120043 0.021673 0)
(-0.115116 0.0278936 0)
(-0.107372 0.0357553 0)
(-0.0944388 0.044276 0)
(-0.0689926 0.0522085 0)
(-0.0252233 0.0670634 0)
(0.15797 0.12732 0)
(-0.462481 0.233516 0)
(0.359246 -0.416885 0)
(-0.346482 -0.513018 0)
(-0.218602 -0.0272628 0)
(-0.0934014 0.111062 0)
(-0.0539324 0.0925614 0)
(-0.0315492 0.0544179 0)
(-0.0266711 0.0281392 0)
(-0.0315489 0.0113455 0)
(-0.0401541 0.000492546 0)
(-0.0505739 -0.00651192 0)
(-0.0642263 -0.0105711 0)
(-0.079716 -0.0125484 0)
(-0.0960718 -0.0136567 0)
(-0.111943 -0.0153898 0)
(-0.126092 -0.0182513 0)
(-0.137562 -0.0216021 0)
(-0.145764 -0.024535 0)
(-0.151134 -0.0267382 0)
(-0.15488 -0.0282529 0)
(-0.157863 -0.0290898 0)
(-0.160409 -0.029217 0)
(-0.162581 -0.0285748 0)
(-0.164372 -0.027139 0)
(-0.165779 -0.0249389 0)
(-0.166825 -0.0220545 0)
(-0.167563 -0.0185821 0)
(-0.168013 -0.0145574 0)
(-0.168019 -0.00983801 0)
(-0.167391 -0.00452765 0)
(-0.166134 0.000487818 0)
(-0.164243 0.00528545 0)
(-0.161616 0.0102145 0)
(-0.158004 0.0156218 0)
(-0.15346 0.0217336 0)
(-0.148928 0.0284447 0)
(-0.144362 0.035447 0)
(-0.132697 0.0451601 0)
(-0.103101 0.0707186 0)
(-0.0969913 0.130993 0)
(-0.571626 0.206251 0)
(0.122608 -0.186202 0)
(-0.388662 -0.298116 0)
(-0.343726 -0.0963143 0)
(-0.265311 0.0518426 0)
(-0.211622 0.0836444 0)
(-0.179531 0.0745845 0)
(-0.163327 0.0610623 0)
(-0.157388 0.0511511 0)
(-0.157458 0.0461702 0)
(-0.160682 0.0459326 0)
(-0.165144 0.0496018 0)
(-0.169485 0.0560451 0)
(-0.172812 0.0638072 0)
(-0.17492 0.0711094 0)
(-0.176245 0.0761359 0)
(-0.177372 0.0769335 0)
(-0.178928 0.072144 0)
(-0.181116 0.0656478 0)
(-0.183966 0.0593014 0)
(-0.187413 0.0537295 0)
(-0.191313 0.0492122 0)
(-0.195458 0.0459763 0)
(-0.199566 0.0441934 0)
(-0.203302 0.0439173 0)
(-0.206324 0.0450031 0)
(-0.208366 0.0470132 0)
(-0.209294 0.0491127 0)
(-0.20904 0.0499103 0)
(-0.207595 0.0483479 0)
(-0.204849 0.0461566 0)
(-0.200759 0.0439312 0)
(-0.195192 0.0418927 0)
(-0.187868 0.0402631 0)
(-0.178845 0.0392313 0)
(-0.168885 0.0385748 0)
(-0.156541 0.0374594 0)
(-0.129922 0.0363578 0)
(-0.0652111 0.043205 0)
(0.095528 0.0822664 0)
(-0.49907 0.0950243 0)
(1.14871 -0.0112345 0)
(-0.29739 -0.323751 0)
(-0.353542 -0.233556 0)
(-0.353171 -0.149185 0)
(-0.329452 -0.107911 0)
(-0.297966 -0.0995043 0)
(-0.270961 -0.101896 0)
(-0.251522 -0.107836 0)
(-0.238634 -0.115679 0)
(-0.230128 -0.125254 0)
(-0.223967 -0.13673 0)
(-0.218671 -0.150069 0)
(-0.213496 -0.164602 0)
(-0.20844 -0.17887 0)
(-0.204087 -0.190799 0)
(-0.201453 -0.198495 0)
(-0.201649 -0.200358 0)
(-0.205295 -0.198921 0)
(-0.21195 -0.195228 0)
(-0.220883 -0.189683 0)
(-0.23128 -0.182618 0)
(-0.242282 -0.1745 0)
(-0.253016 -0.165932 0)
(-0.262641 -0.157492 0)
(-0.270395 -0.149539 0)
(-0.275636 -0.142104 0)
(-0.27795 -0.134887 0)
(-0.277317 -0.127366 0)
(-0.274264 -0.119437 0)
(-0.269791 -0.112209 0)
(-0.264149 -0.105331 0)
(-0.257223 -0.098202 0)
(-0.248763 -0.0904691 0)
(-0.239104 -0.0821178 0)
(-0.229563 -0.0735161 0)
(-0.218964 -0.0650873 0)
(-0.193958 -0.0552102 0)
(-0.13575 -0.0347257 0)
(-0.116213 0.0110695 0)
(-0.624687 0.0499349 0)
)
;

boundaryField
{
    floor
    {
        type            noSlip;
    }
    ceiling
    {
        type            noSlip;
    }
    sWall
    {
        type            noSlip;
    }
    nWall
    {
        type            noSlip;
    }
    sideWalls
    {
        type            empty;
    }
    glass1
    {
        type            noSlip;
    }
    glass2
    {
        type            noSlip;
    }
    sun
    {
        type            noSlip;
    }
    Table_master
    {
        type            noSlip;
    }
    Table_slave
    {
        type            noSlip;
    }
    inlet
    {
        type            fixedValue;
        value           uniform (0.5 0 0);
    }
    outlet
    {
        type            zeroGradient;
    }
}


// ************************************************************************* //
