/*--------------------------------*- C++ -*----------------------------------*\
  =========                 |
  \\      /  F ield         | OpenFOAM: The Open Source CFD Toolbox
   \\    /   O peration     | Website:  https://openfoam.org
    \\  /    A nd           | Version:  6
     \\/     M anipulation  |
\*---------------------------------------------------------------------------*/
FoamFile
{
    version     2.0;
    format      ascii;
    class       volScalarField;
    location    "2530";
    object      epsilon;
}
// * * * * * * * * * * * * * * * * * * * * * * * * * * * * * * * * * * * * * //

dimensions      [0 2 -3 0 0 0 0];

internalField   nonuniform List<scalar> 
458
(
0.000432798
0.000557902
0.000596576
0.000686362
0.000776642
0.00086911
0.000968684
0.00107726
0.00117183
0.00123397
0.00124112
0.00117475
0.00102227
0.000744202
0.000324955
3.9231e-05
6.32036e-05
9.21062e-05
0.000104412
9.95854e-05
8.16104e-05
6.44017e-05
5.12196e-05
4.13693e-05
3.3914e-05
2.81869e-05
2.37378e-05
2.02074e-05
1.73133e-05
1.48367e-05
1.25996e-05
1.13836e-05
8.83705e-06
0.00106103
0.00158339
0.000518438
0.00050261
0.00051845
0.000550918
0.000606256
0.000688447
0.000779683
0.000853898
0.000881989
0.000847757
0.000756846
0.000623974
0.000502
0.00074734
0.00042675
0.00023178
3.82919e-05
7.53634e-05
9.27343e-05
9.34159e-05
8.97165e-05
9.00211e-05
7.05489e-05
5.34855e-05
4.08002e-05
3.1532e-05
2.4737e-05
1.97194e-05
1.5965e-05
1.31665e-05
1.14046e-05
1.06881e-05
3.04927e-05
2.00761e-05
0.00190708
0.00384807
0.000603746
0.000458273
0.000466008
0.000508136
0.000580425
0.000683612
0.000797067
0.0008843
0.000917968
0.000887878
0.000801959
0.000667145
0.00051761
0.000416385
0.000353034
0.000381855
0.000139936
0.000139209
0.000125556
0.000111497
0.000103503
0.000198143
0.000132963
9.11243e-05
6.45188e-05
4.72809e-05
3.58089e-05
2.7984e-05
2.25624e-05
1.88665e-05
1.48267e-05
1.31276e-05
6.48821e-05
3.31352e-05
0.00306297
0.00799464
0.000903793
0.000438969
0.000429207
0.000481218
0.000574929
0.00071789
0.000862604
0.000957972
0.000989207
0.000952897
0.000855237
0.000703337
0.000548512
0.000432357
0.000365857
0.000380501
0.000583867
0.000375824
0.000245153
0.00017826
0.00014045
0.000122976
0.000283228
0.000218151
0.000180079
0.000155017
0.000135732
0.000118227
0.000103057
8.84986e-05
7.33009e-05
4.53957e-05
2.92889e-05
0.000114643
5.06235e-05
0.00464969
0.014428
0.00174036
0.000470843
0.000395599
0.000451568
0.00058885
0.000832766
0.00101848
0.00111179
0.00112831
0.00106919
0.000937418
0.000753712
0.000564858
0.000420059
0.000331654
0.000302677
0.000303803
0.000253581
0.000209358
0.000175096
0.000146277
0.00012205
0.000113046
0.000103797
9.75246e-05
9.21813e-05
8.61871e-05
7.876e-05
7.08776e-05
6.31504e-05
5.58977e-05
4.60254e-05
3.61877e-05
7.47608e-05
0.000114599
0.000120972
0.000143505
0.000184282
0.00687176
0.021736
0.00400168
0.000790703
0.000465072
0.000474032
0.000700663
0.0011198
0.00130615
0.0013658
0.00134347
0.00124602
0.00106714
0.000825188
0.000577611
0.0003887
0.000278797
0.000238494
0.000228196
0.000218209
0.000201105
0.000176734
0.000149268
0.000123731
0.000107307
0.000100891
9.97337e-05
9.93318e-05
9.71951e-05
9.1658e-05
8.17055e-05
7.04436e-05
5.97992e-05
5.01416e-05
4.34353e-05
5.55241e-05
8.83482e-05
0.00010613
0.000206707
0.000205618
0.0096597
0.0261947
0.00879575
0.00280056
0.00145415
0.00114093
0.00148299
0.00172655
0.00178593
0.00174906
0.00164968
0.00148333
0.00122983
0.000908041
0.00058819
0.000355858
0.000234461
0.000200176
0.000202337
0.000202984
0.000190006
0.000166827
0.000141311
0.000120182
0.000109051
0.000108537
0.000113652
0.000120143
0.000125718
0.000128168
0.000124087
0.000111076
9.74778e-05
8.59228e-05
8.04348e-05
8.87125e-05
0.000120573
0.000176764
0.000327314
0.000344784
0.0104473
0.0300993
0.0160957
0.00965281
0.00597014
0.00418054
0.00338359
0.00287602
0.00253816
0.00228116
0.00203899
0.00176084
0.00139711
0.000968314
0.000561316
0.000300451
0.000190367
0.000174367
0.00017962
0.000177104
0.000162193
0.000141945
0.000124114
0.000113525
0.000112222
0.000119058
0.000131173
0.00014686
0.000165751
0.000187744
0.000212042
0.000232934
0.000245997
0.000273114
0.000329067
0.000480061
0.000820504
0.00137763
0.00411027
0.00128189
0.00984346
0.0172564
0.0132407
0.00999031
0.00750808
0.00579393
0.00458961
0.0037907
0.00325098
0.00282352
0.0024266
0.00200615
0.00148365
0.000913991
0.000407028
0.000216075
0.000158872
0.000147525
0.000144452
0.000136929
0.000124598
0.000112488
0.000104968
0.000104105
0.000109947
0.000121519
0.000138068
0.0001599
0.000188371
0.000225729
0.000275048
0.000339939
0.000427249
0.000551974
0.000734081
0.000976819
0.00125106
0.00149864
0.00170332
0.00104489
0.0034793
0.00472068
0.00512313
0.00502784
0.00473247
0.00431911
0.00378267
0.00315734
0.0025471
0.00194793
0.00116388
0.000536644
0.000254591
0.000159707
0.000129176
0.000118205
0.000110938
0.000103126
9.54764e-05
8.99889e-05
8.84612e-05
9.13216e-05
9.81799e-05
0.000108632
0.000122683
0.000140911
0.000164565
0.000195768
0.000237994
0.000297015
0.000378476
0.000488607
0.000629982
0.000786509
0.000911382
0.000944876
0.000871259
0.000544328
0.00289518
0.00861998
0.00828053
0.00717147
0.00607375
0.00478844
0.00347756
0.00225653
0.00128267
0.000709975
0.000375263
0.000215445
0.000151303
0.000124224
0.000111146
0.000102257
9.42653e-05
8.70922e-05
8.17438e-05
7.89617e-05
7.90307e-05
8.20614e-05
8.80124e-05
9.70631e-05
0.000109733
0.000126933
0.000150053
0.000181164
0.000223231
0.000280015
0.000356654
0.000458337
0.000585909
0.000728741
0.00084221
0.000956464
0.000733715
0.000565809
0.0033679
0.00362374
0.00386705
0.00532556
0.00449791
0.00313065
0.00187971
0.00115779
0.000823425
0.000572118
0.000398374
0.000290004
0.000215293
0.000168111
0.000139743
0.000121169
0.000107484
9.65666e-05
8.81308e-05
8.2726e-05
8.07689e-05
8.22412e-05
8.67e-05
9.35425e-05
0.000102691
0.000114282
0.000128657
0.000146408
0.000168487
0.000196547
0.000232066
0.000276391
0.00033168
0.000400612
0.000486179
0.000603806
0.000660757
0.000620994
0.000499726
0.000395349
)
;

boundaryField
{
    floor
    {
        Cmu             0.09;
        kappa           0.41;
        E               9.8;
        type            epsilonWallFunction;
        value           nonuniform List<scalar> 
36
(
0.000324955
3.9231e-05
6.32036e-05
9.21062e-05
0.000104412
9.95854e-05
8.16104e-05
6.44017e-05
5.12196e-05
4.13693e-05
3.3914e-05
2.81869e-05
2.37378e-05
2.02074e-05
1.73133e-05
1.48367e-05
1.25996e-05
1.13836e-05
8.83705e-06
8.83705e-06
2.00761e-05
3.31352e-05
5.06235e-05
0.000120972
0.000143505
0.000184282
0.000324955
0.00074734
0.00042675
0.00023178
3.9231e-05
0.00023178
3.82919e-05
0.000381855
0.000139936
0.000583867
)
;
    }
    ceiling
    {
        Cmu             0.09;
        kappa           0.41;
        E               9.8;
        type            epsilonWallFunction;
        value           nonuniform List<scalar> 
43
(
0.0033679
0.00362374
0.00386705
0.00532556
0.00449791
0.00313065
0.00187971
0.00115779
0.000823425
0.000572118
0.000398374
0.000290004
0.000215293
0.000168111
0.000139743
0.000121169
0.000107484
9.65666e-05
8.81308e-05
8.2726e-05
8.07689e-05
8.22412e-05
8.67e-05
9.35425e-05
0.000102691
0.000114282
0.000128657
0.000146408
0.000168487
0.000196547
0.000232066
0.000276391
0.00033168
0.000400612
0.000486179
0.000603806
0.000660757
0.000620994
0.000499726
0.000395349
0.00984346
0.0172564
0.00289518
)
;
    }
    sWall
    {
        Cmu             0.09;
        kappa           0.41;
        E               9.8;
        type            epsilonWallFunction;
        value           uniform 0.0033679;
    }
    nWall
    {
        Cmu             0.09;
        kappa           0.41;
        E               9.8;
        type            epsilonWallFunction;
        value           nonuniform List<scalar> 6(0.000184282 0.000205618 0.000344784 0.000544328 0.000565809 0.000395349);
    }
    sideWalls
    {
        type            empty;
    }
    glass1
    {
        Cmu             0.09;
        kappa           0.41;
        E               9.8;
        type            epsilonWallFunction;
        value           nonuniform List<scalar> 9(0.000432798 0.00106103 0.00190708 0.00306297 0.00464969 0.00687176 0.0096597 0.0104473 0.00984346);
    }
    glass2
    {
        Cmu             0.09;
        kappa           0.41;
        E               9.8;
        type            epsilonWallFunction;
        value           nonuniform List<scalar> 2(0.00128189 0.00104489);
    }
    sun
    {
        Cmu             0.09;
        kappa           0.41;
        E               9.8;
        type            epsilonWallFunction;
        value           nonuniform List<scalar> 
14
(
0.000432798
0.000557902
0.000596576
0.000686362
0.000776642
0.00086911
0.000968684
0.00107726
0.00117183
0.00123397
0.00124112
0.00117475
0.00102227
0.000744202
)
;
    }
    Table_master
    {
        Cmu             0.09;
        kappa           0.41;
        E               9.8;
        type            epsilonWallFunction;
        value           nonuniform List<scalar> 9(0.000198143 0.000132963 9.11243e-05 6.45188e-05 4.72809e-05 3.58089e-05 2.7984e-05 2.25624e-05 1.88665e-05);
    }
    Table_slave
    {
        Cmu             0.09;
        kappa           0.41;
        E               9.8;
        type            epsilonWallFunction;
        value           nonuniform List<scalar> 9(0.000283228 0.000218151 0.000180079 0.000155017 0.000135732 0.000118227 0.000103057 8.84986e-05 7.33009e-05);
    }
    inlet
    {
        type            turbulentMixingLengthDissipationRateInlet;
        mixingLength    0.01;
        phi             phi;
        k               k;
        value           uniform 0.000471672;
    }
    outlet
    {
        type            zeroGradient;
    }
}


// ************************************************************************* //
