/*--------------------------------*- C++ -*----------------------------------*\
  =========                 |
  \\      /  F ield         | OpenFOAM: The Open Source CFD Toolbox
   \\    /   O peration     | Website:  https://openfoam.org
    \\  /    A nd           | Version:  6
     \\/     M anipulation  |
\*---------------------------------------------------------------------------*/
FoamFile
{
    version     2.0;
    format      ascii;
    class       volScalarField;
    location    "1920";
    object      alphat;
}
// * * * * * * * * * * * * * * * * * * * * * * * * * * * * * * * * * * * * * //

dimensions      [1 -1 -1 0 0 0 0];

internalField   nonuniform List<scalar> 
458
(
0.00124409
0.00135521
0.0013859
0.00145222
0.0015133
0.00157114
0.001629
0.00168775
0.00173579
0.001766
0.00176945
0.00173734
0.00165864
0.001492
0.00113178
0.000559102
0.000655479
0.000743166
0.000774876
0.000762731
0.00071375
0.000659562
0.000611075
0.000569074
0.000532593
0.000500738
0.000472863
0.000448145
0.000425631
0.000404277
0.000382834
0.000370089
0.000340106
0.00167643
0.00377455
0.00348167
0.0039893
0.0044954
0.00501601
0.00548322
0.00584453
0.00621584
0.00656357
0.0068426
0.00701212
0.00702795
0.00678327
0.00551276
0.00149402
0.00123945
0.00101119
0.000554585
0.00131631
0.00191863
0.00238483
0.00253221
0.00184543
0.00155789
0.00136223
0.00121786
0.00110722
0.00101945
0.00094377
0.000872629
0.000801611
0.000738177
0.000684996
0.0008379
0.000447113
0.00203692
0.00507252
0.0041865
0.00510446
0.00549011
0.00576096
0.00596917
0.00616145
0.00642933
0.00675517
0.00711132
0.0074602
0.00773544
0.00783161
0.00737921
0.00601394
0.00455776
0.00119429
0.000854309
0.00147431
0.00214539
0.00281283
0.00300334
0.000959305
0.000839858
0.000740469
0.000659969
0.000595008
0.000542364
0.00049957
0.000464965
0.000438047
0.000485439
0.000562192
0.000983086
0.000528391
0.00238376
0.00647829
0.00407216
0.00528779
0.00549873
0.0054776
0.00545806
0.00555027
0.00576833
0.00609103
0.00650099
0.00695788
0.00735759
0.00760862
0.00755148
0.00716065
0.00614561
0.00337383
0.00137582
0.00175209
0.00240867
0.00321252
0.0039092
0.00394327
0.00108043
0.000990332
0.000928964
0.000883668
0.000845367
0.000807312
0.000771175
0.000732993
0.000688368
0.000648444
0.000639023
0.00117166
0.000608555
0.00273781
0.00836893
0.00427095
0.00501918
0.00532065
0.00514037
0.00499371
0.00507737
0.00530774
0.00564384
0.00608615
0.00658733
0.00697901
0.00717352
0.00716819
0.00703111
0.00662585
0.00547889
0.00496575
0.00500154
0.00529281
0.00563975
0.00585232
0.00575586
0.00491065
0.00447597
0.00423636
0.00406467
0.00389098
0.00366731
0.00328729
0.00279782
0.00224099
0.00170471
0.00127864
0.00119128
0.00103422
0.000813328
0.00086076
0.000935588
0.00311664
0.0104978
0.00584857
0.00464673
0.00506415
0.00505343
0.0048662
0.00493543
0.00517066
0.00550726
0.00595618
0.00643688
0.00679942
0.00691473
0.00680425
0.0066468
0.00657608
0.00648159
0.00667654
0.00701462
0.00725154
0.00729339
0.00713315
0.00679852
0.00633152
0.00595215
0.00565674
0.00539639
0.00514086
0.00486973
0.00451952
0.00403949
0.00343231
0.00274548
0.0021098
0.00152983
0.00125747
0.00109687
0.00138115
0.000970514
0.00348936
0.0121022
0.00872434
0.0057101
0.00496884
0.00504015
0.00510375
0.00514052
0.00527439
0.00557174
0.00601379
0.00649035
0.00682265
0.00685882
0.00664935
0.00649802
0.00674748
0.00730066
0.00786349
0.00818082
0.00818108
0.00790825
0.00744639
0.00688459
0.00632516
0.005875
0.00553417
0.00525786
0.0050162
0.00479924
0.00460183
0.00434377
0.00391937
0.00335239
0.00276331
0.00219734
0.00182799
0.0016746
0.00159617
0.0011531
0.00357896
0.0112154
0.00952689
0.00799795
0.00682805
0.0063098
0.00582337
0.00549385
0.0054901
0.00577431
0.0062316
0.00670223
0.00698156
0.00691636
0.00665966
0.00672348
0.00743618
0.00802093
0.00832516
0.00831073
0.00797992
0.00740816
0.00670471
0.00599558
0.00540654
0.00499377
0.00471543
0.00451553
0.00436764
0.00426794
0.00422368
0.00422572
0.00411262
0.00377567
0.00344714
0.00326412
0.003344
0.00352999
0.00419314
0.00178523
0.00350478
0.0042304
0.00467531
0.00492485
0.00496211
0.00488888
0.00489234
0.00510051
0.00552033
0.00605405
0.00659934
0.00702814
0.00716468
0.00691727
0.00684679
0.00720829
0.00762629
0.00776935
0.00766528
0.00730207
0.0066938
0.00594269
0.00519283
0.00457777
0.00415234
0.00388143
0.00369973
0.00356167
0.00344391
0.00333338
0.00321993
0.00309534
0.00298236
0.00288455
0.00281976
0.00278318
0.00271365
0.00257064
0.00239704
0.00166669
0.00157982
0.00276061
0.00377665
0.00457223
0.00530096
0.00600994
0.00657139
0.00694723
0.00719125
0.0072239
0.00698586
0.00669694
0.00669766
0.00681712
0.0067253
0.00645439
0.00602719
0.00545223
0.00479076
0.00414475
0.00363054
0.00328426
0.00307197
0.00294168
0.0028552
0.00279217
0.00274383
0.0027081
0.00268804
0.00269431
0.00271004
0.00272402
0.00272476
0.00268163
0.00254865
0.00231436
0.00202418
0.00134113
0.00238086
0.00465358
0.00595119
0.00679176
0.00744545
0.00749576
0.00710367
0.00670964
0.0063724
0.00573433
0.00528049
0.00517472
0.00510302
0.0049031
0.00460202
0.00422887
0.00379142
0.00333114
0.00291636
0.00259356
0.0023711
0.00224292
0.00218289
0.00216996
0.0021912
0.00223845
0.00230447
0.00238083
0.00247031
0.00257295
0.00268276
0.00279061
0.00287832
0.00292215
0.00288125
0.00284557
0.0026199
0.00135861
0.0024916
0.0025535
0.00260944
0.00289323
0.00272906
0.0024143
0.00203356
0.00172835
0.00154178
0.00136497
0.0012095
0.00108785
0.000984916
0.000906906
0.000852691
0.000813086
0.000781229
0.000753815
0.000731182
0.00071591
0.000710213
0.000714502
0.000727189
0.000745839
0.000769403
0.000797327
0.000829453
0.00086597
0.000907482
0.000955288
0.00100968
0.00107026
0.00113733
0.0012112
0.00129192
0.00138864
0.00143095
0.00140161
0.00130368
0.00120558
)
;

boundaryField
{
    floor
    {
        type            compressible::alphatWallFunction;
        Prt             0.85;
        value           nonuniform List<scalar> 
36
(
0.000160683
7.82005e-05
9.26076e-05
0.000105492
0.000110106
0.000108342
0.000101192
9.32128e-05
8.60052e-05
7.97049e-05
7.41859e-05
6.93282e-05
6.50457e-05
6.12214e-05
5.7715e-05
5.43671e-05
5.09825e-05
4.89594e-05
4.41638e-05
4.41632e-05
6.1062e-05
7.35483e-05
8.56305e-05
0.000115679
0.000122505
0.000133176
0.000160681
0.000210147
0.000175551
0.000143836
7.81996e-05
0.000143834
7.75175e-05
0.000169332
0.000121564
0.000194176
)
;
    }
    ceiling
    {
        type            compressible::alphatWallFunction;
        Prt             0.85;
        value           nonuniform List<scalar> 
43
(
0.000340274
0.000348138
0.000355228
0.000391035
0.00037045
0.000330562
0.000281544
0.000241531
0.000216691
0.000192836
0.000171569
0.00015471
0.000140274
0.000129216
0.000121465
0.000115766
0.000111157
0.000107174
0.000103872
0.000101637
0.000100802
0.00010143
0.000103288
0.000106012
0.000109442
0.00011349
0.000118126
0.00012337
0.0001293
0.000136089
0.000143766
0.000152259
0.000161598
0.000171812
0.000182891
0.000196064
0.000201793
0.000197823
0.0001845
0.000171042
0.000467119
0.000555335
0.000326055
)
;
    }
    sWall
    {
        type            compressible::alphatWallFunction;
        Prt             0.85;
        value           uniform 0.000339031;
    }
    nWall
    {
        type            compressible::alphatWallFunction;
        Prt             0.85;
        value           nonuniform List<scalar> 6(0.000132957 0.000137898 0.000163425 0.000189266 0.000191642 0.000170701);
    }
    sideWalls
    {
        type            empty;
    }
    glass1
    {
        type            compressible::alphatWallFunction;
        Prt             0.85;
        value           nonuniform List<scalar> 9(0.000171655 0.000229163 0.000275988 0.000320285 0.000364869 0.000411952 0.000457739 0.000468809 0.000459996);
    }
    glass2
    {
        type            compressible::alphatWallFunction;
        Prt             0.85;
        value           nonuniform List<scalar> 2(0.000247083 0.00023154);
    }
    sun
    {
        type            compressible::alphatWallFunction;
        Prt             0.85;
        value           nonuniform List<scalar> 
14
(
0.000176205
0.000191375
0.000195542
0.000204515
0.000212739
0.000220492
0.000228217
0.000236028
0.000242394
0.000246387
0.000246842
0.000242599
0.00023216
0.000209874
)
;
    }
    Table_master
    {
        type            compressible::alphatWallFunction;
        Prt             0.85;
        value           nonuniform List<scalar> 9(0.000136671 0.000119636 0.000105241 9.34117e-05 8.37371e-05 7.58013e-05 6.92794e-05 6.39541e-05 5.9777e-05);
    }
    Table_slave
    {
        type            compressible::alphatWallFunction;
        Prt             0.85;
        value           nonuniform List<scalar> 9(0.000153697 0.000141058 0.000132372 0.000125918 0.00012043 0.000114949 0.000109714 0.000104152 9.76063e-05);
    }
    inlet
    {
        type            fixedValue;
        value           uniform 1.94e-05;
    }
    outlet
    {
        type            zeroGradient;
    }
}


// ************************************************************************* //
