/*--------------------------------*- C++ -*----------------------------------*\
  =========                 |
  \\      /  F ield         | OpenFOAM: The Open Source CFD Toolbox
   \\    /   O peration     | Website:  https://openfoam.org
    \\  /    A nd           | Version:  6
     \\/     M anipulation  |
\*---------------------------------------------------------------------------*/
FoamFile
{
    version     2.0;
    format      ascii;
    class       volScalarField;
    location    "1920";
    object      epsilon;
}
// * * * * * * * * * * * * * * * * * * * * * * * * * * * * * * * * * * * * * //

dimensions      [0 2 -3 0 0 0 0];

internalField   nonuniform List<scalar> 
458
(
0.000432801
0.000557907
0.000596588
0.000686375
0.000776654
0.000869122
0.000968688
0.00107727
0.00117183
0.00123398
0.00124112
0.00117474
0.00102224
0.00074416
0.000324957
3.92307e-05
6.32024e-05
9.21045e-05
0.000104411
9.95845e-05
8.16094e-05
6.44011e-05
5.12191e-05
4.13691e-05
3.39139e-05
2.81867e-05
2.3738e-05
2.02076e-05
1.73133e-05
1.48368e-05
1.25997e-05
1.13836e-05
8.83703e-06
0.00106102
0.00158339
0.000518456
0.000502628
0.000518475
0.000550944
0.000606284
0.000688484
0.000779722
0.000853934
0.000882023
0.000847788
0.000756869
0.000623987
0.000502005
0.000747359
0.000426763
0.000231787
3.82924e-05
7.53628e-05
9.27355e-05
9.34184e-05
8.97187e-05
9.00222e-05
7.05508e-05
5.3487e-05
4.08014e-05
3.1533e-05
2.47379e-05
1.97203e-05
1.59657e-05
1.31672e-05
1.14053e-05
1.06882e-05
3.04918e-05
2.00755e-05
0.00190708
0.00384799
0.000603763
0.000458291
0.000466033
0.000508168
0.000580465
0.000683661
0.000797125
0.000884366
0.000918033
0.000887941
0.00080201
0.000667182
0.000517641
0.00041641
0.000353057
0.000381876
0.000139927
0.000139209
0.00012556
0.000111504
0.00010351
0.000198149
0.000132966
9.11268e-05
6.45207e-05
4.72823e-05
3.58101e-05
2.7985e-05
2.25631e-05
1.88671e-05
1.48274e-05
1.31276e-05
6.48792e-05
3.31347e-05
0.00306283
0.00799471
0.000903816
0.000438975
0.000429215
0.000481233
0.000574947
0.000717913
0.000862675
0.00095805
0.00098929
0.000952976
0.000855304
0.00070339
0.00054855
0.000432388
0.000365883
0.000380522
0.000583898
0.000375846
0.000245168
0.000178275
0.000140459
0.000122985
0.000283247
0.000218166
0.000180094
0.000155031
0.000135746
0.000118234
0.000103062
8.8503e-05
7.33042e-05
4.53951e-05
2.92891e-05
0.000114643
5.06241e-05
0.00464968
0.0144279
0.00174037
0.000470856
0.000395616
0.000451589
0.000588876
0.000832804
0.0010185
0.00111181
0.00112834
0.00106921
0.00093746
0.000753743
0.000564879
0.000420076
0.000331667
0.000302688
0.000303809
0.000253591
0.000209368
0.000175106
0.000146286
0.00012206
0.000113055
0.000103805
9.75296e-05
9.21854e-05
8.61904e-05
7.87618e-05
7.08785e-05
6.31512e-05
5.58983e-05
4.60258e-05
3.6188e-05
7.47594e-05
0.000114593
0.00012097
0.000143505
0.000184282
0.00687177
0.0217358
0.00400176
0.00079074
0.000465099
0.000474061
0.000700716
0.00111989
0.00130622
0.00136588
0.00134355
0.00124611
0.00106721
0.000825232
0.000577644
0.000388725
0.000278815
0.000238511
0.000228214
0.000218226
0.000201121
0.000176745
0.000149279
0.00012374
0.000107316
0.000100898
9.9739e-05
9.93363e-05
9.71994e-05
9.16615e-05
8.17081e-05
7.04454e-05
5.98008e-05
5.01426e-05
4.34361e-05
5.55246e-05
8.83486e-05
0.000106129
0.000206707
0.000205618
0.00965922
0.0261948
0.00879596
0.00280077
0.0014543
0.00114102
0.00148315
0.00172671
0.00178604
0.00174914
0.00164977
0.00148342
0.00122991
0.000908102
0.000588229
0.000355889
0.000234485
0.000200194
0.000202355
0.000203002
0.000190024
0.000166843
0.000141327
0.000120191
0.00010906
0.000108544
0.000113659
0.000120149
0.000125725
0.000128175
0.000124094
0.000111083
9.74815e-05
8.59259e-05
8.04379e-05
8.87154e-05
0.000120578
0.00017677
0.000327316
0.000344789
0.0104472
0.030098
0.0160957
0.00965284
0.00597026
0.00418072
0.00338371
0.00287609
0.00253821
0.00228121
0.00203908
0.00176093
0.00139715
0.000968346
0.000561342
0.000300469
0.000190379
0.000174379
0.000179631
0.000177116
0.000162202
0.000141954
0.000124117
0.000113528
0.000112223
0.000119058
0.000131173
0.00014686
0.000165745
0.000187738
0.000212036
0.000232935
0.000245998
0.00027311
0.000329063
0.000480056
0.000820486
0.00137763
0.0041102
0.00128189
0.00984349
0.0172562
0.0132407
0.00999029
0.00750809
0.00579396
0.0045897
0.0037908
0.00325109
0.00282363
0.00242674
0.00200626
0.00148374
0.000914037
0.000407046
0.000216086
0.000158881
0.000147535
0.000144461
0.000136938
0.000124605
0.00011249
0.000104969
0.000104105
0.000109948
0.000121519
0.000138068
0.000159898
0.00018837
0.000225727
0.000275042
0.000339933
0.000427243
0.000551967
0.000734067
0.000976798
0.00125105
0.00149864
0.00170332
0.0010449
0.00347944
0.00472077
0.00512319
0.00502799
0.00473264
0.0043193
0.00378289
0.00315759
0.0025473
0.00194805
0.00116387
0.000536632
0.000254582
0.000159705
0.000129176
0.000118205
0.000110938
0.000103124
9.54731e-05
8.99852e-05
8.84568e-05
9.13171e-05
9.81761e-05
0.00010863
0.000122681
0.000140909
0.000164563
0.000195768
0.000237993
0.000297014
0.000378476
0.000488612
0.000629986
0.000786512
0.000911391
0.000944894
0.000871284
0.000544328
0.00289514
0.00862019
0.0082811
0.00717199
0.0060742
0.00478875
0.0034778
0.00225661
0.00128275
0.000710008
0.000375265
0.000215441
0.000151298
0.000124213
0.000111134
0.000102245
9.42517e-05
8.70789e-05
8.17319e-05
7.89516e-05
7.90229e-05
8.20546e-05
8.80064e-05
9.7058e-05
0.00010973
0.00012693
0.000150051
0.000181163
0.00022323
0.000280018
0.000356658
0.000458347
0.000585919
0.000728752
0.000842224
0.000956483
0.000733727
0.000565823
0.00336794
0.00362379
0.00386705
0.00532553
0.00449784
0.00313042
0.00187955
0.0011578
0.00082344
0.000572131
0.00039838
0.000289993
0.000215279
0.0001681
0.000139735
0.000121164
0.000107479
9.65612e-05
8.81251e-05
8.27197e-05
8.07617e-05
8.22335e-05
8.66921e-05
9.35345e-05
0.000102683
0.000114273
0.000128649
0.000146399
0.000168478
0.000196531
0.000232049
0.000276373
0.00033166
0.000400591
0.000486161
0.000603785
0.000660737
0.000620976
0.000499712
0.000395341
)
;

boundaryField
{
    floor
    {
        Cmu             0.09;
        kappa           0.41;
        E               9.8;
        type            epsilonWallFunction;
        value           nonuniform List<scalar> 
36
(
0.000324957
3.92307e-05
6.32024e-05
9.21045e-05
0.000104411
9.95845e-05
8.16094e-05
6.44011e-05
5.12191e-05
4.13691e-05
3.39139e-05
2.81867e-05
2.3738e-05
2.02076e-05
1.73133e-05
1.48368e-05
1.25997e-05
1.13836e-05
8.83703e-06
8.83703e-06
2.00755e-05
3.31347e-05
5.06241e-05
0.00012097
0.000143505
0.000184282
0.000324957
0.000747359
0.000426763
0.000231787
3.92307e-05
0.000231787
3.82924e-05
0.000381876
0.000139927
0.000583898
)
;
    }
    ceiling
    {
        Cmu             0.09;
        kappa           0.41;
        E               9.8;
        type            epsilonWallFunction;
        value           nonuniform List<scalar> 
43
(
0.00336794
0.00362379
0.00386705
0.00532553
0.00449784
0.00313042
0.00187955
0.0011578
0.00082344
0.000572131
0.00039838
0.000289993
0.000215279
0.0001681
0.000139735
0.000121164
0.000107479
9.65612e-05
8.81251e-05
8.27197e-05
8.07617e-05
8.22335e-05
8.66921e-05
9.35345e-05
0.000102683
0.000114273
0.000128649
0.000146399
0.000168478
0.000196531
0.000232049
0.000276373
0.00033166
0.000400591
0.000486161
0.000603785
0.000660737
0.000620976
0.000499712
0.000395341
0.00984349
0.0172562
0.00289514
)
;
    }
    sWall
    {
        Cmu             0.09;
        kappa           0.41;
        E               9.8;
        type            epsilonWallFunction;
        value           uniform 0.00336794;
    }
    nWall
    {
        Cmu             0.09;
        kappa           0.41;
        E               9.8;
        type            epsilonWallFunction;
        value           nonuniform List<scalar> 6(0.000184282 0.000205618 0.000344789 0.000544328 0.000565823 0.000395341);
    }
    sideWalls
    {
        type            empty;
    }
    glass1
    {
        Cmu             0.09;
        kappa           0.41;
        E               9.8;
        type            epsilonWallFunction;
        value           nonuniform List<scalar> 9(0.000432801 0.00106102 0.00190708 0.00306283 0.00464968 0.00687177 0.00965922 0.0104472 0.00984349);
    }
    glass2
    {
        Cmu             0.09;
        kappa           0.41;
        E               9.8;
        type            epsilonWallFunction;
        value           nonuniform List<scalar> 2(0.00128189 0.0010449);
    }
    sun
    {
        Cmu             0.09;
        kappa           0.41;
        E               9.8;
        type            epsilonWallFunction;
        value           nonuniform List<scalar> 
14
(
0.000432801
0.000557907
0.000596588
0.000686375
0.000776654
0.000869122
0.000968688
0.00107727
0.00117183
0.00123398
0.00124112
0.00117474
0.00102224
0.00074416
)
;
    }
    Table_master
    {
        Cmu             0.09;
        kappa           0.41;
        E               9.8;
        type            epsilonWallFunction;
        value           nonuniform List<scalar> 9(0.000198149 0.000132966 9.11268e-05 6.45207e-05 4.72823e-05 3.58101e-05 2.7985e-05 2.25631e-05 1.88671e-05);
    }
    Table_slave
    {
        Cmu             0.09;
        kappa           0.41;
        E               9.8;
        type            epsilonWallFunction;
        value           nonuniform List<scalar> 9(0.000283247 0.000218166 0.000180094 0.000155031 0.000135746 0.000118234 0.000103062 8.8503e-05 7.33042e-05);
    }
    inlet
    {
        type            turbulentMixingLengthDissipationRateInlet;
        mixingLength    0.01;
        phi             phi;
        k               k;
        value           uniform 0.000471672;
    }
    outlet
    {
        type            zeroGradient;
    }
}


// ************************************************************************* //
