/*--------------------------------*- C++ -*----------------------------------*\
  =========                 |
  \\      /  F ield         | OpenFOAM: The Open Source CFD Toolbox
   \\    /   O peration     | Website:  https://openfoam.org
    \\  /    A nd           | Version:  6
     \\/     M anipulation  |
\*---------------------------------------------------------------------------*/
FoamFile
{
    version     2.0;
    format      ascii;
    class       volVectorField;
    location    "1920";
    object      U;
}
// * * * * * * * * * * * * * * * * * * * * * * * * * * * * * * * * * * * * * //

dimensions      [0 1 -1 0 0 0 0];

internalField   nonuniform List<vector> 
458
(
(0.0348284 0.0885211 0)
(-0.172078 0.0265828 0)
(-0.199344 0.0191129 0)
(-0.233218 0.0130813 0)
(-0.258391 0.00641442 0)
(-0.273596 -0.000803615 0)
(-0.276727 -0.00877631 0)
(-0.265483 -0.0177754 0)
(-0.239429 -0.0274237 0)
(-0.199722 -0.0361081 0)
(-0.15046 -0.042048 0)
(-0.097846 -0.0436489 0)
(-0.0487458 -0.0390811 0)
(-0.00628861 -0.0236932 0)
(-0.0102739 0.00976626 0)
(-0.0102296 0.0105069 0)
(-0.0372475 -0.0174965 0)
(-0.0144961 -0.0291155 0)
(0.0137004 -0.0251855 0)
(0.0334655 -0.0178896 0)
(0.0480827 -0.00955567 0)
(0.0568415 -0.00517751 0)
(0.0607191 -0.00363368 0)
(0.0621539 -0.00308389 0)
(0.0628028 -0.00276082 0)
(0.0631123 -0.0025102 0)
(0.0630509 -0.00224211 0)
(0.0624524 -0.00179779 0)
(0.0608597 -0.000838702 0)
(0.0572559 0.0010754 0)
(0.0505332 0.00317281 0)
(0.0451216 0.00509035 0)
(-0.014138 0.0219518 0)
(0.214277 0.181888 0)
(-0.162148 0.0709904 0)
(-0.162939 0.057761 0)
(-0.198654 0.0457428 0)
(-0.22413 0.0319887 0)
(-0.240106 0.0161774 0)
(-0.244611 -0.00240665 0)
(-0.235118 -0.0239616 0)
(-0.211873 -0.0461634 0)
(-0.176495 -0.0649199 0)
(-0.133369 -0.0764212 0)
(-0.0881421 -0.0781961 0)
(-0.0462757 -0.0687311 0)
(-0.0100453 -0.0460261 0)
(0.0193948 -0.0133918 0)
(0.0442271 0.00784342 0)
(0.054838 0.0347556 0)
(-0.0118187 0.0706813 0)
(0.0670475 0.0439719 0)
(0.0103163 -0.021834 0)
(0.0265315 -0.0379021 0)
(0.0407619 -0.0356469 0)
(0.0531513 -0.0273402 0)
(0.0595753 -0.0120917 0)
(0.0611956 -0.00275211 0)
(0.0612448 0.000746677 0)
(0.0614091 0.00202407 0)
(0.0617343 0.00272297 0)
(0.0619593 0.00322291 0)
(0.0620168 0.00367627 0)
(0.0619126 0.00440886 0)
(0.0612012 0.00620755 0)
(0.0578035 0.0112279 0)
(0.0491101 0.0155393 0)
(0.0476973 0.0187135 0)
(-0.0584159 0.0475569 0)
(0.37954 0.272953 0)
(-0.180119 0.11373 0)
(-0.123511 0.0941073 0)
(-0.159195 0.0724337 0)
(-0.182597 0.0495037 0)
(-0.198408 0.0236455 0)
(-0.204062 -0.00652954 0)
(-0.195376 -0.0409714 0)
(-0.173597 -0.0757705 0)
(-0.141434 -0.103638 0)
(-0.103853 -0.118944 0)
(-0.065909 -0.119151 0)
(-0.0318373 -0.10412 0)
(-0.0022937 -0.0744056 0)
(0.0220137 -0.0400819 0)
(0.0375797 -0.015227 0)
(0.0431642 0.0131546 0)
(-0.0236791 0.0623075 0)
(0.122496 -0.00756292 0)
(0.0725087 -0.0321091 0)
(0.0643114 -0.0419378 0)
(0.0672619 -0.0417605 0)
(0.0718726 -0.0380446 0)
(0.073495 -0.0282267 0)
(0.0643729 -0.0183278 0)
(0.0574186 -0.013026 0)
(0.0548202 -0.0100779 0)
(0.0541293 -0.00818535 0)
(0.0538957 -0.00689691 0)
(0.0539667 -0.00590183 0)
(0.054767 -0.00475236 0)
(0.0572197 -0.00139683 0)
(0.0561147 0.0149989 0)
(0.0445974 0.0258782 0)
(0.0541335 0.0332603 0)
(-0.0993609 0.072805 0)
(0.530035 0.34665 0)
(-0.216672 0.151752 0)
(-0.0801991 0.125834 0)
(-0.115538 0.0962958 0)
(-0.133417 0.067225 0)
(-0.146929 0.0337666 0)
(-0.152516 -0.00710431 0)
(-0.142624 -0.055043 0)
(-0.121294 -0.102295 0)
(-0.0929873 -0.137826 0)
(-0.0625423 -0.155414 0)
(-0.033584 -0.153421 0)
(-0.0088108 -0.133438 0)
(0.0128512 -0.0979279 0)
(0.0304161 -0.0589794 0)
(0.0443381 -0.0229046 0)
(0.0599354 0.013139 0)
(0.0588019 0.0534254 0)
(0.100315 0.0614959 0)
(0.098801 -0.00245747 0)
(0.0851337 -0.0294016 0)
(0.0784504 -0.0376978 0)
(0.0736009 -0.0383981 0)
(0.067007 -0.0341095 0)
(0.0665887 -0.0208389 0)
(0.0772658 -0.0138304 0)
(0.0862297 -0.0101075 0)
(0.0916298 -0.00782454 0)
(0.0948702 -0.00591675 0)
(0.0962772 -0.00385558 0)
(0.0945092 -0.00118997 0)
(0.0882468 0.00248061 0)
(0.0757031 0.00774351 0)
(0.0597915 0.0251031 0)
(0.0440585 0.0405925 0)
(0.0629734 0.0533577 0)
(-0.131368 0.0942924 0)
(0.662689 0.403808 0)
(-0.262357 0.182675 0)
(-0.0350347 0.145255 0)
(-0.0687509 0.111318 0)
(-0.0779478 0.0792343 0)
(-0.0862954 0.0412537 0)
(-0.0890516 -0.00797952 0)
(-0.074034 -0.0688008 0)
(-0.053489 -0.125885 0)
(-0.0315866 -0.165057 0)
(-0.0112831 -0.181829 0)
(0.00615302 -0.175984 0)
(0.0193166 -0.151481 0)
(0.0303329 -0.114541 0)
(0.04018 -0.0729618 0)
(0.0494209 -0.0337282 0)
(0.0619163 0.000665749 0)
(0.0760176 0.0197029 0)
(0.0903058 -0.000582962 0)
(0.089662 -0.0213874 0)
(0.0825942 -0.0300456 0)
(0.0737873 -0.0325577 0)
(0.0655438 -0.0316348 0)
(0.0586014 -0.0266355 0)
(0.0568223 -0.0155139 0)
(0.0603781 -0.00902842 0)
(0.0647214 -0.00637408 0)
(0.0684465 -0.00483161 0)
(0.0716907 -0.00275104 0)
(0.0741984 0.000780349 0)
(0.0750484 0.00596814 0)
(0.0731544 0.0129869 0)
(0.0682447 0.0224385 0)
(0.0611977 0.0371805 0)
(0.0500472 0.0536357 0)
(0.0748532 0.0727581 0)
(-0.00684639 0.101396 0)
(0.0557826 0.150675 0)
(-0.0835262 0.0748335 0)
(-0.277796 0.000482357 0)
(0.761896 0.451323 0)
(-0.308553 0.203336 0)
(0.00242848 0.143884 0)
(-0.0205868 0.116258 0)
(-0.0197933 0.0857233 0)
(-0.0215029 0.0472988 0)
(-0.014319 -0.00692862 0)
(0.0103088 -0.0859093 0)
(0.0269191 -0.146176 0)
(0.0388217 -0.182408 0)
(0.0460426 -0.194541 0)
(0.0488914 -0.185044 0)
(0.0486266 -0.158118 0)
(0.0472203 -0.119918 0)
(0.0460433 -0.0779393 0)
(0.0464553 -0.0397082 0)
(0.0508026 -0.00999628 0)
(0.0599485 0.00481412 0)
(0.066223 -0.00106361 0)
(0.0649681 -0.0110262 0)
(0.0585817 -0.0188178 0)
(0.050411 -0.0229206 0)
(0.0427743 -0.0236682 0)
(0.0368004 -0.0211402 0)
(0.0342515 -0.0157751 0)
(0.0354034 -0.0122986 0)
(0.0383595 -0.0108671 0)
(0.0420174 -0.00977841 0)
(0.0460787 -0.00764133 0)
(0.0502621 -0.00338594 0)
(0.0544731 0.00368354 0)
(0.0569901 0.0131871 0)
(0.0581559 0.0249451 0)
(0.0592806 0.0395805 0)
(0.0583571 0.0560045 0)
(0.0797022 0.0767028 0)
(0.0654424 0.0889962 0)
(0.0997195 0.0967372 0)
(0.117478 0.057199 0)
(-0.1369 -0.0299335 0)
(0.815618 0.494187 0)
(-0.334125 0.187369 0)
(0.0322385 0.0937994 0)
(0.0390594 0.101055 0)
(0.0459269 0.0830022 0)
(0.0516189 0.0393752 0)
(0.0790906 -0.0311614 0)
(0.103104 -0.10369 0)
(0.113282 -0.157001 0)
(0.11286 -0.186317 0)
(0.104582 -0.192421 0)
(0.0907927 -0.178769 0)
(0.074098 -0.149767 0)
(0.0575035 -0.111561 0)
(0.0429701 -0.0709057 0)
(0.0326083 -0.0356906 0)
(0.0280857 -0.0107581 0)
(0.0294833 0.000983177 0)
(0.0311176 -0.000291134 0)
(0.0296152 -0.00658026 0)
(0.0249629 -0.0126414 0)
(0.0188437 -0.0163795 0)
(0.0128195 -0.0177516 0)
(0.008015 -0.0171123 0)
(0.00565606 -0.0152026 0)
(0.0060002 -0.014108 0)
(0.00804109 -0.013974 0)
(0.0110406 -0.0137472 0)
(0.0148366 -0.0123651 0)
(0.0195149 -0.00874176 0)
(0.0256839 -0.00163578 0)
(0.0332935 0.00886981 0)
(0.0400594 0.0208917 0)
(0.0478681 0.0341622 0)
(0.0558675 0.047963 0)
(0.0754449 0.064462 0)
(0.0882277 0.0697776 0)
(0.119669 0.063212 0)
(0.163391 0.051304 0)
(-0.0203458 0.0954853 0)
(0.921874 0.497287 0)
(-0.0766836 0.167417 0)
(0.110605 0.0261617 0)
(0.163733 0.0227956 0)
(0.161394 0.0155516 0)
(0.162859 -0.0293548 0)
(0.196482 -0.0804012 0)
(0.211267 -0.125532 0)
(0.205359 -0.158266 0)
(0.185094 -0.173971 0)
(0.155591 -0.171666 0)
(0.121095 -0.153969 0)
(0.0853011 -0.124273 0)
(0.0523737 -0.0880709 0)
(0.0244638 -0.0510495 0)
(0.00511022 -0.0219153 0)
(-0.00464222 -0.00442745 0)
(-0.00656963 0.00175093 0)
(-0.00645152 0.000653006 0)
(-0.00765336 -0.00367387 0)
(-0.0109543 -0.00802412 0)
(-0.0154525 -0.0110885 0)
(-0.0200855 -0.0128585 0)
(-0.0239483 -0.0136941 0)
(-0.0263293 -0.0141444 0)
(-0.0272202 -0.0148947 0)
(-0.0271837 -0.0158777 0)
(-0.0266018 -0.0165899 0)
(-0.0254742 -0.0165026 0)
(-0.0234947 -0.0150382 0)
(-0.0198689 -0.0114657 0)
(-0.0117153 -0.00490822 0)
(-0.000102395 0.00446094 0)
(0.0110787 0.0137631 0)
(0.0226822 0.0208686 0)
(0.0398942 0.0277405 0)
(0.0554271 0.0224425 0)
(0.0795693 0.00564847 0)
(0.146407 0.0479757 0)
(-0.42834 0.212664 0)
(1.06591 0.444167 0)
(0.518239 0.298303 0)
(0.529533 0.249861 0)
(0.518389 0.182909 0)
(0.469833 0.122442 0)
(0.433151 0.060117 0)
(0.392044 -0.00741764 0)
(0.342844 -0.0669721 0)
(0.289089 -0.107853 0)
(0.232754 -0.126604 0)
(0.175375 -0.125094 0)
(0.11892 -0.10891 0)
(0.0654741 -0.082284 0)
(0.0202513 -0.0512559 0)
(-0.0160939 -0.0208256 0)
(-0.0329457 -0.00605358 0)
(-0.0401248 0.000443427 0)
(-0.0416806 0.00220067 0)
(-0.0420603 0.000999594 0)
(-0.0432042 -0.00164913 0)
(-0.045834 -0.00452871 0)
(-0.049483 -0.00705821 0)
(-0.0535069 -0.00914791 0)
(-0.057371 -0.0108751 0)
(-0.0608188 -0.0123755 0)
(-0.0640125 -0.0137555 0)
(-0.0673559 -0.0148526 0)
(-0.0712242 -0.0153074 0)
(-0.0759711 -0.0146355 0)
(-0.0820697 -0.0121836 0)
(-0.0902117 -0.00711496 0)
(-0.101121 0.00142921 0)
(-0.112754 0.0133235 0)
(-0.127985 0.0284155 0)
(-0.152908 0.0467856 0)
(-0.190232 0.0673938 0)
(-0.241634 0.0862242 0)
(-0.297564 0.0999149 0)
(-0.371649 0.106906 0)
(-0.650668 0.106297 0)
(0.233926 0.0528357 0)
(0.305892 0.115968 0)
(0.321219 0.0913729 0)
(0.299646 0.0395832 0)
(0.275051 -0.0105979 0)
(0.244394 -0.0469349 0)
(0.203108 -0.0684073 0)
(0.154016 -0.0754115 0)
(0.100452 -0.0686978 0)
(0.046182 -0.0529172 0)
(-0.00861194 -0.0295111 0)
(-0.0451246 -0.0114779 0)
(-0.0635866 -0.00310962 0)
(-0.0709116 -0.000736476 0)
(-0.0731421 -0.00027869 0)
(-0.0734604 -0.00098206 0)
(-0.0737652 -0.00258355 0)
(-0.0749072 -0.00467965 0)
(-0.0771256 -0.00677046 0)
(-0.0803802 -0.00855345 0)
(-0.084174 -0.0100262 0)
(-0.088281 -0.0111473 0)
(-0.0927123 -0.0119212 0)
(-0.0976196 -0.0123147 0)
(-0.103153 -0.0121374 0)
(-0.109345 -0.0110445 0)
(-0.116065 -0.00856644 0)
(-0.122967 -0.00415944 0)
(-0.129429 0.0027377 0)
(-0.134403 0.0123366 0)
(-0.13837 0.0256181 0)
(-0.141806 0.0431805 0)
(-0.146017 0.064224 0)
(-0.151771 0.0850532 0)
(-0.155356 0.095549 0)
(-0.1413 0.0734019 0)
(-0.110238 -0.0250094 0)
(-0.286612 -0.213742 0)
(0.12003 0.324337 0)
(0.00839337 0.203595 0)
(0.0392695 0.118452 0)
(0.0584853 0.0604366 0)
(0.0631349 0.0216241 0)
(0.0601212 -0.004786 0)
(0.0402102 -0.0199095 0)
(0.00543664 -0.0189553 0)
(-0.0365814 -0.00172445 0)
(-0.0701038 0.0128744 0)
(-0.0912174 0.0208806 0)
(-0.100228 0.0232685 0)
(-0.10244 0.0233936 0)
(-0.102378 0.0234362 0)
(-0.101504 0.0241364 0)
(-0.100476 0.0252568 0)
(-0.0997612 0.0263961 0)
(-0.0996413 0.0271473 0)
(-0.10017 0.0270826 0)
(-0.101312 0.0258742 0)
(-0.103105 0.0238502 0)
(-0.105482 0.0216169 0)
(-0.108376 0.0194423 0)
(-0.111697 0.0174755 0)
(-0.115307 0.0158281 0)
(-0.118992 0.01461 0)
(-0.122443 0.0139582 0)
(-0.125175 0.0140296 0)
(-0.126372 0.015521 0)
(-0.124865 0.0198898 0)
(-0.119076 0.0282966 0)
(-0.107618 0.0417415 0)
(-0.0903506 0.0602424 0)
(-0.0683155 0.0804265 0)
(-0.0434444 0.0948383 0)
(-0.00758041 0.0857764 0)
(0.14694 0.00930314 0)
(-0.209928 -0.129685 0)
(-0.422119 -0.516029 0)
(-0.637318 -0.143276 0)
(-0.449397 0.177761 0)
(-0.357932 0.0560824 0)
(-0.213895 -0.00553619 0)
(-0.145604 -0.0477866 0)
(-0.11716 -0.0705361 0)
(-0.112979 -0.071358 0)
(-0.122336 -0.0626824 0)
(-0.134852 -0.0549707 0)
(-0.140337 -0.0504971 0)
(-0.138576 -0.0490525 0)
(-0.13411 -0.0499308 0)
(-0.128919 -0.0527453 0)
(-0.124445 -0.0562696 0)
(-0.120993 -0.059914 0)
(-0.118191 -0.0635517 0)
(-0.115777 -0.0672287 0)
(-0.113704 -0.0708069 0)
(-0.11205 -0.0738122 0)
(-0.110955 -0.0756134 0)
(-0.110581 -0.0757666 0)
(-0.111027 -0.0743636 0)
(-0.112243 -0.0719914 0)
(-0.114059 -0.0689186 0)
(-0.116253 -0.0652782 0)
(-0.118544 -0.0610902 0)
(-0.120563 -0.0562808 0)
(-0.12183 -0.0506343 0)
(-0.12171 -0.0438039 0)
(-0.119186 -0.035816 0)
(-0.112354 -0.0266908 0)
(-0.0984062 -0.0158837 0)
(-0.0748442 -0.00248686 0)
(-0.0415501 0.0143641 0)
(0.00931811 0.0362848 0)
(0.0618676 0.0423467 0)
(0.1096 0.0240435 0)
(0.172058 -0.0159438 0)
(-0.19629 -0.0826856 0)
)
;

boundaryField
{
    floor
    {
        type            noSlip;
    }
    ceiling
    {
        type            noSlip;
    }
    sWall
    {
        type            noSlip;
    }
    nWall
    {
        type            noSlip;
    }
    sideWalls
    {
        type            empty;
    }
    glass1
    {
        type            noSlip;
    }
    glass2
    {
        type            noSlip;
    }
    sun
    {
        type            noSlip;
    }
    Table_master
    {
        type            noSlip;
    }
    Table_slave
    {
        type            noSlip;
    }
    inlet
    {
        type            fixedValue;
        value           uniform (0.46194 -0.191342 0);
    }
    outlet
    {
        type            zeroGradient;
    }
}


// ************************************************************************* //
