/*--------------------------------*- C++ -*----------------------------------*\
  =========                 |
  \\      /  F ield         | OpenFOAM: The Open Source CFD Toolbox
   \\    /   O peration     | Website:  https://openfoam.org
    \\  /    A nd           | Version:  6
     \\/     M anipulation  |
\*---------------------------------------------------------------------------*/
FoamFile
{
    version     2.0;
    format      ascii;
    class       volScalarField;
    location    "70";
    object      alphat;
}
// * * * * * * * * * * * * * * * * * * * * * * * * * * * * * * * * * * * * * //

dimensions      [1 -1 -1 0 0 0 0];

internalField   nonuniform List<scalar> 
458
(
0.00138521
0.00152822
0.00158546
0.00166898
0.00174691
0.0018229
0.00190228
0.00197636
0.00203444
0.00206674
0.00206316
0.00201351
0.00188843
0.00162135
0.00133721
0.000597548
0.000710742
0.000850113
0.00092899
0.000930798
0.000869464
0.000800347
0.000738655
0.000684718
0.000636932
0.000594366
0.000554829
0.000516848
0.000479392
0.000441466
0.000401516
0.000362065
0.000316802
0.00178288
0.004325
0.00416796
0.00482685
0.00551975
0.00620052
0.00674945
0.00724548
0.007736
0.00817513
0.00851159
0.00869883
0.00864373
0.00810014
0.00588803
0.0017553
0.00149321
0.00121194
0.000571019
0.00133326
0.00210635
0.00271169
0.00294343
0.0020128
0.00162743
0.00139584
0.00125913
0.00117346
0.00108471
0.000990396
0.000890803
0.00078999
0.000710914
0.000658279
0.000711765
0.000388243
0.00211325
0.00587565
0.0052112
0.00615409
0.00669071
0.00707875
0.00737085
0.00769239
0.00810405
0.00860074
0.00913701
0.00964673
0.00996801
0.00988146
0.00913656
0.00729773
0.00536749
0.00150394
0.000814593
0.00159589
0.0024601
0.00327727
0.00357942
0.00118578
0.00100794
0.000846722
0.000713592
0.000614233
0.000546931
0.000499801
0.00046467
0.000438699
0.000478489
0.00055434
0.000781141
0.000435539
0.00243038
0.0073169
0.00525395
0.00640416
0.00668794
0.00672158
0.00677737
0.00696225
0.00731644
0.00786389
0.00853774
0.00923114
0.00968937
0.00987513
0.00971874
0.00912292
0.00767162
0.00411513
0.00169703
0.00191545
0.00259393
0.00358574
0.00452193
0.0047216
0.00134349
0.00119066
0.00106782
0.00096732
0.00088365
0.000816754
0.00076659
0.000728464
0.00069112
0.000629094
0.000615258
0.000861115
0.000484859
0.00275954
0.00920381
0.00556748
0.00622862
0.00656609
0.0064139
0.00631989
0.00644726
0.00677921
0.00738234
0.0081259
0.0088219
0.00929094
0.00947673
0.0094341
0.00921631
0.00857058
0.00699329
0.0059918
0.00609895
0.00648202
0.00692688
0.00717382
0.00697133
0.00580593
0.00501542
0.00454327
0.00416898
0.00392618
0.00377071
0.0035866
0.00327084
0.00277716
0.00210682
0.0015348
0.00126041
0.000831064
0.000619107
0.000688082
0.000757551
0.0031203
0.0113423
0.00739152
0.00613559
0.00648642
0.0064812
0.00630395
0.00636561
0.00665515
0.00726125
0.00805492
0.00877595
0.00920224
0.00928567
0.00915677
0.00901281
0.00889735
0.00862842
0.00863701
0.00897791
0.009233
0.00926327
0.00899633
0.00841982
0.0076106
0.00700301
0.00655624
0.00624658
0.00600668
0.00573577
0.0053765
0.00491687
0.00433653
0.00359537
0.00282822
0.00217848
0.00163592
0.0015486
0.0018902
0.000984339
0.00345905
0.0128366
0.01021
0.00768289
0.00721143
0.00704442
0.00667682
0.00651668
0.00677866
0.00746179
0.00834034
0.0090841
0.00944594
0.00941786
0.00922286
0.00920249
0.00951832
0.00992397
0.0103569
0.0106748
0.0106541
0.0103246
0.00975459
0.00907082
0.00838592
0.0077992
0.00734336
0.00696881
0.00658741
0.00615848
0.0057294
0.00535101
0.0049509
0.00445026
0.00385757
0.00325359
0.00275039
0.00257346
0.00259364
0.00120354
0.00353425
0.0113191
0.010056
0.00908502
0.00835495
0.00739913
0.00667914
0.00653847
0.00703501
0.00797502
0.00899013
0.00970292
0.00991088
0.00975413
0.00962206
0.00998111
0.0105206
0.0108644
0.0110941
0.0111216
0.0108286
0.0102695
0.00955164
0.00877664
0.00802616
0.00740527
0.00690763
0.00646183
0.00602516
0.00563194
0.00531299
0.00509948
0.0049653
0.00475661
0.00445924
0.0042086
0.00414003
0.00407044
0.00440016
0.00159294
0.00345256
0.00413212
0.0045236
0.00467221
0.00467542
0.00479026
0.00527409
0.00626944
0.00764674
0.0090476
0.0100725
0.0104689
0.0102526
0.0100779
0.010225
0.0105284
0.0106967
0.0107311
0.0106288
0.0103243
0.00978489
0.00905873
0.00824508
0.00745891
0.00679918
0.00628523
0.00585669
0.00545798
0.00507519
0.004719
0.00440138
0.00412583
0.00388228
0.00366152
0.00344305
0.00325865
0.00307257
0.00284209
0.00260992
0.00156246
0.00121786
0.0022093
0.00362394
0.00539255
0.00734248
0.00915986
0.0105027
0.0111503
0.0110811
0.0105913
0.00990397
0.00967792
0.00969412
0.00964802
0.00950172
0.00925955
0.00887671
0.00832599
0.00764981
0.00694938
0.00632948
0.00584388
0.0054814
0.00519143
0.00492454
0.00465278
0.00436698
0.00406806
0.0037823
0.00354209
0.00336583
0.00323022
0.0031093
0.0029789
0.00279659
0.0025269
0.00219832
0.00134107
0.00242378
0.00619285
0.00929905
0.0110926
0.0116139
0.0116385
0.011192
0.0103237
0.00928555
0.0084386
0.00786519
0.00748427
0.00717502
0.00690963
0.00666657
0.00640057
0.00608104
0.00572203
0.00537421
0.00508696
0.00488019
0.00474484
0.00465743
0.00459106
0.00451967
0.00441925
0.00427123
0.00407074
0.00383516
0.00359887
0.0033979
0.00325152
0.00315126
0.00306003
0.0029389
0.00279197
0.0029684
0.00139613
0.00259824
0.00269755
0.00278331
0.00313971
0.00298506
0.00269372
0.00242696
0.00223437
0.00204493
0.00184043
0.00164113
0.00147499
0.00136031
0.00129171
0.00125278
0.00123002
0.00121444
0.0012009
0.00118761
0.00117549
0.00116644
0.00116153
0.00116024
0.00116087
0.00116124
0.00115924
0.00115355
0.00114438
0.00113413
0.00112729
0.00112877
0.00114231
0.00116887
0.00120738
0.00125513
0.00130639
0.00135195
0.00133356
0.0012431
0.00115547
)
;

boundaryField
{
    floor
    {
        type            compressible::alphatWallFunction;
        Prt             0.85;
        value           nonuniform List<scalar> 
36
(
0.000188964
8.40186e-05
0.000100776
0.000120976
0.000132221
0.000132468
0.000123725
0.000113788
0.000104833
9.69303e-05
8.9866e-05
8.35183e-05
7.75706e-05
7.18058e-05
6.60682e-05
6.02008e-05
5.39526e-05
4.77117e-05
4.04481e-05
4.04476e-05
5.19074e-05
5.93444e-05
6.69958e-05
8.73522e-05
9.75643e-05
0.000107688
0.000188962
0.000245012
0.000210076
0.000171806
8.40176e-05
0.000171804
8.00457e-05
0.000211513
0.000115861
0.000237284
)
;
    }
    ceiling
    {
        type            compressible::alphatWallFunction;
        Prt             0.85;
        value           nonuniform List<scalar> 
43
(
0.000353833
0.000366386
0.000377188
0.000421814
0.000402621
0.0003661
0.000332276
0.000307607
0.000283114
0.000256391
0.000230028
0.000207778
0.000192257
0.000182902
0.000177571
0.000174447
0.000172306
0.000170446
0.000168618
0.000166948
0.000165702
0.000165026
0.000164852
0.000164946
0.000165002
0.000164731
0.000163948
0.000162681
0.00016126
0.000160308
0.000160509
0.000162385
0.000166062
0.00017138
0.000177949
0.000184968
0.000191181
0.000188673
0.000176294
0.000164204
0.000460731
0.000543512
0.000331499
)
;
    }
    sWall
    {
        type            compressible::alphatWallFunction;
        Prt             0.85;
        value           uniform 0.0003526;
    }
    nWall
    {
        type            compressible::alphatWallFunction;
        Prt             0.85;
        value           nonuniform List<scalar> 6(0.000107512 0.000140007 0.00017058 0.000189382 0.000196862 0.000163899);
    }
    sideWalls
    {
        type            empty;
    }
    glass1
    {
        type            compressible::alphatWallFunction;
        Prt             0.85;
        value           nonuniform List<scalar> 9(0.000190844 0.000243333 0.000286066 0.000326486 0.000367903 0.000412743 0.000454402 0.000463723 0.000453971);
    }
    glass2
    {
        type            compressible::alphatWallFunction;
        Prt             0.85;
        value           nonuniform List<scalar> 2(0.000222331 0.000218303);
    }
    sun
    {
        type            compressible::alphatWallFunction;
        Prt             0.85;
        value           nonuniform List<scalar> 
14
(
0.000195502
0.00021478
0.000222444
0.000233574
0.000243903
0.000253926
0.000264347
0.000274029
0.000281593
0.000285788
0.000285325
0.00027887
0.000262535
0.000227237
)
;
    }
    Table_master
    {
        type            compressible::alphatWallFunction;
        Prt             0.85;
        value           nonuniform List<scalar> 9(0.000168227 0.000143439 0.00012053 0.000101231 8.65568e-05 7.64518e-05 6.92795e-05 6.3875e-05 5.98446e-05);
    }
    Table_slave
    {
        type            compressible::alphatWallFunction;
        Prt             0.85;
        value           nonuniform List<scalar> 9(0.000189855 0.000168901 0.000151833 0.000137705 0.000125818 0.000116234 0.000109004 0.00010348 9.80273e-05);
    }
    inlet
    {
        type            fixedValue;
        value           uniform 1.94e-05;
    }
    outlet
    {
        type            zeroGradient;
    }
}


// ************************************************************************* //
