/*--------------------------------*- C++ -*----------------------------------*\
  =========                 |
  \\      /  F ield         | OpenFOAM: The Open Source CFD Toolbox
   \\    /   O peration     | Website:  https://openfoam.org
    \\  /    A nd           | Version:  6
     \\/     M anipulation  |
\*---------------------------------------------------------------------------*/
FoamFile
{
    version     2.0;
    format      ascii;
    class       volScalarField;
    location    "70";
    object      epsilon;
}
// * * * * * * * * * * * * * * * * * * * * * * * * * * * * * * * * * * * * * //

dimensions      [0 2 -3 0 0 0 0];

internalField   nonuniform List<scalar> 
458
(
0.000600995
0.000804947
0.000898633
0.00104815
0.00120182
0.00136543
0.00155152
0.0017397
0.00189737
0.00198886
0.00197839
0.00183901
0.00151752
0.000960871
0.000539335
4.84423e-05
8.14174e-05
0.000139165
0.000181476
0.000182516
0.000148808
0.000116126
9.13419e-05
7.28007e-05
5.86301e-05
4.76659e-05
3.87852e-05
3.13588e-05
2.50255e-05
1.95441e-05
1.47056e-05
1.07902e-05
7.23953e-06
0.00128359
0.00172417
0.000751767
0.000753576
0.00079187
0.000860521
0.000973217
0.00112108
0.00126865
0.00136851
0.00138272
0.00130121
0.00113026
0.00091689
0.000729096
0.00121946
0.00075092
0.000401694
4.23118e-05
9.78833e-05
0.000156003
0.000172327
0.000171851
0.000172537
0.000127466
9.09309e-05
6.57486e-05
4.86973e-05
3.68907e-05
2.82144e-05
2.15733e-05
1.66203e-05
1.37683e-05
1.24042e-05
1.79574e-05
1.33393e-05
0.0021415
0.00371653
0.000799574
0.00066376
0.000695611
0.000783345
0.000926806
0.00111236
0.00128721
0.00140169
0.00142991
0.0013626
0.00120445
0.00101639
0.000828705
0.00070479
0.000632418
0.000767402
0.000122543
0.000207244
0.000228938
0.000222485
0.000211048
0.000376831
0.000231522
0.000137356
8.23265e-05
5.25893e-05
3.71731e-05
2.83865e-05
2.2818e-05
1.92031e-05
1.46884e-05
1.26373e-05
2.41573e-05
1.88463e-05
0.00326382
0.00743373
0.00109879
0.000617454
0.000628644
0.000740238
0.000942559
0.00118709
0.00138086
0.00149655
0.00152756
0.00144986
0.00128553
0.00108033
0.000878423
0.000727545
0.000646531
0.000661341
0.00110243
0.000691524
0.000483997
0.000374174
0.00030903
0.000269061
0.000548366
0.000381831
0.000275509
0.000204927
0.000156354
0.000123639
0.000102419
8.80467e-05
7.52936e-05
3.96923e-05
2.34172e-05
3.18603e-05
2.60253e-05
0.0047868
0.0133503
0.00204018
0.000673228
0.000598715
0.000747215
0.00111243
0.00142532
0.00161092
0.00171006
0.00172039
0.00161548
0.00140324
0.00113459
0.000882579
0.00069649
0.000587334
0.000559641
0.000589769
0.000518559
0.000452706
0.000398879
0.000344868
0.000283756
0.000235193
0.000191556
0.000160638
0.00013634
0.00011535
9.83357e-05
8.48747e-05
7.39548e-05
6.49956e-05
5.09281e-05
3.70308e-05
3.51801e-05
3.47927e-05
5.42616e-05
7.44536e-05
9.92195e-05
0.00693264
0.0202973
0.00463372
0.00121826
0.000842102
0.0010715
0.00165683
0.00191223
0.00202
0.00207119
0.00204246
0.00187853
0.00157933
0.00121329
0.000881123
0.000644229
0.000515488
0.000481434
0.000491334
0.00048937
0.000469246
0.000426073
0.000360625
0.000280418
0.000207547
0.000161631
0.000138475
0.000125526
0.000117141
0.000110661
0.00010318
9.31194e-05
8.15688e-05
6.91935e-05
5.75139e-05
4.9283e-05
4.74462e-05
6.83949e-05
0.0002128
0.000217838
0.00946017
0.0246457
0.00958161
0.0039817
0.0027077
0.00280226
0.00283351
0.00274255
0.00266927
0.00262457
0.00251405
0.00224155
0.00180919
0.00130888
0.000880596
0.000597275
0.000462772
0.0004434
0.000470003
0.00048182
0.000455785
0.000396658
0.00031648
0.00023005
0.000167319
0.000141645
0.00013526
0.000136279
0.000140605
0.000145314
0.000146316
0.000140463
0.000129437
0.000117421
0.000109662
0.000111175
0.000126597
0.000169728
0.000396751
0.000398335
0.0101135
0.0266652
0.0151019
0.0100146
0.00742099
0.00570478
0.00452445
0.00385498
0.00355048
0.00339136
0.00314784
0.00268325
0.00204063
0.0013478
0.000819162
0.00051478
0.000409916
0.00040821
0.000423611
0.000409338
0.000361273
0.000294047
0.000226491
0.000174649
0.000148156
0.000142858
0.00014871
0.000159744
0.000173359
0.000187974
0.000203809
0.000220168
0.000232619
0.000246966
0.000283756
0.000387918
0.000599931
0.000878718
0.00246587
0.000923701
0.00945862
0.0161699
0.0123117
0.00933836
0.00722891
0.00579076
0.00497568
0.0046527
0.00456015
0.00438537
0.00389072
0.00303476
0.0020536
0.00108135
0.000601663
0.000414187
0.000356254
0.000343969
0.000331984
0.00030173
0.000258096
0.000213812
0.000179444
0.000159707
0.00015417
0.000158566
0.000168388
0.000181155
0.000196271
0.000215073
0.000240402
0.000275954
0.000325475
0.000396616
0.000510451
0.000686342
0.000915918
0.00115477
0.00137511
0.000872434
0.00248667
0.00354078
0.00462388
0.00557531
0.00625494
0.00652567
0.00623145
0.0053328
0.00389992
0.00212248
0.0011079
0.000606606
0.000408838
0.000333444
0.000304837
0.000289551
0.00027205
0.000249353
0.000226627
0.000209691
0.000201092
0.00020013
0.000204282
0.000210426
0.000215954
0.000219484
0.000221658
0.000225943
0.000237207
0.000260814
0.000301601
0.000364044
0.000453566
0.000571349
0.000698692
0.000788977
0.000812296
0.000551421
0.00304252
0.0125709
0.0133054
0.0115633
0.00926133
0.00716643
0.00510605
0.00329599
0.00193024
0.00105712
0.000636803
0.000446976
0.000369737
0.000339279
0.000327936
0.000324169
0.000323513
0.000325095
0.000329836
0.000338775
0.000352382
0.000370449
0.000391877
0.00041413
0.000432811
0.000442298
0.000438046
0.000420156
0.000396056
0.000377643
0.000376438
0.000399904
0.000450758
0.00052342
0.000602613
0.000671385
0.000871578
0.000622133
0.00383599
0.00429117
0.00471337
0.00685576
0.00594721
0.00439961
0.00323052
0.00252693
0.00194045
0.00141636
0.00100513
0.00073012
0.000572924
0.000490683
0.000447778
0.00042394
0.000408161
0.000394797
0.000381966
0.000370507
0.000362126
0.000357663
0.000356558
0.000357233
0.000357656
0.000355892
0.000350748
0.000342503
0.000333409
0.000327412
0.000328679
0.000340629
0.000364936
0.000402226
0.000451893
0.000509586
0.000564828
0.000542068
0.00043904
0.00035265
)
;

boundaryField
{
    floor
    {
        Cmu             0.09;
        kappa           0.41;
        E               9.8;
        type            epsilonWallFunction;
        value           nonuniform List<scalar> 
36
(
0.000539335
4.84423e-05
8.14174e-05
0.000139165
0.000181476
0.000182516
0.000148808
0.000116126
9.13419e-05
7.28007e-05
5.86301e-05
4.76659e-05
3.87852e-05
3.13588e-05
2.50255e-05
1.95441e-05
1.47056e-05
1.07902e-05
7.23953e-06
7.23953e-06
1.33393e-05
1.88463e-05
2.60253e-05
5.42616e-05
7.44536e-05
9.92195e-05
0.000539335
0.00121946
0.00075092
0.000401694
4.84423e-05
0.000401694
4.23118e-05
0.000767402
0.000122543
0.00110243
)
;
    }
    ceiling
    {
        Cmu             0.09;
        kappa           0.41;
        E               9.8;
        type            epsilonWallFunction;
        value           nonuniform List<scalar> 
43
(
0.00383599
0.00429117
0.00471337
0.00685576
0.00594721
0.00439961
0.00323052
0.00252693
0.00194045
0.00141636
0.00100513
0.00073012
0.000572924
0.000490683
0.000447778
0.00042394
0.000408161
0.000394797
0.000381966
0.000370507
0.000362126
0.000357663
0.000356558
0.000357233
0.000357656
0.000355892
0.000350748
0.000342503
0.000333409
0.000327412
0.000328679
0.000340629
0.000364936
0.000402226
0.000451893
0.000509586
0.000564828
0.000542068
0.00043904
0.00035265
0.00945862
0.0161699
0.00304252
)
;
    }
    sWall
    {
        Cmu             0.09;
        kappa           0.41;
        E               9.8;
        type            epsilonWallFunction;
        value           uniform 0.00383599;
    }
    nWall
    {
        Cmu             0.09;
        kappa           0.41;
        E               9.8;
        type            epsilonWallFunction;
        value           nonuniform List<scalar> 6(9.92195e-05 0.000217838 0.000398335 0.000551421 0.000622133 0.00035265);
    }
    sideWalls
    {
        type            empty;
    }
    glass1
    {
        Cmu             0.09;
        kappa           0.41;
        E               9.8;
        type            epsilonWallFunction;
        value           nonuniform List<scalar> 9(0.000600995 0.00128359 0.0021415 0.00326382 0.0047868 0.00693264 0.00946017 0.0101135 0.00945862);
    }
    glass2
    {
        Cmu             0.09;
        kappa           0.41;
        E               9.8;
        type            epsilonWallFunction;
        value           nonuniform List<scalar> 2(0.000923701 0.000872434);
    }
    sun
    {
        Cmu             0.09;
        kappa           0.41;
        E               9.8;
        type            epsilonWallFunction;
        value           nonuniform List<scalar> 
14
(
0.000600995
0.000804947
0.000898633
0.00104815
0.00120182
0.00136543
0.00155152
0.0017397
0.00189737
0.00198886
0.00197839
0.00183901
0.00151752
0.000960871
)
;
    }
    Table_master
    {
        Cmu             0.09;
        kappa           0.41;
        E               9.8;
        type            epsilonWallFunction;
        value           nonuniform List<scalar> 9(0.000376831 0.000231522 0.000137356 8.23265e-05 5.25893e-05 3.71731e-05 2.83865e-05 2.2818e-05 1.92031e-05);
    }
    Table_slave
    {
        Cmu             0.09;
        kappa           0.41;
        E               9.8;
        type            epsilonWallFunction;
        value           nonuniform List<scalar> 9(0.000548366 0.000381831 0.000275509 0.000204927 0.000156354 0.000123639 0.000102419 8.80467e-05 7.52936e-05);
    }
    inlet
    {
        type            turbulentMixingLengthDissipationRateInlet;
        mixingLength    0.01;
        phi             phi;
        k               k;
        value           uniform 0.000471672;
    }
    outlet
    {
        type            zeroGradient;
    }
}


// ************************************************************************* //
