/*--------------------------------*- C++ -*----------------------------------*\
  =========                 |
  \\      /  F ield         | OpenFOAM: The Open Source CFD Toolbox
   \\    /   O peration     | Website:  https://openfoam.org
    \\  /    A nd           | Version:  6
     \\/     M anipulation  |
\*---------------------------------------------------------------------------*/
FoamFile
{
    version     2.0;
    format      ascii;
    class       volScalarField;
    location    "70";
    object      T;
}
// * * * * * * * * * * * * * * * * * * * * * * * * * * * * * * * * * * * * * //

dimensions      [0 0 0 1 0 0 0];

internalField   nonuniform List<scalar> 
458
(
303.342
303.083
303.062
303.05
303.04
303.03
303.02
303.008
302.993
302.977
302.967
302.968
302.988
303.035
303.09
303.903
303.793
303.688
303.65
303.671
303.72
303.781
303.846
303.911
303.972
304.025
304.07
304.105
304.132
304.15
304.163
304.172
304.183
303.509
303.126
303.096
303.09
303.085
303.077
303.065
303.044
303.009
302.969
302.94
302.932
302.952
302.99
303.034
303.055
303.083
303.133
303.945
303.697
303.566
303.529
303.541
303.586
303.656
303.742
303.832
303.915
303.987
304.044
304.086
304.115
304.134
304.149
304.159
304.174
303.69
303.181
303.142
303.148
303.156
303.159
303.152
303.12
303.056
302.979
302.922
302.904
302.927
302.965
303
303.029
303.061
303.109
303.794
303.556
303.454
303.438
303.467
303.511
303.591
303.705
303.832
303.942
304.021
304.071
304.103
304.121
304.133
304.144
304.153
304.168
303.879
303.248
303.191
303.211
303.242
303.268
303.274
303.228
303.12
302.993
302.904
302.879
302.906
302.952
302.995
303.027
303.056
303.091
303.11
303.158
303.213
303.282
303.364
303.449
303.529
303.597
303.671
303.757
303.853
303.949
304.032
304.095
304.136
304.148
304.151
304.153
304.165
304.067
303.332
303.242
303.265
303.317
303.372
303.399
303.329
303.167
302.992
302.883
302.855
302.89
302.954
303.012
303.053
303.08
303.107
303.137
303.184
303.253
303.34
303.441
303.544
303.644
303.736
303.831
303.924
304.006
304.074
304.123
304.155
304.172
304.173
304.166
304.16
304.163
304.165
304.171
304.223
304.24
303.438
303.316
303.321
303.379
303.454
303.477
303.365
303.166
302.967
302.844
302.824
302.884
302.977
303.062
303.119
303.153
303.184
303.229
303.294
303.38
303.482
303.591
303.702
303.807
303.905
303.989
304.06
304.117
304.158
304.186
304.2
304.204
304.198
304.186
304.174
304.17
304.17
304.174
304.209
304.401
303.603
303.474
303.46
303.496
303.56
303.517
303.336
303.086
302.872
302.767
302.788
302.896
303.036
303.157
303.238
303.288
303.33
303.39
303.472
303.568
303.674
303.782
303.888
303.982
304.053
304.109
304.157
304.194
304.22
304.235
304.238
304.233
304.222
304.208
304.194
304.185
304.184
304.186
304.209
304.624
304.031
303.881
303.8
303.776
303.712
303.496
303.176
302.869
302.678
302.651
302.768
302.959
303.163
303.317
303.416
303.475
303.523
303.595
303.688
303.785
303.881
303.97
304.047
304.107
304.155
304.193
304.224
304.246
304.26
304.265
304.264
304.256
304.245
304.231
304.22
304.215
304.217
304.221
304.301
304.942
304.658
304.432
304.228
304.032
303.628
303.092
302.634
302.387
302.375
302.556
302.848
303.14
303.403
303.545
303.622
303.673
303.728
303.8
303.883
303.965
304.038
304.1
304.151
304.191
304.223
304.248
304.265
304.276
304.282
304.283
304.281
304.278
304.276
304.277
304.286
304.304
304.325
304.344
304.389
297.166
298.331
298.956
299.474
300.122
300.839
301.546
302.187
302.757
303.261
303.523
303.67
303.75
303.803
303.852
303.907
303.968
304.031
304.09
304.14
304.181
304.214
304.241
304.261
304.276
304.286
304.293
304.296
304.297
304.298
304.298
304.299
304.303
304.312
304.325
304.34
304.355
304.374
297.622
298.781
299.916
300.945
301.648
302.232
302.741
303.156
303.465
303.671
303.787
303.859
303.909
303.953
303.995
304.039
304.084
304.127
304.164
304.196
304.222
304.244
304.261
304.274
304.285
304.292
304.298
304.301
304.304
304.306
304.307
304.309
304.313
304.318
304.326
304.336
304.341
304.359
299.922
299.882
299.88
301.203
302.142
302.813
303.215
303.459
303.634
303.766
303.862
303.928
303.975
304.011
304.042
304.07
304.097
304.124
304.149
304.172
304.192
304.21
304.225
304.239
304.25
304.26
304.268
304.275
304.28
304.286
304.291
304.295
304.299
304.303
304.307
304.311
304.318
304.322
304.319
304.348
)
;

boundaryField
{
    floor
    {
        type            wallHeatTransfer;
        Tinf            uniform 305.2;
        alphaWall       uniform 0.24;
        value           nonuniform List<scalar> 
36
(
303.302
304.136
304.017
303.901
303.855
303.873
303.925
303.989
304.057
304.123
304.184
304.237
304.283
304.321
304.353
304.38
304.403
304.425
304.454
304.454
304.417
304.395
304.378
304.346
304.338
304.372
303.302
303.229
303.279
303.357
304.136
303.357
304.177
303.301
303.998
303.285
)
;
    }
    ceiling
    {
        type            wallHeatTransfer;
        Tinf            uniform 303.2;
        alphaWall       uniform 0.24;
        value           nonuniform List<scalar> 
43
(
300.117
300.074
300.067
301.305
302.198
302.835
303.214
303.442
303.603
303.722
303.805
303.86
303.898
303.927
303.953
303.977
304
304.023
304.044
304.064
304.081
304.097
304.111
304.122
304.133
304.141
304.148
304.153
304.158
304.162
304.166
304.171
304.177
304.183
304.19
304.197
304.206
304.209
304.2
304.219
304.86
304.6
297.974
)
;
    }
    sWall
    {
        type            wallHeatTransfer;
        Tinf            uniform 315.2;
        alphaWall       uniform 0.36;
        value           uniform 301.25;
    }
    nWall
    {
        type            wallHeatTransfer;
        Tinf            uniform 307.2;
        alphaWall       uniform 0.36;
        value           nonuniform List<scalar> 6(304.856 304.743 304.672 304.779 304.754 304.803);
    }
    sideWalls
    {
        type            empty;
    }
    glass1
    {
        type            wallHeatTransfer;
        Tinf            uniform 315.2;
        alphaWall       uniform 4.3;
        value           nonuniform List<scalar> 9(311.228 310.701 310.362 310.102 309.879 309.667 309.503 309.57 309.791);
    }
    glass2
    {
        type            wallHeatTransfer;
        Tinf            uniform 307.2;
        alphaWall       uniform 4.3;
        value           nonuniform List<scalar> 2(306.14 306.182);
    }
    sun
    {
        type            wallHeatTransfer;
        Tinf            uniform 305.2;
        alphaWall       uniform 0.24;
        value           nonuniform List<scalar> 
14
(
303.524
303.276
303.25
303.233
303.217
303.202
303.187
303.171
303.153
303.137
303.127
303.131
303.158
303.223
)
;
    }
    Table_master
    {
        type            zeroGradient;
    }
    Table_slave
    {
        type            zeroGradient;
    }
    inlet
    {
        type            fixedValue;
        value           uniform 295.15;
    }
    outlet
    {
        type            zeroGradient;
    }
}


// ************************************************************************* //
