/*--------------------------------*- C++ -*----------------------------------*\
  =========                 |
  \\      /  F ield         | OpenFOAM: The Open Source CFD Toolbox
   \\    /   O peration     | Website:  https://openfoam.org
    \\  /    A nd           | Version:  6
     \\/     M anipulation  |
\*---------------------------------------------------------------------------*/
FoamFile
{
    version     2.0;
    format      ascii;
    class       volScalarField;
    location    "380";
    object      T;
}
// * * * * * * * * * * * * * * * * * * * * * * * * * * * * * * * * * * * * * //

dimensions      [0 0 0 1 0 0 0];

internalField   nonuniform List<scalar> 
458
(
302.766
302.49
302.476
302.473
302.469
302.465
302.462
302.457
302.449
302.44
302.432
302.429
302.434
302.451
302.489
302.654
302.63
302.622
302.628
302.636
302.643
302.649
302.656
302.662
302.668
302.675
302.681
302.687
302.694
302.7
302.708
302.717
302.743
302.949
302.523
302.498
302.499
302.501
302.5
302.498
302.491
302.475
302.452
302.428
302.415
302.418
302.435
302.456
302.465
302.476
302.498
302.66
302.606
302.602
302.611
302.622
302.627
302.631
302.634
302.637
302.64
302.643
302.647
302.651
302.655
302.662
302.671
302.685
302.727
303.144
302.569
302.529
302.539
302.551
302.561
302.565
302.558
302.53
302.483
302.434
302.406
302.408
302.43
302.451
302.462
302.471
302.49
302.614
302.591
302.593
302.61
302.631
302.632
302.634
302.636
302.638
302.64
302.642
302.644
302.647
302.65
302.657
302.665
302.678
302.722
303.342
302.628
302.562
302.58
302.61
302.638
302.656
302.653
302.607
302.525
302.443
302.397
302.398
302.427
302.456
302.473
302.48
302.489
302.499
302.518
302.55
302.588
302.627
302.661
302.689
302.709
302.725
302.74
302.751
302.76
302.768
302.774
302.778
302.748
302.717
302.699
302.725
303.538
302.703
302.597
302.614
302.658
302.708
302.752
302.756
302.685
302.563
302.447
302.385
302.388
302.427
302.47
302.497
302.507
302.513
302.529
302.557
302.596
302.64
302.684
302.723
302.757
302.782
302.801
302.817
302.828
302.834
302.835
302.831
302.822
302.798
302.762
302.729
302.729
302.824
302.908
302.909
303.716
302.803
302.654
302.645
302.686
302.747
302.826
302.834
302.731
302.576
302.44
302.372
302.378
302.432
302.495
302.539
302.561
302.573
302.596
302.63
302.673
302.718
302.761
302.799
302.83
302.853
302.87
302.882
302.889
302.891
302.886
302.876
302.86
302.836
302.802
302.763
302.746
302.787
302.818
302.861
303.873
302.966
302.8
302.752
302.763
302.811
302.889
302.868
302.73
302.546
302.401
302.34
302.368
302.45
302.54
302.604
302.64
302.662
302.69
302.726
302.767
302.808
302.845
302.877
302.901
302.918
302.929
302.936
302.938
302.936
302.927
302.912
302.893
302.868
302.837
302.802
302.779
302.787
302.801
302.832
304.104
303.427
303.233
303.099
303.031
303.03
303.015
302.876
302.65
302.434
302.304
302.288
302.369
302.496
302.618
302.699
302.742
302.767
302.794
302.827
302.862
302.895
302.922
302.944
302.959
302.968
302.973
302.973
302.971
302.965
302.956
302.941
302.922
302.901
302.877
302.852
302.838
302.844
302.864
303.01
304.433
304.119
303.873
303.638
303.45
303.308
303.051
302.68
302.352
302.169
302.144
302.242
302.422
302.603
302.75
302.813
302.845
302.867
302.891
302.917
302.942
302.964
302.981
302.993
302.999
303.001
303
302.997
302.993
302.987
302.982
302.979
302.978
302.982
302.994
303.016
303.049
303.085
303.113
303.178
297.57
299.218
300.226
300.637
300.835
301.074
301.364
301.701
302.028
302.331
302.639
302.8
302.877
302.912
302.933
302.951
302.97
302.988
303.003
303.014
303.021
303.025
303.026
303.025
303.024
303.022
303.02
303.019
303.019
303.019
303.022
303.029
303.042
303.062
303.088
303.117
303.143
303.17
297.937
299.307
300.153
300.624
301.015
301.416
301.824
302.268
302.56
302.758
302.88
302.94
302.97
302.989
303.003
303.015
303.026
303.035
303.042
303.045
303.047
303.047
303.047
303.046
303.045
303.044
303.043
303.043
303.043
303.043
303.046
303.051
303.059
303.073
303.091
303.113
303.116
303.15
299.499
299.459
299.456
300.519
301.203
301.771
302.246
302.554
302.737
302.865
302.942
302.987
303.017
303.034
303.046
303.054
303.06
303.065
303.069
303.071
303.072
303.072
303.071
303.069
303.068
303.066
303.065
303.064
303.062
303.061
303.06
303.06
303.061
303.062
303.066
303.075
303.086
303.094
303.099
303.141
)
;

boundaryField
{
    floor
    {
        type            wallHeatTransfer;
        Tinf            uniform 305.2;
        alphaWall       uniform 0.24;
        value           nonuniform List<scalar> 
36
(
302.792
303.124
303.056
303.012
303.004
303.015
303.039
303.067
303.095
303.122
303.148
303.173
303.197
303.22
303.243
303.266
303.29
303.311
303.362
303.362
303.261
303.205
303.166
303.172
303.229
303.211
302.792
302.713
302.76
302.827
303.124
302.827
303.133
302.779
302.973
302.758
)
;
    }
    ceiling
    {
        type            wallHeatTransfer;
        Tinf            uniform 303.2;
        alphaWall       uniform 0.24;
        value           nonuniform List<scalar> 
43
(
299.726
299.683
299.677
300.664
301.316
301.86
302.314
302.605
302.777
302.897
302.969
303.012
303.04
303.057
303.068
303.076
303.082
303.086
303.09
303.092
303.093
303.093
303.092
303.09
303.088
303.087
303.085
303.083
303.081
303.08
303.078
303.077
303.077
303.077
303.08
303.087
303.097
303.105
303.109
303.147
304.376
304.082
298.273
)
;
    }
    sWall
    {
        type            wallHeatTransfer;
        Tinf            uniform 315.2;
        alphaWall       uniform 0.36;
        value           uniform 300.905;
    }
    nWall
    {
        type            wallHeatTransfer;
        Tinf            uniform 307.2;
        alphaWall       uniform 0.36;
        value           nonuniform List<scalar> 6(303.705 303.646 303.53 303.749 303.727 303.774);
    }
    sideWalls
    {
        type            empty;
    }
    glass1
    {
        type            wallHeatTransfer;
        Tinf            uniform 315.2;
        alphaWall       uniform 4.3;
        value           nonuniform List<scalar> 9(311.238 310.601 310.197 309.888 309.629 309.391 309.195 309.257 309.484);
    }
    glass2
    {
        type            wallHeatTransfer;
        Tinf            uniform 307.2;
        alphaWall       uniform 4.3;
        value           nonuniform List<scalar> 2(305.576 305.697);
    }
    sun
    {
        type            wallHeatTransfer;
        Tinf            uniform 305.2;
        alphaWall       uniform 0.24;
        value           nonuniform List<scalar> 
14
(
303.02
302.755
302.738
302.725
302.714
302.703
302.692
302.682
302.67
302.659
302.651
302.652
302.665
302.704
)
;
    }
    Table_master
    {
        type            zeroGradient;
    }
    Table_slave
    {
        type            zeroGradient;
    }
    inlet
    {
        type            fixedValue;
        value           uniform 295.15;
    }
    outlet
    {
        type            zeroGradient;
    }
}


// ************************************************************************* //
