/*--------------------------------*- C++ -*----------------------------------*\
  =========                 |
  \\      /  F ield         | OpenFOAM: The Open Source CFD Toolbox
   \\    /   O peration     | Website:  https://openfoam.org
    \\  /    A nd           | Version:  6
     \\/     M anipulation  |
\*---------------------------------------------------------------------------*/
FoamFile
{
    version     2.0;
    format      ascii;
    class       volVectorField;
    location    "380";
    object      U;
}
// * * * * * * * * * * * * * * * * * * * * * * * * * * * * * * * * * * * * * //

dimensions      [0 1 -1 0 0 0 0];

internalField   nonuniform List<vector> 
458
(
(0.0322136 0.0891081 0)
(-0.173315 0.0273255 0)
(-0.201764 0.0192385 0)
(-0.235831 0.0128865 0)
(-0.260775 0.00594416 0)
(-0.275292 -0.00154862 0)
(-0.277185 -0.00980331 0)
(-0.26432 -0.0191014 0)
(-0.236418 -0.0289026 0)
(-0.194981 -0.0375226 0)
(-0.144465 -0.0431592 0)
(-0.0914018 -0.0442083 0)
(-0.042883 -0.0387904 0)
(-0.00072209 -0.0205414 0)
(-0.00655371 0.0115855 0)
(-0.0119196 0.0109147 0)
(-0.0378207 -0.0169427 0)
(-0.0150999 -0.0288931 0)
(0.0129361 -0.0255977 0)
(0.0333556 -0.0183336 0)
(0.0483164 -0.00984328 0)
(0.0573937 -0.00536309 0)
(0.0615191 -0.00377295 0)
(0.063136 -0.00320154 0)
(0.0639332 -0.00285608 0)
(0.0643726 -0.00258391 0)
(0.064432 -0.00231001 0)
(0.0639416 -0.00185721 0)
(0.0624299 -0.000879807 0)
(0.0588454 0.00107567 0)
(0.0520257 0.00330125 0)
(0.0457069 0.00561988 0)
(-0.0113761 0.022356 0)
(0.210113 0.182783 0)
(-0.161947 0.0726585 0)
(-0.164125 0.0583329 0)
(-0.199783 0.0457048 0)
(-0.224959 0.0313467 0)
(-0.240247 0.0148696 0)
(-0.243537 -0.00443736 0)
(-0.232519 -0.0265753 0)
(-0.207607 -0.0489378 0)
(-0.170798 -0.0673211 0)
(-0.12677 -0.0779696 0)
(-0.0813912 -0.0784916 0)
(-0.0400806 -0.0675114 0)
(-0.00390785 -0.042519 0)
(0.0237505 -0.0100243 0)
(0.0482073 0.00956051 0)
(0.0564187 0.0348706 0)
(-0.00936316 0.0696866 0)
(0.0628913 0.0444998 0)
(0.0100342 -0.022271 0)
(0.026697 -0.0383674 0)
(0.0409986 -0.036286 0)
(0.0535905 -0.0280195 0)
(0.0600777 -0.0125589 0)
(0.0617603 -0.00304931 0)
(0.0618527 0.000512713 0)
(0.0620422 0.00179788 0)
(0.062383 0.00250359 0)
(0.0626201 0.00300146 0)
(0.0626984 0.00347259 0)
(0.0626035 0.00423397 0)
(0.0618902 0.0060887 0)
(0.0584705 0.0112011 0)
(0.0497531 0.0157778 0)
(0.0472551 0.0196478 0)
(-0.0547544 0.0481393 0)
(0.374167 0.273981 0)
(-0.17837 0.11575 0)
(-0.123906 0.0946278 0)
(-0.159131 0.0721221 0)
(-0.182182 0.0482998 0)
(-0.197305 0.0214345 0)
(-0.201637 -0.00983374 0)
(-0.191337 -0.0451339 0)
(-0.167981 -0.0799708 0)
(-0.134684 -0.106987 0)
(-0.0965717 -0.120802 0)
(-0.0588186 -0.119082 0)
(-0.0253289 -0.102022 0)
(0.00402498 -0.0703376 0)
(0.0275098 -0.0366866 0)
(0.042446 -0.0123406 0)
(0.0468449 0.0159534 0)
(-0.0166708 0.0644957 0)
(0.119962 -0.00652777 0)
(0.0729803 -0.0323908 0)
(0.0655531 -0.0428059 0)
(0.068599 -0.0427244 0)
(0.0732575 -0.0389172 0)
(0.0745939 -0.0289642 0)
(0.0650898 -0.018764 0)
(0.0578512 -0.0132792 0)
(0.0550665 -0.0102305 0)
(0.0542249 -0.0082688 0)
(0.053851 -0.00694017 0)
(0.0537749 -0.00593817 0)
(0.0544515 -0.00477221 0)
(0.0568256 -0.00136361 0)
(0.0557005 0.0150472 0)
(0.0443618 0.0261441 0)
(0.0527216 0.0342542 0)
(-0.0953461 0.073505 0)
(0.523917 0.347585 0)
(-0.213607 0.153695 0)
(-0.0801648 0.126112 0)
(-0.114457 0.0956151 0)
(-0.131962 0.0654187 0)
(-0.144781 0.0306114 0)
(-0.148682 -0.011875 0)
(-0.136905 -0.0609395 0)
(-0.114225 -0.107901 0)
(-0.0852402 -0.141957 0)
(-0.0547072 -0.157411 0)
(-0.0263352 -0.152902 0)
(-0.0018644 -0.130253 0)
(0.0190151 -0.0939258 0)
(0.036368 -0.0549915 0)
(0.0499307 -0.0193421 0)
(0.0648885 0.0162311 0)
(0.0651473 0.0563025 0)
(0.106067 0.0608318 0)
(0.103814 -0.00176969 0)
(0.0897912 -0.0292567 0)
(0.0823159 -0.0382106 0)
(0.0766387 -0.0390452 0)
(0.0694158 -0.0345709 0)
(0.0685184 -0.0209206 0)
(0.0788229 -0.0136903 0)
(0.0873086 -0.00984505 0)
(0.092081 -0.00750132 0)
(0.0946642 -0.00557529 0)
(0.0954098 -0.00352913 0)
(0.0931554 -0.000921175 0)
(0.0865881 0.00267008 0)
(0.0738396 0.00785059 0)
(0.0580465 0.0251438 0)
(0.0427851 0.040636 0)
(0.0610331 0.0537015 0)
(-0.127321 0.0949089 0)
(0.656088 0.404449 0)
(-0.258391 0.184185 0)
(-0.0350377 0.145117 0)
(-0.0669151 0.110153 0)
(-0.0757402 0.0768386 0)
(-0.0834477 0.0374115 0)
(-0.0834192 -0.0139313 0)
(-0.0664897 -0.0764179 0)
(-0.0452412 -0.132445 0)
(-0.023269 -0.169395 0)
(-0.00332327 -0.183411 0)
(0.0131556 -0.174575 0)
(0.025716 -0.148089 0)
(0.0363268 -0.110078 0)
(0.0458384 -0.0685276 0)
(0.0547856 -0.0298203 0)
(0.0670004 0.00400886 0)
(0.0810322 0.0225258 0)
(0.0951304 0.00156271 0)
(0.0942086 -0.0199943 0)
(0.0866948 -0.0293837 0)
(0.0773285 -0.032344 0)
(0.068378 -0.0315097 0)
(0.0606927 -0.0263443 0)
(0.0581786 -0.0148923 0)
(0.0610275 -0.0081563 0)
(0.0646537 -0.00536462 0)
(0.0676487 -0.00378732 0)
(0.0702169 -0.00176201 0)
(0.0722493 0.00159211 0)
(0.0726526 0.00650805 0)
(0.0705961 0.0132449 0)
(0.0657293 0.0224436 0)
(0.0588881 0.0369646 0)
(0.048225 0.053243 0)
(0.0729712 0.0722651 0)
(-0.00659003 0.101537 0)
(0.0559291 0.148865 0)
(-0.0819812 0.0732509 0)
(-0.275821 0.000112415 0)
(0.755064 0.451501 0)
(-0.304013 0.204173 0)
(0.00194732 0.143157 0)
(-0.018296 0.114364 0)
(-0.0168353 0.0827366 0)
(-0.0180652 0.0424619 0)
(-0.00522693 -0.0179411 0)
(0.0191349 -0.0952764 0)
(0.0355413 -0.152587 0)
(0.0469518 -0.185891 0)
(0.0531939 -0.195104 0)
(0.0550544 -0.182984 0)
(0.0540717 -0.154089 0)
(0.0520776 -0.114954 0)
(0.0504882 -0.0731142 0)
(0.0506275 -0.0355719 0)
(0.0547946 -0.00668013 0)
(0.0636582 0.00753878 0)
(0.0698036 0.000898507 0)
(0.0684259 -0.00967259 0)
(0.0616946 -0.0178352 0)
(0.0530237 -0.0221205 0)
(0.0447399 -0.022839 0)
(0.0380401 -0.020108 0)
(0.0347504 -0.0144334 0)
(0.0351974 -0.0106982 0)
(0.0374956 -0.00913758 0)
(0.040553 -0.00806992 0)
(0.0440976 -0.00609362 0)
(0.047873 -0.00212298 0)
(0.0517541 0.00448355 0)
(0.0542138 0.0134668 0)
(0.0555502 0.024788 0)
(0.0569519 0.0390743 0)
(0.0564342 0.0552117 0)
(0.0779131 0.0756531 0)
(0.0643497 0.0883485 0)
(0.0989647 0.0956357 0)
(0.116574 0.056733 0)
(-0.135366 -0.0288195 0)
(0.810587 0.493975 0)
(-0.329083 0.187761 0)
(0.0320451 0.0923287 0)
(0.0418382 0.0971519 0)
(0.0502035 0.0780051 0)
(0.0580432 0.031701 0)
(0.0896949 -0.042448 0)
(0.112827 -0.112954 0)
(0.12187 -0.162956 0)
(0.120135 -0.188787 0)
(0.110281 -0.191822 0)
(0.0950907 -0.175705 0)
(0.0774061 -0.144936 0)
(0.060068 -0.105996 0)
(0.0451616 -0.0657161 0)
(0.0346933 -0.0313923 0)
(0.0302061 -0.00736694 0)
(0.0316302 0.00374037 0)
(0.0332846 0.0017912 0)
(0.0316938 -0.00496973 0)
(0.0267635 -0.0112481 0)
(0.0202164 -0.0150355 0)
(0.0136653 -0.0162999 0)
(0.00829677 -0.015436 0)
(0.00540171 -0.0132408 0)
(0.00528881 -0.0119223 0)
(0.00696498 -0.0117109 0)
(0.00967995 -0.0115795 0)
(0.0132606 -0.0104356 0)
(0.0177745 -0.00717871 0)
(0.0239464 -0.000609531 0)
(0.0312427 0.00913142 0)
(0.038073 0.0205263 0)
(0.0460866 0.0333579 0)
(0.0543312 0.0468387 0)
(0.0739692 0.0630777 0)
(0.0870079 0.0685698 0)
(0.118557 0.0620782 0)
(0.161943 0.0507822 0)
(-0.0203076 0.0947581 0)
(0.917141 0.49594 0)
(-0.0721319 0.167599 0)
(0.112377 0.0238039 0)
(0.167894 0.0159886 0)
(0.168293 0.00525193 0)
(0.177891 -0.0405935 0)
(0.209928 -0.0897548 0)
(0.221517 -0.132517 0)
(0.212876 -0.162073 0)
(0.19003 -0.174301 0)
(0.158087 -0.169197 0)
(0.121788 -0.149545 0)
(0.0849559 -0.118472 0)
(0.0513451 -0.0818808 0)
(0.0233882 -0.0456531 0)
(0.00435546 -0.0177399 0)
(-0.00488861 -0.00137806 0)
(-0.00629644 0.00423158 0)
(-0.00601055 0.0026285 0)
(-0.00722737 -0.00197214 0)
(-0.0106566 -0.00639451 0)
(-0.0154081 -0.00941422 0)
(-0.0203179 -0.0110286 0)
(-0.024428 -0.0116465 0)
(-0.0269744 -0.0118753 0)
(-0.0279219 -0.0125002 0)
(-0.0278522 -0.0135033 0)
(-0.02719 -0.0143812 0)
(-0.0259702 -0.0145704 0)
(-0.0239064 -0.013479 0)
(-0.0201986 -0.0103701 0)
(-0.0121225 -0.00439148 0)
(-0.00105928 0.00416648 0)
(0.0101614 0.0129521 0)
(0.0217365 0.0197668 0)
(0.0387817 0.0264725 0)
(0.0542886 0.0213683 0)
(0.0783299 0.00496727 0)
(0.144396 0.0474643 0)
(-0.42421 0.210841 0)
(1.06244 0.442159 0)
(0.515905 0.296673 0)
(0.52826 0.24535 0)
(0.521512 0.175947 0)
(0.478229 0.113737 0)
(0.442615 0.0506788 0)
(0.398814 -0.0161238 0)
(0.347472 -0.0728411 0)
(0.291247 -0.109869 0)
(0.23201 -0.124644 0)
(0.171801 -0.120556 0)
(0.113683 -0.103062 0)
(0.0597403 -0.0754645 0)
(0.0144434 -0.0443562 0)
(-0.0205815 -0.0159456 0)
(-0.0362289 -0.00278144 0)
(-0.0427002 0.00294572 0)
(-0.0434614 0.00430017 0)
(-0.043549 0.00284361 0)
(-0.0446319 8.94227e-05 0)
(-0.0470323 -0.00274441 0)
(-0.0506208 -0.00512169 0)
(-0.0545926 -0.00701347 0)
(-0.0583644 -0.00857646 0)
(-0.0616259 -0.00999299 0)
(-0.0645355 -0.0114005 0)
(-0.0675395 -0.0126363 0)
(-0.071067 -0.0133284 0)
(-0.0755145 -0.0129741 0)
(-0.0813795 -0.0109151 0)
(-0.0893524 -0.00630685 0)
(-0.100167 0.00171941 0)
(-0.111828 0.0130383 0)
(-0.127185 0.0276417 0)
(-0.151987 0.0456091 0)
(-0.188909 0.0658906 0)
(-0.239579 0.0845413 0)
(-0.294701 0.0982033 0)
(-0.367853 0.105389 0)
(-0.644531 0.10542 0)
(0.237749 0.0442824 0)
(0.305999 0.102693 0)
(0.320466 0.0763301 0)
(0.297333 0.025851 0)
(0.272521 -0.0198172 0)
(0.238713 -0.0509576 0)
(0.194649 -0.0680783 0)
(0.142843 -0.0710086 0)
(0.0875021 -0.0625615 0)
(0.0330773 -0.0461672 0)
(-0.021567 -0.0215615 0)
(-0.0535256 -0.0060844 0)
(-0.0700258 0.000802876 0)
(-0.0758667 0.00265899 0)
(-0.0772695 0.00304369 0)
(-0.0771333 0.00244114 0)
(-0.0770978 0.000998264 0)
(-0.0780087 -0.000987051 0)
(-0.0799367 -0.00305886 0)
(-0.0828248 -0.0049174 0)
(-0.0863906 -0.00644688 0)
(-0.0902138 -0.0076861 0)
(-0.0942264 -0.00860554 0)
(-0.098592 -0.00916087 0)
(-0.103502 -0.00917234 0)
(-0.109037 -0.0083156 0)
(-0.115114 -0.00615485 0)
(-0.121453 -0.00219615 0)
(-0.12749 0.00407541 0)
(-0.132205 0.012938 0)
(-0.136173 0.0255095 0)
(-0.13968 0.0423947 0)
(-0.143914 0.0628248 0)
(-0.149543 0.0832017 0)
(-0.152846 0.0936564 0)
(-0.138277 0.0722076 0)
(-0.105875 -0.0244358 0)
(-0.284767 -0.211006 0)
(0.12384 0.317312 0)
(0.00459304 0.193451 0)
(0.0311411 0.106225 0)
(0.045873 0.0490408 0)
(0.0466722 0.0138895 0)
(0.0425665 -0.00820563 0)
(0.0209776 -0.0187053 0)
(-0.0174573 -0.0126243 0)
(-0.0543835 0.00041802 0)
(-0.084328 0.0110394 0)
(-0.101506 0.0165712 0)
(-0.107439 0.0171207 0)
(-0.108539 0.0165751 0)
(-0.107876 0.0160467 0)
(-0.106646 0.0161387 0)
(-0.10536 0.0166066 0)
(-0.10442 0.017101 0)
(-0.104092 0.0173808 0)
(-0.104412 0.0172881 0)
(-0.105264 0.0166525 0)
(-0.106537 0.0153665 0)
(-0.108302 0.0136159 0)
(-0.110516 0.0119069 0)
(-0.113136 0.0104063 0)
(-0.11605 0.00923554 0)
(-0.119061 0.00853369 0)
(-0.121861 0.00848454 0)
(-0.123971 0.00932346 0)
(-0.124646 0.0117325 0)
(-0.122796 0.0168805 0)
(-0.116893 0.025818 0)
(-0.10555 0.039528 0)
(-0.0885506 0.0579942 0)
(-0.0668032 0.0778078 0)
(-0.0423076 0.0917726 0)
(-0.00616376 0.0823619 0)
(0.146276 0.00692337 0)
(-0.209524 -0.125986 0)
(-0.414517 -0.510733 0)
(-0.631859 -0.144189 0)
(-0.448281 0.169309 0)
(-0.362326 0.049294 0)
(-0.2256 -0.00810966 0)
(-0.164502 -0.0417932 0)
(-0.140557 -0.0545804 0)
(-0.137347 -0.0512267 0)
(-0.144153 -0.0424894 0)
(-0.15154 -0.0348211 0)
(-0.152982 -0.0304035 0)
(-0.149403 -0.0281912 0)
(-0.143733 -0.0281096 0)
(-0.137625 -0.0296856 0)
(-0.132366 -0.0315099 0)
(-0.127991 -0.033476 0)
(-0.124172 -0.0355339 0)
(-0.120684 -0.0378186 0)
(-0.117534 -0.04034 0)
(-0.114847 -0.0428225 0)
(-0.112766 -0.0448156 0)
(-0.111413 -0.0459319 0)
(-0.110877 -0.0459802 0)
(-0.111157 -0.0449799 0)
(-0.11215 -0.0434117 0)
(-0.11364 -0.0413636 0)
(-0.115354 -0.0388473 0)
(-0.116931 -0.0357872 0)
(-0.117896 -0.0320051 0)
(-0.117612 -0.027199 0)
(-0.11502 -0.021346 0)
(-0.108229 -0.0142351 0)
(-0.0945318 -0.00527063 0)
(-0.0715706 0.00644183 0)
(-0.0393372 0.0216918 0)
(0.0104823 0.041826 0)
(0.0609741 0.047056 0)
(0.107416 0.0297833 0)
(0.170106 -0.00771903 0)
(-0.201546 -0.0718464 0)
)
;

boundaryField
{
    floor
    {
        type            noSlip;
    }
    ceiling
    {
        type            noSlip;
    }
    sWall
    {
        type            noSlip;
    }
    nWall
    {
        type            noSlip;
    }
    sideWalls
    {
        type            empty;
    }
    glass1
    {
        type            noSlip;
    }
    glass2
    {
        type            noSlip;
    }
    sun
    {
        type            noSlip;
    }
    Table_master
    {
        type            noSlip;
    }
    Table_slave
    {
        type            noSlip;
    }
    inlet
    {
        type            fixedValue;
        value           uniform (0.46194 -0.191342 0);
    }
    outlet
    {
        type            zeroGradient;
    }
}


// ************************************************************************* //
