/*--------------------------------*- C++ -*----------------------------------*\
  =========                 |
  \\      /  F ield         | OpenFOAM: The Open Source CFD Toolbox
   \\    /   O peration     | Website:  https://openfoam.org
    \\  /    A nd           | Version:  6
     \\/     M anipulation  |
\*---------------------------------------------------------------------------*/
FoamFile
{
    version     2.0;
    format      ascii;
    class       volScalarField;
    location    "27599.9999985158465";
    object      k;
}
// * * * * * * * * * * * * * * * * * * * * * * * * * * * * * * * * * * * * * //

dimensions      [0 2 -2 0 0 0 0];

internalField   nonuniform List<scalar> 
778
(
0.00158604
0.00180131
0.00178818
0.00194672
0.00209789
0.00224006
0.00237657
0.00251198
0.00265208
0.00280515
0.00295512
0.0031012
0.00324858
0.00341095
0.00358464
0.000792432
0.00162596
0.00165211
0.00157294
0.00144496
0.00128252
0.00113038
0.000998834
0.000887241
0.000792787
0.000713065
0.000645042
0.000586034
0.000533509
0.000484762
0.000436291
0.000397983
0.000326109
0.0034072
0.00643404
0.00268772
0.00274622
0.00288786
0.00305436
0.00323456
0.00343009
0.00364299
0.00387294
0.00412465
0.00437814
0.00459383
0.00469924
0.00459386
0.00429746
0.00390635
0.00357952
0.00253837
0.00281407
0.00295625
0.00289816
0.00266475
0.00226508
0.00190545
0.00160909
0.00136939
0.00117566
0.00101697
0.00088525
0.000774031
0.000681238
0.000615255
0.000574794
0.000864671
0.000524308
0.00549121
0.0127828
0.00347829
0.00321217
0.00329744
0.0034552
0.00363644
0.00384037
0.00407035
0.00432658
0.00463431
0.00500946
0.0054497
0.0059597
0.0065317
0.00686136
0.00627888
0.00538648
0.00403707
0.00416945
0.00417346
0.00397625
0.00357866
0.00266686
0.00201635
0.00157635
0.00126976
0.00104949
0.000887052
0.000764716
0.000671927
0.00060375
0.000551537
0.000548798
0.0011659
0.0006788
0.00797429
0.021762
0.00449188
0.00339074
0.00334142
0.0034379
0.00354915
0.00366843
0.00380838
0.00399035
0.00425787
0.00464706
0.00516993
0.00582452
0.00655502
0.00713594
0.00722961
0.00724659
0.00534081
0.00554578
0.00537348
0.00512424
0.00478643
0.00434827
0.00345643
0.00285985
0.00243676
0.00211043
0.00185081
0.00163221
0.00143875
0.00125875
0.00107788
0.000800964
0.000660005
0.0014223
0.000823339
0.0108775
0.0336404
0.00621433
0.00342503
0.00315815
0.00316674
0.00318927
0.00320944
0.00325152
0.00336024
0.00359362
0.00398793
0.00455235
0.00527627
0.0060872
0.00681836
0.00728297
0.00764182
0.00751225
0.00665001
0.00607004
0.00557695
0.00509809
0.0046293
0.0041236
0.0036662
0.00327541
0.0029376
0.00263116
0.00234755
0.00207895
0.00181827
0.0015549
0.0012222
0.000930783
0.00119133
0.00121728
0.00117097
0.00204355
0.00188552
0.0141764
0.0476062
0.00928702
0.00349022
0.00290844
0.00282252
0.00276411
0.00269917
0.00266376
0.00273398
0.00298011
0.00341358
0.00402325
0.00479847
0.00565492
0.00646264
0.00706845
0.00740484
0.00731955
0.00678594
0.00621191
0.00563514
0.00507333
0.00455582
0.00409161
0.00369605
0.00336333
0.0030738
0.00280668
0.00255123
0.00229864
0.00204201
0.0017739
0.00147162
0.00117873
0.00111333
0.00111294
0.00170994
0.00508576
0.00269873
0.0179942
0.0606127
0.0143654
0.00382019
0.00271521
0.00252924
0.00241156
0.00229371
0.00222067
0.00231118
0.00263
0.00313936
0.00380299
0.00463416
0.00553216
0.00637018
0.00700273
0.00732768
0.00725235
0.00681565
0.00621349
0.00555372
0.00491147
0.00434277
0.00387268
0.00350063
0.0032068
0.00296181
0.0027412
0.00252874
0.00231307
0.00208698
0.00184535
0.00158308
0.00132705
0.00116076
0.00109432
0.00156021
0.00630168
0.00374562
0.0216434
0.0704854
0.0214433
0.00510422
0.00274309
0.00237179
0.00220998
0.00208166
0.00202596
0.0022191
0.00264959
0.00323161
0.00393976
0.00477968
0.00570621
0.00658075
0.00722888
0.00751641
0.00738478
0.00689614
0.00619847
0.00542767
0.00469237
0.00406516
0.0035749
0.00321275
0.00294776
0.00274109
0.0025641
0.00239542
0.00222149
0.00203488
0.0018319
0.00161267
0.00139564
0.00123061
0.00116189
0.00213354
0.0136943
0.00638852
0.0228344
0.0694871
0.0325416
0.0110641
0.00406972
0.00258782
0.00223544
0.00210275
0.00218967
0.00251187
0.00300011
0.00360315
0.00433675
0.00522096
0.00619636
0.00709877
0.00772557
0.00792797
0.00766736
0.00702802
0.00616841
0.005252
0.00441056
0.00372456
0.00321797
0.00286973
0.00263613
0.0024696
0.00233644
0.00221095
0.00207845
0.00193191
0.00176879
0.00159085
0.00141227
0.00128886
0.00138387
0.00420747
0.0267423
0.00843337
0.0219177
0.051623
0.0336447
0.0174404
0.00859244
0.00476136
0.00326176
0.00272988
0.00285285
0.00321019
0.00367203
0.00424822
0.00500176
0.00595031
0.00698956
0.00790209
0.00845206
0.00848993
0.00800792
0.00712903
0.00604822
0.00496142
0.00401767
0.00329504
0.00280072
0.00249072
0.00230395
0.00218588
0.00209736
0.00201179
0.00191581
0.00180378
0.00167431
0.00153005
0.0013847
0.00130951
0.00191684
0.0110605
0.0223801
0.00860183
0.0192303
0.0394246
0.0302352
0.0195693
0.0121862
0.00794146
0.00571864
0.00466975
0.00436189
0.00439874
0.00465207
0.00514811
0.00594405
0.00699647
0.00810684
0.00897978
0.00935277
0.00910166
0.0082784
0.0070691
0.00572335
0.00447203
0.0034712
0.00277525
0.00235301
0.00211899
0.00199464
0.00192677
0.00187645
0.00182214
0.00175393
0.00166772
0.00156336
0.00144495
0.00133047
0.00133165
0.00278533
0.011274
0.0196166
0.00841499
0.0159447
0.0315782
0.0266474
0.0195398
0.013978
0.0102858
0.00802845
0.00675249
0.00604881
0.00573003
0.00578311
0.00627934
0.00722188
0.00843597
0.00958467
0.0102946
0.0103146
0.00959493
0.0082916
0.00667767
0.00507236
0.00373598
0.00280201
0.00224189
0.00196141
0.00182133
0.00175216
0.00171791
0.00169003
0.00165449
0.00160439
0.00153618
0.00145163
0.00135717
0.00127566
0.00132705
0.00259473
0.00986585
0.0198424
0.00843546
0.0132629
0.0256739
0.0233521
0.0186916
0.0145854
0.0115897
0.00954482
0.00821015
0.00729978
0.00684006
0.00696086
0.00772865
0.00899435
0.0103819
0.0114154
0.0117033
0.0110962
0.00968766
0.00779253
0.00577694
0.00404465
0.00284678
0.00220122
0.00186874
0.00170636
0.00162624
0.00158539
0.00156268
0.0015404
0.0015101
0.00146769
0.00141235
0.00134682
0.0012798
0.00124451
0.00140486
0.00271646
0.009123
0.0172153
0.00959364
0.0133563
0.0224203
0.0220627
0.0177632
0.0143948
0.0118959
0.0100855
0.00876918
0.00791807
0.00777586
0.00847967
0.00988182
0.0115409
0.0128773
0.013389
0.0128129
0.0112434
0.00896549
0.00652335
0.00431464
0.00296251
0.00222006
0.00185208
0.00167097
0.00157826
0.00152556
0.00149036
0.00146199
0.0014316
0.00139483
0.0013501
0.00130049
0.00125759
0.00125792
0.00141211
0.00195612
0.00353369
0.00961969
0.0157604
0.00991453
0.0108798
0.0117668
0.0129253
0.0125536
0.0113748
0.0100743
0.00894553
0.00820162
0.00830204
0.00941948
0.0113024
0.0133734
0.0149529
0.0155027
0.0147783
0.0128072
0.0100889
0.00699299
0.00461497
0.00310896
0.00231932
0.001936
0.00174839
0.00164618
0.00158063
0.00152978
0.00148328
0.00143646
0.00138816
0.00133878
0.00129018
0.00125611
0.00127965
0.00147024
0.00202924
0.00320719
0.00545573
0.0101496
0.0167722
0.00912469
0.00354267
0.0048212
0.00598995
0.00659195
0.00726765
0.00878502
0.011306
0.014143
0.0165619
0.0179837
0.018041
0.0166671
0.0141044
0.010509
0.00722285
0.00475272
0.00326015
0.00250092
0.00215215
0.00198419
0.00188804
0.0018197
0.00176221
0.00170824
0.00165408
0.00159771
0.00153921
0.00149175
0.00146062
0.00146805
0.00157887
0.00193699
0.00278437
0.00441499
0.0071253
0.0108922
0.0144949
0.00834036
0.00444642
0.00627719
0.00808565
0.0109905
0.0146648
0.0181257
0.0203738
0.0214433
0.0213602
0.0201068
0.0175203
0.013983
0.0102864
0.00699874
0.00469917
0.00339899
0.0027955
0.00254268
0.00243049
0.00236815
0.0023244
0.0022904
0.00226509
0.00224894
0.00224061
0.00223491
0.00222254
0.00219318
0.00217868
0.00220885
0.0023418
0.00270456
0.00351535
0.00508124
0.00774592
0.0117545
0.0170239
0.00827544
0.015082
0.0245567
0.0181202
0.0143648
0.0169557
0.0206447
0.0227716
0.0234779
0.023034
0.0216854
0.0196452
0.0169432
0.0136964
0.010295
0.00731843
0.0052317
0.00411095
0.00363737
0.00346554
0.00339799
0.00335489
0.00331092
0.00326377
0.00322056
0.00319133
0.00318541
0.00320929
0.00326485
0.00334724
0.0034427
0.00353046
0.00365707
0.00389666
0.00432315
0.00510478
0.00652898
0.00909558
0.0139299
0.0180674
0.010323
0.0138092
0.0170646
0.0178218
0.0207249
0.021643
0.0220558
0.0210615
0.0192572
0.0171499
0.0149816
0.0128394
0.010739
0.00872162
0.0069445
0.00560677
0.00481768
0.0044566
0.00433434
0.00431866
0.00433898
0.00436108
0.00437213
0.00437309
0.0043737
0.00438874
0.00443598
0.00453559
0.00470962
0.00497908
0.00535706
0.00583646
0.00636712
0.00691476
0.00756215
0.0085029
0.0100015
0.0124347
0.0171598
0.0192056
0.0113571
0.0121317
0.00891392
0.00882823
0.00935581
0.00980748
0.00924908
0.00819182
0.00702631
0.00593023
0.0049522
0.00409663
0.00337494
0.00281894
0.00245564
0.00227468
0.00221323
0.00221818
0.00225347
0.00230032
0.00235021
0.00240051
0.00245269
0.00251169
0.00258555
0.00268516
0.0028237
0.00301481
0.00326899
0.00358916
0.00396874
0.00439533
0.00485941
0.00536569
0.00591598
0.00651897
0.00720167
0.00797924
0.00888945
0.00996134
0.00942814
)
;

boundaryField
{
    floor
    {
        type            kqRWallFunction;
        value           nonuniform List<scalar> 
36
(
0.00358464
0.000792432
0.00162596
0.00165211
0.00157294
0.00144496
0.00128252
0.00113038
0.000998834
0.000887241
0.000792787
0.000713065
0.000645042
0.000586034
0.000533509
0.000484762
0.000436291
0.000397983
0.000326109
0.000326109
0.000524308
0.0006788
0.000823339
0.00117097
0.00204355
0.00188552
0.00358464
0.00429746
0.00390635
0.00357952
0.000792432
0.00357952
0.00253837
0.00538648
0.00403707
0.00534081
)
;
    }
    ceiling
    {
        type            kqRWallFunction;
        value           nonuniform List<scalar> 
43
(
0.0121317
0.00891392
0.00882823
0.00935581
0.00980748
0.00924908
0.00819182
0.00702631
0.00593023
0.0049522
0.00409663
0.00337494
0.00281894
0.00245564
0.00227468
0.00221323
0.00221818
0.00225347
0.00230032
0.00235021
0.00240051
0.00245269
0.00251169
0.00258555
0.00268516
0.0028237
0.00301481
0.00326899
0.00358916
0.00396874
0.00439533
0.00485941
0.00536569
0.00591598
0.00651897
0.00720167
0.00797924
0.00888945
0.00996134
0.00942814
0.0108798
0.0117668
0.00444642
)
;
    }
    sWall
    {
        type            kqRWallFunction;
        value           nonuniform List<scalar> 9(0.0219177 0.0192303 0.0159447 0.0132629 0.0133563 0.0108798 0.015082 0.0138092 0.0121317);
    }
    nWall
    {
        type            kqRWallFunction;
        value           nonuniform List<scalar> 
14
(
0.00188552
0.00269873
0.00374562
0.00860183
0.00841499
0.00843546
0.00959364
0.00991453
0.00912469
0.00834036
0.00827544
0.010323
0.0113571
0.00942814
)
;
    }
    sideWalls
    {
        type            empty;
    }
    glass1
    {
        type            kqRWallFunction;
        value           nonuniform List<scalar> 9(0.00158604 0.0034072 0.00549121 0.00797429 0.0108775 0.0141764 0.0179942 0.0216434 0.0228344);
    }
    glass2
    {
        type            kqRWallFunction;
        value           nonuniform List<scalar> 2(0.00638852 0.00843337);
    }
    sun
    {
        type            kqRWallFunction;
        value           nonuniform List<scalar> 
14
(
0.00158604
0.00180131
0.00178818
0.00194672
0.00209789
0.00224006
0.00237657
0.00251198
0.00265208
0.00280515
0.00295512
0.0031012
0.00324858
0.00341095
)
;
    }
    Table_master
    {
        type            kqRWallFunction;
        value           nonuniform List<scalar> 9(0.00266686 0.00201635 0.00157635 0.00126976 0.00104949 0.000887052 0.000764716 0.000671927 0.00060375);
    }
    Table_slave
    {
        type            kqRWallFunction;
        value           nonuniform List<scalar> 9(0.00345643 0.00285985 0.00243676 0.00211043 0.00185081 0.00163221 0.00143875 0.00125875 0.00107788);
    }
    inlet
    {
        type            turbulentIntensityKineticEnergyInlet;
        intensity       0.05;
        value           uniform 0.0009375;
    }
    outlet
    {
        type            zeroGradient;
    }
}


// ************************************************************************* //
