/*--------------------------------*- C++ -*----------------------------------*\
  =========                 |
  \\      /  F ield         | OpenFOAM: The Open Source CFD Toolbox
   \\    /   O peration     | Website:  https://openfoam.org
    \\  /    A nd           | Version:  6
     \\/     M anipulation  |
\*---------------------------------------------------------------------------*/
FoamFile
{
    version     2.0;
    format      ascii;
    class       volScalarField;
    location    "31099.9999979555978";
    object      alphat;
}
// * * * * * * * * * * * * * * * * * * * * * * * * * * * * * * * * * * * * * //

dimensions      [1 -1 -1 0 0 0 0];

internalField   nonuniform List<scalar> 
778
(
0.00104096
0.00111052
0.00110654
0.00115459
0.00119864
0.00123865
0.00127592
0.00131184
0.00134801
0.00138644
0.0014231
0.00145791
0.0014922
0.00152907
0.00156753
0.000736968
0.00105525
0.00106383
0.00103809
0.000995042
0.000937538
0.000880219
0.000827383
0.000779731
0.000737004
0.00069894
0.000664756
0.00063362
0.000604561
0.000576281
0.000546711
0.000522158
0.000472617
0.00152462
0.0030071
0.00263917
0.00304614
0.00334144
0.00365456
0.00396697
0.00425497
0.00448687
0.00462195
0.0047014
0.00466883
0.004436
0.00385918
0.00281862
0.00171628
0.00163643
0.0015664
0.0013183
0.00224585
0.00311274
0.00362467
0.00364854
0.00287988
0.00246287
0.00217399
0.00195483
0.0017805
0.00163169
0.00150013
0.00137772
0.00125797
0.0011505
0.0010578
0.00119152
0.000599124
0.00193407
0.0041984
0.00311344
0.00445307
0.00497556
0.00541778
0.0058195
0.00617319
0.00647294
0.00670806
0.00693586
0.00717551
0.00739562
0.0075264
0.00743903
0.0068106
0.00498085
0.00192128
0.00166368
0.00355977
0.0049669
0.00563181
0.00512065
0.00135129
0.00117499
0.00103905
0.000932698
0.000848062
0.000779737
0.000723992
0.000678638
0.000643269
0.000707323
0.000832037
0.00131762
0.000681487
0.00232899
0.00565769
0.00297914
0.00500699
0.00578032
0.00619407
0.00649831
0.00672349
0.00689172
0.00702827
0.00722238
0.00755018
0.00802826
0.0086292
0.00923308
0.00953013
0.0089477
0.00667261
0.00191389
0.00443639
0.00659788
0.00769407
0.00796315
0.00679655
0.00153903
0.00139974
0.00129197
0.00120241
0.00112608
0.00105754
0.000992905
0.000928704
0.00085935
0.000803018
0.000832531
0.00142688
0.000750137
0.00271822
0.00748937
0.00300531
0.00475992
0.00594883
0.00630137
0.00642919
0.00643398
0.00637013
0.00631386
0.00639539
0.00671391
0.00729797
0.00812487
0.00908413
0.00996814
0.0105298
0.0105248
0.00944724
0.0096146
0.00983524
0.0098653
0.00966358
0.00904384
0.00719607
0.00621555
0.00554416
0.00499803
0.00446315
0.00394531
0.00343872
0.0029327
0.00241273
0.00185322
0.00141408
0.00141309
0.0011175
0.000894597
0.00118596
0.00113046
0.00310111
0.00953924
0.00353752
0.00401404
0.00569973
0.00609068
0.00605891
0.00584052
0.00552866
0.00527167
0.00526624
0.00559964
0.00626468
0.00722291
0.00834528
0.00946705
0.0104234
0.0110351
0.0111476
0.0110366
0.0108407
0.0105624
0.0102045
0.00974949
0.00908603
0.00844731
0.00786765
0.0073067
0.00670174
0.00605613
0.00536666
0.00462734
0.00383347
0.00299116
0.00222845
0.00167317
0.00129838
0.00146501
0.00255314
0.00135025
0.00349183
0.0114344
0.0047134
0.00328831
0.00512157
0.00576108
0.00568934
0.00533598
0.00482385
0.00437351
0.00436059
0.004781
0.00554151
0.00661165
0.00783111
0.00903921
0.0100802
0.0108266
0.0111708
0.0111451
0.0109003
0.010529
0.0101038
0.00967969
0.00926964
0.00889358
0.00854047
0.00816307
0.00770776
0.00716
0.00651154
0.00575923
0.00490616
0.00397435
0.00306344
0.00221315
0.00162884
0.00146288
0.00259347
0.00159479
0.00382756
0.0128675
0.0064255
0.00313026
0.00405773
0.00510787
0.00525324
0.0049624
0.0043582
0.00374458
0.00388347
0.00443911
0.00528897
0.00639148
0.0076572
0.00892166
0.0100016
0.0107528
0.0110948
0.0110513
0.0107352
0.0102686
0.00976671
0.00932168
0.00897865
0.00873365
0.00854268
0.00833475
0.00804567
0.00764112
0.00710504
0.00643428
0.00563572
0.00473375
0.00379624
0.00284454
0.00198805
0.00132357
0.00382256
0.0021003
0.00392888
0.0121742
0.00794889
0.00404513
0.00275016
0.00337219
0.0039451
0.00399212
0.00352463
0.00342534
0.00378105
0.004434
0.00535238
0.00652118
0.00784755
0.00915093
0.010227
0.0109201
0.0111641
0.0109976
0.010539
0.00993756
0.00934117
0.00886554
0.00856364
0.00841547
0.00834846
0.00826873
0.00810283
0.00781089
0.00737704
0.00679976
0.00608719
0.00525948
0.00435139
0.00333009
0.00195217
0.00162821
0.00599224
0.00235783
0.00384952
0.00981255
0.00820726
0.00555135
0.00366636
0.00283965
0.00269083
0.0028179
0.00305399
0.00343058
0.00396488
0.00469955
0.00569833
0.00695883
0.00835791
0.00968002
0.0106997
0.0112613
0.0113197
0.0109423
0.0102789
0.00951633
0.00883651
0.008371
0.00815761
0.00813272
0.0081793
0.00817874
0.0080718
0.00783572
0.00746289
0.00695327
0.00631211
0.00554488
0.00462092
0.00331764
0.00157225
0.00266313
0.00603295
0.00242379
0.00360605
0.00838565
0.007934
0.00635182
0.00488862
0.00393584
0.00346496
0.00335893
0.00355459
0.00391453
0.00443715
0.00521291
0.00631667
0.00769997
0.00917156
0.0104662
0.0113444
0.0116696
0.0114373
0.0107639
0.00985192
0.0089407
0.00824949
0.0079024
0.00786199
0.00797623
0.00809218
0.00809435
0.00798186
0.00775317
0.00740363
0.00692931
0.0063251
0.00555679
0.0044505
0.00275558
0.0016474
0.00321601
0.00640262
0.00243967
0.00328349
0.00755978
0.00765224
0.00672258
0.00571928
0.00496381
0.00451902
0.00435961
0.00440062
0.00461878
0.00509935
0.00596705
0.00724508
0.00877963
0.0102844
0.0114495
0.0120473
0.0119924
0.0113508
0.0103119
0.00915792
0.00819598
0.00765099
0.00754005
0.00763518
0.00778882
0.00788976
0.00786266
0.00773183
0.00749915
0.00715735
0.0066953
0.00608347
0.00519132
0.00363811
0.00193253
0.00203007
0.00375497
0.00628252
0.00239819
0.00299383
0.00676047
0.00730494
0.00686641
0.00622302
0.00568223
0.00532255
0.00514729
0.0050964
0.00528365
0.0058947
0.00703051
0.00858007
0.0102443
0.011653
0.012496
0.0126105
0.012006
0.0108558
0.00945094
0.00818573
0.00737141
0.00700753
0.00695866
0.00706526
0.00721326
0.00730904
0.00728424
0.00715283
0.00691517
0.00656315
0.00607582
0.00536989
0.00414672
0.0023887
0.00176852
0.00256568
0.00402927
0.00542955
0.0023132
0.00300333
0.00670988
0.00746235
0.00694811
0.00642767
0.0060014
0.00569425
0.00549649
0.00549103
0.00594439
0.00702321
0.00863526
0.0104558
0.0120656
0.013092
0.0133142
0.0127071
0.0114137
0.00976759
0.0081779
0.00702214
0.00633032
0.00599713
0.00591788
0.00599527
0.00613202
0.00623245
0.00621116
0.00606633
0.00579827
0.00540719
0.00488414
0.00416292
0.00308508
0.00199696
0.00192548
0.00287441
0.00414994
0.00504997
0.00224369
0.00270954
0.00282015
0.00416522
0.00489725
0.00512498
0.00513048
0.00508322
0.0051812
0.00581317
0.00715682
0.00904659
0.0110871
0.0128345
0.0139179
0.0141163
0.0133843
0.0119012
0.00995416
0.00809824
0.00663896
0.00564611
0.00506548
0.00479309
0.00471163
0.00473566
0.00479672
0.00482091
0.00473339
0.00451548
0.00418456
0.00377596
0.00333602
0.00289183
0.00243017
0.00203828
0.00213049
0.00301708
0.00435265
0.00568613
0.00233378
0.00096478
0.00174021
0.00267142
0.00341936
0.00428817
0.00575763
0.00791705
0.0103104
0.0124876
0.0141158
0.0149687
0.0148966
0.0138982
0.0120744
0.00990125
0.00783566
0.00618471
0.00506467
0.00443675
0.00412061
0.00396099
0.00387548
0.00382108
0.00376223
0.00365883
0.00348023
0.00322961
0.00295232
0.00270521
0.00252883
0.00243013
0.00239564
0.00243485
0.00266526
0.00339282
0.00501637
0.00584624
0.00245657
0.00178742
0.00247489
0.00360449
0.00561717
0.00833845
0.011055
0.0131485
0.0146549
0.0155668
0.0158242
0.0153116
0.0139112
0.0118318
0.00946582
0.00727637
0.00561141
0.00460715
0.00409815
0.00384608
0.00371127
0.00363373
0.00358395
0.00353905
0.0034754
0.00337326
0.00323183
0.00307969
0.00295545
0.00288903
0.0028898
0.00295005
0.00306375
0.00325159
0.00358843
0.00426677
0.00598517
0.00632707
0.00250596
0.00323784
0.00785973
0.00725792
0.00650757
0.00826284
0.0109929
0.0132848
0.0148226
0.0156272
0.015821
0.0155067
0.0146411
0.0131737
0.0111607
0.00886748
0.00673595
0.00523624
0.00441833
0.00401723
0.00381448
0.00371378
0.00367771
0.00368443
0.00371182
0.00373559
0.00373476
0.00370153
0.00364899
0.00360634
0.00359022
0.00360897
0.00366352
0.0037515
0.003878
0.00407066
0.00439617
0.00499778
0.00639496
0.00687339
0.00246854
0.00309538
0.00598551
0.0077452
0.00990828
0.0109961
0.0121102
0.0127522
0.0128985
0.0126437
0.0120563
0.0111647
0.00998007
0.00855437
0.00704864
0.00572219
0.00473761
0.00410659
0.00372922
0.00350918
0.0033988
0.00337698
0.00342782
0.00353076
0.00365853
0.00378076
0.00387247
0.00392498
0.00395307
0.00398527
0.00403447
0.00410661
0.00420223
0.00431809
0.00445866
0.00463841
0.00487234
0.00520352
0.00601846
0.00715353
0.00243258
0.00289541
0.00248059
0.00246811
0.00253939
0.00259786
0.00251837
0.00236665
0.0021916
0.0020182
0.00185518
0.00170355
0.00156375
0.00144027
0.0013417
0.00127594
0.0012453
0.00123604
0.0012403
0.00125429
0.00127514
0.00130019
0.00132703
0.00135387
0.00137963
0.00140409
0.00142776
0.00145177
0.00147748
0.0015062
0.00153901
0.00157661
0.00162006
0.00167182
0.00173665
0.00182226
0.00193735
0.00208592
0.00226174
0.00244677
0.00229297
)
;

boundaryField
{
    floor
    {
        type            compressible::alphatWallFunction;
        Prt             0.85;
        value           nonuniform List<scalar> 
36
(
0.000219911
0.000104504
0.00014992
0.000151119
0.000147517
0.000141467
0.000133338
0.000125177
0.000117599
0.000110715
0.0001045
9.89272e-05
9.3891e-05
8.92766e-05
8.4945e-05
8.07049e-05
7.62439e-05
7.25174e-05
6.49312e-05
6.49303e-05
8.41324e-05
9.63605e-05
0.000106416
0.000127231
0.000168066
0.000160401
0.000219908
0.000239709
0.000229102
0.000219754
0.000104502
0.000219752
0.000186241
0.000266687
0.000232719
0.000265719
)
;
    }
    ceiling
    {
        type            compressible::alphatWallFunction;
        Prt             0.85;
        value           nonuniform List<scalar> 
43
(
0.000391262
0.000338891
0.000337307
0.00034638
0.000353808
0.00034375
0.000324427
0.000301955
0.000279497
0.000258192
0.000238193
0.000219587
0.000203005
0.000189658
0.000180687
0.000176474
0.000175198
0.000175775
0.000177687
0.000180543
0.000183974
0.000187651
0.000191321
0.000194841
0.000198174
0.000201393
0.000204648
0.000208122
0.000211992
0.000216401
0.000221439
0.000227231
0.000234088
0.000242611
0.000253784
0.000268727
0.000287935
0.000310544
0.000334184
0.000314714
0.000368227
0.00038213
0.000248621
)
;
    }
    sWall
    {
        type            compressible::alphatWallFunction;
        Prt             0.85;
        value           nonuniform List<scalar> 9(0.000507611 0.000477909 0.000438245 0.000402291 0.000403466 0.000366652 0.000431965 0.00041435 0.000389511);
    }
    nWall
    {
        type            compressible::alphatWallFunction;
        Prt             0.85;
        value           nonuniform List<scalar> 
14
(
0.000159953
0.000190133
0.000223054
0.000331083
0.000333041
0.000327642
0.000316754
0.000307976
0.000320052
0.000335288
0.000341539
0.00033625
0.00033161
0.00031403
)
;
    }
    sideWalls
    {
        type            empty;
    }
    glass1
    {
        type            compressible::alphatWallFunction;
        Prt             0.85;
        value           nonuniform List<scalar> 9(0.000143924 0.000209129 0.000262682 0.000313286 0.000362354 0.000409971 0.000457975 0.000498832 0.000511209);
    }
    glass2
    {
        type            compressible::alphatWallFunction;
        Prt             0.85;
        value           nonuniform List<scalar> 2(0.000287232 0.000320334);
    }
    sun
    {
        type            compressible::alphatWallFunction;
        Prt             0.85;
        value           nonuniform List<scalar> 
14
(
0.000147958
0.000157642
0.000157087
0.000163758
0.000169844
0.000175352
0.000180461
0.000185372
0.000190301
0.000195522
0.000200486
0.000205188
0.000209806
0.000214758
)
;
    }
    Table_master
    {
        type            compressible::alphatWallFunction;
        Prt             0.85;
        value           nonuniform List<scalar> 9(0.000191003 0.000166829 0.000147905 0.0001329 0.000120816 0.000110955 0.000102834 9.61704e-05 9.09366e-05);
    }
    Table_slave
    {
        type            compressible::alphatWallFunction;
        Prt             0.85;
        value           nonuniform List<scalar> 9(0.000216362 0.000197587 0.000182916 0.000170618 0.000160055 0.000150498 0.000141421 0.000132336 0.000122438);
    }
    inlet
    {
        type            fixedValue;
        value           uniform 1.94e-05;
    }
    outlet
    {
        type            zeroGradient;
    }
}


// ************************************************************************* //
