/*--------------------------------*- C++ -*----------------------------------*\
  =========                 |
  \\      /  F ield         | OpenFOAM: The Open Source CFD Toolbox
   \\    /   O peration     | Website:  https://openfoam.org
    \\  /    A nd           | Version:  6
     \\/     M anipulation  |
\*---------------------------------------------------------------------------*/
FoamFile
{
    version     2.0;
    format      ascii;
    class       volScalarField;
    location    "31099.9999979555978";
    object      epsilon;
}
// * * * * * * * * * * * * * * * * * * * * * * * * * * * * * * * * * * * * * //

dimensions      [0 2 -3 0 0 0 0];

internalField   nonuniform List<scalar> 
778
(
0.000253107
0.000306335
0.000303004
0.000344202
0.000385102
0.000424954
0.000464448
0.000504773
0.00054766
0.000595827
0.000644306
0.000692708
0.000742677
0.000799016
0.000860756
8.95098e-05
0.000262442
0.000268877
0.000249832
0.000220024
0.000184047
0.000152318
0.000126508
0.00010589
8.9423e-05
7.62747e-05
6.5625e-05
5.68318e-05
4.93682e-05
4.27616e-05
3.65132e-05
3.18141e-05
2.35981e-05
0.00079695
0.00144313
0.000287011
0.000259641
0.000261756
0.000267743
0.000276655
0.000290103
0.000310382
0.000340616
0.000379861
0.000431006
0.000499415
0.00060064
0.000785797
0.00112947
0.000978896
0.000858496
0.000511668
0.000369288
0.000294031
0.000242726
0.00020393
0.00018679
0.000154649
0.000124981
0.000100681
8.14736e-05
6.6512e-05
5.48089e-05
4.56197e-05
3.86976e-05
3.45069e-05
3.27449e-05
6.57612e-05
4.80643e-05
0.0016305
0.00407875
0.000407388
0.000242978
0.000229166
0.000231087
0.000238311
0.000250591
0.000268511
0.000292798
0.000324935
0.000367002
0.000421372
0.000495051
0.000601405
0.000724659
0.000829902
0.00158387
0.0010281
0.000512262
0.000367622
0.0002942
0.000261995
0.000550867
0.000362172
0.000250452
0.000181154
0.000136179
0.000105847
8.473e-05
6.97839e-05
5.94333e-05
4.51093e-05
3.79573e-05
0.000108177
7.07325e-05
0.00285324
0.00876951
0.000709797
0.000240763
0.000202531
0.000200073
0.00020325
0.000209882
0.000220706
0.000237631
0.000263325
0.000300062
0.000349243
0.000412323
0.000487947
0.000560114
0.000612433
0.000824697
0.00156531
0.000728769
0.000459703
0.000358257
0.000301895
0.000291804
0.000813842
0.000612282
0.000481469
0.000388119
0.000318803
0.000264059
0.000218544
0.000178834
0.000141686
8.36653e-05
5.48051e-05
0.000148675
9.4333e-05
0.00454548
0.0158256
0.00134608
0.000258358
0.000175771
0.000166835
0.000165846
0.000167824
0.00017399
0.0001875
0.000211745
0.00024841
0.000297777
0.000359237
0.000427625
0.00048896
0.000528435
0.000582525
0.000627785
0.00048331
0.000393573
0.000331086
0.00028232
0.000248622
0.000247816
0.000226744
0.000202902
0.000181048
0.000162679
0.000146521
0.000131847
0.000118243
0.000105066
8.44308e-05
6.41013e-05
0.000105127
0.000138717
0.000159988
0.000372607
0.000323092
0.00676271
0.0248758
0.00255281
0.000318041
0.000155558
0.000137095
0.000132159
0.000130727
0.000134496
0.000148588
0.000176736
0.000218077
0.000270725
0.000333909
0.000401423
0.000462268
0.000502745
0.000521613
0.000504873
0.000438354
0.000373914
0.000315709
0.000264766
0.000223383
0.000193277
0.000169619
0.000150812
0.000135639
0.000123315
0.000112767
0.000103302
9.45233e-05
8.6063e-05
7.58761e-05
6.52814e-05
7.75092e-05
9.95827e-05
0.000213181
0.00108841
0.000550727
0.00967061
0.0336347
0.00458243
0.000464859
0.000150839
0.000116357
0.000107109
0.000103309
0.000107107
0.000127946
0.000166147
0.000215856
0.000273161
0.000339713
0.00040886
0.000469952
0.000509774
0.000520234
0.000494261
0.000437647
0.000371875
0.000307496
0.000250545
0.000204423
0.000169733
0.00014455
0.000126332
0.000112755
0.000102308
9.374e-05
8.62372e-05
7.93381e-05
7.27721e-05
6.6112e-05
6.0306e-05
6.36404e-05
7.66362e-05
0.000176971
0.00163228
0.000907143
0.0127571
0.0404052
0.00748816
0.000870856
0.000194204
0.000115369
9.73963e-05
9.14817e-05
9.86628e-05
0.000137756
0.000189317
0.00024621
0.000306838
0.000373407
0.00044419
0.000507439
0.000546889
0.000550627
0.000515549
0.000451481
0.000375453
0.000300896
0.000236419
0.000185918
0.00014929
0.000123977
0.000106723
9.45933e-05
8.57732e-05
7.88487e-05
7.29346e-05
6.75476e-05
6.24624e-05
5.76516e-05
5.39695e-05
5.55686e-05
6.9908e-05
0.000364883
0.00588373
0.0020747
0.0138264
0.0414627
0.0139292
0.0031608
0.000629074
0.00020781
0.000132646
0.000116013
0.000142482
0.000192981
0.00024933
0.00030636
0.000367093
0.000436136
0.000510395
0.000575026
0.000610333
0.000602767
0.000551894
0.000470753
0.000378284
0.000290722
0.000218108
0.000163932
0.000126741
0.000102606
8.73054e-05
7.73722e-05
7.07085e-05
6.57265e-05
6.15293e-05
5.76774e-05
5.40101e-05
5.06347e-05
4.83946e-05
5.15856e-05
9.29696e-05
0.0010775
0.0155041
0.00294175
0.0130045
0.028376
0.0144144
0.00572341
0.00210215
0.000833649
0.000413372
0.000276822
0.000279015
0.000314643
0.000356116
0.000401625
0.000458276
0.000530328
0.000609244
0.000673234
0.000698067
0.000670145
0.000593406
0.000486284
0.000372233
0.000270338
0.000190912
0.000135647
0.000100648
7.98867e-05
6.79901e-05
6.12176e-05
5.71491e-05
5.42178e-05
5.16758e-05
4.92205e-05
4.68079e-05
4.47082e-05
4.42301e-05
5.3429e-05
0.000171121
0.00259054
0.0127698
0.00319563
0.0106908
0.0193619
0.0120391
0.00629856
0.00317278
0.00167356
0.000986059
0.000678669
0.000559867
0.000517288
0.000510368
0.000531289
0.00058332
0.000662168
0.000746768
0.000804409
0.00080675
0.000743592
0.000627449
0.000485348
0.000346838
0.000233005
0.000152212
0.000101693
7.35561e-05
5.88179e-05
5.13472e-05
4.79492e-05
4.61609e-05
4.485e-05
4.35485e-05
4.21192e-05
4.06785e-05
3.99056e-05
4.28644e-05
6.81764e-05
0.000273037
0.00230651
0.0108992
0.00325634
0.00807396
0.0137725
0.00969274
0.00593264
0.00356869
0.00222657
0.00149005
0.00109231
0.000868899
0.000743358
0.000685749
0.000689899
0.000750176
0.000844291
0.000931816
0.000968117
0.000925794
0.000805193
0.000634112
0.000451072
0.000291965
0.000176706
0.00010679
6.9368e-05
5.24403e-05
4.43199e-05
4.05081e-05
3.91148e-05
3.85317e-05
3.80791e-05
3.74735e-05
3.66742e-05
3.6009e-05
3.71937e-05
4.89602e-05
0.000130626
0.000563891
0.00240927
0.00875826
0.00308926
0.00612452
0.010167
0.00779088
0.00531219
0.0035698
0.00246872
0.00178755
0.00136792
0.00109274
0.000925921
0.000859098
0.000886446
0.000982508
0.00109731
0.00116968
0.00115057
0.00102732
0.000821745
0.000585353
0.000367317
0.000207361
0.000114111
7.19596e-05
5.21907e-05
4.27402e-05
3.79541e-05
3.56285e-05
3.48135e-05
3.45294e-05
3.43431e-05
3.40729e-05
3.3803e-05
3.44493e-05
4.09756e-05
8.09949e-05
0.00028039
0.000953947
0.00273142
0.00646609
0.00277235
0.00617943
0.00781182
0.00680378
0.00473917
0.00336534
0.00246209
0.00186548
0.00146216
0.00119449
0.0010645
0.00107019
0.00118005
0.00132933
0.00143814
0.00143953
0.00130216
0.00105276
0.000742505
0.000455913
0.000237662
0.000130879
8.19042e-05
6.00999e-05
4.91853e-05
4.28952e-05
3.89562e-05
3.66157e-05
3.55815e-05
3.51871e-05
3.51274e-05
3.53058e-05
3.59687e-05
3.87242e-05
5.15522e-05
0.000111182
0.000349206
0.00106112
0.00269933
0.00545163
0.00253544
0.00454422
0.00511395
0.00418539
0.00336217
0.00264008
0.0020704
0.00164925
0.00136201
0.0012449
0.00130037
0.00147788
0.00168655
0.00182475
0.00181797
0.0016401
0.00130582
0.0009127
0.000520469
0.000279259
0.000155836
0.00010285
7.98773e-05
6.80263e-05
6.01292e-05
5.40133e-05
4.92546e-05
4.60051e-05
4.44947e-05
4.43065e-05
4.52011e-05
4.71865e-05
5.06039e-05
5.71639e-05
7.43143e-05
0.000130672
0.000319798
0.000871722
0.00217756
0.00513583
0.00287193
0.00140062
0.00143116
0.0014338
0.00135501
0.0013129
0.00142397
0.00170801
0.00204293
0.00230585
0.00240509
0.00229192
0.00198193
0.00153659
0.000985541
0.000572701
0.00031519
0.000190043
0.000137727
0.00011606
0.000104584
9.607e-05
8.83904e-05
8.12904e-05
7.53217e-05
7.142e-05
7.05089e-05
7.27421e-05
7.81323e-05
8.68898e-05
9.92451e-05
0.000116286
0.000143239
0.00019867
0.000338207
0.0007232
0.00205575
0.0040252
0.00332832
0.001188
0.00171854
0.00195641
0.00231275
0.00276
0.00316445
0.00334284
0.00330804
0.00308484
0.00269509
0.00212834
0.00151274
0.000980448
0.000579671
0.000347874
0.000238548
0.000194605
0.000176337
0.000166294
0.000158453
0.000151003
0.000143601
0.000136745
0.000131631
0.000129925
0.00013335
0.00014277
0.000159199
0.00018352
0.000216348
0.000258941
0.000315996
0.000402245
0.000558357
0.000911289
0.00230965
0.00363899
0.00353146
0.00741561
0.00805097
0.00480743
0.00340841
0.00374493
0.00415521
0.00416661
0.00395312
0.00359392
0.00313672
0.00262955
0.00208758
0.00154046
0.00105833
0.000697392
0.000473834
0.000364715
0.000318539
0.000298309
0.000287661
0.000280984
0.000275986
0.000271255
0.000265978
0.000260388
0.000256151
0.0002561
0.000263058
0.000278746
0.000305486
0.000345563
0.000401759
0.000478429
0.000584604
0.000741105
0.000996962
0.00148323
0.00283745
0.00467573
0.00335405
0.0065031
0.00512778
0.00437116
0.00462637
0.00455058
0.00428377
0.00370232
0.00305409
0.00246642
0.00197212
0.00156842
0.00124569
0.000995169
0.000812301
0.000688092
0.00060311
0.000544234
0.000505243
0.0004817
0.000471002
0.000470983
0.000479142
0.00049258
0.000508403
0.000524374
0.000539535
0.000554557
0.000571923
0.000596796
0.000633855
0.000688318
0.000767404
0.00088251
0.00105348
0.00131673
0.00172995
0.00237364
0.00364329
0.00617148
0.00320827
0.00536106
0.00337113
0.0033225
0.00362195
0.00388382
0.00354996
0.00295536
0.00235219
0.00183967
0.00143036
0.00110833
0.000857805
0.00067065
0.000542486
0.000466709
0.000433819
0.000424197
0.000428538
0.000443142
0.000465599
0.000493634
0.000524973
0.000557633
0.000590261
0.000622384
0.000654547
0.000688241
0.000725544
0.000768752
0.000820181
0.000881871
0.00095672
0.00105088
0.0011766
0.0013568
0.00162701
0.00202753
0.00258266
0.0032693
0.00269749
)
;

boundaryField
{
    floor
    {
        Cmu             0.09;
        kappa           0.41;
        E               9.8;
        type            epsilonWallFunction;
        value           nonuniform List<scalar> 
36
(
0.000860756
8.95098e-05
0.000262442
0.000268877
0.000249832
0.000220024
0.000184047
0.000152318
0.000126508
0.00010589
8.9423e-05
7.62747e-05
6.5625e-05
5.68318e-05
4.93682e-05
4.27616e-05
3.65132e-05
3.18141e-05
2.35981e-05
2.35981e-05
4.80643e-05
7.07325e-05
9.4333e-05
0.000159988
0.000372607
0.000323092
0.000860756
0.00112947
0.000978896
0.000858496
8.95098e-05
0.000858496
0.000511668
0.00158387
0.0010281
0.00156531
)
;
    }
    ceiling
    {
        Cmu             0.09;
        kappa           0.41;
        E               9.8;
        type            epsilonWallFunction;
        value           nonuniform List<scalar> 
43
(
0.00536106
0.00337113
0.0033225
0.00362195
0.00388382
0.00354996
0.00295536
0.00235219
0.00183967
0.00143036
0.00110833
0.000857805
0.00067065
0.000542486
0.000466709
0.000433819
0.000424197
0.000428538
0.000443142
0.000465599
0.000493634
0.000524973
0.000557633
0.000590261
0.000622384
0.000654547
0.000688241
0.000725544
0.000768752
0.000820181
0.000881871
0.00095672
0.00105088
0.0011766
0.0013568
0.00162701
0.00202753
0.00258266
0.0032693
0.00269749
0.00454422
0.00511395
0.001188
)
;
    }
    sWall
    {
        Cmu             0.09;
        kappa           0.41;
        E               9.8;
        type            epsilonWallFunction;
        value           nonuniform List<scalar> 9(0.0130045 0.0106908 0.00807396 0.00612452 0.00617943 0.00454422 0.00741561 0.0065031 0.00536106);
    }
    nWall
    {
        Cmu             0.09;
        kappa           0.41;
        E               9.8;
        type            epsilonWallFunction;
        value           nonuniform List<scalar> 
14
(
0.000323092
0.000550727
0.000907143
0.00319563
0.00325634
0.00308926
0.00277235
0.00253544
0.00287193
0.00332832
0.00353146
0.00335405
0.00320827
0.00269749
)
;
    }
    sideWalls
    {
        type            empty;
    }
    glass1
    {
        Cmu             0.09;
        kappa           0.41;
        E               9.8;
        type            epsilonWallFunction;
        value           nonuniform List<scalar> 9(0.000253107 0.00079695 0.0016305 0.00285324 0.00454548 0.00676271 0.00967061 0.0127571 0.0138264);
    }
    glass2
    {
        Cmu             0.09;
        kappa           0.41;
        E               9.8;
        type            epsilonWallFunction;
        value           nonuniform List<scalar> 2(0.0020747 0.00294175);
    }
    sun
    {
        Cmu             0.09;
        kappa           0.41;
        E               9.8;
        type            epsilonWallFunction;
        value           nonuniform List<scalar> 
14
(
0.000253107
0.000306335
0.000303004
0.000344202
0.000385102
0.000424954
0.000464448
0.000504773
0.00054766
0.000595827
0.000644306
0.000692708
0.000742677
0.000799016
)
;
    }
    Table_master
    {
        Cmu             0.09;
        kappa           0.41;
        E               9.8;
        type            epsilonWallFunction;
        value           nonuniform List<scalar> 9(0.000550867 0.000362172 0.000250452 0.000181154 0.000136179 0.000105847 8.473e-05 6.97839e-05 5.94333e-05);
    }
    Table_slave
    {
        Cmu             0.09;
        kappa           0.41;
        E               9.8;
        type            epsilonWallFunction;
        value           nonuniform List<scalar> 9(0.000813842 0.000612282 0.000481469 0.000388119 0.000318803 0.000264059 0.000218544 0.000178834 0.000141686);
    }
    inlet
    {
        type            turbulentMixingLengthDissipationRateInlet;
        mixingLength    0.01;
        phi             phi;
        k               k;
        value           uniform 0.000471671;
    }
    outlet
    {
        type            zeroGradient;
    }
}


// ************************************************************************* //
