/*--------------------------------*- C++ -*----------------------------------*\
  =========                 |
  \\      /  F ield         | OpenFOAM: The Open Source CFD Toolbox
   \\    /   O peration     | Website:  https://openfoam.org
    \\  /    A nd           | Version:  6
     \\/     M anipulation  |
\*---------------------------------------------------------------------------*/
FoamFile
{
    version     2.0;
    format      ascii;
    class       volScalarField;
    location    "31099.9999979555978";
    object      k;
}
// * * * * * * * * * * * * * * * * * * * * * * * * * * * * * * * * * * * * * //

dimensions      [0 2 -2 0 0 0 0];

internalField   nonuniform List<scalar> 
778
(
0.00158588
0.00180108
0.001788
0.0019466
0.0020979
0.00224025
0.00237699
0.00251265
0.00265303
0.00280639
0.00295662
0.0031029
0.00325038
0.00341275
0.00358636
0.000793076
0.00162464
0.00165109
0.00157217
0.00144449
0.00128239
0.00113041
0.000998801
0.000887093
0.000792562
0.000712833
0.000644832
0.000585861
0.000533374
0.000484659
0.000436215
0.000397937
0.000326076
0.00340687
0.00643318
0.00268756
0.00274623
0.00288796
0.00305459
0.003235
0.00343082
0.00364411
0.00387448
0.00412655
0.00438023
0.00459583
0.00470082
0.00459486
0.0042985
0.00390743
0.00358008
0.00253548
0.00281137
0.0029533
0.00289555
0.00266279
0.00226413
0.00190517
0.00160913
0.00136953
0.00117577
0.00101698
0.000885191
0.000773938
0.000681129
0.00061511
0.000574565
0.000864195
0.000523941
0.00549054
0.0127804
0.00347796
0.00321231
0.00329768
0.00345555
0.00363698
0.0038412
0.00407158
0.00432824
0.0046363
0.00501152
0.00545139
0.00596041
0.0065308
0.00685891
0.00627679
0.00538534
0.0040373
0.00416861
0.00417134
0.00397354
0.00357555
0.00266337
0.00201377
0.00157477
0.00126891
0.00104908
0.000886851
0.000764583
0.000671795
0.000603606
0.000551426
0.00054862
0.00116554
0.000677871
0.0079731
0.0217567
0.00449096
0.00339093
0.00334175
0.00343834
0.00354974
0.00366926
0.00380954
0.0039919
0.00425976
0.00464906
0.00517159
0.00582519
0.00655418
0.0071335
0.0072271
0.00724185
0.00534321
0.00555066
0.00537618
0.00512516
0.00478634
0.00434735
0.00345484
0.00285782
0.0024347
0.00210884
0.00184962
0.0016313
0.001438
0.00125805
0.00107717
0.000800158
0.000659414
0.00142192
0.000821315
0.0108756
0.0336316
0.00621207
0.00342512
0.00315847
0.00316718
0.00318982
0.00321015
0.00325246
0.00336151
0.0035952
0.00398965
0.00455373
0.00527665
0.00608648
0.00681673
0.0072827
0.00764397
0.00751792
0.00665446
0.00607349
0.00557905
0.0050989
0.00462898
0.00412242
0.00366479
0.00327418
0.00293656
0.00263045
0.00234711
0.00207862
0.00181787
0.00155427
0.00122112
0.000929431
0.00118987
0.00121558
0.00116805
0.00205246
0.00186627
0.0141736
0.0475944
0.00928209
0.00348998
0.00290865
0.00282288
0.00276456
0.00269974
0.00266444
0.0027348
0.00298109
0.00341449
0.00402348
0.00479708
0.00565252
0.0064595
0.0070675
0.00740657
0.00732354
0.00678991
0.00621513
0.00563719
0.00507423
0.00455577
0.00409096
0.00369527
0.00336272
0.00307329
0.00280641
0.00255117
0.00229856
0.00204166
0.00177318
0.00147069
0.00117746
0.00111174
0.00111013
0.00172537
0.00514677
0.00266301
0.0179903
0.0606017
0.0143563
0.00381908
0.00271518
0.00252942
0.00241186
0.00229415
0.00222119
0.00231174
0.00263051
0.00313937
0.00380155
0.00462966
0.00552628
0.00636414
0.00699857
0.00732652
0.00725364
0.00681771
0.00621521
0.00555466
0.00491173
0.0043426
0.00387232
0.00350031
0.00320669
0.00296178
0.00274143
0.00252916
0.00231338
0.00208679
0.00184462
0.00158244
0.0013269
0.00115859
0.00109076
0.00157086
0.0063523
0.00371431
0.0216389
0.0704786
0.0214309
0.00510042
0.00274238
0.00237166
0.00221006
0.00208194
0.00202638
0.00221968
0.00265008
0.00323097
0.00393639
0.00477244
0.00569578
0.00656983
0.00722036
0.0075116
0.0073829
0.00689543
0.00619764
0.00542645
0.00469111
0.00406419
0.00357428
0.00321246
0.00294778
0.00274123
0.00256463
0.0023963
0.00222236
0.00203525
0.00183166
0.00161275
0.00139736
0.00122738
0.00115092
0.00214549
0.0146423
0.00644825
0.0228318
0.0694971
0.0325278
0.011049
0.00406374
0.00258639
0.00223515
0.00210288
0.00218997
0.00251281
0.00300102
0.00360213
0.0043313
0.00520964
0.0061806
0.00708256
0.00771277
0.00791983
0.00766241
0.00702396
0.00616396
0.00524739
0.00440667
0.00372189
0.00321639
0.00286885
0.00263575
0.00246939
0.00233684
0.00221204
0.00207995
0.00193338
0.00177016
0.00159316
0.00141669
0.00127955
0.00131522
0.00408932
0.0297623
0.00813778
0.0219178
0.0516424
0.0336411
0.0174255
0.00857988
0.00475452
0.00325904
0.00272934
0.00285293
0.00321134
0.00367294
0.00424605
0.00499308
0.00593376
0.00696797
0.0078812
0.00843641
0.0084799
0.00800049
0.00712105
0.00603873
0.00495186
0.00401002
0.00328993
0.00279755
0.00248855
0.00230234
0.00218458
0.00209687
0.00201229
0.00191723
0.0018061
0.0016781
0.00153713
0.0013957
0.00129979
0.00160138
0.0081105
0.0271101
0.00859958
0.0192342
0.0394442
0.0302384
0.0195614
0.0121762
0.00793356
0.00571351
0.00466701
0.00436095
0.00439917
0.00465181
0.00514312
0.00593013
0.00697329
0.00807981
0.0089567
0.00933794
0.00909275
0.0082695
0.0070562
0.00570701
0.00445625
0.00345976
0.00276779
0.0023479
0.00211473
0.00199016
0.00192342
0.00187403
0.00182056
0.00175303
0.00166788
0.001566
0.0014538
0.00134842
0.00133814
0.00207069
0.00841069
0.0258033
0.00870942
0.0159512
0.0315915
0.0266525
0.0195371
0.0139728
0.0102805
0.00802385
0.00674769
0.0060465
0.00572908
0.00578028
0.00626912
0.00720025
0.00840565
0.00955529
0.0102757
0.0103078
0.00959192
0.00828213
0.00665851
0.00504865
0.00371577
0.00279093
0.00223299
0.00195369
0.00181402
0.00174544
0.00171219
0.00168517
0.00164983
0.00159891
0.00152985
0.00144498
0.0013566
0.00130299
0.00155122
0.00330377
0.00928956
0.0229146
0.0084109
0.0132673
0.0256734
0.0233521
0.0186894
0.0145822
0.011586
0.009541
0.00820738
0.00729815
0.00683808
0.00695377
0.00771005
0.00896313
0.0103475
0.0113931
0.0117016
0.0111091
0.00969599
0.00778256
0.00575282
0.00402285
0.00283194
0.00219263
0.00186076
0.0016967
0.00161551
0.00157557
0.00155478
0.00153438
0.00150458
0.00146
0.00139917
0.00132788
0.00127263
0.00135801
0.00217429
0.0048315
0.0102477
0.0183063
0.00782574
0.0133465
0.0224205
0.0220586
0.0177602
0.014392
0.0118931
0.0100826
0.00876815
0.00791749
0.00777184
0.00846477
0.00985127
0.0115023
0.0128511
0.0133946
0.0128496
0.0112897
0.00898754
0.00651584
0.00430493
0.00296033
0.00222347
0.0018538
0.00166588
0.00156582
0.00150909
0.00147496
0.00145148
0.00142647
0.0013934
0.00134899
0.00129406
0.00123962
0.00123128
0.00145483
0.00253201
0.0053939
0.0103396
0.0162122
0.00737094
0.0108736
0.0117645
0.0129244
0.0125539
0.0113764
0.0100771
0.00894965
0.00820604
0.00830354
0.00941013
0.0112745
0.0133323
0.0149228
0.0155153
0.0148463
0.0129034
0.010175
0.00702841
0.004644
0.00314114
0.00235329
0.00196431
0.00176329
0.00164359
0.00156169
0.00150086
0.00145413
0.001417
0.00138105
0.00134283
0.00130329
0.0012686
0.00125536
0.00131213
0.00159352
0.00254885
0.00500869
0.00951051
0.0166966
0.00800015
0.00354476
0.00482706
0.00600335
0.00661273
0.00729359
0.00880435
0.0113118
0.0141254
0.0165257
0.0179555
0.0180605
0.016763
0.0142629
0.0106505
0.00735351
0.00485347
0.00334833
0.00257945
0.00221621
0.0020274
0.00190507
0.00180746
0.0017211
0.00164385
0.00157852
0.00152964
0.00149668
0.00148305
0.00149708
0.00154696
0.00164153
0.0018089
0.00214775
0.00293196
0.00483784
0.00991993
0.0149871
0.00883542
0.00444576
0.00630073
0.00812541
0.0110446
0.0147193
0.0181694
0.0203892
0.021435
0.021352
0.0201366
0.0176133
0.0141603
0.0105167
0.00723432
0.00491405
0.00357365
0.00292473
0.00262577
0.00247022
0.0023686
0.00228793
0.00221577
0.00214858
0.00208892
0.00204457
0.00202742
0.00204784
0.0021184
0.00224879
0.00244203
0.00269939
0.00303895
0.00353227
0.00437196
0.00609065
0.0114855
0.0148242
0.00919199
0.0150718
0.0244238
0.0180943
0.0144133
0.0170458
0.0207451
0.0228709
0.0235601
0.0230878
0.0217185
0.0196984
0.0170626
0.0139084
0.0106137
0.00768104
0.00551864
0.00426898
0.00366484
0.00338178
0.003236
0.00315572
0.00311228
0.00308826
0.00306936
0.00304657
0.00302127
0.00300745
0.00302629
0.00309696
0.00323488
0.00344958
0.00374762
0.00413854
0.0046514
0.00536575
0.00646759
0.0084114
0.0131605
0.0175154
0.00889153
0.0138085
0.0170473
0.0178867
0.0207949
0.0217412
0.0221637
0.0211669
0.0193513
0.0172285
0.0150504
0.0129204
0.0108892
0.0090124
0.00739188
0.0061302
0.00522231
0.00461878
0.00424092
0.00401696
0.00390916
0.00389651
0.00395957
0.00407449
0.00421356
0.00435004
0.00446558
0.00455784
0.00464515
0.00476437
0.00494033
0.00519413
0.00554805
0.00603125
0.00669626
0.00763598
0.00897081
0.0108596
0.0144695
0.0205312
0.00863332
0.0121405
0.00891086
0.00882498
0.0093476
0.00979294
0.00922344
0.0081625
0.00701035
0.00595104
0.00503195
0.00424505
0.00357833
0.00303664
0.00263608
0.00238443
0.00227113
0.00223747
0.0022528
0.00230377
0.00238098
0.00247558
0.00257916
0.00268488
0.00278843
0.00288853
0.00298706
0.00308859
0.00319913
0.00332489
0.00347155
0.00364351
0.00384701
0.00409593
0.0044174
0.0048593
0.00548689
0.0063558
0.0074696
0.0087411
0.00768659
)
;

boundaryField
{
    floor
    {
        type            kqRWallFunction;
        value           nonuniform List<scalar> 
36
(
0.00358636
0.000793076
0.00162464
0.00165109
0.00157217
0.00144449
0.00128239
0.00113041
0.000998801
0.000887093
0.000792562
0.000712833
0.000644832
0.000585861
0.000533374
0.000484659
0.000436215
0.000397937
0.000326076
0.000326076
0.000523941
0.000677871
0.000821315
0.00116805
0.00205246
0.00186627
0.00358636
0.0042985
0.00390743
0.00358008
0.000793076
0.00358008
0.00253548
0.00538534
0.0040373
0.00534321
)
;
    }
    ceiling
    {
        type            kqRWallFunction;
        value           nonuniform List<scalar> 
43
(
0.0121405
0.00891086
0.00882498
0.0093476
0.00979294
0.00922344
0.0081625
0.00701035
0.00595104
0.00503195
0.00424505
0.00357833
0.00303664
0.00263608
0.00238443
0.00227113
0.00223747
0.0022528
0.00230377
0.00238098
0.00247558
0.00257916
0.00268488
0.00278843
0.00288853
0.00298706
0.00308859
0.00319913
0.00332489
0.00347155
0.00364351
0.00384701
0.00409593
0.0044174
0.0048593
0.00548689
0.0063558
0.0074696
0.0087411
0.00768659
0.0108736
0.0117645
0.00444576
)
;
    }
    sWall
    {
        type            kqRWallFunction;
        value           nonuniform List<scalar> 9(0.0219178 0.0192342 0.0159512 0.0132673 0.0133465 0.0108736 0.0150718 0.0138085 0.0121405);
    }
    nWall
    {
        type            kqRWallFunction;
        value           nonuniform List<scalar> 
14
(
0.00186627
0.00266301
0.00371431
0.00859958
0.00870942
0.0084109
0.00782574
0.00737094
0.00800015
0.00883542
0.00919199
0.00889153
0.00863332
0.00768659
)
;
    }
    sideWalls
    {
        type            empty;
    }
    glass1
    {
        type            kqRWallFunction;
        value           nonuniform List<scalar> 9(0.00158588 0.00340687 0.00549054 0.0079731 0.0108756 0.0141736 0.0179903 0.0216389 0.0228318);
    }
    glass2
    {
        type            kqRWallFunction;
        value           nonuniform List<scalar> 2(0.00644825 0.00813778);
    }
    sun
    {
        type            kqRWallFunction;
        value           nonuniform List<scalar> 
14
(
0.00158588
0.00180108
0.001788
0.0019466
0.0020979
0.00224025
0.00237699
0.00251265
0.00265303
0.00280639
0.00295662
0.0031029
0.00325038
0.00341275
)
;
    }
    Table_master
    {
        type            kqRWallFunction;
        value           nonuniform List<scalar> 9(0.00266337 0.00201377 0.00157477 0.00126891 0.00104908 0.000886851 0.000764583 0.000671795 0.000603606);
    }
    Table_slave
    {
        type            kqRWallFunction;
        value           nonuniform List<scalar> 9(0.00345484 0.00285782 0.0024347 0.00210884 0.00184962 0.0016313 0.001438 0.00125805 0.00107717);
    }
    inlet
    {
        type            turbulentIntensityKineticEnergyInlet;
        intensity       0.05;
        value           uniform 0.0009375;
    }
    outlet
    {
        type            zeroGradient;
    }
}


// ************************************************************************* //
