/*--------------------------------*- C++ -*----------------------------------*\
  =========                 |
  \\      /  F ield         | OpenFOAM: The Open Source CFD Toolbox
   \\    /   O peration     | Website:  https://openfoam.org
    \\  /    A nd           | Version:  6
     \\/     M anipulation  |
\*---------------------------------------------------------------------------*/
FoamFile
{
    version     2.0;
    format      ascii;
    class       volVectorField;
    location    "20700";
    object      U;
}
// * * * * * * * * * * * * * * * * * * * * * * * * * * * * * * * * * * * * * //

dimensions      [0 1 -1 0 0 0 0];

internalField   nonuniform List<vector> 
778
(
(0.0656021 0.0794075 0)
(-0.155173 0.0157661 0)
(-0.164302 0.0146266 0)
(-0.192421 0.0122761 0)
(-0.21686 0.00872443 0)
(-0.23692 0.00474132 0)
(-0.252044 0.000411962 0)
(-0.261809 -0.00437569 0)
(-0.265698 -0.00981975 0)
(-0.262713 -0.0162002 0)
(-0.250898 -0.0242729 0)
(-0.226192 -0.0348888 0)
(-0.186071 -0.0504048 0)
(-0.144149 -0.0751668 0)
(-0.150052 -0.108547 0)
(0.0546628 0.0354295 0)
(0.0157784 -0.0268567 0)
(0.0449544 -0.0232457 0)
(0.0693345 -0.0161427 0)
(0.0843689 -0.01034 0)
(0.0915599 -0.00641224 0)
(0.094392 -0.00434015 0)
(0.0954345 -0.00331756 0)
(0.0958966 -0.00272879 0)
(0.0960701 -0.0023143 0)
(0.0959438 -0.0019493 0)
(0.0954147 -0.0015093 0)
(0.0941558 -0.000756622 0)
(0.0913096 0.000845883 0)
(0.0851076 0.00406688 0)
(0.0735735 0.0077677 0)
(0.0599363 0.0116007 0)
(-0.0079782 0.0299807 0)
(0.258403 0.167391 0)
(-0.161232 0.0483918 0)
(-0.141602 0.0459841 0)
(-0.17401 0.0416189 0)
(-0.199376 0.0356702 0)
(-0.220098 0.0291279 0)
(-0.236126 0.0220521 0)
(-0.247374 0.0142172 0)
(-0.253542 0.0052808 0)
(-0.253848 -0.00517132 0)
(-0.247683 -0.0171005 0)
(-0.23397 -0.0308634 0)
(-0.214058 -0.0480804 0)
(-0.197479 -0.0699545 0)
(-0.193956 -0.0826332 0)
(-0.166344 -0.0425623 0)
(-0.105302 -0.0363797 0)
(-0.0983306 -0.0444573 0)
(0.109352 -0.0421007 0)
(0.0644954 -0.0411477 0)
(0.0719268 -0.0322367 0)
(0.0858863 -0.0206778 0)
(0.0937622 -0.0104319 0)
(0.0959782 -0.00362972 0)
(0.0957322 -0.000206228 0)
(0.0953456 0.00123681 0)
(0.0953122 0.00189015 0)
(0.0953951 0.00226921 0)
(0.0954033 0.00259347 0)
(0.0953035 0.00313482 0)
(0.0950123 0.00441335 0)
(0.0937547 0.00772591 0)
(0.0881553 0.0167574 0)
(0.0743939 0.0253283 0)
(0.0630872 0.0329199 0)
(-0.0521028 0.0635704 0)
(0.429988 0.253951 0)
(-0.194231 0.0847585 0)
(-0.112775 0.0784376 0)
(-0.148243 0.0669614 0)
(-0.170677 0.055503 0)
(-0.188772 0.0437247 0)
(-0.202608 0.0313344 0)
(-0.212296 0.01799 0)
(-0.217641 0.00337493 0)
(-0.217989 -0.0126596 0)
(-0.212723 -0.0303514 0)
(-0.201609 -0.0499307 0)
(-0.185964 -0.0715811 0)
(-0.169425 -0.0932128 0)
(-0.151055 -0.104555 0)
(-0.120221 -0.093131 0)
(-0.0795429 -0.0949211 0)
(-0.0714982 -0.107545 0)
(0.0921068 -0.088202 0)
(0.0625673 -0.0657422 0)
(0.0743699 -0.0460842 0)
(0.0879951 -0.0291848 0)
(0.0948202 -0.0148369 0)
(0.0918953 -0.0119544 0)
(0.087663 -0.00793113 0)
(0.085297 -0.00578767 0)
(0.0845947 -0.00457027 0)
(0.0845631 -0.00380465 0)
(0.0848181 -0.00322799 0)
(0.0854732 -0.00259878 0)
(0.0872371 -0.00143955 0)
(0.091923 0.0029184 0)
(0.0900681 0.0251108 0)
(0.073235 0.0423524 0)
(0.0700395 0.0574021 0)
(-0.0903017 0.100862 0)
(0.578562 0.325835 0)
(-0.240103 0.121807 0)
(-0.0808275 0.109228 0)
(-0.12157 0.0898609 0)
(-0.139004 0.0740741 0)
(-0.153067 0.0586345 0)
(-0.163827 0.0427423 0)
(-0.17142 0.0257877 0)
(-0.175626 0.00716631 0)
(-0.175683 -0.0135688 0)
(-0.170986 -0.0365063 0)
(-0.161409 -0.0614823 0)
(-0.147537 -0.0873824 0)
(-0.130556 -0.110293 0)
(-0.109598 -0.123183 0)
(-0.0821224 -0.124516 0)
(-0.0525112 -0.126336 0)
(-0.0333684 -0.12313 0)
(0.0163703 -0.0567924 0)
(0.0608326 -0.0930498 0)
(0.068462 -0.0791686 0)
(0.0790736 -0.0587727 0)
(0.0915654 -0.0395115 0)
(0.102907 -0.0208457 0)
(0.115649 -0.0131346 0)
(0.126783 -0.00877411 0)
(0.132362 -0.00558719 0)
(0.133341 -0.00309577 0)
(0.130826 -0.000880088 0)
(0.125374 0.00128766 0)
(0.116853 0.00367264 0)
(0.104488 0.00673525 0)
(0.0852065 0.0111753 0)
(0.0713176 0.0368765 0)
(0.0599823 0.0605801 0)
(0.0761699 0.0832765 0)
(-0.118376 0.136969 0)
(0.705751 0.383672 0)
(-0.287684 0.156999 0)
(-0.0476863 0.133786 0)
(-0.0962842 0.106928 0)
(-0.107735 0.0876047 0)
(-0.116771 0.0691781 0)
(-0.123563 0.0504424 0)
(-0.128226 0.0305691 0)
(-0.130584 0.00869073 0)
(-0.129773 -0.0158636 0)
(-0.125264 -0.0431218 0)
(-0.116629 -0.0727163 0)
(-0.103897 -0.102835 0)
(-0.0874141 -0.129072 0)
(-0.0674522 -0.145755 0)
(-0.0441033 -0.152225 0)
(-0.0202378 -0.152327 0)
(0.000306045 -0.143678 0)
(0.0308271 -0.114976 0)
(0.0569803 -0.109342 0)
(0.0705387 -0.0924005 0)
(0.0806623 -0.0712015 0)
(0.0907162 -0.0507303 0)
(0.100269 -0.0326906 0)
(0.109371 -0.0193353 0)
(0.116384 -0.00998228 0)
(0.1198 -0.00330536 0)
(0.119998 0.00193416 0)
(0.117592 0.00647023 0)
(0.11295 0.0108201 0)
(0.106092 0.0154979 0)
(0.0969413 0.0212065 0)
(0.0849864 0.0292421 0)
(0.0733758 0.047296 0)
(0.0627666 0.0713557 0)
(0.0943705 0.0993825 0)
(0.0160452 0.138127 0)
(0.0955301 0.183048 0)
(0.141243 0.144102 0)
(-0.219936 0.202219 0)
(0.810471 0.431963 0)
(-0.33133 0.190664 0)
(-0.0172998 0.150251 0)
(-0.0733571 0.117531 0)
(-0.0785807 0.0955264 0)
(-0.0822067 0.0749571 0)
(-0.0844676 0.0543452 0)
(-0.085512 0.0327075 0)
(-0.0852624 0.00883162 0)
(-0.0825899 -0.018453 0)
(-0.077418 -0.0490709 0)
(-0.0687788 -0.0825357 0)
(-0.0567629 -0.116516 0)
(-0.0416773 -0.146296 0)
(-0.0246545 -0.165975 0)
(-0.006242 -0.174462 0)
(0.0121566 -0.172701 0)
(0.0280711 -0.160955 0)
(0.046221 -0.139277 0)
(0.062645 -0.122301 0)
(0.0732864 -0.10244 0)
(0.0809392 -0.0803706 0)
(0.0876769 -0.0590147 0)
(0.0938417 -0.0401396 0)
(0.0991597 -0.0249825 0)
(0.102838 -0.0136539 0)
(0.104439 -0.00499233 0)
(0.104016 0.0021707 0)
(0.101877 0.00861555 0)
(0.0982683 0.0148676 0)
(0.0933383 0.0214614 0)
(0.0873056 0.029037 0)
(0.0804114 0.0385105 0)
(0.0745758 0.0530269 0)
(0.0691379 0.0731002 0)
(0.0910761 0.0987902 0)
(0.0725247 0.107249 0)
(0.0891547 0.0470457 0)
(0.146571 -0.0377554 0)
(-0.328853 0.10808 0)
(0.87996 0.47467 0)
(-0.368659 0.220942 0)
(0.00374537 0.155556 0)
(-0.0526474 0.121582 0)
(-0.0521916 0.0978715 0)
(-0.0510175 0.0758418 0)
(-0.0490228 0.0540571 0)
(-0.0465176 0.0315346 0)
(-0.0433449 0.00675584 0)
(-0.0373972 -0.0223318 0)
(-0.0303259 -0.0554114 0)
(-0.0205324 -0.0919819 0)
(-0.00869722 -0.128924 0)
(0.00455853 -0.161256 0)
(0.0176715 -0.181883 0)
(0.0304997 -0.190193 0)
(0.0423302 -0.187181 0)
(0.0526366 -0.17435 0)
(0.0625866 -0.153984 0)
(0.0711286 -0.13232 0)
(0.0766136 -0.109289 0)
(0.0800342 -0.0857723 0)
(0.0825953 -0.0635835 0)
(0.0847985 -0.0440842 0)
(0.0866019 -0.0280034 0)
(0.087674 -0.0152451 0)
(0.0877974 -0.00502453 0)
(0.0868261 0.00358484 0)
(0.0849525 0.0112733 0)
(0.0823198 0.0185749 0)
(0.0790961 0.0260043 0)
(0.075545 0.0340799 0)
(0.0720408 0.0433741 0)
(0.0699139 0.0551867 0)
(0.0684535 0.0698749 0)
(0.0811092 0.0890529 0)
(0.0835423 0.0920252 0)
(0.0884533 0.053354 0)
(0.181776 0.0239278 0)
(-0.283029 0.155351 0)
(0.928021 0.517123 0)
(-0.383188 0.23414 0)
(0.0169325 0.132966 0)
(-0.0273065 0.116668 0)
(-0.0265289 0.0949463 0)
(-0.0227289 0.072457 0)
(-0.0176302 0.0501286 0)
(-0.012371 0.0272649 0)
(-0.00544497 0.00187425 0)
(0.004529 -0.0307628 0)
(0.0142388 -0.0653715 0)
(0.025547 -0.103391 0)
(0.0372212 -0.140919 0)
(0.047948 -0.172189 0)
(0.0570956 -0.192362 0)
(0.0646327 -0.199813 0)
(0.0703803 -0.19535 0)
(0.0743375 -0.181115 0)
(0.0770171 -0.159998 0)
(0.0783407 -0.135979 0)
(0.0779334 -0.110945 0)
(0.0763764 -0.086401 0)
(0.0745026 -0.0638248 0)
(0.0728387 -0.0442248 0)
(0.0715255 -0.0279877 0)
(0.0704344 -0.0148341 0)
(0.0693783 -0.00406144 0)
(0.0680707 0.00511631 0)
(0.0666311 0.0132909 0)
(0.0650307 0.0209645 0)
(0.0633453 0.0285858 0)
(0.0617479 0.0365378 0)
(0.0605081 0.045149 0)
(0.0604294 0.0549285 0)
(0.0612187 0.0658504 0)
(0.0693837 0.079395 0)
(0.0779325 0.082416 0)
(0.0764458 0.0597992 0)
(0.240509 0.0504292 0)
(-0.549212 0.231293 0)
(1.01137 0.50677 0)
(-0.137228 0.296306 0)
(0.0411001 0.16149 0)
(0.0406175 0.122077 0)
(0.0131026 0.091986 0)
(0.0086847 0.065391 0)
(0.0140977 0.0414192 0)
(0.0207071 0.0170009 0)
(0.0324905 -0.0110141 0)
(0.0439394 -0.0421649 0)
(0.055802 -0.0769573 0)
(0.0680892 -0.114718 0)
(0.0792603 -0.151204 0)
(0.0878112 -0.180668 0)
(0.0930852 -0.198668 0)
(0.0951809 -0.203788 0)
(0.094498 -0.197083 0)
(0.0915807 -0.180985 0)
(0.0871066 -0.158545 0)
(0.08153 -0.13308 0)
(0.0751486 -0.107019 0)
(0.068564 -0.082183 0)
(0.0625 -0.0599345 0)
(0.0574788 -0.041009 0)
(0.0536978 -0.0255064 0)
(0.0510667 -0.0129372 0)
(0.0493294 -0.00252244 0)
(0.0480916 0.00644249 0)
(0.0473376 0.014472 0)
(0.0468404 0.0220275 0)
(0.0465503 0.0294755 0)
(0.0465113 0.0370826 0)
(0.0468312 0.0450315 0)
(0.0478788 0.0535098 0)
(0.0494214 0.0623452 0)
(0.0543326 0.0720279 0)
(0.0609473 0.0723307 0)
(0.0498668 0.0427538 0)
(0.290739 0.0688008 0)
(-0.783991 0.303941 0)
(0.779366 0.395638 0)
(0.000808148 0.319439 0)
(0.0933847 0.218872 0)
(0.110613 0.155131 0)
(0.0771768 0.106796 0)
(0.0598022 0.0675386 0)
(0.0582199 0.03577 0)
(0.0623782 0.00642666 0)
(0.0737855 -0.0234275 0)
(0.0853434 -0.0550599 0)
(0.0975344 -0.0898155 0)
(0.109412 -0.126378 0)
(0.118819 -0.160201 0)
(0.123971 -0.185926 0)
(0.124255 -0.19997 0)
(0.120087 -0.201505 0)
(0.11241 -0.191909 0)
(0.102292 -0.173746 0)
(0.0907748 -0.150054 0)
(0.0787 -0.123868 0)
(0.0667588 -0.0977207 0)
(0.0556806 -0.0735252 0)
(0.0461917 -0.0525437 0)
(0.0387679 -0.0352331 0)
(0.0335251 -0.0214032 0)
(0.0302479 -0.0102863 0)
(0.0284939 -0.000966717 0)
(0.0278064 0.00719885 0)
(0.0279207 0.0146723 0)
(0.0285029 0.0218434 0)
(0.029424 0.0289755 0)
(0.0306251 0.0362458 0)
(0.0320555 0.0437883 0)
(0.0336908 0.0517594 0)
(0.0348099 0.0602611 0)
(0.0350671 0.0700956 0)
(0.022524 0.0771989 0)
(0.0106236 0.100067 0)
(0.0527236 0.168425 0)
(-0.661972 0.285894 0)
(0.617283 0.22074 0)
(0.00460845 0.298057 0)
(0.113016 0.241495 0)
(0.148299 0.177495 0)
(0.13087 0.123454 0)
(0.117852 0.0777988 0)
(0.114986 0.0388764 0)
(0.117141 0.00339738 0)
(0.123486 -0.0307119 0)
(0.131698 -0.065022 0)
(0.141381 -0.100569 0)
(0.150276 -0.135515 0)
(0.15544 -0.165451 0)
(0.154937 -0.186011 0)
(0.148442 -0.194876 0)
(0.136846 -0.192078 0)
(0.121614 -0.179378 0)
(0.104245 -0.159366 0)
(0.0861126 -0.134961 0)
(0.0683169 -0.108948 0)
(0.0518014 -0.0838041 0)
(0.0374259 -0.0613877 0)
(0.0259354 -0.042816 0)
(0.0176221 -0.0281617 0)
(0.0123108 -0.0168684 0)
(0.00939687 -0.00780061 0)
(0.00818345 1.90506e-05 0)
(0.00829469 0.00712706 0)
(0.00921581 0.0138974 0)
(0.0106874 0.020595 0)
(0.0125728 0.0273758 0)
(0.0147704 0.0343615 0)
(0.0171599 0.0417047 0)
(0.0196197 0.0497029 0)
(0.0217021 0.0590532 0)
(0.0230434 0.0721418 0)
(0.00900521 0.0934714 0)
(-0.00779303 0.13919 0)
(0.164601 0.181504 0)
(-0.560304 0.185103 0)
(0.570778 0.118413 0)
(-0.0203865 0.258564 0)
(0.113698 0.229825 0)
(0.165057 0.175985 0)
(0.16674 0.126119 0)
(0.164413 0.0810619 0)
(0.165397 0.0399672 0)
(0.168289 0.00164655 0)
(0.172226 -0.0353663 0)
(0.177778 -0.0719114 0)
(0.18394 -0.107644 0)
(0.187644 -0.139784 0)
(0.185867 -0.16442 0)
(0.177223 -0.178703 0)
(0.162151 -0.181826 0)
(0.142191 -0.174692 0)
(0.119279 -0.159352 0)
(0.0951696 -0.138263 0)
(0.0714591 -0.114152 0)
(0.0493589 -0.0895018 0)
(0.0300278 -0.0667008 0)
(0.0144224 -0.0474682 0)
(0.00316638 -0.0326164 0)
(-0.00411434 -0.0214059 0)
(-0.00806787 -0.0131256 0)
(-0.00999799 -0.00616107 0)
(-0.0105062 0.000191456 0)
(-0.00985372 0.00627395 0)
(-0.00843428 0.0123252 0)
(-0.00639059 0.0184907 0)
(-0.00385098 0.0248598 0)
(-0.000938372 0.0315374 0)
(0.00224795 0.0387524 0)
(0.00562919 0.0467247 0)
(0.00928309 0.0565197 0)
(0.0126676 0.0725848 0)
(0.00244492 0.102596 0)
(-0.0194968 0.146711 0)
(0.216471 0.18498 0)
(-0.467685 0.177369 0)
(0.628375 0.0537571 0)
(0.00899398 0.197275 0)
(0.113773 0.196865 0)
(0.175122 0.157832 0)
(0.191412 0.117604 0)
(0.198095 0.0772297 0)
(0.203426 0.0372776 0)
(0.208604 -0.00146492 0)
(0.213061 -0.0396031 0)
(0.217333 -0.0765056 0)
(0.219134 -0.110009 0)
(0.215302 -0.136927 0)
(0.20394 -0.154612 0)
(0.185131 -0.162041 0)
(0.160493 -0.15977 0)
(0.132194 -0.149214 0)
(0.102491 -0.132468 0)
(0.0730953 -0.111637 0)
(0.0457915 -0.0892564 0)
(0.0217133 -0.0674737 0)
(0.00241979 -0.0486395 0)
(-0.0113022 -0.0342398 0)
(-0.0194873 -0.0244343 0)
(-0.0242822 -0.0170371 0)
(-0.0268571 -0.0109389 0)
(-0.0280178 -0.00542198 0)
(-0.028076 -0.000159586 0)
(-0.0271602 0.00505536 0)
(-0.0254689 0.0103946 0)
(-0.0230883 0.0159838 0)
(-0.0201699 0.0219157 0)
(-0.0169129 0.0283032 0)
(-0.0135638 0.0353421 0)
(-0.0102889 0.0433583 0)
(-0.00741766 0.0540314 0)
(-0.00881134 0.0748583 0)
(-0.0211773 0.105417 0)
(-0.0302322 0.128375 0)
(0.192116 0.177368 0)
(-0.496865 0.217421 0)
(0.473025 0.0748603 0)
(-0.132276 0.137489 0)
(0.0942352 0.133127 0)
(0.172748 0.116627 0)
(0.2039 0.0952092 0)
(0.218215 0.0643312 0)
(0.228189 0.0284047 0)
(0.237207 -0.00887471 0)
(0.243525 -0.0452049 0)
(0.244985 -0.078201 0)
(0.238976 -0.105178 0)
(0.224132 -0.124032 0)
(0.200967 -0.133865 0)
(0.171396 -0.135105 0)
(0.138019 -0.12901 0)
(0.103148 -0.116867 0)
(0.0691276 -0.10056 0)
(0.0371537 -0.0817127 0)
(0.00962752 -0.0628441 0)
(-0.0129412 -0.0457135 0)
(-0.0271217 -0.0340011 0)
(-0.035928 -0.0257386 0)
(-0.0410899 -0.0195222 0)
(-0.0441548 -0.014266 0)
(-0.0458459 -0.0095498 0)
(-0.0465112 -0.00510448 0)
(-0.0462679 -0.000765726 0)
(-0.0451306 0.00361966 0)
(-0.0432227 0.00822034 0)
(-0.0405851 0.0132152 0)
(-0.0374175 0.0187693 0)
(-0.034053 0.0250958 0)
(-0.0310684 0.0325654 0)
(-0.0291963 0.0420469 0)
(-0.0295623 0.0567945 0)
(-0.0378882 0.0837463 0)
(-0.0590302 0.11729 0)
(-0.0574812 0.138394 0)
(0.00415654 0.176801 0)
(-0.537669 0.206978 0)
(0.724217 0.134545 0)
(0.0818673 0.115273 0)
(0.149777 0.0990667 0)
(0.22246 0.0802455 0)
(0.244177 0.0697236 0)
(0.249003 0.0475867 0)
(0.255263 0.0176084 0)
(0.261312 -0.0145444 0)
(0.260273 -0.0445415 0)
(0.249726 -0.069443 0)
(0.22942 -0.0875036 0)
(0.200922 -0.0982078 0)
(0.166609 -0.10182 0)
(0.129059 -0.0993386 0)
(0.0908206 -0.092043 0)
(0.0533846 -0.0806317 0)
(0.0195397 -0.0667829 0)
(-0.0111441 -0.0516103 0)
(-0.0327959 -0.0396708 0)
(-0.0471953 -0.0310914 0)
(-0.0558957 -0.0252044 0)
(-0.0612422 -0.0205119 0)
(-0.0645915 -0.0163567 0)
(-0.0667046 -0.0124315 0)
(-0.0678768 -0.0087061 0)
(-0.0682083 -0.00514176 0)
(-0.0677152 -0.00164518 0)
(-0.0663255 0.00193642 0)
(-0.0642076 0.00579153 0)
(-0.0612989 0.0101747 0)
(-0.0577835 0.0153823 0)
(-0.0539995 0.0218185 0)
(-0.0506183 0.0302074 0)
(-0.0483512 0.0420952 0)
(-0.0468925 0.0610238 0)
(-0.0496663 0.0926549 0)
(-0.0651981 0.135694 0)
(-0.0548472 0.170086 0)
(-0.0338709 0.163392 0)
(-0.574932 0.0745518 0)
(0.192261 0.0878345 0)
(0.225995 0.099492 0)
(0.246741 0.0699219 0)
(0.242786 0.0397966 0)
(0.239884 0.012325 0)
(0.234859 -0.0125697 0)
(0.220116 -0.0330347 0)
(0.196349 -0.0482402 0)
(0.165869 -0.0581335 0)
(0.131135 -0.0631504 0)
(0.0939658 -0.0635751 0)
(0.0564266 -0.0601916 0)
(0.0205554 -0.0539195 0)
(-0.0142131 -0.0449704 0)
(-0.0407281 -0.0366147 0)
(-0.0603855 -0.0298629 0)
(-0.0733095 -0.0254414 0)
(-0.081534 -0.0222706 0)
(-0.0868567 -0.019577 0)
(-0.0905744 -0.0167605 0)
(-0.0932579 -0.0138084 0)
(-0.0951279 -0.0108574 0)
(-0.0962463 -0.00802964 0)
(-0.0966214 -0.00534279 0)
(-0.0962267 -0.00270796 0)
(-0.094936 5.53964e-05 0)
(-0.0928813 0.00314547 0)
(-0.0898708 0.0068183 0)
(-0.085842 0.0114743 0)
(-0.0808236 0.0176543 0)
(-0.0750694 0.0262501 0)
(-0.0687228 0.0388955 0)
(-0.0603092 0.0585413 0)
(-0.0484478 0.0895715 0)
(-0.0407246 0.135195 0)
(-0.0256945 0.188758 0)
(0.115538 0.180531 0)
(-0.457571 0.0337964 0)
(0.451564 0.209127 0)
(0.206787 0.178387 0)
(0.153019 0.118615 0)
(0.139829 0.0640621 0)
(0.128445 0.0260881 0)
(0.114293 0.00208976 0)
(0.0989709 -0.0125975 0)
(0.0778117 -0.0216818 0)
(0.0528551 -0.0272616 0)
(0.0253083 -0.0297573 0)
(-0.00506003 -0.0291271 0)
(-0.0343488 -0.026532 0)
(-0.0600738 -0.0233901 0)
(-0.0810864 -0.0208389 0)
(-0.0960767 -0.0197551 0)
(-0.106143 -0.0193185 0)
(-0.112814 -0.0188896 0)
(-0.117739 -0.0176609 0)
(-0.121801 -0.0155459 0)
(-0.125306 -0.012791 0)
(-0.128258 -0.00978034 0)
(-0.13059 -0.00686057 0)
(-0.132249 -0.00427229 0)
(-0.133214 -0.00211733 0)
(-0.13346 -0.000359005 0)
(-0.132889 0.00116134 0)
(-0.131218 0.00267488 0)
(-0.12832 0.00448339 0)
(-0.123722 0.00702287 0)
(-0.117024 0.0109321 0)
(-0.10794 0.0172533 0)
(-0.096061 0.0276271 0)
(-0.0797707 0.044378 0)
(-0.0562376 0.0701408 0)
(-0.027811 0.107128 0)
(-0.00222905 0.157404 0)
(0.169623 0.156564 0)
(-0.384182 0.0898922 0)
(0.361182 -0.414272 0)
(-0.345342 -0.512083 0)
(-0.218227 -0.028316 0)
(-0.0927303 0.110671 0)
(-0.0534579 0.0925931 0)
(-0.0311093 0.0548107 0)
(-0.0262803 0.0288156 0)
(-0.0313327 0.0122131 0)
(-0.040391 0.00155027 0)
(-0.051146 -0.0053708 0)
(-0.0650771 -0.00957833 0)
(-0.0807968 -0.0119325 0)
(-0.0971232 -0.0136687 0)
(-0.112553 -0.0160205 0)
(-0.125835 -0.0189049 0)
(-0.13565 -0.0219578 0)
(-0.141895 -0.0247308 0)
(-0.146034 -0.0266039 0)
(-0.149559 -0.0275798 0)
(-0.153249 -0.0278271 0)
(-0.157212 -0.0275589 0)
(-0.161271 -0.0269315 0)
(-0.165177 -0.026032 0)
(-0.168682 -0.0248692 0)
(-0.171562 -0.0234085 0)
(-0.173645 -0.0216302 0)
(-0.174833 -0.0195658 0)
(-0.175069 -0.017277 0)
(-0.174221 -0.0147728 0)
(-0.171948 -0.0119607 0)
(-0.167674 -0.00862416 0)
(-0.160518 -0.00423894 0)
(-0.149525 0.00214194 0)
(-0.133746 0.0118887 0)
(-0.1119 0.0260769 0)
(-0.0818451 0.0447342 0)
(-0.0432914 0.06786 0)
(-0.00259605 0.103104 0)
(0.189519 0.128014 0)
(-0.400134 0.148752 0)
(0.123861 -0.184995 0)
(-0.38749 -0.29739 0)
(-0.342804 -0.096746 0)
(-0.264618 0.0510851 0)
(-0.210956 0.0832779 0)
(-0.178811 0.0744762 0)
(-0.162482 0.0611214 0)
(-0.156414 0.0512776 0)
(-0.156418 0.0462073 0)
(-0.159654 0.0456602 0)
(-0.164229 0.0487734 0)
(-0.168559 0.0542911 0)
(-0.17177 0.0607221 0)
(-0.173698 0.0659002 0)
(-0.174845 0.0668748 0)
(-0.176193 0.0634337 0)
(-0.178418 0.059223 0)
(-0.181712 0.0567897 0)
(-0.185759 0.0565911 0)
(-0.190096 0.0579957 0)
(-0.1943 0.0601863 0)
(-0.198078 0.0624438 0)
(-0.201272 0.0641596 0)
(-0.203821 0.064868 0)
(-0.205707 0.0643277 0)
(-0.206919 0.0625687 0)
(-0.207438 0.0598067 0)
(-0.207246 0.0562261 0)
(-0.206285 0.0517718 0)
(-0.204368 0.0461233 0)
(-0.201083 0.0389663 0)
(-0.195791 0.0302497 0)
(-0.187737 0.0204732 0)
(-0.176167 0.0106179 0)
(-0.160112 0.00140342 0)
(-0.137982 -0.00796061 0)
(-0.106033 -0.0173022 0)
(-0.0565983 -0.013591 0)
(0.191493 0.0679629 0)
(-0.459702 0.206008 0)
(1.14752 -0.0108012 0)
(-0.295498 -0.32225 0)
(-0.352702 -0.23254 0)
(-0.352283 -0.148239 0)
(-0.328726 -0.106978 0)
(-0.297137 -0.0983237 0)
(-0.269775 -0.100337 0)
(-0.249672 -0.105723 0)
(-0.235807 -0.112885 0)
(-0.226111 -0.121886 0)
(-0.218822 -0.133298 0)
(-0.212918 -0.147526 0)
(-0.208135 -0.163784 0)
(-0.204818 -0.179316 0)
(-0.203829 -0.189734 0)
(-0.206121 -0.193478 0)
(-0.211592 -0.192803 0)
(-0.218892 -0.189732 0)
(-0.226514 -0.185904 0)
(-0.233405 -0.182208 0)
(-0.239026 -0.17893 0)
(-0.243205 -0.175999 0)
(-0.246026 -0.173187 0)
(-0.247762 -0.170225 0)
(-0.24881 -0.166868 0)
(-0.24958 -0.162935 0)
(-0.250396 -0.158328 0)
(-0.251495 -0.153026 0)
(-0.25316 -0.147057 0)
(-0.255875 -0.140414 0)
(-0.260314 -0.132866 0)
(-0.267133 -0.123679 0)
(-0.276702 -0.111331 0)
(-0.28888 -0.0935764 0)
(-0.302557 -0.0683082 0)
(-0.313781 -0.034893 0)
(-0.311756 0.00611206 0)
(-0.283351 0.0570519 0)
(-0.261215 0.123487 0)
(-0.602115 0.209833 0)
)
;

boundaryField
{
    floor
    {
        type            noSlip;
    }
    ceiling
    {
        type            noSlip;
    }
    sWall
    {
        type            noSlip;
    }
    nWall
    {
        type            noSlip;
    }
    sideWalls
    {
        type            empty;
    }
    glass1
    {
        type            noSlip;
    }
    glass2
    {
        type            noSlip;
    }
    sun
    {
        type            noSlip;
    }
    Table_master
    {
        type            noSlip;
    }
    Table_slave
    {
        type            noSlip;
    }
    inlet
    {
        type            fixedValue;
        value           uniform (0.5 0 0);
    }
    outlet
    {
        type            zeroGradient;
    }
}


// ************************************************************************* //
