/*--------------------------------*- C++ -*----------------------------------*\
  =========                 |
  \\      /  F ield         | OpenFOAM: The Open Source CFD Toolbox
   \\    /   O peration     | Website:  https://openfoam.org
    \\  /    A nd           | Version:  6
     \\/     M anipulation  |
\*---------------------------------------------------------------------------*/
FoamFile
{
    version     2.0;
    format      ascii;
    class       surfaceScalarField;
    location    "47200.000000628781";
    object      phi;
}
// * * * * * * * * * * * * * * * * * * * * * * * * * * * * * * * * * * * * * //

dimensions      [1 0 -1 0 0 0 0];

internalField   nonuniform List<scalar> 
1482
(
-0.00279973
0.00286376
-0.00348386
0.000684128
-0.00414444
0.00066058
-0.00475836
0.000613927
-0.00527953
0.000521162
-0.00569118
0.000411654
-0.00598212
0.000290936
-0.00613931
0.000157188
-0.00614545
6.14186e-06
-0.00597459
-0.000170858
-0.00559681
-0.000377781
-0.00498108
-0.000615731
-0.0040572
-0.000923874
-0.00257898
-0.00147822
-0.00257606
-6.31923e-05
6.80474e-05
0.000781794
-0.000844986
0.00143531
-0.000653519
0.0018356
-0.000400289
0.00205792
-0.000222323
0.00216256
-0.000104638
0.00220996
-4.7403e-05
0.00223291
-2.29411e-05
0.00224281
-9.90385e-06
0.0022438
-9.91975e-07
0.00223675
7.04922e-06
0.00221768
1.90696e-05
0.00217329
4.43902e-05
0.00207034
0.000102948
0.00185332
0.000217021
0.00149517
0.000358149
0.00102266
0.00047251
0.0010291
-0.00204032
0.0050744
-0.00290834
0.00155215
-0.00369407
0.00144631
-0.00434495
0.00126481
-0.00488199
0.0010582
-0.00531047
0.000840143
-0.00562864
0.000609106
-0.00582972
0.000358267
-0.00590307
7.94915e-05
-0.0058409
-0.000233033
-0.00563739
-0.000581284
-0.00528123
-0.00097189
-0.00477123
-0.00143388
-0.00428536
-0.00196409
-0.00470104
-0.00216037
-0.00311562
-0.00157998
-0.00163349
-0.00147644
-0.00161864
0.00131852
-0.00124026
0.00166369
-0.00119015
0.00191629
-0.000906127
0.00210834
-0.00059234
0.00221645
-0.000330427
0.00222547
-0.000113656
0.00222737
-4.93019e-05
0.00222894
-2.45125e-05
0.0022299
-1.08627e-05
0.00222993
-1.02558e-06
0.00222859
8.38566e-06
0.0022244
2.32622e-05
0.00221174
5.70457e-05
0.00214973
0.000164964
0.00189976
0.000466988
0.00146959
0.000788316
0.000904925
0.00103718
0.00195091
-0.00148818
0.00682051
-0.00235896
0.00242292
-0.0031288
0.00221615
-0.00371286
0.00184886
-0.00418331
0.00152865
-0.0045545
0.00121133
-0.00482823
0.000882837
-0.00500129
0.000531335
-0.00506733
0.000145524
-0.00501727
-0.000283085
-0.0048404
-0.000758159
-0.00452924
-0.00128304
-0.00411458
-0.00184854
-0.00371702
-0.00236164
-0.00329659
-0.00258081
-0.00236552
-0.00251105
-0.00127227
-0.00256969
-0.00287808
0.00115135
-0.00237715
0.00165529
-0.00169409
0.00195415
-0.00120498
0.00214767
-0.000785865
0.00217926
-0.000362021
0.00206576
0.00201661
0.00199226
0.00198155
0.00198068
0.00198922
0.00201263
0.00206983
0.00223495
0.00187641
0.000825527
0.00142784
0.00123689
0.000807213
0.0016578
0.00278415
-0.00110598
0.00825769
-0.00192776
0.00324471
-0.00256963
0.00285802
-0.00302979
0.00230903
-0.00339712
0.00189599
-0.00368567
0.00149988
-0.00389844
0.00109561
-0.0040336
0.000666493
-0.00408365
0.000195572
-0.00403542
-0.000331317
-0.00387662
-0.000916957
-0.00360309
-0.00155657
-0.00323735
-0.00221429
-0.00281519
-0.0027838
-0.00227558
-0.00312042
-0.0015558
-0.00323082
-0.000867452
-0.00325804
-0.000686696
-0.00305883
0.00144959
-0.00212084
0.00137954
-0.0023071
0.0016943
-0.00200885
0.00200647
-0.00151715
0.00227246
-0.00105186
0.0025477
-0.000637261
0.00286309
-0.000315539
0.00303145
-0.000168514
0.00309747
-6.61744e-05
0.00308168
1.5632e-05
0.00299282
8.87043e-05
0.00283177
0.000160894
0.00259058
0.000241042
0.00224617
0.000344254
0.00174114
0.000504878
0.00160424
0.00096243
0.00127625
0.00156487
0.000748773
0.00218528
0.00356721
-0.000803691
0.00945457
-0.00157971
0.00402072
-0.00204814
0.00332644
-0.00236365
0.00262454
-0.00260782
0.00214016
-0.00279316
0.00168521
-0.00292466
0.00122711
-0.00300304
0.000744877
-0.00302176
0.000214287
-0.00296419
-0.000388881
-0.00281708
-0.00106407
-0.00257337
-0.00180028
-0.00223958
-0.00254808
-0.00182282
-0.00320057
-0.00131721
-0.00362603
-0.000740448
-0.00380759
-0.000208952
-0.00378954
0.000268318
-0.00353611
0.00112887
-0.00298139
0.00149377
-0.002672
0.00175161
-0.00226669
0.00200337
-0.00176891
0.00223287
-0.00128135
0.00244711
-0.000851497
0.00264911
-0.000517548
0.00276061
-0.000280008
0.00279846
-0.000104023
0.00277427
3.98222e-05
0.0026943
0.000168675
0.0025609
0.000294292
0.00237278
0.000429158
0.00212756
0.000589478
0.00183345
0.000798984
0.00162801
0.00116788
0.00148777
0.0017051
0.00131134
0.00236172
0.00230656
0.002572
0.0013457
0.000995753
0.00190475
-0.000530502
0.0020231
-0.000575793
0.0104768
-0.00132458
0.00476951
-0.0015839
0.00358577
-0.00174959
0.00279022
-0.00186339
0.00225396
-0.00193473
0.00175656
-0.00197008
0.00126246
-0.00197372
0.000748516
-0.00194243
0.000182994
-0.00185447
-0.000476843
-0.00169996
-0.00121858
-0.00146882
-0.00203142
-0.00116392
-0.00285297
-0.000791145
-0.00357335
-0.000370933
-0.00404624
6.96744e-05
-0.0042482
0.000475005
-0.00419487
0.000849278
-0.00391038
0.00129961
-0.00343172
0.00159745
-0.00296984
0.00179968
-0.00246893
0.00197038
-0.00193961
0.00212175
-0.00143272
0.00225649
-0.000986241
0.0023623
-0.000623352
0.002422
-0.000339709
0.00243496
-0.000116982
0.00240618
6.85999e-05
0.00234026
0.000234594
0.0022408
0.000393748
0.00211169
0.000558269
0.00195991
0.000741258
0.00180012
0.000958781
0.00170916
0.00125883
0.00176762
0.00164665
0.00198328
0.00214605
0.00223498
0.0023203
0.00175593
0.0014748
0.000825339
0.000400086
0.00294558
-0.000543504
0.0115125
-0.00124358
0.00546959
-0.00119151
0.00353369
-0.00119955
0.00279827
-0.0011917
0.0022461
-0.00115811
0.00172296
-0.00110093
0.00120529
-0.00102593
0.00067351
-0.000927529
8.45939e-05
-0.000778687
-0.000625684
-0.000589423
-0.00140785
-0.000349038
-0.0022718
-6.46612e-05
-0.00313735
0.000240798
-0.00387881
0.000551336
-0.00435678
0.000846884
-0.00454375
0.00111002
-0.00445801
0.00134316
-0.00414352
0.00157422
-0.00366279
0.00173286
-0.00312848
0.00183167
-0.00256774
0.00190087
-0.00200882
0.00195636
-0.00148821
0.00200341
-0.00103328
0.00203678
-0.000656731
0.00205066
-0.000353584
0.00204138
-0.000107699
0.00200941
0.000100565
0.00195753
0.000286471
0.00188918
0.000462099
0.00180922
0.000638235
0.00172589
0.000824585
0.00165422
0.00103045
0.00163812
0.00127494
0.00172441
0.00156036
0.00193865
0.00193181
0.0022056
0.00205335
0.00223655
0.00144385
0.00164089
0.000995742
0.0046888
-0.000483768
0.0125317
-0.00105152
0.00603734
-0.000697051
0.00317922
-0.000635841
0.00273706
-0.000567217
0.00217748
-0.000462371
0.00161812
-0.000333277
0.00107619
-0.000182064
0.000522296
7.09291e-06
-0.000104563
0.000225109
-0.0008437
0.000464923
-0.00164766
0.000723031
-0.00252991
0.000980628
-0.00339495
0.00120993
-0.00410811
0.00141004
-0.00455689
0.00157182
-0.00470554
0.00168989
-0.00457608
0.00176891
-0.00422255
0.00182132
-0.0037152
0.00183042
-0.00313758
0.00180465
-0.00254197
0.00176326
-0.00196743
0.00172137
-0.00144632
0.0016866
-0.000998515
0.00165905
-0.000629176
0.00163475
-0.000329281
0.00160868
-8.16367e-05
0.00157833
0.000130922
0.0015435
0.000321295
0.00150508
0.000500524
0.00146564
0.000677677
0.00143072
0.000859504
0.00141061
0.00105055
0.00142876
0.00125679
0.00151557
0.00147354
0.00172872
0.00171867
0.0020452
0.00173687
0.00222481
0.00126424
0.00175773
0.00146281
0.00681184
0.00297928
0.0101396
0.00202381
0.00699281
0.000870141
0.00433289
0.000371667
0.00323554
0.000214884
0.00233426
0.000271428
0.00156157
0.00042541
0.000922209
0.000639274
0.000308432
0.000898478
-0.000363766
0.00116337
-0.00110859
0.00144206
-0.00192635
0.00170953
-0.00279738
0.00193632
-0.00362174
0.00209801
-0.00426979
0.0021886
-0.00464748
0.0022106
-0.00472754
0.00217274
-0.00453822
0.00208862
-0.00413844
0.00197349
-0.00360007
0.00183307
-0.00299716
0.00167972
-0.00238862
0.00153055
-0.00181826
0.00140046
-0.00131623
0.00129795
-0.000896007
0.00122448
-0.00055571
0.00117533
-0.000280125
0.0011431
-4.94078e-05
0.00112216
0.000151867
0.00110852
0.000334935
0.00109937
0.000509669
0.0010939
0.000683145
0.0010935
0.000859909
0.001102
0.00104205
0.00112905
0.00122975
0.0011907
0.00141189
0.00134236
0.001567
0.0016439
0.00143533
0.00175986
0.00114829
0.000443943
0.00277869
0.00763805
0.00403337
0.00624646
0.0036699
0.00735628
0.00254396
0.00545883
0.00189034
0.00388917
0.00153371
0.00269089
0.00138891
0.00170637
0.00142278
0.000888345
0.00159722
0.000133985
0.00184929
-0.000615829
0.00212648
-0.00138579
0.00240643
-0.00220629
0.00265186
-0.00304282
0.00282106
-0.00379093
0.00288687
-0.0043356
0.00284595
-0.00460656
0.00271204
-0.00459363
0.00250739
-0.00433357
0.00225623
-0.00388729
0.00198133
-0.00332518
0.00169984
-0.00271567
0.00142913
-0.00211791
0.00118729
-0.00157642
0.000989425
-0.00111837
0.000842403
-0.000748985
0.000745564
-0.000458871
0.000690234
-0.000224796
0.000665365
-2.45383e-05
0.000661692
0.00015554
0.000671707
0.000324921
0.00068997
0.000491405
0.000713119
0.000659996
0.00073845
0.000834578
0.00076202
0.00101848
0.000775612
0.00121615
0.000754303
0.0014332
0.000620463
0.00170085
-2.19881e-05
0.00207783
-0.00196894
0.00309546
-0.00337546
0.00418518
0.00436568
0.00241031
0.00400068
0.00330577
0.00646082
0.00324958
0.00551502
0.00303866
0.00410009
0.00284773
0.00288183
0.00272463
0.00182948
0.00271088
0.000902093
0.00279998
4.48905e-05
0.00296199
-0.000777841
0.0031727
-0.00159649
0.00339044
-0.00242402
0.0035552
-0.00320757
0.0036121
-0.00384782
0.00353438
-0.00425787
0.00332742
-0.00439959
0.00301737
-0.00428356
0.00263853
-0.00395473
0.00222426
-0.00347301
0.00180407
-0.00290499
0.00140144
-0.00231304
0.00103807
-0.00175455
0.000733764
-0.00127211
0.000503082
-0.000887688
0.000345808
-0.00059171
0.00025396
-0.000367024
0.000211361
-0.000182197
0.000203601
-1.67785e-05
0.000219564
0.000139578
0.000250996
0.000293488
0.0002925
0.000449902
0.000340324
0.000612173
0.000389996
0.000784906
0.000434384
0.000974092
0.000458326
0.00119221
0.000424279
0.00146724
0.000253896
0.00187123
-0.00026015
0.00259202
-0.00131899
0.00415478
-0.0018107
0.00467716
0.00266962
0.00145627
0.00273869
0.00274744
0.00516964
0.00343165
0.00483082
0.00371814
0.00381359
0.00381717
0.00278281
0.00384584
0.00180081
0.00388249
0.000865452
0.00395194
-2.45617e-05
0.00406192
-0.000887814
0.00420191
-0.00173649
0.00432078
-0.00254289
0.00434786
-0.00323465
0.00423147
-0.00373142
0.00395935
-0.00398573
0.00355398
-0.0039942
0.00305516
-0.00378474
0.00250668
-0.00340625
0.00194708
-0.00291342
0.00141028
-0.00236819
0.000922465
-0.00182523
0.000510706
-0.00134279
0.000193852
-0.000955261
-2.07433e-05
-0.000673093
-0.000147801
-0.000464653
-0.000211255
-0.00030357
-0.000232274
-0.000161178
-0.000223576
-2.54768e-05
-0.000193447
0.000109449
-0.000147484
0.000247526
-8.93591e-05
0.000391777
-2.17275e-05
0.000544542
5.24819e-05
0.000710697
0.000128714
0.000897861
0.000198646
0.00112228
0.00023954
0.00142634
0.000197982
0.00191275
0.000102035
0.00268793
0.000194124
0.00406302
0.000210599
0.00466098
0.00300328
0.00216743
0.000797237
0.00293845
0.00439862
0.00359051
0.00417876
0.00416224
0.00324187
0.00449123
0.00245381
0.00466664
0.0016254
0.00478425
0.000747844
0.00488921
-0.000129513
0.00499522
-0.000993832
0.0050728
-0.00181407
0.00505677
-0.00252686
0.00488704
-0.00306492
0.00454109
-0.00338546
0.00403785
-0.00348248
0.00342236
-0.0033787
0.00274541
-0.00310778
0.0020553
-0.00271613
0.00138962
-0.00224773
0.000786706
-0.00176528
0.000271567
-0.00131009
-0.00011781
-0.000953415
-0.000375301
-0.000697771
-0.000526252
-0.000522144
-0.000606045
-0.000384862
-0.000642059
-0.000267558
-0.000646726
-0.000156511
-0.000627175
-4.5027e-05
-0.000588268
7.05412e-05
-0.000533323
0.000192582
-0.000464971
0.000323426
-0.000385544
0.000465116
-0.000296152
0.000621305
-0.000196857
0.000798567
-8.80436e-05
0.00101346
1.22087e-05
0.00132606
7.02848e-05
0.00185453
0.000215914
0.002542
0.000840865
0.00343798
0.00127007
0.00423177
0.00440241
-0.00157985
0.00262218
0.00111531
0.00170346
0.00334784
0.00194623
0.00435153
0.00223818
0.00485691
0.00194843
0.0051729
0.00130941
0.0054017
0.000519037
0.00557915
-0.00030697
0.00567729
-0.00109199
0.00563478
-0.00177157
0.00540107
-0.00229316
0.00496452
-0.00262836
0.00435314
-0.00277407
0.00362012
-0.00274945
0.00282574
-0.00258431
0.00202001
-0.00230204
0.00125051
-0.00194663
0.000547296
-0.00154452
-4.37665e-05
-0.00117421
-0.000480251
-0.000873602
-0.00075785
-0.000675817
-0.000921268
-0.000534359
-0.00101581
-0.000427604
-0.00106471
-0.000335968
-0.00108206
-0.000250215
-0.00107427
-0.000164299
-0.00104523
-7.40719e-05
-0.000998551
2.38675e-05
-0.000937113
0.000131146
-0.000863546
0.00024986
-0.000781681
0.000383251
-0.000695371
0.000534998
-0.000609571
0.000712772
-0.000535081
0.00093898
-0.000494147
0.00128508
-0.000473404
0.00183355
-0.000301323
0.00236938
0.000519348
0.00261672
0.00105121
0.00369936
0.00559319
0.00288388
0.00457215
0.00487127
0.00164711
0.00535821
0.00175124
0.00559586
0.00171078
0.00582802
0.00107724
0.00601469
0.000332351
0.0060791
-0.000371415
0.00595091
-0.000963845
0.00559732
-0.00141802
0.00503125
-0.0017271
0.00429996
-0.00189707
0.00346225
-0.00193635
0.00257744
-0.00186463
0.00170058
-0.00170743
0.000864696
-0.00146615
0.000110362
-0.00119229
-0.000505968
-0.000928185
-0.000944493
-0.000735686
-0.00122103
-0.000597064
-0.00139368
-0.000503183
-0.00149832
-0.000429734
-0.00156044
-0.000365501
-0.00159164
-0.000304782
-0.00159722
-0.000244638
-0.0015795
-0.000182014
-0.00154056
-0.000113009
-0.00148408
-3.25942e-05
-0.00141456
6.16273e-05
-0.00133651
0.000171811
-0.00125701
0.000303752
-0.00118711
0.0004651
-0.00114411
0.000669794
-0.00115283
0.000947779
-0.00122902
0.00136139
-0.00136022
0.00196476
-0.00158646
0.00259532
-0.00190327
0.00293294
-0.00174108
0.00353646
0.00400804
0.00793662
0.00535925
0.00581848
0.00386941
0.00557016
0.00195911
0.00564038
0.00100701
0.00560247
0.000370189
0.0053563
-0.000125308
0.00489061
-0.000498215
0.00424615
-0.000773584
0.00347722
-0.00095817
0.00263749
-0.00105733
0.00176949
-0.00106832
0.000911652
-0.00100677
9.90721e-05
-0.000894836
-0.000611625
-0.000755439
-0.00116622
-0.000637681
-0.00155538
-0.00053901
-0.00181794
-0.000473136
-0.0019887
-0.000426324
-0.00210417
-0.000387745
-0.00218355
-0.000350399
-0.00223586
-0.000313226
-0.00226441
-0.000276253
-0.00227015
-0.000238905
-0.0022528
-0.000199341
-0.00221157
-0.000154203
-0.00214605
-9.80778e-05
-0.0020615
-2.28953e-05
-0.00196592
7.6229e-05
-0.00186648
0.0002043
-0.00177535
0.000373941
-0.00171018
0.000604635
-0.00168909
0.000926789
-0.00171664
0.00138922
-0.00179413
0.00204266
-0.00212237
0.00292394
-0.00312354
0.00393437
-0.00341253
0.00382559
0.000767878
0.00412067
0.00148513
0.00452083
0.00346926
0.0037451
0.00273482
0.00323734
0.0015147
0.00288807
0.000719374
0.00251914
0.000243565
0.00206998
-4.90812e-05
0.00152811
-0.000231714
0.000913785
-0.000343824
0.000245763
-0.000389284
-0.00043567
-0.000386872
-0.00107146
-0.000370959
-0.00161279
-0.000353469
-0.00203176
-0.000336448
-0.00233926
-0.000330164
-0.00255331
-0.000324962
-0.00270868
-0.000317798
-0.00282953
-0.000305536
-0.00292819
-0.000289159
-0.00300796
-0.000270707
-0.00306903
-0.000252221
-0.00311058
-0.000234726
-0.00313112
-0.000218338
-0.00312799
-0.000202416
-0.00309695
-0.000185149
-0.00303258
-0.00016235
-0.00292961
-0.000125792
-0.00279164
-6.17261e-05
-0.00263327
4.58882e-05
-0.00246743
0.000207995
-0.00230115
0.000438247
-0.00213002
0.000755623
-0.00192399
0.00118332
-0.00163045
0.0017495
-0.00118574
0.00247974
-0.000588264
0.00333736
-3.80855e-05
0.00327579
0.000909072
-0.00258951
-0.0067463
-0.00740334
-0.0074537
-0.00374694
-0.00217129
-0.00166704
0.00138931
-0.000754009
0.00182173
-0.000557074
0.00131771
-0.000638772
0.000801026
-0.000826509
0.000431275
-0.00106799
0.00019239
-0.00135555
5.58407e-05
-0.00169271
-6.64583e-06
-0.00205553
-2.64252e-05
-0.00241163
-3.07308e-05
-0.00273613
-4.6409e-05
-0.00299978
-8.977e-05
-0.0031915
-0.000144696
-0.00333246
-0.000189213
-0.0034487
-0.000208766
-0.0035587
-0.000207883
-0.00366753
-0.000196821
-0.00377294
-0.000183873
-0.00387015
-0.000173593
-0.00395462
-0.000167817
-0.0040225
-0.000166842
-0.00407009
-0.00017069
-0.00409252
-0.000179853
-0.00408289
-0.000194614
-0.00403246
-0.000212591
-0.0039325
-0.000225587
-0.0037761
-0.000218024
-0.0035632
-0.000167015
-0.00330922
-4.61448e-05
-0.00302894
0.000157739
-0.00270675
0.000433172
-0.00228133
0.000757728
-0.00164768
0.00111584
-0.000662544
0.00149482
0.000639321
0.00203577
0.00133126
0.0025842
0.00242082
-0.00733651
0.00104362
-0.00810952
-0.00668073
-0.00716681
-0.00311407
-0.00564871
-0.000128854
-0.00455596
0.000728911
-0.0039639
0.000725588
-0.00370424
0.00054133
-0.00363716
0.000364172
-0.00367889
0.000234134
-0.00377299
0.000149964
-0.00387679
9.72012e-05
-0.00396204
5.88859e-05
-0.00401913
2.6423e-05
-0.00405773
-7.73135e-06
-0.00409657
-5.089e-05
-0.00414841
-9.2855e-05
-0.00421774
-0.000119944
-0.00429928
-0.00012732
-0.00438582
-0.000121488
-0.00447138
-0.0001114
-0.00455197
-0.000103421
-0.00462496
-0.000100703
-0.00468858
-0.00010423
-0.00474142
-0.000113958
-0.00478196
-0.000130032
-0.00480808
-0.000153531
-0.00481677
-0.000185672
-0.00480399
-0.000225076
-0.00476484
-0.000264437
-0.00469318
-0.000289463
-0.00457824
-0.000281844
-0.0043998
-0.000224669
-0.00413625
-0.000106136
-0.00377886
7.53379e-05
-0.00329806
0.000276464
-0.00260882
0.00042623
-0.00150591
0.000391701
0.000324626
0.000205196
0.00144655
0.00146238
0.00405199
0.00158524
-0.00503096
-0.00808196
-0.00815143
-0.00736813
-0.00659584
-0.00601438
-0.00561476
-0.00534818
-0.00516747
-0.00504022
-0.00495122
-0.00489412
-0.00487053
-0.00488971
-0.00495074
-0.00503889
-0.00513445
-0.0052242
-0.00530382
-0.00537545
-0.00544438
-0.00551699
-0.00559961
-0.00569882
-0.00582226
-0.00597884
-0.00617607
-0.0064141
-0.00667869
-0.00693713
-0.00713966
-0.00722468
-0.007129
-0.00683278
-0.00638734
-0.00597706
-0.00575405
-0.00427465
)
;

boundaryField
{
    floor
    {
        type            calculated;
        value           nonuniform List<scalar> 
36
(
0
0
0
0
0
0
0
0
0
0
0
0
0
0
0
0
0
0
0
-6.4391e-06
-1.68829e-05
-2.60261e-05
-3.42931e-05
-3.48957e-05
-2.85458e-05
-2.85091e-05
-2.92056e-06
-5.4423e-06
-5.68866e-06
-5.90868e-06
-4.8547e-06
-8.9398e-06
-1.02088e-05
-1.28324e-05
-1.44557e-05
-1.54452e-05
)
;
    }
    ceiling
    {
        type            calculated;
        value           nonuniform List<scalar> 
43
(
-5.77955e-05
-6.45962e-05
-6.31588e-05
-5.94737e-05
-5.44711e-05
-4.67708e-05
-4.01701e-05
-3.54538e-05
-3.2414e-05
-3.06858e-05
-2.99626e-05
-3.00185e-05
-3.05849e-05
-3.12656e-05
-3.1695e-05
-3.1856e-05
-3.18717e-05
-3.18628e-05
-3.18741e-05
-3.18959e-05
-3.1892e-05
-3.1816e-05
-3.16184e-05
-3.12524e-05
-3.06785e-05
-2.98698e-05
-2.88192e-05
-2.75512e-05
-2.61359e-05
-2.46919e-05
-2.33584e-05
-2.22427e-05
-2.13797e-05
-2.07254e-05
-2.01667e-05
-1.95572e-05
-1.88062e-05
-1.79181e-05
-1.70023e-05
-1.67226e-05
1.93344e-05
1.51842e-05
-0.000246546
)
;
    }
    sWall
    {
        type            calculated;
        value           nonuniform List<scalar> 9(-0.000140238 -0.000164531 -0.000194269 -0.000225976 -0.000245095 -0.000281035 -0.000423402 -0.000453443 -0.000483833);
    }
    nWall
    {
        type            calculated;
        value           nonuniform List<scalar> 
14
(
-8.98465e-05
-9.71463e-05
-0.000102344
-0.000103169
-0.000114658
-0.0001229
-0.000129221
-0.000140161
-0.000156461
-0.000172395
-0.000178662
-0.000180243
-0.000184544
-0.00020587
)
;
    }
    sideWalls
    {
        type            empty;
        value           nonuniform 0();
    }
    glass1
    {
        type            calculated;
        value           nonuniform List<scalar> 9(-6.4034e-05 -0.00017032 -0.000257922 -0.000331204 -0.000393186 -0.00044639 -0.000492198 -0.000535478 -0.000587164);
    }
    glass2
    {
        type            calculated;
        value           nonuniform List<scalar> 2(-0.000365317 -0.00038233);
    }
    sun
    {
        type            calculated;
        value           uniform 0;
    }
    Table_master
    {
        type            calculated;
        value           nonuniform List<scalar> 9(-1.53991e-07 -1.54108e-07 -1.5414e-07 -1.5416e-07 -1.54173e-07 -1.54178e-07 -1.54177e-07 -1.54162e-07 -1.54109e-07);
    }
    Table_slave
    {
        type            calculated;
        value           nonuniform List<scalar> 9(1.53661e-07 1.53717e-07 1.53716e-07 1.53733e-07 1.53753e-07 1.53797e-07 1.53864e-07 1.53957e-07 1.54084e-07);
    }
    inlet
    {
        type            calculated;
        value           uniform -0.0116488;
    }
    outlet
    {
        type            calculated;
        value           nonuniform List<scalar> 2(0.00975919 0.0122675);
    }
}


// ************************************************************************* //
