/*--------------------------------*- C++ -*----------------------------------*\
  =========                 |
  \\      /  F ield         | OpenFOAM: The Open Source CFD Toolbox
   \\    /   O peration     | Website:  https://openfoam.org
    \\  /    A nd           | Version:  6
     \\/     M anipulation  |
\*---------------------------------------------------------------------------*/
FoamFile
{
    version     2.0;
    format      ascii;
    class       volScalarField;
    location    "12500";
    object      nut;
}
// * * * * * * * * * * * * * * * * * * * * * * * * * * * * * * * * * * * * * //

dimensions      [0 2 -1 0 0 0 0];

internalField   nonuniform List<scalar> 
778
(
0.000894299
0.00095306
0.000949604
0.000990834
0.00102862
0.00106294
0.00109489
0.00112569
0.00115669
0.00118963
0.00122103
0.00125083
0.00128018
0.00131175
0.00134468
0.000632333
0.000905125
0.0009124
0.000890277
0.000853325
0.000804014
0.00075489
0.000709619
0.000668783
0.000632155
0.000599516
0.000570201
0.000543499
0.00051858
0.00049433
0.000468975
0.000447937
0.00040549
0.00131076
0.00258109
0.00226501
0.0026143
0.00286782
0.00313663
0.0034048
0.00365195
0.00385086
0.0039666
0.00403456
0.00400633
0.00380622
0.003311
0.00241802
0.00147212
0.00140355
0.00134349
0.00113103
0.0019264
0.00266963
0.00310834
0.00312862
0.00246963
0.00211204
0.00186424
0.00167628
0.00152684
0.00139932
0.00128655
0.00118159
0.00107891
0.000986763
0.000907297
0.00102226
0.000514034
0.001664
0.00360431
0.00267234
0.00382221
0.00427093
0.00465078
0.00499583
0.00529953
0.00555679
0.00575836
0.00595354
0.00615864
0.00634672
0.00645802
0.00638232
0.00584284
0.00427313
0.00164788
0.00142699
0.00305317
0.00426015
0.00483032
0.00439201
0.00115891
0.00100765
0.00089101
0.000799785
0.000727207
0.000668631
0.000620848
0.000581974
0.000551659
0.000606603
0.00071364
0.00113065
0.000584746
0.00200521
0.00485825
0.0025574
0.0042982
0.00496252
0.00531822
0.00557989
0.00577357
0.00591816
0.00603528
0.00620161
0.00648226
0.00689143
0.00740565
0.00792239
0.00817639
0.00767712
0.00572831
0.0016414
0.00380161
0.00565682
0.00659854
0.00682988
0.00582963
0.00131998
0.0012005
0.00110803
0.00103116
0.00096567
0.000906871
0.00085144
0.000796381
0.000736898
0.000688569
0.000714017
0.00122484
0.000643687
0.00234193
0.00643289
0.00258029
0.0040866
0.00510797
0.00541137
0.0055218
0.00552649
0.00547203
0.00542376
0.0054935
0.00576622
0.00626622
0.00697402
0.00779505
0.00855167
0.00903189
0.00902634
0.00810136
0.00824416
0.00843416
0.00846083
0.00828829
0.00775694
0.00617232
0.00533114
0.00475508
0.00428674
0.00382779
0.00338341
0.00294871
0.00251461
0.00206869
0.00158886
0.00121221
0.00121218
0.000958732
0.000767929
0.00102277
0.000974189
0.00267355
0.00819613
0.00303782
0.0034466
0.00489471
0.00523124
0.00520473
0.00501782
0.00475042
0.00452989
0.00452515
0.00481087
0.00538048
0.00620092
0.00716148
0.00812173
0.00893957
0.00946282
0.00955879
0.00946377
0.0092966
0.00905868
0.00875234
0.0083623
0.00779332
0.00724536
0.00674799
0.00626683
0.00574766
0.00519355
0.00460187
0.00396759
0.00328673
0.0025643
0.00190978
0.0014339
0.0011132
0.00125881
0.00219994
0.00116257
0.0030121
0.00982771
0.00404853
0.00282376
0.00439864
0.00494869
0.00488782
0.0045849
0.0041454
0.0037589
0.0037481
0.00410895
0.00476083
0.0056776
0.00672108
0.00775472
0.0086452
0.00928386
0.00957843
0.00955681
0.00934772
0.00903021
0.0086662
0.00830281
0.00795124
0.00762867
0.00732564
0.00700183
0.00661088
0.00614056
0.00558392
0.00493839
0.0042066
0.00340708
0.00262472
0.00189481
0.00139471
0.00125452
0.00224038
0.00137515
0.00330346
0.0110647
0.00552106
0.00268856
0.00348517
0.00438797
0.00451352
0.00426421
0.00374549
0.00321893
0.00333877
0.0038161
0.00454506
0.00548965
0.00657314
0.00765488
0.00857838
0.00922085
0.00951348
0.00947658
0.00920649
0.00880735
0.00837767
0.00799639
0.00770237
0.0074923
0.00732842
0.00714992
0.00690148
0.00655386
0.00609346
0.00551772
0.00483245
0.00405792
0.00325136
0.00243187
0.0016936
0.00113995
0.0033166
0.00182235
0.00339325
0.0104832
0.00683708
0.00347656
0.0023622
0.00289663
0.00338983
0.00343085
0.0030297
0.00294485
0.00325102
0.00381216
0.00460033
0.00560219
0.00673786
0.00785278
0.00877258
0.00936485
0.00957336
0.00943113
0.00903907
0.00852449
0.00801379
0.00760621
0.00734742
0.00722044
0.00716296
0.00709447
0.00695168
0.00670059
0.00632778
0.00583207
0.00522023
0.00450855
0.00372579
0.00284255
0.00163367
0.00144456
0.00527149
0.00205032
0.00332457
0.00845783
0.00706632
0.0047753
0.00315179
0.00244014
0.00231208
0.00242168
0.00262515
0.00294943
0.00340919
0.00404062
0.00489806
0.00597889
0.007177
0.00830774
0.00917883
0.00965808
0.00970749
0.00938476
0.00881747
0.00816493
0.00758257
0.00718341
0.0070004
0.00697924
0.00701935
0.00701887
0.00692673
0.00672366
0.00640337
0.00596589
0.00541522
0.0047553
0.00396522
0.00285459
0.00127253
0.00254043
0.00505906
0.00209607
0.00311433
0.00723146
0.00683537
0.00546784
0.00420567
0.00338456
0.00297891
0.00288754
0.00305609
0.00336601
0.00381542
0.00448187
0.00542942
0.0066157
0.00787589
0.00898277
0.00973211
0.0100085
0.00980901
0.00923308
0.00845325
0.00767329
0.00708055
0.00678255
0.00674816
0.00684688
0.00694686
0.00694853
0.00685149
0.00665499
0.00635538
0.00594923
0.00543038
0.00477169
0.00386353
0.00251349
0.00137722
0.00276204
0.00564419
0.00212618
0.00283609
0.00652183
0.00659605
0.00579073
0.00492387
0.0042719
0.00388823
0.00375074
0.00378568
0.00397267
0.00438473
0.00512936
0.00622625
0.00754219
0.00883056
0.00982588
0.0103343
0.0102849
0.00973508
0.00884667
0.00785972
0.00703521
0.00656659
0.00647219
0.00655611
0.00668935
0.00677601
0.00675157
0.00663833
0.00643852
0.00614665
0.0057517
0.00521767
0.00444864
0.00323206
0.0018681
0.00162751
0.0032466
0.00566701
0.00222202
0.00258662
0.00583604
0.00630081
0.00591862
0.00536144
0.00489387
0.00458305
0.0044313
0.00438586
0.00454412
0.00506645
0.00604044
0.00737019
0.00879739
0.0100032
0.0107216
0.0108151
0.0102945
0.00930997
0.00810799
0.00702344
0.00632359
0.00601266
0.00597726
0.00607593
0.00620489
0.00628377
0.00625786
0.00614113
0.00593577
0.00563426
0.00520909
0.00456346
0.00347326
0.0020754
0.00153578
0.00208168
0.00361996
0.00561598
0.00212091
0.00259471
0.00579335
0.00643846
0.00599144
0.00554018
0.00517085
0.00490456
0.00473175
0.00472233
0.00510632
0.00602881
0.0074115
0.00897472
0.0103563
0.0112344
0.0114194
0.0108928
0.00978208
0.00837311
0.00700821
0.00601372
0.00542238
0.00514837
0.00509748
0.00517666
0.00529388
0.00536716
0.00533816
0.0052051
0.00497493
0.00464305
0.00417293
0.00344601
0.00238735
0.00159815
0.0017164
0.00253721
0.00371427
0.00463383
0.00201113
0.00234193
0.00243601
0.00359172
0.0042183
0.00441139
0.00441363
0.00437015
0.00444861
0.00498308
0.00612924
0.0077483
0.00950215
0.0110075
0.0119407
0.0121084
0.0114725
0.0101919
0.0085193
0.00692239
0.00566586
0.00481804
0.00433496
0.00412371
0.0040771
0.00411165
0.00415866
0.0041564
0.00406317
0.00386821
0.00359746
0.00327199
0.00289809
0.00244938
0.00193908
0.0016464
0.00192954
0.00276511
0.00381302
0.00461247
0.00195623
0.000806419
0.00146305
0.00225909
0.00290142
0.00364401
0.0048958
0.00673991
0.00879355
0.0106728
0.0120875
0.0128353
0.0127787
0.011915
0.0103368
0.00845478
0.00666932
0.00524781
0.00429563
0.00377567
0.00352846
0.00341651
0.00336261
0.00332156
0.00325753
0.00314335
0.00297414
0.00276587
0.0025569
0.00237647
0.00223436
0.00212081
0.00202819
0.00201403
0.0022689
0.00299268
0.00414115
0.00511984
0.00209789
0.0014973
0.00207733
0.00303415
0.004742
0.00705838
0.00938478
0.0111922
0.0125076
0.013318
0.0135641
0.0131389
0.0119303
0.0101207
0.00805758
0.00615256
0.00471845
0.00387215
0.0034635
0.00328099
0.00319823
0.00315669
0.00312476
0.00307972
0.00300591
0.00290125
0.00278145
0.00267186
0.00259396
0.00255464
0.00254905
0.00257023
0.0026234
0.0027426
0.0030127
0.00361698
0.00502475
0.00552659
0.00217581
0.00275658
0.00667582
0.00613701
0.00548421
0.00697567
0.00931023
0.0112858
0.0126275
0.0133463
0.0135398
0.0132941
0.0125649
0.011298
0.0095297
0.00749214
0.00562469
0.00434661
0.00368379
0.00339459
0.00328202
0.00325271
0.00326309
0.00328566
0.00329929
0.00329054
0.00325758
0.00321081
0.00316654
0.0031377
0.00313015
0.0031461
0.00318626
0.0032568
0.00337629
0.00358293
0.00394542
0.00461168
0.0062343
0.00631588
0.00224354
0.00263852
0.00509885
0.00657705
0.00840329
0.00933781
0.0103072
0.0108769
0.0110219
0.0108213
0.0103327
0.009577
0.00855498
0.00730126
0.00595294
0.00474544
0.00387024
0.00335983
0.00310074
0.00299278
0.00298026
0.00303002
0.00311494
0.00320929
0.00329121
0.00334786
0.00337893
0.00339453
0.00340775
0.0034272
0.003455
0.0034923
0.00354501
0.00362916
0.00377174
0.00400594
0.00436517
0.00490209
0.00599791
0.00663477
0.00228967
0.00247425
0.0021203
0.00211018
0.00217228
0.00222408
0.00215992
0.00203377
0.00188668
0.00173953
0.00159923
0.00146627
0.00134124
0.00122945
0.00114136
0.00108711
0.00106331
0.00105833
0.00106514
0.0010789
0.00109633
0.00111516
0.00113392
0.00115182
0.00116877
0.00118524
0.00120214
0.00122066
0.00124208
0.00126776
0.00129955
0.00134028
0.00139398
0.00146541
0.0015582
0.00167284
0.00180653
0.00195524
0.00211485
0.00227396
0.00212448
)
;

boundaryField
{
    floor
    {
        type            nutkWallFunction;
        Cmu             0.09;
        kappa           0.41;
        E               9.8;
        value           nonuniform List<scalar> 
36
(
0.000160555
7.6378e-05
0.000109492
0.000110358
0.000107724
0.000103308
9.7379e-05
9.14301e-05
8.59069e-05
8.08886e-05
7.63561e-05
7.22904e-05
6.86157e-05
6.52485e-05
6.20876e-05
5.89935e-05
5.57381e-05
5.30201e-05
4.7486e-05
4.7486e-05
6.15085e-05
7.04411e-05
7.77855e-05
9.30121e-05
0.000123385
0.000117668
0.000160555
0.000174979
0.000167235
0.000160419
7.63779e-05
0.000160419
0.000136019
0.000194647
0.000169885
0.000193926
)
;
    }
    ceiling
    {
        type            nutkWallFunction;
        Cmu             0.09;
        kappa           0.41;
        E               9.8;
        value           nonuniform List<scalar> 
43
(
0.000284379
0.000246392
0.0002453
0.000252017
0.000257609
0.000250704
0.000237046
0.000220997
0.000204804
0.000189227
0.000174329
0.000160185
0.000147414
0.000137253
0.000130939
0.000128155
0.000127565
0.000128354
0.000129959
0.000131994
0.000134191
0.000136377
0.000138462
0.000140432
0.00014234
0.000144293
0.000146426
0.000148881
0.000151815
0.000155429
0.000160032
0.000166069
0.000174061
0.000184404
0.000197133
0.000211905
0.000228237
0.000245633
0.000262841
0.000246694
0.000270448
0.000280502
0.000177603
)
;
    }
    sWall
    {
        type            nutkWallFunction;
        Cmu             0.09;
        kappa           0.41;
        E               9.8;
        value           nonuniform List<scalar> 9(0.000373881 0.000352071 0.000322973 0.000296633 0.000297487 0.000270538 0.000314296 0.000301866 0.00028448);
    }
    nWall
    {
        type            nutkWallFunction;
        Cmu             0.09;
        kappa           0.41;
        E               9.8;
        value           nonuniform List<scalar> 
14
(
0.000117676
0.000139679
0.000164025
0.000243863
0.00024712
0.000257276
0.000246186
0.000234391
0.000228633
0.000244249
0.000252477
0.000259718
0.000264553
0.000246731
)
;
    }
    sideWalls
    {
        type            empty;
    }
    glass1
    {
        type            nutkWallFunction;
        Cmu             0.09;
        kappa           0.41;
        E               9.8;
        value           nonuniform List<scalar> 9(0.000108247 0.00015688 0.000196733 0.000234344 0.000270785 0.000306134 0.00034175 0.000372071 0.000381368);
    }
    glass2
    {
        type            nutkWallFunction;
        Cmu             0.09;
        kappa           0.41;
        E               9.8;
        value           nonuniform List<scalar> 2(0.000214071 0.000238977);
    }
    sun
    {
        type            nutkWallFunction;
        Cmu             0.09;
        kappa           0.41;
        E               9.8;
        value           nonuniform List<scalar> 
14
(
0.000108205
0.00011518
0.000114771
0.000119638
0.000124079
0.000128095
0.000131821
0.000135401
0.000138993
0.000142798
0.000146414
0.000149837
0.000153199
0.000156804
)
;
    }
    Table_master
    {
        type            nutkWallFunction;
        Cmu             0.09;
        kappa           0.41;
        E               9.8;
        value           nonuniform List<scalar> 9(0.00013924 0.00012161 0.000107808 9.68679e-05 8.80591e-05 8.08736e-05 7.49562e-05 7.01014e-05 6.62883e-05);
    }
    Table_slave
    {
        type            nutkWallFunction;
        Cmu             0.09;
        kappa           0.41;
        E               9.8;
        value           nonuniform List<scalar> 9(0.00015773 0.000144041 0.000133341 0.000124369 0.000116665 0.000109697 0.00010308 9.64569e-05 8.9241e-05);
    }
    inlet
    {
        type            calculated;
        value           uniform 0.000167705;
    }
    outlet
    {
        type            calculated;
        value           nonuniform List<scalar> 2(0.00275658 0.00667582);
    }
}


// ************************************************************************* //
