/*--------------------------------*- C++ -*----------------------------------*\
  =========                 |
  \\      /  F ield         | OpenFOAM: The Open Source CFD Toolbox
   \\    /   O peration     | Website:  https://openfoam.org
    \\  /    A nd           | Version:  6
     \\/     M anipulation  |
\*---------------------------------------------------------------------------*/
FoamFile
{
    version     2.0;
    format      ascii;
    class       volScalarField;
    location    "5500";
    object      nut;
}
// * * * * * * * * * * * * * * * * * * * * * * * * * * * * * * * * * * * * * //

dimensions      [0 2 -1 0 0 0 0];

internalField   nonuniform List<scalar> 
662
(
0.00099827
0.00107878
0.00109797
0.00114973
0.00119793
0.00124357
0.00128875
0.00133611
0.00138408
0.00142878
0.00146441
0.00147854
0.00145169
0.00135928
0.001107
0.000495268
0.000581416
0.000658951
0.000684256
0.00067116
0.00062653
0.000577892
0.000534572
0.000497167
0.000464761
0.000436532
0.00041185
0.000390027
0.000370208
0.000351468
0.000332742
0.000322051
0.000296365
0.00136193
0.00286316
0.00255897
0.00292784
0.00327777
0.00364126
0.00399351
0.00429094
0.00458045
0.00493109
0.00532916
0.0057196
0.00599764
0.00600841
0.005223
0.00133624
0.00110035
0.000894991
0.000492752
0.00116365
0.00169499
0.00210548
0.00223309
0.00162744
0.00137114
0.00119688
0.00106843
0.000970259
0.000892526
0.000826543
0.000764533
0.000702468
0.000646607
0.000598876
0.000731669
0.000391756
0.00169042
0.0039823
0.00294231
0.00374166
0.00407385
0.00428248
0.0043984
0.00446682
0.00457924
0.00482113
0.00522449
0.00578758
0.00638909
0.0067915
0.00664361
0.00550115
0.00428738
0.00107399
0.000773698
0.00131866
0.00190702
0.00249277
0.00265931
0.000848563
0.000740805
0.000651581
0.000579506
0.000521443
0.000474462
0.000436291
0.000405447
0.000381425
0.0004212
0.000487036
0.000857496
0.000464026
0.00202729
0.0054736
0.00294146
0.00386618
0.00423203
0.00424456
0.00408624
0.00391097
0.00386097
0.00399803
0.0043854
0.00507717
0.00589163
0.00649489
0.00670663
0.00651651
0.00571045
0.00315498
0.00124805
0.00157522
0.00215753
0.00287333
0.0034957
0.00352106
0.000957081
0.000872473
0.000813946
0.000770318
0.000733578
0.000698247
0.000664797
0.000629784
0.000589366
0.000554335
0.000549514
0.0010291
0.000533397
0.00236423
0.0071551
0.00378981
0.00353428
0.00410093
0.00417851
0.00393773
0.00358221
0.0034156
0.00347781
0.00384784
0.00462988
0.00551081
0.00607816
0.00633771
0.00637026
0.00609928
0.00508268
0.00461954
0.00463197
0.00487814
0.00516803
0.00533415
0.00521565
0.00440145
0.00397715
0.00373634
0.00356176
0.0033893
0.0031682
0.0028248
0.00239338
0.00190943
0.00144769
0.00108514
0.00101994
0.000903816
0.000716844
0.000754611
0.000818549
0.00274392
0.00865915
0.00565091
0.00372371
0.00356356
0.00372798
0.00378161
0.00351696
0.00333078
0.00334462
0.00370205
0.00448639
0.00541073
0.00590765
0.00607173
0.00607745
0.00608699
0.00605186
0.00625593
0.00654318
0.00672013
0.00671722
0.00653634
0.0061988
0.00573016
0.00533972
0.00502835
0.00475375
0.00448939
0.00421755
0.00388459
0.00345188
0.00292143
0.00233236
0.00179509
0.00129008
0.00107903
0.00095819
0.00120536
0.000849263
0.00128964
0.00405872
0.00527733
0.0045868
0.00386907
0.00357396
0.003546
0.0035271
0.00338597
0.00330204
0.00356348
0.00435057
0.00563897
0.00599584
0.0060613
0.00607834
0.00637143
0.00689226
0.00737142
0.00760744
0.00756111
0.00727686
0.00682865
0.00628881
0.00573858
0.00527566
0.0049089
0.0046054
0.00434203
0.00411171
0.00391151
0.00368192
0.00332168
0.00284381
0.00235729
0.00188419
0.00157998
0.00144639
0.00135559
0.0010003
0.00101718
0.00205481
0.00295091
0.00356549
0.00383639
0.00379705
0.00365028
0.00348255
0.00328007
0.00328587
0.00384477
0.00486356
0.00603501
0.00622542
0.00623832
0.00645384
0.00705583
0.00751911
0.00773887
0.00768325
0.00735324
0.00681149
0.00614924
0.00546993
0.00488197
0.00444411
0.00413081
0.00389836
0.00372495
0.00360667
0.00354748
0.00353962
0.00347944
0.00320635
0.00294712
0.00280482
0.00285409
0.00294039
0.0035797
0.00152307
0.000262992
0.00127992
0.00206561
0.00256473
0.00279158
0.00285231
0.00299257
0.00360125
0.00470317
0.00573623
0.00637812
0.00639383
0.00658578
0.00686949
0.00713069
0.0072035
0.0070851
0.00674174
0.00617993
0.0054843
0.00477659
0.00417252
0.00372884
0.00342573
0.00321162
0.00304833
0.00291593
0.00280314
0.00270132
0.00260268
0.00251754
0.00244754
0.00240241
0.00237911
0.00233012
0.0022226
0.00207526
0.00142761
0.000624004
0.000644298
0.0011892
0.00180211
0.00234131
0.00294838
0.00389645
0.00508085
0.00596845
0.00627426
0.00625649
0.00632765
0.00638499
0.00634089
0.00617247
0.00593157
0.00558317
0.00510445
0.00453556
0.0039572
0.00346908
0.00311058
0.00286522
0.00269612
0.00257327
0.00248017
0.00240984
0.00236076
0.0023352
0.00233789
0.00235728
0.00238459
0.00241359
0.00242738
0.00240264
0.00233111
0.00208263
0.00117967
0.00106988
0.00286124
0.00147991
0.00129817
0.00197069
0.00286215
0.00384047
0.00489283
0.00572387
0.00604025
0.00585217
0.00530417
0.00478904
0.0048333
0.00470873
0.00451809
0.00431482
0.00407357
0.0037743
0.00343326
0.00309249
0.00279023
0.0025512
0.00237811
0.00225914
0.00218264
0.00214098
0.00212896
0.00214124
0.00217036
0.00222023
0.00229045
0.00237541
0.0024677
0.00255471
0.0026203
0.00267138
0.00277103
0.00187677
0.001222
0.000822853
0.00198589
0.00270935
0.00328075
0.00374234
0.00412807
0.00437483
0.00441238
0.00418688
0.00369648
0.0028735
0.00173268
0.000855917
0.000832423
0.000809833
0.000788941
0.000768782
0.00074794
0.00072678
0.000707787
0.000693937
0.000687309
0.000687457
0.00069351
0.000704824
0.000720973
0.0007418
0.000767425
0.000798329
0.000835584
0.000879113
0.000928768
0.000984692
0.0010469
0.00111493
0.00118873
0.00123066
0.00111693
0.00104543
0.00118656
0.00215465
0.00552316
0.00518531
0.00420895
0.00368026
0.00354306
0.00356328
0.00346247
0.00332598
0.00337123
0.00390269
0.00485
0.0016013
0.00258358
0.00328657
0.00375163
0.00384201
0.00372684
0.00357375
0.00337636
0.00323259
0.00348548
0.00432852
0.00536
0.000830338
0.00170465
0.00235271
0.00270731
0.00283228
0.00288934
0.00321929
0.00411883
0.00526618
0.00606862
0.000495077
0.000889471
0.00150253
0.00207862
0.00261736
0.00336745
0.00449223
0.00559154
0.00618662
0.00630005
0.00303034
0.00241232
0.00113798
0.00160674
0.0023878
0.00333586
0.00436889
0.00536356
0.00594221
0.0060134
0.00558066
0.0051368
0.00209454
0.00233636
0.00306036
0.00351754
0.00394783
0.00427251
0.0044246
0.004333
0.00397607
0.00333378
0.00231903
0.0012495
0.00134575
0.00270678
0.0040275
0.00440181
0.00419101
0.00386244
0.00366097
0.00354388
0.00336964
0.00329125
0.00365495
0.00455046
0.0010745
0.00117912
0.00159045
0.00232927
0.00294249
0.00323722
0.00328539
0.00320752
0.00311309
0.0033461
0.00417969
0.00527493
0.000461194
0.000732337
0.00143889
0.00203262
0.00241123
0.00267381
0.00317197
0.00419696
0.00537065
0.00612538
0.00048887
0.000772418
0.00132327
0.00201778
0.00281572
0.00384559
0.00498622
0.00584425
0.00619463
0.00602935
0.00107993
0.00270569
0.00233922
0.00242091
0.00311799
0.00391034
0.00467122
0.00529668
0.00558396
0.00541878
0.00482304
0.00406099
0.000987319
0.000899255
0.00095351
0.00098998
0.000981886
0.000932596
0.000849918
0.000742088
0.000627702
0.000522148
0.0004327
0.000400701
0.0018634
0.00359313
0.00433084
0.00434196
0.00401842
0.00374104
0.00360819
0.00346067
0.00329881
0.00339878
0.00405614
0.0050591
0.00109507
0.00119706
0.00195599
0.00267251
0.00312828
0.00328404
0.00325538
0.00314672
0.00316132
0.00369349
0.00473555
0.00571426
0.000442208
0.00108332
0.00176182
0.00224669
0.00254346
0.00286089
0.00362754
0.00480709
0.00581856
0.00629681
0.000549243
0.0010234
0.00165817
0.00239853
0.00329398
0.00444157
0.00546403
0.0060961
0.00614655
0.00597324
0.00295309
0.00265881
0.00225641
0.00274889
0.00350811
0.00429766
0.00501295
0.0054942
0.00555667
0.00517288
0.00441607
0.00395192
0.000876319
0.000929981
0.000973824
0.00099212
0.000961662
0.000895127
0.000798202
0.000684354
0.000573623
0.000473833
0.000406321
0.000410163
)
;

boundaryField
{
    floor
    {
        type            nutkWallFunction;
        Cmu             0.09;
        kappa           0.41;
        E               9.8;
        value           nonuniform List<scalar> 
36
(
0.000133228
5.91132e-05
7.00237e-05
7.96743e-05
8.27934e-05
8.11808e-05
7.56564e-05
6.95812e-05
6.41176e-05
5.9356e-05
5.51947e-05
5.15401e-05
4.83201e-05
4.54527e-05
4.28308e-05
4.0335e-05
3.78237e-05
3.63818e-05
3.2891e-05
3.28909e-05
4.56802e-05
5.50994e-05
6.39682e-05
8.67904e-05
9.13956e-05
9.91313e-05
0.000133228
0.000159592
0.000132453
0.000108285
5.91132e-05
0.000108285
5.87911e-05
0.000129383
9.37126e-05
0.000149515
)
;
    }
    ceiling
    {
        type            nutkWallFunction;
        Cmu             0.09;
        kappa           0.41;
        E               9.8;
        value           nonuniform List<scalar> 
58
(
0.000106047
0.000112428
0.000117611
0.000119769
0.000116183
0.000108296
9.66768e-05
8.28079e-05
6.90477e-05
5.63655e-05
4.7598e-05
4.81013e-05
0.000103618
0.000100799
9.80804e-05
9.55578e-05
9.31161e-05
9.05838e-05
8.80044e-05
8.56814e-05
8.39829e-05
8.31686e-05
8.31869e-05
8.39306e-05
8.53186e-05
8.72952e-05
8.98367e-05
9.2952e-05
9.66929e-05
0.00010118
0.000106393
0.000112304
0.000118917
0.000126223
0.000134156
0.0001427
0.000147528
0.000134388
0.000126052
0.000142453
0.000131886
0.000143696
5.84058e-05
9.96436e-05
0.00010878
0.000115213
0.000119515
0.000118566
0.000112746
0.000102896
8.9873e-05
7.58048e-05
6.25432e-05
5.1044e-05
4.686e-05
0.000122782
0.000141628
7.53899e-05
)
;
    }
    sWall
    {
        type            nutkWallFunction;
        Cmu             0.09;
        kappa           0.41;
        E               9.8;
        value           nonuniform List<scalar> 4(0.000130057 0.000119211 0.000128885 9.96466e-05);
    }
    nWall
    {
        type            nutkWallFunction;
        Cmu             0.09;
        kappa           0.41;
        E               9.8;
        value           nonuniform List<scalar> 6(9.91322e-05 0.000102823 0.000120759 0.000141666 0.000146545 0.000142464);
    }
    sideWalls
    {
        type            empty;
    }
    glass1
    {
        type            nutkWallFunction;
        Cmu             0.09;
        kappa           0.41;
        E               9.8;
        value           nonuniform List<scalar> 10(0.000120595 0.000162721 0.000199673 0.000236752 0.000273179 0.000313572 0.000160843 0.000129557 0.00015444 0.000122827);
    }
    glass2
    {
        type            nutkWallFunction;
        Cmu             0.09;
        kappa           0.41;
        E               9.8;
        value           nonuniform List<scalar> 2(0.000180802 0.000170046);
    }
    sun
    {
        type            nutkWallFunction;
        Cmu             0.09;
        kappa           0.41;
        E               9.8;
        value           nonuniform List<scalar> 
14
(
0.000120515
0.000129943
0.000132177
0.000138186
0.000143753
0.000149001
0.000154176
0.000159578
0.000165027
0.000170087
0.000174107
0.000175698
0.000172672
0.000162211
)
;
    }
    Table_master
    {
        type            nutkWallFunction;
        Cmu             0.09;
        kappa           0.41;
        E               9.8;
        value           nonuniform List<scalar> 9(0.000102735 8.97157e-05 7.87655e-05 6.97883e-05 6.24575e-05 5.64523e-05 5.15186e-05 4.74924e-05 4.43297e-05);
    }
    Table_slave
    {
        type            nutkWallFunction;
        Cmu             0.09;
        kappa           0.41;
        E               9.8;
        value           nonuniform List<scalar> 9(0.000115652 0.000105597 9.8575e-05 9.33023e-05 8.88346e-05 8.45131e-05 8.03976e-05 7.60631e-05 7.10231e-05);
    }
    inlet
    {
        type            calculated;
        value           uniform 0.000167705;
    }
    outlet
    {
        type            calculated;
        value           nonuniform List<scalar> 4(0.00303034 0.00241232 0.00107993 0.00286124);
    }
}


// ************************************************************************* //
