/*--------------------------------*- C++ -*----------------------------------*\
  =========                 |
  \\      /  F ield         | OpenFOAM: The Open Source CFD Toolbox
   \\    /   O peration     | Website:  https://openfoam.org
    \\  /    A nd           | Version:  6
     \\/     M anipulation  |
\*---------------------------------------------------------------------------*/
FoamFile
{
    version     2.0;
    format      ascii;
    class       volScalarField;
    location    "28399.9999983877897";
    object      nut;
}
// * * * * * * * * * * * * * * * * * * * * * * * * * * * * * * * * * * * * * //

dimensions      [0 2 -1 0 0 0 0];

internalField   nonuniform List<scalar> 
778
(
0.000894331
0.000953071
0.000949566
0.000990748
0.00102849
0.00106276
0.00109468
0.00112545
0.00115643
0.00118937
0.0012208
0.00125067
0.00128009
0.00131174
0.00134475
0.000632256
0.000905604
0.000912967
0.00089091
0.000853953
0.000804517
0.000755246
0.000709884
0.000669019
0.000632395
0.00059976
0.000570443
0.000543732
0.000518796
0.000494526
0.000469147
0.000448057
0.000405569
0.00131082
0.00258119
0.0022651
0.00261446
0.0028679
0.00313654
0.00340448
0.00365139
0.00385016
0.00396595
0.00403405
0.00400613
0.00380648
0.00331162
0.00241862
0.00147243
0.00140383
0.00134376
0.00113106
0.00192684
0.00267119
0.00311108
0.00313185
0.00247112
0.00211346
0.00186551
0.00167722
0.00152741
0.00139971
0.00128688
0.0011819
0.0010792
0.000987045
0.000907589
0.00102196
0.000514203
0.00166409
0.00360452
0.00267221
0.00382244
0.00427116
0.00465077
0.00499546
0.00529879
0.00555579
0.00575739
0.00595271
0.00615834
0.00634742
0.00646012
0.00638585
0.00584721
0.00427643
0.00164825
0.0014267
0.00305153
0.00425927
0.00483159
0.00439512
0.00115984
0.00100862
0.000891892
0.000800514
0.000727776
0.000669062
0.000621181
0.000582249
0.000551902
0.000606668
0.00071356
0.00112922
0.000584993
0.00200535
0.00485866
0.00255721
0.00429816
0.00496271
0.00531822
0.00557955
0.00577282
0.00591704
0.00603397
0.00620016
0.00648108
0.0068911
0.00740672
0.00792498
0.00818029
0.00768153
0.00573112
0.00164129
0.00379928
0.00565179
0.00659422
0.00682814
0.00583075
0.00132027
0.001201
0.00110868
0.00103186
0.000966367
0.000907533
0.000852061
0.000796979
0.000737511
0.000688932
0.000713877
0.00122167
0.000644234
0.00234212
0.0064335
0.00258033
0.00408607
0.00510799
0.00541138
0.00552161
0.00552599
0.00547117
0.00542258
0.00549207
0.00576494
0.00626584
0.00697512
0.00779742
0.00855464
0.00903448
0.00902801
0.00810163
0.00824215
0.00843046
0.00845728
0.00828635
0.00775747
0.00617475
0.00533456
0.00475894
0.00429145
0.00383257
0.00338789
0.00295276
0.00251815
0.00207162
0.00159145
0.00121475
0.00121207
0.000959549
0.000767818
0.00100529
0.000968652
0.00267378
0.00819683
0.00303827
0.0034458
0.00489439
0.00523122
0.00520472
0.00501772
0.00475016
0.00452935
0.00452439
0.00481039
0.00538136
0.00620402
0.0071662
0.00812681
0.00894367
0.00946506
0.00955921
0.00946231
0.00929385
0.00905577
0.00875034
0.00836194
0.00779476
0.00724806
0.00675151
0.00627165
0.00575322
0.0051994
0.00460773
0.00397318
0.00329174
0.00256889
0.00191531
0.00143833
0.00111692
0.00124499
0.0021525
0.00116068
0.00301235
0.00982832
0.00404942
0.00282326
0.00439779
0.00494848
0.00488799
0.00458531
0.0041459
0.00375914
0.0037479
0.00410908
0.00476289
0.00568285
0.00672867
0.00776308
0.00865249
0.00928891
0.00958105
0.00955731
0.00934672
0.00902855
0.00866469
0.00830201
0.00795131
0.0076294
0.00732692
0.00700423
0.00661435
0.00614494
0.00558906
0.00494399
0.00421218
0.00341264
0.00263244
0.00190651
0.00140504
0.00124938
0.00218395
0.00136424
0.0033037
0.0110651
0.00552213
0.002689
0.00348352
0.00438655
0.00451324
0.00426476
0.00374492
0.00321931
0.00333852
0.00381634
0.00454771
0.00549591
0.00658246
0.00766542
0.00858817
0.00922862
0.00951891
0.00947989
0.00920808
0.00880771
0.00837732
0.00799581
0.00770182
0.00749175
0.00732791
0.00715
0.0069024
0.00655585
0.00609668
0.00552197
0.0048371
0.00406306
0.00326049
0.00245483
0.00172824
0.00114865
0.00307968
0.00177067
0.00339343
0.0104833
0.00683797
0.00347866
0.0023626
0.00289375
0.00338692
0.00342947
0.00302846
0.0029442
0.00325024
0.00381228
0.0046031
0.00560859
0.00674724
0.00786343
0.00878286
0.00937387
0.00958092
0.00943726
0.00904361
0.00852728
0.00801495
0.00760628
0.00734697
0.0072196
0.00716169
0.00709309
0.00695045
0.00669998
0.00632816
0.00583331
0.00522165
0.0045108
0.00373398
0.00286697
0.00171164
0.00141516
0.00457592
0.00203408
0.00332467
0.00845706
0.00706659
0.00477744
0.00315465
0.00244204
0.00231209
0.00242048
0.00262452
0.00294895
0.00340871
0.00404111
0.00490082
0.00598433
0.00718432
0.00831575
0.00918691
0.00966636
0.00971619
0.00939353
0.00882506
0.00817019
0.00758526
0.00718461
0.00700119
0.00697959
0.00701875
0.00701749
0.00692442
0.00672087
0.00640036
0.00596205
0.00540963
0.00474967
0.00395303
0.00273386
0.00129351
0.00265145
0.00453606
0.00205843
0.00311426
0.00722987
0.00683488
0.00546924
0.00420842
0.00338778
0.00298192
0.00289013
0.00305828
0.00336745
0.00381642
0.00448326
0.00543167
0.0066183
0.00787803
0.00898448
0.00973483
0.0100141
0.00981817
0.00924454
0.00846376
0.0076807
0.00708522
0.0067869
0.00675283
0.00685004
0.00694734
0.00694859
0.00684981
0.00665204
0.00635099
0.00594112
0.00541878
0.00477023
0.00385149
0.00216078
0.00152984
0.00311059
0.00418766
0.00202288
0.00283577
0.00651977
0.00659474
0.00579116
0.00492569
0.00427462
0.00389156
0.00375508
0.00378949
0.00397572
0.00438727
0.00513119
0.00622608
0.00753825
0.00882258
0.00981648
0.0103284
0.0102865
0.00974471
0.00886086
0.00787204
0.00704503
0.00657836
0.00648509
0.00656651
0.00669314
0.00677639
0.00675223
0.00663782
0.00643856
0.00614623
0.00574521
0.00521982
0.00454605
0.00349928
0.00171464
0.00178407
0.00328242
0.00411703
0.00196411
0.00258615
0.00583262
0.0062981
0.00591799
0.00536228
0.00489582
0.00458592
0.00443453
0.00438913
0.00454762
0.00506961
0.00604058
0.00736311
0.00878023
0.00997786
0.0106955
0.010798
0.0102923
0.00931998
0.0081235
0.00703706
0.00634408
0.00604443
0.0060093
0.00609082
0.00619705
0.0062661
0.0062474
0.00613529
0.00593701
0.00563856
0.00521553
0.00464609
0.00391636
0.00294593
0.0017337
0.00183885
0.00337197
0.00462635
0.00197817
0.00259472
0.00578858
0.00643561
0.00599038
0.00554036
0.00517206
0.00490656
0.00473345
0.00472491
0.00511041
0.00603127
0.00740526
0.00895233
0.0103155
0.0111826
0.0113721
0.010865
0.00977749
0.00837968
0.007026
0.00605018
0.00548643
0.00522324
0.00515007
0.00517991
0.00524758
0.00530448
0.00530081
0.00518843
0.00497173
0.00462247
0.00410944
0.00344695
0.0027389
0.00214473
0.00175536
0.00201206
0.00358803
0.00458273
0.00209629
0.00234198
0.00243529
0.00359218
0.00421926
0.00441227
0.00441406
0.00436974
0.00444909
0.00498732
0.00613504
0.00774636
0.00947997
0.0109563
0.0118633
0.0120224
0.011404
0.0101573
0.00851159
0.00694141
0.00572369
0.00491752
0.0044541
0.00422768
0.00412912
0.00408719
0.00406656
0.00404875
0.00400566
0.00386198
0.0036052
0.00320854
0.0026902
0.00218147
0.00185593
0.00178181
0.00194343
0.00248741
0.00412705
0.00472819
0.00211888
0.000807588
0.00146514
0.00226014
0.00289856
0.00363732
0.00489586
0.00674574
0.00879544
0.010654
0.0120326
0.0127386
0.0126536
0.0117917
0.0102482
0.00841791
0.00669032
0.0053333
0.00443082
0.00393252
0.0036777
0.00352762
0.0034109
0.00330098
0.00319187
0.00308387
0.00297248
0.00282759
0.00261566
0.00234013
0.00205443
0.00187726
0.00189686
0.00211272
0.00250561
0.00315969
0.0044796
0.00514406
0.0021115
0.0014971
0.00207402
0.00302517
0.0047283
0.0070481
0.00937517
0.0111864
0.0124901
0.0132667
0.0134633
0.0129882
0.0117547
0.00996005
0.00795981
0.00615602
0.00482926
0.00406141
0.0036923
0.00350913
0.0033881
0.00328183
0.00317846
0.00307934
0.00298845
0.00290671
0.00282832
0.0027367
0.00261764
0.00248058
0.00236066
0.00232666
0.00244149
0.00271166
0.00309785
0.00355846
0.00402174
0.00420152
0.00202338
0.00275783
0.00666718
0.00611987
0.00546539
0.00695486
0.00929631
0.011282
0.0126275
0.0133369
0.013508
0.0132145
0.0124323
0.0111357
0.00938445
0.00744912
0.0057434
0.00461679
0.00405367
0.00379772
0.00365078
0.00352781
0.00340505
0.00328419
0.00317621
0.00309364
0.00304546
0.00303341
0.00304921
0.00307183
0.00307552
0.00307214
0.00308735
0.00315386
0.00330739
0.00356761
0.00391931
0.00430892
0.00458135
0.00456434
0.00202807
0.00263913
0.00509577
0.00657058
0.00839122
0.0093205
0.0102922
0.0108666
0.0110149
0.0108102
0.0103017
0.00950436
0.0084216
0.00712494
0.00581837
0.00477135
0.00412594
0.0037877
0.0036124
0.00349354
0.00338292
0.00326692
0.00314903
0.00304148
0.00296085
0.00292443
0.00294582
0.00303025
0.00316954
0.00333592
0.00347537
0.00357601
0.00367963
0.00382161
0.00403019
0.00432563
0.00471669
0.00519699
0.00575575
0.00518178
0.00228585
0.00247356
0.00211961
0.00210891
0.00217011
0.00222069
0.00215405
0.00202369
0.00186992
0.0017138
0.00156393
0.00142412
0.00129932
0.00119723
0.00112516
0.0010841
0.0010669
0.00106488
0.00106876
0.00107534
0.00108431
0.00109681
0.00111458
0.00113919
0.00117133
0.00121028
0.00125406
0.00130017
0.00134645
0.00139189
0.00143706
0.0014824
0.00152946
0.00158172
0.00164241
0.00171352
0.00179477
0.00188283
0.00197555
0.00208434
0.00210633
)
;

boundaryField
{
    floor
    {
        type            nutkWallFunction;
        Cmu             0.09;
        kappa           0.41;
        E               9.8;
        value           nonuniform List<scalar> 
36
(
0.000160563
7.63679e-05
0.00010955
0.000110425
0.000107799
0.000103383
9.74393e-05
9.1473e-05
8.59392e-05
8.09177e-05
7.63859e-05
7.23209e-05
6.86462e-05
6.52779e-05
6.21151e-05
5.90185e-05
5.57602e-05
5.30357e-05
4.74963e-05
4.74963e-05
6.15302e-05
7.04727e-05
7.78544e-05
9.30008e-05
0.000121344
0.00011703
0.000160563
0.000175013
0.000167266
0.000160449
7.63679e-05
0.000160449
0.000136024
0.000194689
0.000169852
0.000193913
)
;
    }
    ceiling
    {
        type            nutkWallFunction;
        Cmu             0.09;
        kappa           0.41;
        E               9.8;
        value           nonuniform List<scalar> 
43
(
0.000284305
0.000246319
0.000245164
0.000251785
0.000257249
0.000250081
0.000235966
0.000219179
0.000201974
0.000185289
0.000169558
0.000155368
0.000143644
0.000135305
0.000130535
0.00012854
0.000128314
0.000128774
0.000129545
0.000130591
0.000132039
0.00013409
0.000136928
0.000140632
0.000145119
0.000150157
0.000155453
0.000160756
0.000165947
0.000171085
0.000176225
0.000181533
0.000187394
0.000194168
0.000202071
0.000211059
0.00022076
0.000230945
0.000242834
0.000245133
0.000270455
0.000280426
0.000177581
)
;
    }
    sWall
    {
        type            nutkWallFunction;
        Cmu             0.09;
        kappa           0.41;
        E               9.8;
        value           nonuniform List<scalar> 9(0.000373891 0.000352063 0.000322939 0.000296583 0.00029749 0.000270545 0.000314428 0.00030193 0.000284406);
    }
    nWall
    {
        type            nutkWallFunction;
        Cmu             0.09;
        kappa           0.41;
        E               9.8;
        value           nonuniform List<scalar> 
14
(
0.000117038
0.000139478
0.000162809
0.000239815
0.000235942
0.000229578
0.000231298
0.00024402
0.000246466
0.000245437
0.000235925
0.000236672
0.000264687
0.00024517
)
;
    }
    sideWalls
    {
        type            empty;
    }
    glass1
    {
        type            nutkWallFunction;
        Cmu             0.09;
        kappa           0.41;
        E               9.8;
        value           nonuniform List<scalar> 9(0.000108251 0.000156887 0.000196743 0.000234359 0.000270806 0.000306158 0.000341776 0.000372096 0.000381387);
    }
    glass2
    {
        type            nutkWallFunction;
        Cmu             0.09;
        kappa           0.41;
        E               9.8;
        value           nonuniform List<scalar> 2(0.000208408 0.000237305);
    }
    sun
    {
        type            nutkWallFunction;
        Cmu             0.09;
        kappa           0.41;
        E               9.8;
        value           nonuniform List<scalar> 
14
(
0.000108209
0.000115182
0.000114767
0.000119628
0.000124063
0.000128075
0.000131796
0.000135373
0.000138964
0.000142769
0.000146388
0.000149817
0.000153188
0.000156802
)
;
    }
    Table_master
    {
        type            nutkWallFunction;
        Cmu             0.09;
        kappa           0.41;
        E               9.8;
        value           nonuniform List<scalar> 9(0.000139348 0.000121725 0.000107913 9.69558e-05 8.81283e-05 8.09264e-05 7.49974e-05 7.01357e-05 6.63188e-05);
    }
    Table_slave
    {
        type            nutkWallFunction;
        Cmu             0.09;
        kappa           0.41;
        E               9.8;
        value           nonuniform List<scalar> 9(0.000157763 0.000144098 0.000133417 0.000124451 0.000116747 0.000109775 0.000103154 9.65289e-05 8.93156e-05);
    }
    inlet
    {
        type            calculated;
        value           uniform 0.000167705;
    }
    outlet
    {
        type            calculated;
        value           nonuniform List<scalar> 2(0.00275783 0.00666718);
    }
}


// ************************************************************************* //
