/*--------------------------------*- C++ -*----------------------------------*=========                 |
  \      /  F ield         | OpenFOAM: The Open Source CFD Toolbox
   \    /   O peration     | Website:  https://openfoam.org
    \  /    A nd           | Version:  6
     \/     M anipulation  |
\*---------------------------------------------------------------------------*/
FoamFile
{
    version     2.0;
    format      ascii;
    class       volScalarField;
    location    "780";
    object      PPD;
}
// * * * * * * * * * * * * * * * * * * * * * * * * * * * * * * * * * * * * * //

dimensions      [0 0 0 0 0 0 0];

internalField   nonuniform List<scalar> 
458
(
41.44609967489676
29.46870898415068
28.022980086342343
26.772190176654476
25.987544683533585
25.622989091665943
25.72480292930601
26.34028207053619
27.586301279261846
29.70491639682264
32.965975165027345
36.404742667374926
37.18834071858375
37.59457338560882
38.21913880483234
44.12289368793543
43.41794579282146
43.217098575693086
43.56874910854284
43.82040221893049
44.02200249766892
43.79146286779063
43.56816438845481
43.620921997482725
43.72256233930886
43.88159035982325
44.055816430410125
44.28796340559054
44.631147886596146
45.231730322888346
45.66857593603361
45.89768409334005
46.63760314640436
38.010683222689664
30.005588131661852
29.446490948376635
28.177840031698523
27.44247673100783
27.098395772027942
27.142012867364954
27.499438917300054
28.119027343481235
29.208493919383002
31.04073205834743
33.90686554667411
36.997769168343986
37.546692604037744
37.906368092765575
35.82780795738633
35.8162530723435
36.89506463768721
41.64953327265305
42.741136188615364
42.716127263273684
43.1167721574862
43.27039857865403
43.24915227325155
43.252989148022486
43.31434326936545
43.352852314864656
43.36789062504252
43.39145601010372
43.45948061842892
43.51908685961075
43.68376244082765
44.13896326775199
44.577637705694734
44.932133556559684
44.04416217888233
39.59634035883068
29.59587653317685
30.931032095909018
30.235469695768188
29.92671348733387
29.738444565011093
29.753456661238047
29.588729028669064
28.9992543922572
28.503581836549813
28.98212053005635
31.192985050976603
35.554807493741265
37.882349031339075
38.21913880483234
38.363819293562706
38.43543034066865
37.42006074005229
37.111646543209645
40.381955522395586
40.86305504323164
41.3220581017161
41.881538588458525
42.06809407598348
43.24835446787962
43.99678913318417
43.99678913318417
44.02200249766892
44.02200249766892
44.02200249766892
44.04721964420489
44.07244056398224
44.223844825987015
44.40065186218199
44.00075349617522
40.2093835438679
43.48140984835333
29.28684414309629
32.02599578493606
32.53021616222081
33.33664917253907
33.887409110301576
33.98299275513274
32.86316986030242
30.2293050169516
27.84181418368169
27.29808860957462
29.293532568583444
33.59395612167265
38.187399106505914
38.896038430955144
38.96882079712308
37.68518172099108
36.476774263202756
33.99092140146095
37.24786844510411
39.05708414687705
40.38265050207224
41.93897319180917
43.725567329647404
45.13444029867806
44.798996397205244
44.46504488782658
44.39761149108771
44.45623547758426
44.58497843299791
44.92992922830698
45.62943774470539
46.87191356091166
46.81713286100231
46.076054047637996
42.934896539341345
37.96582081579518
48.504683168109324
29.656364856667977
32.84976945464014
34.630519134874675
37.3317049247248
39.69409447026752
40.1826567170531
36.58039266978244
31.268320401382184
27.257589957265566
26.081165922581775
28.140510725126603
32.43410164349896
37.46005946858016
39.89490819153392
39.99283189365677
39.43974915113642
37.99558657222782
37.91354919196359
38.70332451675947
40.30670353939225
42.399397144400766
44.57643992731397
46.70026584186837
48.1500913253978
48.821716093577606
48.838432141419105
48.81029167923732
48.71278105840562
48.551976651694424
48.411577489469245
48.373520785240046
48.35393466832111
47.53174620502045
46.11727436562969
42.118414475242815
42.14822136542068
41.97812431918323
46.45373651912228
40.05996264423473
53.80486129899692
31.02759725389663
34.318094957832926
36.19889521398796
40.459087053595134
44.45120113400287
46.38217694124764
38.09296020759179
31.219889229396358
26.547350091464182
25.256817162811572
27.43850213992701
32.23245717955177
38.02008155722601
41.32262856449745
41.64485903382736
41.52083140837489
41.57042861611414
42.23307690572403
43.30445485967307
45.08405782289026
46.73985377850577
48.201512380418365
49.412342585216855
50.31666402752719
50.91192658209957
51.32640964985153
51.58560137012183
51.66337792940295
51.61152595088893
51.35232424297771
50.989619662001566
50.04357387665431
48.425627856318535
46.46026437789362
42.70540995338813
42.37757088761216
42.00257269138319
43.313292787094376
43.72162253157217
58.82736930027983
35.14803834895672
40.27542624401861
39.13218465713125
41.93277462222732
46.12704447255141
42.823204103732465
36.595929207021356
29.859969360815
25.329677107266022
24.475063391422907
27.43720703150713
33.2738617419171
40.36567352900211
43.29238606124667
43.895973671987385
43.921171820173996
44.223844825987015
45.18576162084821
46.535398014194215
48.047276661258145
49.46396273809805
50.70479937321632
51.63745147406749
52.25992002535837
52.6491722312356
52.856824330031735
52.9347015129347
52.882782958866976
52.701082288208845
52.33775925790918
51.844888354471536
51.2745836389161
50.32924271514279
47.92680444422395
44.59783300993339
43.07690740759225
41.97566344997372
40.51331297129051
46.12667658398781
66.3086695334554
54.80622884571091
51.62673974383696
45.31244225728981
44.17793689104394
43.59451790934658
39.94630235954059
32.98162130675097
26.292203119859508
22.94025348015407
23.70837250750185
28.623786858080024
36.567246733763334
43.77004049757625
45.948631506691655
46.61204757426007
46.84214930872184
47.37991348356309
48.43301794149913
49.696340410565156
50.937823070914256
52.026440426164854
52.83086614722555
53.3760677724234
53.713632076981675
53.843470285371254
53.86943811279736
53.791534784680906
53.635730273804256
53.427998712303264
53.09046679530964
52.62321799149052
52.05237963018165
51.40415655344396
50.67891421192919
49.877173663847515
49.368940649904864
47.88672198591382
43.636797436900316
39.15263628018338
76.57653379882164
69.4660183656816
61.0102652739122
53.22943387317055
48.24042361267378
44.42693006908165
34.63986702712556
24.831812074957426
19.77676471221166
19.74449924278335
24.15267558022998
33.11523307460567
42.94135893550625
47.20052851765116
48.79348506569358
49.48977549016601
49.9546981456181
50.60126662423857
51.50783338485787
52.467504249998356
53.272208820528384
53.92137386914763
54.26420595273925
54.002363214566856
53.68871380334627
53.337884002453904
52.911891169663924
52.44009914013779
51.88063187269118
51.25629940300657
50.54043998145595
49.73029935967392
48.97076365838967
48.061416854513574
47.00946630932965
46.052285641405156
45.437046970124996
45.211445010028285
44.68174826088653
43.011546756007135
59.545207075728335
16.931984879301737
5.776886451799228
5.001458209687996
5.467260135921251
7.297315444117032
11.806436325015369
20.04571506183248
32.199477297670526
42.81618827390102
48.17580071740391
49.30196817067173
49.759819790154346
50.214073871933564
50.78670007584077
51.47571904628896
52.11544137907453
52.571928331413616
52.7751956059917
52.78738723949979
52.635724538529416
52.379319292974806
52.03878914210912
51.631649647911246
51.158023919200936
50.65894741925767
50.188304586664316
49.782420079489164
49.47033068196816
49.260748642570455
49.1098463415285
49.00908189925954
48.902726728465154
48.93900612479412
49.50477021067108
51.47599954595296
55.134457624646515
46.8696284578292
60.184605736768354
12.178363147555928
5.001766827114935
7.042433731180012
10.657644143323793
17.75440579582157
28.00835835499109
39.0416522223071
44.0273562371422
46.30906330016774
47.845146507447126
48.744314570661416
49.3507501990656
49.838526665231385
50.30158857266359
50.70210762673006
51.03172968716806
51.28765463820679
51.43788944032094
51.43771070918096
51.373311376530665
51.22595748003724
51.057030205151825
50.87579179465668
50.69168199136845
50.541353147728394
50.41025972699881
50.3501815236398
50.359057861629324
50.50419799537499
50.87354189261439
51.504745263379775
52.17318205361776
52.735700751895735
53.31695172556307
55.233919638932264
52.41036955141876
49.197793259625826
32.08772284737594
32.02390574580129
26.510153624184767
5.9214725373512636
7.867617539785485
17.92032435218522
29.67859717308076
36.73153047891523
41.26303264774951
44.085666396286264
45.912007844578255
47.24428410108923
48.04176753798386
48.512046070170335
48.777972276312724
48.960068944627984
49.05156229549132
49.04535424115801
48.96095299449607
48.84518727493016
48.682123544536786
48.5381011786961
48.39299622872796
48.25183907136002
48.14899902994133
48.09441887839906
48.1022301296915
48.22025937376031
48.42185466968052
48.775146621022415
49.28673091795906
50.06691704480255
51.36217412178774
53.571756638361954
56.85322391667785
57.1639579213629
55.66404412053099
52.3764546315483
49.556930820778774
50.29942497127398
)
;

boundaryField
{
    ".*"
    {
        type            zeroGradient;
    }
}


// ************************************************************************* //
