/*--------------------------------*- C++ -*----------------------------------*\
  =========                 |
  \\      /  F ield         | OpenFOAM: The Open Source CFD Toolbox
   \\    /   O peration     | Website:  https://openfoam.org
    \\  /    A nd           | Version:  6
     \\/     M anipulation  |
\*---------------------------------------------------------------------------*/
FoamFile
{
    version     2.0;
    format      ascii;
    class       volScalarField;
    location    "34199.9999979803324";
    object      k;
}
// * * * * * * * * * * * * * * * * * * * * * * * * * * * * * * * * * * * * * //

dimensions      [0 2 -2 0 0 0 0];

internalField   nonuniform List<scalar> 
778
(
0.00158588
0.00180107
0.00178798
0.00194657
0.00209786
0.0022402
0.00237694
0.0025126
0.00265299
0.00280636
0.00295661
0.00310292
0.00325043
0.00341283
0.00358646
0.000793084
0.00162471
0.0016512
0.00157231
0.00144463
0.00128251
0.0011305
0.000998866
0.000887142
0.000792604
0.000712871
0.000644868
0.000585895
0.000533405
0.000484686
0.000436238
0.000397953
0.000326085
0.00340687
0.00643317
0.00268754
0.0027462
0.00288792
0.00305454
0.00323495
0.00343077
0.00364406
0.00387445
0.00412656
0.00438029
0.00459594
0.00470097
0.00459503
0.00429868
0.0039076
0.00358022
0.00253541
0.00281138
0.0029534
0.00289574
0.00266303
0.00226435
0.00190534
0.00160926
0.00136963
0.00117584
0.00101703
0.000885229
0.000773969
0.000681157
0.000615136
0.000574595
0.000864183
0.000523955
0.00549057
0.0127803
0.00347793
0.00321228
0.00329763
0.00345551
0.00363693
0.00384116
0.00407155
0.00432824
0.00463633
0.00501161
0.00545154
0.00596064
0.00653108
0.00685921
0.00627707
0.00538553
0.00403723
0.00416853
0.00417133
0.00397362
0.00357571
0.00266357
0.00201398
0.00157495
0.00126906
0.00104919
0.000886937
0.000764646
0.000671843
0.000603645
0.000551456
0.000548645
0.00116541
0.000677882
0.00797314
0.0217567
0.00449094
0.0033909
0.00334171
0.0034383
0.00354971
0.00366923
0.00380952
0.00399191
0.0042598
0.00464915
0.00517175
0.00582542
0.00655444
0.00713375
0.00722731
0.00724185
0.0053433
0.00555074
0.00537613
0.00512511
0.00478632
0.00434738
0.0034549
0.00285793
0.00243485
0.002109
0.00184978
0.00163145
0.00143814
0.00125818
0.00107729
0.000800258
0.000659485
0.00142158
0.000821349
0.0108757
0.0336315
0.00621204
0.00342508
0.00315844
0.00316715
0.0031898
0.00321014
0.00325246
0.00336152
0.00359523
0.00398972
0.00455388
0.0052769
0.00608678
0.00681704
0.00728299
0.00764421
0.00751819
0.0066546
0.00607353
0.00557903
0.00509889
0.004629
0.00412248
0.00366488
0.0032743
0.0029367
0.00263059
0.00234725
0.00207876
0.001818
0.00155437
0.00122124
0.000929606
0.00118979
0.00121558
0.0011679
0.00204763
0.00186385
0.0141737
0.0475942
0.00928204
0.00348995
0.00290862
0.00282285
0.00276455
0.00269973
0.00266445
0.00273481
0.00298111
0.00341454
0.00402361
0.00479733
0.00565286
0.00645985
0.00706787
0.0074069
0.00732383
0.0067901
0.00621522
0.00563721
0.00507424
0.00455581
0.00409101
0.00369533
0.00336279
0.00307337
0.00280651
0.00255128
0.00229868
0.00204177
0.00177326
0.00147078
0.00117769
0.00111189
0.00111022
0.00172302
0.00513766
0.00266099
0.0179903
0.0606014
0.0143561
0.00381906
0.00271516
0.0025294
0.00241186
0.00229416
0.00222122
0.00231174
0.00263049
0.00313937
0.00380162
0.00462984
0.00552659
0.00636451
0.00699895
0.00732688
0.00725395
0.00681793
0.00621532
0.00555472
0.00491177
0.00434264
0.00387236
0.00350034
0.0032067
0.0029618
0.00274147
0.00252923
0.00231348
0.0020869
0.0018447
0.00158251
0.00132716
0.00115898
0.00109095
0.00156828
0.00633553
0.00370864
0.021639
0.0704782
0.0214307
0.00510043
0.00274238
0.00237166
0.00221008
0.00208197
0.00202643
0.0022197
0.00265007
0.00323094
0.00393639
0.00477253
0.00569596
0.00657008
0.00722067
0.00751193
0.00738321
0.00689565
0.00619777
0.0054265
0.00469112
0.00406419
0.00357427
0.00321243
0.00294773
0.00274118
0.0025646
0.00239632
0.00222243
0.00203535
0.00183176
0.00161286
0.0013977
0.00122823
0.00115131
0.00213624
0.01457
0.00642137
0.0228319
0.0694973
0.0325275
0.0110489
0.00406381
0.00258644
0.0022352
0.00210295
0.00219008
0.00251291
0.00300106
0.00360211
0.00433124
0.00520955
0.00618052
0.00708254
0.00771289
0.00792007
0.0076627
0.0070242
0.00616408
0.00524739
0.00440661
0.00372181
0.00321629
0.00286873
0.00263561
0.00246925
0.00233673
0.00221198
0.00207995
0.00193344
0.00177026
0.00159336
0.0014173
0.00128139
0.00131638
0.00404687
0.0294406
0.00812335
0.0219179
0.0516426
0.033641
0.0174255
0.00858013
0.00475481
0.0032593
0.00272956
0.0028532
0.00321159
0.0036731
0.00424607
0.00499291
0.00593338
0.00696746
0.00788076
0.00843624
0.00848004
0.00800079
0.00712132
0.00603882
0.00495175
0.0040098
0.00328969
0.00279732
0.00248834
0.00230212
0.00218434
0.00209665
0.00201209
0.00191707
0.00180598
0.00167804
0.00153726
0.00139656
0.001303
0.00160844
0.00794801
0.0270195
0.00858002
0.0192343
0.0394442
0.0302383
0.0195615
0.0121766
0.00793396
0.00571396
0.00466749
0.00436144
0.0043996
0.0046521
0.00514314
0.00592972
0.0069724
0.00807863
0.00895568
0.00933744
0.00909285
0.00826993
0.00705656
0.00570701
0.00445593
0.00345931
0.00276739
0.00234759
0.00211444
0.00198987
0.00192311
0.00187371
0.00182023
0.00175268
0.00166745
0.0015655
0.00145343
0.00134927
0.00134664
0.00212234
0.00849133
0.0253729
0.00865693
0.0159512
0.0315912
0.0266523
0.0195371
0.013973
0.0102809
0.00802426
0.00674822
0.00604704
0.00572956
0.00578056
0.00626893
0.00719926
0.00840383
0.0095531
0.0102739
0.0103071
0.00959224
0.00828288
0.00665901
0.00504845
0.00371522
0.00279043
0.00223267
0.00195344
0.00181373
0.0017451
0.00171181
0.0016848
0.00164947
0.00159851
0.00152927
0.00144411
0.00135554
0.00130429
0.00158372
0.00344215
0.00942032
0.0221962
0.00832028
0.0132671
0.0256725
0.0233514
0.0186891
0.0145821
0.0115861
0.00954123
0.00820769
0.00729851
0.00683844
0.00695385
0.00770925
0.00896096
0.0103441
0.0113895
0.0116992
0.0111086
0.00969705
0.00778381
0.00575341
0.00402236
0.00283169
0.00219261
0.00186087
0.00169672
0.00161531
0.00157519
0.00155433
0.001534
0.00150435
0.00145991
0.00139906
0.00132739
0.00127125
0.00135543
0.00218129
0.00489192
0.0102306
0.0176938
0.00772665
0.0133461
0.0224188
0.0220573
0.0177595
0.0143916
0.0118929
0.0100826
0.00876821
0.00791771
0.00777206
0.00846431
0.00984913
0.011498
0.0128455
0.0133895
0.0128472
0.0112904
0.00898989
0.00651717
0.00430581
0.00296085
0.00222428
0.00185487
0.0016669
0.00156644
0.00150914
0.00147454
0.00145088
0.001426
0.0013933
0.00134938
0.00129484
0.00124002
0.00122798
0.00143403
0.00246662
0.00529066
0.0102098
0.0162981
0.00734101
0.0108734
0.0117639
0.0129241
0.0125537
0.0113762
0.010077
0.00894952
0.00820609
0.00830394
0.00941021
0.0112728
0.0133276
0.0149154
0.0155072
0.0148407
0.0129027
0.0101783
0.00703139
0.00464649
0.00314321
0.00235565
0.0019672
0.00176641
0.00164641
0.00156363
0.00150159
0.00145378
0.00141613
0.00138017
0.00134234
0.00130354
0.00126994
0.00125749
0.00131116
0.00157348
0.00247128
0.00485885
0.0093801
0.0163788
0.008193
0.00354528
0.0048277
0.00600392
0.00661295
0.00729356
0.00880508
0.0113126
0.0141246
0.0165212
0.0179469
0.0180498
0.0167537
0.0142588
0.0106522
0.00735799
0.004858
0.00335288
0.00258455
0.00222209
0.00203384
0.00191156
0.00181333
0.00172555
0.00164627
0.00157877
0.00152836
0.00149438
0.00148046
0.00149569
0.00154938
0.00165037
0.00182356
0.00215934
0.00291632
0.00476139
0.00994567
0.014747
0.00883056
0.00444568
0.00630098
0.0081255
0.011045
0.0147206
0.0181701
0.0203884
0.0214312
0.0213442
0.0201256
0.0176022
0.0141512
0.010512
0.00723504
0.00491929
0.00358202
0.002935
0.0026368
0.00248111
0.00237884
0.00229724
0.00222381
0.00215467
0.00209212
0.00204408
0.00202308
0.00203967
0.00210782
0.00223944
0.00243974
0.00271056
0.00306819
0.00358006
0.00443311
0.00615125
0.0114921
0.0147354
0.00917344
0.0150726
0.0244207
0.0180916
0.0144128
0.0170469
0.0207481
0.0228754
0.0235645
0.0230904
0.021719
0.0196964
0.0170591
0.0139061
0.0106166
0.00769376
0.00553904
0.00429112
0.00368574
0.00339894
0.00324754
0.00316118
0.00311288
0.00308645
0.00306766
0.00304632
0.00302179
0.00300673
0.0030217
0.00308787
0.00322265
0.00343784
0.00374168
0.00414345
0.00466834
0.00538766
0.00647415
0.00835096
0.0126079
0.0170575
0.00862854
0.013809
0.0170471
0.0178894
0.020797
0.021743
0.0221656
0.0211687
0.0193529
0.0172292
0.0150499
0.0129184
0.0108865
0.00901153
0.00739794
0.00614903
0.00525834
0.00465942
0.00427714
0.00404231
0.00392021
0.00389326
0.00394527
0.00405495
0.00419559
0.00433927
0.00446406
0.00456222
0.0046502
0.00476673
0.00493793
0.00518505
0.00553017
0.00600229
0.00664963
0.00756081
0.00885501
0.0106879
0.0141091
0.0197816
0.00836379
0.0121403
0.00891019
0.0088239
0.0093457
0.00978992
0.00921847
0.00815516
0.00700062
0.00593965
0.00502047
0.00423565
0.00357309
0.00303666
0.00264064
0.00239072
0.00227517
0.00224039
0.00225353
0.00230242
0.0023788
0.00247445
0.00258094
0.00269097
0.00279953
0.00290468
0.00300779
0.00311327
0.00322661
0.00335432
0.00350293
0.00367697
0.00388059
0.00412229
0.00442347
0.00482523
0.00539353
0.00619677
0.00725312
0.00848251
0.00754461
)
;

boundaryField
{
    floor
    {
        type            kqRWallFunction;
        value           nonuniform List<scalar> 
36
(
0.00358646
0.000793084
0.00162471
0.0016512
0.00157231
0.00144463
0.00128251
0.0011305
0.000998866
0.000887142
0.000792604
0.000712871
0.000644868
0.000585895
0.000533405
0.000484686
0.000436238
0.000397953
0.000326085
0.000326085
0.000523955
0.000677882
0.000821349
0.0011679
0.00204763
0.00186385
0.00358646
0.00429868
0.0039076
0.00358022
0.000793084
0.00358022
0.00253541
0.00538553
0.00403723
0.0053433
)
;
    }
    ceiling
    {
        type            kqRWallFunction;
        value           nonuniform List<scalar> 
43
(
0.0121403
0.00891019
0.0088239
0.0093457
0.00978992
0.00921847
0.00815516
0.00700062
0.00593965
0.00502047
0.00423565
0.00357309
0.00303666
0.00264064
0.00239072
0.00227517
0.00224039
0.00225353
0.00230242
0.0023788
0.00247445
0.00258094
0.00269097
0.00279953
0.00290468
0.00300779
0.00311327
0.00322661
0.00335432
0.00350293
0.00367697
0.00388059
0.00412229
0.00442347
0.00482523
0.00539353
0.00619677
0.00725312
0.00848251
0.00754461
0.0108734
0.0117639
0.00444568
)
;
    }
    sWall
    {
        type            kqRWallFunction;
        value           nonuniform List<scalar> 9(0.0219179 0.0192343 0.0159512 0.0132671 0.0133461 0.0108734 0.0150726 0.013809 0.0121403);
    }
    nWall
    {
        type            kqRWallFunction;
        value           nonuniform List<scalar> 
14
(
0.00186385
0.00266099
0.00370864
0.00858002
0.00865693
0.00832028
0.00772665
0.00734101
0.008193
0.00883056
0.00917344
0.00862854
0.00836379
0.00754461
)
;
    }
    sideWalls
    {
        type            empty;
    }
    glass1
    {
        type            kqRWallFunction;
        value           nonuniform List<scalar> 9(0.00158588 0.00340687 0.00549057 0.00797314 0.0108757 0.0141737 0.0179903 0.021639 0.0228319);
    }
    glass2
    {
        type            kqRWallFunction;
        value           nonuniform List<scalar> 2(0.00642137 0.00812335);
    }
    sun
    {
        type            kqRWallFunction;
        value           nonuniform List<scalar> 
14
(
0.00158588
0.00180107
0.00178798
0.00194657
0.00209786
0.0022402
0.00237694
0.0025126
0.00265299
0.00280636
0.00295661
0.00310292
0.00325043
0.00341283
)
;
    }
    Table_master
    {
        type            kqRWallFunction;
        value           nonuniform List<scalar> 9(0.00266357 0.00201398 0.00157495 0.00126906 0.00104919 0.000886937 0.000764646 0.000671843 0.000603645);
    }
    Table_slave
    {
        type            kqRWallFunction;
        value           nonuniform List<scalar> 9(0.0034549 0.00285793 0.00243485 0.002109 0.00184978 0.00163145 0.00143814 0.00125818 0.00107729);
    }
    inlet
    {
        type            turbulentIntensityKineticEnergyInlet;
        intensity       0.05;
        value           uniform 0.0009375;
    }
    outlet
    {
        type            zeroGradient;
    }
}


// ************************************************************************* //
