/*--------------------------------*- C++ -*----------------------------------*\
  =========                 |
  \\      /  F ield         | OpenFOAM: The Open Source CFD Toolbox
   \\    /   O peration     | Website:  https://openfoam.org
    \\  /    A nd           | Version:  6
     \\/     M anipulation  |
\*---------------------------------------------------------------------------*/
FoamFile
{
    version     2.0;
    format      ascii;
    class       surfaceScalarField;
    location    "34199.9999979803324";
    object      phi;
}
// * * * * * * * * * * * * * * * * * * * * * * * * * * * * * * * * * * * * * //

dimensions      [1 0 -1 0 0 0 0];

internalField   nonuniform List<scalar> 
1482
(
-0.00279981
0.00286385
-0.00348416
0.000684347
-0.00414507
0.000660912
-0.00475942
0.000614345
-0.00528105
0.000521636
-0.00569319
0.000412137
-0.00598456
0.000291372
-0.00614208
0.000157516
-0.00614839
6.31184e-06
-0.00597752
-0.000170869
-0.00559954
-0.00037798
-0.00498346
-0.000616085
-0.00405912
-0.000924335
-0.00258024
-0.00147888
-0.00257732
-6.49858e-05
6.98392e-05
0.000777737
-0.000842723
0.00142939
-0.000651657
0.00182795
-0.000398551
0.00204886
-0.000220909
0.00215299
-0.000104139
0.00220039
-4.73916e-05
0.00222324
-2.28514e-05
0.00223294
-9.70217e-06
0.00223374
-8.01597e-07
0.0022266
7.14029e-06
0.00220757
1.90275e-05
0.00216339
4.41877e-05
0.00206089
0.000102493
0.00184482
0.000216073
0.00148853
0.000356289
0.00101898
0.000469554
0.00102542
-0.00204043
0.0050746
-0.00290866
0.00155258
-0.0036947
0.00144695
-0.00434599
0.00126564
-0.00488353
0.00105917
-0.00531256
0.000841162
-0.00563125
0.000610062
-0.00583277
0.000359036
-0.00590642
7.99631e-05
-0.00584437
-0.000232916
-0.00564085
-0.000581505
-0.00528456
-0.000972368
-0.00477437
-0.00143453
-0.0042883
-0.00196494
-0.00470411
-0.00216152
-0.00311736
-0.00158131
-0.00163358
-0.00147809
-0.00161874
0.00131732
-0.00123727
0.00166048
-0.00118588
0.00191073
-0.000901912
0.00210045
-0.000588271
0.00220648
-0.000326936
0.00221508
-0.000112736
0.00221714
-4.94507e-05
0.00221885
-2.45592e-05
0.00221987
-1.07229e-05
0.00221988
-8.18636e-07
0.00221849
8.53017e-06
0.00221426
2.32585e-05
0.00220162
5.6833e-05
0.00213974
0.000164371
0.00189036
0.000465456
0.00146184
0.000784803
0.000900342
0.00103106
0.00194265
-0.0014883
0.00682082
-0.00235929
0.00242357
-0.00312945
0.00221711
-0.00371389
0.00185009
-0.0041848
0.00153008
-0.00455648
0.00121284
-0.0048307
0.000884279
-0.00500419
0.000532527
-0.00507053
0.000146307
-0.00502066
-0.000282788
-0.00484386
-0.000758306
-0.00453276
-0.00128347
-0.00411823
-0.00184905
-0.003721
-0.00236218
-0.00330092
-0.00258159
-0.00236978
-0.00251244
-0.00127578
-0.0025721
-0.00288168
0.00114867
-0.00237149
0.00165142
-0.00168863
0.00194889
-0.00119938
0.00214034
-0.000779723
0.0021678
-0.000354397
0.00205522
0.00200592
0.00198152
0.00197095
0.00197028
0.00197897
0.00200238
0.00205937
0.00222389
0.00186505
0.000824301
0.00141757
0.00123228
0.000800193
0.00164844
0.00276887
-0.0011061
0.00825814
-0.00192809
0.00324556
-0.00257028
0.0028593
-0.0030308
0.00231061
-0.00339854
0.00189782
-0.00368753
0.00150182
-0.00390074
0.00109749
-0.0040363
0.000668091
-0.00408668
0.000196684
-0.00403867
-0.000330792
-0.00388004
-0.000916939
-0.00360675
-0.00155676
-0.00324149
-0.00221431
-0.00282015
-0.00278351
-0.00228142
-0.00312032
-0.00156245
-0.00323142
-0.000874876
-0.00325967
-0.000696398
-0.00306015
0.00143952
-0.00212047
0.00137279
-0.00230476
0.00168869
-0.00200453
0.00200128
-0.00151197
0.00226762
-0.00104607
0.00254479
-0.000631568
0.00285674
-0.000312104
0.00302281
-0.000166215
0.00308689
-6.42361e-05
0.00306943
1.73058e-05
0.00297915
9.01281e-05
0.00281697
0.00016202
0.00257502
0.000241796
0.00223034
0.000344532
0.00172574
0.000504444
0.00158934
0.000960702
0.00126178
0.00155984
0.000736372
0.00217384
0.00353956
-0.000803797
0.00945513
-0.00158001
0.00402177
-0.0020488
0.0033281
-0.00236466
0.00262647
-0.00260921
0.00214236
-0.00279492
0.00168754
-0.0029268
0.00122937
-0.00300555
0.000746839
-0.00302459
0.000215722
-0.00296728
-0.000388104
-0.00282039
-0.00106382
-0.0025771
-0.00180006
-0.00224406
-0.00254735
-0.00182846
-0.00319911
-0.00132396
-0.00362482
-0.000748208
-0.00380717
-0.000217652
-0.00379022
0.000259433
-0.00353724
0.00112047
-0.0029815
0.00148648
-0.00267076
0.00174559
-0.00226364
0.00199813
-0.00176451
0.00222805
-0.00127599
0.00244226
-0.000845782
0.00264261
-0.000512446
0.00275195
-0.000275556
0.0027877
-9.99876e-05
0.00276157
4.34362e-05
0.00267996
0.000171733
0.00254535
0.000296632
0.00235648
0.000430665
0.00211087
0.000590141
0.00181643
0.000798888
0.00161006
0.00116708
0.00146724
0.00170265
0.0012854
0.00235569
0.00226624
0.00255872
0.00131439
0.000986782
0.00189972
-0.000556702
0.00201861
-0.000575846
0.0104774
-0.0013248
0.00477072
-0.00158454
0.00358784
-0.00175062
0.00279254
-0.0018648
0.00225654
-0.00193652
0.00175926
-0.00197221
0.00126506
-0.00197616
0.000750785
-0.00194518
0.000184738
-0.00185746
-0.000475821
-0.00170325
-0.00121803
-0.00147269
-0.00203062
-0.00116874
-0.00285129
-0.000797327
-0.00357052
-0.000378292
-0.00404385
6.14585e-05
-0.00424692
0.000466326
-0.00419509
0.0008405
-0.00391141
0.00129147
-0.00343247
0.0015903
-0.00296959
0.00179369
-0.00246703
0.00196516
-0.00193598
0.00211675
-0.00142758
0.00225104
-0.000980073
0.00235542
-0.000616825
0.00241306
-0.000333197
0.0024238
-0.000110724
0.0023929
7.43379e-05
0.00232517
0.000239464
0.00222439
0.000397408
0.00209453
0.000560522
0.00194245
0.000742219
0.00178228
0.000959067
0.00168969
0.00125966
0.00174304
0.0016493
0.00194783
0.00215091
0.00218268
0.00232387
0.0016965
0.00147296
0.000781733
0.000358072
0.00289796
-0.000543335
0.0115129
-0.00124356
0.00547094
-0.00119202
0.0035363
-0.00120059
0.00280112
-0.0011932
0.00224915
-0.00116004
0.0017261
-0.00110325
0.00120828
-0.00102852
0.000676048
-0.000930513
8.67352e-05
-0.000781894
-0.00062444
-0.000593011
-0.00140692
-0.000353384
-0.00227025
-7.01372e-05
-0.00313454
0.000234245
-0.00387491
0.000543877
-0.00435349
0.000838757
-0.0045418
0.00110148
-0.00445781
0.00133471
-0.00414464
0.00156648
-0.00366423
0.00172614
-0.00312925
0.00182603
-0.00256691
0.00189597
-0.00200591
0.00195158
-0.00148319
0.00199797
-0.00102647
0.00202983
-0.000648683
0.00204151
-0.000344876
0.00202971
-9.89213e-05
0.00199523
0.000108813
0.00194119
0.000293503
0.00187135
0.000467254
0.00179079
0.000641078
0.00170781
0.000825196
0.00163696
0.00102992
0.00162056
0.00127606
0.00170189
0.00156797
0.00190108
0.00195172
0.00213928
0.00208567
0.00214965
0.00146259
0.00162486
0.000882866
0.0046257
-0.000483479
0.0125319
-0.00105148
0.00603894
-0.000697486
0.00318231
-0.000636908
0.00274054
-0.000568832
0.00218108
-0.000464538
0.0016218
-0.000335986
0.00107973
-0.000185351
0.000525413
3.42943e-06
-0.000102045
0.000221198
-0.000842208
0.000460496
-0.00164622
0.000717821
-0.00252757
0.000974499
-0.00339122
0.00120312
-0.00410353
0.00140247
-0.00455285
0.00156377
-0.0047031
0.0016817
-0.00457574
0.00176104
-0.00422398
0.00181425
-0.00371744
0.00182445
-0.00313945
0.00179979
-0.00254225
0.00175917
-0.00196529
0.00171738
-0.00144141
0.00168185
-0.000990935
0.00165255
-0.000619384
0.00162566
-0.000317984
0.00159647
-6.97331e-05
0.00156288
0.000142407
0.00152521
0.000331168
0.00148487
0.000507597
0.001445
0.000680946
0.00141169
0.000858505
0.0013954
0.00104622
0.0014183
0.00125316
0.00150544
0.00148083
0.00170025
0.00175691
0.00195354
0.00183238
0.00205696
0.00135917
0.00165708
0.00128276
0.00664861
0.00297632
0.0101428
0.00202081
0.00699445
0.000867993
0.00433513
0.000369741
0.00323879
0.000212812
0.00233801
0.000268947
0.00156567
0.000422397
0.000926275
0.000635735
0.000312075
0.00089449
-0.000360799
0.00115867
-0.00110638
0.00143666
-0.00192421
0.00170339
-0.0027943
0.00192947
-0.00361731
0.00209062
-0.00426469
0.00218081
-0.00464306
0.00220267
-0.00472497
0.00216499
-0.00453807
0.00208146
-0.00414045
0.00196733
-0.00360331
0.00182819
-0.00300031
0.00167616
-0.00239022
0.00152797
-0.0018171
0.00139816
-0.0013116
0.00129484
-0.000887617
0.00121928
-0.000543827
0.00116684
-0.000265545
0.00113045
-3.33396e-05
0.00110502
0.000167835
0.00108728
0.000348911
0.00107517
0.000519705
0.0010689
0.000687219
0.00107136
0.000856045
0.00108842
0.00102916
0.0011314
0.00121017
0.00121306
0.00139917
0.00136025
0.00160971
0.00152958
0.00166305
0.00156929
0.00131947
0.000217001
0.00263511
0.00725074
0.00403046
0.00625256
0.00366621
0.0073587
0.00254075
0.00546058
0.0018876
0.00389194
0.00153102
0.00269458
0.00138606
0.00171063
0.00141956
0.000892772
0.00159343
0.000138209
0.00184478
-0.000612159
0.00212118
-0.00138279
0.00240032
-0.00220335
0.00264498
-0.00303896
0.00281353
-0.00378587
0.00287896
-0.00433012
0.00283791
-0.00460202
0.00270415
-0.00459121
0.00249996
-0.00433389
0.00224969
-0.00389018
0.0019761
-0.00332973
0.00169634
-0.00272055
0.0014275
-0.00212138
0.00118728
-0.00157688
0.000990256
-0.00111458
0.000842482
-0.000739843
0.000742973
-0.000444318
0.000683209
-0.000205781
0.000652537
-2.66802e-06
0.000642435
0.000177937
0.000646246
0.0003451
0.000659333
0.000506618
0.000679602
0.00066695
0.000706963
0.000828684
0.000742609
0.000993509
0.000788557
0.00116423
0.000840008
0.00134772
0.000858907
0.00159081
0.000555152
0.00196678
-0.000839044
0.00271367
-0.00218323
0.00397945
0.00517132
0.00240908
0.004008
0.00330371
0.00646407
0.00324762
0.00551667
0.0030368
0.00410275
0.00284563
0.00288575
0.00272211
0.00183415
0.00270786
0.000907023
0.00279626
4.98066e-05
0.00295745
-0.000773348
0.00316733
-0.00159267
0.00338418
-0.0024202
0.00354806
-0.00320285
0.00360428
-0.00384209
0.00352616
-0.00425202
0.0033191
-0.00439497
0.00300921
-0.00428134
0.00263097
-0.00395565
0.00221783
-0.00347705
0.00179945
-0.00291134
0.00139947
-0.00232057
0.00103931
-0.00176121
0.000738079
-0.00127565
0.000509437
-0.000885937
0.000351445
-0.000581851
0.000255751
-0.000348624
0.000206435
-0.000156465
0.000190482
1.32846e-05
0.000197714
0.000170704
0.000220082
0.000322731
0.000252768
0.000473932
0.000292606
0.000627111
0.000337172
0.000784119
0.000384132
0.00094655
0.000431212
0.00111715
0.000471423
0.00130751
0.000446387
0.00161584
0.000187365
0.00222564
-0.000117015
0.00301768
-0.000285974
0.00414826
0.00500008
0.00145663
0.00274562
0.00274796
0.00517274
0.00343222
0.00483241
0.00371833
0.00381664
0.00381668
0.00278741
0.00384443
0.00180639
0.00387995
0.000871497
0.00394842
-1.86619e-05
0.00405775
-0.000882684
0.00419709
-0.001732
0.00431509
-0.0025382
0.00434119
-0.00322895
0.0042239
-0.0037248
0.00395103
-0.00397916
0.00354509
-0.00398904
0.00304598
-0.00378224
0.00249783
-0.00340751
0.00193956
-0.00291878
0.00140541
-0.00237719
0.000922221
-0.00183739
0.000516546
-0.00135554
0.000205706
-0.000964807
-5.59517e-06
-0.000674635
-0.000133831
-0.000453615
-0.000203009
-0.000279447
-0.000233262
-0.000126212
-0.000235802
1.58241e-05
-0.000217709
0.000152611
-0.000183997
0.000289019
-0.000138574
0.000428509
-8.54516e-05
0.000573988
-2.95224e-05
0.000728189
2.27603e-05
0.000894267
6.35702e-05
0.00107634
7.48345e-05
0.00129625
-2.8546e-05
0.00171915
-0.000273387
0.00247017
-0.000270381
0.00301414
-0.000183105
0.00406053
0.00494419
0.00217013
0.000801444
0.00294301
0.00439986
0.00359439
0.00418102
0.00416499
0.00324604
0.00449277
0.00245962
0.00466681
0.00163235
0.00478312
0.000755188
0.00488706
-0.000122605
0.00499247
-0.000988085
0.0050695
-0.00180902
0.00505261
-0.0025213
0.0048817
-0.00305803
0.00453429
-0.00337739
0.00402932
-0.00347419
0.00341196
-0.00337169
0.00273342
-0.0031037
0.00204285
-0.00271695
0.00137873
-0.00225467
0.000780365
-0.00177883
0.000274228
-0.00133125
-0.000104218
-0.000977093
-0.000352546
-0.000716476
-0.000499524
-0.000527656
-0.000581363
-0.000371775
-0.000625558
-0.000235252
-0.000642999
-0.000108773
-0.000638634
1.14575e-05
-0.000615234
0.00012921
-0.000575032
0.000248816
-0.000521191
0.000374668
-0.000458837
0.000511633
-0.000396168
0.00066552
-0.00034667
0.000844769
-0.000335569
0.00106524
-0.000414871
0.00137559
-0.000657979
0.00196234
-0.0011194
0.00293152
-0.00179823
0.00369267
-0.00181484
0.00407679
0.00327082
-0.00157429
0.00262089
0.00112062
0.00170494
0.00335235
0.00194929
0.00435543
0.00224296
0.00485968
0.00195537
0.00517411
0.00131792
0.00540153
0.000527769
0.00557845
-0.000299511
0.00567666
-0.00108627
0.00563402
-0.00176636
0.00539953
-0.00228678
0.00496133
-0.00261982
0.0043472
-0.00276326
0.0036103
-0.00273729
0.00281145
-0.00257283
0.00200156
-0.00229382
0.00123033
-0.00194572
0.000529643
-0.00155399
-5.13134e-05
-0.00119787
-0.000472367
-0.000910191
-0.000734399
-0.000715054
-0.000886076
-0.000564793
-0.000975461
-0.000438266
-0.00102717
-0.000320069
-0.00105528
-0.000207145
-0.00106448
-9.95712e-05
-0.0010557
2.66439e-06
-0.00102851
0.000102019
-0.000982888
0.000203195
-0.000921019
0.000312798
-0.000848204
0.000438818
-0.000774118
0.000591432
-0.000715114
0.000785764
-0.000699818
0.00104996
-0.000773761
0.00144963
-0.000948548
0.00213743
-0.00128693
0.00327032
-0.00219939
0.00460546
-0.00255797
0.00443564
0.000868896
0.00288265
0.0045724
0.00487317
0.00164852
0.00536048
0.00175565
0.00559734
0.00171851
0.00582829
0.00108698
0.00601461
0.000341453
0.00608006
-0.000364923
0.00595316
-0.000959322
0.00560013
-0.00141329
0.00503316
-0.00171978
0.00429896
-0.00188559
0.00345573
-0.00192003
0.002563
-0.00184455
0.00167733
-0.00168717
0.000833621
-0.00145011
7.71281e-05
-0.00118922
-0.000531161
-0.000945697
-0.000952081
-0.000776943
-0.00120822
-0.000654038
-0.00136112
-0.000562131
-0.00145092
-0.000474979
-0.001506
-0.000383186
-0.00153962
-0.000286459
-0.00155742
-0.000189352
-0.00156058
-9.64283e-05
-0.0015481
-9.83216e-06
-0.00151796
7.18738e-05
-0.00146839
0.000153625
-0.00139957
0.000243979
-0.00131448
0.000353726
-0.00121916
0.000496109
-0.00112237
0.000688949
-0.00103353
0.000961094
-0.000953244
0.00136939
-0.000832785
0.00201724
-0.00055497
0.00299302
-0.000184769
0.00423569
0.000209741
0.00404159
0.00124231
0.00793222
0.00536467
0.00581285
0.00387499
0.00556515
0.00196618
0.00563672
0.00101541
0.00560174
0.000376459
0.00535927
-0.000122408
0.00489649
-0.000496499
0.00425287
-0.000769636
0.00348159
-0.000948478
0.00263585
-0.00103984
0.00175725
-0.00104142
0.000884827
-0.000972119
5.69669e-05
-0.000859304
-0.000662217
-0.000730928
-0.00121274
-0.000638687
-0.00158615
-0.000572271
-0.0018256
-0.000537469
-0.0019704
-0.000509195
-0.0020619
-0.000470596
-0.00212318
-0.000413685
-0.00216569
-0.000340675
-0.00219415
-0.000258029
-0.0022103
-0.000173241
-0.00221429
-9.24849e-05
-0.00220505
-1.91097e-05
-0.00218021
4.70248e-05
-0.0021369
0.00011032
-0.002072
0.000179091
-0.00198209
0.000263821
-0.0018627
0.000376702
-0.00170765
0.000533836
-0.00150578
0.000759101
-0.00122627
0.00108975
-0.000789723
0.00158067
-8.72141e-05
0.00229074
0.000823002
0.00332579
0.00136509
0.00349991
0.00277812
0.00409208
0.00151914
0.00449365
0.00347341
0.00372611
0.00273371
0.0032287
0.00151283
0.00288876
0.000716439
0.00252584
0.000240557
0.00207938
-5.00258e-05
0.00153635
-0.000226599
0.000915553
-0.000327686
0.000235026
-0.000359319
-0.000464671
-0.000341726
-0.00112083
-0.000315966
-0.00167796
-0.000302182
-0.00210104
-0.00030784
-0.00239745
-0.000342244
-0.00258623
-0.000383434
-0.00270898
-0.000414656
-0.00279664
-0.000421468
-0.00286694
-0.000400252
-0.00292622
-0.000354395
-0.00297564
-0.000291292
-0.00301437
-0.000219379
-0.00304139
-0.000146324
-0.00305619
-7.77755e-05
-0.00305918
-1.61856e-05
-0.00304931
3.71367e-05
-0.00302224
8.32809e-05
-0.00297152
0.000128429
-0.002887
0.000179375
-0.0027544
0.000244122
-0.00255549
0.000334855
-0.00226645
0.000469887
-0.00184711
0.000670135
-0.00122275
0.000955988
-0.000300122
0.00136788
0.000954041
0.00207165
0.00165896
0.0027951
0.00461562
-0.00263111
-0.00680341
-0.00742438
-0.00747496
-0.00375406
-0.00215112
-0.00168081
0.00140018
-0.000766643
0.00181956
-0.000564099
0.00131031
-0.00063969
0.00079204
-0.000822969
0.000423836
-0.00106385
0.000190846
-0.00135605
6.55915e-05
-0.00170301
1.92467e-05
-0.00208098
1.86273e-05
-0.00245487
3.2134e-05
-0.00279874
2.78833e-05
-0.00308602
-1.48919e-05
-0.00328617
-0.000107652
-0.00340908
-0.000219251
-0.00348755
-0.00030487
-0.00355243
-0.000349669
-0.00361835
-0.000355468
-0.00368857
-0.000330011
-0.00376102
-0.000281975
-0.00383227
-0.000220138
-0.00389854
-0.000153259
-0.00395544
-8.95957e-05
-0.00399753
-3.58493e-05
-0.00401792
4.09966e-06
-0.00401624
3.54356e-05
-0.00399516
6.22509e-05
-0.00395318
8.65811e-05
-0.00388326
0.000109616
-0.00377161
0.000132631
-0.00359631
0.000159634
-0.00332457
0.000198116
-0.00290149
0.000246864
-0.00222419
0.000278353
-0.00120977
0.000352999
-1.09516e-05
0.000872358
0.000574483
0.00220934
0.00538223
-0.00737737
0.00102757
-0.00814219
-0.00671009
-0.0071888
-0.00310446
-0.00566509
-0.000123495
-0.00457207
0.000726553
-0.0039802
0.000718434
-0.00372031
0.000532126
-0.00365247
0.000355941
-0.00369314
0.000231454
-0.00378654
0.00015892
-0.00389127
0.000123918
-0.00397964
0.000106941
-0.00403738
8.98479e-05
-0.00406824
5.87493e-05
-0.00409043
7.34521e-06
-0.00412091
-7.70836e-05
-0.00417225
-0.000167792
-0.00424647
-0.000230524
-0.00433998
-0.000256048
-0.0044443
-0.0002511
-0.00454902
-0.000225305
-0.0046446
-0.000186498
-0.00472421
-0.000140705
-0.00478433
-9.33566e-05
-0.00482397
-5.01811e-05
-0.00484333
-1.66964e-05
-0.00484225
2.89155e-06
-0.00481728
1.04112e-05
-0.00477202
1.70399e-05
-0.00470704
2.17268e-05
-0.00461784
2.06168e-05
-0.00449343
8.45721e-06
-0.00431514
-1.84128e-05
-0.0040586
-5.81849e-05
-0.00369886
-0.000112673
-0.00318057
-0.000239776
-0.00226807
-0.000559408
-0.000584617
-0.000811153
0.000227545
0.00139689
0.00581318
0.0015693
-0.00507621
-0.00811774
-0.00818214
-0.0074016
-0.00663697
-0.0060653
-0.0056745
-0.00541114
-0.00522188
-0.00506819
-0.00493128
-0.00481075
-0.00472046
-0.00468089
-0.00472556
-0.00486113
-0.00505991
-0.00528484
-0.00550545
-0.00570078
-0.00585768
-0.00596899
-0.00603302
-0.00605388
-0.00604125
-0.00600911
-0.00596965
-0.00592395
-0.00587416
-0.00582627
-0.00579151
-0.0057848
-0.00581919
-0.0059096
-0.00612878
-0.00666933
-0.00746319
-0.00605023
)
;

boundaryField
{
    floor
    {
        type            calculated;
        value           nonuniform List<scalar> 
36
(
0
0
0
0
0
0
0
0
0
0
0
0
0
0
0
0
0
0
0
-6.43906e-06
-1.68856e-05
-2.60359e-05
-3.43162e-05
-3.49317e-05
-2.86271e-05
-2.86438e-05
-2.92005e-06
-5.44174e-06
-5.68799e-06
-5.90826e-06
-4.85362e-06
-8.93916e-06
-1.02126e-05
-1.28343e-05
-1.44573e-05
-1.5445e-05
)
;
    }
    ceiling
    {
        type            calculated;
        value           nonuniform List<scalar> 
43
(
-5.78543e-05
-6.45299e-05
-6.2882e-05
-5.90821e-05
-5.39866e-05
-4.62267e-05
-3.96138e-05
-3.4943e-05
-3.20096e-05
-3.0428e-05
-2.98534e-05
-3.0026e-05
-3.06905e-05
-3.15196e-05
-3.21489e-05
-3.2319e-05
-3.20984e-05
-3.16313e-05
-3.10536e-05
-3.04931e-05
-3.00422e-05
-2.97414e-05
-2.9583e-05
-2.95255e-05
-2.95104e-05
-2.94718e-05
-2.93434e-05
-2.90667e-05
-2.86019e-05
-2.79334e-05
-2.70648e-05
-2.60106e-05
-2.4789e-05
-2.34147e-05
-2.19048e-05
-2.0304e-05
-1.87272e-05
-1.73632e-05
-1.63666e-05
-1.66421e-05
1.93413e-05
1.51866e-05
-0.000246549
)
;
    }
    sWall
    {
        type            calculated;
        value           nonuniform List<scalar> 9(-0.000140237 -0.000164519 -0.000194243 -0.000225956 -0.000245158 -0.000281091 -0.000423686 -0.000453544 -0.00048385);
    }
    nWall
    {
        type            calculated;
        value           nonuniform List<scalar> 
14
(
-9.02541e-05
-9.76147e-05
-0.000102871
-0.000103744
-0.000114693
-0.000127236
-0.000141559
-0.000155852
-0.0001631
-0.000170454
-0.00017849
-0.000192313
-0.000203765
-0.000220865
)
;
    }
    sideWalls
    {
        type            empty;
        value           nonuniform 0();
    }
    glass1
    {
        type            calculated;
        value           nonuniform List<scalar> 9(-6.40348e-05 -0.000170323 -0.000257926 -0.000331212 -0.000393198 -0.000446406 -0.00049222 -0.000535502 -0.00058718);
    }
    glass2
    {
        type            calculated;
        value           nonuniform List<scalar> 2(-0.00036584 -0.00038508);
    }
    sun
    {
        type            calculated;
        value           uniform 0;
    }
    Table_master
    {
        type            calculated;
        value           nonuniform List<scalar> 9(-1.53995e-07 -1.54112e-07 -1.54144e-07 -1.54164e-07 -1.54177e-07 -1.54182e-07 -1.5418e-07 -1.54166e-07 -1.54113e-07);
    }
    Table_slave
    {
        type            calculated;
        value           nonuniform List<scalar> 9(1.53663e-07 1.5372e-07 1.5372e-07 1.53736e-07 1.53757e-07 1.53801e-07 1.53869e-07 1.53962e-07 1.5409e-07);
    }
    inlet
    {
        type            calculated;
        value           uniform -0.0116484;
    }
    outlet
    {
        type            calculated;
        value           nonuniform List<scalar> 2(0.00985826 0.0122683);
    }
}


// ************************************************************************* //
