/*--------------------------------*- C++ -*----------------------------------*\
  =========                 |
  \\      /  F ield         | OpenFOAM: The Open Source CFD Toolbox
   \\    /   O peration     | Website:  https://openfoam.org
    \\  /    A nd           | Version:  6
     \\/     M anipulation  |
\*---------------------------------------------------------------------------*/
FoamFile
{
    version     2.0;
    format      ascii;
    class       volVectorField;
    location    "34199.9999979803324";
    object      U;
}
// * * * * * * * * * * * * * * * * * * * * * * * * * * * * * * * * * * * * * //

dimensions      [0 1 -1 0 0 0 0];

internalField   nonuniform List<vector> 
778
(
(0.0655962 0.07941 0)
(-0.155179 0.0157701 0)
(-0.164316 0.0146315 0)
(-0.192444 0.0122822 0)
(-0.216893 0.00873145 0)
(-0.236966 0.00474881 0)
(-0.252103 0.000419153 0)
(-0.261881 -0.00436974 0)
(-0.265782 -0.00981602 0)
(-0.262805 -0.0161997 0)
(-0.250994 -0.0242764 0)
(-0.226284 -0.0348977 0)
(-0.186149 -0.0504212 0)
(-0.144209 -0.0751949 0)
(-0.150118 -0.108593 0)
(0.0546169 0.0354485 0)
(0.0156891 -0.0268416 0)
(0.0448324 -0.0232363 0)
(0.0691804 -0.0161344 0)
(0.0841917 -0.0103332 0)
(0.0913706 -0.00640895 0)
(0.0941984 -0.00433704 0)
(0.0952356 -0.00331418 0)
(0.0956899 -0.0027262 0)
(0.0958573 -0.00231299 0)
(0.0957284 -0.00194933 0)
(0.0952002 -0.00151063 0)
(0.0939449 -0.000759362 0)
(0.0911062 0.00084063 0)
(0.0849195 0.00405622 0)
(0.0734156 0.00774964 0)
(0.0598215 0.0115768 0)
(-0.00801811 0.0299403 0)
(0.258392 0.167397 0)
(-0.161237 0.048402 0)
(-0.141617 0.0459958 0)
(-0.174032 0.0416331 0)
(-0.199408 0.0356871 0)
(-0.220143 0.0291471 0)
(-0.236185 0.0220723 0)
(-0.247447 0.0142366 0)
(-0.253629 0.00529728 0)
(-0.253948 -0.00515971 0)
(-0.247791 -0.0170963 0)
(-0.234081 -0.030868 0)
(-0.21417 -0.0480951 0)
(-0.197594 -0.069981 0)
(-0.194079 -0.0826705 0)
(-0.166452 -0.0425996 0)
(-0.105365 -0.0364292 0)
(-0.0983441 -0.0445137 0)
(0.109327 -0.041984 0)
(0.0644251 -0.0410686 0)
(0.0718061 -0.0321808 0)
(0.0857258 -0.0206341 0)
(0.0935658 -0.0103968 0)
(0.0957652 -0.00362181 0)
(0.0955201 -0.000198491 0)
(0.0951366 0.00124899 0)
(0.0951034 0.00190138 0)
(0.0951851 0.00227619 0)
(0.0951916 0.0025955 0)
(0.0950905 0.00313286 0)
(0.0947992 0.00440776 0)
(0.0935435 0.00771381 0)
(0.0879535 0.0167276 0)
(0.0742204 0.0252724 0)
(0.0629523 0.032839 0)
(-0.052154 0.0634398 0)
(0.42997 0.253962 0)
(-0.194233 0.0847758 0)
(-0.112791 0.0784571 0)
(-0.148267 0.066985 0)
(-0.170711 0.0555313 0)
(-0.188817 0.0437571 0)
(-0.202666 0.0313689 0)
(-0.212367 0.0180235 0)
(-0.217724 0.00340368 0)
(-0.218084 -0.0126391 0)
(-0.212826 -0.0303412 0)
(-0.201719 -0.0499317 0)
(-0.186079 -0.0715936 0)
(-0.16955 -0.0932372 0)
(-0.151187 -0.104592 0)
(-0.120349 -0.0931797 0)
(-0.0796524 -0.0949976 0)
(-0.0715929 -0.107656 0)
(0.0920454 -0.0880417 0)
(0.0624865 -0.0656173 0)
(0.0742556 -0.0459864 0)
(0.0878442 -0.0290989 0)
(0.0946149 -0.0147459 0)
(0.091653 -0.0119588 0)
(0.0874301 -0.00795345 0)
(0.0850659 -0.00579891 0)
(0.0843672 -0.00457109 0)
(0.0843431 -0.00380112 0)
(0.0846032 -0.0032247 0)
(0.0852588 -0.00259796 0)
(0.087019 -0.00144168 0)
(0.091695 0.00291194 0)
(0.0898363 0.0250738 0)
(0.0730299 0.042262 0)
(0.0698611 0.0572623 0)
(-0.0903619 0.100624 0)
(0.578536 0.325851 0)
(-0.240101 0.121832 0)
(-0.0808465 0.109256 0)
(-0.121597 0.0898933 0)
(-0.13904 0.0741122 0)
(-0.153112 0.0586776 0)
(-0.163883 0.0427883 0)
(-0.171487 0.0258331 0)
(-0.175704 0.00720658 0)
(-0.175773 -0.013538 0)
(-0.171083 -0.0364875 0)
(-0.161516 -0.0614751 0)
(-0.147655 -0.0873849 0)
(-0.130693 -0.110304 0)
(-0.109755 -0.123204 0)
(-0.0822978 -0.124556 0)
(-0.0527106 -0.126403 0)
(-0.033602 -0.123194 0)
(0.0160442 -0.0567969 0)
(0.0606059 -0.0929523 0)
(0.0682981 -0.0790534 0)
(0.0789394 -0.058668 0)
(0.0914404 -0.0394103 0)
(0.1028 -0.0207379 0)
(0.115538 -0.0131066 0)
(0.126626 -0.00877001 0)
(0.132168 -0.00558388 0)
(0.133114 -0.00308819 0)
(0.130566 -0.00086926 0)
(0.125085 0.00129839 0)
(0.116542 0.00367899 0)
(0.104171 0.00673285 0)
(0.0849069 0.0111586 0)
(0.0710458 0.0368163 0)
(0.0597472 0.0604509 0)
(0.0759209 0.0830765 0)
(-0.118386 0.136582 0)
(0.705718 0.383693 0)
(-0.287676 0.157032 0)
(-0.0477076 0.133823 0)
(-0.0963141 0.106969 0)
(-0.107773 0.0876518 0)
(-0.116818 0.0692304 0)
(-0.123619 0.0504981 0)
(-0.128289 0.0306247 0)
(-0.130656 0.00874136 0)
(-0.129853 -0.0158231 0)
(-0.125353 -0.0430933 0)
(-0.116729 -0.0726972 0)
(-0.104015 -0.10282 0)
(-0.0875601 -0.129058 0)
(-0.0676278 -0.145751 0)
(-0.0443083 -0.152241 0)
(-0.0204649 -0.152368 0)
(5.00535e-05 -0.143735 0)
(0.0305815 -0.114975 0)
(0.0567632 -0.109294 0)
(0.0703636 -0.0923264 0)
(0.0805222 -0.0711181 0)
(0.0905938 -0.0506418 0)
(0.100155 -0.0326017 0)
(0.109244 -0.0192695 0)
(0.116225 -0.00992279 0)
(0.119603 -0.00324587 0)
(0.11976 0.0019913 0)
(0.117316 0.006521 0)
(0.112641 0.0108587 0)
(0.10576 0.0155178 0)
(0.0966018 0.0212014 0)
(0.0846563 0.0292069 0)
(0.0730642 0.0472156 0)
(0.0624799 0.0712141 0)
(0.0939792 0.0991749 0)
(0.015685 0.137766 0)
(0.0949635 0.182994 0)
(0.141224 0.145472 0)
(-0.222804 0.203107 0)
(0.810433 0.431988 0)
(-0.331317 0.190704 0)
(-0.017322 0.1503 0)
(-0.0733903 0.117583 0)
(-0.0786226 0.0955824 0)
(-0.0822569 0.0750172 0)
(-0.0845246 0.0544079 0)
(-0.0855746 0.0327698 0)
(-0.0853293 0.00888952 0)
(-0.082661 -0.0184043 0)
(-0.0774951 -0.0490319 0)
(-0.0688687 -0.0824996 0)
(-0.0568773 -0.116475 0)
(-0.0418307 -0.146246 0)
(-0.0248438 -0.165938 0)
(-0.00646973 -0.174452 0)
(0.0119162 -0.172726 0)
(0.0278191 -0.160994 0)
(0.04598 -0.139301 0)
(0.0624328 -0.122296 0)
(0.0731119 -0.102404 0)
(0.0807983 -0.0803116 0)
(0.0875556 -0.0589381 0)
(0.0937253 -0.0400518 0)
(0.0990308 -0.0248929 0)
(0.10268 -0.0135611 0)
(0.10424 -0.00489606 0)
(0.10377 0.00226648 0)
(0.101586 0.00870286 0)
(0.097935 0.0149352 0)
(0.092974 0.0214971 0)
(0.0869269 0.0290304 0)
(0.0800385 0.0384577 0)
(0.0742218 0.0529306 0)
(0.0688108 0.0729723 0)
(0.0906486 0.0986543 0)
(0.0719923 0.107149 0)
(0.088361 0.0472474 0)
(0.146181 -0.0381545 0)
(-0.330854 0.106905 0)
(0.879927 0.474699 0)
(-0.368643 0.220991 0)
(0.00372677 0.155621 0)
(-0.0526838 0.121646 0)
(-0.0522377 0.0979371 0)
(-0.0510726 0.0759093 0)
(-0.0490846 0.0541252 0)
(-0.0465833 0.0316002 0)
(-0.0434119 0.0068161 0)
(-0.037463 -0.0222785 0)
(-0.0303949 -0.0553625 0)
(-0.0206161 -0.0919241 0)
(-0.00881139 -0.128847 0)
(0.00439705 -0.161159 0)
(0.0174741 -0.181811 0)
(0.0302693 -0.190159 0)
(0.04208 -0.187192 0)
(0.0523807 -0.174392 0)
(0.0623449 -0.15403 0)
(0.0709173 -0.13235 0)
(0.0764399 -0.10929 0)
(0.0798952 -0.0857398 0)
(0.0824792 -0.0635198 0)
(0.0846895 -0.0439937 0)
(0.0864817 -0.0278916 0)
(0.0875241 -0.0151151 0)
(0.0876033 -0.00488137 0)
(0.0865749 0.00373249 0)
(0.0846413 0.0114113 0)
(0.0819506 0.0186848 0)
(0.0786805 0.0260655 0)
(0.0751056 0.0340747 0)
(0.0716102 0.0432961 0)
(0.0695256 0.0550536 0)
(0.0681351 0.0697447 0)
(0.080749 0.0890276 0)
(0.0829939 0.0922673 0)
(0.0873944 0.0538828 0)
(0.180936 0.0230548 0)
(-0.283987 0.153596 0)
(0.927996 0.517151 0)
(-0.383179 0.234207 0)
(0.016921 0.133062 0)
(-0.0273472 0.11675 0)
(-0.0265791 0.095023 0)
(-0.0227892 0.0725328 0)
(-0.0176982 0.0502023 0)
(-0.0124427 0.0273328 0)
(-0.0055205 0.00193537 0)
(0.00446184 -0.0307125 0)
(0.014167 -0.0653143 0)
(0.0254579 -0.103307 0)
(0.0370991 -0.140802 0)
(0.0477856 -0.172058 0)
(0.0568933 -0.192251 0)
(0.0643966 -0.199751 0)
(0.070124 -0.195348 0)
(0.0740782 -0.181162 0)
(0.0767741 -0.160069 0)
(0.0781294 -0.136045 0)
(0.0777619 -0.110983 0)
(0.0762436 -0.0863992 0)
(0.0743991 -0.0637784 0)
(0.0727487 -0.0441341 0)
(0.0714283 -0.0278551 0)
(0.0703068 -0.0146636 0)
(0.0691991 -0.00386148 0)
(0.0678179 0.00533145 0)
(0.0662964 0.0134991 0)
(0.0646115 0.0211373 0)
(0.0628529 0.0286893 0)
(0.0612124 0.0365377 0)
(0.059985 0.0450222 0)
(0.06 0.054691 0)
(0.0609817 0.0656088 0)
(0.0692967 0.0794185 0)
(0.0776212 0.0832082 0)
(0.074655 0.0615032 0)
(0.239408 0.0490239 0)
(-0.558999 0.229132 0)
(1.01134 0.506824 0)
(-0.137375 0.296355 0)
(0.0410809 0.161562 0)
(0.0405579 0.122167 0)
(0.0130423 0.0920737 0)
(0.00861969 0.0654739 0)
(0.0140263 0.0414963 0)
(0.0206307 0.0170702 0)
(0.0324182 -0.0109577 0)
(0.0438664 -0.0421138 0)
(0.0557212 -0.0768906 0)
(0.0679891 -0.114612 0)
(0.0791279 -0.151052 0)
(0.0876399 -0.180495 0)
(0.0928753 -0.198519 0)
(0.0949394 -0.203699 0)
(0.0942382 -0.19707 0)
(0.0913198 -0.18104 0)
(0.0868629 -0.158641 0)
(0.0813197 -0.133184 0)
(0.0749819 -0.107099 0)
(0.0684437 -0.082219 0)
(0.0624206 -0.0599139 0)
(0.0574253 -0.0409249 0)
(0.0536455 -0.0253554 0)
(0.0509842 -0.012721 0)
(0.0491843 -0.00225092 0)
(0.0478494 0.0067488 0)
(0.0469805 0.0147813 0)
(0.0463573 0.0222988 0)
(0.0459463 0.029656 0)
(0.0458175 0.0371068 0)
(0.0461274 0.0448278 0)
(0.0473256 0.0530351 0)
(0.049302 0.0616835 0)
(0.0549008 0.0716754 0)
(0.0616766 0.0739737 0)
(0.0484054 0.0500682 0)
(0.293812 0.070634 0)
(-0.793033 0.298454 0)
(0.779367 0.39576 0)
(0.000681216 0.31951 0)
(0.0933493 0.218933 0)
(0.110557 0.155212 0)
(0.0771169 0.106886 0)
(0.0597428 0.0676279 0)
(0.058156 0.0358511 0)
(0.0623084 0.00649622 0)
(0.0737156 -0.0233694 0)
(0.08527 -0.0550031 0)
(0.0974497 -0.0897345 0)
(0.109305 -0.126245 0)
(0.118678 -0.160014 0)
(0.123791 -0.185716 0)
(0.124039 -0.199788 0)
(0.119842 -0.201393 0)
(0.112147 -0.191888 0)
(0.102029 -0.173811 0)
(0.0905284 -0.150177 0)
(0.0784888 -0.124014 0)
(0.0665983 -0.0978508 0)
(0.0555814 -0.0736116 0)
(0.0461559 -0.0525643 0)
(0.0387817 -0.0351688 0)
(0.0335554 -0.0212392 0)
(0.0302492 -0.0100181 0)
(0.0284168 -0.000602879 0)
(0.0275997 0.00763056 0)
(0.0275528 0.0151286 0)
(0.0279495 0.0222723 0)
(0.0286708 0.029305 0)
(0.0296793 0.036369 0)
(0.0309846 0.0435431 0)
(0.0327097 0.0509248 0)
(0.034517 0.0586013 0)
(0.0366947 0.0676695 0)
(0.0281291 0.074628 0)
(0.0169814 0.0885078 0)
(0.122535 0.159739 0)
(-0.664463 0.291324 0)
(0.617303 0.220926 0)
(0.00455398 0.298149 0)
(0.11301 0.24156 0)
(0.148275 0.177577 0)
(0.130833 0.12355 0)
(0.117807 0.0778947 0)
(0.114934 0.0389643 0)
(0.117084 0.00347471 0)
(0.123427 -0.0306455 0)
(0.131634 -0.0649543 0)
(0.141305 -0.100468 0)
(0.150173 -0.135351 0)
(0.155301 -0.165225 0)
(0.154759 -0.185762 0)
(0.148227 -0.194661 0)
(0.136601 -0.191943 0)
(0.121347 -0.179349 0)
(0.103973 -0.159439 0)
(0.0858526 -0.135111 0)
(0.0680944 -0.109142 0)
(0.0516444 -0.0839985 0)
(0.0373618 -0.0615486 0)
(0.0259793 -0.0429071 0)
(0.017758 -0.0281423 0)
(0.0124835 -0.0167003 0)
(0.00953719 -0.00746699 0)
(0.00819886 0.000504303 0)
(0.00815842 0.00772463 0)
(0.00886241 0.0145585 0)
(0.0100785 0.0212627 0)
(0.0116603 0.0279758 0)
(0.0134934 0.03477 0)
(0.0154637 0.0416838 0)
(0.0175229 0.048801 0)
(0.0196062 0.0564579 0)
(0.0214328 0.0669517 0)
(0.0054902 0.0862352 0)
(-0.00526172 0.12072 0)
(0.187953 0.17413 0)
(-0.567878 0.226623 0)
(0.57077 0.118589 0)
(-0.0203565 0.258661 0)
(0.113731 0.229897 0)
(0.165074 0.17608 0)
(0.166731 0.12623 0)
(0.164381 0.0811705 0)
(0.16535 0.0400627 0)
(0.168232 0.0017267 0)
(0.172177 -0.0352993 0)
(0.177732 -0.0718367 0)
(0.183885 -0.107523 0)
(0.187563 -0.139586 0)
(0.185749 -0.164154 0)
(0.177064 -0.178414 0)
(0.161951 -0.181574 0)
(0.141948 -0.174526 0)
(0.118999 -0.159306 0)
(0.0948679 -0.138338 0)
(0.0711561 -0.114327 0)
(0.0490997 -0.0897547 0)
(0.0298683 -0.0669886 0)
(0.0144267 -0.0477569 0)
(0.00335985 -0.0328445 0)
(-0.00377561 -0.0214695 0)
(-0.00768067 -0.0129549 0)
(-0.00966523 -0.00573502 0)
(-0.0103228 0.00083894 0)
(-0.00988564 0.00708884 0)
(-0.0087322 0.0132538 0)
(-0.00699926 0.0194838 0)
(-0.00484027 0.0258784 0)
(-0.00244301 0.0325132 0)
(-6.33329e-05 0.0394653 0)
(0.00207187 0.0468166 0)
(0.00412568 0.0549862 0)
(0.0033888 0.0694909 0)
(-0.0189276 0.100154 0)
(-0.0205779 0.130529 0)
(0.169985 0.179166 0)
(-0.531431 0.209394 0)
(0.62836 0.053831 0)
(0.00921206 0.197335 0)
(0.113865 0.196956 0)
(0.17518 0.15796 0)
(0.191426 0.117747 0)
(0.198067 0.0773616 0)
(0.203374 0.0373848 0)
(0.208549 -0.00138779 0)
(0.213023 -0.0395482 0)
(0.217313 -0.0764351 0)
(0.219115 -0.109873 0)
(0.215264 -0.136697 0)
(0.203869 -0.154304 0)
(0.185014 -0.161705 0)
(0.160317 -0.159467 0)
(0.131946 -0.148998 0)
(0.102168 -0.13238 0)
(0.0727128 -0.111692 0)
(0.0453818 -0.0894482 0)
(0.021377 -0.0678144 0)
(0.00226217 -0.0490932 0)
(-0.0111567 -0.0347691 0)
(-0.0190742 -0.0248615 0)
(-0.0236808 -0.0172076 0)
(-0.0261971 -0.0107557 0)
(-0.0274403 -0.00487136 0)
(-0.0276911 0.000695731 0)
(-0.0270557 0.00613261 0)
(-0.0256716 0.0116256 0)
(-0.0236192 0.0173293 0)
(-0.0210637 0.023397 0)
(-0.0182844 0.0299972 0)
(-0.0157726 0.0373507 0)
(-0.0141656 0.0458432 0)
(-0.0140374 0.0571278 0)
(-0.0214194 0.079855 0)
(-0.0486966 0.117486 0)
(-0.0439554 0.146405 0)
(0.0310393 0.180254 0)
(-0.534067 0.185667 0)
(0.472984 0.0748381 0)
(-0.132111 0.137577 0)
(0.0943068 0.133285 0)
(0.172804 0.116821 0)
(0.203905 0.0954066 0)
(0.21817 0.0644974 0)
(0.22812 0.0285201 0)
(0.237155 -0.00881797 0)
(0.243513 -0.0451806 0)
(0.245008 -0.0781483 0)
(0.239013 -0.105037 0)
(0.224163 -0.123778 0)
(0.200968 -0.133516 0)
(0.171338 -0.134709 0)
(0.137864 -0.128629 0)
(0.102857 -0.116558 0)
(0.0686893 -0.100383 0)
(0.0365788 -0.081708 0)
(0.00899549 -0.0630439 0)
(-0.0133668 -0.0462593 0)
(-0.0272298 -0.034786 0)
(-0.0356421 -0.0265982 0)
(-0.0404457 -0.0202163 0)
(-0.0432613 -0.0145778 0)
(-0.0448717 -0.00935057 0)
(-0.0456416 -0.00439148 0)
(-0.0456308 0.000354167 0)
(-0.044869 0.00500817 0)
(-0.0433105 0.00976201 0)
(-0.0409786 0.0148494 0)
(-0.0380246 0.0205426 0)
(-0.0347602 0.027177 0)
(-0.0318115 0.0352511 0)
(-0.0301253 0.0457639 0)
(-0.0299377 0.0615873 0)
(-0.0342958 0.0906029 0)
(-0.0555647 0.136759 0)
(-0.0468655 0.176449 0)
(-0.0228517 0.169734 0)
(-0.562528 0.0797437 0)
(0.724202 0.134493 0)
(0.0818447 0.115274 0)
(0.149798 0.099201 0)
(0.222461 0.0804874 0)
(0.244118 0.0699892 0)
(0.248896 0.0477949 0)
(0.255161 0.0177203 0)
(0.261259 -0.0145294 0)
(0.260281 -0.0445677 0)
(0.249788 -0.0694271 0)
(0.22952 -0.0873773 0)
(0.201035 -0.0979422 0)
(0.166693 -0.101426 0)
(0.129045 -0.0988529 0)
(0.0906334 -0.0915279 0)
(0.0529391 -0.0801472 0)
(0.0188348 -0.0664227 0)
(-0.0121149 -0.0514968 0)
(-0.0336548 -0.040029 0)
(-0.0477714 -0.0319304 0)
(-0.0560276 -0.0263807 0)
(-0.0608663 -0.0217681 0)
(-0.0637543 -0.0173674 0)
(-0.065541 -0.0129065 0)
(-0.0665894 -0.00847699 0)
(-0.0670223 -0.00421409 0)
(-0.0668082 -0.000178185 0)
(-0.0659124 0.00371025 0)
(-0.0642412 0.00765949 0)
(-0.0617035 0.0119981 0)
(-0.058377 0.0171317 0)
(-0.0544523 0.0235752 0)
(-0.0503427 0.0320912 0)
(-0.0466245 0.0440348 0)
(-0.0423449 0.0621529 0)
(-0.034932 0.0919526 0)
(-0.0338928 0.13949 0)
(-0.0235447 0.197033 0)
(0.113864 0.188789 0)
(-0.464577 0.0369424 0)
(0.191862 0.0879645 0)
(0.225721 0.0997425 0)
(0.246513 0.0702166 0)
(0.242578 0.0400139 0)
(0.239758 0.0123996 0)
(0.234811 -0.0126149 0)
(0.220143 -0.0331195 0)
(0.196451 -0.0482705 0)
(0.166031 -0.058032 0)
(0.131316 -0.0628718 0)
(0.0940921 -0.063101 0)
(0.0563604 -0.0595158 0)
(0.0201721 -0.0530848 0)
(-0.0151086 -0.0440679 0)
(-0.0419482 -0.0359313 0)
(-0.0617451 -0.0296823 0)
(-0.0744978 -0.025968 0)
(-0.0823001 -0.0234823 0)
(-0.0870358 -0.0212368 0)
(-0.0901252 -0.0184836 0)
(-0.0922502 -0.0151631 0)
(-0.0937138 -0.0114831 0)
(-0.0946345 -0.00772879 0)
(-0.0950452 -0.00412556 0)
(-0.0949192 -0.000770271 0)
(-0.0941859 0.00239476 0)
(-0.0927958 0.00553361 0)
(-0.0905384 0.00900439 0)
(-0.0872971 0.0132982 0)
(-0.082892 0.0190116 0)
(-0.0771376 0.0269261 0)
(-0.0698161 0.0382213 0)
(-0.0595371 0.0548763 0)
(-0.0424155 0.0800018 0)
(-0.0207075 0.117423 0)
(-0.00192462 0.171773 0)
(0.167044 0.169127 0)
(-0.376031 0.0931543 0)
(0.450953 0.209671 0)
(0.205949 0.178698 0)
(0.152467 0.118767 0)
(0.139513 0.0640798 0)
(0.128307 0.0259813 0)
(0.114341 0.0019133 0)
(0.099069 -0.0127717 0)
(0.0779787 -0.0217875 0)
(0.0530684 -0.0272056 0)
(0.0254976 -0.0294396 0)
(-0.00503318 -0.0284189 0)
(-0.0347264 -0.0253234 0)
(-0.0609856 -0.0217704 0)
(-0.0825698 -0.0191852 0)
(-0.0979365 -0.01865 0)
(-0.10801 -0.019287 0)
(-0.114297 -0.0201997 0)
(-0.118548 -0.0202014 0)
(-0.121805 -0.0188994 0)
(-0.124529 -0.0163592 0)
(-0.126836 -0.0129113 0)
(-0.128709 -0.00898272 0)
(-0.1301 -0.00502696 0)
(-0.130975 -0.00145058 0)
(-0.131339 0.00148139 0)
(-0.1312 0.00371793 0)
(-0.130482 0.00563691 0)
(-0.12894 0.00764616 0)
(-0.126208 0.0101606 0)
(-0.121726 0.0136429 0)
(-0.114807 0.0187139 0)
(-0.104675 0.0262898 0)
(-0.0898813 0.0376191 0)
(-0.0673741 0.0541386 0)
(-0.0353733 0.0777386 0)
(5.18886e-05 0.116342 0)
(0.185837 0.13315 0)
(-0.360383 0.152387 0)
(0.358523 -0.416847 0)
(-0.346054 -0.512461 0)
(-0.218209 -0.0273057 0)
(-0.0933748 0.110956 0)
(-0.0538544 0.0925775 0)
(-0.0314154 0.0546224 0)
(-0.0264989 0.028508 0)
(-0.031422 0.0118549 0)
(-0.0402943 0.00119574 0)
(-0.0509895 -0.00561545 0)
(-0.0649482 -0.00957835 0)
(-0.0808167 -0.0115706 0)
(-0.0974126 -0.012929 0)
(-0.113222 -0.0151242 0)
(-0.127011 -0.0183194 0)
(-0.137676 -0.0215688 0)
(-0.144464 -0.0245615 0)
(-0.148487 -0.0267274 0)
(-0.151341 -0.0279804 0)
(-0.15406 -0.0283324 0)
(-0.156972 -0.0278924 0)
(-0.160048 -0.0268127 0)
(-0.163145 -0.0252696 0)
(-0.166109 -0.0233988 0)
(-0.168773 -0.0212334 0)
(-0.170917 -0.01869 0)
(-0.172288 -0.0156538 0)
(-0.172661 -0.0122062 0)
(-0.172174 -0.00891293 0)
(-0.170908 -0.00570298 0)
(-0.16865 -0.00240964 0)
(-0.16491 0.00118434 0)
(-0.158932 0.00551256 0)
(-0.149748 0.0113345 0)
(-0.135777 0.0193643 0)
(-0.113665 0.0296045 0)
(-0.078194 0.0426059 0)
(-0.0276488 0.0660982 0)
(0.170353 0.113522 0)
(-0.490573 0.218047 0)
(0.122178 -0.186272 0)
(-0.38856 -0.298036 0)
(-0.343475 -0.0963881 0)
(-0.265171 0.0515017 0)
(-0.211471 0.0833853 0)
(-0.179328 0.0744489 0)
(-0.163035 0.0610513 0)
(-0.156996 0.0512447 0)
(-0.157002 0.0463054 0)
(-0.160216 0.0459876 0)
(-0.164752 0.0494074 0)
(-0.169064 0.0553164 0)
(-0.172293 0.0623213 0)
(-0.174254 0.068585 0)
(-0.175369 0.0716692 0)
(-0.176331 0.0684659 0)
(-0.177987 0.0617487 0)
(-0.180671 0.0557063 0)
(-0.184353 0.0519235 0)
(-0.188714 0.0504707 0)
(-0.193307 0.0509025 0)
(-0.197681 0.0526695 0)
(-0.201472 0.0551734 0)
(-0.20446 0.0577325 0)
(-0.206574 0.0595825 0)
(-0.207838 0.0599895 0)
(-0.208243 0.0585111 0)
(-0.207644 0.055639 0)
(-0.206135 0.0525259 0)
(-0.203829 0.0491915 0)
(-0.200629 0.0455326 0)
(-0.196112 0.0414309 0)
(-0.189581 0.0367191 0)
(-0.180506 0.0310063 0)
(-0.168593 0.0230039 0)
(-0.152032 0.00889247 0)
(-0.122893 -0.0131843 0)
(-0.062337 -0.0243791 0)
(0.189229 0.0552223 0)
(-0.587535 0.250603 0)
(1.14909 -0.0109429 0)
(-0.297676 -0.323136 0)
(-0.353378 -0.232571 0)
(-0.353131 -0.148276 0)
(-0.329493 -0.107099 0)
(-0.298006 -0.0986105 0)
(-0.270874 -0.100792 0)
(-0.251109 -0.106351 0)
(-0.237626 -0.113617 0)
(-0.228238 -0.122511 0)
(-0.221016 -0.13346 0)
(-0.214758 -0.146847 0)
(-0.209071 -0.16227 0)
(-0.204251 -0.177947 0)
(-0.201184 -0.19053 0)
(-0.201205 -0.196234 0)
(-0.20529 -0.196125 0)
(-0.212817 -0.192654 0)
(-0.222238 -0.187316 0)
(-0.23206 -0.18129 0)
(-0.241173 -0.175388 0)
(-0.248848 -0.170033 0)
(-0.254647 -0.165293 0)
(-0.258374 -0.160967 0)
(-0.26008 -0.156707 0)
(-0.260106 -0.152145 0)
(-0.259026 -0.147039 0)
(-0.257435 -0.141529 0)
(-0.255597 -0.135761 0)
(-0.253546 -0.12962 0)
(-0.251411 -0.123237 0)
(-0.249381 -0.11686 0)
(-0.247901 -0.110496 0)
(-0.248494 -0.103495 0)
(-0.254143 -0.0946164 0)
(-0.264725 -0.08134 0)
(-0.268096 -0.0570887 0)
(-0.251616 -0.00695078 0)
(-0.267648 0.0805446 0)
(-0.676181 0.193102 0)
)
;

boundaryField
{
    floor
    {
        type            noSlip;
    }
    ceiling
    {
        type            noSlip;
    }
    sWall
    {
        type            noSlip;
    }
    nWall
    {
        type            noSlip;
    }
    sideWalls
    {
        type            empty;
    }
    glass1
    {
        type            noSlip;
    }
    glass2
    {
        type            noSlip;
    }
    sun
    {
        type            noSlip;
    }
    Table_master
    {
        type            noSlip;
    }
    Table_slave
    {
        type            noSlip;
    }
    inlet
    {
        type            fixedValue;
        value           uniform (0.5 0 0);
    }
    outlet
    {
        type            zeroGradient;
    }
}


// ************************************************************************* //
