/*--------------------------------*- C++ -*----------------------------------*\
  =========                 |
  \\      /  F ield         | OpenFOAM: The Open Source CFD Toolbox
   \\    /   O peration     | Website:  https://openfoam.org
    \\  /    A nd           | Version:  6
     \\/     M anipulation  |
\*---------------------------------------------------------------------------*/
FoamFile
{
    version     2.0;
    format      ascii;
    class       surfaceScalarField;
    location    "46000.0000003843088";
    object      phi;
}
// * * * * * * * * * * * * * * * * * * * * * * * * * * * * * * * * * * * * * //

dimensions      [1 0 -1 0 0 0 0];

internalField   nonuniform List<scalar> 
1482
(
-0.00279975
0.00286378
-0.0034839
0.00068415
-0.00414446
0.000660562
-0.00475838
0.00061392
-0.00527958
0.000521193
-0.00569132
0.00041174
-0.0059824
0.000291083
-0.00613979
0.000157389
-0.00614616
6.37272e-06
-0.00597554
-0.000170625
-0.00559794
-0.000377599
-0.00498227
-0.000615666
-0.00405828
-0.000923984
-0.00257971
-0.00147857
-0.00257679
-6.39584e-05
6.88131e-05
0.000781106
-0.000845065
0.0014349
-0.000653798
0.00183559
-0.000400689
0.00205829
-0.000222702
0.00216308
-0.000104788
0.00221035
-4.727e-05
0.00223309
-2.27425e-05
0.00224288
-9.78342e-06
0.00224384
-9.65871e-07
0.00223682
7.02008e-06
0.00221779
1.90328e-05
0.00217341
4.43786e-05
0.00207044
0.000102971
0.00185337
0.000217073
0.00149508
0.000358283
0.00102228
0.000472807
0.00102872
-0.00204034
0.00507444
-0.00290838
0.0015522
-0.00369408
0.00144626
-0.00434493
0.00126477
-0.00488197
0.00105823
-0.00531052
0.000840288
-0.00562883
0.000609388
-0.00583012
0.000358683
-0.00590375
8.00018e-05
-0.00584187
-0.000232503
-0.00563863
-0.000580834
-0.00528267
-0.000971627
-0.00477277
-0.00143389
-0.00428693
-0.00196441
-0.00470288
-0.00216084
-0.00311703
-0.00158041
-0.00163434
-0.001477
-0.00161949
0.00131802
-0.001239
0.00166289
-0.00118993
0.00191563
-0.000906534
0.00210804
-0.000593099
0.00221653
-0.00033119
0.00222573
-0.000113989
0.00222768
-4.92284e-05
0.00222924
-2.42982e-05
0.00223014
-1.06829e-05
0.00223011
-9.39898e-07
0.00222875
8.3872e-06
0.00222455
2.32303e-05
0.0022119
5.70303e-05
0.00214988
0.000164992
0.00189993
0.000467019
0.00146975
0.000788468
0.000904766
0.00103779
0.00195036
-0.00148822
0.00682058
-0.00235904
0.00242302
-0.00312888
0.0022161
-0.00371292
0.00184881
-0.00418337
0.00152869
-0.00455459
0.00121151
-0.00482842
0.000883217
-0.00500165
0.000531917
-0.00506791
0.000146258
-0.00501811
-0.000282303
-0.00484147
-0.000757475
-0.00453048
-0.00128261
-0.00411589
-0.00184848
-0.00371836
-0.00236194
-0.00329788
-0.00258133
-0.00236656
-0.00251173
-0.00127292
-0.00257064
-0.00287958
0.00115123
-0.00237577
0.00165496
-0.00169366
0.00195376
-0.00120534
0.00214739
-0.000786728
0.00217926
-0.000363057
0.00206542
0.00201635
0.0019922
0.00198168
0.00198089
0.00198943
0.00201282
0.00207
0.00223515
0.00187683
0.000825337
0.0014286
0.00123669
0.000807647
0.00165874
0.00278403
-0.00110603
0.00825781
-0.00192788
0.00324487
-0.00256978
0.002858
-0.00302995
0.00230899
-0.00339728
0.00189602
-0.00368584
0.00150007
-0.00389865
0.00109603
-0.0040339
0.000667168
-0.00408411
0.000196462
-0.00403608
-0.00033033
-0.0038775
-0.000916057
-0.00360416
-0.00155595
-0.00323857
-0.00221408
-0.00281652
-0.002784
-0.00227698
-0.00312086
-0.00155724
-0.00323147
-0.000868999
-0.00325889
-0.000688916
-0.00305967
0.00144759
-0.00212106
0.00137868
-0.00230687
0.00169387
-0.00200886
0.00200623
-0.0015177
0.00227231
-0.0010528
0.00254754
-0.000638288
0.00286363
-0.000316239
0.00303238
-0.000168911
0.00309853
-6.62972e-05
0.00308262
1.57484e-05
0.00299349
8.89817e-05
0.00283213
0.000161202
0.00259076
0.000241222
0.00224643
0.000344177
0.0017418
0.000504475
0.00160558
0.000961555
0.0012785
0.00156377
0.000751666
0.00218558
0.00356999
-0.000803742
0.00945473
-0.00157984
0.00402097
-0.00204836
0.00332651
-0.00236391
0.00262454
-0.00260809
0.00214019
-0.0027934
0.00168538
-0.00292487
0.0012275
-0.00300325
0.000745547
-0.00302201
0.000215225
-0.00296457
-0.000387773
-0.00281764
-0.00106299
-0.00257418
-0.00179942
-0.00224066
-0.00254759
-0.00182419
-0.00320047
-0.00131884
-0.00362621
-0.000742258
-0.00380805
-0.000210899
-0.00379025
0.000266354
-0.00353692
0.00112728
-0.00298198
0.00149284
-0.00267243
0.00175123
-0.00226725
0.00200333
-0.0017698
0.00223305
-0.00128253
0.0024475
-0.000852741
0.00264984
-0.000518576
0.00276155
-0.000280617
0.00279941
-0.000104158
0.00277505
4.0108e-05
0.00269479
0.000169245
0.00256107
0.000294913
0.00237278
0.000429521
0.00212769
0.00058926
0.00183423
0.00079794
0.00162996
0.00116582
0.00149142
0.00170231
0.0013175
0.0023595
0.00231366
0.00257382
0.00134383
0.00100473
0.00188137
-0.000508803
0.00200001
-0.000575843
0.010477
-0.00132472
0.00476984
-0.00158418
0.00358598
-0.00174995
0.00279031
-0.00186375
0.002254
-0.00193504
0.00175666
-0.00197029
0.00126275
-0.00197381
0.000749069
-0.00194239
0.000183808
-0.0018544
-0.000475765
-0.00170001
-0.00121738
-0.00146916
-0.00203026
-0.00116474
-0.00285202
-0.000792543
-0.00357267
-0.000372864
-0.00404589
6.74155e-05
-0.00424833
0.000472673
-0.00419551
0.000847095
-0.00391135
0.00129788
-0.00343277
0.00159636
-0.00297091
0.00179922
-0.0024701
0.00197042
-0.001941
0.00212219
-0.0014343
0.00225728
-0.000987834
0.00236338
-0.000624676
0.00242325
-0.000340485
0.00243616
-0.000117065
0.00240708
6.91862e-05
0.00234066
0.000235667
0.00224061
0.000394959
0.00211103
0.000559103
0.0019592
0.00074109
0.00180014
0.000956997
0.00171098
0.00125498
0.00177229
0.001641
0.00199149
0.00214031
0.00224534
0.00231997
0.00176237
0.0014877
0.000835974
0.000417592
0.00293325
-0.000543525
0.0115127
-0.00124371
0.00547002
-0.00119185
0.00353413
-0.00120001
0.00279847
-0.00119215
0.00224614
-0.00115847
0.00172298
-0.00110113
0.00120541
-0.00102591
0.000673852
-0.000927154
8.50522e-05
-0.000778088
-0.000624832
-0.000588822
-0.00140665
-0.000348793
-0.00227029
-6.5142e-05
-0.00313566
0.000239404
-0.00387721
0.000549145
-0.00435563
0.00084417
-0.00454336
0.00110712
-0.00445846
0.00134045
-0.00414467
0.00157201
-0.00366435
0.00173135
-0.00313025
0.00183091
-0.00256966
0.00190083
-0.00201091
0.00195697
-0.00149044
0.00200459
-0.00103546
0.00203842
-0.000658509
0.00205252
-0.000354586
0.00204312
-0.000107666
0.00201065
0.000101663
0.00195789
0.000288422
0.00188843
0.000464421
0.00180737
0.000640159
0.00172341
0.000825052
0.00165221
0.0010282
0.00163843
0.00126876
0.0017295
0.00154993
0.00195059
0.00191921
0.00222216
0.0020484
0.00224619
0.00146366
0.00165771
0.00100607
0.00469366
-0.000483757
0.0125319
-0.00105165
0.00603791
-0.000697423
0.0031799
-0.000636359
0.0027374
-0.000567743
0.00217753
-0.000462755
0.00161799
-0.000333378
0.00107603
-0.000181747
0.000522221
7.8719e-06
-0.000104567
0.000226239
-0.0008432
0.000466114
-0.00164652
0.000723782
-0.00252796
0.000980462
-0.00339234
0.00120862
-0.00410536
0.00140765
-0.00455465
0.00156866
-0.00470436
0.00168639
-0.00457619
0.00176551
-0.0042238
0.00181841
-0.00371724
0.00182825
-0.0031401
0.00180337
-0.00254478
0.00176294
-0.00197049
0.00172203
-0.00144953
0.00168821
-0.00100164
0.00166144
-0.000631731
0.00163755
-0.000330699
0.00161136
-8.14803e-05
0.00158025
0.000132781
0.00154402
0.000324646
0.00150366
0.000504782
0.00146202
0.000681799
0.00142518
0.000861889
0.00140446
0.00104892
0.00142498
0.00124824
0.00151958
0.00145534
0.00174772
0.00169108
0.00207978
0.00171634
0.00223784
0.00130559
0.00173874
0.00150516
0.00679966
0.00297861
0.0101405
0.00202322
0.00699329
0.000869814
0.00433331
0.000371312
0.00323591
0.000214466
0.00233437
0.00027113
0.00156133
0.000425461
0.000921699
0.00063983
0.000307852
0.000899539
-0.000364276
0.00116491
-0.00110857
0.00144367
-0.00192529
0.00171064
-0.00279493
0.0019364
-0.00361809
0.00209675
-0.0042657
0.00218605
-0.00464394
0.00220706
-0.00472537
0.00216866
-0.00453779
0.00208449
-0.00413962
0.00196973
-0.00360248
0.00183002
-0.00300039
0.00167765
-0.00239241
0.00152972
-0.00182255
0.00140106
-0.00132087
0.00130007
-0.000900649
0.00122794
-0.000559607
0.00117961
-0.000282362
0.00114738
-4.92498e-05
0.00112543
0.000154725
0.00110973
0.000340346
0.0010975
0.000517016
0.00108807
0.00069123
0.00108326
0.000866699
0.00108812
0.00104406
0.00111519
0.00122117
0.00118706
0.00138347
0.00137128
0.00150686
0.00172834
0.00135928
0.00186295
0.00117097
0.000535169
0.00283291
0.00771909
0.00403315
0.00624756
0.00366974
0.0073567
0.00254403
0.00545902
0.00189053
0.0038894
0.00153393
0.00269097
0.00138921
0.00170605
0.00142332
0.000887587
0.00159825
0.000132925
0.00185088
-0.000616906
0.00212853
-0.00138622
0.00240848
-0.00220524
0.00265332
-0.00303976
0.00282136
-0.00378612
0.00288572
-0.00433005
0.00284337
-0.00460158
0.0027083
-0.00459029
0.00250289
-0.00433237
0.00225142
-0.00388815
0.00197663
-0.00332769
0.00169567
-0.00271943
0.00142593
-0.00212268
0.00118564
-0.00158226
0.000989844
-0.00112507
0.000845268
-0.000756072
0.000750722
-0.000465061
0.000696936
-0.000228576
0.00067238
-2.46942e-05
0.000667524
0.000159582
0.000674761
0.000333109
0.000688568
0.000503209
0.000705388
0.00067441
0.000722221
0.000849867
0.000735284
0.00103099
0.000738002
0.00121845
0.000713171
0.0014083
0.000607558
0.00161247
2.49697e-05
0.00194188
-0.00166429
0.00286016
-0.0029582
0.00412669
0.00486513
0.00241067
0.00400142
0.00330634
0.00646102
0.00325022
0.00551514
0.00303928
0.00410035
0.00284834
0.00288192
0.00272535
0.00182905
0.00271188
0.000901055
0.00280149
4.33206e-05
0.00296416
-0.000779578
0.00317535
-0.00159741
0.00339305
-0.00242294
0.00355712
-0.00320383
0.0036128
-0.00384179
0.00353358
-0.00425083
0.00332513
-0.00439311
0.00301375
-0.0042789
0.00263387
-0.00395248
0.00221884
-0.00347312
0.00179823
-0.00290707
0.0013957
-0.00231691
0.00103315
-0.00176012
0.000730879
-0.00127999
0.000503331
-0.000897526
0.000350025
-0.000602766
0.000261937
-0.000376973
0.000221976
-0.000188614
0.000215044
-1.77622e-05
0.000229724
0.000144902
0.000257767
0.000305067
0.000293689
0.000467288
0.000333194
0.000634904
0.000370282
0.000812779
0.000395319
0.00100596
0.000388406
0.00122537
0.000306099
0.0014906
5.66998e-05
0.00186188
-0.000673853
0.00267269
-0.00192696
0.00411344
-0.00232748
0.00452722
0.00265453
0.00145723
0.00273846
0.00274868
0.00516957
0.00343264
0.00483118
0.00371878
0.00381421
0.00381755
0.00278315
0.00384623
0.00180037
0.00388333
0.000863959
0.0039536
-2.69485e-05
0.00406447
-0.00089045
0.00420513
-0.00173807
0.00432405
-0.00254187
0.00435049
-0.00323027
0.00423296
-0.00372425
0.00395945
-0.0039773
0.00355258
-0.00398623
0.00305223
-0.00377855
0.00250219
-0.00340243
0.00194102
-0.00291195
0.00140276
-0.00236881
0.000914279
-0.00182843
0.000503095
-0.00134894
0.00018932
-0.000966216
-2.01319e-05
-0.000688074
-0.000141127
-0.000481772
-0.00019904
-0.00031906
-0.000216142
-0.000171512
-0.000205941
-2.79627e-05
-0.000177034
0.000115996
-0.000134807
0.00026284
-8.25819e-05
0.000415064
-2.31766e-05
0.000575499
3.88463e-05
0.000750756
9.4505e-05
0.000950297
0.000125274
0.0011946
9.13089e-05
0.00152456
-7.45142e-05
0.00202772
-0.000365072
0.00296357
-0.000869372
0.0046182
-0.00113468
0.00479288
0.00164933
0.00217149
0.000792963
0.00294127
0.00439979
0.00359175
0.00418071
0.00416245
0.00324351
0.00449075
0.00245485
0.00466591
0.00162521
0.0047839
0.000745975
0.00489005
-0.0001331
0.00499763
-0.000998037
0.00507638
-0.00181683
0.00506074
-0.00252625
0.0048907
-0.00306024
0.004544
-0.00337755
0.0040397
-0.003473
0.00342277
-0.00336929
0.00274388
-0.00309964
0.0020512
-0.00270974
0.00138239
-0.00224314
0.000776097
-0.00176251
0.000259084
-0.00131141
-0.000128961
-0.000960895
-0.000381444
-0.000713736
-0.00052488
-0.00054464
-0.000596288
-0.000410365
-0.000624401
-0.000290947
-0.000623208
-0.000172703
-0.000601072
-5.00978e-05
-0.000563385
7.83102e-05
-0.000512802
0.000212257
-0.000450384
0.000352646
-0.000376787
0.000501903
-0.000292073
0.000666042
-0.000198464
0.000856688
-0.000103841
0.00109997
-3.13735e-05
0.00145207
-4.62028e-06
0.0020009
0.000124267
0.00283475
0.000522691
0.00422015
0.000771183
0.00454474
0.00255638
-0.00158231
0.00262038
0.0011149
0.00170259
0.00334768
0.00194793
0.0043506
0.00224059
0.00485505
0.00195041
0.00517071
0.00130955
0.00540033
0.000516355
0.00557967
-0.000312449
0.00567978
-0.00109817
0.0056387
-0.00177578
0.00540581
-0.00229339
0.00496965
-0.0026241
0.00435836
-0.00276627
0.00362489
-0.00273952
0.00282903
-0.00257343
0.00202033
-0.00229094
0.00124613
-0.00193554
0.000536589
-0.0015336
-6.00593e-05
-0.00116586
-0.00049864
-0.000872838
-0.000773513
-0.000686029
-0.000930285
-0.00055697
-0.00101488
-0.000460045
-0.00105231
-0.000372938
-0.0010585
-0.000284756
-0.00104191
-0.000189287
-0.00100847
-8.35362e-05
-0.000963199
3.30461e-05
-0.000907979
0.000157038
-0.000841939
0.000286608
-0.000764054
0.000424018
-0.000671754
0.000573744
-0.000562685
0.000747619
-0.000440121
0.000977388
-0.000315875
0.00132774
-0.000158617
0.00184342
0.000209811
0.00246606
0.00104568
0.00338428
0.00153923
0.00405125
0.00423996
0.00288209
0.00456949
0.00486944
0.00164798
0.00535574
0.00175429
0.00559235
0.0017138
0.00582444
0.00107746
0.00601255
0.000328232
0.00607891
-0.000378838
0.00595259
-0.000971889
0.00560077
-0.001424
0.00503651
-0.00172916
0.00430703
-0.00189465
0.00347083
-0.00193008
0.00258623
-0.00185493
0.00170723
-0.00169444
0.000865877
-0.00144958
0.000102376
-0.00117204
-0.00052395
-0.000907275
-0.000969222
-0.0007206
-0.00124768
-0.000594394
-0.00141658
-0.000517144
-0.00151273
-0.000460831
-0.00156263
-0.000410155
-0.00157933
-0.000356239
-0.00156997
-0.000294101
-0.00153939
-0.000219844
-0.00149286
-0.000130054
-0.00143715
-2.26607e-05
-0.00137768
9.75684e-05
-0.00131559
0.000224523
-0.00125078
0.000359208
-0.00118377
0.000506741
-0.00111592
0.000679789
-0.00104649
0.000907967
-0.000959321
0.00124048
-0.000794285
0.00167806
-0.000375829
0.00204704
0.000710421
0.00229754
0.00130999
0.00345122
0.00570389
0.00793359
0.00536298
0.00581374
0.00387416
0.00556504
0.00196254
0.00563652
0.00100601
0.00560017
0.000364579
0.00535499
-0.000133681
0.00489072
-0.000507658
0.0042488
-0.000782112
0.00348343
-0.000963805
0.00264757
-0.0010588
0.00178251
-0.00106503
0.000924426
-0.000996841
0.000106423
-0.000876437
-0.000615193
-0.000727968
-0.0011834
-0.000603838
-0.00158428
-0.000506417
-0.00185385
-0.000451057
-0.00202573
-0.000422549
-0.00213662
-0.000406284
-0.00220659
-0.000390888
-0.00224539
-0.000371354
-0.00225699
-0.000344618
-0.00224332
-0.000307725
-0.00220622
-0.000256895
-0.00214887
-0.000187362
-0.00207757
-9.39381e-05
-0.00200586
2.5854e-05
-0.00194313
0.000161772
-0.001891
0.000307066
-0.00185481
0.000470558
-0.00184077
0.000665827
-0.00185042
0.000917778
-0.00186387
0.00125406
-0.00185605
0.00167019
-0.00185908
0.0020497
-0.00186566
0.00230348
-0.00156777
0.0031526
0.00430522
0.00411237
0.00149717
0.00451314
0.0034734
0.00374046
0.00273525
0.00323536
0.00151113
0.00288757
0.000712343
0.00251889
0.000234968
0.00207051
-5.92897e-05
0.00153235
-0.000243962
0.000923558
-0.000355002
0.000261267
-0.000396505
-0.000418094
-0.000385668
-0.00105883
-0.000356103
-0.00161267
-0.000322593
-0.00204828
-0.000292364
-0.0023716
-0.000280548
-0.00259687
-0.0002812
-0.00275701
-0.000290972
-0.00287642
-0.000303209
-0.00296853
-0.000314213
-0.00303756
-0.000321877
-0.00308373
-0.000325154
-0.0031056
-0.000322682
-0.00310122
-0.000312008
-0.00306913
-0.000288877
-0.00300946
-0.000246936
-0.00292516
-0.000178198
-0.00282457
-7.47688e-05
-0.00272717
6.42903e-05
-0.00264728
0.000227081
-0.00258384
0.000407067
-0.00253338
0.000615411
-0.00249342
0.000878016
-0.00245339
0.00121437
-0.00242246
0.00163964
-0.00263031
0.00225786
-0.00352162
0.00319498
-0.00375547
0.00338645
0.0007325
-0.00259561
-0.00675829
-0.0074137
-0.00746072
-0.00374946
-0.00216715
-0.00167064
0.00139458
-0.000757646
0.00182225
-0.000560715
0.00131419
-0.000642196
0.000793818
-0.0008276
0.000420374
-0.00106498
0.000178098
-0.00134824
3.93189e-05
-0.00167959
-2.36212e-05
-0.00203638
-3.9683e-05
-0.00239009
-3.19341e-05
-0.00271957
-2.66086e-05
-0.00300033
-4.18534e-05
-0.00321517
-7.75599e-05
-0.00337733
-0.000118465
-0.00350704
-0.000151575
-0.00362151
-0.000176602
-0.00372718
-0.000197608
-0.00382365
-0.00021778
-0.00390719
-0.000238321
-0.00397287
-0.000259387
-0.00401523
-0.000280185
-0.004029
-0.000298059
-0.00401048
-0.00030721
-0.00395889
-0.00029838
-0.0038766
-0.000260414
-0.00376816
-0.000183248
-0.00364303
-6.10253e-05
-0.00351673
0.000100556
-0.00338454
0.000274652
-0.00322471
0.000455438
-0.00301394
0.000667251
-0.00272238
0.00092301
-0.00229729
0.00121491
-0.00161824
0.00157921
-0.000581642
0.00215877
0.000199359
0.00260574
0.00111601
-0.00734498
0.00104028
-0.00811935
-0.00668641
-0.00717335
-0.0031132
-0.00565325
-0.000125561
-0.00456091
0.000729908
-0.00397033
0.00072362
-0.00371257
0.000536081
-0.00364692
0.000354772
-0.00368869
0.000219931
-0.00378103
0.000131716
-0.00388227
7.76761e-05
-0.00396859
4.66851e-05
-0.00403019
2.96886e-05
-0.00407339
1.65897e-05
-0.00411321
-2.08224e-06
-0.0041617
-2.91627e-05
-0.00422254
-5.77359e-05
-0.00429261
-8.16222e-05
-0.00436803
-0.000101286
-0.00444537
-0.000120323
-0.00452166
-0.000141478
-0.0045942
-0.000165704
-0.0046605
-0.000192936
-0.00471826
-0.00022221
-0.00476529
-0.000250778
-0.00479924
-0.000273003
-0.00481696
-0.000280464
-0.00481333
-0.000263941
-0.00478032
-0.000216304
-0.00470762
-0.000133948
-0.00458762
-1.98181e-05
-0.00441636
0.00010298
-0.00417573
0.000214443
-0.00382803
0.000319296
-0.00333346
0.000428341
-0.00262608
0.000507594
-0.00147987
0.000433163
0.000497359
0.000181757
0.00194879
0.00115457
0.00324833
0.00158207
-0.00503957
-0.00808938
-0.00815525
-0.00737069
-0.00660016
-0.00602383
-0.00563359
-0.00538129
-0.00521897
-0.00511141
-0.00503477
-0.00497452
-0.00492664
-0.00489687
-0.00489387
-0.00491928
-0.00496847
-0.00503727
-0.00512516
-0.00523437
-0.00536818
-0.0055298
-0.00572153
-0.00594292
-0.00618779
-0.00644145
-0.00667983
-0.00687163
-0.00698188
-0.00697854
-0.00685277
-0.00661582
-0.00627438
-0.00582446
-0.0052961
-0.00484323
-0.00464295
-0.00347104
)
;

boundaryField
{
    floor
    {
        type            calculated;
        value           nonuniform List<scalar> 
36
(
0
0
0
0
0
0
0
0
0
0
0
0
0
0
0
0
0
0
0
-6.4388e-06
-1.68818e-05
-2.60245e-05
-3.42883e-05
-3.49028e-05
-2.87301e-05
-2.85787e-05
-2.92035e-06
-5.4416e-06
-5.68792e-06
-5.90793e-06
-4.85466e-06
-8.93867e-06
-1.02091e-05
-1.28315e-05
-1.44565e-05
-1.54458e-05
)
;
    }
    ceiling
    {
        type            calculated;
        value           nonuniform List<scalar> 
43
(
-5.78591e-05
-6.48214e-05
-6.343e-05
-5.97088e-05
-5.46488e-05
-4.68736e-05
-4.01856e-05
-3.53798e-05
-3.22677e-05
-3.0506e-05
-2.98007e-05
-2.99131e-05
-3.05519e-05
-3.13295e-05
-3.19194e-05
-3.22536e-05
-3.24327e-05
-3.25255e-05
-3.25416e-05
-3.24536e-05
-3.22191e-05
-3.17935e-05
-3.11415e-05
-3.02514e-05
-2.915e-05
-2.79147e-05
-2.6666e-05
-2.55346e-05
-2.46169e-05
-2.39452e-05
-2.34891e-05
-2.31666e-05
-2.2851e-05
-2.24106e-05
-2.1752e-05
-2.0834e-05
-1.96916e-05
-1.8436e-05
-1.71876e-05
-1.63267e-05
1.9331e-05
1.51849e-05
-0.000246562
)
;
    }
    sWall
    {
        type            calculated;
        value           nonuniform List<scalar> 9(-0.000140237 -0.000164531 -0.000194273 -0.000225987 -0.000245108 -0.000281045 -0.000423542 -0.000453645 -0.000483953);
    }
    nWall
    {
        type            calculated;
        value           nonuniform List<scalar> 
14
(
-9.00536e-05
-9.72728e-05
-0.000102709
-0.000104265
-0.000116909
-0.000129369
-0.000135667
-0.000144435
-0.000154433
-0.000169636
-0.000182989
-0.000183643
-0.000183348
-0.000206211
)
;
    }
    sideWalls
    {
        type            empty;
        value           nonuniform 0();
    }
    glass1
    {
        type            calculated;
        value           nonuniform List<scalar> 9(-6.40339e-05 -0.00017032 -0.00025792 -0.000331202 -0.000393183 -0.000446386 -0.000492196 -0.000535476 -0.000587162);
    }
    glass2
    {
        type            calculated;
        value           nonuniform List<scalar> 2(-0.000367249 -0.000384273);
    }
    sun
    {
        type            calculated;
        value           uniform 0;
    }
    Table_master
    {
        type            calculated;
        value           nonuniform List<scalar> 9(-1.53991e-07 -1.54108e-07 -1.5414e-07 -1.5416e-07 -1.54173e-07 -1.54178e-07 -1.54177e-07 -1.54162e-07 -1.54109e-07);
    }
    Table_slave
    {
        type            calculated;
        value           nonuniform List<scalar> 9(1.53661e-07 1.53717e-07 1.53716e-07 1.53732e-07 1.53753e-07 1.53797e-07 1.53863e-07 1.53957e-07 1.54084e-07);
    }
    inlet
    {
        type            calculated;
        value           uniform -0.0116486;
    }
    outlet
    {
        type            calculated;
        value           nonuniform List<scalar> 2(0.00977737 0.0122788);
    }
}


// ************************************************************************* //
