/*--------------------------------*- C++ -*----------------------------------*\
  =========                 |
  \\      /  F ield         | OpenFOAM: The Open Source CFD Toolbox
   \\    /   O peration     | Website:  https://openfoam.org
    \\  /    A nd           | Version:  6
     \\/     M anipulation  |
\*---------------------------------------------------------------------------*/
FoamFile
{
    version     2.0;
    format      ascii;
    class       volScalarField;
    location    "34799.9999981025685";
    object      epsilon;
}
// * * * * * * * * * * * * * * * * * * * * * * * * * * * * * * * * * * * * * //

dimensions      [0 2 -3 0 0 0 0];

internalField   nonuniform List<scalar> 
778
(
0.000253143
0.000306394
0.000303052
0.000344237
0.000385107
0.00042491
0.000464341
0.000504586
0.000547383
0.000595449
0.000643826
0.000692145
0.00074206
0.000798374
0.000860118
8.94006e-05
0.000262744
0.000269104
0.000249991
0.000220109
0.000184058
0.000152303
0.000126507
0.000105911
8.94564e-05
7.63077e-05
6.56532e-05
5.68536e-05
4.93841e-05
4.27728e-05
3.65208e-05
3.18184e-05
2.3601e-05
0.000797063
0.00144336
0.000287022
0.00025961
0.000261701
0.000267663
0.000276548
0.000289962
0.000310195
0.00034037
0.000379546
0.000430627
0.000498987
0.000600187
0.000785353
0.00112901
0.000978449
0.000858261
0.000512558
0.000369842
0.000294464
0.00024303
0.000204117
0.000186893
0.000154643
0.000124948
0.000100657
8.14634e-05
6.65105e-05
5.48134e-05
4.56267e-05
3.87055e-05
3.45182e-05
3.27646e-05
6.58285e-05
4.81131e-05
0.00163079
0.0040797
0.000407466
0.000242942
0.000229108
0.000231014
0.000238222
0.00025048
0.000268368
0.000292616
0.000324719
0.000366768
0.000421154
0.000494894
0.000601349
0.000724656
0.000829653
0.00158433
0.00102805
0.000512658
0.000367988
0.000294485
0.00026223
0.000551897
0.000362823
0.000250795
0.000181312
0.000136245
0.000105872
8.47454e-05
6.97997e-05
5.94509e-05
4.51326e-05
3.79865e-05
0.000108282
7.08758e-05
0.00285387
0.00877204
0.000710086
0.000240746
0.000202482
0.000200009
0.000203173
0.000209789
0.000220593
0.000237494
0.000263167
0.000299904
0.000349128
0.000412302
0.00048805
0.000560287
0.000612307
0.000824023
0.00156427
0.000729194
0.000459935
0.000358369
0.000301941
0.000291814
0.000814387
0.000612905
0.000482043
0.000388523
0.00031908
0.000264254
0.000218694
0.000178963
0.000141809
8.38264e-05
5.49139e-05
0.000148873
9.46753e-05
0.00454664
0.0158305
0.00134687
0.000258387
0.000175739
0.000166786
0.000165786
0.000167754
0.000173908
0.000187403
0.000211636
0.000248311
0.000297736
0.000359314
0.000427821
0.000489231
0.000528513
0.000582289
0.000627076
0.000483017
0.000393392
0.000330979
0.000282272
0.000248617
0.000247836
0.00022677
0.000202907
0.000180989
0.000162591
0.000146431
0.00013178
0.000118216
0.000105089
8.45229e-05
6.42322e-05
0.000105371
0.000138982
0.000160602
0.000371178
0.000328475
0.00676464
0.0248828
0.00255461
0.00031817
0.000155551
0.000137064
0.000132117
0.000130679
0.000134444
0.000148533
0.00017668
0.000218052
0.000270795
0.000334161
0.000401797
0.000462715
0.000502981
0.000521569
0.000504581
0.000438097
0.000373724
0.000315597
0.000264719
0.000223382
0.000193295
0.000169633
0.000150806
0.000135601
0.000123253
0.000112699
0.000103249
9.45062e-05
8.60893e-05
7.59305e-05
6.5366e-05
7.76651e-05
9.9903e-05
0.000211003
0.00107456
0.000562163
0.00967375
0.0336412
0.0045859
0.000465223
0.000150874
0.000116348
0.000107084
0.000103273
0.000107066
0.000127902
0.00016611
0.000215889
0.00027336
0.000340225
0.00040954
0.000470664
0.000510308
0.000520469
0.000494253
0.000437565
0.000371812
0.000307477
0.000250553
0.000204441
0.000169747
0.000144554
0.000126318
0.000112724
0.000102257
9.36795e-05
8.61881e-05
7.93256e-05
7.28035e-05
6.61485e-05
6.03064e-05
6.37869e-05
7.69527e-05
0.000175835
0.00162038
0.000920005
0.012761
0.0404087
0.00749306
0.00087196
0.000194398
0.000115409
9.73909e-05
9.14495e-05
9.86441e-05
0.000137672
0.000189245
0.000246272
0.000307191
0.00037416
0.000445283
0.000508593
0.000547802
0.000551167
0.000515804
0.000451625
0.000375594
0.000301043
0.000236539
0.000185992
0.000149323
0.000123982
0.000106708
9.45684e-05
8.57269e-05
7.87835e-05
7.28702e-05
6.75124e-05
6.24694e-05
5.76579e-05
5.38845e-05
5.57985e-05
7.11348e-05
0.000357547
0.00538948
0.00205501
0.0138287
0.0414554
0.0139368
0.00316676
0.000631046
0.000208279
0.000132756
0.000116009
0.00014245
0.000192849
0.000249204
0.000306446
0.000367642
0.000437294
0.000512018
0.00057669
0.000611628
0.000603577
0.000552389
0.000471161
0.000378709
0.000291124
0.00021841
0.00016411
0.000126824
0.000102636
8.73059e-05
7.73644e-05
7.06731e-05
6.56591e-05
6.14415e-05
5.75914e-05
5.39383e-05
5.05363e-05
4.8191e-05
5.24403e-05
0.000104551
0.00108932
0.0135863
0.00311487
0.0130043
0.0283636
0.0144168
0.00572963
0.00210639
0.000835694
0.000414196
0.000277078
0.000279096
0.000314541
0.000356018
0.000401849
0.000459185
0.000532071
0.000611515
0.000675396
0.000699623
0.00067109
0.000594092
0.00048702
0.00037307
0.000271111
0.000191464
0.00013596
0.000100799
7.99612e-05
6.8032e-05
6.12458e-05
5.71464e-05
5.41757e-05
5.15931e-05
4.90976e-05
4.66259e-05
4.43688e-05
4.35829e-05
5.57149e-05
0.000273995
0.00377747
0.010167
0.00320977
0.0106875
0.0193505
0.0120378
0.00630172
0.003176
0.0016758
0.00098741
0.0006794
0.0005602
0.000517355
0.000510454
0.000531867
0.000584868
0.000664737
0.000749733
0.000806852
0.0008082
0.00074438
0.000628261
0.00048654
0.000348267
0.000234247
0.000152988
0.000102096
7.37573e-05
5.89519e-05
5.14954e-05
4.80399e-05
4.62231e-05
4.48839e-05
4.35536e-05
4.20845e-05
4.05471e-05
3.93623e-05
4.06282e-05
6.40809e-05
0.000504588
0.00351906
0.00802945
0.00311703
0.0080691
0.0137652
0.00969026
0.0059333
0.00357005
0.00222783
0.00149108
0.00109331
0.000869434
0.000743631
0.000686175
0.000691147
0.00075275
0.000847874
0.00093521
0.000970143
0.000926332
0.000805348
0.000635046
0.000452931
0.000294067
0.00017824
0.00010742
6.97382e-05
5.2681e-05
4.45374e-05
4.07116e-05
3.92811e-05
3.86789e-05
3.82186e-05
3.7638e-05
3.69162e-05
3.63416e-05
3.6774e-05
4.13189e-05
7.0417e-05
0.000390065
0.00262832
0.00731952
0.00316244
0.0061216
0.0101667
0.00778994
0.00531213
0.00357012
0.00246924
0.00178817
0.00136841
0.00109309
0.000926295
0.000860073
0.000888851
0.00098652
0.00110171
0.00117241
0.00115057
0.00102557
0.00082079
0.000586619
0.000369835
0.000209324
0.000115089
7.22331e-05
5.22726e-05
4.28871e-05
3.82327e-05
3.59605e-05
3.50867e-05
3.47568e-05
3.45387e-05
3.43489e-05
3.44362e-05
3.55956e-05
3.97641e-05
5.25479e-05
9.84012e-05
0.000376019
0.00215987
0.00551982
0.00382915
0.0061863
0.00781085
0.00680399
0.00473909
0.00336536
0.00246232
0.00186588
0.00146239
0.00119469
0.00106515
0.00107229
0.00118434
0.0013348
0.00144187
0.00143883
0.00129741
0.00104718
0.000740629
0.00045761
0.000238982
0.000131104
8.12796e-05
5.92493e-05
4.86012e-05
4.28367e-05
3.94182e-05
3.73326e-05
3.61181e-05
3.55174e-05
3.52223e-05
3.54324e-05
3.71672e-05
4.32056e-05
6.04212e-05
0.000104886
0.000213856
0.000532642
0.00212554
0.00461886
0.0040033
0.00454812
0.00511573
0.00418585
0.00336197
0.0026396
0.00206981
0.00164862
0.00136142
0.00124475
0.00130181
0.00148216
0.00169302
0.00182975
0.00181675
0.0016311
0.00129395
0.000903421
0.000518789
0.000277783
0.000153542
9.97347e-05
7.64939e-05
6.51279e-05
5.83972e-05
5.38515e-05
5.05754e-05
4.81167e-05
4.62162e-05
4.50106e-05
4.47159e-05
4.58711e-05
5.11479e-05
6.78841e-05
0.000113677
0.000224504
0.000466814
0.000997278
0.00230437
0.00494863
0.00346676
0.00139955
0.00142938
0.0014307
0.00135094
0.00130832
0.0014207
0.00170697
0.00204586
0.00231218
0.00241059
0.00229038
0.00196954
0.00151667
0.000971615
0.000561314
0.000307659
0.000182942
0.000130102
0.000108218
9.74106e-05
9.07137e-05
8.60028e-05
8.26563e-05
8.03656e-05
7.87742e-05
7.74406e-05
7.60674e-05
7.62584e-05
7.89462e-05
8.78408e-05
0.000113486
0.000180881
0.000342357
0.000696886
0.00142395
0.00273441
0.00450561
0.00303313
0.0011883
0.0017112
0.00194711
0.002302
0.00274947
0.00315578
0.00333962
0.00330941
0.00308693
0.00269248
0.00211934
0.00149513
0.000959301
0.000559932
0.000330195
0.000222836
0.000180122
0.000163113
0.000154869
0.000149816
0.000146619
0.000145193
0.000145707
0.000148151
0.000152103
0.000156614
0.000160281
0.000161765
0.000165173
0.000175417
0.000201807
0.000267172
0.000418733
0.000748623
0.00142842
0.00277011
0.00539022
0.00305162
0.00742289
0.00812697
0.00481997
0.0033974
0.00372404
0.00413219
0.00414306
0.00393289
0.00358027
0.003129
0.00262163
0.00207324
0.00151756
0.0010259
0.000663138
0.000447876
0.000348564
0.000310464
0.00029641
0.000289659
0.000284564
0.000279872
0.00027607
0.000274272
0.000275695
0.000281366
0.000291917
0.000307295
0.000326301
0.000346128
0.000362923
0.000384047
0.000427071
0.000505098
0.000654255
0.000951613
0.0015727
0.00306066
0.00491254
0.00422555
0.00650341
0.00514423
0.00435711
0.00461172
0.0045289
0.00426089
0.00368084
0.00303548
0.00245142
0.00196054
0.00155859
0.00123115
0.000966444
0.00076484
0.000627344
0.000549361
0.000512822
0.000499359
0.000497123
0.000499637
0.000503654
0.000508085
0.000513438
0.00052143
0.000534661
0.00055634
0.000590025
0.000639278
0.000706991
0.000794122
0.000897722
0.00100782
0.00112142
0.00126621
0.00148559
0.00185412
0.00250687
0.00398968
0.00518637
0.00483789
0.00535537
0.00337302
0.00332463
0.00362732
0.00389348
0.00356647
0.00297379
0.00236362
0.00183422
0.00140112
0.00105511
0.000789105
0.000601824
0.000488594
0.00043492
0.000416975
0.000418283
0.000428498
0.000442304
0.000457202
0.000472306
0.000487901
0.000505309
0.000526854
0.000555909
0.000596969
0.000655518
0.000737304
0.000846857
0.000985928
0.00115331
0.00134722
0.00157049
0.00182824
0.00212381
0.00247225
0.00288712
0.00339714
0.00402628
0.00367142
)
;

boundaryField
{
    floor
    {
        Cmu             0.09;
        kappa           0.41;
        E               9.8;
        type            epsilonWallFunction;
        value           nonuniform List<scalar> 
36
(
0.000860118
8.94006e-05
0.000262744
0.000269104
0.000249991
0.000220109
0.000184058
0.000152303
0.000126507
0.000105911
8.94564e-05
7.63077e-05
6.56532e-05
5.68536e-05
4.93841e-05
4.27728e-05
3.65208e-05
3.18184e-05
2.3601e-05
2.3601e-05
4.81131e-05
7.08758e-05
9.46753e-05
0.000160602
0.000371178
0.000328475
0.000860118
0.00112901
0.000978449
0.000858261
8.94006e-05
0.000858261
0.000512558
0.00158433
0.00102805
0.00156427
)
;
    }
    ceiling
    {
        Cmu             0.09;
        kappa           0.41;
        E               9.8;
        type            epsilonWallFunction;
        value           nonuniform List<scalar> 
43
(
0.00535537
0.00337302
0.00332463
0.00362732
0.00389348
0.00356647
0.00297379
0.00236362
0.00183422
0.00140112
0.00105511
0.000789105
0.000601824
0.000488594
0.00043492
0.000416975
0.000418283
0.000428498
0.000442304
0.000457202
0.000472306
0.000487901
0.000505309
0.000526854
0.000555909
0.000596969
0.000655518
0.000737304
0.000846857
0.000985928
0.00115331
0.00134722
0.00157049
0.00182824
0.00212381
0.00247225
0.00288712
0.00339714
0.00402628
0.00367142
0.00454812
0.00511573
0.0011883
)
;
    }
    sWall
    {
        Cmu             0.09;
        kappa           0.41;
        E               9.8;
        type            epsilonWallFunction;
        value           nonuniform List<scalar> 9(0.0130043 0.0106875 0.0080691 0.0061216 0.0061863 0.00454812 0.00742289 0.00650341 0.00535537);
    }
    nWall
    {
        Cmu             0.09;
        kappa           0.41;
        E               9.8;
        type            epsilonWallFunction;
        value           nonuniform List<scalar> 
14
(
0.000328475
0.000562163
0.000920005
0.00320977
0.00311703
0.00316244
0.00382915
0.0040033
0.00346676
0.00303313
0.00305162
0.00422555
0.00483789
0.00367142
)
;
    }
    sideWalls
    {
        type            empty;
    }
    glass1
    {
        Cmu             0.09;
        kappa           0.41;
        E               9.8;
        type            epsilonWallFunction;
        value           nonuniform List<scalar> 9(0.000253143 0.000797063 0.00163079 0.00285387 0.00454664 0.00676464 0.00967375 0.012761 0.0138287);
    }
    glass2
    {
        Cmu             0.09;
        kappa           0.41;
        E               9.8;
        type            epsilonWallFunction;
        value           nonuniform List<scalar> 2(0.00205501 0.00311487);
    }
    sun
    {
        Cmu             0.09;
        kappa           0.41;
        E               9.8;
        type            epsilonWallFunction;
        value           nonuniform List<scalar> 
14
(
0.000253143
0.000306394
0.000303052
0.000344237
0.000385107
0.00042491
0.000464341
0.000504586
0.000547383
0.000595449
0.000643826
0.000692145
0.00074206
0.000798374
)
;
    }
    Table_master
    {
        Cmu             0.09;
        kappa           0.41;
        E               9.8;
        type            epsilonWallFunction;
        value           nonuniform List<scalar> 9(0.000551897 0.000362823 0.000250795 0.000181312 0.000136245 0.000105872 8.47454e-05 6.97997e-05 5.94509e-05);
    }
    Table_slave
    {
        Cmu             0.09;
        kappa           0.41;
        E               9.8;
        type            epsilonWallFunction;
        value           nonuniform List<scalar> 9(0.000814387 0.000612905 0.000482043 0.000388523 0.00031908 0.000264254 0.000218694 0.000178963 0.000141809);
    }
    inlet
    {
        type            turbulentMixingLengthDissipationRateInlet;
        mixingLength    0.01;
        phi             phi;
        k               k;
        value           uniform 0.000471671;
    }
    outlet
    {
        type            zeroGradient;
    }
}


// ************************************************************************* //
