/*--------------------------------*- C++ -*----------------------------------*\
  =========                 |
  \\      /  F ield         | OpenFOAM: The Open Source CFD Toolbox
   \\    /   O peration     | Website:  https://openfoam.org
    \\  /    A nd           | Version:  6
     \\/     M anipulation  |
\*---------------------------------------------------------------------------*/
FoamFile
{
    version     2.0;
    format      ascii;
    class       volScalarField;
    location    "34799.9999981025685";
    object      k;
}
// * * * * * * * * * * * * * * * * * * * * * * * * * * * * * * * * * * * * * //

dimensions      [0 2 -2 0 0 0 0];

internalField   nonuniform List<scalar> 
778
(
0.00158603
0.00180131
0.00178818
0.00194673
0.00209792
0.00224009
0.00237661
0.00251203
0.00265213
0.0028052
0.00295515
0.00310122
0.00324858
0.00341093
0.0035846
0.000792431
0.00162589
0.00165202
0.00157284
0.00144487
0.00128244
0.00113033
0.000998802
0.000887215
0.000792762
0.000713041
0.000645019
0.000586013
0.000533491
0.000484746
0.000436277
0.000397973
0.000326103
0.00340719
0.00643404
0.00268773
0.00274624
0.00288789
0.00305439
0.00323461
0.00343014
0.00364305
0.003873
0.00412469
0.00437814
0.00459379
0.00469916
0.00459376
0.00429736
0.00390626
0.00357944
0.00253842
0.00281405
0.00295615
0.00289801
0.00266457
0.00226493
0.00190534
0.00160902
0.00136935
0.00117563
0.00101695
0.000885231
0.000774014
0.000681221
0.000615238
0.000574775
0.000864681
0.000524297
0.00549119
0.0127828
0.0034783
0.00321219
0.00329747
0.00345524
0.00363648
0.00384042
0.0040704
0.00432662
0.00463433
0.00500944
0.00544963
0.00595956
0.00653151
0.00686115
0.00627872
0.0053864
0.00403716
0.00416953
0.00417347
0.00397618
0.00357853
0.0026667
0.0020162
0.00157622
0.00126966
0.00104942
0.000887002
0.00076468
0.0006719
0.000603728
0.00055152
0.000548783
0.00116599
0.000678787
0.00797426
0.0217619
0.00449188
0.00339077
0.00334145
0.00343793
0.00354918
0.00366847
0.00380842
0.00399038
0.00425789
0.00464704
0.00516987
0.00582439
0.00655485
0.00713577
0.0072295
0.00724661
0.00534083
0.00554584
0.00537359
0.00512433
0.00478647
0.00434825
0.00345638
0.00285977
0.00243665
0.00211031
0.0018507
0.00163211
0.00143867
0.00125867
0.0010778
0.000800905
0.000659961
0.00142254
0.000823304
0.0108775
0.0336404
0.00621433
0.00342505
0.00315818
0.00316677
0.00318929
0.00320946
0.00325154
0.00336026
0.00359363
0.00398791
0.00455227
0.00527611
0.00608698
0.00681813
0.00728279
0.00764173
0.0075122
0.00665003
0.00607011
0.00557704
0.00509815
0.0046293
0.00412356
0.00366613
0.00327533
0.0029375
0.00263107
0.00234746
0.00207886
0.00181819
0.00155484
0.00122213
0.000930674
0.00119137
0.00121726
0.00117103
0.00204685
0.00188678
0.0141764
0.0476062
0.00928701
0.00349023
0.00290846
0.00282255
0.00276412
0.00269919
0.00266377
0.00273399
0.00298012
0.00341355
0.00402315
0.00479826
0.0056546
0.00646231
0.00706815
0.00740464
0.00731943
0.00678591
0.00621195
0.00563519
0.00507337
0.00455582
0.00409158
0.00369601
0.00336328
0.00307375
0.00280662
0.00255116
0.00229857
0.00204194
0.00177385
0.00147157
0.0011786
0.00111323
0.00111284
0.00171164
0.00509359
0.00269962
0.0179941
0.0606128
0.0143654
0.00382019
0.00271523
0.00252926
0.00241157
0.00229371
0.00222067
0.00231119
0.00263001
0.00313935
0.00380288
0.0046339
0.00553177
0.00636974
0.00700233
0.00732737
0.00725215
0.00681554
0.00621346
0.00555373
0.00491148
0.00434277
0.00387267
0.00350062
0.00320679
0.00296181
0.00274119
0.00252871
0.00231301
0.00208691
0.0018453
0.00158304
0.00132692
0.00116048
0.00109413
0.00156195
0.00631377
0.00374894
0.0216434
0.0704855
0.0214434
0.00510418
0.00274308
0.00237179
0.00220997
0.00208164
0.00202594
0.00221909
0.00264961
0.00323161
0.00393965
0.00477941
0.00570579
0.00658027
0.00722842
0.00751603
0.0073845
0.00689596
0.00619836
0.00542762
0.00469235
0.00406515
0.00357491
0.00321278
0.0029478
0.00274114
0.00256414
0.00239543
0.00222147
0.00203483
0.00183185
0.00161262
0.00139548
0.00122999
0.00116142
0.0021392
0.0137396
0.00640541
0.0228343
0.069487
0.0325418
0.011064
0.00406962
0.00258777
0.0022354
0.00210271
0.00218962
0.00251183
0.00300011
0.00360313
0.00433664
0.00522071
0.00619599
0.00709835
0.00772515
0.00792759
0.00766703
0.00702775
0.00616822
0.0052519
0.00441052
0.00372456
0.003218
0.00286979
0.00263622
0.0024697
0.00233654
0.00221103
0.00207849
0.00193192
0.00176876
0.00159078
0.00141194
0.0012873
0.0013817
0.00423349
0.0269185
0.0084523
0.0219176
0.051623
0.0336448
0.0174403
0.00859215
0.00476108
0.00326156
0.00272974
0.00285269
0.00321007
0.00367195
0.00424815
0.00500165
0.00595014
0.00698934
0.00790185
0.00845178
0.00848959
0.00800752
0.00712865
0.00604793
0.00496126
0.00401764
0.00329509
0.0028008
0.00249082
0.00230407
0.00218602
0.00209752
0.00201196
0.00191597
0.00180392
0.00167445
0.00153012
0.00138428
0.00130665
0.00190437
0.0111268
0.0224636
0.00862302
0.0192303
0.0394248
0.0302353
0.0195692
0.0121859
0.00794108
0.00571828
0.00466941
0.00436157
0.00439848
0.00465188
0.00514799
0.00594399
0.0069965
0.00810697
0.00897991
0.00935275
0.00910138
0.00827791
0.00706854
0.00572294
0.00447185
0.00347123
0.00277533
0.0023531
0.00211908
0.00199475
0.00192692
0.00187664
0.00182237
0.00175418
0.00166804
0.00156378
0.0014454
0.0013303
0.00132539
0.0026943
0.0112714
0.0198728
0.00845503
0.0159448
0.0315786
0.0266477
0.0195398
0.0139778
0.0102856
0.00802813
0.00675209
0.00604843
0.00572971
0.00578287
0.00627924
0.00722204
0.00843649
0.00958546
0.0102953
0.010315
0.00959468
0.00829088
0.00667686
0.00507189
0.00373584
0.00280208
0.00224187
0.00196138
0.00182133
0.00175223
0.00171805
0.00169022
0.00165469
0.00160461
0.00153648
0.00145209
0.00135786
0.00127602
0.00132243
0.00252129
0.00978802
0.0200509
0.00853353
0.0132631
0.0256747
0.0233527
0.0186918
0.0145854
0.0115896
0.00954464
0.00820993
0.00729954
0.0068398
0.00696067
0.00772879
0.00899512
0.0103834
0.0114173
0.011705
0.0110969
0.00968722
0.00779147
0.00577593
0.00404445
0.00284657
0.00220101
0.00186844
0.00170606
0.00162606
0.00158538
0.00156281
0.0015406
0.00151024
0.0014677
0.00141222
0.00134674
0.00128022
0.00124657
0.00141343
0.00271361
0.00913729
0.0173098
0.00969516
0.0133564
0.0224216
0.0220635
0.0177636
0.014395
0.011896
0.0100855
0.00876916
0.00791795
0.00777564
0.00847967
0.00988261
0.011543
0.0128805
0.0133926
0.0128155
0.011244
0.00896451
0.00652232
0.00431382
0.00296214
0.00221963
0.00185142
0.00167013
0.00157745
0.001525
0.00149017
0.00146213
0.00143191
0.00139506
0.00135001
0.00129995
0.00125698
0.00125966
0.00142574
0.00200457
0.00362995
0.00968965
0.016044
0.00998891
0.0108798
0.0117672
0.0129254
0.0125537
0.0113748
0.0100744
0.00894563
0.00820163
0.00830175
0.00941915
0.0113029
0.0133757
0.0149574
0.0155086
0.0147837
0.01281
0.0100888
0.00699192
0.00461409
0.00310847
0.00231871
0.00193489
0.00174674
0.00164419
0.00157867
0.00152824
0.00148245
0.00143644
0.00138875
0.00133958
0.0012907
0.00125565
0.00127746
0.00146817
0.00204125
0.00326732
0.00559723
0.0102537
0.0167672
0.00907942
0.00354242
0.00482076
0.00598949
0.00659178
0.00726784
0.00878463
0.0113052
0.0141429
0.016564
0.0179891
0.0180491
0.0166759
0.0141109
0.0105112
0.00722293
0.00475218
0.00325947
0.00249977
0.00215016
0.00198125
0.00188425
0.00181531
0.00175759
0.0017039
0.00165069
0.00159606
0.0015399
0.00149414
0.00146374
0.00146934
0.00157323
0.00191796
0.00275306
0.00439412
0.00715569
0.0109936
0.0145555
0.00830662
0.00444649
0.00627727
0.00808616
0.0109912
0.014665
0.018126
0.0203743
0.0214453
0.0213654
0.0201159
0.0175313
0.0139942
0.010295
0.00700371
0.004701
0.00339812
0.00279243
0.0025379
0.00242444
0.00236116
0.00231664
0.00228197
0.00225623
0.00224033
0.00223356
0.00223139
0.00222478
0.00220255
0.00219109
0.00222076
0.00234538
0.00268882
0.00346955
0.00500698
0.00766739
0.0117433
0.0173818
0.00833497
0.0150817
0.0245584
0.0181228
0.0143667
0.0169571
0.0206451
0.022771
0.0234768
0.0230338
0.021687
0.0196511
0.0169518
0.0137048
0.0102999
0.0073174
0.00522494
0.00409999
0.00362415
0.00345212
0.0033861
0.00334545
0.00330396
0.00325866
0.00321647
0.00318755
0.00318154
0.00320536
0.00326172
0.00334717
0.00344958
0.00354791
0.00367495
0.00391353
0.00433271
0.00509577
0.00649185
0.00904168
0.014042
0.0180988
0.0103579
0.013809
0.0170648
0.0178209
0.0207248
0.0216439
0.0220571
0.0210627
0.0192582
0.0171506
0.0149827
0.0128422
0.010746
0.00873132
0.00695065
0.00560299
0.00480262
0.00443347
0.00430818
0.00429429
0.00432004
0.0043495
0.00436815
0.00437561
0.00438081
0.00439805
0.00444465
0.00454028
0.0047069
0.00496683
0.0053369
0.00581703
0.00636793
0.00694432
0.00761066
0.00855519
0.010048
0.012472
0.0172128
0.0193691
0.0113385
0.0121319
0.00891415
0.00882868
0.0093567
0.00980897
0.00925168
0.0081959
0.00703234
0.00593842
0.00496216
0.00410713
0.00338397
0.00282485
0.0024585
0.0022751
0.00221217
0.00221681
0.00225272
0.00230079
0.00235209
0.00240355
0.00245615
0.00251427
0.00258538
0.00267985
0.00281063
0.00299201
0.00323642
0.00354981
0.0039284
0.00436079
0.00483604
0.00535572
0.00592562
0.00654719
0.00724433
0.00803324
0.00895322
0.0100274
0.00943229
)
;

boundaryField
{
    floor
    {
        type            kqRWallFunction;
        value           nonuniform List<scalar> 
36
(
0.0035846
0.000792431
0.00162589
0.00165202
0.00157284
0.00144487
0.00128244
0.00113033
0.000998802
0.000887215
0.000792762
0.000713041
0.000645019
0.000586013
0.000533491
0.000484746
0.000436277
0.000397973
0.000326103
0.000326103
0.000524297
0.000678787
0.000823304
0.00117103
0.00204685
0.00188678
0.0035846
0.00429736
0.00390626
0.00357944
0.000792431
0.00357944
0.00253842
0.0053864
0.00403716
0.00534083
)
;
    }
    ceiling
    {
        type            kqRWallFunction;
        value           nonuniform List<scalar> 
43
(
0.0121319
0.00891415
0.00882868
0.0093567
0.00980897
0.00925168
0.0081959
0.00703234
0.00593842
0.00496216
0.00410713
0.00338397
0.00282485
0.0024585
0.0022751
0.00221217
0.00221681
0.00225272
0.00230079
0.00235209
0.00240355
0.00245615
0.00251427
0.00258538
0.00267985
0.00281063
0.00299201
0.00323642
0.00354981
0.0039284
0.00436079
0.00483604
0.00535572
0.00592562
0.00654719
0.00724433
0.00803324
0.00895322
0.0100274
0.00943229
0.0108798
0.0117672
0.00444649
)
;
    }
    sWall
    {
        type            kqRWallFunction;
        value           nonuniform List<scalar> 9(0.0219176 0.0192303 0.0159448 0.0132631 0.0133564 0.0108798 0.0150817 0.013809 0.0121319);
    }
    nWall
    {
        type            kqRWallFunction;
        value           nonuniform List<scalar> 
14
(
0.00188678
0.00269962
0.00374894
0.00862302
0.00845503
0.00853353
0.00969516
0.00998891
0.00907942
0.00830662
0.00833497
0.0103579
0.0113385
0.00943229
)
;
    }
    sideWalls
    {
        type            empty;
    }
    glass1
    {
        type            kqRWallFunction;
        value           nonuniform List<scalar> 9(0.00158603 0.00340719 0.00549119 0.00797426 0.0108775 0.0141764 0.0179941 0.0216434 0.0228343);
    }
    glass2
    {
        type            kqRWallFunction;
        value           nonuniform List<scalar> 2(0.00640541 0.0084523);
    }
    sun
    {
        type            kqRWallFunction;
        value           nonuniform List<scalar> 
14
(
0.00158603
0.00180131
0.00178818
0.00194673
0.00209792
0.00224009
0.00237661
0.00251203
0.00265213
0.0028052
0.00295515
0.00310122
0.00324858
0.00341093
)
;
    }
    Table_master
    {
        type            kqRWallFunction;
        value           nonuniform List<scalar> 9(0.0026667 0.0020162 0.00157622 0.00126966 0.00104942 0.000887002 0.00076468 0.0006719 0.000603728);
    }
    Table_slave
    {
        type            kqRWallFunction;
        value           nonuniform List<scalar> 9(0.00345638 0.00285977 0.00243665 0.00211031 0.0018507 0.00163211 0.00143867 0.00125867 0.0010778);
    }
    inlet
    {
        type            turbulentIntensityKineticEnergyInlet;
        intensity       0.05;
        value           uniform 0.0009375;
    }
    outlet
    {
        type            zeroGradient;
    }
}


// ************************************************************************* //
