/*--------------------------------*- C++ -*----------------------------------*\
  =========                 |
  \\      /  F ield         | OpenFOAM: The Open Source CFD Toolbox
   \\    /   O peration     | Website:  https://openfoam.org
    \\  /    A nd           | Version:  6
     \\/     M anipulation  |
\*---------------------------------------------------------------------------*/
FoamFile
{
    version     2.0;
    format      ascii;
    class       volVectorField;
    location    "34799.9999981025685";
    object      U;
}
// * * * * * * * * * * * * * * * * * * * * * * * * * * * * * * * * * * * * * //

dimensions      [0 1 -1 0 0 0 0];

internalField   nonuniform List<vector> 
778
(
(0.0656006 0.0794064 0)
(-0.155175 0.0157631 0)
(-0.164297 0.0146212 0)
(-0.192408 0.0122705 0)
(-0.216837 0.00871991 0)
(-0.236889 0.00473916 0)
(-0.252008 0.00041309 0)
(-0.261771 -0.00437082 0)
(-0.265665 -0.00981126 0)
(-0.262689 -0.0161889 0)
(-0.250889 -0.0242598 0)
(-0.226197 -0.0348758 0)
(-0.186084 -0.0503939 0)
(-0.144156 -0.0751589 0)
(-0.150034 -0.108543 0)
(0.0546847 0.035493 0)
(0.0158171 -0.0268947 0)
(0.0450368 -0.0232793 0)
(0.0694771 -0.0161747 0)
(0.0845696 -0.0103647 0)
(0.0917965 -0.0064179 0)
(0.0946343 -0.00433762 0)
(0.0956671 -0.00331643 0)
(0.0961238 -0.00273035 0)
(0.0963001 -0.00231694 0)
(0.0961787 -0.00195166 0)
(0.0956524 -0.00151008 0)
(0.0943919 -0.000754859 0)
(0.0915385 0.000851459 0)
(0.0853212 0.00407921 0)
(0.0737552 0.00779486 0)
(0.0600499 0.0116488 0)
(-0.00785953 0.030029 0)
(0.258401 0.167392 0)
(-0.161234 0.0483887 0)
(-0.141598 0.0459735 0)
(-0.173996 0.0416048 0)
(-0.199351 0.0356554 0)
(-0.220063 0.0291155 0)
(-0.236082 0.0220449 0)
(-0.247326 0.0142173 0)
(-0.253495 0.00528917 0)
(-0.253811 -0.00515559 0)
(-0.247659 -0.0170813 0)
(-0.23396 -0.0308463 0)
(-0.214059 -0.0480704 0)
(-0.197488 -0.0699511 0)
(-0.193978 -0.0826257 0)
(-0.166383 -0.0425281 0)
(-0.105351 -0.0363444 0)
(-0.0983209 -0.0444484 0)
(0.109355 -0.0421686 0)
(0.0644944 -0.0412405 0)
(0.0719817 -0.0323378 0)
(0.0860109 -0.020782 0)
(0.0939627 -0.0105226 0)
(0.096227 -0.00364982 0)
(0.0959904 -0.0001927 0)
(0.0955949 0.00124649 0)
(0.0955538 0.00188866 0)
(0.0956333 0.00226216 0)
(0.0956413 0.00258736 0)
(0.0955423 0.00313338 0)
(0.0952518 0.00441856 0)
(0.0939934 0.00774038 0)
(0.0883894 0.0167888 0)
(0.0746094 0.0253991 0)
(0.0632231 0.0330519 0)
(-0.0518586 0.0636996 0)
(0.429983 0.253952 0)
(-0.194235 0.0847541 0)
(-0.112773 0.0784203 0)
(-0.148233 0.0669378 0)
(-0.170657 0.0554777 0)
(-0.188741 0.043703 0)
(-0.202569 0.0313217 0)
(-0.212252 0.0179904 0)
(-0.217597 0.0033901 0)
(-0.217951 -0.0126321 0)
(-0.212695 -0.0303178 0)
(-0.20159 -0.0498998 0)
(-0.185949 -0.0715615 0)
(-0.169406 -0.0932068 0)
(-0.151028 -0.104554 0)
(-0.120187 -0.0931225 0)
(-0.0794975 -0.0949072 0)
(-0.071395 -0.107554 0)
(0.0921803 -0.0882362 0)
(0.0626156 -0.0658459 0)
(0.0744376 -0.0462311 0)
(0.0881081 -0.0293628 0)
(0.0950064 -0.0150341 0)
(0.0921524 -0.0120607 0)
(0.0879113 -0.00795193 0)
(0.0855368 -0.00577694 0)
(0.0848421 -0.00455871 0)
(0.0848138 -0.00380014 0)
(0.0850646 -0.00322883 0)
(0.0857159 -0.00260018 0)
(0.0874807 -0.00143785 0)
(0.0921747 0.00292707 0)
(0.0903423 0.025138 0)
(0.0735295 0.0424418 0)
(0.0702311 0.0576242 0)
(-0.089822 0.101152 0)
(0.578551 0.325837 0)
(-0.240107 0.121803 0)
(-0.0808276 0.109206 0)
(-0.121563 0.0898296 0)
(-0.13899 0.0740396 0)
(-0.153044 0.0586033 0)
(-0.163795 0.0427217 0)
(-0.171381 0.0257836 0)
(-0.175585 0.00718158 0)
(-0.175644 -0.0135367 0)
(-0.170954 -0.0364661 0)
(-0.161383 -0.0614476 0)
(-0.147509 -0.0873665 0)
(-0.130516 -0.110299 0)
(-0.109541 -0.123195 0)
(-0.0820481 -0.124521 0)
(-0.0524239 -0.126335 0)
(-0.0332841 -0.123159 0)
(0.0165015 -0.0568105 0)
(0.0609267 -0.0930658 0)
(0.0685587 -0.0792649 0)
(0.0791632 -0.0589256 0)
(0.0916493 -0.0397042 0)
(0.102976 -0.0210555 0)
(0.115731 -0.01328 0)
(0.126955 -0.0088551 0)
(0.132616 -0.00562849 0)
(0.133647 -0.00311654 0)
(0.131161 -0.000891184 0)
(0.12573 0.00127955 0)
(0.117225 0.0036635 0)
(0.104877 0.00672381 0)
(0.0856251 0.0111623 0)
(0.0717318 0.0368634 0)
(0.0604368 0.0606531 0)
(0.0765001 0.0835631 0)
(-0.117391 0.1376 0)
(0.705731 0.383675 0)
(-0.287684 0.156996 0)
(-0.0476899 0.13376 0)
(-0.0962812 0.106891 0)
(-0.107727 0.0875622 0)
(-0.116754 0.0691377 0)
(-0.123537 0.0504127 0)
(-0.12819 0.0305582 0)
(-0.130543 0.00870333 0)
(-0.129729 -0.0158293 0)
(-0.125225 -0.043077 0)
(-0.116593 -0.0726804 0)
(-0.103856 -0.102827 0)
(-0.0873569 -0.129097 0)
(-0.0673809 -0.145787 0)
(-0.0440138 -0.15225 0)
(-0.0201397 -0.152334 0)
(0.000413828 -0.143677 0)
(0.0309294 -0.114995 0)
(0.0570842 -0.10938 0)
(0.0706457 -0.0924933 0)
(0.0807618 -0.0713466 0)
(0.0908101 -0.0509125 0)
(0.100364 -0.0328799 0)
(0.109496 -0.0194784 0)
(0.11657 -0.0100874 0)
(0.12005 -0.00338629 0)
(0.120302 0.00187375 0)
(0.117934 0.00642801 0)
(0.113317 0.0107916 0)
(0.106476 0.0154756 0)
(0.0973413 0.0211812 0)
(0.0854197 0.0292081 0)
(0.0738684 0.0472448 0)
(0.063394 0.071345 0)
(0.0950852 0.0995603 0)
(0.0173229 0.138774 0)
(0.0969425 0.182776 0)
(0.140396 0.145505 0)
(-0.219983 0.2015 0)
(0.810435 0.431968 0)
(-0.331323 0.190664 0)
(-0.0173107 0.150223 0)
(-0.0733568 0.117491 0)
(-0.0785775 0.0954767 0)
(-0.0821939 0.0749072 0)
(-0.0844435 0.054305 0)
(-0.0854765 0.0326865 0)
(-0.0852161 0.00883563 0)
(-0.0825354 -0.0184223 0)
(-0.077362 -0.0490256 0)
(-0.0687209 -0.0825006 0)
(-0.0566992 -0.116515 0)
(-0.0416008 -0.146337 0)
(-0.0245769 -0.166021 0)
(-0.00615225 -0.1745 0)
(0.0122455 -0.172718 0)
(0.0281677 -0.160964 0)
(0.046319 -0.139294 0)
(0.0627449 -0.122341 0)
(0.0733866 -0.102527 0)
(0.0810366 -0.0805125 0)
(0.0877774 -0.0592008 0)
(0.0939576 -0.0403463 0)
(0.0993121 -0.0251766 0)
(0.103046 -0.0138216 0)
(0.104707 -0.00512856 0)
(0.104339 0.00206771 0)
(0.102236 0.00854538 0)
(0.098646 0.0148239 0)
(0.0937206 0.0214298 0)
(0.087689 0.0289939 0)
(0.0808168 0.0384263 0)
(0.0750595 0.0528689 0)
(0.0698353 0.0728828 0)
(0.0920426 0.0986292 0)
(0.0741709 0.107472 0)
(0.0912108 0.047885 0)
(0.14656 -0.035563 0)
(-0.323091 0.107258 0)
(0.879897 0.474679 0)
(-0.368643 0.220945 0)
(0.00371888 0.155527 0)
(-0.052651 0.121536 0)
(-0.0521922 0.0978135 0)
(-0.0510059 0.0757807 0)
(-0.0489965 0.0540043 0)
(-0.0464766 0.0315016 0)
(-0.0432852 0.0067485 0)
(-0.0373212 -0.0223104 0)
(-0.0302396 -0.0553697 0)
(-0.0204374 -0.0919488 0)
(-0.00859838 -0.128925 0)
(0.00465754 -0.161302 0)
(0.0177511 -0.181926 0)
(0.0305714 -0.19023 0)
(0.0423981 -0.187202 0)
(0.0527066 -0.174363 0)
(0.0626586 -0.154003 0)
(0.0712022 -0.132362 0)
(0.076689 -0.109378 0)
(0.0801138 -0.0859196 0)
(0.0826887 -0.0637861 0)
(0.0849212 -0.0443239 0)
(0.0867729 -0.0282512 0)
(0.0879086 -0.0154748 0)
(0.088097 -0.00521707 0)
(0.0871853 0.00344039 0)
(0.0853455 0.011182 0)
(0.0827195 0.0185315 0)
(0.079475 0.0259877 0)
(0.0758851 0.0340479 0)
(0.0723522 0.0432583 0)
(0.0702634 0.0548942 0)
(0.0690348 0.0693293 0)
(0.0821583 0.0882868 0)
(0.085575 0.0914795 0)
(0.0915031 0.0541082 0)
(0.181747 0.0272109 0)
(-0.278348 0.156863 0)
(0.927931 0.51714 0)
(-0.383156 0.234137 0)
(0.0168905 0.132922 0)
(-0.0273115 0.116607 0)
(-0.0265318 0.0948747 0)
(-0.0227162 0.07238 0)
(-0.017596 0.050057 0)
(-0.0123153 0.0272101 0)
(-0.00533864 0.00182204 0)
(0.00463511 -0.0307566 0)
(0.0143688 -0.0653418 0)
(0.0256887 -0.103361 0)
(0.0373592 -0.14091 0)
(0.0480637 -0.172204 0)
(0.0571803 -0.192386 0)
(0.0646919 -0.199836 0)
(0.0704217 -0.195366 0)
(0.0743696 -0.181126 0)
(0.0770454 -0.160017 0)
(0.0783682 -0.136024 0)
(0.0779639 -0.111039 0)
(0.0764173 -0.0865631 0)
(0.0745681 -0.0640571 0)
(0.0729493 -0.0445129 0)
(0.0717031 -0.0283013 0)
(0.0706944 -0.015137 0)
(0.06972 -0.00432043 0)
(0.0684872 0.00492529 0)
(0.0670851 0.0131842 0)
(0.0654786 0.0209438 0)
(0.0637347 0.0286287 0)
(0.0620255 0.0365855 0)
(0.060642 0.045086 0)
(0.060456 0.0545596 0)
(0.0613678 0.0649017 0)
(0.0702182 0.077611 0)
(0.0806533 0.0802583 0)
(0.0824194 0.0602969 0)
(0.239155 0.0568055 0)
(-0.542767 0.235234 0)
(1.01129 0.506788 0)
(-0.137109 0.29632 0)
(0.0410979 0.161473 0)
(0.0406491 0.122016 0)
(0.0131301 0.0918997 0)
(0.00870933 0.0652887 0)
(0.0141445 0.0413161 0)
(0.0207826 0.0169116 0)
(0.032603 -0.0110764 0)
(0.0440812 -0.0421878 0)
(0.0559734 -0.0769449 0)
(0.0682732 -0.114687 0)
(0.0794333 -0.151174 0)
(0.0879508 -0.180647 0)
(0.0931796 -0.198655 0)
(0.0952317 -0.203779 0)
(0.0945139 -0.197076 0)
(0.091572 -0.180983 0)
(0.0870821 -0.158557 0)
(0.0814962 -0.133124 0)
(0.0751126 -0.107121 0)
(0.0685392 -0.0823675 0)
(0.0625082 -0.0602103 0)
(0.05755 -0.0413658 0)
(0.0538644 -0.0259096 0)
(0.0513498 -0.0133381 0)
(0.0497288 -0.00287082 0)
(0.0485984 0.00618973 0)
(0.0478989 0.0143507 0)
(0.0473912 0.0220563 0)
(0.0470019 0.0296455 0)
(0.0467484 0.0373388 0)
(0.0467217 0.045227 0)
(0.0473152 0.0533267 0)
(0.0484953 0.0611351 0)
(0.0540053 0.0685434 0)
(0.0648067 0.0649319 0)
(0.0626716 0.0345324 0)
(0.287045 0.0702838 0)
(-0.747375 0.308895 0)
(0.779314 0.395619 0)
(0.000985713 0.319441 0)
(0.0934473 0.218868 0)
(0.110684 0.155097 0)
(0.0772552 0.106728 0)
(0.0598714 0.0674357 0)
(0.0582954 0.0356462 0)
(0.0624776 0.0063026 0)
(0.0739277 -0.0235302 0)
(0.0855219 -0.0551208 0)
(0.0977427 -0.0898244 0)
(0.109631 -0.126343 0)
(0.119022 -0.160143 0)
(0.124133 -0.185858 0)
(0.124362 -0.199903 0)
(0.120137 -0.201447 0)
(0.11241 -0.191864 0)
(0.10225 -0.173715 0)
(0.0906978 -0.150046 0)
(0.078594 -0.1239 0)
(0.0666317 -0.0978231 0)
(0.0555531 -0.0737341 0)
(0.0460984 -0.052876 0)
(0.0387594 -0.035686 0)
(0.0336573 -0.021936 0)
(0.0305552 -0.0108312 0)
(0.0289815 -0.00144913 0)
(0.0284552 0.00684967 0)
(0.0286636 0.0145196 0)
(0.0292555 0.0219356 0)
(0.030061 0.0293433 0)
(0.0309539 0.0368908 0)
(0.0317751 0.0446276 0)
(0.032313 0.0525213 0)
(0.0315542 0.0601889 0)
(0.0295787 0.0672492 0)
(0.0136866 0.0681954 0)
(0.00269699 0.101489 0)
(0.0176839 0.17865 0)
(-0.635121 0.301981 0)
(0.617234 0.220614 0)
(0.00478565 0.298018 0)
(0.113078 0.241488 0)
(0.148362 0.177471 0)
(0.13094 0.123392 0)
(0.117922 0.0776955 0)
(0.115071 0.0387421 0)
(0.117258 0.00324598 0)
(0.123648 -0.0308573 0)
(0.131902 -0.0651219 0)
(0.141616 -0.100598 0)
(0.150519 -0.135475 0)
(0.155665 -0.165359 0)
(0.15512 -0.185889 0)
(0.148569 -0.194747 0)
(0.136914 -0.191959 0)
(0.121622 -0.179277 0)
(0.104192 -0.159284 0)
(0.0859944 -0.134905 0)
(0.0681301 -0.108939 0)
(0.0515484 -0.0838823 0)
(0.0371376 -0.0616098 0)
(0.025672 -0.0432142 0)
(0.0174794 -0.0287517 0)
(0.012384 -0.0175984 0)
(0.00974191 -0.00857128 0)
(0.00882333 -0.000672159 0)
(0.00916096 0.00662428 0)
(0.0102412 0.0136683 0)
(0.0117844 0.0207218 0)
(0.0136117 0.0279476 0)
(0.0155396 0.0354953 0)
(0.0172808 0.0435394 0)
(0.0183414 0.0523763 0)
(0.0174275 0.0624579 0)
(0.0136564 0.075345 0)
(-0.013483 0.0998494 0)
(-0.0132745 0.154392 0)
(0.00726583 0.18524 0)
(-0.541897 0.168421 0)
(0.570784 0.118204 0)
(-0.0202692 0.258514 0)
(0.113709 0.22983 0)
(0.165062 0.175971 0)
(0.166742 0.126054 0)
(0.164424 0.0809396 0)
(0.165436 0.0397958 0)
(0.168407 0.0014459 0)
(0.172387 -0.035559 0)
(0.177988 -0.0720495 0)
(0.184184 -0.107695 0)
(0.187898 -0.13974 0)
(0.186109 -0.164298 0)
(0.177435 -0.178533 0)
(0.162324 -0.181639 0)
(0.142317 -0.17451 0)
(0.119342 -0.159181 0)
(0.0951472 -0.138101 0)
(0.07132 -0.114004 0)
(0.0490742 -0.0893954 0)
(0.0295839 -0.0666975 0)
(0.0138784 -0.0476676 0)
(0.00263462 -0.0330806 0)
(-0.00443429 -0.0222228 0)
(-0.00806509 -0.0141723 0)
(-0.00960077 -0.00728022 0)
(-0.00971711 -0.000817606 0)
(-0.0087038 0.00551957 0)
(-0.00703441 0.0119232 0)
(-0.00482389 0.0185404 0)
(-0.00220846 0.0254869 0)
(0.000716995 0.0330235 0)
(0.0037216 0.041408 0)
(0.00646486 0.0513167 0)
(0.00814141 0.064146 0)
(0.00935265 0.0831544 0)
(-0.00597082 0.11845 0)
(-0.0117824 0.187379 0)
(0.119352 0.201848 0)
(-0.487067 0.0704218 0)
(0.628494 0.0534488 0)
(0.00909011 0.197234 0)
(0.113708 0.196904 0)
(0.175033 0.157836 0)
(0.191311 0.117539 0)
(0.198003 0.0770819 0)
(0.203375 0.0370531 0)
(0.208623 -0.00174101 0)
(0.213165 -0.0398698 0)
(0.217507 -0.0767 0)
(0.219353 -0.110092 0)
(0.215546 -0.136891 0)
(0.204197 -0.15448 0)
(0.185399 -0.16185 0)
(0.160765 -0.15955 0)
(0.132454 -0.148982 0)
(0.102689 -0.132212 0)
(0.073167 -0.111347 0)
(0.0456449 -0.0889332 0)
(0.0212702 -0.0671525 0)
(0.0016485 -0.0484234 0)
(-0.0122137 -0.0344 0)
(-0.0203337 -0.0250776 0)
(-0.0248367 -0.0181695 0)
(-0.0269512 -0.0124137 0)
(-0.0275573 -0.00700961 0)
(-0.0270742 -0.00160894 0)
(-0.0256293 0.00394279 0)
(-0.0235981 0.00973233 0)
(-0.020974 0.015842 0)
(-0.0178509 0.0223584 0)
(-0.0142559 0.0294845 0)
(-0.0101863 0.0376011 0)
(-0.00567027 0.0475183 0)
(-0.00110953 0.0613376 0)
(0.00455273 0.0840676 0)
(0.00402106 0.120513 0)
(-0.00415108 0.182767 0)
(0.171878 0.202008 0)
(-0.3615 0.116752 0)
(0.472237 0.074798 0)
(-0.132258 0.137521 0)
(0.0941148 0.133204 0)
(0.172577 0.11666 0)
(0.203703 0.0951502 0)
(0.21802 0.0641481 0)
(0.228048 0.0281071 0)
(0.237162 -0.00924508 0)
(0.243572 -0.0455567 0)
(0.245097 -0.0784591 0)
(0.239137 -0.105306 0)
(0.224345 -0.124033 0)
(0.201251 -0.133771 0)
(0.171776 -0.134952 0)
(0.138489 -0.12881 0)
(0.103666 -0.116612 0)
(0.0695699 -0.100203 0)
(0.0373764 -0.0812127 0)
(0.00941386 -0.0621751 0)
(-0.0137126 -0.0449817 0)
(-0.0283065 -0.0335407 0)
(-0.0372932 -0.0258579 0)
(-0.042349 -0.0203806 0)
(-0.0450247 -0.0158388 0)
(-0.0460992 -0.0116235 0)
(-0.0460155 -0.00735441 0)
(-0.0450123 -0.00284117 0)
(-0.0431411 0.00202478 0)
(-0.0408221 0.00723756 0)
(-0.0379691 0.012829 0)
(-0.0346782 0.0188723 0)
(-0.0310077 0.0254957 0)
(-0.026936 0.0330016 0)
(-0.0224843 0.0423379 0)
(-0.0183612 0.0565621 0)
(-0.0142909 0.0797909 0)
(-0.00858471 0.108168 0)
(-0.00611605 0.146553 0)
(0.187935 0.178228 0)
(-0.334677 0.181231 0)
(0.723928 0.134502 0)
(0.0819421 0.115249 0)
(0.14971 0.0991484 0)
(0.222302 0.0803457 0)
(0.243954 0.0697047 0)
(0.248768 0.0473752 0)
(0.255098 0.0172299 0)
(0.261206 -0.0149991 0)
(0.260218 -0.0449609 0)
(0.249709 -0.0697602 0)
(0.229466 -0.0877025 0)
(0.201091 -0.0983056 0)
(0.166976 -0.101859 0)
(0.129669 -0.0993336 0)
(0.0916446 -0.0919591 0)
(0.0543276 -0.0804004 0)
(0.0203053 -0.0662701 0)
(-0.0108447 -0.0507002 0)
(-0.0332875 -0.0384099 0)
(-0.0483873 -0.0298664 0)
(-0.0575835 -0.024476 0)
(-0.0631303 -0.0206529 0)
(-0.0663495 -0.0175422 0)
(-0.0680092 -0.0146013 0)
(-0.0684477 -0.0115787 0)
(-0.0678453 -0.00828923 0)
(-0.0663315 -0.00457457 0)
(-0.0639998 -0.000300906 0)
(-0.0611695 0.00450565 0)
(-0.0581642 0.00978266 0)
(-0.0550139 0.0156146 0)
(-0.0520374 0.0221484 0)
(-0.0495785 0.0298005 0)
(-0.0478847 0.0398942 0)
(-0.0476148 0.0552549 0)
(-0.0496483 0.0765608 0)
(-0.048508 0.0953951 0)
(-0.0296487 0.108792 0)
(0.128252 0.157786 0)
(-0.446694 0.237131 0)
(0.192094 0.0879554 0)
(0.225888 0.0996797 0)
(0.246616 0.06993 0)
(0.242663 0.0395148 0)
(0.239797 0.011853 0)
(0.234708 -0.0130633 0)
(0.219914 -0.0334709 0)
(0.196152 -0.0486107 0)
(0.165803 -0.0584666 0)
(0.131342 -0.0634753 0)
(0.0945835 -0.0639295 0)
(0.0574743 -0.0605277 0)
(0.0219235 -0.0540855 0)
(-0.0127065 -0.0446965 0)
(-0.0398389 -0.0355777 0)
(-0.0603227 -0.0281347 0)
(-0.0742065 -0.0233505 0)
(-0.0832547 -0.0203809 0)
(-0.0891362 -0.0184569 0)
(-0.0930831 -0.0168209 0)
(-0.0956578 -0.0152086 0)
(-0.0970947 -0.013489 0)
(-0.0974695 -0.0115571 0)
(-0.0968028 -0.00927534 0)
(-0.0951124 -0.00646289 0)
(-0.0924399 -0.00290556 0)
(-0.0888039 0.00154901 0)
(-0.0851199 0.00680429 0)
(-0.0815773 0.0129037 0)
(-0.0786137 0.0201721 0)
(-0.0767973 0.0292329 0)
(-0.0761968 0.0414162 0)
(-0.0774014 0.0587598 0)
(-0.0843372 0.0816209 0)
(-0.0950842 0.103715 0)
(-0.0873711 0.118952 0)
(-0.084671 0.151807 0)
(-0.542435 0.198891 0)
(0.451555 0.209259 0)
(0.207239 0.178578 0)
(0.153424 0.118713 0)
(0.140034 0.0639523 0)
(0.128417 0.0258332 0)
(0.114139 0.00179713 0)
(0.0986646 -0.0129262 0)
(0.0775641 -0.0221317 0)
(0.0528924 -0.0279107 0)
(0.025822 -0.0306165 0)
(-0.00381862 -0.030144 0)
(-0.0326199 -0.0273848 0)
(-0.0581446 -0.0235597 0)
(-0.0794756 -0.0197272 0)
(-0.0953542 -0.0170926 0)
(-0.106587 -0.0154095 0)
(-0.11442 -0.014475 0)
(-0.120251 -0.013703 0)
(-0.12486 -0.012924 0)
(-0.12855 -0.0121202 0)
(-0.131375 -0.0113358 0)
(-0.133307 -0.0105801 0)
(-0.134269 -0.00981398 0)
(-0.134147 -0.00892595 0)
(-0.132799 -0.00769355 0)
(-0.130104 -0.00574817 0)
(-0.126002 -0.00261258 0)
(-0.120452 0.00210157 0)
(-0.114777 0.00836261 0)
(-0.10968 0.0163021 0)
(-0.105233 0.0265597 0)
(-0.100844 0.0402549 0)
(-0.095289 0.0589395 0)
(-0.0905753 0.0840186 0)
(-0.0885325 0.115335 0)
(-0.0588239 0.145204 0)
(-0.00401872 0.137968 0)
(-0.577638 0.0293994 0)
(0.363577 -0.41289 0)
(-0.345544 -0.512676 0)
(-0.218693 -0.0286626 0)
(-0.0923265 0.110769 0)
(-0.0532556 0.0926834 0)
(-0.0310862 0.0547914 0)
(-0.0264136 0.0287137 0)
(-0.0315642 0.0120002 0)
(-0.0405257 0.00110727 0)
(-0.0510196 -0.00616115 0)
(-0.0645809 -0.0107179 0)
(-0.079796 -0.0133165 0)
(-0.0954442 -0.0150858 0)
(-0.110352 -0.0170945 0)
(-0.123383 -0.0195573 0)
(-0.133612 -0.0222376 0)
(-0.141073 -0.0247778 0)
(-0.146805 -0.026652 0)
(-0.151805 -0.0279002 0)
(-0.156574 -0.028648 0)
(-0.16115 -0.0289924 0)
(-0.165383 -0.0289661 0)
(-0.169084 -0.0285738 0)
(-0.172067 -0.0278016 0)
(-0.174122 -0.0266194 0)
(-0.174992 -0.0249719 0)
(-0.174395 -0.0227502 0)
(-0.172091 -0.0197395 0)
(-0.167981 -0.0155606 0)
(-0.162129 -0.00968192 0)
(-0.154549 -0.00162224 0)
(-0.14622 0.00862784 0)
(-0.137977 0.0206684 0)
(-0.128218 0.0345415 0)
(-0.11438 0.0510692 0)
(-0.0942436 0.0708252 0)
(-0.0675852 0.0956912 0)
(-0.0244655 0.130314 0)
(0.142831 0.137615 0)
(-0.413279 0.0490984 0)
(0.125324 -0.184248 0)
(-0.38709 -0.297122 0)
(-0.342768 -0.0967995 0)
(-0.264466 0.0513257 0)
(-0.210812 0.0836005 0)
(-0.178709 0.0747493 0)
(-0.162448 0.061283 0)
(-0.156463 0.0512764 0)
(-0.156534 0.0460051 0)
(-0.159786 0.0452353 0)
(-0.164214 0.0480783 0)
(-0.168363 0.0533745 0)
(-0.171637 0.0598492 0)
(-0.173885 0.0655257 0)
(-0.175646 0.0686031 0)
(-0.177528 0.0696503 0)
(-0.180005 0.0697131 0)
(-0.183057 0.0696971 0)
(-0.186437 0.0696777 0)
(-0.189921 0.0693414 0)
(-0.193338 0.0683869 0)
(-0.196566 0.0666421 0)
(-0.199507 0.0640082 0)
(-0.202073 0.0603891 0)
(-0.204174 0.0556797 0)
(-0.20571 0.0498576 0)
(-0.206578 0.0431536 0)
(-0.206665 0.0361757 0)
(-0.205825 0.029846 0)
(-0.203827 0.0251473 0)
(-0.200218 0.0228169 0)
(-0.193905 0.022928 0)
(-0.184329 0.0246057 0)
(-0.172106 0.027015 0)
(-0.154578 0.0304563 0)
(-0.128281 0.0331994 0)
(-0.0883977 0.0325785 0)
(-0.0282342 0.0350117 0)
(0.172634 0.0716796 0)
(-0.379424 0.110351 0)
(1.14625 -0.0111179 0)
(-0.294118 -0.322414 0)
(-0.352494 -0.233605 0)
(-0.351815 -0.149247 0)
(-0.328121 -0.107804 0)
(-0.296366 -0.0991211 0)
(-0.268873 -0.101232 0)
(-0.24877 -0.106899 0)
(-0.235179 -0.114633 0)
(-0.2262 -0.124529 0)
(-0.220189 -0.136962 0)
(-0.21604 -0.151763 0)
(-0.213119 -0.167365 0)
(-0.211241 -0.180928 0)
(-0.210601 -0.18979 0)
(-0.211417 -0.194267 0)
(-0.213408 -0.195536 0)
(-0.216092 -0.195106 0)
(-0.219055 -0.193902 0)
(-0.222132 -0.192254 0)
(-0.225391 -0.190158 0)
(-0.229016 -0.187446 0)
(-0.233226 -0.183885 0)
(-0.238253 -0.179225 0)
(-0.244345 -0.173232 0)
(-0.251766 -0.1657 0)
(-0.260712 -0.156461 0)
(-0.271114 -0.145405 0)
(-0.282407 -0.132538 0)
(-0.293388 -0.118021 0)
(-0.302304 -0.102136 0)
(-0.307135 -0.0852309 0)
(-0.305659 -0.0678021 0)
(-0.297022 -0.0512157 0)
(-0.283199 -0.036984 0)
(-0.264431 -0.0247342 0)
(-0.234891 -0.0123086 0)
(-0.185366 0.0106315 0)
(-0.165795 0.0586018 0)
(-0.568491 0.116315 0)
)
;

boundaryField
{
    floor
    {
        type            noSlip;
    }
    ceiling
    {
        type            noSlip;
    }
    sWall
    {
        type            noSlip;
    }
    nWall
    {
        type            noSlip;
    }
    sideWalls
    {
        type            empty;
    }
    glass1
    {
        type            noSlip;
    }
    glass2
    {
        type            noSlip;
    }
    sun
    {
        type            noSlip;
    }
    Table_master
    {
        type            noSlip;
    }
    Table_slave
    {
        type            noSlip;
    }
    inlet
    {
        type            fixedValue;
        value           uniform (0.5 0 0);
    }
    outlet
    {
        type            zeroGradient;
    }
}


// ************************************************************************* //
