/*--------------------------------*- C++ -*----------------------------------*\
  =========                 |
  \\      /  F ield         | OpenFOAM: The Open Source CFD Toolbox
   \\    /   O peration     | Website:  https://openfoam.org
    \\  /    A nd           | Version:  6
     \\/     M anipulation  |
\*---------------------------------------------------------------------------*/
FoamFile
{
    version     2.0;
    format      ascii;
    class       volScalarField;
    location    "1030";
    object      epsilon;
}
// * * * * * * * * * * * * * * * * * * * * * * * * * * * * * * * * * * * * * //

dimensions      [0 2 -3 0 0 0 0];

internalField   nonuniform List<scalar> 
458
(
0.000432866
0.000557987
0.000596683
0.000686489
0.000776792
0.000869283
0.00096888
0.0010775
0.00117208
0.00123423
0.00124134
0.00117489
0.00102231
0.0007441
0.000324994
3.92357e-05
6.32072e-05
9.2111e-05
0.000104423
9.95995e-05
8.16195e-05
6.44071e-05
5.12231e-05
4.13723e-05
3.39165e-05
2.81886e-05
2.37395e-05
2.02089e-05
1.73146e-05
1.48381e-05
1.2601e-05
1.13845e-05
8.83765e-06
0.00106112
0.00158348
0.000518609
0.000502785
0.000518649
0.000551146
0.000606524
0.00068877
0.000780051
0.000854287
0.000882362
0.000848079
0.000757095
0.000624124
0.000502124
0.000747493
0.000426849
0.000231831
3.82962e-05
7.53713e-05
9.27638e-05
9.34543e-05
8.97571e-05
9.00598e-05
7.05783e-05
5.35057e-05
4.08148e-05
3.15421e-05
2.47446e-05
1.97256e-05
1.59698e-05
1.31704e-05
1.14077e-05
1.06899e-05
3.04859e-05
2.00742e-05
0.00190726
0.00384793
0.000603928
0.000458445
0.000466204
0.000508377
0.000580728
0.000683993
0.000797523
0.0008848
0.00091847
0.000888336
0.000802327
0.000667398
0.000517822
0.000416573
0.000353212
0.000381996
0.000139903
0.00013923
0.000125597
0.000111549
0.000103559
0.000198196
0.000132993
9.11457e-05
6.45338e-05
4.7291e-05
3.58161e-05
2.79894e-05
2.2566e-05
1.88692e-05
1.48298e-05
1.31287e-05
6.48654e-05
3.31315e-05
0.00306303
0.00799447
0.000904034
0.000439107
0.00042936
0.000481419
0.000575202
0.000718269
0.000863117
0.000958533
0.000989792
0.000953442
0.000855669
0.000703664
0.000548769
0.000432577
0.000366056
0.000380671
0.000584092
0.000375989
0.000245286
0.000178371
0.00014054
0.000123059
0.000283332
0.000218234
0.000180151
0.000155081
0.00013579
0.000118265
0.000103087
8.85229e-05
7.33191e-05
4.54054e-05
2.92947e-05
0.000114631
5.06233e-05
0.00464995
0.0144271
0.00174072
0.000471013
0.000395762
0.000451785
0.000589183
0.000833259
0.00101896
0.0011123
0.00112887
0.0010697
0.000937858
0.000754027
0.00056509
0.000420247
0.000331816
0.000302819
0.000303927
0.000253704
0.000209473
0.000175205
0.000146377
0.000122139
0.000113124
0.000103863
9.75781e-05
9.22269e-05
8.62256e-05
7.87889e-05
7.08999e-05
6.31684e-05
5.59113e-05
4.60346e-05
3.61931e-05
7.47514e-05
0.000114581
0.000120966
0.000143503
0.000184281
0.00687205
0.0217346
0.00400247
0.000791064
0.000465322
0.000474316
0.00070126
0.00112054
0.00130679
0.00136646
0.00134415
0.00124669
0.00106768
0.000825558
0.000577871
0.0003889
0.000278964
0.000238644
0.000228341
0.000218349
0.000201238
0.000176858
0.000149383
0.000123827
0.000107383
0.000100949
9.97788e-05
9.93697e-05
9.72275e-05
9.16844e-05
8.17258e-05
7.04601e-05
5.98131e-05
5.01523e-05
4.34432e-05
5.55245e-05
8.83466e-05
0.000106125
0.0002067
0.000205619
0.00965904
0.0261938
0.00879684
0.00280196
0.00145514
0.00114183
0.00148421
0.00172753
0.00178675
0.00174984
0.00165048
0.00148409
0.00123044
0.000908454
0.000588457
0.000356056
0.000234628
0.00020033
0.000202489
0.000203134
0.000190148
0.000166957
0.000141427
0.00012027
0.000109116
0.000108584
0.000113687
0.000120174
0.000125745
0.000128191
0.000124112
0.0001111
9.74997e-05
8.59449e-05
8.04567e-05
8.87303e-05
0.000120589
0.000176781
0.000327319
0.000344814
0.0104471
0.030093
0.0160953
0.00965374
0.00597174
0.00418247
0.00338501
0.00287704
0.00253902
0.00228202
0.00203991
0.00176168
0.00139769
0.000968669
0.00056152
0.000300598
0.000190494
0.000174495
0.000179749
0.00017723
0.000162304
0.00014204
0.000124185
0.000113577
0.000112257
0.000119078
0.000131186
0.000146866
0.000165745
0.000187731
0.00021203
0.000232949
0.000246024
0.000273139
0.000329098
0.000480072
0.000820427
0.00137751
0.00410978
0.00128194
0.00984372
0.0172556
0.0132405
0.00999042
0.00750846
0.00579457
0.00459042
0.00379163
0.00325205
0.00282473
0.00242787
0.0020072
0.00148429
0.00091428
0.000407102
0.000216169
0.000158964
0.000147617
0.00014454
0.000137009
0.000124664
0.000112536
0.000105002
0.000104126
0.000109961
0.000121525
0.000138068
0.000159895
0.00018836
0.000225716
0.00027503
0.000339922
0.000427246
0.000551955
0.000734022
0.000976705
0.00125095
0.00149863
0.00170344
0.00104497
0.00347902
0.00472033
0.00512319
0.00502867
0.00473382
0.00432078
0.00378455
0.00315934
0.00254883
0.00194891
0.00116372
0.000536522
0.000254529
0.000159691
0.000129175
0.000118204
0.000110934
0.000103112
9.54564e-05
8.99635e-05
8.84314e-05
9.129e-05
9.81488e-05
0.000108604
0.000122657
0.000140888
0.000164544
0.000195751
0.000237979
0.000297
0.000378462
0.000488596
0.000629963
0.000786474
0.000911343
0.000944866
0.000871321
0.000544329
0.00289505
0.00862224
0.00828391
0.00717463
0.00607663
0.00479071
0.00347934
0.00225715
0.00128329
0.000710143
0.00037521
0.000215354
0.000151194
0.000124095
0.000111007
0.000102115
9.41258e-05
8.6964e-05
8.16312e-05
7.88664e-05
7.89496e-05
8.19897e-05
8.79479e-05
9.70048e-05
0.000109682
0.000126887
0.000150011
0.000181128
0.000223196
0.000279985
0.000356622
0.000458312
0.000585882
0.000728696
0.00084216
0.000956412
0.000733741
0.000565832
0.00336791
0.00362375
0.00386699
0.00532541
0.00449716
0.00312949
0.00187915
0.00115797
0.000823647
0.000572285
0.00039846
0.000290038
0.00021527
0.000168071
0.000139701
0.000121127
0.000107444
9.65301e-05
8.8097e-05
8.26934e-05
8.07355e-05
8.22024e-05
8.66601e-05
9.35013e-05
0.000102648
0.000114237
0.000128611
0.000146358
0.000168435
0.000196483
0.000231998
0.000276318
0.000331603
0.000400532
0.000486112
0.000603747
0.000660706
0.000620942
0.000499666
0.000395304
)
;

boundaryField
{
    floor
    {
        Cmu             0.09;
        kappa           0.41;
        E               9.8;
        type            epsilonWallFunction;
        value           nonuniform List<scalar> 
36
(
0.000324994
3.92357e-05
6.32072e-05
9.2111e-05
0.000104423
9.95995e-05
8.16195e-05
6.44071e-05
5.12231e-05
4.13723e-05
3.39165e-05
2.81886e-05
2.37395e-05
2.02089e-05
1.73146e-05
1.48381e-05
1.2601e-05
1.13845e-05
8.83765e-06
8.83765e-06
2.00742e-05
3.31315e-05
5.06233e-05
0.000120966
0.000143503
0.000184281
0.000324994
0.000747493
0.000426849
0.000231831
3.92357e-05
0.000231831
3.82962e-05
0.000381996
0.000139903
0.000584092
)
;
    }
    ceiling
    {
        Cmu             0.09;
        kappa           0.41;
        E               9.8;
        type            epsilonWallFunction;
        value           nonuniform List<scalar> 
43
(
0.00336791
0.00362375
0.00386699
0.00532541
0.00449716
0.00312949
0.00187915
0.00115797
0.000823647
0.000572285
0.00039846
0.000290038
0.00021527
0.000168071
0.000139701
0.000121127
0.000107444
9.65301e-05
8.8097e-05
8.26934e-05
8.07355e-05
8.22024e-05
8.66601e-05
9.35013e-05
0.000102648
0.000114237
0.000128611
0.000146358
0.000168435
0.000196483
0.000231998
0.000276318
0.000331603
0.000400532
0.000486112
0.000603747
0.000660706
0.000620942
0.000499666
0.000395304
0.00984372
0.0172556
0.00289505
)
;
    }
    sWall
    {
        Cmu             0.09;
        kappa           0.41;
        E               9.8;
        type            epsilonWallFunction;
        value           uniform 0.00336791;
    }
    nWall
    {
        Cmu             0.09;
        kappa           0.41;
        E               9.8;
        type            epsilonWallFunction;
        value           nonuniform List<scalar> 6(0.000184281 0.000205619 0.000344814 0.000544329 0.000565832 0.000395304);
    }
    sideWalls
    {
        type            empty;
    }
    glass1
    {
        Cmu             0.09;
        kappa           0.41;
        E               9.8;
        type            epsilonWallFunction;
        value           nonuniform List<scalar> 9(0.000432866 0.00106112 0.00190726 0.00306303 0.00464995 0.00687205 0.00965904 0.0104471 0.00984372);
    }
    glass2
    {
        Cmu             0.09;
        kappa           0.41;
        E               9.8;
        type            epsilonWallFunction;
        value           nonuniform List<scalar> 2(0.00128194 0.00104497);
    }
    sun
    {
        Cmu             0.09;
        kappa           0.41;
        E               9.8;
        type            epsilonWallFunction;
        value           nonuniform List<scalar> 
14
(
0.000432866
0.000557987
0.000596683
0.000686489
0.000776792
0.000869283
0.00096888
0.0010775
0.00117208
0.00123423
0.00124134
0.00117489
0.00102231
0.0007441
)
;
    }
    Table_master
    {
        Cmu             0.09;
        kappa           0.41;
        E               9.8;
        type            epsilonWallFunction;
        value           nonuniform List<scalar> 9(0.000198196 0.000132993 9.11457e-05 6.45338e-05 4.7291e-05 3.58161e-05 2.79894e-05 2.2566e-05 1.88692e-05);
    }
    Table_slave
    {
        Cmu             0.09;
        kappa           0.41;
        E               9.8;
        type            epsilonWallFunction;
        value           nonuniform List<scalar> 9(0.000283332 0.000218234 0.000180151 0.000155081 0.00013579 0.000118265 0.000103087 8.85229e-05 7.33191e-05);
    }
    inlet
    {
        type            turbulentMixingLengthDissipationRateInlet;
        mixingLength    0.01;
        phi             phi;
        k               k;
        value           uniform 0.000471672;
    }
    outlet
    {
        type            zeroGradient;
    }
}


// ************************************************************************* //
