/*--------------------------------*- C++ -*----------------------------------*\
  =========                 |
  \\      /  F ield         | OpenFOAM: The Open Source CFD Toolbox
   \\    /   O peration     | Website:  https://openfoam.org
    \\  /    A nd           | Version:  6
     \\/     M anipulation  |
\*---------------------------------------------------------------------------*/
FoamFile
{
    version     2.0;
    format      ascii;
    class       volScalarField;
    location    "1030";
    object      nut;
}
// * * * * * * * * * * * * * * * * * * * * * * * * * * * * * * * * * * * * * //

dimensions      [0 2 -1 0 0 0 0];

internalField   nonuniform List<scalar> 
458
(
0.00106946
0.00116391
0.00119022
0.00124716
0.00129961
0.00134927
0.00139895
0.00144938
0.00149061
0.00151651
0.00151941
0.0014918
0.0014242
0.00128112
0.000972009
0.000480403
0.000563163
0.000638482
0.00066575
0.000655336
0.000613258
0.000566704
0.00052505
0.000488969
0.000457631
0.000430265
0.000406321
0.000385088
0.000365749
0.000347406
0.000328988
0.000318041
0.000292297
0.001442
0.00324164
0.00298996
0.00342593
0.00386065
0.00430783
0.00470909
0.0050194
0.00533808
0.00563631
0.00587547
0.00602068
0.00603412
0.00582403
0.00473319
0.00128306
0.00106448
0.000868498
0.000476538
0.00113087
0.0016481
0.00204855
0.00217521
0.0015853
0.00133831
0.00117024
0.00104621
0.000951179
0.000875779
0.000810747
0.000749651
0.000688664
0.000634191
0.000588519
0.000719989
0.00038423
0.00175327
0.00435725
0.00359579
0.00438429
0.00471587
0.00494875
0.00512771
0.00529285
0.00552257
0.00580167
0.00610666
0.00640565
0.00664185
0.0067245
0.00633615
0.00516398
0.00391358
0.0010258
0.000733929
0.00126646
0.00184285
0.00241622
0.00258005
0.000824284
0.000721642
0.000636244
0.000567075
0.000511255
0.00046602
0.000429249
0.000399512
0.000376383
0.000417086
0.000483044
0.000844797
0.000454073
0.00205319
0.00556614
0.00349819
0.00454252
0.00472426
0.00470652
0.00468998
0.00476921
0.004956
0.00523201
0.00558279
0.00597432
0.00631746
0.00653329
0.00648452
0.00614905
0.00527741
0.00289742
0.00118179
0.00150468
0.00206856
0.0027592
0.00335808
0.00338777
0.000928561
0.000851176
0.000798467
0.000759565
0.000726664
0.000693954
0.000662898
0.000630082
0.000591722
0.000557311
0.000549168
0.00100694
0.000522992
0.00235972
0.00719277
0.00366965
0.0043124
0.00457208
0.00441775
0.00429213
0.00436417
0.0045614
0.00484849
0.00522656
0.00565586
0.00599216
0.00615983
0.00615587
0.00603843
0.00569043
0.00470557
0.00426491
0.00429588
0.00454639
0.00484491
0.0050283
0.00494609
0.00422019
0.00384697
0.00364132
0.00349404
0.00334492
0.00315296
0.00282612
0.00240524
0.00192652
0.00146539
0.00109906
0.00102395
0.000888912
0.000699197
0.000740172
0.000804523
0.00268786
0.00902567
0.00502638
0.00399306
0.00435204
0.00434345
0.00418316
0.00424344
0.00444447
0.00473149
0.0051149
0.00552632
0.00583771
0.00593772
0.00584397
0.00570939
0.00564874
0.00556764
0.00573526
0.00602608
0.00623033
0.00626716
0.0061305
0.0058438
0.00544307
0.00511743
0.00486382
0.00464034
0.00442077
0.00418763
0.00388642
0.00347346
0.00295116
0.00236043
0.00181373
0.00131514
0.00108089
0.000942919
0.00118741
0.000834448
0.00301085
0.010411
0.0075014
0.00490916
0.00427183
0.0043334
0.00438901
0.00442074
0.00453409
0.00478681
0.00516396
0.00557174
0.00585737
0.00589001
0.00571181
0.00558287
0.00579745
0.00627271
0.00675667
0.00703003
0.00703117
0.00679771
0.00640191
0.00591987
0.00543954
0.00505286
0.00476002
0.00452244
0.00431458
0.00412785
0.00395797
0.00373575
0.00337057
0.00288264
0.0023759
0.00188912
0.00157145
0.0014396
0.00137225
0.00099138
0.0030906
0.00966255
0.00820301
0.00688371
0.00587562
0.00542956
0.00501076
0.00472542
0.00471891
0.00495951
0.00534964
0.00575285
0.00599383
0.00594028
0.00572217
0.00577832
0.00639105
0.00689371
0.00715568
0.00714407
0.00686067
0.00637014
0.00576638
0.00515726
0.00465088
0.00429589
0.0040564
0.00388436
0.00375698
0.00367107
0.00363285
0.00363448
0.00353706
0.00324694
0.00296421
0.00280659
0.00287499
0.00303497
0.0036054
0.0015358
0.00302992
0.00365333
0.00403426
0.00424619
0.00427557
0.00421059
0.00421082
0.00438518
0.00474102
0.00519587
0.00566265
0.00603172
0.0061521
0.00594311
0.00588584
0.00619747
0.00655689
0.00668013
0.00659119
0.00627965
0.00575731
0.00511206
0.00446769
0.00393872
0.00357263
0.00333942
0.00318297
0.00306405
0.00296263
0.0028674
0.00276978
0.00266262
0.00256543
0.00248133
0.00242567
0.00239441
0.00233494
0.00221225
0.00206302
0.00143465
0.00133526
0.00234673
0.00322189
0.00390661
0.00453189
0.00514121
0.00562572
0.00595279
0.0061677
0.00620122
0.00600246
0.00575778
0.00576036
0.00586386
0.0057851
0.00555242
0.00518533
0.004691
0.00412239
0.00356669
0.00312423
0.00282616
0.00264336
0.00253114
0.00245663
0.00240227
0.00236062
0.00232989
0.00231263
0.00231801
0.00233156
0.00234367
0.0023444
0.00230744
0.00219319
0.00199178
0.00174214
0.00115434
0.00201495
0.00395753
0.00507572
0.00580115
0.00636594
0.00641573
0.0060877
0.00575784
0.0054738
0.00492891
0.00454138
0.00445202
0.00439119
0.00421959
0.00396077
0.00363977
0.00326344
0.00286739
0.00251023
0.00223243
0.00204077
0.00193024
0.00187841
0.00186719
0.00188543
0.001926
0.0019828
0.00204853
0.00212547
0.00221379
0.00230832
0.00240116
0.00247673
0.00251452
0.00247947
0.00244894
0.00225473
0.00116934
0.00211917
0.00217152
0.00221906
0.00246886
0.00233359
0.00206793
0.00174461
0.00148461
0.00132523
0.00117377
0.00104034
0.00093583
0.000847305
0.000780207
0.000733575
0.000699506
0.000672108
0.000648534
0.00062907
0.000615936
0.000611036
0.000614714
0.000625631
0.000641679
0.000661956
0.000685983
0.000713626
0.000745048
0.00078077
0.000821902
0.000868707
0.000920835
0.000978554
0.00104214
0.00111162
0.0011949
0.00123135
0.00120613
0.00112186
0.00103758
)
;

boundaryField
{
    floor
    {
        type            nutkWallFunction;
        Cmu             0.09;
        kappa           0.41;
        E               9.8;
        value           nonuniform List<scalar> 
36
(
0.00011742
5.72056e-05
6.77282e-05
7.714e-05
8.05133e-05
7.9227e-05
7.40037e-05
6.81739e-05
6.29077e-05
5.83045e-05
5.42719e-05
5.07222e-05
4.75927e-05
4.47979e-05
4.22353e-05
3.97886e-05
3.73147e-05
3.58358e-05
3.23309e-05
3.23308e-05
4.4684e-05
5.38112e-05
6.26455e-05
8.46279e-05
8.96379e-05
9.74409e-05
0.00011742
0.00015353
0.000128276
0.000105124
5.72055e-05
0.000105124
5.67086e-05
0.000123749
8.88772e-05
0.000141896
)
;
    }
    ceiling
    {
        type            nutkWallFunction;
        Cmu             0.09;
        kappa           0.41;
        E               9.8;
        value           nonuniform List<scalar> 
43
(
0.000246191
0.000251845
0.000256968
0.000283771
0.000269364
0.000240751
0.000205367
0.000176386
0.000158346
0.000140972
0.000125455
0.000113142
0.000102587
9.45014e-05
8.88338e-05
8.46662e-05
8.12969e-05
7.83848e-05
7.59708e-05
7.43367e-05
7.37261e-05
7.41846e-05
7.55433e-05
7.75356e-05
8.00443e-05
8.30052e-05
8.63963e-05
9.02321e-05
9.45696e-05
9.95352e-05
0.00010515
0.000111363
0.000118195
0.000125667
0.000133774
0.000143414
0.00014761
0.00014471
0.000134964
0.000125134
0.000343196
0.000407602
0.000234814
)
;
    }
    sWall
    {
        type            nutkWallFunction;
        Cmu             0.09;
        kappa           0.41;
        E               9.8;
        value           uniform 0.000246258;
    }
    nWall
    {
        type            nutkWallFunction;
        Cmu             0.09;
        kappa           0.41;
        E               9.8;
        value           nonuniform List<scalar> 6(9.74415e-05 0.000101045 0.000119711 0.00013874 0.000140475 0.000125142);
    }
    sideWalls
    {
        type            empty;
    }
    glass1
    {
        type            nutkWallFunction;
        Cmu             0.09;
        kappa           0.41;
        E               9.8;
        value           nonuniform List<scalar> 9(0.000128964 0.000171813 0.000206649 0.000239576 0.000272698 0.000307653 0.000341624 0.000349962 0.000343644);
    }
    glass2
    {
        type            nutkWallFunction;
        Cmu             0.09;
        kappa           0.41;
        E               9.8;
        value           nonuniform List<scalar> 2(0.000182234 0.000170844);
    }
    sun
    {
        type            nutkWallFunction;
        Cmu             0.09;
        kappa           0.41;
        E               9.8;
        value           nonuniform List<scalar> 
14
(
0.00012886
0.00013983
0.000142868
0.000149418
0.000155421
0.00016108
0.000166719
0.00017242
0.000177064
0.000179973
0.000180299
0.000177197
0.000169576
0.000153307
)
;
    }
    Table_master
    {
        type            nutkWallFunction;
        Cmu             0.09;
        kappa           0.41;
        E               9.8;
        value           nonuniform List<scalar> 9(9.98208e-05 8.7378e-05 7.68649e-05 6.8225e-05 6.11587e-05 5.53625e-05 5.05992e-05 4.67094e-05 4.36585e-05);
    }
    Table_slave
    {
        type            nutkWallFunction;
        Cmu             0.09;
        kappa           0.41;
        E               9.8;
        value           nonuniform List<scalar> 9(0.000112277 0.00010305 9.67094e-05 9.1998e-05 8.79912e-05 8.39861e-05 8.01627e-05 7.60991e-05 7.13164e-05);
    }
    inlet
    {
        type            calculated;
        value           uniform 0.000167705;
    }
    outlet
    {
        type            calculated;
        value           nonuniform List<scalar> 2(0.00211917 0.00217152);
    }
}


// ************************************************************************* //
