/*--------------------------------*- C++ -*----------------------------------*\
  =========                 |
  \\      /  F ield         | OpenFOAM: The Open Source CFD Toolbox
   \\    /   O peration     | Website:  https://openfoam.org
    \\  /    A nd           | Version:  6
     \\/     M anipulation  |
\*---------------------------------------------------------------------------*/
FoamFile
{
    version     2.0;
    format      ascii;
    class       volVectorField;
    location    "1030";
    object      U;
}
// * * * * * * * * * * * * * * * * * * * * * * * * * * * * * * * * * * * * * //

dimensions      [0 1 -1 0 0 0 0];

internalField   nonuniform List<vector> 
458
(
(0.0347944 0.0885316 0)
(-0.1721 0.0265931 0)
(-0.199384 0.0191163 0)
(-0.233264 0.0130811 0)
(-0.258438 0.00641177 0)
(-0.273641 -0.000808586 0)
(-0.276765 -0.00878372 0)
(-0.265509 -0.0177857 0)
(-0.239439 -0.0274359 0)
(-0.199715 -0.0361204 0)
(-0.150439 -0.0420579 0)
(-0.0978167 -0.0436548 0)
(-0.0487152 -0.039081 0)
(-0.0062553 -0.0236757 0)
(-0.0102589 0.00977805 0)
(-0.0102305 0.0105085 0)
(-0.0372519 -0.0174932 0)
(-0.0145024 -0.0291113 0)
(0.013691 -0.0251905 0)
(0.0334658 -0.0178986 0)
(0.0480891 -0.00956002 0)
(0.0568513 -0.00517952 0)
(0.0607297 -0.00363471 0)
(0.062164 -0.00308502 0)
(0.062812 -0.00276099 0)
(0.0631195 -0.00251001 0)
(0.0630566 -0.00224259 0)
(0.0624577 -0.00179831 0)
(0.0608646 -0.000838939 0)
(0.0572599 0.00107518 0)
(0.0505362 0.00317294 0)
(0.0451234 0.0050902 0)
(-0.0141341 0.0219526 0)
(0.214231 0.181907 0)
(-0.162156 0.071015 0)
(-0.162967 0.0577737 0)
(-0.198686 0.0457485 0)
(-0.224163 0.0319888 0)
(-0.240138 0.0161715 0)
(-0.244636 -0.0024194 0)
(-0.235132 -0.0239816 0)
(-0.211873 -0.0461882 0)
(-0.17648 -0.0649446 0)
(-0.133343 -0.0764398 0)
(-0.0881089 -0.0782061 0)
(-0.046241 -0.0687305 0)
(-0.0100059 -0.0460093 0)
(0.0194264 -0.013373 0)
(0.0442591 0.00785586 0)
(0.054855 0.0347599 0)
(-0.0117985 0.0706813 0)
(0.0670486 0.0439756 0)
(0.0102813 -0.0218407 0)
(0.0265111 -0.0379055 0)
(0.0407431 -0.0356568 0)
(0.0531383 -0.0273587 0)
(0.0595699 -0.0120989 0)
(0.0611915 -0.00275283 0)
(0.0612396 0.000748455 0)
(0.0614031 0.00202507 0)
(0.0617284 0.00272598 0)
(0.0619538 0.00322594 0)
(0.0620113 0.0036781 0)
(0.0619065 0.00441016 0)
(0.0611945 0.00620887 0)
(0.0577967 0.0112283 0)
(0.0491034 0.0155395 0)
(0.0476929 0.0187105 0)
(-0.0584192 0.0475566 0)
(0.379483 0.272981 0)
(-0.180112 0.113764 0)
(-0.123528 0.0941249 0)
(-0.159214 0.0724408 0)
(-0.182616 0.0495023 0)
(-0.198425 0.0236352 0)
(-0.204073 -0.00655032 0)
(-0.195377 -0.0410037 0)
(-0.173584 -0.0758098 0)
(-0.141409 -0.103676 0)
(-0.10382 -0.118972 0)
(-0.0658706 -0.119165 0)
(-0.0317984 -0.104119 0)
(-0.00225149 -0.0743894 0)
(0.0220533 -0.0400665 0)
(0.0376161 -0.0152105 0)
(0.0431926 0.0131738 0)
(-0.0236409 0.0623279 0)
(0.122494 -0.00752541 0)
(0.0724895 -0.0320878 0)
(0.0642815 -0.0419296 0)
(0.067227 -0.0417688 0)
(0.071838 -0.0380734 0)
(0.0734772 -0.0282433 0)
(0.0643515 -0.0183354 0)
(0.0573924 -0.0130292 0)
(0.0547934 -0.0100801 0)
(0.0541038 -0.00818563 0)
(0.0538722 -0.00689705 0)
(0.0539448 -0.00590175 0)
(0.054746 -0.00475214 0)
(0.0571993 -0.00139541 0)
(0.056097 0.0150022 0)
(0.0445801 0.0258828 0)
(0.0541242 0.0332535 0)
(-0.0993827 0.0728001 0)
(0.529975 0.346683 0)
(-0.216653 0.15179 0)
(-0.0802059 0.125853 0)
(-0.115541 0.096303 0)
(-0.133418 0.067222 0)
(-0.146929 0.0337527 0)
(-0.15251 -0.00713195 0)
(-0.142605 -0.0550867 0)
(-0.121265 -0.102346 0)
(-0.0929506 -0.137874 0)
(-0.0625015 -0.155448 0)
(-0.033541 -0.153437 0)
(-0.00876644 -0.133434 0)
(0.0128943 -0.097915 0)
(0.0304596 -0.0589617 0)
(0.0443787 -0.0228821 0)
(0.0599698 0.013165 0)
(0.0588297 0.0534583 0)
(0.100324 0.061521 0)
(0.098787 -0.00242539 0)
(0.0851078 -0.0293779 0)
(0.0784138 -0.0376815 0)
(0.0735489 -0.0383966 0)
(0.0669327 -0.0341302 0)
(0.0664925 -0.0208468 0)
(0.0771736 -0.013835 0)
(0.0861475 -0.0101131 0)
(0.0915603 -0.007832 0)
(0.0948167 -0.00592665 0)
(0.0962459 -0.00386809 0)
(0.0945005 -0.00120391 0)
(0.0882577 0.00246825 0)
(0.0757287 0.00773623 0)
(0.0598159 0.0251007 0)
(0.0440711 0.0406009 0)
(0.0629765 0.0533532 0)
(-0.131394 0.0942793 0)
(0.662628 0.403842 0)
(-0.262332 0.182712 0)
(-0.0350326 0.145274 0)
(-0.0687408 0.111323 0)
(-0.0779322 0.0792276 0)
(-0.086276 0.041236 0)
(-0.0890249 -0.00801187 0)
(-0.0739892 -0.0688557 0)
(-0.0534427 -0.125943 0)
(-0.0315382 -0.16511 0)
(-0.0112369 -0.181866 0)
(0.00619906 -0.175999 0)
(0.0193606 -0.151479 0)
(0.0303777 -0.114528 0)
(0.0402243 -0.0729418 0)
(0.0494621 -0.0337006 0)
(0.0619518 0.000703065 0)
(0.0760394 0.0197504 0)
(0.0903159 -0.000527202 0)
(0.0896603 -0.0213413 0)
(0.0825791 -0.0300087 0)
(0.0737581 -0.0325256 0)
(0.0654969 -0.0316136 0)
(0.0585345 -0.0266298 0)
(0.0567422 -0.0155127 0)
(0.0602976 -0.00903463 0)
(0.0646482 -0.00638913 0)
(0.0683849 -0.00485393 0)
(0.0716443 -0.00278022 0)
(0.0741661 0.00074766 0)
(0.0750359 0.00593789 0)
(0.0731561 0.0129648 0)
(0.0682572 0.0224287 0)
(0.0612171 0.0371812 0)
(0.050066 0.0536526 0)
(0.0748618 0.0727632 0)
(-0.0068456 0.101384 0)
(0.0557745 0.150671 0)
(-0.0835324 0.0748302 0)
(-0.277795 0.000478291 0)
(0.76184 0.451354 0)
(-0.308528 0.203367 0)
(0.00243727 0.143898 0)
(-0.0205671 0.116257 0)
(-0.0197646 0.0857117 0)
(-0.0214697 0.0472792 0)
(-0.014268 -0.00696233 0)
(0.0103794 -0.0859825 0)
(0.0269787 -0.146231 0)
(0.038878 -0.182454 0)
(0.0460923 -0.194572 0)
(0.0489359 -0.185058 0)
(0.0486684 -0.158115 0)
(0.0472615 -0.119904 0)
(0.0460836 -0.0779174 0)
(0.0464926 -0.0396765 0)
(0.0508341 -0.00995257 0)
(0.0599668 0.00487045 0)
(0.0662319 -0.00100629 0)
(0.0649693 -0.0109734 0)
(0.0585707 -0.0187692 0)
(0.0503863 -0.0228732 0)
(0.0427338 -0.0236295 0)
(0.0367438 -0.0211184 0)
(0.0341851 -0.0157688 0)
(0.0353366 -0.0123079 0)
(0.038299 -0.0108897 0)
(0.0419665 -0.00981186 0)
(0.0460393 -0.00768395 0)
(0.0502348 -0.00343405 0)
(0.0544612 0.00363908 0)
(0.0569895 0.013155 0)
(0.058161 0.0249289 0)
(0.0592888 0.0395785 0)
(0.0583679 0.0560217 0)
(0.0797115 0.0767146 0)
(0.0654497 0.0889957 0)
(0.099719 0.0967363 0)
(0.117478 0.0571984 0)
(-0.136903 -0.0299391 0)
(0.815584 0.494216 0)
(-0.334099 0.187389 0)
(0.0322572 0.093801 0)
(0.0390885 0.101039 0)
(0.0459667 0.0829769 0)
(0.0516689 0.039338 0)
(0.0791665 -0.0312192 0)
(0.103179 -0.10375 0)
(0.11335 -0.157053 0)
(0.112919 -0.186356 0)
(0.104631 -0.192444 0)
(0.0908318 -0.178778 0)
(0.0741304 -0.149761 0)
(0.0575332 -0.111546 0)
(0.042999 -0.0708826 0)
(0.0326353 -0.0356555 0)
(0.0281074 -0.0107058 0)
(0.0294933 0.00105081 0)
(0.0311192 -0.000222773 0)
(0.0296102 -0.00651661 0)
(0.0249489 -0.012581 0)
(0.0188203 -0.0163189 0)
(0.0127856 -0.017699 0)
(0.00797095 -0.0170795 0)
(0.00560631 -0.0151932 0)
(0.00595108 -0.014122 0)
(0.00799698 -0.0140042 0)
(0.0110016 -0.0137901 0)
(0.0148019 -0.0124174 0)
(0.0194836 -0.00879996 0)
(0.0256455 -0.0016958 0)
(0.0332751 0.00882812 0)
(0.0400498 0.0208707 0)
(0.0478612 0.0341577 0)
(0.0558644 0.0479754 0)
(0.0754465 0.0644738 0)
(0.0882312 0.0697835 0)
(0.119671 0.0632145 0)
(0.163391 0.051305 0)
(-0.0203372 0.0954843 0)
(0.921841 0.497299 0)
(-0.076623 0.167438 0)
(0.110639 0.0261666 0)
(0.163777 0.0227694 0)
(0.161453 0.0155023 0)
(0.162932 -0.0294254 0)
(0.19657 -0.0804645 0)
(0.211346 -0.125589 0)
(0.205426 -0.15831 0)
(0.185147 -0.173998 0)
(0.155628 -0.171677 0)
(0.121116 -0.153967 0)
(0.085312 -0.12426 0)
(0.0523802 -0.0880533 0)
(0.0244695 -0.0510248 0)
(0.0051146 -0.0218761 0)
(-0.00464417 -0.0043638 0)
(-0.00657675 0.0018272 0)
(-0.00646226 0.000726599 0)
(-0.00766695 -0.00360539 0)
(-0.0109701 -0.00795805 0)
(-0.0154702 -0.0110209 0)
(-0.0201058 -0.0128 0)
(-0.0239707 -0.0136575 0)
(-0.0263526 -0.0141356 0)
(-0.0272432 -0.0149121 0)
(-0.0272058 -0.0159109 0)
(-0.0266248 -0.0166342 0)
(-0.0255007 -0.0165517 0)
(-0.0235272 -0.0150892 0)
(-0.019911 -0.011518 0)
(-0.0117814 -0.00495933 0)
(-0.000133454 0.00442378 0)
(0.0110558 0.013752 0)
(0.0226674 0.0208733 0)
(0.0398885 0.0277469 0)
(0.0554274 0.0224456 0)
(0.0795719 0.00564829 0)
(0.146407 0.0479733 0)
(-0.42833 0.212659 0)
(1.06588 0.444165 0)
(0.518238 0.298302 0)
(0.529544 0.249845 0)
(0.518426 0.182879 0)
(0.4699 0.122401 0)
(0.433245 0.0600756 0)
(0.392119 -0.00746407 0)
(0.342904 -0.0670142 0)
(0.289134 -0.107882 0)
(0.23278 -0.126613 0)
(0.17538 -0.125088 0)
(0.118905 -0.108894 0)
(0.0654457 -0.0822616 0)
(0.0202206 -0.0512331 0)
(-0.0161266 -0.0207925 0)
(-0.0329756 -0.00600598 0)
(-0.0401633 0.000510974 0)
(-0.0417065 0.00227556 0)
(-0.0420805 0.0010719 0)
(-0.0432195 -0.00157953 0)
(-0.045842 -0.00446019 0)
(-0.0494838 -0.00698901 0)
(-0.0535002 -0.00909013 0)
(-0.0573575 -0.0108402 0)
(-0.060802 -0.0123681 0)
(-0.0639971 -0.0137721 0)
(-0.0673448 -0.0148832 0)
(-0.0712193 -0.0153467 0)
(-0.0759738 -0.0146765 0)
(-0.082081 -0.0122258 0)
(-0.0902307 -0.00715791 0)
(-0.101145 0.00138687 0)
(-0.112792 0.0132903 0)
(-0.128005 0.0283948 0)
(-0.152912 0.0467744 0)
(-0.190225 0.0673876 0)
(-0.241622 0.0862211 0)
(-0.297551 0.0999147 0)
(-0.371638 0.106909 0)
(-0.650662 0.106303 0)
(0.233942 0.052799 0)
(0.305899 0.115903 0)
(0.321227 0.0912915 0)
(0.299651 0.0395009 0)
(0.275058 -0.0106632 0)
(0.244382 -0.0469763 0)
(0.20308 -0.0684274 0)
(0.153968 -0.0754046 0)
(0.100387 -0.0686746 0)
(0.0461042 -0.0528867 0)
(-0.00870417 -0.0294737 0)
(-0.045189 -0.0114545 0)
(-0.0636466 -0.0030758 0)
(-0.0709665 -0.000682774 0)
(-0.0731853 -0.000207035 0)
(-0.0734919 -0.000904434 0)
(-0.0737825 -0.00250844 0)
(-0.0749139 -0.0046108 0)
(-0.0771117 -0.00670902 0)
(-0.0803521 -0.00849237 0)
(-0.0841312 -0.00997257 0)
(-0.0882238 -0.011109 0)
(-0.0926469 -0.0119019 0)
(-0.097555 -0.0123125 0)
(-0.103096 -0.0121482 0)
(-0.109298 -0.0110648 0)
(-0.11603 -0.00859137 0)
(-0.122944 -0.00418994 0)
(-0.129418 0.00270192 0)
(-0.134403 0.0122989 0)
(-0.138373 0.0255805 0)
(-0.141807 0.043151 0)
(-0.146014 0.0642063 0)
(-0.151765 0.0850448 0)
(-0.15535 0.095546 0)
(-0.141295 0.0734025 0)
(-0.110242 -0.0250032 0)
(-0.286604 -0.213736 0)
(0.120047 0.324305 0)
(0.00837901 0.203544 0)
(0.0392294 0.118387 0)
(0.058419 0.0603728 0)
(0.0630425 0.0215799 0)
(0.0600192 -0.00481094 0)
(0.0400927 -0.0199089 0)
(0.00528307 -0.0189074 0)
(-0.0367073 -0.00168736 0)
(-0.0702048 0.0128829 0)
(-0.0912933 0.0208642 0)
(-0.10029 0.0232377 0)
(-0.102496 0.0233643 0)
(-0.102426 0.0234132 0)
(-0.101537 0.0241179 0)
(-0.100489 0.0252356 0)
(-0.09975 0.0263693 0)
(-0.0996084 0.0271185 0)
(-0.100121 0.0270598 0)
(-0.101244 0.0258599 0)
(-0.103022 0.0238178 0)
(-0.105387 0.0215638 0)
(-0.108278 0.0193779 0)
(-0.111604 0.0174082 0)
(-0.115224 0.0157623 0)
(-0.11892 0.0145519 0)
(-0.12238 0.0139126 0)
(-0.125119 0.0139944 0)
(-0.126325 0.0154884 0)
(-0.124828 0.019855 0)
(-0.11905 0.0282608 0)
(-0.107602 0.0417094 0)
(-0.0903403 0.0602198 0)
(-0.06831 0.080415 0)
(-0.0434422 0.0948317 0)
(-0.0075792 0.0857669 0)
(0.146938 0.00930039 0)
(-0.209925 -0.129675 0)
(-0.422086 -0.516004 0)
(-0.637294 -0.143281 0)
(-0.449394 0.177719 0)
(-0.357957 0.0560429 0)
(-0.21396 -0.00556177 0)
(-0.145712 -0.0477746 0)
(-0.117298 -0.0704749 0)
(-0.113129 -0.0712818 0)
(-0.122482 -0.0626171 0)
(-0.134972 -0.054918 0)
(-0.140435 -0.0504606 0)
(-0.138669 -0.0490142 0)
(-0.134205 -0.0498797 0)
(-0.129015 -0.0526661 0)
(-0.124533 -0.0561469 0)
(-0.121059 -0.0597496 0)
(-0.118225 -0.0633609 0)
(-0.115777 -0.0670397 0)
(-0.113675 -0.0706351 0)
(-0.111995 -0.0736491 0)
(-0.110871 -0.0754573 0)
(-0.110467 -0.0756011 0)
(-0.110886 -0.0741928 0)
(-0.112088 -0.0718361 0)
(-0.113898 -0.0687607 0)
(-0.116091 -0.0651168 0)
(-0.118388 -0.0609504 0)
(-0.120418 -0.0561673 0)
(-0.1217 -0.0505556 0)
(-0.121597 -0.0437642 0)
(-0.119096 -0.035803 0)
(-0.112287 -0.0266945 0)
(-0.0983655 -0.0158963 0)
(-0.0748263 -0.00250838 0)
(-0.0415481 0.014358 0)
(0.00930259 0.0363186 0)
(0.0618529 0.0423944 0)
(0.109584 0.0240983 0)
(0.17205 -0.0158802 0)
(-0.196306 -0.0826363 0)
)
;

boundaryField
{
    floor
    {
        type            noSlip;
    }
    ceiling
    {
        type            noSlip;
    }
    sWall
    {
        type            noSlip;
    }
    nWall
    {
        type            noSlip;
    }
    sideWalls
    {
        type            empty;
    }
    glass1
    {
        type            noSlip;
    }
    glass2
    {
        type            noSlip;
    }
    sun
    {
        type            noSlip;
    }
    Table_master
    {
        type            noSlip;
    }
    Table_slave
    {
        type            noSlip;
    }
    inlet
    {
        type            fixedValue;
        value           uniform (0.46194 -0.191342 0);
    }
    outlet
    {
        type            zeroGradient;
    }
}


// ************************************************************************* //
