/*--------------------------------*- C++ -*----------------------------------*\
  =========                 |
  \\      /  F ield         | OpenFOAM: The Open Source CFD Toolbox
   \\    /   O peration     | Website:  https://openfoam.org
    \\  /    A nd           | Version:  6
     \\/     M anipulation  |
\*---------------------------------------------------------------------------*/
FoamFile
{
    version     2.0;
    format      ascii;
    class       volScalarField;
    location    "41699.9999995082835";
    object      nut;
}
// * * * * * * * * * * * * * * * * * * * * * * * * * * * * * * * * * * * * * //

dimensions      [0 2 -1 0 0 0 0];

internalField   nonuniform List<scalar> 
778
(
0.000894326
0.000953062
0.000949556
0.000990739
0.00102848
0.00106276
0.00109468
0.00112546
0.00115645
0.0011894
0.00122084
0.00125071
0.00128014
0.00131179
0.0013448
0.000632284
0.000905576
0.000912955
0.000890912
0.000853967
0.00080454
0.000755269
0.0007099
0.000669027
0.000632397
0.00059976
0.000570444
0.000543734
0.000518799
0.00049453
0.000469151
0.000448061
0.00040557
0.00131081
0.00258116
0.00226508
0.00261442
0.00286783
0.00313646
0.00340439
0.00365132
0.00385012
0.00396595
0.00403408
0.00400618
0.00380653
0.00331165
0.00241863
0.00147247
0.00140386
0.00134378
0.00113099
0.00192676
0.00267108
0.003111
0.00313181
0.00247114
0.00211346
0.00186554
0.00167727
0.00152747
0.00139975
0.0012869
0.00118191
0.00107921
0.000987047
0.000907588
0.00102195
0.000514187
0.00166408
0.00360446
0.0026722
0.00382241
0.00427109
0.00465067
0.00499537
0.00529873
0.00555578
0.00575746
0.00595284
0.0061585
0.00634758
0.0064602
0.00638577
0.00584693
0.00427612
0.00164825
0.00142671
0.00305161
0.00425923
0.00483142
0.00439484
0.00115979
0.00100859
0.000891877
0.000800516
0.000727787
0.000669076
0.000621193
0.000582257
0.000551908
0.000606686
0.000713575
0.0011292
0.000584952
0.00200534
0.00485857
0.0025572
0.00429816
0.00496267
0.00531815
0.00557948
0.00577279
0.00591706
0.00603408
0.00620035
0.00648136
0.00689144
0.00740703
0.00792515
0.00818018
0.00768101
0.00572999
0.00164135
0.00380023
0.00565265
0.00659463
0.0068282
0.00583056
0.00132024
0.00120097
0.00110865
0.00103185
0.000966362
0.000907534
0.000852065
0.000796982
0.000737512
0.000688951
0.000713901
0.00122163
0.000644156
0.0023421
0.00643337
0.00258029
0.00408612
0.00510798
0.00541135
0.00552158
0.00552598
0.00547122
0.00542271
0.00549229
0.00576529
0.00626629
0.0069756
0.00779788
0.008555
0.00903483
0.00902842
0.00810218
0.00824294
0.00843112
0.00845766
0.00828647
0.00775737
0.00617453
0.00533431
0.0047587
0.00429113
0.00383227
0.00338767
0.00295264
0.0025181
0.00207162
0.00159145
0.00121476
0.00121204
0.000959468
0.00076768
0.00100479
0.000967678
0.00267375
0.00819666
0.00303816
0.00344587
0.00489443
0.00523122
0.00520473
0.00501775
0.00475023
0.00452948
0.00452458
0.00481067
0.00538172
0.00620438
0.00716659
0.00812715
0.00894422
0.00946576
0.00956
0.00946309
0.00929446
0.00905615
0.0087505
0.00836193
0.00779462
0.00724787
0.00675132
0.00627137
0.00575296
0.00519923
0.00460766
0.00397319
0.00329178
0.00256896
0.00191541
0.0014384
0.00111682
0.00124539
0.00215336
0.00115953
0.00301232
0.00982815
0.0040492
0.0028233
0.00439787
0.00494851
0.00488802
0.00458536
0.00414599
0.00375922
0.00374797
0.00410916
0.00476296
0.00568277
0.00672862
0.0077631
0.00865272
0.00928939
0.00958169
0.00955797
0.00934724
0.00902887
0.00866483
0.00830201
0.00795123
0.00762928
0.0073268
0.00700406
0.00661422
0.00614489
0.0055891
0.00494407
0.00421228
0.00341284
0.00263283
0.00190677
0.00140506
0.00124997
0.00218334
0.00136295
0.00330367
0.011065
0.00552185
0.00268895
0.00348366
0.00438663
0.00451325
0.00426476
0.00374501
0.00321929
0.00333849
0.00381625
0.00454743
0.00549537
0.00658174
0.00766475
0.00858779
0.00922862
0.00951919
0.00948025
0.00920834
0.00880781
0.00837729
0.0079957
0.00770165
0.00749155
0.00732772
0.0071498
0.00690229
0.00655586
0.00609677
0.0055221
0.0048373
0.00406352
0.00326148
0.00245572
0.00172937
0.00114685
0.00308464
0.00176935
0.00339341
0.0104835
0.00683776
0.00347838
0.00236267
0.00289407
0.00338707
0.00342947
0.00302845
0.00294421
0.00325025
0.00381211
0.0046025
0.00560743
0.00674572
0.00786194
0.00878178
0.00937333
0.00958076
0.0094372
0.00904344
0.00852696
0.00801456
0.00760587
0.00734654
0.00721914
0.00716123
0.00709266
0.00695017
0.00669987
0.00632819
0.00583344
0.00522198
0.00451167
0.0037357
0.00286962
0.0017189
0.00140416
0.0045845
0.00203022
0.00332467
0.00845734
0.00706656
0.00477717
0.00315443
0.00244202
0.00231224
0.00242065
0.00262468
0.00294914
0.00340882
0.00404084
0.0048998
0.00598244
0.00718191
0.00831345
0.00918523
0.00966539
0.00971565
0.009393
0.0088243
0.00816923
0.0075843
0.00718372
0.0070003
0.00697862
0.00701776
0.00701652
0.00692366
0.00672035
0.00640003
0.00596189
0.00540985
0.00475059
0.00395371
0.00274192
0.00130934
0.00257411
0.00459902
0.0020573
0.0031143
0.00723017
0.00683496
0.0054691
0.00420823
0.00338767
0.00298193
0.00289028
0.00305853
0.00336774
0.00381654
0.00448275
0.00543004
0.00661553
0.00787473
0.00898155
0.00973287
0.010013
0.00981746
0.00924356
0.0084623
0.007679
0.00708372
0.00678548
0.00675119
0.00684818
0.00694552
0.00694676
0.00684832
0.0066508
0.00634982
0.00594007
0.00541806
0.0047689
0.00383567
0.00214163
0.0015345
0.00306955
0.00425426
0.00202375
0.00283583
0.00651996
0.00659481
0.00579108
0.00492556
0.00427452
0.00389152
0.00375508
0.00378965
0.00397594
0.00438719
0.00513015
0.00622353
0.00753446
0.00881858
0.00981345
0.0103268
0.010286
0.0097442
0.00885959
0.00787012
0.00704311
0.0065767
0.00648296
0.0065635
0.00668992
0.00677372
0.00674959
0.00663572
0.00643662
0.00614405
0.0057437
0.0052192
0.00454259
0.00341836
0.00163643
0.00184039
0.00326036
0.00407595
0.00195957
0.00258619
0.00583242
0.00629789
0.00591777
0.00536207
0.00489564
0.00458579
0.0044345
0.00438923
0.0045477
0.0050691
0.00603859
0.00735934
0.0087755
0.00997378
0.0106934
0.010798
0.0102933
0.00932028
0.00812269
0.00703628
0.00634329
0.00604223
0.00600429
0.00608394
0.0061909
0.00626235
0.00624455
0.00613382
0.00593577
0.005637
0.00521589
0.00465392
0.00392862
0.00288657
0.00164748
0.00191459
0.00336593
0.00455328
0.00195009
0.00259459
0.00578823
0.00643515
0.00599002
0.00554006
0.00517183
0.00490641
0.00473348
0.00472507
0.00511031
0.00602995
0.00740189
0.00894731
0.0103106
0.01118
0.0113728
0.0108684
0.00978122
0.00838225
0.00702841
0.0060525
0.00548589
0.00521694
0.0051382
0.00516624
0.00523748
0.00530082
0.00529978
0.00518959
0.00497236
0.00462313
0.00411973
0.0034833
0.00280319
0.00219143
0.00172808
0.00202586
0.00355601
0.00459097
0.00208108
0.00234188
0.0024352
0.0035921
0.00421921
0.00441227
0.00441416
0.00437
0.00444951
0.00498772
0.00613449
0.00774369
0.00947512
0.010951
0.0118603
0.012024
0.0114102
0.0101663
0.0085206
0.00695057
0.00573212
0.00492157
0.00445046
0.00421574
0.00411149
0.00406952
0.0040558
0.00404881
0.00401042
0.00386563
0.00360275
0.00320197
0.00269618
0.00221383
0.00190153
0.00181039
0.00192864
0.00244362
0.00405567
0.00469067
0.0021046
0.000807611
0.00146531
0.00226068
0.00289955
0.00363875
0.00489735
0.00674641
0.0087939
0.0106499
0.0120276
0.0127359
0.0126565
0.0118014
0.0102629
0.00843625
0.00670978
0.00535059
0.00444161
0.00393445
0.00367053
0.00351324
0.00339335
0.00328556
0.00318343
0.00308472
0.00297894
0.00282602
0.00260176
0.00231839
0.00204498
0.00189228
0.00192189
0.00212206
0.00248609
0.0031273
0.00456175
0.00508679
0.00212245
0.00149707
0.00207471
0.00302681
0.00473114
0.00705136
0.00937749
0.0111867
0.0124879
0.0132633
0.0134622
0.0129935
0.0117698
0.00998479
0.00799184
0.00619064
0.00485907
0.00408073
0.00369867
0.00350252
0.00337071
0.00325793
0.00315338
0.00305796
0.00297364
0.00289817
0.00282155
0.00272349
0.00259552
0.00245474
0.00234642
0.00233723
0.00246973
0.00273455
0.00310148
0.00356509
0.00412396
0.00441658
0.00203349
0.00275774
0.00666581
0.00611943
0.00546742
0.00695903
0.0093015
0.0112871
0.0126312
0.0133383
0.0135081
0.0132171
0.0124425
0.0111575
0.00941879
0.007497
0.00579445
0.00465411
0.00406981
0.00379126
0.00362338
0.00348401
0.0033521
0.00323115
0.00313225
0.00306583
0.00303668
0.00304078
0.00306337
0.00307749
0.0030699
0.00306214
0.00308065
0.0031564
0.00331611
0.00356397
0.00387183
0.00417935
0.00433753
0.00421247
0.00200759
0.00263911
0.00509643
0.00657388
0.00839498
0.00932558
0.0102981
0.0108727
0.0110203
0.0108142
0.0103048
0.00950925
0.00843486
0.00715511
0.00586924
0.00483114
0.0041792
0.00381966
0.00361518
0.00346743
0.00333226
0.00319956
0.00307587
0.00297542
0.00291476
0.00290818
0.00296323
0.00307626
0.00322805
0.00337844
0.00348134
0.00356463
0.00366397
0.00380646
0.00401139
0.00428977
0.00464195
0.00504967
0.00545838
0.00485511
0.00222397
0.00247366
0.00211952
0.00210875
0.00216982
0.00222023
0.00215326
0.00202257
0.00186868
0.00171292
0.00156415
0.00142616
0.00130347
0.00120289
0.00113094
0.00108867
0.00106962
0.00106602
0.00106889
0.00107503
0.00108448
0.00109849
0.0011186
0.00114576
0.00117967
0.00121876
0.0012607
0.00130325
0.001345
0.00138585
0.00142678
0.00146816
0.00151273
0.00156364
0.00162342
0.00169331
0.00177227
0.00185603
0.00194082
0.00204237
0.00207589
)
;

boundaryField
{
    floor
    {
        type            nutkWallFunction;
        Cmu             0.09;
        kappa           0.41;
        E               9.8;
        value           nonuniform List<scalar> 
36
(
0.000160568
7.63713e-05
0.000109546
0.000110424
0.0001078
0.000103384
9.74422e-05
9.14759e-05
8.59412e-05
8.09187e-05
7.63862e-05
7.2321e-05
6.86464e-05
6.52782e-05
6.21155e-05
5.9019e-05
5.57607e-05
5.30361e-05
4.74965e-05
4.74965e-05
6.15282e-05
7.04676e-05
7.78448e-05
9.2984e-05
0.000121281
0.000116914
0.000160568
0.000175017
0.00016727
0.000160452
7.63713e-05
0.000160452
0.000136016
0.000194689
0.000169853
0.000193919
)
;
    }
    ceiling
    {
        type            nutkWallFunction;
        Cmu             0.09;
        kappa           0.41;
        E               9.8;
        value           nonuniform List<scalar> 
43
(
0.000284314
0.000246308
0.000245146
0.000251753
0.000257199
0.000249995
0.000235842
0.000219039
0.000201871
0.000185305
0.00016978
0.000155832
0.000144289
0.000135973
0.000131069
0.000128859
0.000128449
0.00012879
0.00012951
0.000130607
0.000132228
0.000134551
0.000137687
0.0001416
0.000146108
0.000150939
0.00015583
0.000160617
0.000165282
0.000169942
0.000174633
0.000179658
0.000185371
0.000192051
0.00019983
0.000208584
0.000217838
0.000227179
0.000238281
0.000241873
0.000270445
0.000280417
0.000177577
)
;
    }
    sWall
    {
        type            nutkWallFunction;
        Cmu             0.09;
        kappa           0.41;
        E               9.8;
        value           nonuniform List<scalar> 9(0.000373892 0.000352067 0.000322945 0.000296587 0.000297476 0.000270534 0.000314419 0.000301928 0.000284416);
    }
    nWall
    {
        type            nutkWallFunction;
        Cmu             0.09;
        kappa           0.41;
        E               9.8;
        value           nonuniform List<scalar> 
14
(
0.000116921
0.000139343
0.00016266
0.000239684
0.000236022
0.000229052
0.000228137
0.000242349
0.000244885
0.000246723
0.000237049
0.000234377
0.00025813
0.000241909
)
;
    }
    sideWalls
    {
        type            empty;
    }
    glass1
    {
        type            nutkWallFunction;
        Cmu             0.09;
        kappa           0.41;
        E               9.8;
        value           nonuniform List<scalar> 9(0.00010825 0.000156886 0.000196742 0.000234358 0.000270804 0.000306156 0.000341773 0.000372093 0.000381385);
    }
    glass2
    {
        type            nutkWallFunction;
        Cmu             0.09;
        kappa           0.41;
        E               9.8;
        value           nonuniform List<scalar> 2(0.000208254 0.00023688);
    }
    sun
    {
        type            nutkWallFunction;
        Cmu             0.09;
        kappa           0.41;
        E               9.8;
        value           nonuniform List<scalar> 
14
(
0.000108209
0.000115181
0.000114766
0.000119627
0.000124062
0.000128074
0.000131797
0.000135374
0.000138966
0.000142772
0.000146392
0.000149822
0.000153193
0.000156808
)
;
    }
    Table_master
    {
        type            nutkWallFunction;
        Cmu             0.09;
        kappa           0.41;
        E               9.8;
        value           nonuniform List<scalar> 9(0.000139343 0.00012172 0.000107912 9.69561e-05 8.81298e-05 8.09283e-05 7.4999e-05 7.01369e-05 6.63196e-05);
    }
    Table_slave
    {
        type            nutkWallFunction;
        Cmu             0.09;
        kappa           0.41;
        E               9.8;
        value           nonuniform List<scalar> 9(0.000157761 0.000144095 0.000133414 0.00012445 0.000116747 0.000109776 0.000103155 9.65294e-05 8.93158e-05);
    }
    inlet
    {
        type            calculated;
        value           uniform 0.000167705;
    }
    outlet
    {
        type            calculated;
        value           nonuniform List<scalar> 2(0.00275774 0.00666581);
    }
}


// ************************************************************************* //
