/*--------------------------------*- C++ -*----------------------------------*\
  =========                 |
  \\      /  F ield         | OpenFOAM: The Open Source CFD Toolbox
   \\    /   O peration     | Website:  https://openfoam.org
    \\  /    A nd           | Version:  6
     \\/     M anipulation  |
\*---------------------------------------------------------------------------*/
FoamFile
{
    version     2.0;
    format      ascii;
    class       surfaceScalarField;
    location    "41699.9999995082835";
    object      phi;
}
// * * * * * * * * * * * * * * * * * * * * * * * * * * * * * * * * * * * * * //

dimensions      [1 0 -1 0 0 0 0];

internalField   nonuniform List<scalar> 
1482
(
-0.00279979
0.00286383
-0.00348403
0.000684241
-0.00414473
0.000660698
-0.00475884
0.000614109
-0.00528027
0.000521431
-0.00569228
0.000412011
-0.00598364
0.000291361
-0.00614128
0.00015764
-0.00614784
6.56159e-06
-0.00597732
-0.000170522
-0.00559971
-0.00037761
-0.00498391
-0.000615803
-0.00405966
-0.000924249
-0.00258062
-0.00147903
-0.00257771
-6.49087e-05
6.97626e-05
0.000779313
-0.000844221
0.00143252
-0.000653205
0.00183272
-0.0004002
0.00205506
-0.000222344
0.00215977
-0.000104706
0.00220702
-4.7255e-05
0.00222966
-2.26321e-05
0.00223928
-9.62799e-06
0.00224013
-8.47626e-07
0.00223307
7.06312e-06
0.00221406
1.90042e-05
0.00216977
4.42886e-05
0.00206698
0.000102798
0.00185025
0.000216728
0.0014926
0.000357645
0.00102077
0.000471831
0.00102721
-0.00204039
0.00507453
-0.00290852
0.00155238
-0.00369434
0.00144652
-0.00434537
0.00126514
-0.00488266
0.00105871
-0.0053115
0.000840852
-0.00563012
0.000609987
-0.00583173
0.000359247
-0.00590562
8.0455e-05
-0.00584392
-0.000232225
-0.00564077
-0.000580766
-0.0052848
-0.00097177
-0.00477482
-0.00143423
-0.00428888
-0.00196497
-0.00470499
-0.0021616
-0.00311833
-0.00158121
-0.00163468
-0.00147797
-0.00161983
0.00131751
-0.00123754
0.00166154
-0.00118825
0.00191339
-0.000905059
0.002105
-0.000591806
0.00221281
-0.000330157
0.00222192
-0.000113818
0.00222399
-4.93245e-05
0.00222562
-2.42638e-05
0.00222654
-1.05434e-05
0.00222648
-7.89412e-07
0.00222507
8.47424e-06
0.00222085
2.32279e-05
0.0022082
5.69386e-05
0.00214623
0.000164765
0.00189653
0.000466426
0.00146695
0.000787227
0.000903012
0.00103577
0.00194711
-0.00148828
0.00682074
-0.0023592
0.0024233
-0.00312917
0.00221649
-0.00371338
0.00184935
-0.00418404
0.00152938
-0.00455552
0.00121233
-0.00482963
0.000884098
-0.00500314
0.000532761
-0.00506964
0.000146955
-0.00502003
-0.000281843
-0.0048435
-0.00075729
-0.0045326
-0.00128268
-0.0041181
-0.00184873
-0.00372073
-0.00236234
-0.00330041
-0.00258193
-0.00236896
-0.00251267
-0.00127478
-0.00257214
-0.00288179
0.00115028
-0.00237336
0.00165357
-0.00169153
0.00195185
-0.00120334
0.0021447
-0.000784658
0.00217505
-0.000360503
0.00206138
0.00201221
0.0019881
0.00197771
0.00197708
0.00198571
0.00200909
0.00206618
0.0022311
0.00187284
0.000824685
0.00142513
0.00123493
0.000805192
0.00165571
0.00277833
-0.0011061
0.00825804
-0.00192807
0.00324527
-0.00257012
0.00285853
-0.00303044
0.00230968
-0.00339796
0.00189689
-0.00368672
0.00150109
-0.00389975
0.00109713
-0.00403524
0.000668245
-0.00408566
0.000197379
-0.00403782
-0.000329684
-0.0038794
-0.000915713
-0.00360625
-0.00155582
-0.00324096
-0.00221402
-0.00281937
-0.00278393
-0.00228029
-0.00312101
-0.00156089
-0.00323207
-0.000872922
-0.00326011
-0.00069385
-0.00306086
0.00144293
-0.00212133
0.00137584
-0.00230627
0.00169176
-0.00200746
0.00200443
-0.00151601
0.0022707
-0.00105093
0.00254663
-0.00063643
0.00286158
-0.000315104
0.00302953
-0.000168103
0.00309493
-6.55506e-05
0.00307832
1.6451e-05
0.00298855
8.96161e-05
0.0028267
0.000161696
0.00258506
0.000241488
0.00224077
0.000344137
0.00173657
0.000504043
0.00160075
0.000960508
0.00127412
0.00156156
0.00074818
0.00218165
0.0035608
-0.000803817
0.00945505
-0.00158004
0.00402149
-0.00204873
0.00332723
-0.00236445
0.0026254
-0.00260878
0.00214122
-0.00279425
0.00168655
-0.00292587
0.00122876
-0.00300442
0.000746786
-0.00302334
0.000216305
-0.00296606
-0.000386968
-0.00281931
-0.00106246
-0.00257615
-0.00179898
-0.00224315
-0.00254702
-0.0018274
-0.00319968
-0.00132272
-0.00362569
-0.000746645
-0.00380814
-0.00021564
-0.00379112
0.000261709
-0.00353821
0.00112323
-0.00298285
0.00148966
-0.00267271
0.00174893
-0.00226673
0.0020016
-0.00176868
0.00223163
-0.00128096
0.00244614
-0.000850944
0.0026479
-0.000516855
0.00275875
-0.000278961
0.00279571
-0.000102505
0.00277046
4.17026e-05
0.00268943
0.000170647
0.00255518
0.000295945
0.00236665
0.000430019
0.00212165
0.000589132
0.00182848
0.000797216
0.00162439
0.00116459
0.0014855
0.00170046
0.00131035
0.0023568
0.00230143
0.00256972
0.00133142
0.00100493
0.00187113
-0.000510845
0.00199018
-0.000575902
0.0104773
-0.00132489
0.00477047
-0.00158459
0.00358692
-0.00175054
0.00279135
-0.0018645
0.00225518
-0.00193592
0.00175797
-0.00197127
0.00126411
-0.00197487
0.000750385
-0.00194352
0.000184959
-0.00185561
-0.00047488
-0.0017014
-0.00121668
-0.00147098
-0.0020294
-0.00116728
-0.00285072
-0.000796059
-0.0035709
-0.000377215
-0.00404453
6.25453e-05
-0.0042479
0.000467661
-0.00419623
0.000842269
-0.00391281
0.00129373
-0.00343432
0.00159309
-0.00297207
0.00179687
-0.0024705
0.00196874
-0.00194055
0.00212085
-0.00143308
0.0022559
-0.000985998
0.00236148
-0.000622435
0.00242048
-0.000337956
0.00243235
-0.000114375
0.00240221
7.1846e-05
0.00233484
0.000238018
0.00223411
0.000396673
0.00210424
0.000559892
0.00195255
0.000740816
0.00179395
0.000955818
0.00170508
0.00125346
0.00176551
0.00164002
0.00198142
0.0021409
0.00222834
0.0023228
0.0017388
0.00149448
0.000817858
0.000410093
0.00290562
-0.000543497
0.011513
-0.00124379
0.00547076
-0.00119222
0.00353536
-0.00120064
0.00279977
-0.00119298
0.00224753
-0.00115944
0.00172443
-0.00110219
0.00120686
-0.001027
0.000675189
-0.000928238
8.61978e-05
-0.000779146
-0.000623972
-0.000590048
-0.00140578
-0.000350573
-0.00226888
-6.7863e-05
-0.00313343
0.000235681
-0.00387443
0.000544587
-0.00435343
0.000839078
-0.00454238
0.00110185
-0.004459
0.00133544
-0.0041464
0.00156773
-0.00366661
0.00172803
-0.00313237
0.00182858
-0.00257105
0.00189928
-0.00201126
0.00195585
-0.00148965
0.00200346
-0.0010336
0.00203677
-0.000655745
0.0020499
-0.00035109
0.00203924
-0.000103713
0.00200538
0.000105705
0.00195134
0.00029206
0.00188092
0.000467096
0.00179946
0.000641351
0.00171583
0.000824445
0.0016457
0.00102595
0.00163325
0.00126591
0.00172437
0.0015489
0.00194144
0.00192383
0.00220149
0.00206275
0.00221438
0.00148158
0.00165358
0.000970898
0.00466234
-0.000483671
0.0125322
-0.00105171
0.0060388
-0.000697759
0.00318141
-0.000637013
0.00273902
-0.000568645
0.00217916
-0.000463851
0.00161964
-0.000334601
0.00107761
-0.000183049
0.000523637
6.61608e-06
-0.000103468
0.000225044
-0.0008424
0.000464704
-0.00164543
0.000721766
-0.00252594
0.000977528
-0.00338919
0.00120477
-0.00410167
0.00140292
-0.00455158
0.00156337
-0.00470282
0.00168095
-0.00457657
0.0017604
-0.00422585
0.00181407
-0.00372027
0.00182495
-0.00314326
0.00180118
-0.00254728
0.00176171
-0.00197178
0.0017214
-0.00144935
0.00168768
-0.000999882
0.00166038
-0.000628442
0.00163534
-0.000326053
0.00160751
-7.58798e-05
0.00157448
0.000138735
0.00153638
0.000330158
0.00149453
0.000508943
0.00145219
0.000683688
0.00141592
0.00086072
0.00139746
0.0010444
0.001422
0.00124137
0.00152056
0.00145034
0.00174621
0.00169818
0.00205458
0.00175439
0.00218039
0.00135576
0.00168805
0.00146324
0.00671865
0.00297727
0.0101421
0.00202188
0.00699419
0.000868846
0.00433444
0.0003704
0.00323746
0.000213444
0.00233611
0.000269948
0.00156313
0.000424164
0.000923398
0.000638497
0.000309304
0.000898203
-0.000363173
0.00116345
-0.00110764
0.00144191
-0.00192389
0.00170827
-0.0027923
0.00193318
-0.00361409
0.00209263
-0.00426112
0.00218113
-0.00464008
0.00220164
-0.00472333
0.00216315
-0.00453808
0.00207936
-0.00414205
0.00196541
-0.00360632
0.00182685
-0.0030047
0.00167578
-0.0023962
0.00152908
-0.00182508
0.00140135
-0.00132162
0.0013007
-0.000899231
0.00122807
-0.000555816
0.00117829
-0.000276274
0.0011438
-4.13943e-05
0.00111911
0.000163427
0.00110058
0.000348695
0.00108588
0.00052364
0.00107494
0.000694625
0.00107047
0.000865187
0.00107893
0.00103594
0.00111485
0.00120546
0.00120148
0.00136371
0.00139532
0.00150434
0.00170702
0.00144268
0.00184359
0.00121917
0.000515644
0.00279117
0.00762001
0.0040319
0.00625043
0.00366818
0.00735791
0.00254271
0.0054599
0.00188946
0.00389071
0.00153291
0.00269266
0.00138815
0.00170789
0.00142218
0.000889365
0.00159701
0.000134475
0.00184951
-0.000615673
0.00212695
-0.00138508
0.00240651
-0.00220345
0.00265068
-0.00303648
0.00281787
-0.00378128
0.00288138
-0.00432462
0.00283831
-0.00459701
0.0027028
-0.00458781
0.00249732
-0.00433259
0.00224624
-0.00389097
0.0019723
-0.00333238
0.00169266
-0.00272505
0.00142456
-0.0021281
0.00118605
-0.00158657
0.000991837
-0.0011274
0.000848073
-0.000755467
0.000753082
-0.000460824
0.000697383
-0.000220575
0.000669631
-1.36428e-05
0.000660764
0.000172294
0.000663686
0.000345774
0.000673367
0.000513958
0.000686823
0.00068117
0.000702185
0.000849824
0.000718057
0.00102007
0.000734138
0.00118938
0.000747399
0.00135045
0.000732858
0.00151888
0.000330579
0.00184495
-0.0010148
0.00256429
-0.00224678
0.004023
0.00547807
0.0024101
0.00400486
0.00330548
0.00646252
0.00324951
0.00551587
0.00303871
0.00410152
0.00284776
0.00288361
0.00272469
0.00183096
0.00271112
0.000902935
0.00280057
4.5029e-05
0.00296306
-0.000778163
0.003174
-0.00159602
0.00339122
-0.00242067
0.00355454
-0.0031998
0.00360933
-0.00383608
0.00352925
-0.00424455
0.00332006
-0.00438782
0.00300816
-0.00427591
0.0026281
-0.00395253
0.00221336
-0.00347622
0.0017936
-0.00291261
0.00139271
-0.00232416
0.0010325
-0.00176789
0.000733146
-0.00128722
0.000508461
-0.00090272
0.00035674
-0.000603745
0.000268184
-0.000372268
0.00022547
-0.00017786
0.000213899
-2.07174e-06
0.000222795
0.000163398
0.000244562
0.000324007
0.000274081
0.000484439
0.000307041
0.000648209
0.000337763
0.000819102
0.000356989
0.00100084
0.000350277
0.00119609
0.00028976
0.00141097
8.39626e-05
0.00172469
-0.000571786
0.00250069
-0.00154622
0.00353854
-0.00178922
0.00426582
0.00380636
0.00145735
0.00274177
0.00274901
0.00517086
0.00343313
0.00483175
0.00371915
0.0038155
0.00381769
0.00278506
0.00384609
0.00180256
0.0038829
0.000866127
0.00395299
-2.50547e-05
0.00406383
-0.000889006
0.00420436
-0.00173655
0.00432282
-0.00253914
0.00434847
-0.00322545
0.00422998
-0.0037176
0.00395546
-0.00397004
0.00354761
-0.00397996
0.00304636
-0.00377466
0.00249572
-0.00340188
0.00193451
-0.00291501
0.00139704
-0.00237514
0.000910934
-0.00183805
0.000503697
-0.00136065
0.000195153
-0.00097867
-9.62268e-06
-0.000697944
-0.000128248
-0.000485119
-0.000187044
-0.000313472
-0.000208321
-0.000156583
-0.000204807
-5.58538e-06
-0.00018387
0.000142462
-0.000149927
0.000290064
-0.000106008
0.000440521
-5.5829e-05
0.00059803
-6.17159e-06
0.000769444
2.97854e-05
0.000964885
2.68135e-05
0.00119906
-6.52178e-05
0.00150301
-0.000333916
0.00199348
-0.000906745
0.00307381
-0.00187077
0.00450269
-0.00209244
0.0044875
0.00184558
0.00217438
0.000793374
0.00294453
0.00440071
0.00359407
0.0041822
0.00416398
0.00324559
0.00449168
0.00245736
0.00466629
0.00162794
0.00478386
0.000748556
0.00488995
-0.000131137
0.00499778
-0.000996834
0.00507664
-0.00181542
0.00506065
-0.00252317
0.00488984
-0.00305464
0.00454205
-0.00336982
0.00403637
-0.00346437
0.00341776
-0.00336136
0.00273703
-0.00309393
0.0020428
-0.00270765
0.00137327
-0.00224548
0.000767848
-0.00176971
0.000255103
-0.00132531
-0.000125777
-0.000979772
-0.000370086
-0.000734362
-0.000507035
-0.000560995
-0.000575258
-0.000416894
-0.000604723
-0.000284006
-0.000609593
-0.000151711
-0.000597076
-1.81023e-05
-0.000570272
0.000115659
-0.00052988
0.000249672
-0.000476133
0.000386774
-0.000410516
0.000532412
-0.000337375
0.000696303
-0.000266695
0.000894203
-0.000220338
0.0011527
-0.000237749
0.00152042
-0.000348817
0.00210465
-0.000437403
0.00316282
-0.000665147
0.00473084
-0.000857769
0.00468054
0.00113228
-0.00158074
0.00261926
0.00111721
0.00170276
0.00334968
0.00194974
0.00435214
0.00224313
0.00485605
0.00195346
0.00517117
0.00131281
0.00540058
0.000519151
0.00558039
-0.00031095
0.00568124
-0.00109768
0.00564058
-0.00177477
0.00540752
-0.00229012
0.00497059
-0.00261773
0.00435786
-0.0027571
0.00362209
-0.00272862
0.00282313
-0.00256242
0.00201072
-0.00228152
0.0012332
-0.00193013
0.000521799
-0.00153408
-7.20924e-05
-0.00117582
-0.000502965
-0.000894439
-0.000767243
-0.000715498
-0.000913169
-0.000588436
-0.000988842
-0.000485318
-0.00102155
-0.000384176
-0.00102906
-0.000276493
-0.00102062
-0.000160142
-0.001001
-3.7727e-05
-0.000970955
8.56156e-05
-0.000928092
0.000206809
-0.000869312
0.000327994
-0.000792587
0.000455686
-0.000697784
0.000601499
-0.000588874
0.000785289
-0.000476916
0.00104072
-0.000372839
0.00141629
-0.000241127
0.00197291
9.07649e-05
0.00283112
0.000671853
0.00415012
0.00107953
0.00427325
0.00236206
0.00288101
0.00456858
0.00486921
0.00164912
0.00535562
0.00175672
0.00559203
0.00171706
0.00582396
0.00108088
0.00601264
0.000330481
0.00608029
-0.000378589
0.00595532
-0.000972714
0.00560445
-0.0014239
0.00504035
-0.00172604
0.00430995
-0.00188735
0.00347136
-0.00191853
0.00258259
-0.00183986
0.00169792
-0.00167777
0.000849718
-0.00143333
8.04032e-05
-0.00116082
-0.000546804
-0.000906883
-0.000986077
-0.000736563
-0.00125417
-0.000626358
-0.00140946
-0.000560212
-0.00149143
-0.00050646
-0.0015291
-0.000447631
-0.00153825
-0.000375002
-0.00152867
-0.000286055
-0.00150712
-0.000181686
-0.00147887
-6.59815e-05
-0.00144628
5.30222e-05
-0.0014061
0.000166632
-0.00135261
0.000274495
-0.00128124
0.000384321
-0.0011888
0.000509064
-0.00107316
0.000669641
-0.000929723
0.000897225
-0.000739017
0.00122543
-0.000431853
0.0016655
0.000156611
0.00224248
0.00112506
0.00318176
0.00160068
0.00379777
0.00412273
0.00793086
0.00536664
0.00581021
0.00387738
0.00556183
0.00196546
0.0056343
0.00100845
0.0055998
0.000365027
0.00535691
-0.000135662
0.0048949
-0.000510696
0.00425453
-0.000783532
0.00348917
-0.000960695
0.00265128
-0.00104948
0.00178159
-0.00104886
0.000915612
-0.000973909
8.71955e-05
-0.000849367
-0.00064403
-0.000702116
-0.00121707
-0.000587811
-0.0016161
-0.00050788
-0.00187756
-0.000475124
-0.00203602
-0.000467912
-0.00213008
-0.000466138
-0.00218212
-0.000454398
-0.00220435
-0.000425349
-0.00220375
-0.00037555
-0.00218582
-0.000303952
-0.00215599
-0.000211496
-0.00212031
-0.000101674
-0.00208523
1.79125e-05
-0.00205195
0.000133327
-0.00201615
0.000238684
-0.00197292
0.000341102
-0.00191658
0.000452758
-0.00183659
0.0005897
-0.00170986
0.000770476
-0.0014958
0.0010112
-0.00113146
0.00130079
-0.000454166
0.00156468
0.00083957
0.00188767
0.00144669
0.00319035
0.00573806
0.0040981
0.00151513
0.00449931
0.00347619
0.00373053
0.00273428
0.00323085
0.00150819
0.00288851
0.000707409
0.00252358
0.00022929
0.00207748
-6.45914e-05
0.00154036
-0.000246412
0.000929991
-0.000350342
0.000262427
-0.000381937
-0.000426449
-0.000360002
-0.00108041
-0.000319967
-0.00164746
-0.000282346
-0.00209247
-0.000257144
-0.00241815
-0.000262178
-0.00263743
-0.000288647
-0.00278488
-0.000327699
-0.00288658
-0.000366203
-0.00295765
-0.000395029
-0.00300395
-0.000408017
-0.00302797
-0.00040123
-0.00303165
-0.000371775
-0.00301767
-0.000317866
-0.00298968
-0.000239464
-0.0029523
-0.000139102
-0.00291146
-2.30247e-05
-0.00287509
9.68629e-05
-0.00284597
0.000209501
-0.00281901
0.00031414
-0.00278937
0.000423212
-0.00275104
0.000551545
-0.00269022
0.000709841
-0.00257767
0.000898732
-0.00238282
0.00110581
-0.00212934
0.00131081
-0.00188557
0.00164332
-0.00151886
0.00282301
0.00440284
-0.00261863
-0.0067894
-0.00742827
-0.00747374
-0.00375529
-0.00215787
-0.0016794
0.00140033
-0.000765649
0.00182058
-0.00056561
0.0013082
-0.000643207
0.000785045
-0.000824299
0.000410411
-0.00105846
0.000169587
-0.00134105
3.61965e-05
-0.00167451
-1.68856e-05
-0.0020377
-1.87593e-05
-0.00240288
5.15861e-06
-0.00274688
2.39995e-05
-0.00304458
1.52927e-05
-0.00327562
-2.6167e-05
-0.00344157
-9.62978e-05
-0.00356185
-0.000168406
-0.00365757
-0.00023197
-0.00373828
-0.000285448
-0.00380546
-0.00032774
-0.00385732
-0.000356009
-0.00389215
-0.00036624
-0.00390968
-0.000354107
-0.00391133
-0.000316136
-0.00389977
-0.000251031
-0.00387811
-0.000160873
-0.00384868
-5.26478e-05
-0.00381304
6.1003e-05
-0.00376525
0.000161528
-0.00370239
0.000251185
-0.00362125
0.000342097
-0.00351809
0.000448554
-0.00338997
0.000581996
-0.00322933
0.000738405
-0.00303339
0.000910154
-0.00296426
0.00124189
-0.00349245
0.00217163
-0.00364037
0.00297083
0.000957418
-0.00736693
0.00103132
-0.00813813
-0.00670253
-0.00718683
-0.00310916
-0.00566392
-0.00012254
-0.00457169
0.000728409
-0.00398182
0.000718394
-0.00372479
0.000528088
-0.00365955
0.000345231
-0.0037013
0.000211379
-0.00379359
0.000128513
-0.00389577
8.53042e-05
-0.00398467
7.01227e-05
-0.00404805
6.8485e-05
-0.00408757
6.34483e-05
-0.00411893
4.65625e-05
-0.00415533
1.01462e-05
-0.00420399
-4.76901e-05
-0.00426429
-0.000108112
-0.00433436
-0.000161848
-0.00441196
-0.000207734
-0.00449443
-0.000245097
-0.00457873
-0.000271508
-0.00466118
-0.000283585
-0.00473701
-0.000278127
-0.00480012
-0.000252962
-0.00484367
-0.000207542
-0.00486125
-0.000143474
-0.00484927
-6.49078e-05
-0.0048066
1.79908e-05
-0.00472864
8.32537e-05
-0.00461116
0.000133476
-0.00444701
0.000177836
-0.00422563
0.000227185
-0.0039337
0.000290215
-0.00356126
0.000366202
-0.00308367
0.000432853
-0.00228107
0.000439581
-0.000408895
0.000299712
0.0015369
0.00102523
0.00268663
0.00157329
-0.00506433
-0.00811003
-0.0081729
-0.00738994
-0.00662484
-0.00605678
-0.00567641
-0.005433
-0.00527419
-0.00515922
-0.00505928
-0.00496027
-0.00486545
-0.00478677
-0.00474405
-0.00475896
-0.00483429
-0.00496355
-0.00513911
-0.0053527
-0.00559359
-0.00584759
-0.00609721
-0.00632264
-0.00650343
-0.0066207
-0.00665974
-0.00661605
-0.00650722
-0.0063483
-0.00614533
-0.00589353
-0.00557947
-0.00519044
-0.00473598
-0.00427612
-0.00395748
-0.0029147
)
;

boundaryField
{
    floor
    {
        type            calculated;
        value           nonuniform List<scalar> 
36
(
0
0
0
0
0
0
0
0
0
0
0
0
0
0
0
0
0
0
0
-6.43864e-06
-1.68826e-05
-2.60286e-05
-3.42974e-05
-3.4924e-05
-2.88581e-05
-2.86822e-05
-2.92e-06
-5.44108e-06
-5.68736e-06
-5.90752e-06
-4.85415e-06
-8.93805e-06
-1.0211e-05
-1.28321e-05
-1.44574e-05
-1.54457e-05
)
;
    }
    ceiling
    {
        type            calculated;
        value           nonuniform List<scalar> 
43
(
-5.79374e-05
-6.48948e-05
-6.33989e-05
-5.95921e-05
-5.44507e-05
-4.66061e-05
-3.98694e-05
-3.50488e-05
-3.19695e-05
-3.02856e-05
-2.96807e-05
-2.9884e-05
-3.05986e-05
-3.1471e-05
-3.2194e-05
-3.26424e-05
-3.28073e-05
-3.27606e-05
-3.25093e-05
-3.20338e-05
-3.13294e-05
-3.04313e-05
-2.94238e-05
-2.84251e-05
-2.75509e-05
-2.68768e-05
-2.64209e-05
-2.61501e-05
-2.59965e-05
-2.5867e-05
-2.56559e-05
-2.5275e-05
-2.46705e-05
-2.38217e-05
-2.27403e-05
-2.14764e-05
-2.01175e-05
-1.87429e-05
-1.73207e-05
-1.58759e-05
1.93338e-05
1.51876e-05
-0.000246597
)
;
    }
    sWall
    {
        type            calculated;
        value           nonuniform List<scalar> 9(-0.000140236 -0.000164525 -0.000194262 -0.000225982 -0.000245149 -0.000281082 -0.000423753 -0.0004538 -0.000484049);
    }
    nWall
    {
        type            calculated;
        value           nonuniform List<scalar> 
14
(
-9.03653e-05
-9.75793e-05
-0.000103137
-0.000104812
-0.000117514
-0.000131667
-0.000144148
-0.000149996
-0.000159958
-0.000168954
-0.00018406
-0.000195322
-0.000192024
-0.000211911
)
;
    }
    sideWalls
    {
        type            empty;
        value           nonuniform 0();
    }
    glass1
    {
        type            calculated;
        value           nonuniform List<scalar> 9(-6.40342e-05 -0.000170321 -0.000257922 -0.000331204 -0.000393187 -0.000446391 -0.000492202 -0.000535484 -0.000587167);
    }
    glass2
    {
        type            calculated;
        value           nonuniform List<scalar> 2(-0.000368231 -0.000385664);
    }
    sun
    {
        type            calculated;
        value           uniform 0;
    }
    Table_master
    {
        type            calculated;
        value           nonuniform List<scalar> 9(-1.53992e-07 -1.5411e-07 -1.54142e-07 -1.54162e-07 -1.54175e-07 -1.54179e-07 -1.54178e-07 -1.54164e-07 -1.5411e-07);
    }
    Table_slave
    {
        type            calculated;
        value           nonuniform List<scalar> 9(1.53662e-07 1.53718e-07 1.53717e-07 1.53734e-07 1.53754e-07 1.53798e-07 1.53865e-07 1.53959e-07 1.54086e-07);
    }
    inlet
    {
        type            calculated;
        value           uniform -0.0116484;
    }
    outlet
    {
        type            calculated;
        value           nonuniform List<scalar> 2(0.00983175 0.0122834);
    }
}


// ************************************************************************* //
