/*--------------------------------*- C++ -*----------------------------------*\
  =========                 |
  \\      /  F ield         | OpenFOAM: The Open Source CFD Toolbox
   \\    /   O peration     | Website:  https://openfoam.org
    \\  /    A nd           | Version:  6
     \\/     M anipulation  |
\*---------------------------------------------------------------------------*/
FoamFile
{
    version     2.0;
    format      ascii;
    class       volScalarField;
    location    "19200";
    object      epsilon;
}
// * * * * * * * * * * * * * * * * * * * * * * * * * * * * * * * * * * * * * //

dimensions      [0 2 -3 0 0 0 0];

internalField   nonuniform List<scalar> 
778
(
0.000253143
0.000306374
0.000303008
0.000344167
0.000385014
0.0004248
0.000464223
0.000504473
0.000547288
0.000595387
0.00064383
0.000692232
0.000742243
0.000798656
0.000860487
8.94312e-05
0.000262847
0.000269294
0.000250231
0.000220354
0.000184253
0.000152432
0.000126587
0.000105964
8.94986e-05
7.63458e-05
6.56884e-05
5.68857e-05
4.94123e-05
4.27967e-05
3.65402e-05
3.18309e-05
2.36074e-05
0.000797068
0.00144332
0.000286987
0.000259563
0.000261652
0.000267615
0.000276504
0.000289926
0.000310174
0.000340374
0.000379599
0.000430749
0.000499198
0.000600501
0.000785784
0.00112962
0.000978965
0.000858629
0.000512168
0.000369729
0.000294483
0.000243138
0.000204274
0.000187097
0.000154807
0.000125057
0.000100725
8.1506e-05
6.65396e-05
5.48348e-05
4.56442e-05
3.87212e-05
3.45331e-05
3.27815e-05
6.58091e-05
4.81169e-05
0.00163081
0.00407957
0.000407426
0.000242901
0.000229068
0.000230978
0.000238192
0.000250459
0.000268362
0.000292636
0.000324775
0.000366875
0.000421322
0.000495121
0.000601618
0.000724956
0.000830011
0.00158465
0.0010277
0.000512466
0.000367905
0.00029449
0.000262317
0.000552196
0.000363133
0.000251069
0.000181527
0.0001364
0.000105978
8.48162e-05
6.98487e-05
5.94877e-05
4.51579e-05
3.80061e-05
0.000108135
7.08591e-05
0.00285391
0.00877163
0.000710019
0.000240709
0.000202448
0.000199981
0.000203155
0.000209782
0.0002206
0.00023752
0.000263222
0.0003
0.000349275
0.000412496
0.000488259
0.000560476
0.000612512
0.000824301
0.00156452
0.00072894
0.000459799
0.000358297
0.000301916
0.000291829
0.00081445
0.000613067
0.000482278
0.000388801
0.000319357
0.000264501
0.000218902
0.000179134
0.000141953
8.39112e-05
5.4976e-05
0.00014846
9.46516e-05
0.0045467
0.0158295
0.00134672
0.000258352
0.000175709
0.000166763
0.000165775
0.000167755
0.00017392
0.000187427
0.00021168
0.000248392
0.000297874
0.000359514
0.00042806
0.000489465
0.000528745
0.000582502
0.000627368
0.000483109
0.00039341
0.000330968
0.000282261
0.00024862
0.000247853
0.000226806
0.000202962
0.000181064
0.000162675
0.000146513
0.00013185
0.000118266
0.000105116
8.45542e-05
6.43128e-05
0.000105213
0.00013892
0.000160277
0.000360581
0.000322734
0.0067647
0.024881
0.00255422
0.000318129
0.000155525
0.000137045
0.000132109
0.000130682
0.000134454
0.000148542
0.000176696
0.000218095
0.000270898
0.000334341
0.000402051
0.000462983
0.000503271
0.000521838
0.000504827
0.000438244
0.000373791
0.000315619
0.00026473
0.000223396
0.000193312
0.000169649
0.000150821
0.000135619
0.000123277
0.000112729
0.000103279
9.45235e-05
8.60786e-05
7.59137e-05
6.54327e-05
7.76667e-05
9.98602e-05
0.000207655
0.00105304
0.000555085
0.00967364
0.0336391
0.00458501
0.000465157
0.000150855
0.000116335
0.000107081
0.000103278
0.000107075
0.000127895
0.000166093
0.00021588
0.000273401
0.000340335
0.000409747
0.000470922
0.000510584
0.000520735
0.000494482
0.000437719
0.000371892
0.000307511
0.000250573
0.00020446
0.000169764
0.000144561
0.000126316
0.000112719
0.000102259
9.36947e-05
8.62131e-05
7.93451e-05
7.27954e-05
6.61206e-05
6.03607e-05
6.38968e-05
7.68689e-05
0.000171692
0.00157296
0.000901648
0.0127607
0.0404069
0.00749155
0.000871805
0.000194394
0.000115417
9.74049e-05
9.1473e-05
9.86835e-05
0.000137696
0.000189239
0.00024624
0.000307171
0.000374184
0.000445358
0.000508722
0.000547983
0.000551382
0.000516007
0.000451768
0.000375663
0.000301061
0.00023654
0.000185992
0.000149319
0.000123968
0.000106683
9.45391e-05
8.57076e-05
7.87841e-05
7.28915e-05
6.75426e-05
6.24858e-05
5.76604e-05
5.39801e-05
5.61055e-05
7.06472e-05
0.000337504
0.00524256
0.0019728
0.0138288
0.041457
0.0139339
0.00316545
0.000630857
0.000208324
0.000132833
0.000116096
0.000142595
0.000192991
0.000249287
0.000306448
0.000367569
0.000437159
0.000511856
0.000576577
0.000611634
0.000603708
0.000552571
0.000471299
0.000378753
0.000291093
0.000218351
0.000164052
0.000126771
0.000102582
8.7247e-05
7.73031e-05
7.06228e-05
6.56304e-05
6.14403e-05
5.76152e-05
5.39771e-05
5.06078e-05
4.84682e-05
5.33698e-05
0.00010164
0.000967099
0.0126663
0.00299748
0.0130049
0.0283664
0.0144157
0.00572852
0.00210622
0.000835979
0.000414566
0.000277433
0.000279506
0.000314912
0.000356266
0.000401913
0.000459015
0.000531654
0.000610951
0.0006749
0.000699389
0.000671152
0.000594304
0.000487188
0.000373079
0.000270988
0.000191291
0.000135805
0.000100677
7.98596e-05
6.79364e-05
6.11501e-05
5.70567e-05
5.40997e-05
5.15371e-05
4.90659e-05
4.66265e-05
4.44709e-05
4.42163e-05
5.89371e-05
0.00025289
0.00315283
0.0102087
0.00309636
0.0106885
0.0193523
0.0120377
0.00630144
0.0031762
0.00167633
0.000988066
0.000680107
0.000560909
0.000517961
0.000510855
0.000531928
0.000584433
0.000663774
0.000748492
0.000805805
0.00080772
0.000744491
0.000628637
0.000486807
0.000348212
0.000233968
0.000152658
0.000101849
7.35976e-05
5.88335e-05
5.13836e-05
4.79204e-05
4.60985e-05
4.47588e-05
4.34259e-05
4.19459e-05
4.03873e-05
3.92642e-05
4.17335e-05
8.18828e-05
0.00072441
0.00326851
0.00733852
0.00293527
0.00806967
0.0137653
0.00968998
0.0059333
0.00357038
0.00222834
0.00149167
0.00109402
0.000870145
0.000744254
0.000686548
0.000690947
0.000751636
0.000845862
0.000932892
0.000968429
0.000925785
0.00080582
0.000635805
0.000453339
0.00029383
0.000177772
0.000107039
6.95524e-05
5.25826e-05
4.44509e-05
4.05979e-05
3.91433e-05
3.85312e-05
3.80699e-05
3.74807e-05
3.67108e-05
3.59542e-05
3.60177e-05
4.15481e-05
0.000113109
0.000773857
0.00290368
0.00612121
0.00271747
0.0061209
0.0101632
0.0077877
0.00531141
0.00356999
0.00246933
0.00178838
0.00136869
0.00109345
0.000926678
0.000860115
0.000887836
0.000983911
0.00109783
0.00116859
0.00114836
0.00102554
0.00082218
0.000587878
0.000370247
0.000208713
0.000114758
7.21063e-05
5.23184e-05
4.29884e-05
3.82834e-05
3.59003e-05
3.49432e-05
3.4587e-05
3.43984e-05
3.42637e-05
3.43084e-05
3.49382e-05
3.72884e-05
4.6609e-05
0.000107586
0.000572584
0.00225645
0.00554718
0.00292903
0.00618305
0.00780451
0.00679977
0.00473718
0.00336432
0.0024617
0.00186552
0.00146221
0.00119478
0.00106533
0.0010716
0.00118146
0.00132934
0.00143517
0.0014335
0.00129566
0.00104888
0.000743365
0.000458628
0.000239287
0.00013096
8.13505e-05
5.96429e-05
4.92257e-05
4.34874e-05
3.98697e-05
3.74403e-05
3.59463e-05
3.52441e-05
3.50581e-05
3.55588e-05
3.74037e-05
4.18475e-05
5.12719e-05
7.20119e-05
0.000134082
0.000468478
0.00194199
0.00418022
0.00335237
0.00454638
0.00511176
0.00418379
0.00336089
0.00263891
0.00206933
0.00164829
0.00136144
0.00124537
0.00130201
0.00147972
0.00168634
0.00181978
0.001807
0.00162574
0.00129487
0.000907928
0.000521267
0.000278914
0.000153865
0.000100225
7.76315e-05
6.69498e-05
6.06535e-05
5.60784e-05
5.2213e-05
4.87167e-05
4.57446e-05
4.41998e-05
4.41878e-05
4.65839e-05
5.37532e-05
6.99161e-05
0.000101422
0.000158338
0.000268987
0.000567908
0.00198032
0.00353495
0.00345749
0.0014008
0.00143069
0.00143213
0.00135212
0.00130925
0.00142288
0.00170931
0.00204509
0.00230527
0.00239758
0.00227558
0.00195876
0.00151411
0.000975055
0.000565372
0.000309726
0.000184071
0.000131614
0.000110926
0.000101583
9.62032e-05
9.2266e-05
8.87357e-05
8.49652e-05
8.05695e-05
7.5782e-05
7.23447e-05
7.2804e-05
7.90979e-05
9.67558e-05
0.000135631
0.000210118
0.000340278
0.000565492
0.000999611
0.00208881
0.00420356
0.00322078
0.00118756
0.00171306
0.00194857
0.00230401
0.00275313
0.00315828
0.00333909
0.00330303
0.00307356
0.00267438
0.00210336
0.00148333
0.000953503
0.000558474
0.000331027
0.000225366
0.000184512
0.000169566
0.000163442
0.000160394
0.000158805
0.0001581
0.000157732
0.000156874
0.000154506
0.000150001
0.000144482
0.000144114
0.000153173
0.000179011
0.000235814
0.000346723
0.000547562
0.000899093
0.00151362
0.00253367
0.00398289
0.00289407
0.0074233
0.00810591
0.00481084
0.0033961
0.00372733
0.00413925
0.00415284
0.00394299
0.00358682
0.0031304
0.00261642
0.00206845
0.0015186
0.00103414
0.000676777
0.000462824
0.000362931
0.000323737
0.000308169
0.000299857
0.000293774
0.000289134
0.000286491
0.000286539
0.000289491
0.00029465
0.000300247
0.000303951
0.000304726
0.000307854
0.000323331
0.000356466
0.000420254
0.000538105
0.000748167
0.00111522
0.00176686
0.0029487
0.00515997
0.0030858
0.00650499
0.00514037
0.00436579
0.00461807
0.00453362
0.00426419
0.00368327
0.0030377
0.00245346
0.00196153
0.00155718
0.00122601
0.000962602
0.000770689
0.000648915
0.000583106
0.00055077
0.000534703
0.000525115
0.00051814
0.000513125
0.000511168
0.000514306
0.00052491
0.000545077
0.000575916
0.000616861
0.000665219
0.000716213
0.000763383
0.000809426
0.000866779
0.000953171
0.0010933
0.00132361
0.00170257
0.00233925
0.00354031
0.00435637
0.00446327
0.00535546
0.00337054
0.0033201
0.00361831
0.00387831
0.00354154
0.00293885
0.00232021
0.00178659
0.00135627
0.00102108
0.000771812
0.000600837
0.000497554
0.000445737
0.000426644
0.000425778
0.000431653
0.000440442
0.000451469
0.000465938
0.000486276
0.000515593
0.000556979
0.000612594
0.000682807
0.000765922
0.000858863
0.000958725
0.00106481
0.00117938
0.0013035
0.00144611
0.00162063
0.00184116
0.00211763
0.00245032
0.0028493
0.00337824
0.00341577
)
;

boundaryField
{
    floor
    {
        Cmu             0.09;
        kappa           0.41;
        E               9.8;
        type            epsilonWallFunction;
        value           nonuniform List<scalar> 
36
(
0.000860487
8.94312e-05
0.000262847
0.000269294
0.000250231
0.000220354
0.000184253
0.000152432
0.000126587
0.000105964
8.94986e-05
7.63458e-05
6.56884e-05
5.68857e-05
4.94123e-05
4.27967e-05
3.65402e-05
3.18309e-05
2.36074e-05
2.36074e-05
4.81169e-05
7.08591e-05
9.46516e-05
0.000160277
0.000360581
0.000322734
0.000860487
0.00112962
0.000978965
0.000858629
8.94312e-05
0.000858629
0.000512168
0.00158465
0.0010277
0.00156452
)
;
    }
    ceiling
    {
        Cmu             0.09;
        kappa           0.41;
        E               9.8;
        type            epsilonWallFunction;
        value           nonuniform List<scalar> 
43
(
0.00535546
0.00337054
0.0033201
0.00361831
0.00387831
0.00354154
0.00293885
0.00232021
0.00178659
0.00135627
0.00102108
0.000771812
0.000600837
0.000497554
0.000445737
0.000426644
0.000425778
0.000431653
0.000440442
0.000451469
0.000465938
0.000486276
0.000515593
0.000556979
0.000612594
0.000682807
0.000765922
0.000858863
0.000958725
0.00106481
0.00117938
0.0013035
0.00144611
0.00162063
0.00184116
0.00211763
0.00245032
0.0028493
0.00337824
0.00341577
0.00454638
0.00511176
0.00118756
)
;
    }
    sWall
    {
        Cmu             0.09;
        kappa           0.41;
        E               9.8;
        type            epsilonWallFunction;
        value           nonuniform List<scalar> 9(0.0130049 0.0106885 0.00806967 0.0061209 0.00618305 0.00454638 0.0074233 0.00650499 0.00535546);
    }
    nWall
    {
        Cmu             0.09;
        kappa           0.41;
        E               9.8;
        type            epsilonWallFunction;
        value           nonuniform List<scalar> 
14
(
0.000322734
0.000555085
0.000901648
0.00309636
0.00293527
0.00271747
0.00292903
0.00335237
0.00345749
0.00322078
0.00289407
0.0030858
0.00446327
0.00341577
)
;
    }
    sideWalls
    {
        type            empty;
    }
    glass1
    {
        Cmu             0.09;
        kappa           0.41;
        E               9.8;
        type            epsilonWallFunction;
        value           nonuniform List<scalar> 9(0.000253143 0.000797068 0.00163081 0.00285391 0.0045467 0.0067647 0.00967364 0.0127607 0.0138288);
    }
    glass2
    {
        Cmu             0.09;
        kappa           0.41;
        E               9.8;
        type            epsilonWallFunction;
        value           nonuniform List<scalar> 2(0.0019728 0.00299748);
    }
    sun
    {
        Cmu             0.09;
        kappa           0.41;
        E               9.8;
        type            epsilonWallFunction;
        value           nonuniform List<scalar> 
14
(
0.000253143
0.000306374
0.000303008
0.000344167
0.000385014
0.0004248
0.000464223
0.000504473
0.000547288
0.000595387
0.00064383
0.000692232
0.000742243
0.000798656
)
;
    }
    Table_master
    {
        Cmu             0.09;
        kappa           0.41;
        E               9.8;
        type            epsilonWallFunction;
        value           nonuniform List<scalar> 9(0.000552196 0.000363133 0.000251069 0.000181527 0.0001364 0.000105978 8.48162e-05 6.98487e-05 5.94877e-05);
    }
    Table_slave
    {
        Cmu             0.09;
        kappa           0.41;
        E               9.8;
        type            epsilonWallFunction;
        value           nonuniform List<scalar> 9(0.00081445 0.000613067 0.000482278 0.000388801 0.000319357 0.000264501 0.000218902 0.000179134 0.000141953);
    }
    inlet
    {
        type            turbulentMixingLengthDissipationRateInlet;
        mixingLength    0.01;
        phi             phi;
        k               k;
        value           uniform 0.000471671;
    }
    outlet
    {
        type            zeroGradient;
    }
}


// ************************************************************************* //
