/*--------------------------------*- C++ -*----------------------------------*\
  =========                 |
  \\      /  F ield         | OpenFOAM: The Open Source CFD Toolbox
   \\    /   O peration     | Website:  https://openfoam.org
    \\  /    A nd           | Version:  6
     \\/     M anipulation  |
\*---------------------------------------------------------------------------*/
FoamFile
{
    version     2.0;
    format      ascii;
    class       surfaceScalarField;
    location    "1290";
    object      phi;
}
// * * * * * * * * * * * * * * * * * * * * * * * * * * * * * * * * * * * * * //

dimensions      [1 0 -1 0 0 0 0];

internalField   nonuniform List<scalar> 
850
(
-0.00305332
0.00311378
-0.00414627
0.00109295
-0.00501548
0.000869204
-0.00570436
0.000688887
-0.00617643
0.000472066
-0.00639763
0.000221195
-0.00632832
-6.93032e-05
-0.00592436
-0.000403961
-0.00517394
-0.000750422
-0.0041286
-0.00104534
-0.00290017
-0.00122843
-0.00164129
-0.00125888
-0.000538771
-0.00110252
0.000136044
-0.000674816
0.000138395
-0.000922241
0.000925898
-0.000689584
-0.000232657
-5.99768e-05
-0.000629608
0.000543755
-0.000603731
0.00100317
-0.000459418
0.00125982
-0.000256647
0.00136793
-0.000108106
0.00142071
-5.2785e-05
0.00145104
-3.03255e-05
0.00146605
-1.50128e-05
0.0014696
-3.54947e-06
0.00146256
7.0434e-06
0.00143924
2.33172e-05
0.00138062
5.86182e-05
0.00125455
0.000126068
0.00105073
0.000203821
0.000793734
0.000256996
0.000798573
-0.00220761
0.00548479
-0.0032954
0.00218074
-0.0042087
0.0017825
-0.00490651
0.0013867
-0.00538802
0.000953581
-0.00563093
0.000464101
-0.00559482
-0.000105412
-0.00524049
-0.000758289
-0.00456682
-0.00142409
-0.00364262
-0.00196954
-0.00258783
-0.00228323
-0.00154123
-0.00230547
-0.000628397
-0.00201535
9.31912e-05
-0.0013964
0.000873021
-0.000641434
0.00114874
-0.000271935
0.000956859
0.00019624
0.000969547
4.17581e-05
0.00089514
0.000422005
-0.000612904
0.000786842
-0.000994445
0.0011
-0.000916891
0.00135112
-0.000710534
0.00140767
-0.000313194
0.00141579
-0.000116233
0.0014265
-6.3493e-05
0.00143548
-3.93102e-05
0.00144074
-2.02706e-05
0.00144291
-5.71942e-06
0.0014425
7.45557e-06
0.00143701
2.88104e-05
0.00140052
9.51061e-05
0.00124756
0.000279027
0.000978922
0.00047246
0.000644784
0.000591134
0.00145574
-0.00156243
0.00729763
-0.0025105
0.00312881
-0.00334318
0.00261518
-0.00396576
0.00200928
-0.00441334
0.00140115
-0.00466183
0.000712592
-0.00465609
-0.000111146
-0.00433468
-0.00107971
-0.003713
-0.00204576
-0.00288845
-0.00279409
-0.00198626
-0.00318542
-0.0011223
-0.00316944
-0.000373108
-0.00276454
0.000240875
-0.00201039
0.000752312
-0.00115287
0.000899553
-0.000419177
0.000707564
0.000388229
0.00168837
0.00143682
-0.000527843
0.00163209
-0.000808175
0.00157437
-0.000936724
0.00160772
-0.000950241
0.00181152
-0.000914332
0.00149848
0.0013824
0.00131906
0.0012799
0.00125979
0.00125422
0.00126183
0.00129079
0.00138605
0.00115911
0.000505973
0.000870055
0.000761513
0.000498892
0.000962297
0.0019732
-0.00109552
0.00871779
-0.0018523
0.00388559
-0.00243661
0.00319949
-0.00288267
0.00245534
-0.00322776
0.00174624
-0.00344058
0.00092541
-0.00344192
-0.000109804
-0.00312336
-0.00139826
-0.00254741
-0.00262171
-0.00184563
-0.00349587
-0.00112994
-0.00390111
-0.000480209
-0.00381916
6.62369e-05
-0.00331099
0.000526782
-0.00247093
0.000902764
-0.00152885
0.00111967
-0.000636084
0.00130363
0.000204273
0.00225701
0.000734987
0.00216667
0.000102279
0.00199357
-0.000354739
0.00190741
-0.000722021
0.00179645
-0.000825761
0.00166403
-0.000817819
0.00143254
-0.000682844
0.00175642
-0.00032403
0.0019343
-0.000178033
0.0020655
-0.000131358
0.00216662
-0.00010127
0.00222722
-6.0759e-05
0.00222504
2.02733e-06
0.00213245
9.24358e-05
0.00191314
0.000219158
0.0015072
0.00040579
0.00126986
0.000743308
0.000902475
0.0011289
0.000384091
0.00148068
0.00238093
-0.00075606
0.00986157
-0.001327
0.00445653
-0.00150951
0.003382
-0.00168802
0.00263386
-0.00185291
0.00191113
-0.00196185
0.00103435
-0.00191331
-0.000158339
-0.00155611
-0.00175547
-0.00105507
-0.00312275
-0.000537181
-0.00401376
-7.26999e-05
-0.00436559
0.000305932
-0.0041978
0.000597075
-0.00360213
0.000849886
-0.00272374
0.00106908
-0.00174805
0.00127626
-0.000843259
0.0015866
-0.000106069
0.00202974
0.000291842
0.00206326
6.8758e-05
0.0019956
-0.000287069
0.00181081
-0.000537231
0.00162266
-0.00063762
0.00144531
-0.000640467
0.00131643
-0.00055396
0.00137528
-0.000382882
0.00146357
-0.000266323
0.00154832
-0.000216113
0.00163014
-0.000183085
0.00170062
-0.000131242
0.00174001
-3.73542e-05
0.00172425
0.000108189
0.00163819
0.000305222
0.00148601
0.000557965
0.00133
0.000899323
0.00115106
0.00130784
0.00080398
0.00182776
0.0010196
0.00216531
-0.00109556
0.00213627
-0.00179368
0.000717736
-0.00172091
-0.000638753
0.0109411
-0.0010143
0.00483208
-0.000633254
0.00300095
-0.000448376
0.00244898
-0.000383607
0.00184636
-0.000303091
0.000953833
-5.11113e-05
-0.000410318
0.000335375
-0.00214195
0.000693049
-0.00348042
0.000952818
-0.00427353
0.00109577
-0.00450854
0.00114605
-0.00424808
0.00113991
-0.00359599
0.00111665
-0.00270048
0.00110102
-0.00173242
0.00113291
-0.000875154
0.00126962
-0.000242774
0.00148398
7.74804e-05
0.00153493
1.7802e-05
0.00143666
-0.000188791
0.00126199
-0.000362564
0.00108206
-0.000457689
0.000924542
-0.000482951
0.000819421
-0.000448839
0.000808705
-0.000372166
0.000858247
-0.000315865
0.000934652
-0.000292519
0.00102567
-0.000274099
0.00112478
-0.000230359
0.0012221
-0.000134667
0.00129528
3.50047e-05
0.00133246
0.000268044
0.00134776
0.000542664
0.00138175
0.000865328
0.00148233
0.00120726
0.00168586
0.00162423
0.00203668
0.00181449
0.00233686
0.0018361
0.00182987
0.00122472
0.000174401
-0.000763777
0.0121922
-0.000621323
0.00468962
0.00049255
0.00188708
0.00096104
0.00198049
0.00121857
0.00158883
0.00160032
0.000572084
0.00210383
-0.000913822
0.00244095
-0.00247908
0.00257475
-0.00361422
0.00250711
-0.00420589
0.00227377
-0.00427521
0.00193673
-0.00391104
0.00155974
-0.003219
0.00120091
-0.00234165
0.000897
-0.00142851
0.000705165
-0.000683319
0.000653222
-0.000190831
0.000704045
2.66574e-05
0.000711867
9.98022e-06
0.000635375
-0.0001123
0.000507831
-0.00023502
0.00036732
-0.000317178
0.000241285
-0.000356916
0.000155166
-0.00036272
0.000132296
-0.000349296
0.000161434
-0.000345003
0.000221201
-0.000352285
0.000301787
-0.000354685
0.000404177
-0.00033275
0.000533342
-0.000263831
0.000686425
-0.000118079
0.000844547
0.000109921
0.0010066
0.000380615
0.00120842
0.000663501
0.00148317
0.000932517
0.00188373
0.00122367
0.00241732
0.0012809
0.00318508
0.00106834
0.00336179
0.00104801
0.00360501
0.00273629
0.00999919
0.00339214
0.00403378
0.00344983
0.00182939
0.00353566
0.00189466
0.00374715
0.00137734
0.00422331
9.59175e-05
0.00469454
-0.00138505
0.00478951
-0.00257405
0.00451508
-0.00333978
0.00396176
-0.00365258
0.00323042
-0.00354387
0.0024253
-0.00310592
0.00162837
-0.00242206
0.000922373
-0.00163565
0.000347455
-0.000853594
-2.73133e-06
-0.000333132
-0.000141275
-5.22869e-05
-0.000155863
4.12446e-05
-0.000163835
1.79525e-05
-0.000216074
-6.00603e-05
-0.000306976
-0.000144118
-0.000413301
-0.000210853
-0.000512639
-0.000257578
-0.000586852
-0.000288507
-0.000624802
-0.000311346
-0.000634008
-0.000335797
-0.000626183
-0.00036011
-0.000605646
-0.000375222
-0.000567421
-0.000370975
-0.00049527
-0.000335982
-0.000357924
-0.000255425
-0.000147706
-0.000100296
0.000103247
0.000129661
0.000388058
0.000378691
0.00070673
0.000613845
0.0010893
0.000841105
0.00150685
0.000863349
0.00189867
0.000676523
0.001206
0.00174067
0.00509742
0.0105981
0.0146277
0.0125619
0.00389522
0.0112301
0.00322646
0.010342
0.00226545
0.00953519
0.000902682
0.00853262
-0.000382484
0.00735352
-0.00139494
0.00608003
-0.00206629
0.00476092
-0.00233346
0.00342946
-0.00221241
0.00216426
-0.00184072
0.00100929
-0.00126709
5.60841e-05
-0.000682443
-0.000566581
-0.000230929
-0.000860326
-3.93871e-05
-0.000957411
4.47973e-05
-0.000976873
6.07065e-05
-0.000992121
3.32009e-05
-0.00103547
-1.67076e-05
-0.00110798
-7.16128e-05
-0.00119693
-0.000121906
-0.00128866
-0.000165848
-0.00137426
-0.000202898
-0.0014515
-0.000234109
-0.00152715
-0.000260145
-0.00161042
-0.00027684
-0.00170987
-0.000275778
-0.00183512
-0.000245725
-0.00199903
-0.000172067
-0.00221702
-3.74327e-05
-0.00248358
0.000166264
-0.00280754
0.000453618
-0.00327128
0.000842435
-0.00398827
0.00133083
-0.00502969
0.00188253
-0.00651689
0.00235055
-0.0082554
0.00241503
-0.00777184
0.0012571
-0.00235741
0.00895062
0.005603
0.00747208
0.004705
0.00708018
0.00265736
0.00672934
0.00125352
0.00611925
0.000227606
0.00524664
-0.000522327
0.00417783
-0.00099749
0.0029821
-0.00113773
0.00169031
-0.000920624
0.000429353
-0.000579766
-0.000610554
-0.000227184
-0.00127179
-2.1205e-05
-0.00156413
6.14049e-05
-0.00167844
7.49279e-05
-0.00170804
7.44004e-05
-0.00171347
6.61362e-05
-0.0017282
4.79298e-05
-0.00176673
2.18228e-05
-0.00183041
-7.93132e-06
-0.00191171
-4.06063e-05
-0.00200304
-7.45245e-05
-0.00210234
-0.000103597
-0.0022109
-0.000125547
-0.0023321
-0.000138948
-0.00246805
-0.000140892
-0.00261757
-0.000126257
-0.00277525
-8.80386e-05
-0.00292874
-1.85801e-05
-0.00306247
9.62955e-05
-0.00317485
0.000278642
-0.00327581
0.000554585
-0.00337728
0.000943906
-0.00348602
0.00143956
-0.00356943
0.00196594
-0.00356769
0.00234882
-0.00330959
0.00215693
-0.00194968
-0.000102809
-0.00422376
-0.000826123
0.00648244
0.000741786
0.00313709
0.00140713
0.00199201
0.00164566
0.00101499
0.00158149
0.000291779
0.00121024
-0.000151079
0.000527785
-0.000315036
-0.000365647
-0.000244299
-0.00124264
-4.36354e-05
-0.0018876
6.52008e-05
-0.00222803
0.000113239
-0.00235868
0.000109446
-0.00238128
8.4013e-05
-0.00237059
6.42351e-05
-0.00234907
5.28753e-05
-0.00232803
4.51003e-05
-0.00231664
3.65345e-05
-0.00232027
2.54623e-05
-0.00233948
1.12711e-05
-0.00237308
-7.00467e-06
-0.00242156
-2.60451e-05
-0.00248299
-4.21654e-05
-0.00255525
-5.32849e-05
-0.0026357
-5.84994e-05
-0.00272021
-5.63821e-05
-0.00280218
-4.42935e-05
-0.00287213
-1.80877e-05
-0.00291755
2.68422e-05
-0.00291777
9.65152e-05
-0.00284744
0.000208312
-0.00267198
0.000379131
-0.00236004
0.000631962
-0.00190377
0.000983292
-0.0012892
0.00135136
-0.000299466
0.00135909
0.00114777
0.0007097
0.00164259
-0.000597633
-0.00248949
-0.0120482
-0.0155767
-0.00905383
-0.00588934
-0.00387506
-0.00284147
-0.00253467
-0.00267375
-0.00297886
-0.00321466
-0.00325063
-0.00317815
-0.00305777
-0.00294121
-0.00285008
-0.0027787
-0.00271866
-0.00266635
-0.00262256
-0.0025898
-0.00257124
-0.002571
-0.00258987
-0.00262497
-0.00267132
-0.00272304
-0.0027728
-0.00281063
-0.00282245
-0.00278954
-0.00268717
-0.00247323
-0.00208872
-0.00145165
-0.000463549
0.000892236
0.00225546
0.00296921
0.00237575
)
;

boundaryField
{
    floor
    {
        type            calculated;
        value           nonuniform List<scalar> 
36
(
0
0
0
0
0
0
0
0
0
0
0
0
0
0
0
0
0
0
0
-4.83913e-06
-1.23785e-05
-1.857e-05
-2.36399e-05
-2.11164e-05
-1.96192e-05
-1.84537e-05
-2.35094e-06
-3.78386e-06
-4.35924e-06
-5.04454e-06
-3.65656e-06
-7.64358e-06
-1.10002e-05
-1.12612e-05
-1.38376e-05
-1.19384e-05
)
;
    }
    ceiling
    {
        type            calculated;
        value           nonuniform List<scalar> 
43
(
-4.18392e-05
-4.11745e-05
-4.04749e-05
-2.74094e-05
-2.22639e-05
-1.85974e-05
-1.502e-05
-1.19974e-05
-9.92581e-06
-8.49914e-06
-7.66497e-06
-7.28607e-06
-7.13875e-06
-7.11122e-06
-7.12247e-06
-7.14021e-06
-7.16722e-06
-7.20888e-06
-7.25817e-06
-7.28967e-06
-7.28863e-06
-7.25046e-06
-7.17076e-06
-7.06429e-06
-6.93535e-06
-6.78516e-06
-6.62532e-06
-6.45415e-06
-6.26818e-06
-6.07146e-06
-5.85852e-06
-5.62554e-06
-5.37663e-06
-5.1063e-06
-4.81196e-06
-4.42507e-06
-4.13928e-06
-4.04502e-06
-4.176e-06
-3.60073e-06
6.94147e-06
4.17941e-06
-5.33159e-05
)
;
    }
    sWall
    {
        type            calculated;
        value           uniform -0.000241391;
    }
    nWall
    {
        type            calculated;
        value           nonuniform List<scalar> 6(-5.43174e-05 -6.54342e-05 -6.8813e-05 -8.33258e-05 -9.16818e-05 -0.000110139);
    }
    sideWalls
    {
        type            empty;
        value           nonuniform 0();
    }
    glass1
    {
        type            calculated;
        value           nonuniform List<scalar> 9(-6.04552e-05 -0.000163397 -0.000250417 -0.000324642 -0.000387714 -0.000440776 -0.000487278 -0.000543332 -0.000605854);
    }
    glass2
    {
        type            calculated;
        value           nonuniform List<scalar> 2(-0.00028641 -0.000317009);
    }
    sun
    {
        type            calculated;
        value           uniform 0;
    }
    Table_master
    {
        type            calculated;
        value           nonuniform List<scalar> 9(-1.5364e-07 -1.53789e-07 -1.53839e-07 -1.53869e-07 -1.5389e-07 -1.53902e-07 -1.53906e-07 -1.539e-07 -1.5387e-07);
    }
    Table_slave
    {
        type            calculated;
        value           nonuniform List<scalar> 9(1.53531e-07 1.53516e-07 1.53469e-07 1.53431e-07 1.53408e-07 1.53409e-07 1.53414e-07 1.53451e-07 1.53535e-07);
    }
    inlet
    {
        type            calculated;
        value           uniform -0.0106584;
    }
    outlet
    {
        type            calculated;
        value           nonuniform List<scalar> 2(0.0123314 0.00356977);
    }
}


// ************************************************************************* //
