/*--------------------------------*- C++ -*----------------------------------*\
  =========                 |
  \\      /  F ield         | OpenFOAM: The Open Source CFD Toolbox
   \\    /   O peration     | Website:  https://openfoam.org
    \\  /    A nd           | Version:  6
     \\/     M anipulation  |
\*---------------------------------------------------------------------------*/
FoamFile
{
    version     2.0;
    format      ascii;
    class       volVectorField;
    location    "1360";
    object      U;
}
// * * * * * * * * * * * * * * * * * * * * * * * * * * * * * * * * * * * * * //

dimensions      [0 1 -1 0 0 0 0];

internalField   nonuniform List<vector> 
458
(
(0.034811 0.0885259 0)
(-0.172088 0.0265866 0)
(-0.199361 0.0191141 0)
(-0.233238 0.0130814 0)
(-0.258412 0.00641361 0)
(-0.273617 -0.000805371 0)
(-0.276746 -0.00877915 0)
(-0.265497 -0.0177796 0)
(-0.239437 -0.027429 0)
(-0.199723 -0.0361141 0)
(-0.150454 -0.042054 0)
(-0.0978342 -0.0436535 0)
(-0.0487318 -0.0390827 0)
(-0.00627184 -0.0236854 0)
(-0.0102664 0.00977223 0)
(-0.010223 0.0105028 0)
(-0.0372413 -0.0175018 0)
(-0.0144894 -0.0291236 0)
(0.0137216 -0.0251943 0)
(0.0334907 -0.0178986 0)
(0.0481144 -0.00956065 0)
(0.0568756 -0.00518037 0)
(0.0607523 -0.00363567 0)
(0.0621854 -0.00308564 0)
(0.0628328 -0.0027621 0)
(0.0631407 -0.00251124 0)
(0.0630777 -0.0022431 0)
(0.062478 -0.00179848 0)
(0.0608837 -0.000838936 0)
(0.0572776 0.00107566 0)
(0.0505516 0.00317471 0)
(0.045132 0.00509493 0)
(-0.0141235 0.0219569 0)
(0.214256 0.181897 0)
(-0.16215 0.0709998 0)
(-0.16295 0.0577661 0)
(-0.198666 0.0457457 0)
(-0.224144 0.0319896 0)
(-0.24012 0.016176 0)
(-0.244622 -0.00241093 0)
(-0.235124 -0.0239691 0)
(-0.211874 -0.0461734 0)
(-0.176489 -0.0649311 0)
(-0.133357 -0.0764317 0)
(-0.088126 -0.0782035 0)
(-0.0462581 -0.068733 0)
(-0.0100249 -0.0460188 0)
(0.0194111 -0.013382 0)
(0.0442431 0.00785015 0)
(0.0548458 0.0347578 0)
(-0.01181 0.0706804 0)
(0.0670565 0.0439663 0)
(0.0103058 -0.0218386 0)
(0.026524 -0.0379107 0)
(0.0407593 -0.0356605 0)
(0.0531551 -0.0273558 0)
(0.0595873 -0.0120962 0)
(0.0612091 -0.00275079 0)
(0.061257 0.000749749 0)
(0.0614203 0.002027 0)
(0.0617452 0.00272646 0)
(0.0619702 0.00322636 0)
(0.0620274 0.00367921 0)
(0.0619228 0.00441166 0)
(0.0612109 0.00621054 0)
(0.057813 0.0112307 0)
(0.0491189 0.0155456 0)
(0.0476995 0.018723 0)
(-0.058402 0.0475656 0)
(0.379515 0.272966 0)
(-0.180115 0.113743 0)
(-0.123516 0.0941143 0)
(-0.159201 0.0724372 0)
(-0.182603 0.049504 0)
(-0.198413 0.0236422 0)
(-0.204064 -0.00653737 0)
(-0.195373 -0.0409844 0)
(-0.173588 -0.0757867 0)
(-0.14142 -0.103656 0)
(-0.103834 -0.11896 0)
(-0.0658875 -0.119161 0)
(-0.0318154 -0.104122 0)
(-0.00227045 -0.0743981 0)
(0.0220346 -0.0400731 0)
(0.0375976 -0.0152173 0)
(0.0431765 0.0131647 0)
(-0.023664 0.0623142 0)
(0.122496 -0.00755068 0)
(0.072485 -0.0321026 0)
(0.0642804 -0.0419415 0)
(0.0672307 -0.041776 0)
(0.071844 -0.0380709 0)
(0.0734831 -0.0282402 0)
(0.0643586 -0.018333 0)
(0.0574009 -0.0130276 0)
(0.054803 -0.0100785 0)
(0.0541141 -0.00818512 0)
(0.0538826 -0.00689651 0)
(0.0539554 -0.00590104 0)
(0.0547574 -0.0047511 0)
(0.0572119 -0.00139456 0)
(0.0561117 0.0149998 0)
(0.0445982 0.0258887 0)
(0.0541292 0.0332723 0)
(-0.0993535 0.0728153 0)
(0.53001 0.346665 0)
(-0.216664 0.151765 0)
(-0.0801999 0.125841 0)
(-0.115537 0.0962989 0)
(-0.133414 0.0672241 0)
(-0.146925 0.0337613 0)
(-0.152509 -0.00711558 0)
(-0.14261 -0.0550617 0)
(-0.121274 -0.102317 0)
(-0.0929634 -0.137847 0)
(-0.0625162 -0.155433 0)
(-0.0335571 -0.153432 0)
(-0.00878358 -0.133438 0)
(0.0128766 -0.097921 0)
(0.03044 -0.0589675 0)
(0.0443576 -0.0228891 0)
(0.059947 0.0131554 0)
(0.0588034 0.053442 0)
(0.100298 0.0615138 0)
(0.0987637 -0.00244011 0)
(0.0850846 -0.0293912 0)
(0.0783957 -0.0376976 0)
(0.0735395 -0.0384105 0)
(0.0669348 -0.0341347 0)
(0.0665073 -0.0208503 0)
(0.0771932 -0.0138372 0)
(0.0861677 -0.0101137 0)
(0.0915788 -0.00783121 0)
(0.0948315 -0.00592419 0)
(0.0962534 -0.00386347 0)
(0.0944982 -0.00119713 0)
(0.0882457 0.00247458 0)
(0.07571 0.007738 0)
(0.0598023 0.025096 0)
(0.0440669 0.0406051 0)
(0.0629711 0.0533712 0)
(-0.131361 0.0943015 0)
(0.662663 0.403823 0)
(-0.262347 0.182686 0)
(-0.0350323 0.145261 0)
(-0.0687443 0.111319 0)
(-0.0779379 0.079231 0)
(-0.0862831 0.0412458 0)
(-0.0890349 -0.00799415 0)
(-0.0740056 -0.0688269 0)
(-0.0534587 -0.125911 0)
(-0.031554 -0.165081 0)
(-0.0112513 -0.181849 0)
(0.00618416 -0.175994 0)
(0.0193457 -0.151482 0)
(0.0303614 -0.114532 0)
(0.0402062 -0.072946 0)
(0.0494418 -0.0337054 0)
(0.0619285 0.00069559 0)
(0.0760129 0.0197385 0)
(0.0902866 -0.000540187 0)
(0.0896293 -0.021354 0)
(0.0825483 -0.0300229 0)
(0.0737313 -0.0325472 0)
(0.0654786 -0.0316371 0)
(0.0585276 -0.0266471 0)
(0.0567459 -0.0155237 0)
(0.0603073 -0.0090398 0)
(0.0646598 -0.00638932 0)
(0.0683956 -0.0048503 0)
(0.0716523 -0.00277233 0)
(0.0741712 0.0007593 0)
(0.0750358 0.00595111 0)
(0.0731516 0.0129748 0)
(0.0682474 0.0224303 0)
(0.0612026 0.0371743 0)
(0.0500508 0.0536524 0)
(0.0748515 0.0727755 0)
(-0.00684745 0.101407 0)
(0.0557712 0.150673 0)
(-0.0835362 0.0748239 0)
(-0.277794 0.000474202 0)
(0.761873 0.451337 0)
(-0.308544 0.203345 0)
(0.00243198 0.143886 0)
(-0.0205776 0.116256 0)
(-0.0197787 0.0857168 0)
(-0.0214854 0.0472894 0)
(-0.0142907 -0.00694469 0)
(0.0103509 -0.0859484 0)
(0.0269567 -0.146202 0)
(0.0388594 -0.182429 0)
(0.0460776 -0.194557 0)
(0.0489231 -0.185053 0)
(0.0486562 -0.158117 0)
(0.0472488 -0.119908 0)
(0.0460697 -0.07792 0)
(0.0464766 -0.0396786 0)
(0.0508152 -0.00995555 0)
(0.0599434 0.00486471 0)
(0.0662039 -0.00101373 0)
(0.0649384 -0.0109842 0)
(0.0585399 -0.0187865 0)
(0.050359 -0.0229016 0)
(0.0427139 -0.023663 0)
(0.0367342 -0.0211466 0)
(0.0341848 -0.0157873 0)
(0.0353414 -0.0123165 0)
(0.0383049 -0.0108909 0)
(0.0419716 -0.00980719 0)
(0.0460428 -0.00767362 0)
(0.0502363 -0.00341911 0)
(0.0544598 0.00365564 0)
(0.0569853 0.0131682 0)
(0.0581539 0.0249342 0)
(0.0592774 0.0395761 0)
(0.0583526 0.0560211 0)
(0.0796994 0.0767227 0)
(0.0654384 0.0890103 0)
(0.0997152 0.0967421 0)
(0.117479 0.0571977 0)
(-0.136908 -0.0299421 0)
(0.815604 0.494202 0)
(-0.334116 0.187373 0)
(0.0322436 0.0937956 0)
(0.0390705 0.101044 0)
(0.0459452 0.0829873 0)
(0.0516441 0.0393546 0)
(0.0791334 -0.0311936 0)
(0.103148 -0.103723 0)
(0.113324 -0.157028 0)
(0.112899 -0.186336 0)
(0.104617 -0.192433 0)
(0.0908216 -0.178775 0)
(0.0741231 -0.149764 0)
(0.057527 -0.111549 0)
(0.0429922 -0.0708842 0)
(0.0326264 -0.0356553 0)
(0.0280952 -0.0107051 0)
(0.0294762 0.00104998 0)
(0.0310979 -0.00022683 0)
(0.0295866 -0.00652622 0)
(0.0249251 -0.0126001 0)
(0.0187986 -0.0163519 0)
(0.0127686 -0.0177409 0)
(0.00796177 -0.0171168 0)
(0.00560405 -0.0152177 0)
(0.00595188 -0.0141317 0)
(0.0079972 -0.0140052 0)
(0.0110015 -0.0137841 0)
(0.014802 -0.012406 0)
(0.019485 -0.00878423 0)
(0.0256522 -0.00167606 0)
(0.0332769 0.008844 0)
(0.0400475 0.0208795 0)
(0.0478548 0.03416 0)
(0.0558538 0.0479768 0)
(0.0754364 0.0644799 0)
(0.088222 0.06979 0)
(0.119668 0.063215 0)
(0.163391 0.0513006 0)
(-0.0203359 0.0954808 0)
(0.921862 0.497295 0)
(-0.0766612 0.167423 0)
(0.110616 0.0261562 0)
(0.163751 0.0227747 0)
(0.161422 0.0155192 0)
(0.162897 -0.0293989 0)
(0.196532 -0.0804397 0)
(0.211314 -0.125565 0)
(0.2054 -0.15829 0)
(0.185128 -0.173985 0)
(0.155617 -0.171672 0)
(0.121112 -0.153969 0)
(0.0853132 -0.124266 0)
(0.0523838 -0.0880583 0)
(0.0244728 -0.051026 0)
(0.00511505 -0.0218732 0)
(-0.00464743 -0.00435939 0)
(-0.00658341 0.00183006 0)
(-0.00647167 0.00072534 0)
(-0.00767795 -0.00361377 0)
(-0.010982 -0.00797816 0)
(-0.0154826 -0.0110565 0)
(-0.0201177 -0.012847 0)
(-0.0239798 -0.0136998 0)
(-0.0263591 -0.0141624 0)
(-0.0272489 -0.0149213 0)
(-0.0272122 -0.0159116 0)
(-0.0266303 -0.0166287 0)
(-0.0255037 -0.0165437 0)
(-0.0235256 -0.0150793 0)
(-0.0199027 -0.0115046 0)
(-0.0117611 -0.00494203 0)
(-0.00012757 0.00443999 0)
(0.0110553 0.0137609 0)
(0.0226619 0.0208799 0)
(0.0398821 0.027755 0)
(0.0554214 0.0224514 0)
(0.0795681 0.00564907 0)
(0.146406 0.0479718 0)
(-0.428345 0.212661 0)
(1.0659 0.44417 0)
(0.518242 0.298304 0)
(0.529541 0.249851 0)
(0.518411 0.18289 0)
(0.469872 0.122417 0)
(0.433207 0.0600912 0)
(0.392089 -0.00744632 0)
(0.34288 -0.0669975 0)
(0.289118 -0.10787 0)
(0.232772 -0.126608 0)
(0.175381 -0.12509 0)
(0.118914 -0.108902 0)
(0.0654609 -0.0822727 0)
(0.0202371 -0.0512398 0)
(-0.0161124 -0.0207921 0)
(-0.032967 -0.00599891 0)
(-0.040157 0.000517881 0)
(-0.0416995 0.00227977 0)
(-0.0420736 0.00107136 0)
(-0.0432129 -0.00158806 0)
(-0.0458374 -0.00448123 0)
(-0.0494834 -0.00702526 0)
(-0.0535065 -0.00913748 0)
(-0.0573695 -0.0108828 0)
(-0.0608168 -0.0123949 0)
(-0.0640117 -0.0137817 0)
(-0.0673583 -0.0148857 0)
(-0.0712301 -0.0153442 0)
(-0.0759806 -0.0146739 0)
(-0.082082 -0.0122218 0)
(-0.0902256 -0.00714951 0)
(-0.101136 0.00140182 0)
(-0.112778 0.0133079 0)
(-0.128001 0.0284099 0)
(-0.152916 0.0467854 0)
(-0.190234 0.0673941 0)
(-0.241636 0.0862218 0)
(-0.297569 0.0999085 0)
(-0.371653 0.106895 0)
(-0.650666 0.106283 0)
(0.233936 0.0528109 0)
(0.305895 0.115926 0)
(0.321222 0.0913213 0)
(0.299647 0.0395308 0)
(0.275055 -0.0106396 0)
(0.244387 -0.0469611 0)
(0.203093 -0.0684193 0)
(0.153989 -0.075406 0)
(0.100415 -0.0686834 0)
(0.0461354 -0.0529014 0)
(-0.00866705 -0.0294893 0)
(-0.0451666 -0.0114547 0)
(-0.0636306 -0.00306885 0)
(-0.0709512 -0.000674965 0)
(-0.0731671 -0.000201726 0)
(-0.073471 -0.00090223 0)
(-0.0737593 -0.00250979 0)
(-0.0748904 -0.00461702 0)
(-0.0770923 -0.00672262 0)
(-0.0803401 -0.00851614 0)
(-0.0841301 -0.010005 0)
(-0.088234 -0.0111411 0)
(-0.0926639 -0.011926 0)
(-0.0975736 -0.0123264 0)
(-0.103113 -0.0121571 0)
(-0.109313 -0.0110699 0)
(-0.116039 -0.00859663 0)
(-0.122949 -0.00419306 0)
(-0.129419 0.00270578 0)
(-0.134402 0.0123125 0)
(-0.138372 0.025601 0)
(-0.141808 0.0431712 0)
(-0.146017 0.064222 0)
(-0.151768 0.0850552 0)
(-0.155352 0.095551 0)
(-0.141293 0.0734017 0)
(-0.110221 -0.0250127 0)
(-0.286614 -0.213745 0)
(0.120039 0.324318 0)
(0.00838185 0.203565 0)
(0.039242 0.118413 0)
(0.0584419 0.0603975 0)
(0.063077 0.021598 0)
(0.0600579 -0.00480143 0)
(0.040138 -0.019909 0)
(0.00534434 -0.0189247 0)
(-0.0366578 -0.00170361 0)
(-0.0701672 0.0128727 0)
(-0.0912681 0.0208661 0)
(-0.100271 0.0232493 0)
(-0.102475 0.0233777 0)
(-0.102402 0.0234277 0)
(-0.101509 0.0241321 0)
(-0.100457 0.0252478 0)
(-0.0997168 0.0263776 0)
(-0.0995778 0.0271226 0)
(-0.100097 0.0270569 0)
(-0.10123 0.0258465 0)
(-0.10302 0.0238034 0)
(-0.105396 0.0215572 0)
(-0.108293 0.0193836 0)
(-0.111622 0.0174253 0)
(-0.115241 0.015785 0)
(-0.118935 0.0145748 0)
(-0.122393 0.0139293 0)
(-0.125133 0.0140077 0)
(-0.12634 0.0155022 0)
(-0.124843 0.0198735 0)
(-0.119062 0.0282834 0)
(-0.10761 0.0417328 0)
(-0.0903448 0.0602389 0)
(-0.0683107 0.0804264 0)
(-0.0434402 0.0948384 0)
(-0.00757243 0.0857731 0)
(0.14694 0.00930004 0)
(-0.20993 -0.129687 0)
(-0.422102 -0.516016 0)
(-0.637306 -0.14328 0)
(-0.449398 0.177734 0)
(-0.357949 0.0560532 0)
(-0.213937 -0.0055613 0)
(-0.145676 -0.0477943 0)
(-0.117253 -0.0705149 0)
(-0.113081 -0.0713249 0)
(-0.122437 -0.0626486 0)
(-0.134936 -0.054938 0)
(-0.140407 -0.0504685 0)
(-0.138644 -0.0490196 0)
(-0.134179 -0.0498813 0)
(-0.128983 -0.0526688 0)
(-0.124495 -0.0561585 0)
(-0.121016 -0.0597719 0)
(-0.11818 -0.0633969 0)
(-0.115733 -0.0670886 0)
(-0.113632 -0.070687 0)
(-0.111951 -0.0736842 0)
(-0.110828 -0.0754771 0)
(-0.110432 -0.0756299 0)
(-0.110867 -0.0742348 0)
(-0.112088 -0.0718956 0)
(-0.113915 -0.0688377 0)
(-0.116119 -0.0652013 0)
(-0.118422 -0.061033 0)
(-0.120458 -0.0562474 0)
(-0.121746 -0.0506429 0)
(-0.121648 -0.0438375 0)
(-0.119144 -0.0358429 0)
(-0.112325 -0.0267101 0)
(-0.0983879 -0.0158975 0)
(-0.0748329 -0.00249691 0)
(-0.0415434 0.0143576 0)
(0.00932472 0.0362837 0)
(0.061872 0.0423447 0)
(0.109604 0.0240413 0)
(0.172061 -0.0159458 0)
(-0.196289 -0.082688 0)
)
;

boundaryField
{
    floor
    {
        type            noSlip;
    }
    ceiling
    {
        type            noSlip;
    }
    sWall
    {
        type            noSlip;
    }
    nWall
    {
        type            noSlip;
    }
    sideWalls
    {
        type            empty;
    }
    glass1
    {
        type            noSlip;
    }
    glass2
    {
        type            noSlip;
    }
    sun
    {
        type            noSlip;
    }
    Table_master
    {
        type            noSlip;
    }
    Table_slave
    {
        type            noSlip;
    }
    inlet
    {
        type            fixedValue;
        value           uniform (0.46194 -0.191342 0);
    }
    outlet
    {
        type            zeroGradient;
    }
}


// ************************************************************************* //
