/*--------------------------------*- C++ -*----------------------------------*\
  =========                 |
  \\      /  F ield         | OpenFOAM: The Open Source CFD Toolbox
   \\    /   O peration     | Website:  https://openfoam.org
    \\  /    A nd           | Version:  6
     \\/     M anipulation  |
\*---------------------------------------------------------------------------*/
FoamFile
{
    version     2.0;
    format      ascii;
    class       volVectorField;
    location    "41399.9999994471655";
    object      U;
}
// * * * * * * * * * * * * * * * * * * * * * * * * * * * * * * * * * * * * * //

dimensions      [0 1 -1 0 0 0 0];

internalField   nonuniform List<vector> 
778
(
(0.0655958 0.0794101 0)
(-0.15518 0.0157702 0)
(-0.164316 0.0146316 0)
(-0.192445 0.0122824 0)
(-0.216895 0.00873184 0)
(-0.236968 0.00474933 0)
(-0.252107 0.000419774 0)
(-0.261885 -0.00436908 0)
(-0.265787 -0.00981542 0)
(-0.262811 -0.0161992 0)
(-0.251001 -0.0242762 0)
(-0.226291 -0.0348979 0)
(-0.186155 -0.0504221 0)
(-0.144215 -0.0751968 0)
(-0.150122 -0.108596 0)
(0.0546144 0.0354523 0)
(0.0156849 -0.0268424 0)
(0.0448279 -0.0232373 0)
(0.0691763 -0.0161355 0)
(0.0841887 -0.010334 0)
(0.0913686 -0.00640916 0)
(0.0941967 -0.00433681 0)
(0.0952332 -0.00331388 0)
(0.0956867 -0.00272603 0)
(0.0958535 -0.00231296 0)
(0.0957245 -0.00194941 0)
(0.0951965 -0.00151076 0)
(0.0939414 -0.000759507 0)
(0.091103 0.000840468 0)
(0.0849168 0.00405599 0)
(0.0734135 0.00774967 0)
(0.0598191 0.0115775 0)
(-0.00801569 0.0299398 0)
(0.258392 0.167398 0)
(-0.161238 0.0484025 0)
(-0.141617 0.0459961 0)
(-0.174033 0.0416336 0)
(-0.19941 0.0356879 0)
(-0.220145 0.0291482 0)
(-0.236188 0.0220737 0)
(-0.247451 0.0142382 0)
(-0.253634 0.005299 0)
(-0.253955 -0.00515814 0)
(-0.247798 -0.0170952 0)
(-0.234089 -0.0308677 0)
(-0.214178 -0.0480958 0)
(-0.197603 -0.069983 0)
(-0.194089 -0.0826735 0)
(-0.166461 -0.0426014 0)
(-0.105372 -0.0364317 0)
(-0.0983448 -0.0445174 0)
(0.109326 -0.0419789 0)
(0.064421 -0.041067 0)
(0.0718011 -0.0321813 0)
(0.0857209 -0.0206357 0)
(0.0935616 -0.0103985 0)
(0.0957619 -0.00362245 0)
(0.0955174 -0.0001976 0)
(0.0951339 0.00125031 0)
(0.0951004 0.00190236 0)
(0.0951819 0.00227664 0)
(0.0951882 0.00259553 0)
(0.0950871 0.00313269 0)
(0.0947957 0.00440754 0)
(0.0935402 0.00771348 0)
(0.0879508 0.0167267 0)
(0.0742189 0.0252718 0)
(0.0629497 0.0328397 0)
(-0.0521472 0.0634372 0)
(0.429969 0.253962 0)
(-0.194234 0.0847767 0)
(-0.112792 0.0784578 0)
(-0.148268 0.0669859 0)
(-0.170712 0.0555326 0)
(-0.188819 0.043759 0)
(-0.202669 0.0313713 0)
(-0.212371 0.0180263 0)
(-0.217729 0.00340664 0)
(-0.21809 -0.0126364 0)
(-0.212833 -0.0303392 0)
(-0.201726 -0.0499307 0)
(-0.186087 -0.071594 0)
(-0.169558 -0.0932389 0)
(-0.151196 -0.104595 0)
(-0.120358 -0.0931831 0)
(-0.0796594 -0.0950028 0)
(-0.0715959 -0.107664 0)
(0.0920445 -0.0880335 0)
(0.0624839 -0.0656138 0)
(0.0742519 -0.0459861 0)
(0.08784 -0.0291005 0)
(0.0946101 -0.0147483 0)
(0.0916484 -0.0119638 0)
(0.0874255 -0.00795633 0)
(0.0850609 -0.00579968 0)
(0.0843627 -0.00457083 0)
(0.0843393 -0.00380065 0)
(0.0845998 -0.0032244 0)
(0.0852554 -0.00259788 0)
(0.0870154 -0.00144173 0)
(0.091691 0.00291183 0)
(0.0898334 0.0250715 0)
(0.0730303 0.0422599 0)
(0.0698585 0.0572635 0)
(-0.0903458 0.100622 0)
(0.578534 0.325852 0)
(-0.240101 0.121833 0)
(-0.0808478 0.109257 0)
(-0.121598 0.0898945 0)
(-0.139042 0.0741139 0)
(-0.153115 0.0586799 0)
(-0.163886 0.0427914 0)
(-0.171491 0.0258368 0)
(-0.175709 0.00721047 0)
(-0.175778 -0.0135343 0)
(-0.17109 -0.0364846 0)
(-0.161523 -0.0614734 0)
(-0.147663 -0.0873846 0)
(-0.130702 -0.110305 0)
(-0.109765 -0.123206 0)
(-0.0823087 -0.124559 0)
(-0.0527225 -0.126408 0)
(-0.0336162 -0.123201 0)
(0.0160272 -0.0567993 0)
(0.0605947 -0.0929475 0)
(0.0682919 -0.0790507 0)
(0.0789353 -0.0586677 0)
(0.0914368 -0.0394116 0)
(0.102796 -0.0207395 0)
(0.115535 -0.0131107 0)
(0.126623 -0.00877305 0)
(0.132165 -0.00558553 0)
(0.133112 -0.00308883 0)
(0.130563 -0.000869309 0)
(0.125081 0.00129845 0)
(0.116538 0.00367866 0)
(0.104168 0.00673176 0)
(0.0849073 0.0111564 0)
(0.0710483 0.0368105 0)
(0.0597537 0.0604456 0)
(0.0759206 0.0830771 0)
(-0.118344 0.136586 0)
(0.705715 0.383695 0)
(-0.287676 0.157034 0)
(-0.0477093 0.133825 0)
(-0.096316 0.106971 0)
(-0.107775 0.0876539 0)
(-0.11682 0.0692331 0)
(-0.123622 0.0505016 0)
(-0.128292 0.0306289 0)
(-0.13066 0.00874596 0)
(-0.129857 -0.0158186 0)
(-0.125357 -0.0430895 0)
(-0.116735 -0.0726944 0)
(-0.104022 -0.102818 0)
(-0.0875692 -0.129058 0)
(-0.067639 -0.145752 0)
(-0.0443212 -0.152243 0)
(-0.0204789 -0.152373 0)
(3.50029e-05 -0.143741 0)
(0.0305679 -0.114978 0)
(0.0567526 -0.109295 0)
(0.0703568 -0.0923268 0)
(0.080518 -0.0711194 0)
(0.090591 -0.0506436 0)
(0.100152 -0.0326035 0)
(0.109242 -0.0192706 0)
(0.116223 -0.00992266 0)
(0.119601 -0.00324484 0)
(0.119757 0.00199279 0)
(0.117312 0.00652246 0)
(0.112635 0.0108595 0)
(0.105754 0.015517 0)
(0.0965974 0.0211984 0)
(0.0846553 0.0292014 0)
(0.073068 0.0472067 0)
(0.0624921 0.0712042 0)
(0.0939881 0.0991704 0)
(0.0157218 0.137772 0)
(0.0949902 0.182981 0)
(0.141218 0.145657 0)
(-0.223059 0.203174 0)
(0.81043 0.43199 0)
(-0.331317 0.190707 0)
(-0.017324 0.150302 0)
(-0.0733927 0.117585 0)
(-0.0786254 0.0955847 0)
(-0.0822598 0.07502 0)
(-0.0845276 0.0544114 0)
(-0.0855775 0.0327741 0)
(-0.085332 0.0088943 0)
(-0.0826636 -0.0183993 0)
(-0.077498 -0.0490272 0)
(-0.0688726 -0.0824954 0)
(-0.0568831 -0.116472 0)
(-0.0418396 -0.146243 0)
(-0.024856 -0.165936 0)
(-0.00648462 -0.174453 0)
(0.0119005 -0.17273 0)
(0.0278034 -0.161 0)
(0.0459659 -0.139306 0)
(0.0624219 -0.1223 0)
(0.0731046 -0.102407 0)
(0.0807939 -0.0803149 0)
(0.0875532 -0.0589411 0)
(0.093724 -0.0400542 0)
(0.0990299 -0.0248941 0)
(0.102678 -0.0135608 0)
(0.104238 -0.00489439 0)
(0.103767 0.00226907 0)
(0.101581 0.00870556 0)
(0.0979277 0.0149368 0)
(0.0929654 0.021496 0)
(0.0869187 0.0290251 0)
(0.0800334 0.0384472 0)
(0.0742234 0.0529147 0)
(0.0688252 0.0729536 0)
(0.0906672 0.0986401 0)
(0.0720315 0.107156 0)
(0.0883901 0.0473039 0)
(0.146171 -0.0380958 0)
(-0.330843 0.106792 0)
(0.879924 0.474702 0)
(-0.368641 0.220994 0)
(0.00372447 0.155625 0)
(-0.0526865 0.121648 0)
(-0.052241 0.0979397 0)
(-0.051076 0.0759122 0)
(-0.0490879 0.0541286 0)
(-0.0465862 0.0316042 0)
(-0.0434141 0.00682054 0)
(-0.0374642 -0.0222737 0)
(-0.0303957 -0.0553573 0)
(-0.0206179 -0.091918 0)
(-0.00881587 -0.12884 0)
(0.00438827 -0.161152 0)
(0.0174612 -0.181806 0)
(0.0302533 -0.190158 0)
(0.0420624 -0.187195 0)
(0.0523633 -0.174399 0)
(0.0623293 -0.154039 0)
(0.0709051 -0.132358 0)
(0.0764315 -0.109297 0)
(0.0798903 -0.085746 0)
(0.0824771 -0.0635247 0)
(0.0846894 -0.0439971 0)
(0.0864825 -0.0278931 0)
(0.0875248 -0.0151142 0)
(0.0876027 -0.00487805 0)
(0.0865719 0.00373753 0)
(0.0846348 0.0114168 0)
(0.0819403 0.0186888 0)
(0.0786669 0.0260656 0)
(0.0750905 0.034068 0)
(0.0715972 0.04328 0)
(0.0695207 0.055027 0)
(0.0681483 0.0697106 0)
(0.0807794 0.0889967 0)
(0.0830487 0.0922704 0)
(0.0874469 0.0539618 0)
(0.180893 0.0231361 0)
(-0.283894 0.15353 0)
(0.927992 0.517154 0)
(-0.383178 0.234211 0)
(0.0169186 0.133067 0)
(-0.0273501 0.116754 0)
(-0.0265828 0.095026 0)
(-0.022793 0.0725357 0)
(-0.0177017 0.0502054 0)
(-0.0124456 0.027336 0)
(-0.00552154 0.00193776 0)
(0.00446158 -0.0307087 0)
(0.0141674 -0.0653089 0)
(0.0254572 -0.103299 0)
(0.0370952 -0.140791 0)
(0.0477772 -0.172046 0)
(0.0568801 -0.192242 0)
(0.0643795 -0.199747 0)
(0.0701047 -0.19535 0)
(0.0740588 -0.18117 0)
(0.0767565 -0.16008 0)
(0.0781152 -0.136057 0)
(0.0777519 -0.110994 0)
(0.0762378 -0.086409 0)
(0.0743973 -0.0637862 0)
(0.07275 -0.0441395 0)
(0.0714315 -0.0278573 0)
(0.0703104 -0.0146618 0)
(0.069201 -0.00385576 0)
(0.0678162 0.00534031 0)
(0.0662892 0.0135095 0)
(0.0645976 0.0211464 0)
(0.0628321 0.0286935 0)
(0.061186 0.0365319 0)
(0.0599575 0.0450009 0)
(0.0599806 0.0546491 0)
(0.0609879 0.0655468 0)
(0.0693454 0.0793511 0)
(0.0777225 0.0831934 0)
(0.0747785 0.0616481 0)
(0.239312 0.0491946 0)
(-0.559423 0.22915 0)
(1.01134 0.506828 0)
(-0.137379 0.296359 0)
(0.0410795 0.161566 0)
(0.0405552 0.122171 0)
(0.0130393 0.092077 0)
(0.00861613 0.0654763 0)
(0.014023 0.0414983 0)
(0.0206281 0.0170721 0)
(0.0324175 -0.010956 0)
(0.0438668 -0.0421112 0)
(0.0557222 -0.076885 0)
(0.0679888 -0.114601 0)
(0.0791242 -0.151037 0)
(0.0876314 -0.180479 0)
(0.0928618 -0.198506 0)
(0.0949215 -0.203692 0)
(0.0942176 -0.197071 0)
(0.0912986 -0.181048 0)
(0.0868431 -0.158655 0)
(0.0813031 -0.1332 0)
(0.0749698 -0.107115 0)
(0.0684368 -0.0822335 0)
(0.0624191 -0.059926 0)
(0.0574288 -0.0409336 0)
(0.0536526 -0.0253591 0)
(0.0509925 -0.0127185 0)
(0.0491908 -0.00224194 0)
(0.0478508 0.00676333 0)
(0.0469739 0.0147994 0)
(0.04634 0.0223171 0)
(0.0459164 0.0296695 0)
(0.0457747 0.0371078 0)
(0.0460748 0.0448054 0)
(0.0472745 0.0529748 0)
(0.049281 0.0615718 0)
(0.0549641 0.0715159 0)
(0.06189 0.0738512 0)
(0.0488491 0.0503088 0)
(0.293974 0.0708788 0)
(-0.791961 0.298326 0)
(0.779366 0.395767 0)
(0.000679011 0.319515 0)
(0.0933488 0.218938 0)
(0.110556 0.155216 0)
(0.0771159 0.10689 0)
(0.0597416 0.0676308 0)
(0.0581548 0.0358527 0)
(0.0623075 0.00649676 0)
(0.0737163 -0.0233691 0)
(0.0852718 -0.0550014 0)
(0.0974515 -0.0897285 0)
(0.109305 -0.126232 0)
(0.118674 -0.159995 0)
(0.123783 -0.185694 0)
(0.124026 -0.199769 0)
(0.119824 -0.201382 0)
(0.112126 -0.191887 0)
(0.102006 -0.173819 0)
(0.0905062 -0.150193 0)
(0.0784693 -0.124033 0)
(0.0665833 -0.0978718 0)
(0.0555728 -0.0736322 0)
(0.046155 -0.0525827 0)
(0.038789 -0.0351829 0)
(0.0335692 -0.0212462 0)
(0.030266 -0.0100154 0)
(0.028432 -0.000589759 0)
(0.0276079 0.00765308 0)
(0.0275497 0.0151583 0)
(0.0279307 0.0223055 0)
(0.0286319 0.0293362 0)
(0.0296155 0.036389 0)
(0.0308922 0.0435353 0)
(0.0325923 0.0508598 0)
(0.0344033 0.0584319 0)
(0.036675 0.0673409 0)
(0.0283466 0.0740975 0)
(0.0175281 0.087328 0)
(0.126848 0.15936 0)
(-0.663543 0.29263 0)
(0.617302 0.220934 0)
(0.00455538 0.298154 0)
(0.113011 0.241564 0)
(0.148276 0.177582 0)
(0.130834 0.123554 0)
(0.117807 0.0778979 0)
(0.114935 0.0389659 0)
(0.117086 0.003475 0)
(0.12343 -0.0306459 0)
(0.131638 -0.0649529 0)
(0.141308 -0.100461 0)
(0.150174 -0.135335 0)
(0.155298 -0.165201 0)
(0.154751 -0.185735 0)
(0.148214 -0.194637 0)
(0.136583 -0.191927 0)
(0.121326 -0.179345 0)
(0.103949 -0.159447 0)
(0.0858273 -0.135128 0)
(0.0680707 -0.109165 0)
(0.0516252 -0.0840253 0)
(0.037351 -0.0615773 0)
(0.0259805 -0.0429351 0)
(0.0177728 -0.0281656 0)
(0.0125093 -0.0167134 0)
(0.00956835 -0.00746527 0)
(0.00822894 0.000522479 0)
(0.00817874 0.0077579 0)
(0.00886768 0.014604 0)
(0.0100635 0.0213172 0)
(0.011618 0.0280357 0)
(0.0134125 0.0348289 0)
(0.0153267 0.0417265 0)
(0.0173054 0.0487899 0)
(0.0192971 0.0563093 0)
(0.0209954 0.0665478 0)
(0.00432392 0.0857257 0)
(-0.00440871 0.119541 0)
(0.184013 0.174062 0)
(-0.567392 0.229599 0)
(0.570769 0.118595 0)
(-0.0203518 0.258666 0)
(0.113734 0.229901 0)
(0.165076 0.176085 0)
(0.166732 0.126235 0)
(0.164381 0.0811734 0)
(0.16535 0.0400634 0)
(0.168235 0.00172549 0)
(0.172181 -0.0353011 0)
(0.177738 -0.0718359 0)
(0.183892 -0.107514 0)
(0.187567 -0.139567 0)
(0.18575 -0.164125 0)
(0.177059 -0.178381 0)
(0.161941 -0.181544 0)
(0.141932 -0.174506 0)
(0.118978 -0.159298 0)
(0.0948413 -0.138343 0)
(0.0711253 -0.114343 0)
(0.0490685 -0.0897808 0)
(0.0298419 -0.0670224 0)
(0.0144139 -0.0477981 0)
(0.00336714 -0.0328891 0)
(-0.00374637 -0.0215089 0)
(-0.00763588 -0.012978 0)
(-0.00961397 -0.00573495 0)
(-0.0102744 0.000863909 0)
(-0.00984903 0.0071358 0)
(-0.00871336 0.0133185 0)
(-0.0070028 0.0195638 0)
(-0.00487258 0.0259746 0)
(-0.00251735 0.0326293 0)
(-0.00021098 0.0396014 0)
(0.00178488 0.0469659 0)
(0.00362015 0.0551102 0)
(0.0023028 0.0696626 0)
(-0.0212846 0.100653 0)
(-0.0202008 0.131394 0)
(0.156581 0.179645 0)
(-0.530756 0.20882 0)
(0.628363 0.0538259 0)
(0.00923429 0.197337 0)
(0.11387 0.196962 0)
(0.175182 0.157967 0)
(0.191425 0.117753 0)
(0.198065 0.0773648 0)
(0.203371 0.0373843 0)
(0.208548 -0.00139189 0)
(0.213027 -0.0395536 0)
(0.217321 -0.0764365 0)
(0.219124 -0.109864 0)
(0.215272 -0.136675 0)
(0.203874 -0.154271 0)
(0.185016 -0.161668 0)
(0.160312 -0.159432 0)
(0.131934 -0.148971 0)
(0.102147 -0.132365 0)
(0.0726809 -0.111691 0)
(0.0453397 -0.0894601 0)
(0.0213321 -0.0678422 0)
(0.00222453 -0.0491371 0)
(-0.0111682 -0.0348339 0)
(-0.0190555 -0.0249326 0)
(-0.0236326 -0.0172685 0)
(-0.0261278 -0.010791 0)
(-0.0273628 -0.00487219 0)
(-0.0276185 0.000729818 0)
(-0.0269981 0.00619564 0)
(-0.0256349 0.0117104 0)
(-0.023604 0.0174324 0)
(-0.0210689 0.0235227 0)
(-0.0183113 0.0301609 0)
(-0.0158363 0.0375802 0)
(-0.0143247 0.0461833 0)
(-0.014357 0.057627 0)
(-0.0218984 0.0805821 0)
(-0.0498512 0.11927 0)
(-0.0451159 0.149396 0)
(0.0199119 0.179503 0)
(-0.534879 0.178038 0)
(0.472952 0.0748336 0)
(-0.132097 0.137584 0)
(0.0943072 0.133298 0)
(0.172802 0.116834 0)
(0.2039 0.0954162 0)
(0.218162 0.0645014 0)
(0.228113 0.0285175 0)
(0.237153 -0.00882699 0)
(0.243518 -0.0451914 0)
(0.245018 -0.0781531 0)
(0.239025 -0.105029 0)
(0.224176 -0.123755 0)
(0.200981 -0.133481 0)
(0.171348 -0.134667 0)
(0.137868 -0.128587 0)
(0.10285 -0.116521 0)
(0.0686645 -0.100356 0)
(0.0365325 -0.0816933 0)
(0.00892831 -0.0630447 0)
(-0.0134329 -0.0462939 0)
(-0.0272777 -0.0348555 0)
(-0.0356553 -0.0266962 0)
(-0.0404173 -0.020323 0)
(-0.043193 -0.0146684 0)
(-0.0447746 -0.00940269 0)
(-0.0455335 -0.00439325 0)
(-0.0455302 0.000400546 0)
(-0.0447885 0.00509092 0)
(-0.0432569 0.00986731 0)
(-0.0409465 0.0149672 0)
(-0.0379996 0.0206732 0)
(-0.0347182 0.027336 0)
(-0.0317173 0.0354701 0)
(-0.0299501 0.0460828 0)
(-0.0295875 0.0619858 0)
(-0.0330802 0.090988 0)
(-0.0534452 0.137953 0)
(-0.0436374 0.179968 0)
(-0.0121626 0.171092 0)
(-0.56116 0.0690024 0)
(0.724194 0.134487 0)
(0.0818439 0.115272 0)
(0.149795 0.0992127 0)
(0.222453 0.0805039 0)
(0.244107 0.0700025 0)
(0.248883 0.0477993 0)
(0.255152 0.0177138 0)
(0.261256 -0.0145451 0)
(0.260284 -0.044585 0)
(0.249797 -0.0694369 0)
(0.229535 -0.0873728 0)
(0.201055 -0.0979212 0)
(0.166717 -0.101391 0)
(0.129068 -0.0988074 0)
(0.0906462 -0.0914765 0)
(0.0529307 -0.0800936 0)
(0.0187946 -0.0663715 0)
(-0.0121982 -0.0514566 0)
(-0.0337556 -0.0400247 0)
(-0.0478688 -0.0319775 0)
(-0.056097 -0.0264813 0)
(-0.0608894 -0.0219087 0)
(-0.0637228 -0.0175192 0)
(-0.0654575 -0.0130346 0)
(-0.0664673 -0.00855019 0)
(-0.0668838 -0.00421626 0)
(-0.066676 -0.000113847 0)
(-0.0658101 0.00382099 0)
(-0.0641787 0.00779133 0)
(-0.061676 0.0121278 0)
(-0.058366 0.017246 0)
(-0.0544239 0.0236748 0)
(-0.0502358 0.0321869 0)
(-0.0463586 0.0441214 0)
(-0.041861 0.0621281 0)
(-0.0337726 0.0915206 0)
(-0.0312406 0.138643 0)
(-0.0206742 0.197426 0)
(0.120164 0.188982 0)
(-0.449012 0.0417836 0)
(0.191842 0.0879791 0)
(0.225703 0.0997625 0)
(0.246494 0.0702319 0)
(0.242562 0.0400159 0)
(0.239749 0.0123868 0)
(0.234806 -0.0126368 0)
(0.220144 -0.0331424 0)
(0.196459 -0.0482861 0)
(0.166049 -0.0580337 0)
(0.131344 -0.0628562 0)
(0.0941274 -0.0630679 0)
(0.0563914 -0.0594633 0)
(0.0201839 -0.0530117 0)
(-0.0151415 -0.0439721 0)
(-0.0420346 -0.0358294 0)
(-0.0618757 -0.0296048 0)
(-0.0746475 -0.0259488 0)
(-0.0824382 -0.0235417 0)
(-0.0871338 -0.0213733 0)
(-0.0901635 -0.0186729 0)
(-0.0922211 -0.015364 0)
(-0.093621 -0.0116486 0)
(-0.0944924 -0.00781912 0)
(-0.094876 -0.00412035 0)
(-0.0947484 -0.000674743 0)
(-0.0940454 0.0025536 0)
(-0.0927097 0.00571732 0)
(-0.0905218 0.00917508 0)
(-0.0873588 0.0134268 0)
(-0.0830293 0.0190818 0)
(-0.0773181 0.0269272 0)
(-0.0699791 0.0381147 0)
(-0.0596704 0.0545187 0)
(-0.0424699 0.0790519 0)
(-0.0200282 0.115393 0)
(-0.00037236 0.169163 0)
(0.169288 0.167612 0)
(-0.371333 0.0983595 0)
(0.450923 0.209711 0)
(0.205909 0.178722 0)
(0.152441 0.118777 0)
(0.139497 0.0640736 0)
(0.128299 0.0259608 0)
(0.114347 0.00188572 0)
(0.0990747 -0.0128003 0)
(0.0779935 -0.0218127 0)
(0.0530964 -0.0272202 0)
(0.0255375 -0.029435 0)
(-0.00498669 -0.0283832 0)
(-0.0347042 -0.0252372 0)
(-0.0610069 -0.0216223 0)
(-0.0826549 -0.0189855 0)
(-0.0980895 -0.0184479 0)
(-0.108208 -0.0191475 0)
(-0.114504 -0.0201799 0)
(-0.118724 -0.020328 0)
(-0.121918 -0.0191635 0)
(-0.124561 -0.0167215 0)
(-0.126784 -0.0133108 0)
(-0.128583 -0.00934781 0)
(-0.129917 -0.00529017 0)
(-0.130754 -0.0015687 0)
(-0.131098 0.00151119 0)
(-0.130969 0.00386076 0)
(-0.130303 0.00585036 0)
(-0.128861 0.00789166 0)
(-0.126286 0.0104069 0)
(-0.122016 0.01386 0)
(-0.115343 0.018859 0)
(-0.105484 0.0262747 0)
(-0.0910409 0.037239 0)
(-0.0690239 0.0529676 0)
(-0.0372949 0.0750342 0)
(-0.000736822 0.111312 0)
(0.186496 0.130766 0)
(-0.360678 0.158641 0)
(0.358421 -0.416989 0)
(-0.346119 -0.512516 0)
(-0.218239 -0.0272541 0)
(-0.0934125 0.110975 0)
(-0.0538811 0.0925747 0)
(-0.0314393 0.0546013 0)
(-0.0265188 0.0284728 0)
(-0.0314313 0.0118105 0)
(-0.0402795 0.00114325 0)
(-0.0509585 -0.00566951 0)
(-0.0649039 -0.00962197 0)
(-0.0807691 -0.0115891 0)
(-0.0973753 -0.0129101 0)
(-0.113212 -0.0150705 0)
(-0.127042 -0.0182731 0)
(-0.137793 -0.0215411 0)
(-0.144686 -0.0245424 0)
(-0.148763 -0.0267287 0)
(-0.15161 -0.0280164 0)
(-0.154271 -0.028404 0)
(-0.157091 -0.0279822 0)
(-0.16006 -0.0268899 0)
(-0.163049 -0.0253005 0)
(-0.165915 -0.0233599 0)
(-0.168509 -0.021118 0)
(-0.170623 -0.0184999 0)
(-0.171998 -0.0153715 0)
(-0.172381 -0.0118032 0)
(-0.171907 -0.00840511 0)
(-0.170677 -0.00511328 0)
(-0.168512 -0.00175626 0)
(-0.164961 0.00187422 0)
(-0.15932 0.00617584 0)
(-0.15073 0.0118532 0)
(-0.137805 0.019573 0)
(-0.117365 0.0292879 0)
(-0.083731 0.0415189 0)
(-0.0312216 0.0644298 0)
(0.153031 0.113595 0)
(-0.499522 0.222228 0)
(0.122114 -0.186336 0)
(-0.388623 -0.298076 0)
(-0.343527 -0.0963686 0)
(-0.265212 0.0515366 0)
(-0.211509 0.0834016 0)
(-0.17937 0.0744526 0)
(-0.163082 0.0610474 0)
(-0.157049 0.0512395 0)
(-0.157058 0.0463081 0)
(-0.160273 0.0460102 0)
(-0.164806 0.0494611 0)
(-0.169116 0.0554119 0)
(-0.172347 0.0624735 0)
(-0.174314 0.0688299 0)
(-0.175443 0.0721013 0)
(-0.176389 0.0691691 0)
(-0.178007 0.0623742 0)
(-0.180625 0.0560709 0)
(-0.184239 0.051927 0)
(-0.188557 0.0500966 0)
(-0.19315 0.0502 0)
(-0.197565 0.0517341 0)
(-0.201421 0.0541344 0)
(-0.204476 0.0567394 0)
(-0.206638 0.0587768 0)
(-0.207929 0.0594496 0)
(-0.208351 0.0581716 0)
(-0.207747 0.0553776 0)
(-0.206194 0.0523314 0)
(-0.203823 0.0490917 0)
(-0.200572 0.0455724 0)
(-0.196065 0.0416798 0)
(-0.189647 0.0373334 0)
(-0.180805 0.0322732 0)
(-0.16937 0.0251688 0)
(-0.153564 0.0121236 0)
(-0.12481 -0.00923261 0)
(-0.0620855 -0.0202892 0)
(0.182118 0.0562904 0)
(-0.594753 0.246007 0)
(1.14915 -0.010966 0)
(-0.297773 -0.323211 0)
(-0.353425 -0.232619 0)
(-0.353182 -0.14832 0)
(-0.329538 -0.107144 0)
(-0.298058 -0.0986681 0)
(-0.270947 -0.10087 0)
(-0.251217 -0.106456 0)
(-0.237782 -0.113753 0)
(-0.22845 -0.122669 0)
(-0.221275 -0.13361 0)
(-0.215033 -0.14694 0)
(-0.209313 -0.162266 0)
(-0.204395 -0.177866 0)
(-0.201148 -0.190515 0)
(-0.200913 -0.196502 0)
(-0.204727 -0.196521 0)
(-0.212094 -0.19313 0)
(-0.22152 -0.187768 0)
(-0.231511 -0.181592 0)
(-0.240921 -0.175439 0)
(-0.248968 -0.169791 0)
(-0.255162 -0.164776 0)
(-0.259248 -0.160228 0)
(-0.261217 -0.155808 0)
(-0.261356 -0.151125 0)
(-0.260226 -0.14589 0)
(-0.258473 -0.14028 0)
(-0.256411 -0.134481 0)
(-0.254064 -0.128311 0)
(-0.251521 -0.121839 0)
(-0.248904 -0.115309 0)
(-0.246586 -0.108875 0)
(-0.24604 -0.102159 0)
(-0.250298 -0.0940956 0)
(-0.259429 -0.0825269 0)
(-0.260728 -0.0611523 0)
(-0.241071 -0.0144828 0)
(-0.257843 0.0708671 0)
(-0.679136 0.181255 0)
)
;

boundaryField
{
    floor
    {
        type            noSlip;
    }
    ceiling
    {
        type            noSlip;
    }
    sWall
    {
        type            noSlip;
    }
    nWall
    {
        type            noSlip;
    }
    sideWalls
    {
        type            empty;
    }
    glass1
    {
        type            noSlip;
    }
    glass2
    {
        type            noSlip;
    }
    sun
    {
        type            noSlip;
    }
    Table_master
    {
        type            noSlip;
    }
    Table_slave
    {
        type            noSlip;
    }
    inlet
    {
        type            fixedValue;
        value           uniform (0.5 0 0);
    }
    outlet
    {
        type            zeroGradient;
    }
}


// ************************************************************************* //
