/*--------------------------------*- C++ -*----------------------------------*\
  =========                 |
  \\      /  F ield         | OpenFOAM: The Open Source CFD Toolbox
   \\    /   O peration     | Website:  https://openfoam.org
    \\  /    A nd           | Version:  6
     \\/     M anipulation  |
\*---------------------------------------------------------------------------*/
FoamFile
{
    version     2.0;
    format      ascii;
    class       volScalarField;
    location    "830";
    object      alphat;
}
// * * * * * * * * * * * * * * * * * * * * * * * * * * * * * * * * * * * * * //

dimensions      [1 -1 -1 0 0 0 0];

internalField   nonuniform List<scalar> 
458
(
0.00124419
0.00135532
0.00138601
0.00145234
0.00151344
0.00157129
0.00162916
0.00168793
0.00173598
0.00176618
0.00176961
0.00173746
0.00165869
0.00149196
0.00113185
0.000559142
0.000655511
0.000743203
0.000774936
0.0007628
0.000713805
0.000659603
0.000611108
0.000569103
0.000532621
0.00050076
0.000472883
0.000448164
0.000425651
0.000404298
0.000382857
0.000370107
0.000340121
0.00167654
0.00377422
0.00348139
0.00398899
0.00449518
0.00501591
0.00548322
0.00584471
0.00621612
0.0065639
0.00684291
0.00701229
0.00702777
0.00678255
0.00551183
0.00149415
0.00123958
0.00101128
0.000554615
0.00131637
0.00191843
0.00238451
0.00253187
0.00184521
0.0015577
0.00136207
0.00121769
0.00110707
0.0010193
0.000943598
0.000872494
0.000801508
0.000738099
0.000684926
0.000837882
0.000447099
0.00203706
0.00507248
0.00418641
0.00510419
0.00549004
0.00576105
0.00596938
0.00616179
0.00642979
0.00675576
0.00711208
0.00746107
0.00773607
0.00783149
0.00737848
0.00601323
0.00455709
0.00119448
0.000854267
0.0014742
0.00214512
0.00281238
0.00300288
0.000959428
0.000839957
0.000740555
0.000660043
0.000595068
0.000542413
0.000499611
0.000464997
0.000438072
0.000485422
0.000562179
0.000983145
0.000528364
0.0023839
0.00647851
0.00407242
0.00528764
0.00549873
0.00547764
0.00545808
0.00555028
0.00576844
0.00609132
0.00650159
0.00695885
0.0073586
0.00760898
0.00755119
0.00716001
0.00614491
0.00337377
0.00137605
0.00175178
0.00240802
0.00321166
0.00390832
0.00394256
0.00108062
0.000990504
0.000929125
0.000883815
0.000845501
0.000807421
0.000771269
0.000733073
0.000688433
0.000648442
0.000639036
0.00117181
0.000608541
0.00273795
0.00836954
0.00427161
0.00501918
0.00532068
0.00514028
0.00499336
0.00507689
0.00530741
0.00564365
0.00608626
0.00658788
0.00697974
0.00717408
0.00716826
0.00703067
0.00662519
0.00547859
0.00496538
0.00500082
0.00529175
0.00563847
0.00585122
0.00575501
0.00490994
0.00447542
0.00423598
0.00406447
0.00389092
0.00366751
0.00328729
0.00279776
0.00224102
0.00170474
0.00127874
0.00119153
0.0010343
0.000813313
0.000860751
0.000935578
0.00311677
0.0104984
0.00584964
0.00464707
0.00506402
0.00505298
0.00486516
0.00493486
0.00517019
0.00550683
0.00595597
0.00643687
0.00679975
0.00691521
0.00680457
0.00664675
0.00657558
0.00648092
0.00667547
0.00701311
0.00724991
0.0072919
0.00713211
0.00679803
0.00633142
0.00595227
0.0056571
0.00539705
0.00514158
0.00487039
0.00452013
0.00403993
0.00343257
0.00274572
0.00211002
0.0015302
0.00125771
0.00109699
0.00138126
0.000970511
0.0034894
0.0121027
0.00872541
0.00571136
0.00496975
0.00504042
0.0051036
0.00514041
0.00527422
0.00557144
0.00601351
0.00649009
0.00682269
0.00685916
0.00664974
0.0064982
0.00674706
0.00729951
0.00786186
0.00817895
0.00817936
0.00790709
0.00744619
0.00688519
0.00632619
0.00587626
0.00553555
0.00525921
0.00501739
0.00480021
0.00460273
0.00434455
0.00392008
0.00335287
0.00276372
0.00219773
0.00182829
0.00167483
0.00159637
0.00115313
0.00357901
0.0112149
0.00952727
0.00799894
0.0068295
0.00631143
0.00582417
0.00549427
0.00549035
0.00577437
0.00623157
0.00670208
0.00698158
0.0069167
0.00666024
0.0067238
0.00743543
0.00801939
0.00832341
0.00830916
0.00797898
0.00740805
0.00670573
0.0059972
0.00540818
0.00499524
0.00471669
0.00451661
0.0043684
0.00426853
0.00422419
0.00422626
0.00411324
0.00377613
0.00344765
0.00326452
0.0033441
0.00353015
0.00419331
0.00178526
0.00350484
0.00423036
0.00467525
0.0049247
0.00496191
0.00488868
0.00489242
0.00510089
0.00552082
0.00605466
0.0065998
0.00702832
0.00716494
0.00691791
0.00684822
0.00720909
0.00762615
0.00776878
0.0076648
0.0073022
0.00669456
0.00594411
0.00519481
0.00457965
0.00415381
0.00388255
0.0037006
0.00356229
0.00344433
0.00333361
0.00322013
0.00309557
0.00298261
0.00288483
0.00281997
0.00278334
0.00271382
0.00257092
0.00239735
0.00166671
0.0015795
0.00276008
0.00377624
0.0045723
0.00530156
0.00601078
0.00657231
0.00694842
0.00719237
0.00722471
0.00698653
0.00669801
0.00669951
0.00681922
0.00672717
0.00645622
0.00602911
0.0054542
0.00479296
0.00414675
0.00363215
0.00328551
0.00307287
0.00294236
0.00285571
0.00279251
0.00274403
0.00270829
0.00268823
0.00269448
0.00271021
0.00272424
0.00272495
0.0026818
0.00254879
0.00231449
0.00202426
0.00134112
0.00238082
0.0046543
0.00595256
0.00679319
0.00744642
0.00749606
0.00710454
0.00671153
0.00637325
0.0057347
0.00528182
0.00517704
0.00510594
0.00490604
0.00460482
0.00423142
0.00379374
0.00333319
0.00291792
0.00259496
0.00237212
0.00224358
0.00218331
0.00217027
0.00219147
0.00223863
0.00230466
0.00238104
0.00247043
0.00257305
0.00268289
0.00279074
0.00287851
0.00292232
0.00288142
0.00284573
0.00261999
0.00135861
0.0024916
0.00255349
0.00260942
0.00289318
0.00272884
0.00241394
0.00203336
0.00172852
0.00154201
0.00136518
0.00120964
0.00108794
0.000984896
0.00090683
0.000852585
0.000812959
0.000781092
0.000753681
0.000731056
0.000715789
0.00071009
0.000714358
0.000727048
0.000745703
0.000769273
0.000797202
0.000829333
0.000865853
0.000907372
0.000955176
0.00100958
0.00107016
0.00113724
0.00121112
0.00129185
0.00138859
0.00143089
0.00140155
0.00130361
0.00120552
)
;

boundaryField
{
    floor
    {
        type            compressible::alphatWallFunction;
        Prt             0.85;
        value           nonuniform List<scalar> 
36
(
0.000160692
7.82065e-05
9.26123e-05
0.000105497
0.000110114
0.000108352
0.0001012
9.32189e-05
8.60101e-05
7.97093e-05
7.41902e-05
6.93316e-05
6.50488e-05
6.12244e-05
5.77181e-05
5.43704e-05
5.09861e-05
4.89623e-05
4.41662e-05
4.41656e-05
6.10598e-05
7.35443e-05
8.56284e-05
0.000115677
0.000122503
0.000133175
0.000160691
0.000210165
0.000175568
0.000143849
7.82055e-05
0.000143848
7.7522e-05
0.000169358
0.000121558
0.000194206
)
;
    }
    ceiling
    {
        type            compressible::alphatWallFunction;
        Prt             0.85;
        value           nonuniform List<scalar> 
43
(
0.000340274
0.000348136
0.000355226
0.000391029
0.000370422
0.000330516
0.000281519
0.000241552
0.000216722
0.000192865
0.000171588
0.000154723
0.000140271
0.000129205
0.000121449
0.000115747
0.000111137
0.000107154
0.000103853
0.000101619
0.000100784
0.00010141
0.000103268
0.000105992
0.000109423
0.000113471
0.000118108
0.000123353
0.000129284
0.000136073
0.000143752
0.000152246
0.000161586
0.0001718
0.000182882
0.000196057
0.000201786
0.000197816
0.000184491
0.000171034
0.000467128
0.000555331
0.00032605
)
;
    }
    sWall
    {
        type            compressible::alphatWallFunction;
        Prt             0.85;
        value           uniform 0.000339031;
    }
    nWall
    {
        type            compressible::alphatWallFunction;
        Prt             0.85;
        value           nonuniform List<scalar> 6(0.000132956 0.000137897 0.000163431 0.000189265 0.000191643 0.000170693);
    }
    sideWalls
    {
        type            empty;
    }
    glass1
    {
        type            compressible::alphatWallFunction;
        Prt             0.85;
        value           nonuniform List<scalar> 9(0.000171669 0.000229178 0.000276006 0.000320303 0.000364887 0.000411969 0.000457745 0.000468814 0.000460005);
    }
    glass2
    {
        type            compressible::alphatWallFunction;
        Prt             0.85;
        value           nonuniform List<scalar> 2(0.000247087 0.000231544);
    }
    sun
    {
        type            compressible::alphatWallFunction;
        Prt             0.85;
        value           nonuniform List<scalar> 
14
(
0.000176219
0.00019139
0.000195558
0.000204532
0.000212757
0.000220512
0.000228238
0.000236052
0.00024242
0.000246412
0.000246863
0.000242615
0.000232167
0.000209869
)
;
    }
    Table_master
    {
        type            compressible::alphatWallFunction;
        Prt             0.85;
        value           nonuniform List<scalar> 9(0.000136689 0.00011965 0.000105254 9.34226e-05 8.37462e-05 7.58086e-05 6.92857e-05 6.3959e-05 5.97808e-05);
    }
    Table_slave
    {
        type            compressible::alphatWallFunction;
        Prt             0.85;
        value           nonuniform List<scalar> 9(0.000153723 0.000141082 0.000132395 0.000125939 0.00012045 0.000114964 0.000109728 0.000104164 9.76159e-05);
    }
    inlet
    {
        type            fixedValue;
        value           uniform 1.94e-05;
    }
    outlet
    {
        type            zeroGradient;
    }
}


// ************************************************************************* //
