/*--------------------------------*- C++ -*----------------------------------*\
  =========                 |
  \\      /  F ield         | OpenFOAM: The Open Source CFD Toolbox
   \\    /   O peration     | Website:  https://openfoam.org
    \\  /    A nd           | Version:  6
     \\/     M anipulation  |
\*---------------------------------------------------------------------------*/
FoamFile
{
    version     2.0;
    format      ascii;
    class       volScalarField;
    location    "23100";
    object      epsilon;
}
// * * * * * * * * * * * * * * * * * * * * * * * * * * * * * * * * * * * * * //

dimensions      [0 2 -3 0 0 0 0];

internalField   nonuniform List<scalar> 
778
(
0.000253121
0.000306337
0.000302975
0.00034414
0.000385003
0.000424819
0.00046428
0.000504578
0.000547447
0.000595606
0.000644109
0.00069256
0.000742602
0.000799027
0.000860855
8.94863e-05
0.000262693
0.000269185
0.000250167
0.000220337
0.000184275
0.000152464
0.000126606
0.000105965
8.94897e-05
7.63351e-05
6.5679e-05
5.68791e-05
4.94083e-05
4.27946e-05
3.65393e-05
3.18307e-05
2.36069e-05
0.000797008
0.00144321
0.000286976
0.000259576
0.000261679
0.000267659
0.000276565
0.000290009
0.000310284
0.000340518
0.000379781
0.000430965
0.000499439
0.000600755
0.000786039
0.0011299
0.000979229
0.000858772
0.00051175
0.000369457
0.000294266
0.000242987
0.000204187
0.000187061
0.000154828
0.00012509
0.00010075
8.15204e-05
6.65467e-05
5.48369e-05
4.56438e-05
3.87196e-05
3.45297e-05
3.27743e-05
6.57792e-05
4.80936e-05
0.00163067
0.00407911
0.000407383
0.000242917
0.000229098
0.000231018
0.000238244
0.000250525
0.000268447
0.000292743
0.000324903
0.000367012
0.00042145
0.000495217
0.000601663
0.000724985
0.0008302
0.00158458
0.00102783
0.000512306
0.000367738
0.000294353
0.000262204
0.000551717
0.00036284
0.000250923
0.000181469
0.000136386
0.000105981
8.48203e-05
6.98494e-05
5.94851e-05
4.51508e-05
3.79951e-05
0.000108084
7.07876e-05
0.00285362
0.0087704
0.000709871
0.000240715
0.000202473
0.000200017
0.000203199
0.000209837
0.000220667
0.000237602
0.000263316
0.000300095
0.000349348
0.000412518
0.000488219
0.000560407
0.000612617
0.000824722
0.00156527
0.000728806
0.000459725
0.000358265
0.000301903
0.000291826
0.000814202
0.000612781
0.000482017
0.000388624
0.000319244
0.000264431
0.000218854
0.000179094
0.000141913
8.38493e-05
5.49313e-05
0.000148353
9.44808e-05
0.00454617
0.0158271
0.00134632
0.000258334
0.000175725
0.00016679
0.000165809
0.000167796
0.000173968
0.000187484
0.000211744
0.00024845
0.000297899
0.000359473
0.000427954
0.000489323
0.00052872
0.000582655
0.000627794
0.000483307
0.00039354
0.00033105
0.000282304
0.000248633
0.000247849
0.000226797
0.000202965
0.000181099
0.000162726
0.000146566
0.000131892
0.000118287
0.00010511
8.45187e-05
6.42594e-05
0.000105085
0.000138761
0.000159928
0.000360796
0.00031942
0.00676382
0.0248774
0.0025533
0.00031806
0.000155528
0.000137062
0.000132133
0.00013071
0.000134483
0.000148573
0.000176726
0.000218106
0.000270852
0.000334188
0.000401825
0.000462717
0.000503132
0.000521866
0.000505005
0.00043841
0.00037392
0.000315704
0.000264774
0.000223411
0.000193311
0.000169647
0.000150829
0.000135643
0.000123314
0.000112769
0.000103311
9.45345e-05
8.60664e-05
7.58914e-05
6.54025e-05
7.75837e-05
9.96775e-05
0.000208628
0.00106141
0.000548683
0.00967221
0.0336357
0.00458323
0.000464969
0.000150836
0.00011634
0.000107095
0.000103299
0.000107099
0.000127919
0.000166111
0.000215853
0.000273271
0.000340017
0.000409324
0.000470481
0.000510253
0.000520588
0.000494487
0.000437777
0.000371943
0.00030754
0.000250584
0.000204462
0.000169764
0.000144564
0.000126328
0.000112739
0.00010229
9.37305e-05
8.6242e-05
7.93529e-05
7.27789e-05
6.61044e-05
6.0372e-05
6.38179e-05
7.66779e-05
0.000172005
0.00157773
0.000893721
0.0127589
0.0404049
0.00748902
0.000871248
0.000194294
0.000115396
9.74097e-05
9.14934e-05
9.86998e-05
0.000137749
0.000189281
0.000246197
0.000306945
0.000373709
0.000444675
0.000508003
0.000547415
0.000551046
0.000515852
0.000451687
0.000375589
0.000300986
0.00023648
0.000185957
0.000149306
0.000123968
0.000106694
9.45552e-05
8.57357e-05
7.88228e-05
7.29296e-05
6.7564e-05
6.24837e-05
5.76604e-05
5.40348e-05
5.59702e-05
6.99129e-05
0.000338935
0.00545505
0.0019722
0.0138278
0.0414604
0.01393
0.00316244
0.000629852
0.000208084
0.000132781
0.000116107
0.000142628
0.000193085
0.000249372
0.000306396
0.000367224
0.000436432
0.000510841
0.000575541
0.000610832
0.000603211
0.000552272
0.000471057
0.000378503
0.000290857
0.000218174
0.000163949
0.000126724
0.000102565
8.72469e-05
7.73079e-05
7.06439e-05
6.56705e-05
6.14925e-05
5.76666e-05
5.4021e-05
5.06675e-05
4.85811e-05
5.28188e-05
9.50259e-05
0.000948037
0.0133316
0.0029307
0.0130051
0.0283727
0.0144146
0.0057254
0.00210406
0.000834928
0.000414151
0.000277322
0.000279495
0.000315005
0.000356348
0.000401787
0.000458454
0.000530566
0.000609532
0.000673554
0.00069843
0.000670581
0.000593897
0.000486749
0.000372573
0.000270516
0.000190952
0.000135611
0.000100584
7.98133e-05
6.79104e-05
6.11324e-05
5.70582e-05
5.41254e-05
5.15867e-05
4.91385e-05
4.67334e-05
4.4669e-05
4.45807e-05
5.74847e-05
0.000204758
0.00246531
0.0113934
0.00309806
0.0106902
0.0193582
0.0120385
0.00629987
0.00317454
0.00167517
0.000987385
0.000679766
0.000560781
0.000517973
0.000510842
0.000531598
0.000583486
0.000662175
0.000746637
0.000804282
0.000806834
0.000744036
0.000628172
0.000486094
0.000347334
0.000233195
0.000152172
0.000101595
7.34702e-05
5.87501e-05
5.13043e-05
4.78668e-05
4.60627e-05
4.47414e-05
4.34253e-05
4.19662e-05
4.04586e-05
3.95741e-05
4.31687e-05
8.42951e-05
0.00053991
0.00281599
0.00856233
0.00299749
0.00807224
0.0137693
0.00969143
0.00593301
0.00356969
0.0022277
0.00149118
0.00109354
0.000869921
0.00074416
0.000686341
0.000690217
0.00075006
0.000843627
0.000930752
0.000967149
0.000925474
0.000805789
0.000635296
0.000452223
0.000292524
0.000176805
0.000106645
6.9316e-05
5.2429e-05
4.4311e-05
4.04669e-05
3.90416e-05
3.84477e-05
3.79953e-05
3.73927e-05
3.65714e-05
3.57408e-05
3.62218e-05
4.8367e-05
0.000174884
0.000877987
0.00281449
0.00633338
0.00271321
0.00612247
0.0101636
0.00778831
0.00531147
0.00356985
0.0024691
0.00178811
0.00136851
0.00109333
0.000926527
0.000859582
0.000886402
0.000981441
0.00109506
0.0011668
0.00114829
0.00102666
0.000822891
0.000587199
0.00036872
0.000207482
0.000114138
7.1935e-05
5.22724e-05
4.2899e-05
3.81023e-05
3.56778e-05
3.47752e-05
3.44616e-05
3.43037e-05
3.41296e-05
3.39566e-05
3.41681e-05
3.70457e-05
5.89808e-05
0.000215582
0.000907098
0.00261548
0.00553975
0.00251107
0.00617921
0.00780509
0.00679953
0.00473712
0.00336427
0.00246159
0.00186536
0.00146215
0.00119474
0.00106501
0.00107037
0.00117886
0.00132593
0.00143271
0.00143371
0.00129847
0.00105241
0.000744721
0.000457678
0.00023849
0.00013082
8.17591e-05
6.02162e-05
4.96369e-05
4.35449e-05
3.956e-05
3.69487e-05
3.56e-05
3.50644e-05
3.50555e-05
3.55675e-05
3.68103e-05
3.93857e-05
4.5855e-05
7.04358e-05
0.000191889
0.000703336
0.00207467
0.0049922
0.00288246
0.00454414
0.0051106
0.00418327
0.00336073
0.00263896
0.00206951
0.00164856
0.00136174
0.00124544
0.00130112
0.00147707
0.0016823
0.00181651
0.00180737
0.00163085
0.00130204
0.00091383
0.000522481
0.0002799
0.000155322
0.000102239
7.98861e-05
6.8951e-05
6.19073e-05
5.62375e-05
5.12713e-05
4.71809e-05
4.46153e-05
4.37958e-05
4.46303e-05
4.75816e-05
5.34908e-05
6.35179e-05
8.0185e-05
0.000113721
0.00021021
0.000565402
0.00188632
0.0038399
0.00318472
0.00140153
0.00143157
0.00143349
0.00135396
0.00131149
0.0014245
0.00170964
0.00204297
0.00230105
0.00239388
0.00227611
0.00196581
0.00152578
0.00098352
0.000572394
0.000314377
0.000188525
0.000136562
0.000116201
0.000106578
0.000100089
9.41376e-05
8.78551e-05
8.11938e-05
7.49224e-05
7.07562e-05
7.0417e-05
7.46031e-05
8.50774e-05
0.000104273
0.00013469
0.000179557
0.000248385
0.000375712
0.000686991
0.00205081
0.003364
0.00330748
0.00118747
0.00171692
0.00195372
0.00231032
0.00275947
0.00316329
0.00334042
0.00330127
0.00307139
0.0026757
0.00210918
0.00149425
0.000965978
0.000570006
0.000341714
0.00023527
0.000194034
0.000178556
0.0001714
0.00016658
0.000162195
0.000157368
0.000151522
0.000144576
0.000137547
0.000133133
0.000135015
0.000145439
0.000168316
0.000208932
0.000273438
0.000369607
0.00051204
0.000737484
0.0011465
0.00218899
0.00417686
0.00314511
0.00742134
0.00806645
0.00480571
0.0034034
0.00374013
0.00415372
0.00416768
0.00395578
0.00359572
0.00313654
0.00262543
0.00208172
0.00153464
0.00105345
0.000697059
0.000479095
0.000373387
0.00032943
0.000310226
0.000299365
0.000291934
0.000286864
0.000283762
0.000281809
0.000279703
0.000276313
0.000271996
0.000270206
0.000275757
0.000292027
0.000324042
0.000379248
0.000468066
0.000605414
0.000815002
0.00113963
0.00166258
0.0025288
0.00387147
0.00280379
0.00650524
0.00513151
0.00437322
0.00462647
0.0045465
0.00427809
0.0036963
0.00304875
0.00246193
0.00196753
0.00156197
0.00123555
0.000982163
0.000799899
0.00068348
0.000615796
0.000571941
0.000541064
0.000518017
0.000501511
0.000492291
0.00049153
0.00049976
0.000516298
0.000539147
0.000565354
0.000591757
0.00061577
0.000638688
0.000667733
0.000711041
0.000777025
0.000875747
0.00102165
0.00123855
0.00156627
0.00206858
0.00287706
0.00380303
0.00297703
0.00535831
0.0033688
0.00331787
0.00361393
0.00387096
0.00352969
0.00292527
0.00231058
0.00178759
0.00137273
0.00105323
0.000814146
0.00064416
0.000533375
0.000469544
0.000438423
0.000430126
0.000431351
0.000439527
0.000455194
0.000479544
0.000513127
0.000555224
0.000603915
0.000656698
0.000711354
0.000766789
0.000823775
0.000883765
0.000948802
0.0010244
0.00111656
0.00123093
0.00137227
0.00154276
0.00173813
0.00194981
0.00220948
0.00266094
0.00271115
)
;

boundaryField
{
    floor
    {
        Cmu             0.09;
        kappa           0.41;
        E               9.8;
        type            epsilonWallFunction;
        value           nonuniform List<scalar> 
36
(
0.000860855
8.94863e-05
0.000262693
0.000269185
0.000250167
0.000220337
0.000184275
0.000152464
0.000126606
0.000105965
8.94897e-05
7.63351e-05
6.5679e-05
5.68791e-05
4.94083e-05
4.27946e-05
3.65393e-05
3.18307e-05
2.36069e-05
2.36069e-05
4.80936e-05
7.07876e-05
9.44808e-05
0.000159928
0.000360796
0.00031942
0.000860855
0.0011299
0.000979229
0.000858772
8.94863e-05
0.000858772
0.00051175
0.00158458
0.00102783
0.00156527
)
;
    }
    ceiling
    {
        Cmu             0.09;
        kappa           0.41;
        E               9.8;
        type            epsilonWallFunction;
        value           nonuniform List<scalar> 
43
(
0.00535831
0.0033688
0.00331787
0.00361393
0.00387096
0.00352969
0.00292527
0.00231058
0.00178759
0.00137273
0.00105323
0.000814146
0.00064416
0.000533375
0.000469544
0.000438423
0.000430126
0.000431351
0.000439527
0.000455194
0.000479544
0.000513127
0.000555224
0.000603915
0.000656698
0.000711354
0.000766789
0.000823775
0.000883765
0.000948802
0.0010244
0.00111656
0.00123093
0.00137227
0.00154276
0.00173813
0.00194981
0.00220948
0.00266094
0.00271115
0.00454414
0.0051106
0.00118747
)
;
    }
    sWall
    {
        Cmu             0.09;
        kappa           0.41;
        E               9.8;
        type            epsilonWallFunction;
        value           nonuniform List<scalar> 9(0.0130051 0.0106902 0.00807224 0.00612247 0.00617921 0.00454414 0.00742134 0.00650524 0.00535831);
    }
    nWall
    {
        Cmu             0.09;
        kappa           0.41;
        E               9.8;
        type            epsilonWallFunction;
        value           nonuniform List<scalar> 
14
(
0.00031942
0.000548683
0.000893721
0.00309806
0.00299749
0.00271321
0.00251107
0.00288246
0.00318472
0.00330748
0.00314511
0.00280379
0.00297703
0.00271115
)
;
    }
    sideWalls
    {
        type            empty;
    }
    glass1
    {
        Cmu             0.09;
        kappa           0.41;
        E               9.8;
        type            epsilonWallFunction;
        value           nonuniform List<scalar> 9(0.000253121 0.000797008 0.00163067 0.00285362 0.00454617 0.00676382 0.00967221 0.0127589 0.0138278);
    }
    glass2
    {
        Cmu             0.09;
        kappa           0.41;
        E               9.8;
        type            epsilonWallFunction;
        value           nonuniform List<scalar> 2(0.0019722 0.0029307);
    }
    sun
    {
        Cmu             0.09;
        kappa           0.41;
        E               9.8;
        type            epsilonWallFunction;
        value           nonuniform List<scalar> 
14
(
0.000253121
0.000306337
0.000302975
0.00034414
0.000385003
0.000424819
0.00046428
0.000504578
0.000547447
0.000595606
0.000644109
0.00069256
0.000742602
0.000799027
)
;
    }
    Table_master
    {
        Cmu             0.09;
        kappa           0.41;
        E               9.8;
        type            epsilonWallFunction;
        value           nonuniform List<scalar> 9(0.000551717 0.00036284 0.000250923 0.000181469 0.000136386 0.000105981 8.48203e-05 6.98494e-05 5.94851e-05);
    }
    Table_slave
    {
        Cmu             0.09;
        kappa           0.41;
        E               9.8;
        type            epsilonWallFunction;
        value           nonuniform List<scalar> 9(0.000814202 0.000612781 0.000482017 0.000388624 0.000319244 0.000264431 0.000218854 0.000179094 0.000141913);
    }
    inlet
    {
        type            turbulentMixingLengthDissipationRateInlet;
        mixingLength    0.01;
        phi             phi;
        k               k;
        value           uniform 0.000471671;
    }
    outlet
    {
        type            zeroGradient;
    }
}


// ************************************************************************* //
