/*--------------------------------*- C++ -*----------------------------------*\
  =========                 |
  \\      /  F ield         | OpenFOAM: The Open Source CFD Toolbox
   \\    /   O peration     | Website:  https://openfoam.org
    \\  /    A nd           | Version:  6
     \\/     M anipulation  |
\*---------------------------------------------------------------------------*/
FoamFile
{
    version     2.0;
    format      ascii;
    class       volScalarField;
    location    "7500";
    object      alphat;
}
// * * * * * * * * * * * * * * * * * * * * * * * * * * * * * * * * * * * * * //

dimensions      [1 -1 -1 0 0 0 0];

internalField   nonuniform List<scalar> 
662
(
0.00115647
0.00125031
0.00127175
0.00133169
0.00138758
0.00144051
0.00149292
0.00154782
0.00160346
0.00165532
0.00169672
0.00171331
0.00168224
0.00157506
0.00128342
0.000573261
0.0006736
0.000762407
0.000789755
0.000773798
0.000722444
0.000666597
0.000616795
0.000573728
0.00053637
0.000503791
0.000475328
0.000450124
0.000427214
0.000405548
0.000383927
0.000372262
0.000343033
0.00158057
0.00332018
0.00296707
0.00339865
0.00380618
0.00423069
0.00464339
0.00499319
0.00533258
0.00574208
0.00620544
0.00665837
0.00697674
0.00698327
0.00606932
0.00154349
0.00127011
0.00103373
0.000571967
0.00135082
0.00196561
0.00244105
0.00258675
0.00188769
0.00159223
0.00139137
0.00124317
0.00112978
0.00103989
0.000962484
0.000889972
0.000817761
0.00075308
0.000697317
0.000853338
0.000456717
0.00196248
0.00461644
0.0034027
0.00434704
0.00473691
0.00498336
0.00512333
0.0052082
0.00534221
0.00562514
0.00609379
0.00674686
0.0074394
0.00790665
0.00772848
0.00637903
0.00496838
0.00123606
0.000903725
0.00154044
0.00222247
0.00289988
0.00308578
0.000978028
0.000853956
0.00075147
0.000668818
0.000602309
0.000548533
0.000504882
0.000469585
0.000442052
0.000488916
0.000565345
0.000999083
0.000542235
0.00235306
0.00634591
0.00339309
0.00448629
0.00491836
0.00493653
0.00475721
0.0045573
0.00450069
0.00466048
0.00510793
0.00591342
0.0068543
0.0075672
0.00780834
0.00757273
0.00662008
0.00364939
0.0014387
0.00183985
0.00252726
0.00335901
0.00407368
0.00408595
0.00110056
0.00100343
0.000936929
0.000887846
0.000846739
0.000806618
0.00076867
0.000728858
0.000682726
0.000643766
0.00063925
0.00119985
0.000623621
0.00274262
0.00829304
0.00436611
0.00408716
0.00475747
0.00485051
0.00457285
0.00416327
0.00396672
0.00404033
0.00446085
0.00537648
0.00640542
0.00707049
0.0073747
0.00740893
0.00708625
0.00589763
0.00538554
0.00539035
0.00566864
0.00599647
0.00618043
0.00603358
0.00507753
0.00458927
0.00431583
0.00411866
0.00392418
0.00368218
0.00328773
0.00278837
0.00222667
0.00169057
0.00126781
0.00118592
0.00105895
0.000838003
0.000880053
0.000954602
0.00318268
0.0100384
0.00652695
0.00428722
0.00411304
0.00431618
0.00438264
0.00407793
0.00385148
0.00386991
0.00428286
0.0051899
0.00626595
0.00685112
0.00704833
0.00705706
0.00706782
0.00702573
0.00726919
0.00758831
0.00777843
0.00776194
0.0075425
0.00714367
0.0065937
0.00613839
0.00577788
0.0054625
0.00516124
0.00485475
0.00448633
0.00399905
0.00339503
0.0027183
0.00209598
0.00150144
0.00125859
0.00111969
0.00140717
0.000990786
0.00148964
0.00470062
0.00610815
0.00529673
0.00445303
0.00410885
0.0040801
0.00406737
0.00391059
0.00381905
0.00411483
0.00501228
0.00649878
0.00692728
0.00701316
0.00703333
0.00737297
0.00798027
0.00852576
0.0087845
0.00871665
0.00837492
0.0078449
0.00720995
0.00656635
0.00603078
0.00561209
0.00526924
0.00497393
0.00471719
0.00449609
0.0042507
0.00384871
0.00330439
0.00274434
0.0021953
0.00184315
0.00168948
0.00158467
0.00116833
0.00116615
0.00237119
0.00341279
0.00413196
0.00444689
0.00439496
0.00421913
0.00403092
0.00380572
0.00380366
0.00441846
0.00556994
0.00692588
0.00717042
0.0071969
0.007434
0.00812482
0.00866283
0.00891236
0.00883533
0.00844075
0.00780237
0.00702806
0.00624098
0.0055683
0.00507441
0.00472517
0.00446837
0.00427863
0.00415149
0.00409178
0.00409294
0.00404371
0.00373412
0.00343788
0.00327703
0.00334006
0.00344278
0.00418754
0.00177551
0.000317674
0.00151801
0.00243447
0.00301477
0.00327755
0.00334404
0.0034854
0.00413309
0.0053564
0.00653591
0.00730487
0.0073563
0.00758083
0.00788948
0.00818399
0.00826853
0.00812603
0.00771818
0.00706201
0.00625814
0.00544982
0.00476845
0.00427344
0.00393759
0.00370095
0.00352059
0.0033745
0.00325035
0.00313853
0.00303026
0.00293555
0.00285722
0.00280603
0.00277856
0.00271965
0.00259188
0.0024187
0.00166297
0.00073726
0.000775024
0.00142685
0.00214673
0.00276139
0.00341757
0.00443283
0.00575382
0.00678677
0.00715256
0.00715976
0.00728976
0.00734471
0.00727393
0.0070693
0.00678328
0.00638302
0.00583894
0.00519005
0.00454136
0.00399929
0.00360234
0.00332979
0.00314056
0.00300189
0.00289599
0.00281545
0.00275895
0.0027295
0.00273258
0.00275598
0.00278824
0.0028219
0.00283735
0.00280783
0.00272473
0.00243333
0.00137554
0.00125312
0.00332905
0.00172365
0.00152059
0.00229828
0.00330107
0.00437762
0.00554346
0.00650488
0.00690198
0.00671146
0.00605857
0.00548134
0.00557508
0.00543181
0.00520497
0.00496683
0.00469494
0.00436114
0.00398084
0.00359857
0.00325767
0.00298912
0.00279239
0.00265488
0.00256477
0.0025145
0.00249878
0.00251176
0.00254488
0.00260108
0.00268209
0.00278079
0.00288809
0.00298902
0.00306503
0.00312443
0.00323818
0.00219202
0.00142536
0.000964905
0.00231209
0.00315438
0.00380966
0.00433184
0.00476314
0.00504002
0.00508703
0.00484192
0.00429792
0.00335634
0.00200215
0.000995014
0.000968961
0.000944147
0.000920376
0.00089749
0.000873807
0.000849841
0.000828331
0.000812708
0.000805006
0.000804632
0.000811063
0.000823648
0.000841948
0.0008658
0.000895343
0.000931124
0.000974382
0.00102524
0.0010833
0.00114874
0.00122151
0.00130096
0.00138698
0.00143548
0.00130362
0.0012195
0.00138214
0.00249705
0.00639785
0.00599869
0.00485243
0.004232
0.00407514
0.00410302
0.00399558
0.00384476
0.00389753
0.00450014
0.00558778
0.00184359
0.00298503
0.00380535
0.00434934
0.00445074
0.00431002
0.00413089
0.00391353
0.00374981
0.00402028
0.00496197
0.00614128
0.000990557
0.0020139
0.0027685
0.00318001
0.00332453
0.00338073
0.00372263
0.00470205
0.00599579
0.00692575
0.000594179
0.00106968
0.00179678
0.00246518
0.00306387
0.00386499
0.00508923
0.00634326
0.00704717
0.00719175
0.00353642
0.00280586
0.00133104
0.00188009
0.00277701
0.00382392
0.00495918
0.00608019
0.00677108
0.00688575
0.00639415
0.00586507
0.00244064
0.00272056
0.0035577
0.00407854
0.00456226
0.00492469
0.00509771
0.00500174
0.0046093
0.00388892
0.00270172
0.00143909
0.00155876
0.00313227
0.00466261
0.00509551
0.00484152
0.0044494
0.00421116
0.00408458
0.00389647
0.00380886
0.0042128
0.00522772
0.00123137
0.00136107
0.00184032
0.00270605
0.00342622
0.00377008
0.00382475
0.00373757
0.00362564
0.00386518
0.0047825
0.00602293
0.000553222
0.000882036
0.00171895
0.00241359
0.00285114
0.00314234
0.00366334
0.00477467
0.00610059
0.00697619
0.000584882
0.000920724
0.0015736
0.002375
0.00325879
0.00436956
0.00563663
0.00663567
0.00707127
0.00687782
0.00126464
0.00314347
0.00271398
0.00280435
0.00359715
0.00448252
0.0053302
0.00604329
0.0064003
0.00624417
0.00555673
0.00461742
0.0011563
0.00105499
0.00111812
0.00116018
0.00114952
0.00109118
0.000994329
0.000868164
0.00073477
0.000612219
0.000505232
0.000464862
0.00215597
0.00415922
0.00501489
0.00502224
0.00463534
0.00430513
0.00415157
0.00399552
0.00381832
0.00392702
0.00466514
0.00581287
0.00126076
0.00138294
0.00226789
0.00310933
0.00364354
0.00382367
0.00379069
0.00366802
0.00367055
0.00424302
0.00540832
0.00653166
0.000534142
0.00129937
0.00209766
0.00266191
0.00300048
0.00333719
0.00415086
0.00545793
0.00661806
0.0071838
0.000656064
0.00121992
0.00196374
0.00280153
0.00377486
0.00502231
0.00618723
0.00694197
0.00702188
0.00681524
0.00343993
0.00308621
0.00261521
0.00317932
0.00403636
0.00491321
0.00571602
0.00628031
0.00638722
0.00596618
0.00506322
0.0044706
0.00102797
0.00109077
0.00114172
0.00116207
0.00112545
0.00104724
0.000933814
0.000800721
0.00067205
0.000555199
0.000472134
0.000476183
)
;

boundaryField
{
    floor
    {
        type            compressible::alphatWallFunction;
        Prt             0.85;
        value           nonuniform List<scalar> 
36
(
0.000181565
8.03231e-05
9.52739e-05
0.000108281
0.000112249
0.000109936
0.000102452
9.42404e-05
8.68465e-05
8.03936e-05
7.47475e-05
6.97837e-05
6.5414e-05
6.15171e-05
5.79509e-05
5.45559e-05
5.11446e-05
4.9294e-05
4.46238e-05
4.46232e-05
6.25401e-05
7.56385e-05
8.78664e-05
0.000119221
0.000125254
0.000135859
0.000181563
0.000216774
0.000179741
0.000146988
8.03221e-05
0.000146986
8.01278e-05
0.000175068
0.000128615
0.000202675
)
;
    }
    ceiling
    {
        type            compressible::alphatWallFunction;
        Prt             0.85;
        value           nonuniform List<scalar> 
58
(
0.000146246
0.000155033
0.000162122
0.00016495
0.000159888
0.000148995
0.000133016
0.000113964
9.51771e-05
7.77289e-05
6.50477e-05
6.56725e-05
0.000141686
0.00013801
0.000134498
0.000131123
0.000127863
0.00012448
0.000121046
0.000117953
0.000115701
0.000114589
0.000114535
0.000115464
0.000117279
0.000119912
0.000123335
0.000127558
0.000132651
0.000138778
0.000145941
0.000154068
0.000163169
0.000173219
0.000184115
0.000195826
0.000202394
0.00018448
0.000172948
0.000195182
0.000178721
0.000195357
8.19423e-05
0.000137368
0.000150035
0.000158842
0.000164683
0.00016322
0.000155127
0.000141568
0.000123662
0.000104385
8.62948e-05
7.01319e-05
6.39249e-05
0.000165729
0.000192392
0.000104536
)
;
    }
    sWall
    {
        type            compressible::alphatWallFunction;
        Prt             0.85;
        value           nonuniform List<scalar> 4(0.000178455 0.000163537 0.000176875 0.000136783);
    }
    nWall
    {
        type            compressible::alphatWallFunction;
        Prt             0.85;
        value           nonuniform List<scalar> 6(0.000135634 0.00014074 0.000165514 0.000193928 0.000200676 0.000194831);
    }
    sideWalls
    {
        type            empty;
    }
    glass1
    {
        type            compressible::alphatWallFunction;
        Prt             0.85;
        value           nonuniform List<scalar> 10(0.000159722 0.000216514 0.000266354 0.00031635 0.000365416 0.000420014 0.000215441 0.000172346 0.000206501 0.000163386);
    }
    glass2
    {
        type            compressible::alphatWallFunction;
        Prt             0.85;
        value           nonuniform List<scalar> 2(0.000245712 0.000230966);
    }
    sun
    {
        type            compressible::alphatWallFunction;
        Prt             0.85;
        value           nonuniform List<scalar> 
14
(
0.000164112
0.000177032
0.000179971
0.00018816
0.000195757
0.000202921
0.000209986
0.000217357
0.000224797
0.000231706
0.000237203
0.000239402
0.00023528
0.000220999
)
;
    }
    Table_master
    {
        type            compressible::alphatWallFunction;
        Prt             0.85;
        value           nonuniform List<scalar> 9(0.000139318 0.00012166 0.000106845 9.47199e-05 8.48304e-05 7.67357e-05 7.00923e-05 6.46677e-05 6.04003e-05);
    }
    Table_slave
    {
        type            compressible::alphatWallFunction;
        Prt             0.85;
        value           nonuniform List<scalar> 9(0.000156504 0.000142902 0.000133502 0.000126515 0.000120627 0.000114848 0.00010935 0.000103547 9.67749e-05);
    }
    inlet
    {
        type            fixedValue;
        value           uniform 1.94e-05;
    }
    outlet
    {
        type            zeroGradient;
    }
}


// ************************************************************************* //
