/*--------------------------------*- C++ -*----------------------------------*\
  =========                 |
  \\      /  F ield         | OpenFOAM: The Open Source CFD Toolbox
   \\    /   O peration     | Website:  https://openfoam.org
    \\  /    A nd           | Version:  6
     \\/     M anipulation  |
\*---------------------------------------------------------------------------*/
FoamFile
{
    version     2.0;
    format      ascii;
    class       volScalarField;
    location    "13900";
    object      epsilon;
}
// * * * * * * * * * * * * * * * * * * * * * * * * * * * * * * * * * * * * * //

dimensions      [0 2 -3 0 0 0 0];

internalField   nonuniform List<scalar> 
778
(
0.000253125
0.000306342
0.000302977
0.000344138
0.000384995
0.000424803
0.000464255
0.000504544
0.000547404
0.000595554
0.000644051
0.0006925
0.000742544
0.000798975
0.000860811
8.94767e-05
0.000262736
0.000269227
0.000250205
0.000220366
0.000184291
0.000152472
0.000126611
0.000105971
8.94962e-05
7.63414e-05
6.56848e-05
5.68839e-05
4.94122e-05
4.27976e-05
3.65416e-05
3.18321e-05
2.36077e-05
0.000797021
0.00144323
0.000286974
0.000259568
0.000261668
0.000267645
0.000276548
0.000289988
0.000310259
0.000340489
0.000379748
0.000430932
0.000499407
0.000600729
0.000786022
0.00112989
0.000979215
0.000858767
0.000511813
0.000369507
0.000294315
0.00024303
0.000204221
0.000187089
0.00015484
0.000125094
0.000100752
8.1522e-05
6.65484e-05
5.48388e-05
4.56458e-05
3.87216e-05
3.45322e-05
3.27778e-05
6.57847e-05
4.8099e-05
0.0016307
0.00407921
0.000407389
0.000242909
0.000229087
0.000231006
0.00023823
0.000250509
0.000268429
0.000292723
0.000324882
0.000366994
0.000421439
0.000495218
0.000601679
0.000725007
0.000830189
0.00158463
0.00102779
0.00051233
0.000367769
0.000294384
0.000262237
0.000551856
0.000362937
0.000250982
0.000181504
0.000136405
0.000105992
8.48271e-05
6.98546e-05
5.94897e-05
4.51552e-05
3.79996e-05
0.000108083
7.08016e-05
0.00285369
0.00877067
0.0007099
0.000240709
0.000202464
0.000200006
0.000203188
0.000209825
0.000220654
0.000237588
0.000263302
0.000300085
0.000349348
0.000412533
0.00048825
0.000560444
0.000612618
0.000824656
0.00156515
0.000728833
0.000459737
0.000358269
0.000301904
0.000291828
0.000814269
0.000612865
0.0004821
0.000388692
0.000319297
0.000264472
0.000218886
0.000179121
0.000141937
8.3872e-05
5.49472e-05
0.00014834
9.45158e-05
0.0045463
0.0158276
0.0013464
0.000258334
0.000175718
0.000166782
0.000165801
0.000167787
0.000173959
0.000187474
0.000211735
0.000248446
0.000297908
0.000359502
0.000428001
0.000489379
0.000528752
0.000582647
0.000627733
0.000483278
0.000393518
0.000331034
0.000282296
0.000248632
0.000247852
0.000226802
0.00020297
0.000181099
0.000162724
0.000146564
0.000131891
0.000118288
0.000105115
8.45302e-05
6.42792e-05
0.000105097
0.000138788
0.000159971
0.00035971
0.000319552
0.00676402
0.0248782
0.00255349
0.000318071
0.000155525
0.000137056
0.000132127
0.000130704
0.000134478
0.000148567
0.000176721
0.000218108
0.000270871
0.000334237
0.000401897
0.0004628
0.00050319
0.000521888
0.000504993
0.000438391
0.000373902
0.000315691
0.000264768
0.00022341
0.000193314
0.00016965
0.000150829
0.00013564
0.000123309
0.000112764
0.000103308
9.45345e-05
8.60686e-05
7.58952e-05
6.54159e-05
7.76007e-05
9.97115e-05
0.000208097
0.0010578
0.000549344
0.00967253
0.0336364
0.00458358
0.000465006
0.000150838
0.000116338
0.000107092
0.000103296
0.000107095
0.000127913
0.000166104
0.000215857
0.000273301
0.000340093
0.00040943
0.000470597
0.000510347
0.000520644
0.000494509
0.000437782
0.000371943
0.000307539
0.000250585
0.000204465
0.000169766
0.000144565
0.000126325
0.000112734
0.000102284
9.37248e-05
8.62388e-05
7.93536e-05
7.27821e-05
6.61056e-05
6.03753e-05
6.38442e-05
7.67092e-05
0.000171539
0.0015723
0.000893636
0.0127593
0.0404053
0.00748951
0.000871364
0.000194316
0.000115402
9.74103e-05
9.14916e-05
9.8701e-05
0.000137741
0.000189271
0.000246202
0.000306987
0.000373806
0.000444819
0.000508161
0.000547548
0.000551135
0.000515904
0.000451719
0.000375613
0.000301005
0.000236494
0.000185965
0.000149309
0.000123967
0.00010669
9.45492e-05
8.57282e-05
7.88151e-05
7.29241e-05
6.75628e-05
6.24861e-05
5.76611e-05
5.40329e-05
5.6026e-05
7.00226e-05
0.000336722
0.0053903
0.00196462
0.013828
0.0414598
0.0139307
0.00316305
0.000630072
0.000208144
0.000132801
0.000116114
0.000142638
0.000193081
0.000249363
0.000306406
0.000367285
0.000436564
0.000511028
0.000575738
0.000610994
0.000603324
0.000552351
0.000471122
0.000378561
0.000290904
0.000218206
0.000163965
0.000126729
0.000102563
8.72412e-05
7.7301e-05
7.06348e-05
6.56597e-05
6.14818e-05
5.76585e-05
5.4016e-05
5.06625e-05
4.85839e-05
5.30109e-05
9.61559e-05
0.000941253
0.0130722
0.00293841
0.0130051
0.0283715
0.0144148
0.00572604
0.00210455
0.000835197
0.000414283
0.000277385
0.000279543
0.000315026
0.000356357
0.000401819
0.000458549
0.000530742
0.00060976
0.000673776
0.000698601
0.000670704
0.000594003
0.000486858
0.000372679
0.000270601
0.000191004
0.000135635
0.000100591
7.98126e-05
6.79062e-05
6.11265e-05
5.70492e-05
5.4113e-05
5.15714e-05
4.91208e-05
4.67118e-05
4.46384e-05
4.4565e-05
5.80648e-05
0.000214343
0.00256664
0.0111118
0.00308844
0.0106899
0.019357
0.0120383
0.00630021
0.00317495
0.00167549
0.000987609
0.000679919
0.000560886
0.000518037
0.000510888
0.000531672
0.000583633
0.000662399
0.000746886
0.000804485
0.000806967
0.000744142
0.000628309
0.00048627
0.000347509
0.000233325
0.000152238
0.000101621
7.34798e-05
5.87549e-05
5.13121e-05
4.78657e-05
4.60577e-05
4.47331e-05
4.34137e-05
4.19493e-05
4.04284e-05
3.94985e-05
4.29805e-05
8.56508e-05
0.000595566
0.00290881
0.00821216
0.00296909
0.00807171
0.0137684
0.00969109
0.00593309
0.00356989
0.00222791
0.00149136
0.00109373
0.000870051
0.00074425
0.000686426
0.000690347
0.000750267
0.000843874
0.00093095
0.000967237
0.000925486
0.00080585
0.000635484
0.000452498
0.000292767
0.000176954
0.000106687
6.93443e-05
5.24495e-05
4.43295e-05
4.04798e-05
3.90476e-05
3.84501e-05
3.79967e-05
3.7397e-05
3.65822e-05
3.57473e-05
3.60907e-05
4.70612e-05
0.000169762
0.000894027
0.0028457
0.0061265
0.00268237
0.00612205
0.0101632
0.00778796
0.0053114
0.00356989
0.00246918
0.00178821
0.00136859
0.00109341
0.000926606
0.000859703
0.000886596
0.00098168
0.00109523
0.00116678
0.00114808
0.00102644
0.000822899
0.000587478
0.000369079
0.000207672
0.000114229
7.19563e-05
5.22867e-05
4.29276e-05
3.81428e-05
3.57123e-05
3.47931e-05
3.44698e-05
3.43105e-05
3.41522e-05
3.40223e-05
3.42662e-05
3.6765e-05
5.49727e-05
0.000192302
0.000854334
0.00255127
0.00562107
0.002525
0.0061797
0.00780433
0.00679918
0.00473696
0.0033642
0.00246157
0.00186538
0.00146216
0.00119477
0.00106511
0.00107056
0.00117911
0.00132607
0.00143254
0.00143312
0.00129772
0.00105187
0.000744742
0.000457992
0.000238686
0.000130833
8.16833e-05
6.01437e-05
4.96237e-05
4.36048e-05
3.96676e-05
3.7051e-05
3.56455e-05
3.50713e-05
3.50421e-05
3.55861e-05
3.69717e-05
3.98121e-05
4.6253e-05
6.76831e-05
0.000170855
0.000641362
0.00204427
0.0047924
0.00301954
0.00454441
0.00511036
0.00418309
0.0033606
0.00263885
0.00206941
0.00164847
0.00136169
0.00124551
0.00130134
0.00147737
0.00168245
0.00181617
0.0018063
0.00162924
0.00130065
0.00091309
0.000522506
0.000279815
0.000155054
0.000101879
7.95546e-05
6.87538e-05
6.19139e-05
5.64564e-05
5.16268e-05
4.75172e-05
4.47672e-05
4.37845e-05
4.44947e-05
4.74716e-05
5.38046e-05
6.49621e-05
8.3455e-05
0.000117974
0.000208428
0.000541699
0.00188769
0.00370312
0.00321602
0.00140134
0.00143135
0.00143322
0.00135361
0.00131108
0.00142438
0.00170982
0.00204331
0.00230117
0.00239329
0.00227449
0.00196326
0.00152309
0.000982136
0.00057136
0.000313616
0.000187709
0.000135704
0.00011543
0.00010605
9.99485e-05
9.44925e-05
8.87164e-05
8.23974e-05
7.60827e-05
7.13629e-05
7.03703e-05
7.39221e-05
8.40391e-05
0.000103844
0.000136859
0.000187161
0.000264226
0.000401486
0.000722378
0.00205737
0.00337575
0.00333777
0.00118737
0.0017162
0.00195273
0.00230919
0.00275852
0.00316249
0.00334004
0.00330086
0.00307032
0.00267349
0.00210632
0.00149087
0.000962814
0.000567428
0.000339541
0.000233466
0.000192553
0.000177454
0.000170771
0.000166539
0.000162891
0.000158959
0.000154058
0.000147804
0.000140722
0.000135066
0.000135156
0.000143572
0.000164456
0.000204085
0.000270405
0.000373323
0.000529117
0.000775401
0.00121061
0.00218482
0.00414546
0.00300597
0.00742155
0.00807344
0.00480615
0.00340172
0.00373774
0.00415142
0.00416562
0.00395419
0.00359455
0.00313542
0.00262319
0.00207907
0.00153223
0.00105063
0.000694355
0.000477282
0.000372715
0.000329643
0.000311081
0.000300607
0.000293325
0.000288306
0.000285421
0.000284131
0.000283227
0.000281248
0.000277667
0.000274753
0.000278337
0.000292068
0.00032089
0.000372733
0.000459241
0.000597289
0.000813432
0.00115532
0.00171292
0.00261214
0.00393044
0.00278462
0.0065051
0.00513313
0.00437222
0.00462519
0.0045442
0.00427551
0.00369385
0.00304666
0.00246032
0.00196631
0.00156079
0.00123306
0.000977987
0.000794858
0.000678431
0.000612248
0.000571471
0.000543552
0.000522642
0.000507094
0.000497613
0.000495701
0.000502531
0.000518213
0.000541445
0.000569611
0.00059935
0.000627376
0.00065252
0.000681455
0.000723041
0.000786973
0.000884585
0.00103166
0.00125352
0.00159208
0.0021116
0.00291978
0.0036856
0.0032143
0.0053577
0.00336891
0.00331777
0.00361379
0.00387075
0.00352943
0.00292428
0.00230785
0.00178224
0.00136459
0.00104312
0.000803738
0.000635296
0.000527226
0.000466386
0.000437564
0.000430117
0.00043178
0.000439377
0.000453505
0.000475804
0.000507628
0.000549168
0.000599164
0.000655258
0.000714839
0.00077603
0.000838608
0.000904483
0.000974447
0.00105365
0.00114904
0.00126771
0.00141627
0.0015991
0.00181391
0.00204888
0.00231276
0.00272749
0.00284862
)
;

boundaryField
{
    floor
    {
        Cmu             0.09;
        kappa           0.41;
        E               9.8;
        type            epsilonWallFunction;
        value           nonuniform List<scalar> 
36
(
0.000860811
8.94767e-05
0.000262736
0.000269227
0.000250205
0.000220366
0.000184291
0.000152472
0.000126611
0.000105971
8.94962e-05
7.63414e-05
6.56848e-05
5.68839e-05
4.94122e-05
4.27976e-05
3.65416e-05
3.18321e-05
2.36077e-05
2.36077e-05
4.8099e-05
7.08016e-05
9.45158e-05
0.000159971
0.00035971
0.000319552
0.000860811
0.00112989
0.000979215
0.000858767
8.94767e-05
0.000858767
0.000511813
0.00158463
0.00102779
0.00156515
)
;
    }
    ceiling
    {
        Cmu             0.09;
        kappa           0.41;
        E               9.8;
        type            epsilonWallFunction;
        value           nonuniform List<scalar> 
43
(
0.0053577
0.00336891
0.00331777
0.00361379
0.00387075
0.00352943
0.00292428
0.00230785
0.00178224
0.00136459
0.00104312
0.000803738
0.000635296
0.000527226
0.000466386
0.000437564
0.000430117
0.00043178
0.000439377
0.000453505
0.000475804
0.000507628
0.000549168
0.000599164
0.000655258
0.000714839
0.00077603
0.000838608
0.000904483
0.000974447
0.00105365
0.00114904
0.00126771
0.00141627
0.0015991
0.00181391
0.00204888
0.00231276
0.00272749
0.00284862
0.00454441
0.00511036
0.00118737
)
;
    }
    sWall
    {
        Cmu             0.09;
        kappa           0.41;
        E               9.8;
        type            epsilonWallFunction;
        value           nonuniform List<scalar> 9(0.0130051 0.0106899 0.00807171 0.00612205 0.0061797 0.00454441 0.00742155 0.0065051 0.0053577);
    }
    nWall
    {
        Cmu             0.09;
        kappa           0.41;
        E               9.8;
        type            epsilonWallFunction;
        value           nonuniform List<scalar> 
14
(
0.000319552
0.000549344
0.000893636
0.00308844
0.00296909
0.00268237
0.002525
0.00301954
0.00321602
0.00333777
0.00300597
0.00278462
0.0032143
0.00284862
)
;
    }
    sideWalls
    {
        type            empty;
    }
    glass1
    {
        Cmu             0.09;
        kappa           0.41;
        E               9.8;
        type            epsilonWallFunction;
        value           nonuniform List<scalar> 9(0.000253125 0.000797021 0.0016307 0.00285369 0.0045463 0.00676402 0.00967253 0.0127593 0.013828);
    }
    glass2
    {
        Cmu             0.09;
        kappa           0.41;
        E               9.8;
        type            epsilonWallFunction;
        value           nonuniform List<scalar> 2(0.00196462 0.00293841);
    }
    sun
    {
        Cmu             0.09;
        kappa           0.41;
        E               9.8;
        type            epsilonWallFunction;
        value           nonuniform List<scalar> 
14
(
0.000253125
0.000306342
0.000302977
0.000344138
0.000384995
0.000424803
0.000464255
0.000504544
0.000547404
0.000595554
0.000644051
0.0006925
0.000742544
0.000798975
)
;
    }
    Table_master
    {
        Cmu             0.09;
        kappa           0.41;
        E               9.8;
        type            epsilonWallFunction;
        value           nonuniform List<scalar> 9(0.000551856 0.000362937 0.000250982 0.000181504 0.000136405 0.000105992 8.48271e-05 6.98546e-05 5.94897e-05);
    }
    Table_slave
    {
        Cmu             0.09;
        kappa           0.41;
        E               9.8;
        type            epsilonWallFunction;
        value           nonuniform List<scalar> 9(0.000814269 0.000612865 0.0004821 0.000388692 0.000319297 0.000264472 0.000218886 0.000179121 0.000141937);
    }
    inlet
    {
        type            turbulentMixingLengthDissipationRateInlet;
        mixingLength    0.01;
        phi             phi;
        k               k;
        value           uniform 0.000471671;
    }
    outlet
    {
        type            zeroGradient;
    }
}


// ************************************************************************* //
