/*--------------------------------*- C++ -*----------------------------------*\
  =========                 |
  \\      /  F ield         | OpenFOAM: The Open Source CFD Toolbox
   \\    /   O peration     | Website:  https://openfoam.org
    \\  /    A nd           | Version:  6
     \\/     M anipulation  |
\*---------------------------------------------------------------------------*/
FoamFile
{
    version     2.0;
    format      ascii;
    class       volScalarField;
    location    "36499.9999984489041";
    object      k;
}
// * * * * * * * * * * * * * * * * * * * * * * * * * * * * * * * * * * * * * //

dimensions      [0 2 -2 0 0 0 0];

internalField   nonuniform List<scalar> 
778
(
0.00158597
0.00180112
0.0017879
0.00194636
0.00209751
0.0022397
0.00237629
0.00251184
0.00265214
0.00280546
0.00295576
0.00310219
0.00324991
0.00341256
0.00358645
0.000792853
0.00162593
0.00165259
0.0015738
0.00144603
0.00128354
0.00113118
0.000999349
0.000887558
0.000793009
0.000713264
0.000645238
0.000586232
0.000533702
0.00048494
0.000436447
0.00039809
0.000326167
0.00340709
0.00643355
0.00268743
0.00274589
0.00288749
0.00305397
0.00323423
0.00342991
0.00364309
0.00387344
0.00412566
0.0043797
0.00459585
0.00470146
0.00459594
0.00429955
0.00390825
0.00358082
0.00253607
0.00281257
0.00295547
0.00289839
0.00266578
0.00226651
0.00190684
0.00161026
0.00137028
0.00117628
0.00101737
0.000885521
0.000774238
0.000681414
0.000615407
0.000574934
0.000864296
0.000524212
0.00549103
0.0127816
0.00347791
0.0032119
0.00329714
0.00345491
0.00363622
0.00384033
0.00407063
0.00432734
0.00463558
0.00501128
0.00545196
0.00596209
0.00653368
0.00686265
0.00627995
0.0053871
0.00403644
0.00416811
0.00417198
0.00397531
0.00357833
0.00266675
0.00201676
0.00157709
0.00127061
0.00105027
0.000887683
0.000765181
0.000672261
0.000603999
0.000551734
0.000548916
0.00116455
0.000678355
0.00797399
0.0217593
0.00449121
0.00339051
0.0033412
0.00343773
0.00354908
0.00366855
0.00380877
0.00399115
0.00425912
0.00464884
0.00517221
0.00582697
0.00655709
0.00713711
0.00723025
0.00724448
0.00534271
0.0055487
0.00537428
0.00512397
0.00478601
0.00434796
0.00345613
0.00285975
0.00243695
0.00211102
0.00185161
0.00163307
0.00143956
0.00125945
0.00107849
0.000801326
0.00066025
0.00141905
0.000822471
0.010877
0.0336357
0.00621298
0.00342477
0.00315797
0.00316665
0.00318931
0.00320966
0.00325195
0.00336095
0.0035947
0.00398955
0.00455458
0.00527892
0.00608993
0.0068207
0.0072858
0.00764532
0.00751752
0.0066534
0.00607193
0.00557768
0.00509824
0.00462924
0.00412346
0.00366624
0.00327578
0.00293823
0.00263204
0.00234858
0.00207999
0.00181914
0.00155544
0.00122258
0.000931471
0.00118972
0.00121635
0.00116808
0.00200334
0.00185309
0.0141756
0.0475994
0.00928421
0.00348983
0.00290824
0.00282245
0.0027642
0.00269945
0.00266418
0.00273445
0.00298073
0.00341456
0.0040248
0.00480042
0.00565738
0.00646493
0.00707192
0.00740911
0.00732437
0.00678965
0.00621423
0.00563629
0.00507381
0.004556
0.00409168
0.00369615
0.00336358
0.00307418
0.00280733
0.00255215
0.00229965
0.00204281
0.00177422
0.00147184
0.00117993
0.00111367
0.00111229
0.001697
0.00503193
0.00265977
0.0179928
0.0606059
0.01436
0.00381946
0.00271497
0.00252917
0.00241169
0.00229406
0.00222114
0.00231146
0.00263009
0.00313939
0.00380318
0.00463405
0.00553271
0.00637131
0.00700488
0.00733093
0.00725614
0.00681882
0.00621549
0.00555467
0.00491184
0.00434293
0.00387275
0.00350063
0.00320681
0.00296187
0.0027416
0.00252957
0.00231413
0.00208784
0.00184565
0.00158329
0.00132903
0.00116305
0.00109424
0.00154342
0.00617565
0.00367772
0.0216416
0.0704807
0.0214356
0.00510241
0.00274273
0.00237173
0.00221018
0.00208214
0.00202664
0.00221962
0.00264966
0.003231
0.00393831
0.00477729
0.00570323
0.0065783
0.00722811
0.0075176
0.00738707
0.00689819
0.00619942
0.00542761
0.00469187
0.00406466
0.00357445
0.00321226
0.00294723
0.00274057
0.00256403
0.00239599
0.00222256
0.00203601
0.00183265
0.0016136
0.00139948
0.00123666
0.00116032
0.00206613
0.0135997
0.00621213
0.0228337
0.0694939
0.0325324
0.0110563
0.00406742
0.00258756
0.00223579
0.00210351
0.00219085
0.00251323
0.00300091
0.00360246
0.00433358
0.00521482
0.00618824
0.00709115
0.00772081
0.00792663
0.00766802
0.00702859
0.00616759
0.00524991
0.00440809
0.00372241
0.00321623
0.00286814
0.00263459
0.00246805
0.00233542
0.00221077
0.0020791
0.00193314
0.00177037
0.00159379
0.00142041
0.00130163
0.00136149
0.00380933
0.025834
0.00813859
0.0219184
0.0516349
0.0336424
0.0174333
0.00858832
0.00476065
0.00326281
0.0027317
0.00285545
0.0032131
0.00367397
0.00424733
0.00499591
0.00593869
0.0069744
0.00788802
0.00844302
0.00848654
0.00800749
0.00712809
0.00604474
0.00495592
0.00401187
0.00329021
0.00279697
0.00248749
0.00230086
0.00218279
0.00209476
0.00200997
0.00191487
0.00180372
0.00167558
0.00153498
0.00139922
0.0013369
0.00180038
0.00846025
0.0240018
0.00839957
0.0192329
0.0394349
0.0302365
0.0195663
0.0121839
0.00794137
0.00572043
0.00467304
0.00436617
0.00440308
0.00465467
0.00514576
0.00593315
0.00697642
0.00808233
0.0089587
0.00934077
0.00909838
0.00827847
0.0070668
0.00571596
0.00446165
0.00346139
0.00276774
0.00234743
0.00211406
0.00198969
0.00192182
0.00187181
0.00181791
0.00174989
0.00166369
0.00155981
0.00144578
0.00134779
0.00142857
0.00323312
0.00992953
0.0198964
0.00816759
0.0159479
0.0315827
0.0266482
0.0195387
0.0139774
0.0102864
0.00803018
0.00675525
0.00605287
0.0057342
0.00578451
0.00627239
0.00720144
0.00840315
0.00954884
0.0102682
0.0103042
0.0095966
0.0082947
0.00667402
0.00505971
0.00372124
0.00279183
0.00223457
0.00195526
0.00181484
0.0017452
0.00171093
0.00168346
0.00164821
0.00159752
0.00152782
0.00143996
0.00134676
0.00129843
0.00169725
0.004342
0.0101345
0.0166276
0.00763264
0.0132635
0.0256634
0.0233443
0.0186875
0.0145834
0.011589
0.00954516
0.00821167
0.0073024
0.00684264
0.00695814
0.00771151
0.00895739
0.0103316
0.0113691
0.0116786
0.0110973
0.00970187
0.00780054
0.00577206
0.00402983
0.00283749
0.00219713
0.00186635
0.00170226
0.00161921
0.00157634
0.00155363
0.0015327
0.0015042
0.0014625
0.00140493
0.00133342
0.00126387
0.00126732
0.00176561
0.00431859
0.00969164
0.0165712
0.00737341
0.0133473
0.022403
0.0220479
0.0177552
0.01439
0.011893
0.0100839
0.00876928
0.00792005
0.00777658
0.00846818
0.00984545
0.0114791
0.0128084
0.0133416
0.0128064
0.0112723
0.00899889
0.00653331
0.00431889
0.00296648
0.00222969
0.0018639
0.00167952
0.00157952
0.00151878
0.00147825
0.00144957
0.00142265
0.00139145
0.0013524
0.00130502
0.00125428
0.00122091
0.0012791
0.00173069
0.00376934
0.00890659
0.015515
0.00836834
0.0108742
0.0117589
0.0129209
0.0125515
0.011374
0.0100746
0.00894689
0.00820529
0.00830833
0.0094175
0.0112727
0.0133061
0.0148632
0.0154278
0.0147553
0.0128452
0.0101608
0.00703851
0.00465201
0.00314322
0.00235772
0.00197794
0.00178765
0.00167547
0.00159431
0.00152613
0.00146615
0.0014156
0.00137246
0.00133286
0.0012976
0.00127581
0.00128788
0.0013679
0.00157692
0.00210449
0.0037718
0.00910768
0.0137446
0.00866334
0.00354625
0.00482773
0.00600075
0.00660503
0.00728233
0.00880519
0.0113215
0.0141286
0.0164991
0.0178818
0.0179407
0.0166197
0.0141392
0.0105924
0.00732679
0.00484163
0.00334253
0.00258506
0.00223952
0.00207025
0.00196544
0.00188018
0.00179735
0.00171109
0.00162299
0.00154305
0.00148522
0.00145217
0.00145843
0.00153387
0.0017164
0.0020381
0.00253929
0.00336344
0.00502939
0.0102507
0.0137493
0.00888043
0.00444412
0.00629099
0.00810659
0.0110219
0.0147051
0.0181549
0.0203756
0.0213997
0.0212702
0.0199992
0.0174455
0.0139751
0.0103504
0.00711337
0.00484399
0.0035557
0.00295335
0.00269235
0.00256436
0.00248107
0.00241286
0.0023495
0.00228527
0.00221542
0.00213878
0.00206363
0.00201642
0.00201666
0.00209334
0.00229056
0.00265732
0.00323374
0.00406047
0.00524104
0.00706482
0.0103706
0.0149576
0.00822916
0.0150799
0.0244562
0.0180784
0.0143791
0.0170063
0.0207195
0.0228606
0.0235593
0.0230809
0.0216934
0.0196309
0.0169635
0.0137983
0.0105074
0.00763029
0.00556651
0.00440261
0.00385847
0.00360278
0.00344936
0.00333246
0.00323826
0.00316865
0.0031257
0.00310578
0.00309887
0.00309315
0.00308537
0.003096
0.00315412
0.00329299
0.00355731
0.00400077
0.00467895
0.00564739
0.00697736
0.00876808
0.0109825
0.0132643
0.00786334
0.0138112
0.0170526
0.0178767
0.0207769
0.0217061
0.022125
0.0211299
0.0193183
0.0171961
0.0150071
0.0128475
0.0107633
0.00884316
0.00723557
0.0060721
0.0053588
0.00493065
0.0046543
0.0044472
0.00427666
0.00414146
0.00405404
0.00402932
0.00407762
0.0041997
0.00438369
0.00460408
0.00482306
0.00499766
0.00515812
0.00536286
0.00566561
0.0061161
0.00676717
0.00768496
0.00895619
0.0106673
0.0128719
0.0136434
0.00886904
0.012135
0.00890712
0.00881664
0.00933367
0.00977114
0.00918817
0.00810512
0.00692047
0.00582229
0.00486855
0.00406532
0.00341277
0.00291591
0.00257631
0.00237739
0.002282
0.00225784
0.00226471
0.00229065
0.00233726
0.00240995
0.00251318
0.00264724
0.00280724
0.00298456
0.00316987
0.00335633
0.00354204
0.00373179
0.00392744
0.00414032
0.00438756
0.00468537
0.00504682
0.0054782
0.00597014
0.0064917
0.00704158
0.00782656
0.00809179
)
;

boundaryField
{
    floor
    {
        type            kqRWallFunction;
        value           nonuniform List<scalar> 
36
(
0.00358645
0.000792853
0.00162593
0.00165259
0.0015738
0.00144603
0.00128354
0.00113118
0.000999349
0.000887558
0.000793009
0.000713264
0.000645238
0.000586232
0.000533702
0.00048494
0.000436447
0.00039809
0.000326167
0.000326167
0.000524212
0.000678355
0.000822471
0.00116808
0.00200334
0.00185309
0.00358645
0.00429955
0.00390825
0.00358082
0.000792853
0.00358082
0.00253607
0.0053871
0.00403644
0.00534271
)
;
    }
    ceiling
    {
        type            kqRWallFunction;
        value           nonuniform List<scalar> 
43
(
0.012135
0.00890712
0.00881664
0.00933367
0.00977114
0.00918817
0.00810512
0.00692047
0.00582229
0.00486855
0.00406532
0.00341277
0.00291591
0.00257631
0.00237739
0.002282
0.00225784
0.00226471
0.00229065
0.00233726
0.00240995
0.00251318
0.00264724
0.00280724
0.00298456
0.00316987
0.00335633
0.00354204
0.00373179
0.00392744
0.00414032
0.00438756
0.00468537
0.00504682
0.0054782
0.00597014
0.0064917
0.00704158
0.00782656
0.00809179
0.0108742
0.0117589
0.00444412
)
;
    }
    sWall
    {
        type            kqRWallFunction;
        value           nonuniform List<scalar> 9(0.0219184 0.0192329 0.0159479 0.0132635 0.0133473 0.0108742 0.0150799 0.0138112 0.012135);
    }
    nWall
    {
        type            kqRWallFunction;
        value           nonuniform List<scalar> 
14
(
0.00185309
0.00265977
0.00367772
0.00839957
0.00816759
0.00763264
0.00737341
0.00836834
0.00866334
0.00888043
0.00822916
0.00786334
0.00886904
0.00809179
)
;
    }
    sideWalls
    {
        type            empty;
    }
    glass1
    {
        type            kqRWallFunction;
        value           nonuniform List<scalar> 9(0.00158597 0.00340709 0.00549103 0.00797399 0.010877 0.0141756 0.0179928 0.0216416 0.0228337);
    }
    glass2
    {
        type            kqRWallFunction;
        value           nonuniform List<scalar> 2(0.00621213 0.00813859);
    }
    sun
    {
        type            kqRWallFunction;
        value           nonuniform List<scalar> 
14
(
0.00158597
0.00180112
0.0017879
0.00194636
0.00209751
0.0022397
0.00237629
0.00251184
0.00265214
0.00280546
0.00295576
0.00310219
0.00324991
0.00341256
)
;
    }
    Table_master
    {
        type            kqRWallFunction;
        value           nonuniform List<scalar> 9(0.00266675 0.00201676 0.00157709 0.00127061 0.00105027 0.000887683 0.000765181 0.000672261 0.000603999);
    }
    Table_slave
    {
        type            kqRWallFunction;
        value           nonuniform List<scalar> 9(0.00345613 0.00285975 0.00243695 0.00211102 0.00185161 0.00163307 0.00143956 0.00125945 0.00107849);
    }
    inlet
    {
        type            turbulentIntensityKineticEnergyInlet;
        intensity       0.05;
        value           uniform 0.0009375;
    }
    outlet
    {
        type            zeroGradient;
    }
}


// ************************************************************************* //
