// -*- C++ -*-
// File generated by PyFoam - sorry for the ugliness

FoamFile
{
 version 2.0;
 format ascii;
 class volVectorField;
 location "2100";
 object U;
}

dimensions [ 0 1 -1 0 0 0 0 ];

internalField nonuniform List<vector> 458
(
  (0.034828 0.0885213 0)
  (-0.172079 0.0265829 0)
  (-0.199345 0.0191128 0)
  (-0.233219 0.0130811 0)
  (-0.258391 0.0064141 0)
  (-0.273596 -0.000804087 0)
  (-0.276726 -0.00877697 0)
  (-0.265481 -0.0177764 0)
  (-0.239425 -0.0274248 0)
  (-0.199717 -0.0361093 0)
  (-0.150454 -0.0420491 0)
  (-0.0978388 -0.0436496 0)
  (-0.0487388 -0.0390809 0)
  (-0.00628118 -0.0236895 0)
  (-0.0102705 0.00976912 0)
  (-0.0102369 0.0105121 0)
  (-0.0372585 -0.0174886 0)
  (-0.0145084 -0.0291055 0)
  (0.0136735 -0.0251831 0)
  (0.0334433 -0.0178887 0)
  (0.0480595 -0.00955457 0)
  (0.0568185 -0.00517627 0)
  (0.060697 -0.00363248 0)
  (0.0621326 -0.00308287 0)
  (0.062782 -0.0027599 0)
  (0.0630918 -0.00250942 0)
  (0.0630309 -0.0022416 0)
  (0.0624333 -0.00179757 0)
  (0.0608419 -0.000838895 0)
  (0.0572399 0.00107447 0)
  (0.0505203 0.00317077 0)
  (0.045115 0.00508666 0)
  (-0.0141463 0.0219484 0)
  (0.214277 0.181888 0)
  (-0.162148 0.0709908 0)
  (-0.162939 0.057761 0)
  (-0.198654 0.0457426 0)
  (-0.22413 0.0319883 0)
  (-0.240106 0.0161765 0)
  (-0.244609 -0.00240798 0)
  (-0.235115 -0.0239634 0)
  (-0.211869 -0.0461657 0)
  (-0.17649 -0.0649223 0)
  (-0.133362 -0.0764232 0)
  (-0.0881346 -0.0781971 0)
  (-0.0462681 -0.0687306 0)
  (-0.0100364 -0.0460223 0)
  (0.0194023 -0.0133878 0)
  (0.0442351 0.00784558 0)
  (0.0548432 0.0347565 0)
  (-0.0118126 0.0706823 0)
  (0.0670407 0.0439805 0)
  (0.0102941 -0.0218333 0)
  (0.0265213 -0.0378988 0)
  (0.0407494 -0.0356445 0)
  (0.0531382 -0.0273403 0)
  (0.0595603 -0.0120929 0)
  (0.0611803 -0.00275337 0)
  (0.06123 0.000745559 0)
  (0.0613946 0.00202288 0)
  (0.0617199 0.00272187 0)
  (0.061945 0.00322167 0)
  (0.0620025 0.00367486 0)
  (0.0618985 0.00440717 0)
  (0.0611874 0.00620523 0)
  (0.0577907 0.0112239 0)
  (0.0490997 0.0155333 0)
  (0.0476937 0.018705 0)
  (-0.0584274 0.0475505 0)
  (0.379539 0.272953 0)
  (-0.180118 0.11373 0)
  (-0.123511 0.0941072 0)
  (-0.159195 0.0724332 0)
  (-0.182597 0.0495028 0)
  (-0.198407 0.023644 0)
  (-0.204061 -0.00653176 0)
  (-0.195373 -0.0409745 0)
  (-0.173593 -0.0757742 0)
  (-0.141429 -0.103642 0)
  (-0.103847 -0.118947 0)
  (-0.0659017 -0.119153 0)
  (-0.0318298 -0.10412 0)
  (-0.00228485 -0.0744026 0)
  (0.022023 -0.0400793 0)
  (0.0375896 -0.0152242 0)
  (0.0431732 0.0131592 0)
  (-0.023667 0.0623156 0)
  (0.122493 -0.00753865 0)
  (0.0725122 -0.0320943 0)
  (0.0643143 -0.04193 0)
  (0.0672629 -0.0417563 0)
  (0.071873 -0.0380425 0)
  (0.0734915 -0.0282268 0)
  (0.0643687 -0.0183284 0)
  (0.0574146 -0.0130266 0)
  (0.054816 -0.0100784 0)
  (0.0541245 -0.00818578 0)
  (0.0538904 -0.00689736 0)
  (0.0539608 -0.00590252 0)
  (0.0547601 -0.0047535 0)
  (0.057211 -0.00139869 0)
  (0.0561054 0.0149943 0)
  (0.0445892 0.0258702 0)
  (0.0541332 0.0332482 0)
  (-0.099376 0.0727953 0)
  (0.530035 0.34665 0)
  (-0.216671 0.151752 0)
  (-0.0801989 0.125833 0)
  (-0.115538 0.0962951 0)
  (-0.133416 0.0672238 0)
  (-0.146928 0.0337646 0)
  (-0.152515 -0.00710734 0)
  (-0.142622 -0.0550472 0)
  (-0.12129 -0.1023 0)
  (-0.0929823 -0.137831 0)
  (-0.0625364 -0.155418 0)
  (-0.0335776 -0.153424 0)
  (-0.00880369 -0.133438 0)
  (0.0128591 -0.0979267 0)
  (0.0304257 -0.058978 0)
  (0.0443497 -0.0229025 0)
  (0.0599488 0.0131435 0)
  (0.0588174 0.0534346 0)
  (0.100331 0.061501 0)
  (0.0988154 -0.00244596 0)
  (0.0851509 -0.0293916 0)
  (0.0784675 -0.0376912 0)
  (0.0736165 -0.0383935 0)
  (0.0670215 -0.0341063 0)
  (0.0666027 -0.0208379 0)
  (0.0772781 -0.0138297 0)
  (0.0862406 -0.0101069 0)
  (0.0916394 -0.00782395 0)
  (0.0948785 -0.00591624 0)
  (0.0962844 -0.00385523 0)
  (0.0945158 -0.00118981 0)
  (0.0882534 0.00248056 0)
  (0.0757109 0.00774314 0)
  (0.0597975 0.0250985 0)
  (0.0440611 0.0405845 0)
  (0.0629773 0.0533463 0)
  (-0.131384 0.09428 0)
  (0.662688 0.403808 0)
  (-0.262356 0.182675 0)
  (-0.0350345 0.145255 0)
  (-0.0687505 0.111317 0)
  (-0.0779473 0.0792329 0)
  (-0.0862948 0.0412514 0)
  (-0.0890504 -0.00798314 0)
  (-0.0740319 -0.0688061 0)
  (-0.0534861 -0.125892 0)
  (-0.0315829 -0.165063 0)
  (-0.0112789 -0.181834 0)
  (0.00615778 -0.175987 0)
  (0.0193218 -0.151482 0)
  (0.0303393 -0.114541 0)
  (0.0401884 -0.0729627 0)
  (0.0494322 -0.0337287 0)
  (0.0619308 0.000668077 0)
  (0.0760346 0.0197092 0)
  (0.0903245 -0.000574298 0)
  (0.0896824 -0.0213778 0)
  (0.0826162 -0.0300371 0)
  (0.0738097 -0.0325508 0)
  (0.0655653 -0.0316292 0)
  (0.0586214 -0.0266313 0)
  (0.0568404 -0.0155111 0)
  (0.0603939 -0.00902594 0)
  (0.0647351 -0.00637153 0)
  (0.0684583 -0.00482914 0)
  (0.0717009 -0.00274902 0)
  (0.0742076 0.000781672 0)
  (0.0750568 0.00596875 0)
  (0.0731625 0.0129869 0)
  (0.0682531 0.0224379 0)
  (0.0612061 0.0371777 0)
  (0.0500544 0.05363 0)
  (0.074858 0.0727494 0)
  (-0.00684592 0.101383 0)
  (0.0557872 0.150675 0)
  (-0.083521 0.0748394 0)
  (-0.277797 0.000487055 0)
  (0.761895 0.451323 0)
  (-0.308553 0.203336 0)
  (0.00242849 0.143883 0)
  (-0.0205865 0.116257 0)
  (-0.0197931 0.0857218 0)
  (-0.0215029 0.0472964 0)
  (-0.0143181 -0.00693311 0)
  (0.0103099 -0.0859156 0)
  (0.0269204 -0.146183 0)
  (0.0388231 -0.182415 0)
  (0.0460443 -0.194546 0)
  (0.0488934 -0.185047 0)
  (0.0486289 -0.15812 0)
  (0.0472237 -0.11992 0)
  (0.0460489 -0.0779428 0)
  (0.0464647 -0.0397126 0)
  (0.0508162 -0.00999781 0)
  (0.0599652 0.00481673 0)
  (0.0662421 -0.00105829 0)
  (0.0649889 -0.0110189 0)
  (0.0586036 -0.0188098 0)
  (0.050433 -0.0229128 0)
  (0.0427953 -0.0236612 0)
  (0.0368197 -0.0211343 0)
  (0.0342687 -0.0157701 0)
  (0.0354183 -0.0122938 0)
  (0.0383723 -0.0108625 0)
  (0.0420285 -0.00977434 0)
  (0.0460885 -0.00763818 0)
  (0.050271 -0.00338387 0)
  (0.0544815 0.00368445 0)
  (0.0569984 0.013187 0)
  (0.0581645 0.0249443 0)
  (0.0592893 0.0395783 0)
  (0.0583657 0.0560003 0)
  (0.0797078 0.0766962 0)
  (0.0654474 0.0889861 0)
  (0.0997218 0.0967327 0)
  (0.117478 0.057199 0)
  (-0.136896 -0.0299291 0)
  (0.815617 0.494188 0)
  (-0.334124 0.187369 0)
  (0.0322383 0.0937987 0)
  (0.0390594 0.101054 0)
  (0.0459268 0.0830008 0)
  (0.0516184 0.0393727 0)
  (0.0790907 -0.0311664 0)
  (0.103103 -0.103697 0)
  (0.113281 -0.157008 0)
  (0.112859 -0.186324 0)
  (0.104581 -0.192426 0)
  (0.0907912 -0.178773 0)
  (0.0740965 -0.149769 0)
  (0.0575027 -0.111563 0)
  (0.0429716 -0.0709121 0)
  (0.0326146 -0.0357001 0)
  (0.0280975 -0.0107633 0)
  (0.0294978 0.000983326 0)
  (0.0311334 -0.000287136 0)
  (0.029632 -0.00657396 0)
  (0.0249805 -0.0126338 0)
  (0.0188612 -0.0163714 0)
  (0.012836 -0.0177434 0)
  (0.00803008 -0.0171046 0)
  (0.00566935 -0.0151955 0)
  (0.00601177 -0.0141012 0)
  (0.00805129 -0.0139676 0)
  (0.0110498 -0.0137418 0)
  (0.0148452 -0.012361 0)
  (0.0195231 -0.00873909 0)
  (0.0256921 -0.00163463 0)
  (0.0333014 0.00886965 0)
  (0.0400676 0.0208906 0)
  (0.0478763 0.0341601 0)
  (0.0558758 0.0479598 0)
  (0.0754509 0.0644573 0)
  (0.0882322 0.0697717 0)
  (0.11967 0.0632099 0)
  (0.163391 0.0513056 0)
  (-0.0203508 0.0954877 0)
  (0.921873 0.497287 0)
  (-0.0766824 0.167418 0)
  (0.110605 0.0261614 0)
  (0.163733 0.0227947 0)
  (0.161394 0.0155502 0)
  (0.162858 -0.0293579 0)
  (0.196481 -0.080405 0)
  (0.211265 -0.125537 0)
  (0.205355 -0.158272 0)
  (0.185089 -0.173977 0)
  (0.155586 -0.171671 0)
  (0.121089 -0.153972 0)
  (0.0852952 -0.124274 0)
  (0.0523684 -0.0880744 0)
  (0.0244608 -0.0510593 0)
  (0.00511286 -0.0219317 0)
  (-0.0046342 -0.00443463 0)
  (-0.00656126 0.00175087 0)
  (-0.00644261 0.000656501 0)
  (-0.00764359 -0.00366831 0)
  (-0.0109437 -0.00801675 0)
  (-0.015442 -0.0110796 0)
  (-0.0200761 -0.0128489 0)
  (-0.02394 -0.0136848 0)
  (-0.0263218 -0.0141357 0)
  (-0.0272132 -0.0148868 0)
  (-0.027177 -0.0158706 0)
  (-0.0265951 -0.0165842 0)
  (-0.0254675 -0.0164983 0)
  (-0.023488 -0.0150355 0)
  (-0.0198625 -0.0114646 0)
  (-0.0117093 -0.00490843 0)
  (-9.49703e-05 0.00445985 0)
  (0.0110854 0.0137606 0)
  (0.0226889 0.0208655 0)
  (0.0398991 0.0277365 0)
  (0.0554296 0.0224387 0)
  (0.0795694 0.00564788 0)
  (0.146408 0.0479777 0)
  (-0.428338 0.212665 0)
  (1.06591 0.444167 0)
  (0.518239 0.298302 0)
  (0.529533 0.24986 0)
  (0.518389 0.182908 0)
  (0.469833 0.122442 0)
  (0.433151 0.0601164 0)
  (0.392041 -0.00741939 0)
  (0.342838 -0.0669754 0)
  (0.289082 -0.107858 0)
  (0.232746 -0.126609 0)
  (0.175367 -0.125099 0)
  (0.118911 -0.108913 0)
  (0.0654648 -0.082286 0)
  (0.0202434 -0.051261 0)
  (-0.0160982 -0.0208415 0)
  (-0.0329472 -0.00607394 0)
  (-0.0401248 0.000435696 0)
  (-0.0416822 0.00220023 0)
  (-0.0420611 0.00100194 0)
  (-0.0432035 -0.00164447 0)
  (-0.045832 -0.00452088 0)
  (-0.0494812 -0.00704741 0)
  (-0.0535063 -0.00913641 0)
  (-0.0573709 -0.0108647 0)
  (-0.0608183 -0.0123663 0)
  (-0.0640114 -0.0137476 0)
  (-0.0673539 -0.0148459 0)
  (-0.0712214 -0.0153021 0)
  (-0.0759677 -0.0146315 0)
  (-0.082066 -0.0121812 0)
  (-0.0902081 -0.00711386 0)
  (-0.101118 0.0014291 0)
  (-0.112752 0.0133225 0)
  (-0.127984 0.0284141 0)
  (-0.152907 0.0467843 0)
  (-0.190232 0.0673933 0)
  (-0.241633 0.0862252 0)
  (-0.297562 0.0999181 0)
  (-0.371646 0.106911 0)
  (-0.650669 0.106304 0)
  (0.233923 0.0528353 0)
  (0.30589 0.115968 0)
  (0.321217 0.091373 0)
  (0.299642 0.0395833 0)
  (0.275045 -0.0105984 0)
  (0.244387 -0.0469364 0)
  (0.2031 -0.0684113 0)
  (0.154007 -0.0754162 0)
  (0.100444 -0.068701 0)
  (0.0461731 -0.0529192 0)
  (-0.0086209 -0.0295151 0)
  (-0.0451281 -0.0114914 0)
  (-0.0635889 -0.00313217 0)
  (-0.0709199 -0.000758296 0)
  (-0.0731559 -0.000289809 0)
  (-0.0734741 -0.000988618 0)
  (-0.0737764 -0.00258873 0)
  (-0.0749151 -0.00468271 0)
  (-0.0771313 -0.00676993 0)
  (-0.0803872 -0.0085491 0)
  (-0.0841837 -0.0100202 0)
  (-0.0882909 -0.0111416 0)
  (-0.0927203 -0.011916 0)
  (-0.0976257 -0.01231 0)
  (-0.103157 -0.0121333 0)
  (-0.109348 -0.0110409 0)
  (-0.116066 -0.00856348 0)
  (-0.122967 -0.00415723 0)
  (-0.129429 0.00273906 0)
  (-0.134402 0.0123369 0)
  (-0.13837 0.0256175 0)
  (-0.141807 0.043179 0)
  (-0.146018 0.0642221 0)
  (-0.151772 0.0850513 0)
  (-0.155358 0.0955475 0)
  (-0.141303 0.0734015 0)
  (-0.110248 -0.0250083 0)
  (-0.286611 -0.213741 0)
  (0.120027 0.324338 0)
  (0.00839194 0.203596 0)
  (0.0392672 0.118453 0)
  (0.0584822 0.0604386 0)
  (0.0631314 0.0216264 0)
  (0.0601179 -0.00478537 0)
  (0.0402053 -0.0199137 0)
  (0.00542966 -0.0189587 0)
  (-0.036588 -0.00172412 0)
  (-0.0701092 0.0128768 0)
  (-0.0912234 0.0208827 0)
  (-0.100237 0.02327 0)
  (-0.102458 0.0233973 0)
  (-0.102403 0.0234453 0)
  (-0.101531 0.0241555 0)
  (-0.100501 0.025282 0)
  (-0.0997807 0.0264237 0)
  (-0.0996551 0.0271743 0)
  (-0.100181 0.0271093 0)
  (-0.101324 0.0259046 0)
  (-0.103119 0.0238722 0)
  (-0.105495 0.0216286 0)
  (-0.108387 0.0194495 0)
  (-0.111706 0.0174807 0)
  (-0.115314 0.0158321 0)
  (-0.118997 0.014613 0)
  (-0.122446 0.0139603 0)
  (-0.125177 0.0140309 0)
  (-0.126373 0.0155219 0)
  (-0.124865 0.0198902 0)
  (-0.119076 0.0282964 0)
  (-0.107619 0.0417407 0)
  (-0.0903519 0.0602412 0)
  (-0.0683173 0.0804255 0)
  (-0.0434463 0.094838 0)
  (-0.00758444 0.0857781 0)
  (0.14694 0.00930488 0)
  (-0.209928 -0.129684 0)
  (-0.422122 -0.516032 0)
  (-0.63732 -0.143274 0)
  (-0.449398 0.177763 0)
  (-0.357931 0.0560836 0)
  (-0.213893 -0.00553608 0)
  (-0.145601 -0.0477884 0)
  (-0.117155 -0.0705415 0)
  (-0.112973 -0.0713664 0)
  (-0.122334 -0.0626921 0)
  (-0.134854 -0.0549794 0)
  (-0.140341 -0.0505074 0)
  (-0.138583 -0.0490665 0)
  (-0.13412 -0.0499489 0)
  (-0.128934 -0.0527694 0)
  (-0.124467 -0.0562999 0)
  (-0.121022 -0.0599509 0)
  (-0.118225 -0.0635985 0)
  (-0.115817 -0.0672936 0)
  (-0.113752 -0.0708928 0)
  (-0.112104 -0.0739065 0)
  (-0.111007 -0.0756844 0)
  (-0.110621 -0.0757904 0)
  (-0.111052 -0.0743586 0)
  (-0.112259 -0.071988 0)
  (-0.11407 -0.0689162 0)
  (-0.116261 -0.0652761 0)
  (-0.118549 -0.0610883 0)
  (-0.120567 -0.0562789 0)
  (-0.121832 -0.0506327 0)
  (-0.121711 -0.0438025 0)
  (-0.119187 -0.0358152 0)
  (-0.112354 -0.0266905 0)
  (-0.0984066 -0.0158839 0)
  (-0.0748451 -0.00248759 0)
  (-0.0415513 0.014363 0)
  (0.00931541 0.0362841 0)
  (0.0618655 0.0423473 0)
  (0.109598 0.0240447 0)
  (0.172058 -0.0159431 0)
  (-0.196291 -0.0826855 0)
)
;

boundaryField
{
  floor
  {
    type noSlip;
  }
  ceiling
  {
    type noSlip;
  }
  sWall
  {
    type noSlip;
  }
  nWall
  {
    type noSlip;
  }
  sideWalls
  {
    type empty;
  }
  glass1
  {
    type noSlip;
  }
  glass2
  {
    type noSlip;
  }
  sun
  {
    type noSlip;
  }
  Table_master
  {
    type noSlip;
  }
  Table_slave
  {
    type noSlip;
  }
  inlet
  {
    type fixedValue;
    value uniform (0.46194 -0.191342 0);
  }
  outlet
  {
    type zeroGradient;
  }
} 	// ************************************************************************* //

