/*--------------------------------*- C++ -*----------------------------------*\
  =========                 |
  \\      /  F ield         | OpenFOAM: The Open Source CFD Toolbox
   \\    /   O peration     | Website:  https://openfoam.org
    \\  /    A nd           | Version:  6
     \\/     M anipulation  |
\*---------------------------------------------------------------------------*/
FoamFile
{
    version     2.0;
    format      ascii;
    class       volScalarField;
    location    "26399.9999987079318";
    object      T;
}
// * * * * * * * * * * * * * * * * * * * * * * * * * * * * * * * * * * * * * //

dimensions      [0 0 0 1 0 0 0];

internalField   nonuniform List<scalar> 
778
(
302.565
302.246
302.23
302.225
302.22
302.216
302.212
302.207
302.202
302.198
302.192
302.184
302.175
302.164
302.154
302.223
302.094
302.086
302.085
302.087
302.091
302.095
302.1
302.105
302.11
302.115
302.12
302.125
302.13
302.135
302.142
302.15
302.182
302.778
302.277
302.245
302.244
302.245
302.245
302.245
302.243
302.239
302.234
302.226
302.212
302.192
302.166
302.138
302.119
302.105
302.101
302.082
302.063
302.056
302.053
302.052
302.054
302.056
302.057
302.059
302.061
302.063
302.065
302.068
302.072
302.079
302.09
302.106
302.158
302.994
302.324
302.272
302.278
302.289
302.299
302.307
302.313
302.315
302.313
302.304
302.285
302.254
302.213
302.167
302.127
302.095
302.075
302.049
302.041
302.039
302.039
302.04
302.041
302.042
302.044
302.045
302.046
302.047
302.048
302.05
302.052
302.057
302.067
302.084
302.145
303.204
302.385
302.303
302.315
302.336
302.358
302.379
302.395
302.407
302.411
302.403
302.379
302.335
302.274
302.207
302.146
302.097
302.062
302.047
302.036
302.032
302.032
302.033
302.034
302.035
302.035
302.036
302.036
302.036
302.037
302.037
302.037
302.037
302.043
302.053
302.071
302.136
303.405
302.459
302.335
302.349
302.38
302.414
302.448
302.479
302.504
302.517
302.513
302.484
302.425
302.341
302.248
302.164
302.099
302.057
302.035
302.028
302.027
302.029
302.031
302.034
302.036
302.037
302.038
302.039
302.039
302.039
302.039
302.038
302.038
302.039
302.045
302.061
302.113
302.125
302.138
302.235
303.594
302.544
302.372
302.377
302.415
302.458
302.503
302.547
302.587
302.613
302.617
302.586
302.512
302.4
302.279
302.173
302.095
302.049
302.027
302.021
302.022
302.027
302.032
302.037
302.04
302.042
302.043
302.043
302.043
302.043
302.042
302.041
302.04
302.039
302.042
302.052
302.085
302.098
302.112
302.245
303.757
302.639
302.42
302.401
302.439
302.485
302.535
302.585
302.635
302.675
302.692
302.664
302.575
302.436
302.291
302.17
302.086
302.037
302.016
302.013
302.019
302.028
302.036
302.042
302.046
302.048
302.049
302.049
302.048
302.047
302.045
302.044
302.042
302.04
302.04
302.047
302.066
302.079
302.096
302.227
303.91
302.783
302.516
302.436
302.457
302.499
302.544
302.592
302.642
302.701
302.731
302.7
302.597
302.444
302.285
302.153
302.064
302.017
302.002
302.006
302.019
302.033
302.044
302.051
302.055
302.057
302.057
302.055
302.053
302.051
302.049
302.046
302.043
302.041
302.04
302.043
302.055
302.067
302.105
302.405
304.118
303.233
302.844
302.589
302.504
302.516
302.552
302.593
302.65
302.719
302.754
302.712
302.589
302.418
302.246
302.111
302.027
301.991
301.988
302.003
302.023
302.042
302.055
302.063
302.066
302.066
302.064
302.061
302.058
302.055
302.051
302.048
302.045
302.042
302.04
302.042
302.05
302.078
302.154
302.552
304.103
303.535
303.163
302.863
302.687
302.618
302.609
302.633
302.703
302.773
302.786
302.708
302.546
302.35
302.172
302.045
301.979
301.962
301.977
302.006
302.035
302.058
302.071
302.076
302.076
302.074
302.07
302.065
302.061
302.057
302.053
302.049
302.045
302.042
302.041
302.042
302.066
302.232
302.348
302.557
304.107
303.67
303.356
303.096
302.915
302.816
302.778
302.787
302.836
302.865
302.815
302.666
302.451
302.233
302.061
301.96
301.926
301.94
301.978
302.021
302.056
302.079
302.088
302.089
302.085
302.079
302.073
302.067
302.062
302.057
302.053
302.049
302.045
302.043
302.041
302.046
302.123
302.308
302.426
302.574
304.139
303.758
303.494
303.282
303.128
303.034
302.991
302.991
302.994
302.939
302.781
302.538
302.275
302.057
301.921
301.869
301.883
301.934
301.996
302.051
302.087
302.103
302.105
302.098
302.09
302.081
302.074
302.067
302.062
302.057
302.053
302.049
302.046
302.043
302.043
302.053
302.138
302.328
302.459
302.597
304.205
303.877
303.634
303.451
303.319
303.233
303.186
303.158
303.07
302.872
302.578
302.258
301.993
301.829
301.772
301.797
301.87
301.96
302.04
302.096
302.123
302.126
302.118
302.106
302.094
302.084
302.075
302.069
302.063
302.058
302.054
302.05
302.048
302.047
302.049
302.062
302.129
302.303
302.429
302.567
304.139
303.889
303.681
303.539
303.424
303.333
303.256
303.124
302.848
302.467
302.081
301.786
301.627
301.598
301.664
301.781
301.911
302.027
302.108
302.149
302.156
302.146
302.131
302.116
302.103
302.092
302.082
302.074
302.068
302.063
302.06
302.057
302.057
302.061
302.072
302.092
302.146
302.283
302.391
302.516
304.28
304.088
303.617
303.296
303.093
302.927
302.735
302.361
301.887
301.491
301.265
301.216
301.305
301.472
301.669
301.863
302.019
302.132
302.183
302.194
302.186
302.17
302.154
302.138
302.124
302.112
302.102
302.093
302.086
302.081
302.078
302.078
302.085
302.102
302.13
302.164
302.21
302.303
302.386
302.509
294.643
296.445
298.14
299.04
299.383
299.57
299.821
300.151
300.526
300.906
301.267
301.581
301.839
302.047
302.168
302.226
302.243
302.238
302.224
302.209
302.194
302.182
302.171
302.161
302.151
302.142
302.133
302.127
302.124
302.128
302.142
302.173
302.218
302.27
302.326
302.387
302.445
302.551
294.923
295.747
296.642
297.501
298.273
298.998
299.684
300.3
300.825
301.264
301.638
301.917
302.104
302.223
302.282
302.301
302.299
302.289
302.278
302.268
302.26
302.255
302.252
302.249
302.244
302.237
302.225
302.214
302.207
302.206
302.217
302.246
302.294
302.357
302.428
302.496
302.544
302.604
299.761
298.685
297.309
296.751
297.504
298.507
299.409
300.145
300.719
301.161
301.522
301.813
302.038
302.197
302.296
302.346
302.364
302.364
302.358
302.35
302.345
302.342
302.343
302.347
302.352
302.357
302.359
302.356
302.345
302.33
302.314
302.304
302.302
302.315
302.344
302.389
302.444
302.502
302.559
302.64
300.118
299.987
299.401
298.878
299.28
300.001
300.663
301.184
301.572
301.855
302.062
302.213
302.318
302.382
302.414
302.425
302.425
302.421
302.416
302.413
302.413
302.418
302.426
302.437
302.449
302.459
302.464
302.464
302.457
302.442
302.424
302.408
302.398
302.396
302.406
302.427
302.456
302.491
302.537
302.598
300.841
300.829
300.883
300.971
301.126
301.471
301.795
302.043
302.217
302.335
302.413
302.462
302.49
302.503
302.507
302.505
302.501
302.497
302.495
302.496
302.501
302.509
302.521
302.534
302.546
302.555
302.559
302.558
302.551
302.542
302.53
302.519
302.513
302.511
302.517
302.529
302.548
302.571
302.593
302.637
)
;

boundaryField
{
    floor
    {
        type            wallHeatTransfer;
        Tinf            uniform 305.2;
        alphaWall       uniform 0.36;
        value           nonuniform List<scalar> 
36
(
302.544
302.868
302.622
302.613
302.621
302.639
302.665
302.693
302.722
302.751
302.779
302.806
302.832
302.858
302.883
302.91
302.94
302.968
303.04
303.04
302.909
302.841
302.792
302.711
302.622
302.716
302.544
302.487
302.488
302.498
302.868
302.498
302.535
302.417
302.434
302.394
)
;
    }
    ceiling
    {
        type            wallHeatTransfer;
        Tinf            uniform 303.2;
        alphaWall       uniform 0.36;
        value           nonuniform List<scalar> 
43
(
301.029
301.042
301.092
301.168
301.306
301.624
301.927
302.158
302.321
302.433
302.509
302.559
302.59
302.605
302.611
302.61
302.607
302.603
302.601
302.601
302.605
302.611
302.619
302.629
302.637
302.642
302.644
302.64
302.632
302.622
302.609
302.598
302.59
302.586
302.589
302.597
302.612
302.63
302.647
302.687
304.19
304.016
295.883
)
;
    }
    sWall
    {
        type            wallHeatTransfer;
        Tinf            uniform 315.2;
        alphaWall       uniform 0.54;
        value           nonuniform List<scalar> 9(305.123 305.181 305.292 305.437 305.375 305.601 301.39 301.766 302.494);
    }
    nWall
    {
        type            wallHeatTransfer;
        Tinf            uniform 308.2;
        alphaWall       uniform 0.54;
        value           nonuniform List<scalar> 
14
(
303.579
303.435
303.293
303.305
303.329
303.363
303.318
303.252
303.24
303.295
303.359
303.374
303.272
303.354
)
;
    }
    sideWalls
    {
        type            empty;
    }
    glass1
    {
        type            wallHeatTransfer;
        Tinf            uniform 315.2;
        alphaWall       uniform 4.3;
        value           nonuniform List<scalar> 9(311.625 310.812 310.3 309.912 309.605 309.358 309.142 308.996 309.046);
    }
    glass2
    {
        type            wallHeatTransfer;
        Tinf            uniform 308.2;
        alphaWall       uniform 4.3;
        value           nonuniform List<scalar> 2(305.779 305.673);
    }
    sun
    {
        type            wallHeatTransfer;
        Tinf            uniform 305.2;
        alphaWall       uniform 0.36;
        value           nonuniform List<scalar> 
14
(
303.018
302.731
302.719
302.7
302.684
302.669
302.656
302.643
302.631
302.618
302.605
302.591
302.576
302.56
)
;
    }
    Table_master
    {
        type            zeroGradient;
    }
    Table_slave
    {
        type            zeroGradient;
    }
    inlet
    {
        type            fixedValue;
        value           uniform 293.15;
    }
    outlet
    {
        type            zeroGradient;
    }
}


// ************************************************************************* //
