/*--------------------------------*- C++ -*----------------------------------*\
  =========                 |
  \\      /  F ield         | OpenFOAM: The Open Source CFD Toolbox
   \\    /   O peration     | Website:  https://openfoam.org
    \\  /    A nd           | Version:  6
     \\/     M anipulation  |
\*---------------------------------------------------------------------------*/
FoamFile
{
    version     2.0;
    format      ascii;
    class       volScalarField;
    location    "44099.9999999972279";
    object      alphat;
}
// * * * * * * * * * * * * * * * * * * * * * * * * * * * * * * * * * * * * * //

dimensions      [1 -1 -1 0 0 0 0];

internalField   nonuniform List<scalar> 
778
(
0.00104101
0.00111058
0.0011066
0.00115464
0.00119867
0.00123865
0.00127586
0.00131173
0.00134783
0.00138621
0.00142279
0.00145756
0.00149181
0.00152867
0.00156713
0.000736681
0.00105556
0.00106402
0.00103819
0.000995054
0.000937466
0.000880128
0.000827337
0.000779742
0.000737052
0.000698996
0.000664806
0.000633658
0.000604586
0.000576296
0.000546718
0.00052216
0.000472623
0.00152468
0.00300742
0.00263937
0.00304649
0.00334196
0.00365519
0.00396761
0.00425547
0.00448711
0.0046219
0.00470116
0.00466853
0.00443583
0.00385925
0.00281875
0.00171599
0.00163612
0.0015662
0.00131908
0.00224668
0.00311383
0.0036257
0.00364938
0.00288
0.00246311
0.00217399
0.00195459
0.00178018
0.00163153
0.00150008
0.00137772
0.001258
0.00115054
0.00105788
0.00119172
0.000599295
0.00193417
0.00419899
0.00311347
0.00445333
0.00497613
0.0054185
0.00582018
0.00617359
0.00647286
0.0067074
0.00693477
0.0071742
0.00739451
0.00752621
0.00744062
0.00681422
0.0049848
0.00192141
0.00166373
0.00355896
0.00496724
0.0056336
0.00512401
0.00135196
0.00117551
0.00103936
0.000932834
0.000848094
0.000779724
0.000723977
0.00067864
0.000643289
0.000707179
0.000831908
0.00131769
0.000681902
0.00232914
0.00565872
0.00297918
0.00500686
0.00578064
0.00619457
0.0064988
0.00672372
0.00689143
0.00702725
0.00722068
0.00754783
0.00802563
0.00862706
0.00923253
0.00953257
0.0089548
0.00668676
0.0019135
0.00442638
0.00658917
0.00769009
0.00796276
0.00679898
0.00153932
0.00140013
0.00129237
0.00120269
0.00112628
0.00105767
0.000993017
0.00092882
0.000859486
0.000802893
0.000832287
0.00142695
0.000750944
0.00271842
0.00749093
0.00300574
0.00475928
0.00594881
0.00630159
0.00642942
0.006434
0.00636969
0.00631269
0.00639341
0.00671103
0.00729441
0.00812127
0.00908101
0.00996615
0.0105281
0.0105226
0.00944356
0.00960809
0.00982966
0.00986219
0.00966283
0.00904525
0.00719903
0.00621872
0.0055471
0.00500192
0.00446668
0.00394796
0.00344041
0.00293366
0.00241334
0.00185374
0.00141445
0.00141341
0.0011183
0.00089576
0.00118777
0.0011377
0.00310137
0.00954121
0.00353872
0.00401314
0.00569932
0.00609064
0.0060589
0.00584032
0.00552808
0.00527061
0.00526463
0.00559734
0.00626187
0.00722037
0.00834269
0.00946509
0.0104196
0.0110298
0.0111415
0.0110304
0.0108358
0.0105593
0.0102034
0.00974989
0.0090877
0.00844947
0.00786988
0.00730997
0.00670489
0.00605852
0.00536819
0.00462826
0.00383415
0.00299168
0.00222874
0.00167335
0.00129978
0.00145957
0.00254373
0.00135984
0.00349217
0.0114364
0.00471571
0.00328773
0.00512073
0.00576086
0.00568926
0.00533577
0.00482336
0.00437293
0.00435994
0.00478018
0.00554088
0.0066127
0.00783199
0.00903962
0.0100789
0.0108232
0.0111658
0.0111401
0.0108963
0.0105265
0.0101028
0.00967978
0.0092705
0.00889477
0.00854166
0.00816494
0.00770945
0.0071611
0.00651213
0.00575964
0.00490652
0.00397409
0.00306195
0.00221285
0.00163001
0.0014567
0.00259331
0.00160445
0.00382793
0.0128689
0.00642865
0.00313081
0.00405609
0.00510698
0.00525317
0.00496264
0.00435723
0.00374484
0.00388361
0.00443967
0.00529103
0.00639583
0.00766317
0.00892736
0.010005
0.0107533
0.011093
0.0110488
0.0107334
0.0102679
0.00976699
0.00932254
0.0089799
0.00873509
0.00854404
0.00833635
0.00804678
0.00764149
0.00710494
0.00643412
0.00563531
0.0047315
0.00379016
0.00283995
0.00198184
0.00134121
0.00371998
0.0021045
0.00392907
0.0121727
0.00795126
0.00404814
0.00274937
0.00336875
0.00394334
0.00399191
0.00352455
0.00342517
0.00378082
0.00443514
0.00535687
0.00653003
0.00785946
0.00916276
0.0102357
0.0109248
0.0111659
0.0109986
0.0105407
0.00994029
0.00934429
0.00886858
0.00856668
0.00841867
0.00835162
0.00827185
0.00810502
0.00781191
0.00737719
0.00679937
0.00608549
0.00525367
0.00433883
0.00331004
0.00189867
0.00173674
0.00572684
0.00241282
0.00384949
0.0098095
0.00820767
0.00555433
0.00366885
0.00284012
0.00268963
0.00281639
0.00305275
0.00342909
0.00396394
0.00470142
0.00570584
0.00697295
0.00837615
0.00969768
0.0107129
0.0112693
0.0113246
0.0109472
0.0102854
0.00952402
0.00884384
0.00837752
0.00816404
0.00813972
0.00818655
0.00818599
0.0080776
0.00783985
0.00746575
0.00695483
0.00631056
0.00553792
0.00461588
0.00325017
0.00139223
0.00344632
0.00529217
0.00243809
0.00360569
0.00838263
0.00793333
0.00635344
0.00489078
0.00393735
0.00346538
0.00335824
0.00355304
0.00391251
0.00443631
0.00521671
0.00632869
0.0077204
0.00919595
0.010488
0.0113593
0.0116781
0.0114437
0.0107726
0.00986395
0.00895391
0.00826096
0.00791304
0.00787404
0.00798993
0.00810582
0.00810831
0.00799355
0.00776326
0.00741348
0.00693832
0.00633021
0.00556902
0.0045702
0.00297437
0.00146865
0.00373817
0.0054303
0.00242727
0.00328289
0.00755819
0.00765181
0.00672359
0.00572082
0.00496528
0.00452003
0.00436039
0.00439993
0.00461746
0.00510017
0.00597494
0.00726374
0.00880712
0.0103131
0.0114711
0.0120582
0.0119967
0.011356
0.0103231
0.00917351
0.00821108
0.00766429
0.00755674
0.00765752
0.00781201
0.00791122
0.00788249
0.00774845
0.00751578
0.00717711
0.00671091
0.00608643
0.00524059
0.00406959
0.00257931
0.00173258
0.00376367
0.00591828
0.00249165
0.00299345
0.0067622
0.00730681
0.00686844
0.00622506
0.00568417
0.00532417
0.00514797
0.005096
0.00528341
0.00589893
0.00704528
0.00860727
0.0102775
0.0116805
0.0125084
0.0126081
0.0119989
0.0108552
0.00945878
0.00819324
0.00738009
0.00702744
0.00699774
0.00711468
0.00725506
0.00733509
0.00730399
0.00716477
0.00692762
0.00657847
0.00607439
0.00532802
0.00424246
0.00293306
0.00202495
0.00212011
0.00413663
0.0058673
0.0026281
0.00300443
0.00671239
0.00746609
0.00695113
0.00643027
0.0060036
0.00569584
0.00549655
0.00549022
0.00594572
0.00703341
0.00865968
0.0104909
0.0120976
0.0131055
0.0133024
0.012678
0.0113854
0.00974957
0.00816276
0.00701124
0.00634352
0.00605094
0.00600658
0.00608984
0.00619631
0.0062518
0.0062167
0.00605971
0.00579783
0.00540101
0.00478266
0.00382984
0.00268289
0.00194785
0.00197418
0.00271155
0.00467548
0.00617302
0.00262518
0.00271029
0.00282058
0.00416525
0.00489704
0.00512426
0.00512897
0.00508066
0.00517784
0.00581057
0.00716134
0.0090659
0.0111208
0.012869
0.0139315
0.0140935
0.0133278
0.0118287
0.00988531
0.00803342
0.00658749
0.00563237
0.00510673
0.0048891
0.00484117
0.00485595
0.00486068
0.00481377
0.00469999
0.00449717
0.00420859
0.00382341
0.00328279
0.00258208
0.00199922
0.00192146
0.00240957
0.00335265
0.00466338
0.00559146
0.00247108
0.000963951
0.00173717
0.00266426
0.00340835
0.00427439
0.00574531
0.00791162
0.0103204
0.0125144
0.0141473
0.0149805
0.0148625
0.0138099
0.0119493
0.00975548
0.00769274
0.00607187
0.00500828
0.00444634
0.00419282
0.00407876
0.00400572
0.00392107
0.00379936
0.00363753
0.00345004
0.00325726
0.00305601
0.00284839
0.00261567
0.00235344
0.00216776
0.00228628
0.00284413
0.0037498
0.00469115
0.00505756
0.00235413
0.00178759
0.00246767
0.00358881
0.00559238
0.00831165
0.011035
0.013143
0.0146658
0.0155859
0.0158289
0.0152685
0.0137875
0.0116252
0.00920773
0.00701734
0.00541078
0.00450003
0.00409229
0.00393068
0.00385985
0.003808
0.00374314
0.00365435
0.00354545
0.00342955
0.0033208
0.00322623
0.0031413
0.00306143
0.00298497
0.00291767
0.00289667
0.00302691
0.00346433
0.00428462
0.0053692
0.00632466
0.00243988
0.00323861
0.0078748
0.00726636
0.00649117
0.00822808
0.0109518
0.0132455
0.0147943
0.0156156
0.0158215
0.015499
0.0145856
0.0130271
0.010881
0.00847776
0.00636712
0.00499941
0.00435632
0.0041277
0.00406837
0.00405947
0.00404968
0.0040187
0.00396316
0.00388983
0.00381005
0.00373523
0.00367485
0.00363685
0.00362777
0.00364956
0.0037012
0.00378399
0.00392417
0.00418245
0.00464865
0.00546281
0.00696688
0.00718858
0.00265911
0.00309527
0.00597933
0.00771419
0.00987572
0.0109546
0.0120629
0.0127041
0.0128553
0.0126087
0.0120243
0.011114
0.00986472
0.00831137
0.00665423
0.0052408
0.00434854
0.00392682
0.00378552
0.00377853
0.00382425
0.0038777
0.00391435
0.00392406
0.00390722
0.00387025
0.00382154
0.00377041
0.00372954
0.00371789
0.00376041
0.00388265
0.00410118
0.00440494
0.00475797
0.00515332
0.00569833
0.00649706
0.0078162
0.00772179
0.00276523
0.00289448
0.00248118
0.0024689
0.00254112
0.00260073
0.00252344
0.00237347
0.00219823
0.00202099
0.00184923
0.00168428
0.00152963
0.00139636
0.00130012
0.00124809
0.00122873
0.00122931
0.00123968
0.00125406
0.00126953
0.00128479
0.00129961
0.00131463
0.00133119
0.00135125
0.00137736
0.00141253
0.00145995
0.00152201
0.00159911
0.00168903
0.00178796
0.00189284
0.00200405
0.00212106
0.00224206
0.00236808
0.00250387
0.00264638
0.00253688
)
;

boundaryField
{
    floor
    {
        type            compressible::alphatWallFunction;
        Prt             0.85;
        value           nonuniform List<scalar> 
36
(
0.000219857
0.000104462
0.000149962
0.000151144
0.000147529
0.000141467
0.000133327
0.000125163
0.000117592
0.000110716
0.000104507
9.89348e-05
9.38979e-05
8.92817e-05
8.49482e-05
8.07067e-05
7.62445e-05
7.25173e-05
6.49318e-05
6.4931e-05
8.41578e-05
9.64212e-05
0.000106532
0.000127398
0.000168357
0.000161422
0.000219855
0.000239669
0.00022906
0.000219726
0.00010446
0.000219724
0.000186347
0.000266702
0.000232726
0.000265668
)
;
    }
    ceiling
    {
        type            compressible::alphatWallFunction;
        Prt             0.85;
        value           nonuniform List<scalar> 
43
(
0.000391146
0.000338968
0.00033741
0.000346603
0.000354179
0.000344407
0.000325321
0.000302845
0.000279912
0.000257476
0.000235711
0.000215084
0.000197108
0.000183996
0.000176855
0.000174182
0.000174256
0.000175682
0.000177663
0.000179792
0.000181889
0.000183923
0.000185976
0.000188229
0.000190945
0.000194464
0.00019919
0.000205542
0.000213837
0.000224118
0.000236079
0.00024919
0.000263025
0.000277607
0.00029288
0.00030857
0.000324797
0.000342159
0.000360229
0.000346208
0.000368322
0.000382186
0.000248643
)
;
    }
    sWall
    {
        type            compressible::alphatWallFunction;
        Prt             0.85;
        value           nonuniform List<scalar> 9(0.000507607 0.000477866 0.000438171 0.000402244 0.000403603 0.000366747 0.000432059 0.000414336 0.000389396);
    }
    nWall
    {
        type            compressible::alphatWallFunction;
        Prt             0.85;
        value           nonuniform List<scalar> 
14
(
0.000160974
0.000191445
0.000224373
0.000332997
0.000331698
0.000340221
0.000357335
0.000356583
0.000336917
0.000322074
0.000333603
0.00036097
0.000374273
0.000345513
)
;
    }
    sideWalls
    {
        type            empty;
    }
    glass1
    {
        type            compressible::alphatWallFunction;
        Prt             0.85;
        value           nonuniform List<scalar> 9(0.00014393 0.000209137 0.000262695 0.000313304 0.000362379 0.000410003 0.000458016 0.000498876 0.000511231);
    }
    glass2
    {
        type            compressible::alphatWallFunction;
        Prt             0.85;
        value           nonuniform List<scalar> 2(0.000287898 0.000327394);
    }
    sun
    {
        type            compressible::alphatWallFunction;
        Prt             0.85;
        value           nonuniform List<scalar> 
14
(
0.000147964
0.000157652
0.000157096
0.000163765
0.000169849
0.000175351
0.000180454
0.000185357
0.000190277
0.00019549
0.000200445
0.00020514
0.000209754
0.000214704
)
;
    }
    Table_master
    {
        type            compressible::alphatWallFunction;
        Prt             0.85;
        value           nonuniform List<scalar> 9(0.000191093 0.000166899 0.000147946 0.000132918 0.000120819 0.000110952 0.000102831 9.617e-05 9.09389e-05);
    }
    Table_slave
    {
        type            compressible::alphatWallFunction;
        Prt             0.85;
        value           nonuniform List<scalar> 9(0.000216401 0.000197639 0.000182969 0.000170656 0.00016008 0.000150516 0.000141435 0.000132351 0.000122456);
    }
    inlet
    {
        type            fixedValue;
        value           uniform 1.94e-05;
    }
    outlet
    {
        type            zeroGradient;
    }
}


// ************************************************************************* //
