/*--------------------------------*- C++ -*----------------------------------*\
  =========                 |
  \\      /  F ield         | OpenFOAM: The Open Source CFD Toolbox
   \\    /   O peration     | Website:  https://openfoam.org
    \\  /    A nd           | Version:  6
     \\/     M anipulation  |
\*---------------------------------------------------------------------------*/
FoamFile
{
    version     2.0;
    format      ascii;
    class       volScalarField;
    location    "39199.9999989989665";
    object      alphat;
}
// * * * * * * * * * * * * * * * * * * * * * * * * * * * * * * * * * * * * * //

dimensions      [1 -1 -1 0 0 0 0];

internalField   nonuniform List<scalar> 
778
(
0.00104097
0.00111054
0.00110657
0.00115463
0.00119869
0.0012387
0.00127595
0.00131186
0.00134801
0.00138643
0.00142305
0.00145783
0.00149209
0.00152893
0.00156737
0.000736888
0.00105521
0.00106373
0.00103794
0.000994858
0.000937359
0.000880074
0.00082728
0.000779657
0.000736943
0.000698882
0.000664698
0.000633561
0.000604503
0.000576225
0.000546658
0.000522119
0.000472593
0.00152463
0.0030072
0.00263922
0.00304622
0.0033416
0.00365481
0.00396729
0.0042553
0.00448715
0.0046221
0.00470144
0.00466876
0.00443586
0.00385904
0.00281852
0.00171608
0.00163621
0.00156622
0.00131857
0.00224599
0.00311262
0.00362419
0.00364785
0.00287949
0.00246253
0.0021736
0.00195446
0.00178021
0.0016315
0.0015
0.00137762
0.00125789
0.00115042
0.00105774
0.00119168
0.000599128
0.00193408
0.00419857
0.00311349
0.00445309
0.00497569
0.00541803
0.00581985
0.00617354
0.00647319
0.00670808
0.00693568
0.00717509
0.00739497
0.00752566
0.0074385
0.00681055
0.00498131
0.00192117
0.00166379
0.00355994
0.00496724
0.00563201
0.00512088
0.00135124
0.00117488
0.00103889
0.000932523
0.000847899
0.000779599
0.000723882
0.000678551
0.0006432
0.000707255
0.00083202
0.00131808
0.000681548
0.00232899
0.00565797
0.00297922
0.00500695
0.00578038
0.00619424
0.00649858
0.00672378
0.00689193
0.00702826
0.00722216
0.00754964
0.00802737
0.00862807
0.00923208
0.00952985
0.00894913
0.00667768
0.00191377
0.00443306
0.00659614
0.00769391
0.00796349
0.00679709
0.00153905
0.00139974
0.00129192
0.0012023
0.00112594
0.00105738
0.000992754
0.000928557
0.0008592
0.000802844
0.000832484
0.00142789
0.000750238
0.00271822
0.00748981
0.00300547
0.00475984
0.00594882
0.00630144
0.00642932
0.00643412
0.00637021
0.00631377
0.00639507
0.00671323
0.0072968
0.00812328
0.00908238
0.00996664
0.0105286
0.0105236
0.00944589
0.00961276
0.00983426
0.00986517
0.00966382
0.00904414
0.00719645
0.00621566
0.00554402
0.00499792
0.00446284
0.00394477
0.00343799
0.00293188
0.00241198
0.00185252
0.00141335
0.00141319
0.00111751
0.000895037
0.00119171
0.00113466
0.00310113
0.00953984
0.00353784
0.00401394
0.00569968
0.00609068
0.00605891
0.00584047
0.00552853
0.00527144
0.00526588
0.00559896
0.00626346
0.00722121
0.00834315
0.0094651
0.010421
0.0110326
0.0111453
0.0110348
0.0108397
0.0105621
0.0102046
0.0097497
0.00908618
0.00844725
0.00786736
0.00730634
0.00670107
0.00605509
0.00536532
0.00462586
0.00383206
0.00298978
0.00222669
0.00167178
0.00129768
0.00146738
0.00256388
0.00135402
0.00349186
0.0114351
0.00471402
0.00328824
0.00512151
0.00576106
0.00568926
0.00533579
0.00482354
0.00437324
0.00436042
0.0047807
0.00554077
0.00661073
0.00782949
0.00903722
0.0100778
0.0108241
0.0111684
0.0111432
0.0108992
0.0105286
0.0101038
0.00967994
0.00926992
0.00889378
0.00854049
0.00816296
0.00770723
0.00715897
0.00651009
0.00575755
0.00490442
0.00397233
0.00306029
0.00220928
0.00162604
0.00146262
0.0026105
0.00160156
0.0038276
0.0128681
0.00642642
0.00313032
0.00405763
0.00510797
0.0052533
0.00496235
0.00435801
0.00374458
0.0038836
0.00443927
0.00528905
0.00639145
0.00765696
0.00892099
0.0100003
0.010751
0.0110928
0.0110496
0.0107342
0.0102683
0.00976694
0.00932218
0.00897928
0.00873432
0.00854329
0.00833522
0.00804568
0.00764053
0.0071039
0.00643277
0.00563394
0.00473109
0.00379104
0.00283579
0.00197532
0.00132811
0.00386662
0.00212054
0.00392888
0.0121736
0.00794954
0.00404558
0.00274974
0.00337177
0.00394529
0.00399244
0.00352496
0.00342546
0.00378118
0.00443439
0.00535328
0.00652272
0.00784942
0.00915243
0.0102274
0.0109194
0.0111628
0.0109964
0.0105385
0.00993787
0.00934205
0.00886667
0.0085649
0.00841686
0.00834991
0.00827014
0.00810382
0.00781126
0.00737679
0.00679902
0.00608587
0.00525644
0.00434434
0.00331534
0.00190871
0.00167756
0.00614331
0.0023822
0.00384947
0.00981167
0.00820735
0.00555178
0.00366642
0.00283928
0.0026904
0.0028177
0.00305372
0.00343017
0.00396467
0.00470009
0.00570031
0.00696249
0.00836258
0.00968431
0.0107023
0.011262
0.0113192
0.0109418
0.0102793
0.00951779
0.00883851
0.0083731
0.00815977
0.00813514
0.00818197
0.00818153
0.00807429
0.00783774
0.00746452
0.00695466
0.0063129
0.00554387
0.00462264
0.00332909
0.0014939
0.00292005
0.00592201
0.00243772
0.00360593
0.00838508
0.00793394
0.00635199
0.00488861
0.00393549
0.00346428
0.00335796
0.00355343
0.00391342
0.00443657
0.00521388
0.00632037
0.00770662
0.00917981
0.0104737
0.0113491
0.0116711
0.0114372
0.0107641
0.00985358
0.00894361
0.00825249
0.00790517
0.00786515
0.00798027
0.00809691
0.00809901
0.00798612
0.00775723
0.00740805
0.00693463
0.00633
0.00556197
0.00449823
0.00291474
0.00161178
0.00320416
0.00659553
0.00247225
0.00328336
0.00755983
0.00765247
0.00672281
0.00571932
0.00496359
0.00451846
0.00435871
0.00439932
0.00461748
0.00509896
0.00596936
0.00725176
0.00879053
0.0102969
0.0114599
0.0120529
0.0119935
0.0113501
0.0103122
0.00916042
0.00819895
0.00765286
0.00754285
0.00764061
0.007796
0.00789716
0.007869
0.00773727
0.00750446
0.00716413
0.00670383
0.00608234
0.00518493
0.00375126
0.00214996
0.00190794
0.0037884
0.00661442
0.00257207
0.00299382
0.00676192
0.00730628
0.00686726
0.00622349
0.00568236
0.0053223
0.0051466
0.00509534
0.00528263
0.00589538
0.00703571
0.0085916
0.0102607
0.0116698
0.0125076
0.0126143
0.012004
0.010853
0.00944973
0.00818493
0.00736928
0.00700677
0.00696491
0.00707947
0.00723007
0.00732283
0.00729318
0.00715767
0.00691845
0.00656697
0.00607233
0.00532315
0.00404956
0.00240406
0.00178624
0.00244449
0.00419705
0.0064335
0.00244815
0.00300369
0.00671198
0.00746447
0.00694949
0.00642855
0.00600182
0.00569422
0.005496
0.00549007
0.00594387
0.00702625
0.00864554
0.0104742
0.0120879
0.0131109
0.0133228
0.0127041
0.0114046
0.00975922
0.00816742
0.00700847
0.00631885
0.00599811
0.0059372
0.00602882
0.00616643
0.00625392
0.00622124
0.00606707
0.0057987
0.00541186
0.00486795
0.00403411
0.00280839
0.00186932
0.00199527
0.00295355
0.00429974
0.00531006
0.00232475
0.00270976
0.00282042
0.00416501
0.00489679
0.00512439
0.00512982
0.00508251
0.00518008
0.00581146
0.00715725
0.00905406
0.0111047
0.0128601
0.0139434
0.0141315
0.0133826
0.0118842
0.0099308
0.00806875
0.00660435
0.00561549
0.00505061
0.00480201
0.00474569
0.00478557
0.0048423
0.00484294
0.00473595
0.00450914
0.00419176
0.00381026
0.00337657
0.00286487
0.00228095
0.00192662
0.00223379
0.00320135
0.00442845
0.0054255
0.00227385
0.000963674
0.00173786
0.00266821
0.00341641
0.00428564
0.00575403
0.00791441
0.0103139
0.0125017
0.0141406
0.0149978
0.0149177
0.0139001
0.0120533
0.00985752
0.0077764
0.00611952
0.00500836
0.00440003
0.00410921
0.00397631
0.00391222
0.00386507
0.00379315
0.0036632
0.00346715
0.00322265
0.0029756
0.00276245
0.00259724
0.00247008
0.00237053
0.00235662
0.00264037
0.00347031
0.00483872
0.00594775
0.00244939
0.00178739
0.00247321
0.00360157
0.00561236
0.00833186
0.0110506
0.0131483
0.0146628
0.0155851
0.0158498
0.015335
0.0139149
0.0118018
0.00939731
0.00717827
0.00550625
0.00451718
0.00403702
0.00382025
0.00372042
0.0036701
0.00363297
0.00358242
0.00349904
0.00337841
0.00323761
0.00310704
0.00301347
0.00296681
0.00296231
0.00299147
0.00305897
0.00320236
0.00351738
0.00421624
0.0058744
0.00642734
0.00252958
0.00323735
0.00786723
0.00726598
0.00650648
0.00825569
0.0109816
0.0132715
0.0148124
0.0156249
0.0158275
0.0155214
0.0146567
0.0131724
0.0111125
0.00874326
0.00656877
0.00507612
0.00429736
0.00395284
0.00381441
0.0037746
0.00378379
0.00381047
0.00382948
0.00382355
0.00378855
0.00373531
0.00368322
0.00364842
0.00363935
0.00365843
0.00370601
0.00378817
0.00392557
0.00416258
0.00457902
0.0053466
0.00723315
0.00733771
0.00260445
0.00309494
0.00598359
0.00773464
0.00989906
0.0109853
0.0120969
0.0127376
0.0128851
0.0126342
0.0120524
0.0111638
0.00996999
0.00851166
0.00694697
0.0055479
0.0045275
0.00392584
0.00361416
0.00347806
0.00345453
0.00350656
0.00360368
0.00371602
0.00381691
0.00388922
0.00393048
0.00395168
0.003969
0.00399398
0.00402973
0.00407694
0.00414024
0.0042352
0.0043908
0.00464539
0.00503672
0.00562814
0.006873
0.00770675
0.00265017
0.0028953
0.00248105
0.00246872
0.00254058
0.00259977
0.00252178
0.00237183
0.00219844
0.00202587
0.00186203
0.0017073
0.00156217
0.0014325
0.00133003
0.00126629
0.0012382
0.00123194
0.00123951
0.00125543
0.0012759
0.00129823
0.0013206
0.00134203
0.0013623
0.00138187
0.00140178
0.00142336
0.00144805
0.00147733
0.0015131
0.0015583
0.00161738
0.00169601
0.00179936
0.00192936
0.00208366
0.00225746
0.00244507
0.00263242
0.00245715
)
;

boundaryField
{
    floor
    {
        type            compressible::alphatWallFunction;
        Prt             0.85;
        value           nonuniform List<scalar> 
36
(
0.000219889
0.000104492
0.000149914
0.000151104
0.000147495
0.00014144
0.000133312
0.000125156
0.000117584
0.000110704
0.000104491
9.89185e-05
9.38822e-05
8.92676e-05
8.4936e-05
8.06963e-05
7.62358e-05
7.25114e-05
6.49274e-05
6.49266e-05
8.41328e-05
9.6369e-05
0.00010643
0.000127293
0.000168871
0.000160983
0.000219886
0.000239682
0.000229074
0.00021973
0.000104491
0.000219728
0.000186276
0.000266672
0.000232734
0.000265703
)
;
    }
    ceiling
    {
        type            compressible::alphatWallFunction;
        Prt             0.85;
        value           nonuniform List<scalar> 
43
(
0.000391249
0.000338951
0.000337386
0.000346532
0.000354052
0.000344185
0.000325094
0.000302844
0.00028051
0.000259114
0.000238721
0.000219412
0.00020199
0.00018809
0.000179366
0.000175504
0.000174632
0.000175664
0.000177848
0.000180658
0.000183721
0.000186789
0.000189723
0.000192493
0.000195162
0.000197868
0.000200792
0.000204124
0.000208061
0.000212849
0.000218864
0.000226681
0.000237034
0.000250583
0.00026756
0.000287617
0.000310073
0.000334133
0.000357975
0.000335696
0.000368255
0.000382165
0.000248617
)
;
    }
    sWall
    {
        type            compressible::alphatWallFunction;
        Prt             0.85;
        value           nonuniform List<scalar> 9(0.000507605 0.000477895 0.00043823 0.00040229 0.000403511 0.00036668 0.000431904 0.000414296 0.000389498);
    }
    nWall
    {
        type            compressible::alphatWallFunction;
        Prt             0.85;
        value           nonuniform List<scalar> 
14
(
0.000160535
0.000190642
0.000223959
0.000332864
0.000337246
0.00034961
0.000333827
0.000318118
0.000311918
0.000334538
0.000344522
0.000353906
0.000359492
0.000335004
)
;
    }
    sideWalls
    {
        type            empty;
    }
    glass1
    {
        type            compressible::alphatWallFunction;
        Prt             0.85;
        value           nonuniform List<scalar> 9(0.000143925 0.00020913 0.000262683 0.000313286 0.000362354 0.000409973 0.000457979 0.000498837 0.000511208);
    }
    glass2
    {
        type            compressible::alphatWallFunction;
        Prt             0.85;
        value           nonuniform List<scalar> 2(0.000289864 0.000323378);
    }
    sun
    {
        type            compressible::alphatWallFunction;
        Prt             0.85;
        value           nonuniform List<scalar> 
14
(
0.000147959
0.000157645
0.000157092
0.000163764
0.000169851
0.000175358
0.000180466
0.000185375
0.000190302
0.00019552
0.00020048
0.000205177
0.000209791
0.000214739
)
;
    }
    Table_master
    {
        type            compressible::alphatWallFunction;
        Prt             0.85;
        value           nonuniform List<scalar> 9(0.000190996 0.000166812 0.000147881 0.000132875 0.000120792 0.000110935 0.000102817 9.61574e-05 9.0926e-05);
    }
    Table_slave
    {
        type            compressible::alphatWallFunction;
        Prt             0.85;
        value           nonuniform List<scalar> 9(0.000216365 0.000197586 0.000182908 0.000170602 0.000160035 0.000150476 0.000141399 0.000132314 0.000122416);
    }
    inlet
    {
        type            fixedValue;
        value           uniform 1.94e-05;
    }
    outlet
    {
        type            zeroGradient;
    }
}


// ************************************************************************* //
