/*--------------------------------*- C++ -*----------------------------------*\
  =========                 |
  \\      /  F ield         | OpenFOAM: The Open Source CFD Toolbox
   \\    /   O peration     | Website:  https://openfoam.org
    \\  /    A nd           | Version:  6
     \\/     M anipulation  |
\*---------------------------------------------------------------------------*/
FoamFile
{
    version     2.0;
    format      ascii;
    class       volVectorField;
    location    "39199.9999989989665";
    object      U;
}
// * * * * * * * * * * * * * * * * * * * * * * * * * * * * * * * * * * * * * //

dimensions      [0 1 -1 0 0 0 0];

internalField   nonuniform List<vector> 
778
(
(0.0656015 0.0794078 0)
(-0.155173 0.0157667 0)
(-0.164303 0.0146274 0)
(-0.192424 0.0122771 0)
(-0.216864 0.0087255 0)
(-0.236926 0.00474235 0)
(-0.252053 0.000412799 0)
(-0.261818 -0.0043752 0)
(-0.265709 -0.00981973 0)
(-0.262724 -0.0162008 0)
(-0.250909 -0.0242741 0)
(-0.226202 -0.0348907 0)
(-0.186078 -0.0504076 0)
(-0.144155 -0.0751709 0)
(-0.150061 -0.108552 0)
(0.0546559 0.0354281 0)
(0.0157651 -0.026853 0)
(0.0449351 -0.0232428 0)
(0.069308 -0.01614 0)
(0.0843364 -0.0103378 0)
(0.0915239 -0.00641142 0)
(0.094355 -0.00433979 0)
(0.0953972 -0.00331713 0)
(0.0958586 -0.00272836 0)
(0.0960311 -0.002314 0)
(0.0959042 -0.00194919 0)
(0.0953751 -0.00150942 0)
(0.0941167 -0.000757022 0)
(0.0912717 0.000845024 0)
(0.0850721 0.00406507 0)
(0.0735432 0.00776407 0)
(0.059915 0.0115951 0)
(-0.00798997 0.0299727 0)
(0.258402 0.167392 0)
(-0.161232 0.048393 0)
(-0.141604 0.0459858 0)
(-0.174012 0.0416211 0)
(-0.19938 0.0356728 0)
(-0.220104 0.0291307 0)
(-0.236135 0.0220549 0)
(-0.247384 0.0142195 0)
(-0.253554 0.00528238 0)
(-0.253861 -0.0051707 0)
(-0.247697 -0.017101 0)
(-0.233983 -0.0308649 0)
(-0.214071 -0.0480827 0)
(-0.197492 -0.0699576 0)
(-0.193969 -0.0826375 0)
(-0.166353 -0.042569 0)
(-0.105305 -0.0363881 0)
(-0.098332 -0.0444651 0)
(0.109349 -0.0420822 0)
(0.0644872 -0.0411329 0)
(0.071909 -0.0322245 0)
(0.0858597 -0.0206668 0)
(0.0937269 -0.0104225 0)
(0.0959383 -0.00362761 0)
(0.095692 -0.000205764 0)
(0.0953063 0.00123808 0)
(0.0952732 0.00189174 0)
(0.0953561 0.00227044 0)
(0.0953641 0.00259398 0)
(0.095264 0.00313463 0)
(0.0949728 0.00441245 0)
(0.0937154 0.00772388 0)
(0.088117 0.0167526 0)
(0.0743597 0.0253179 0)
(0.0630618 0.0329025 0)
(-0.0521231 0.063546 0)
(0.429986 0.253952 0)
(-0.194231 0.0847605 0)
(-0.112777 0.0784405 0)
(-0.148246 0.0669651 0)
(-0.170681 0.0555074 0)
(-0.188778 0.0437296 0)
(-0.202616 0.0313392 0)
(-0.212306 0.0179941 0)
(-0.217652 0.00337776 0)
(-0.218002 -0.0126583 0)
(-0.212736 -0.0303518 0)
(-0.201623 -0.0499324 0)
(-0.185978 -0.0715838 0)
(-0.169441 -0.0932162 0)
(-0.151071 -0.10456 0)
(-0.120237 -0.0931376 0)
(-0.0795575 -0.0949312 0)
(-0.0715157 -0.107557 0)
(0.0920952 -0.0881809 0)
(0.0625556 -0.0657206 0)
(0.0743528 -0.0460637 0)
(0.0879707 -0.0291642 0)
(0.0947846 -0.0148144 0)
(0.0918508 -0.0119492 0)
(0.0876203 -0.00793314 0)
(0.0852552 -0.00578965 0)
(0.084553 -0.00457085 0)
(0.0845223 -0.00380435 0)
(0.0847781 -0.00322752 0)
(0.0854335 -0.00259861 0)
(0.0871969 -0.00143988 0)
(0.0918814 0.00291727 0)
(0.090024 0.0251067 0)
(0.0731919 0.0423371 0)
(0.0700047 0.0573723 0)
(-0.0903362 0.100814 0)
(0.578559 0.325836 0)
(-0.240102 0.12181 0)
(-0.0808294 0.109232 0)
(-0.121573 0.0898659 0)
(-0.139009 0.0740801 0)
(-0.153073 0.058641 0)
(-0.163835 0.0427488 0)
(-0.171429 0.0257934 0)
(-0.175637 0.00717054 0)
(-0.175695 -0.0135665 0)
(-0.170998 -0.036506 0)
(-0.161423 -0.0614831 0)
(-0.147552 -0.0873836 0)
(-0.130574 -0.110294 0)
(-0.109619 -0.123185 0)
(-0.0821465 -0.12452 0)
(-0.0525388 -0.126343 0)
(-0.033399 -0.123134 0)
(0.0163249 -0.056791 0)
(0.0608016 -0.0930383 0)
(0.0684376 -0.0791489 0)
(0.0790532 -0.058751 0)
(0.0915466 -0.0394881 0)
(0.102891 -0.0208205 0)
(0.115633 -0.0131231 0)
(0.126756 -0.0087696 0)
(0.132326 -0.00558474 0)
(0.133298 -0.00309353 0)
(0.130776 -0.000877693 0)
(0.125319 0.00129001 0)
(0.116793 0.00367453 0)
(0.104425 0.00673615 0)
(0.085143 0.0111745 0)
(0.0712578 0.036872 0)
(0.0599257 0.0605606 0)
(0.0761176 0.0832352 0)
(-0.118431 0.136883 0)
(0.705748 0.383673 0)
(-0.287682 0.157003 0)
(-0.0476883 0.133791 0)
(-0.0962874 0.106934 0)
(-0.107739 0.0876121 0)
(-0.116776 0.0691861 0)
(-0.123571 0.0504504 0)
(-0.128234 0.0305763 0)
(-0.130594 0.00869634 0)
(-0.129783 -0.0158603 0)
(-0.125276 -0.0431204 0)
(-0.116642 -0.0727158 0)
(-0.103912 -0.102834 0)
(-0.0874337 -0.129069 0)
(-0.0674762 -0.145753 0)
(-0.044132 -0.152226 0)
(-0.0202695 -0.152331 0)
(0.000270471 -0.143684 0)
(0.0307933 -0.114974 0)
(0.0569497 -0.109334 0)
(0.0705126 -0.0923859 0)
(0.080641 -0.071183 0)
(0.0906975 -0.0507094 0)
(0.100252 -0.0326693 0)
(0.10935 -0.0193195 0)
(0.116356 -0.00996915 0)
(0.119764 -0.00329314 0)
(0.119953 0.00194538 0)
(0.11754 0.00648003 0)
(0.112892 0.0108279 0)
(0.106029 0.0155033 0)
(0.0968753 0.0212089 0)
(0.0849187 0.0292412 0)
(0.0733066 0.0472905 0)
(0.0626934 0.0713391 0)
(0.0942774 0.0993462 0)
(0.0159272 0.138044 0)
(0.095375 0.183058 0)
(0.141269 0.144217 0)
(-0.220341 0.202369 0)
(0.810468 0.431964 0)
(-0.331328 0.190668 0)
(-0.0173015 0.150258 0)
(-0.0733607 0.117539 0)
(-0.0785854 0.0955351 0)
(-0.0822127 0.0749664 0)
(-0.0844749 0.0543545 0)
(-0.0855204 0.0327159 0)
(-0.0852717 0.00883846 0)
(-0.0826 -0.0184484 0)
(-0.0774288 -0.0490683 0)
(-0.0687914 -0.082533 0)
(-0.0567788 -0.116511 0)
(-0.0416988 -0.146288 0)
(-0.0246806 -0.165968 0)
(-0.00627365 -0.174459 0)
(0.0121235 -0.172703 0)
(0.0280362 -0.160959 0)
(0.0461874 -0.139279 0)
(0.0626149 -0.122298 0)
(0.0732609 -0.10243 0)
(0.0809181 -0.0803554 0)
(0.0876582 -0.0589952 0)
(0.093823 -0.0401177 0)
(0.0991378 -0.0249611 0)
(0.10281 -0.0136333 0)
(0.104402 -0.00497242 0)
(0.10397 0.00218946 0)
(0.101823 0.00863217 0)
(0.0982069 0.0148809 0)
(0.0932715 0.0214704 0)
(0.0872355 0.0290413 0)
(0.0803396 0.038511 0)
(0.0745012 0.0530255 0)
(0.0690548 0.0730972 0)
(0.0909641 0.0987826 0)
(0.0723605 0.107226 0)
(0.0889353 0.0470335 0)
(0.146507 -0.0379244 0)
(-0.329395 0.10795 0)
(0.87996 0.474671 0)
(-0.368657 0.220947 0)
(0.00374512 0.155565 0)
(-0.0526512 0.121591 0)
(-0.0521966 0.0978817 0)
(-0.051024 0.0758524 0)
(-0.0490307 0.0540675 0)
(-0.0465264 0.0315438 0)
(-0.0433546 0.00676332 0)
(-0.0374074 -0.0223264 0)
(-0.030337 -0.0554074 0)
(-0.0205456 -0.0919763 0)
(-0.00871457 -0.128914 0)
(0.00453499 -0.161242 0)
(0.0176443 -0.181872 0)
(0.0304685 -0.190187 0)
(0.0422966 -0.18718 0)
(0.0526021 -0.174354 0)
(0.0625538 -0.153989 0)
(0.0710996 -0.132321 0)
(0.0765893 -0.109284 0)
(0.0800142 -0.0857602 0)
(0.0825776 -0.0635649 0)
(0.0847805 -0.0440605 0)
(0.0865803 -0.0279767 0)
(0.0876457 -0.0152166 0)
(0.0877601 -0.0049956 0)
(0.0867783 0.00361279 0)
(0.0848946 0.0112982 0)
(0.0822532 0.0185947 0)
(0.0790232 0.026017 0)
(0.0754695 0.0340852 0)
(0.0719663 0.0433742 0)
(0.0698415 0.0551884 0)
(0.0683772 0.0698899 0)
(0.0810017 0.0890938 0)
(0.0833552 0.0920924 0)
(0.0881391 0.0533941 0)
(0.181655 0.0236106 0)
(-0.283383 0.155029 0)
(0.928023 0.517123 0)
(-0.383188 0.234147 0)
(0.0169341 0.13298 0)
(-0.0273108 0.116681 0)
(-0.0265343 0.0949584 0)
(-0.0227361 0.0724693 0)
(-0.0176392 0.0501404 0)
(-0.0123812 0.0272752 0)
(-0.00545799 0.00188397 0)
(0.00451748 -0.0307572 0)
(0.0142257 -0.0653659 0)
(0.0255311 -0.103382 0)
(0.0372012 -0.140904 0)
(0.0479237 -0.172172 0)
(0.0570675 -0.192347 0)
(0.0646013 -0.199804 0)
(0.070347 -0.195349 0)
(0.0743041 -0.18112 0)
(0.076986 -0.160006 0)
(0.0783136 -0.135984 0)
(0.0779114 -0.110944 0)
(0.0763589 -0.0863922 0)
(0.0744879 -0.0638072 0)
(0.0728238 -0.0441991 0)
(0.0715068 -0.0279554 0)
(0.0704082 -0.014797 0)
(0.0693418 -0.00402187 0)
(0.0680208 0.00515567 0)
(0.0665683 0.0133265 0)
(0.0649562 0.0209925 0)
(0.0632627 0.0286026 0)
(0.0616633 0.0365414 0)
(0.0604304 0.0451416 0)
(0.0603678 0.0549214 0)
(0.0611755 0.0658715 0)
(0.0693255 0.0794954 0)
(0.0777459 0.0826484 0)
(0.0758514 0.0600405 0)
(0.240434 0.049847 0)
(-0.55107 0.23079 0)
(1.01137 0.506774 0)
(-0.137257 0.296309 0)
(0.0410981 0.161498 0)
(0.0406083 0.12209 0)
(0.0130941 0.092 0)
(0.00867625 0.0654051 0)
(0.0140877 0.0414326 0)
(0.0206955 0.0170128 0)
(0.032478 -0.011005 0)
(0.0439258 -0.042158 0)
(0.0557861 -0.0769498 0)
(0.0680703 -0.114706 0)
(0.0792376 -0.151186 0)
(0.0877848 -0.180646 0)
(0.0930557 -0.198649 0)
(0.0951491 -0.203776 0)
(0.0944653 -0.197081 0)
(0.0915489 -0.180991 0)
(0.0870776 -0.158556 0)
(0.0815057 -0.133091 0)
(0.07513 -0.107024 0)
(0.068551 -0.0821782 0)
(0.0624909 -0.0599184 0)
(0.0574705 -0.0409813 0)
(0.0536857 -0.0254679 0)
(0.0510459 -0.01289 0)
(0.0492956 -0.00246948 0)
(0.0480403 0.00649699 0)
(0.0472682 0.0145223 0)
(0.0467539 0.0220673 0)
(0.046451 0.029498 0)
(0.0464083 0.0370812 0)
(0.0467415 0.0450028 0)
(0.0478295 0.0534626 0)
(0.0494481 0.0623207 0)
(0.0544289 0.0721537 0)
(0.0608698 0.0729456 0)
(0.0489156 0.0442938 0)
(0.291415 0.0689384 0)
(-0.787849 0.302876 0)
(0.779369 0.395654 0)
(0.000779671 0.319446 0)
(0.093377 0.218877 0)
(0.110602 0.155141 0)
(0.0771659 0.106809 0)
(0.0597923 0.0675531 0)
(0.0582096 0.0357844 0)
(0.0623664 0.00643976 0)
(0.0737721 -0.0234166 0)
(0.0853283 -0.0550508 0)
(0.0975166 -0.0898052 0)
(0.109391 -0.126362 0)
(0.118794 -0.16018 0)
(0.123943 -0.185902 0)
(0.124224 -0.19995 0)
(0.120055 -0.201493 0)
(0.112377 -0.191908 0)
(0.102261 -0.173755 0)
(0.0907478 -0.15007 0)
(0.0786787 -0.123884 0)
(0.0667449 -0.0977316 0)
(0.0556747 -0.0735259 0)
(0.0461926 -0.0525307 0)
(0.0387717 -0.035204 0)
(0.0335254 -0.0213578 0)
(0.0302376 -0.0102267 0)
(0.0284661 -0.000896061 0)
(0.0277549 0.00727441 0)
(0.0278433 0.0147442 0)
(0.0283995 0.0219026 0)
(0.0292975 0.0290106 0)
(0.0304848 0.0362416 0)
(0.0319242 0.0437259 0)
(0.0336206 0.0516207 0)
(0.0349208 0.0600471 0)
(0.0355673 0.0698887 0)
(0.0237138 0.0772232 0)
(0.0119544 0.0987192 0)
(0.0642059 0.166801 0)
(-0.663978 0.285524 0)
(0.617289 0.220771 0)
(0.00459279 0.298068 0)
(0.113013 0.241501 0)
(0.148294 0.177504 0)
(0.130863 0.123467 0)
(0.117844 0.0778139 0)
(0.114977 0.0388918 0)
(0.11713 0.00341228 0)
(0.123474 -0.0306984 0)
(0.131683 -0.06501 0)
(0.141364 -0.100555 0)
(0.150255 -0.135495 0)
(0.155415 -0.165425 0)
(0.154908 -0.185984 0)
(0.14841 -0.194854 0)
(0.136813 -0.192065 0)
(0.121581 -0.179378 0)
(0.104214 -0.159378 0)
(0.0860857 -0.134981 0)
(0.0682977 -0.108972 0)
(0.0517935 -0.0838243 0)
(0.0374313 -0.0613974 0)
(0.0259536 -0.0428094 0)
(0.0176474 -0.028133 0)
(0.0123321 -0.0168147 0)
(0.00940359 -0.0077233 0)
(0.00815969 0.000113983 0)
(0.00824489 0.00723079 0)
(0.00913017 0.0140005 0)
(0.0105634 0.0206862 0)
(0.0124084 0.0274404 0)
(0.0145662 0.0343762 0)
(0.0169257 0.0416292 0)
(0.0193918 0.0494712 0)
(0.0215962 0.0585644 0)
(0.0232298 0.0713092 0)
(0.00974464 0.0922774 0)
(-0.00846355 0.136089 0)
(0.176758 0.180114 0)
(-0.562892 0.191953 0)
(0.570777 0.118445 0)
(-0.0203847 0.258576 0)
(0.113704 0.22983 0)
(0.165062 0.175996 0)
(0.166741 0.126135 0)
(0.16441 0.0810796 0)
(0.165391 0.0399852 0)
(0.168278 0.00166365 0)
(0.172215 -0.0353512 0)
(0.177765 -0.0718973 0)
(0.183926 -0.107627 0)
(0.187626 -0.139761 0)
(0.185844 -0.16439 0)
(0.177195 -0.178672 0)
(0.16212 -0.181801 0)
(0.142156 -0.174678 0)
(0.119242 -0.159353 0)
(0.0951334 -0.138279 0)
(0.0714277 -0.11418 0)
(0.0493393 -0.0895375 0)
(0.0300276 -0.0667363 0)
(0.0144474 -0.0474952 0)
(0.00321495 -0.0326246 0)
(-0.0040556 -0.0213788 0)
(-0.00801555 -0.013059 0)
(-0.00996758 -0.00605804 0)
(-0.0105104 0.000319405 0)
(-0.00989874 0.00641587 0)
(-0.00852508 0.012472 0)
(-0.00653208 0.0186313 0)
(-0.00405082 0.0249821 0)
(-0.00121258 0.0316162 0)
(0.00187001 0.0387397 0)
(0.00511728 0.046535 0)
(0.00864407 0.0559637 0)
(0.0116665 0.0716113 0)
(0.000170743 0.101394 0)
(-0.0212276 0.141501 0)
(0.220267 0.182622 0)
(-0.480045 0.18658 0)
(0.628367 0.0537775 0)
(0.00902184 0.197281 0)
(0.11379 0.196871 0)
(0.175136 0.157845 0)
(0.191421 0.117624 0)
(0.198097 0.0772521 0)
(0.203423 0.0372996 0)
(0.208597 -0.00144521 0)
(0.213054 -0.0395869 0)
(0.217325 -0.0764901 0)
(0.219125 -0.109989 0)
(0.21529 -0.136899 0)
(0.203923 -0.154577 0)
(0.185108 -0.162005 0)
(0.16046 -0.15974 0)
(0.132153 -0.149196 0)
(0.102442 -0.132467 0)
(0.0730448 -0.111656 0)
(0.0457468 -0.0892937 0)
(0.0216907 -0.0675297 0)
(0.0024337 -0.0487049 0)
(-0.0112436 -0.0342991 0)
(-0.0193975 -0.0244607 0)
(-0.0241803 -0.0170111 0)
(-0.0267655 -0.0108545 0)
(-0.0279573 -0.00528633 0)
(-0.0280558 1.10927e-05 0)
(-0.0271984 0.00524591 0)
(-0.0255612 0.0105943 0)
(-0.0232386 0.0161846 0)
(-0.0203856 0.0221152 0)
(-0.0172177 0.0284997 0)
(-0.0140235 0.0355271 0)
(-0.0110315 0.0435158 0)
(-0.00861656 0.0541263 0)
(-0.0112021 0.0750783 0)
(-0.0265104 0.106092 0)
(-0.0306929 0.128593 0)
(0.166784 0.178084 0)
(-0.509431 0.218982 0)
(0.473057 0.0748559 0)
(-0.132254 0.137497 0)
(0.0942514 0.13314 0)
(0.172767 0.116647 0)
(0.203913 0.0952368 0)
(0.21822 0.0643606 0)
(0.228187 0.0284311 0)
(0.237203 -0.00885414 0)
(0.243524 -0.0451899 0)
(0.244987 -0.0781858 0)
(0.238978 -0.105155 0)
(0.224131 -0.123999 0)
(0.200958 -0.133822 0)
(0.171376 -0.135059 0)
(0.137981 -0.128968 0)
(0.103091 -0.116837 0)
(0.069054 -0.100551 0)
(0.037072 -0.0817328 0)
(0.00955734 -0.0628971 0)
(-0.0129607 -0.045813 0)
(-0.0270832 -0.034119 0)
(-0.0358323 -0.0258413 0)
(-0.0409539 -0.0195733 0)
(-0.0440036 -0.0142405 0)
(-0.0457085 -0.00944154 0)
(-0.0464133 -0.00492609 0)
(-0.0462234 -0.000540519 0)
(-0.0451592 0.00386874 0)
(-0.0433121 0.00847688 0)
(-0.0407297 0.0134729 0)
(-0.0376088 0.0190348 0)
(-0.0342874 0.0253898 0)
(-0.0313691 0.0329279 0)
(-0.0296394 0.0425483 0)
(-0.0301297 0.0574938 0)
(-0.0386619 0.0850392 0)
(-0.0613406 0.120781 0)
(-0.0605501 0.143986 0)
(-0.016566 0.175593 0)
(-0.545483 0.191258 0)
(0.724226 0.134537 0)
(0.0818535 0.115272 0)
(0.149781 0.0990684 0)
(0.222471 0.0802671 0)
(0.244184 0.0697606 0)
(0.249002 0.0476257 0)
(0.255258 0.0176392 0)
(0.261311 -0.0145258 0)
(0.260279 -0.044531 0)
(0.249738 -0.0694309 0)
(0.229435 -0.0874807 0)
(0.200934 -0.0981693 0)
(0.166609 -0.101765 0)
(0.129036 -0.0992741 0)
(0.090764 -0.091978 0)
(0.0532883 -0.0805778 0)
(0.0194173 -0.0667578 0)
(-0.0112801 -0.0516343 0)
(-0.0328823 -0.0397701 0)
(-0.0472148 -0.0312495 0)
(-0.0558379 -0.025383 0)
(-0.061113 -0.0206631 0)
(-0.0644116 -0.0164336 0)
(-0.066504 -0.0124029 0)
(-0.0676897 -0.00856518 0)
(-0.0680662 -0.00490662 0)
(-0.0676406 -0.00134914 0)
(-0.0663446 0.00225477 0)
(-0.0643 0.0061042 0)
(-0.0614514 0.0104704 0)
(-0.0579688 0.0156608 0)
(-0.0541639 0.0220921 0)
(-0.0506699 0.0304954 0)
(-0.0481795 0.0424052 0)
(-0.046163 0.0613095 0)
(-0.0470873 0.0931365 0)
(-0.0606751 0.138083 0)
(-0.0485117 0.176933 0)
(-0.00830053 0.167653 0)
(-0.570796 0.0541191 0)
(0.192213 0.0878314 0)
(0.225957 0.099507 0)
(0.246716 0.0699616 0)
(0.242764 0.0398406 0)
(0.239872 0.0123549 0)
(0.234861 -0.0125581 0)
(0.220132 -0.033032 0)
(0.196374 -0.0482328 0)
(0.165897 -0.0581091 0)
(0.131155 -0.0631012 0)
(0.0939613 -0.0634969 0)
(0.0563778 -0.0600867 0)
(0.0204495 -0.0538 0)
(-0.0143935 -0.0448632 0)
(-0.0409234 -0.0365714 0)
(-0.0605608 -0.0299159 0)
(-0.0734187 -0.0256005 0)
(-0.0815525 -0.0225058 0)
(-0.0867779 -0.0198321 0)
(-0.0904104 -0.0169697 0)
(-0.0930335 -0.013914 0)
(-0.0948748 -0.0108244 0)
(-0.0959988 -0.00785272 0)
(-0.0964128 -0.00504371 0)
(-0.0960911 -0.00232773 0)
(-0.094903 0.000465315 0)
(-0.0929787 0.00353887 0)
(-0.0900929 0.00716792 0)
(-0.086187 0.0117574 0)
(-0.0812334 0.0178436 0)
(-0.0753932 0.0262904 0)
(-0.0687391 0.0386706 0)
(-0.0597348 0.0578461 0)
(-0.046347 0.0881675 0)
(-0.0358266 0.133296 0)
(-0.0203729 0.188759 0)
(0.128216 0.18103 0)
(-0.435081 0.0432693 0)
(0.451467 0.209181 0)
(0.206639 0.178413 0)
(0.152923 0.118627 0)
(0.139779 0.0640658 0)
(0.128432 0.0260806 0)
(0.11431 0.0020741 0)
(0.0989999 -0.0126111 0)
(0.0778466 -0.0216815 0)
(0.0528846 -0.0272318 0)
(0.0253155 -0.0296826 0)
(-0.00510478 -0.0289895 0)
(-0.0344675 -0.0263317 0)
(-0.0602741 -0.0231657 0)
(-0.0813517 -0.0206711 0)
(-0.0963504 -0.0197292 0)
(-0.106361 -0.0194853 0)
(-0.112927 -0.0192471 0)
(-0.117723 -0.0181503 0)
(-0.121663 -0.016075 0)
(-0.125071 -0.0132587 0)
(-0.127958 -0.0100985 0)
(-0.130257 -0.0069721 0)
(-0.131909 -0.00416252 0)
(-0.132894 -0.00181234 0)
(-0.133192 8.80046e-05 0)
(-0.132718 0.00169141 0)
(-0.131262 0.00323526 0)
(-0.12863 0.00505721 0)
(-0.12436 0.00756005 0)
(-0.117995 0.0113168 0)
(-0.10914 0.0172796 0)
(-0.0972774 0.0269945 0)
(-0.0807513 0.0427158 0)
(-0.0566144 0.0671342 0)
(-0.0266715 0.102697 0)
(-1.99851e-05 0.152686 0)
(0.173803 0.154071 0)
(-0.377876 0.0990702 0)
(0.360699 -0.414653 0)
(-0.345396 -0.512076 0)
(-0.218161 -0.0281558 0)
(-0.0928245 0.110702 0)
(-0.0535095 0.0925814 0)
(-0.0311424 0.0547816 0)
(-0.0262971 0.0287757 0)
(-0.0313309 0.0121727 0)
(-0.0403716 0.00152157 0)
(-0.0511327 -0.00536897 0)
(-0.0650881 -0.00952637 0)
(-0.0808507 -0.0118195 0)
(-0.0972355 -0.013508 0)
(-0.112721 -0.0158755 0)
(-0.126096 -0.0188066 0)
(-0.136008 -0.0218988 0)
(-0.14226 -0.024717 0)
(-0.146305 -0.0266337 0)
(-0.149676 -0.0276303 0)
(-0.153197 -0.0278578 0)
(-0.157008 -0.0275278 0)
(-0.160949 -0.0268104 0)
(-0.164779 -0.0258128 0)
(-0.168257 -0.024557 0)
(-0.17115 -0.0230051 0)
(-0.173264 -0.0211229 0)
(-0.174483 -0.0189352 0)
(-0.174759 -0.0165229 0)
(-0.174003 -0.0139361 0)
(-0.172007 -0.0111383 0)
(-0.168217 -0.00793243 0)
(-0.161762 -0.00385804 0)
(-0.151604 0.00193678 0)
(-0.136603 0.0107295 0)
(-0.115125 0.023658 0)
(-0.0848818 0.0409863 0)
(-0.0455002 0.06301 0)
(-0.00376871 0.097756 0)
(0.193079 0.126533 0)
(-0.404548 0.160133 0)
(0.123548 -0.18519 0)
(-0.387646 -0.297484 0)
(-0.342876 -0.0966895 0)
(-0.26468 0.0511341 0)
(-0.211016 0.0832758 0)
(-0.178872 0.074458 0)
(-0.162548 0.0611032 0)
(-0.156481 0.0512713 0)
(-0.156482 0.0462251 0)
(-0.159714 0.0457134 0)
(-0.164285 0.0488695 0)
(-0.168615 0.0544412 0)
(-0.171827 0.060959 0)
(-0.173765 0.0663179 0)
(-0.174869 0.0675256 0)
(-0.176142 0.0638207 0)
(-0.178276 0.0590752 0)
(-0.181505 0.0560673 0)
(-0.185547 0.0554173 0)
(-0.189937 0.0565621 0)
(-0.194231 0.0586995 0)
(-0.198103 0.0610983 0)
(-0.201368 0.0631103 0)
(-0.203955 0.0641953 0)
(-0.205849 0.0640153 0)
(-0.207041 0.0625291 0)
(-0.207511 0.0599636 0)
(-0.207247 0.0566075 0)
(-0.206222 0.0525375 0)
(-0.2043 0.0474788 0)
(-0.201114 0.0410634 0)
(-0.19602 0.0330523 0)
(-0.188204 0.0236368 0)
(-0.17689 0.0134613 0)
(-0.161323 0.00293381 0)
(-0.139985 -0.0088486 0)
(-0.108901 -0.0211624 0)
(-0.0593137 -0.019437 0)
(0.195773 0.0651912 0)
(-0.473952 0.217861 0)
(1.14782 -0.0107909 0)
(-0.295857 -0.322364 0)
(-0.352785 -0.232494 0)
(-0.352401 -0.148198 0)
(-0.328839 -0.106957 0)
(-0.297272 -0.0983274 0)
(-0.269947 -0.100358 0)
(-0.249889 -0.105753 0)
(-0.236063 -0.112903 0)
(-0.226378 -0.121849 0)
(-0.219049 -0.133155 0)
(-0.213033 -0.147243 0)
(-0.208057 -0.163429 0)
(-0.204476 -0.179113 0)
(-0.203184 -0.189951 0)
(-0.205234 -0.193836 0)
(-0.210695 -0.193134 0)
(-0.218243 -0.189862 0)
(-0.226303 -0.185701 0)
(-0.233721 -0.181625 0)
(-0.239864 -0.177998 0)
(-0.244481 -0.174796 0)
(-0.247588 -0.171803 0)
(-0.249415 -0.168739 0)
(-0.250348 -0.165345 0)
(-0.25083 -0.161426 0)
(-0.25123 -0.15688 0)
(-0.251789 -0.151689 0)
(-0.252732 -0.145895 0)
(-0.254454 -0.13955 0)
(-0.257561 -0.132558 0)
(-0.26275 -0.124391 0)
(-0.270668 -0.113739 0)
(-0.281807 -0.098342 0)
(-0.295881 -0.0755445 0)
(-0.309388 -0.0435322 0)
(-0.311207 -0.00151984 0)
(-0.287648 0.0533002 0)
(-0.271109 0.125119 0)
(-0.613013 0.217483 0)
)
;

boundaryField
{
    floor
    {
        type            noSlip;
    }
    ceiling
    {
        type            noSlip;
    }
    sWall
    {
        type            noSlip;
    }
    nWall
    {
        type            noSlip;
    }
    sideWalls
    {
        type            empty;
    }
    glass1
    {
        type            noSlip;
    }
    glass2
    {
        type            noSlip;
    }
    sun
    {
        type            noSlip;
    }
    Table_master
    {
        type            noSlip;
    }
    Table_slave
    {
        type            noSlip;
    }
    inlet
    {
        type            fixedValue;
        value           uniform (0.5 0 0);
    }
    outlet
    {
        type            zeroGradient;
    }
}


// ************************************************************************* //
