/*--------------------------------*- C++ -*----------------------------------*\
  =========                 |
  \\      /  F ield         | OpenFOAM: The Open Source CFD Toolbox
   \\    /   O peration     | Website:  https://openfoam.org
    \\  /    A nd           | Version:  6
     \\/     M anipulation  |
\*---------------------------------------------------------------------------*/
FoamFile
{
    version     2.0;
    format      ascii;
    class       volScalarField;
    location    "4320";
    object      alphat;
}
// * * * * * * * * * * * * * * * * * * * * * * * * * * * * * * * * * * * * * //

dimensions      [1 -1 -1 0 0 0 0];

internalField   nonuniform List<scalar> 
458
(
0.00124408
0.00135521
0.00138589
0.00145221
0.00151329
0.00157114
0.00162903
0.00168778
0.00173582
0.00176603
0.00176948
0.0017374
0.00165872
0.00149211
0.00113177
0.000559114
0.000655502
0.000743195
0.000774902
0.000762757
0.000713776
0.000659583
0.000611095
0.000569086
0.000532605
0.000500751
0.000472862
0.000448143
0.00042563
0.000404276
0.000382833
0.000370089
0.000340107
0.00167647
0.00377506
0.00348197
0.00398964
0.00449581
0.00501647
0.00548331
0.00584462
0.00621592
0.0065636
0.00684261
0.00701233
0.00702828
0.00678352
0.00551371
0.00149401
0.00123944
0.00101118
0.000554583
0.00131635
0.00191864
0.00238498
0.00253228
0.00184541
0.00155792
0.00136222
0.00121784
0.00110721
0.00101951
0.000943882
0.000872749
0.000801746
0.000738321
0.00068501
0.000837929
0.000447131
0.00203693
0.00507238
0.0041865
0.00510447
0.00549033
0.00576107
0.00596922
0.00616156
0.00642923
0.00675512
0.00711133
0.00746017
0.00773527
0.00783178
0.00737935
0.00601433
0.00455808
0.00119422
0.000854348
0.00147432
0.00214557
0.00281336
0.00300397
0.000959295
0.000839852
0.000740454
0.000659953
0.000594992
0.000542347
0.000499552
0.000464947
0.000438028
0.000485431
0.00056218
0.000983081
0.000528393
0.0023839
0.00647861
0.00407213
0.00528806
0.00549898
0.00547781
0.00545823
0.00555058
0.00576835
0.006091
0.00650088
0.0069577
0.00735733
0.00760849
0.00755134
0.00716092
0.00614559
0.00337398
0.00137575
0.00175203
0.00240865
0.0032127
0.00390903
0.00394315
0.00108035
0.000990248
0.000928872
0.000883571
0.000845266
0.00080726
0.000771129
0.000732956
0.00068834
0.000648489
0.000639018
0.00117166
0.000608543
0.00273782
0.00836908
0.00427094
0.00501937
0.00532095
0.00514083
0.00499404
0.00507772
0.00530771
0.00564409
0.00608647
0.0065875
0.00697916
0.00717365
0.00716843
0.00703172
0.00662628
0.00547928
0.00496579
0.00500199
0.00529338
0.00564044
0.00585314
0.00575684
0.0049116
0.00447688
0.00423678
0.00406501
0.0038912
0.0036673
0.00328719
0.00279773
0.00224096
0.00170479
0.00127872
0.00119125
0.00103414
0.000813339
0.000860759
0.000935587
0.00311664
0.0104979
0.00584876
0.00464681
0.00506433
0.00505363
0.00486653
0.00493572
0.00517108
0.00550769
0.00595652
0.00643733
0.00679999
0.00691473
0.0068042
0.0066472
0.00657637
0.00648206
0.0066771
0.00701525
0.00725222
0.00729373
0.00713319
0.0067986
0.00633169
0.00595226
0.00565631
0.00539588
0.0051407
0.00487008
0.00451975
0.00403969
0.00343247
0.00274557
0.00210979
0.0015298
0.00125747
0.00109686
0.00138114
0.000970513
0.00348958
0.0121016
0.00872417
0.0057091
0.00496844
0.00503973
0.00510375
0.00514042
0.00527417
0.00557154
0.00601368
0.00649032
0.00682278
0.00685874
0.00664917
0.00649808
0.00674762
0.00730053
0.00786373
0.00818139
0.00818202
0.00790927
0.00744674
0.00688461
0.00632528
0.00587504
0.00553413
0.00525776
0.00501609
0.0047991
0.00460165
0.00434343
0.00391885
0.00335236
0.00276354
0.00219751
0.00182802
0.00167466
0.00159619
0.00115309
0.00357907
0.0112159
0.00952724
0.00799791
0.00682814
0.00630999
0.00582355
0.00549397
0.00549014
0.00577442
0.0062319
0.00670272
0.00698206
0.00691643
0.00665982
0.00672364
0.0074369
0.00802193
0.00832616
0.00831171
0.00798091
0.00740918
0.00670475
0.00599541
0.00540642
0.00499371
0.0047154
0.00451546
0.00436773
0.00426809
0.00422391
0.00422569
0.00411257
0.0037757
0.00344728
0.00326431
0.00334408
0.00353022
0.00419298
0.00178523
0.00350478
0.00423043
0.0046753
0.00492486
0.00496213
0.00488889
0.00489242
0.00510067
0.00552056
0.00605432
0.00659976
0.0070287
0.00716552
0.00691733
0.00684657
0.00720806
0.00762627
0.00776965
0.00766573
0.00730213
0.00669393
0.00594207
0.00519269
0.00457761
0.0041523
0.00388144
0.00369973
0.00356168
0.00344396
0.00333333
0.00321984
0.00309518
0.00298219
0.00288465
0.00281986
0.00278313
0.00271362
0.00257062
0.00239686
0.00166668
0.00157962
0.0027608
0.00377683
0.00457245
0.00530132
0.0060104
0.00657194
0.00694736
0.00719091
0.00722454
0.00698549
0.00669671
0.00669716
0.00681711
0.00672527
0.00645433
0.0060272
0.00545218
0.00479032
0.00414424
0.00363009
0.00328393
0.00307174
0.00294169
0.00285518
0.00279217
0.00274382
0.0027081
0.00268803
0.00269431
0.00271003
0.00272406
0.00272478
0.00268152
0.00254852
0.00231429
0.00202416
0.00134111
0.00238088
0.00465372
0.00595094
0.00679143
0.00744505
0.00749517
0.00710372
0.00671005
0.00637242
0.00573415
0.00528018
0.00517396
0.00510206
0.00490218
0.00460108
0.00422795
0.00379023
0.00333011
0.00291545
0.00259294
0.00237071
0.00224262
0.00218267
0.00216983
0.00219126
0.0022385
0.0023045
0.00238085
0.00247
0.00257272
0.00268254
0.00279042
0.00287819
0.00292205
0.00288121
0.00284549
0.00261978
0.00135855
0.00249155
0.00255346
0.00260944
0.00289324
0.00272908
0.00241446
0.00203372
0.00172835
0.00154177
0.00136496
0.00120949
0.00108792
0.000985
0.000906994
0.00085274
0.000813135
0.00078128
0.00075387
0.00073124
0.000715972
0.000710279
0.000714559
0.000727244
0.000745893
0.000769456
0.00079738
0.000829479
0.000866011
0.000907551
0.000955378
0.00100977
0.00107034
0.0011374
0.00121127
0.00129199
0.0013887
0.001431
0.00140167
0.00130372
0.00120559
)
;

boundaryField
{
    floor
    {
        type            compressible::alphatWallFunction;
        Prt             0.85;
        value           nonuniform List<scalar> 
36
(
0.000160683
7.82024e-05
9.26109e-05
0.000105496
0.000110109
0.000108346
0.000101196
9.32159e-05
8.60081e-05
7.97066e-05
7.41878e-05
6.93303e-05
6.50456e-05
6.12213e-05
5.77149e-05
5.4367e-05
5.09824e-05
4.89594e-05
4.41639e-05
4.41633e-05
6.10648e-05
7.35487e-05
8.56287e-05
0.000115681
0.000122504
0.000133176
0.000160681
0.000210146
0.000175549
0.000143834
7.82014e-05
0.000143833
7.75171e-05
0.000169322
0.000121569
0.000194166
)
;
    }
    ceiling
    {
        type            compressible::alphatWallFunction;
        Prt             0.85;
        value           nonuniform List<scalar> 
43
(
0.000340268
0.000348132
0.000355228
0.000391035
0.000370452
0.000330582
0.000281566
0.00024153
0.000216689
0.000192834
0.000171568
0.00015472
0.000140286
0.000129228
0.000121472
0.000115773
0.000111165
0.000107182
0.00010388
0.000101646
0.000100811
0.000101439
0.000103296
0.00010602
0.000109449
0.000113497
0.000118129
0.000123376
0.000129309
0.000136102
0.000143778
0.00015227
0.000161609
0.000171822
0.0001829
0.000196072
0.000201801
0.000197831
0.000184506
0.000171043
0.000467119
0.000555339
0.000326058
)
;
    }
    sWall
    {
        type            compressible::alphatWallFunction;
        Prt             0.85;
        value           uniform 0.000339025;
    }
    nWall
    {
        type            compressible::alphatWallFunction;
        Prt             0.85;
        value           nonuniform List<scalar> 6(0.000132957 0.000137898 0.000163425 0.000189264 0.000191635 0.000170702);
    }
    sideWalls
    {
        type            empty;
    }
    glass1
    {
        type            compressible::alphatWallFunction;
        Prt             0.85;
        value           nonuniform List<scalar> 9(0.000171655 0.000229169 0.000275988 0.000320303 0.000364869 0.000411952 0.000457767 0.000468822 0.000459996);
    }
    glass2
    {
        type            compressible::alphatWallFunction;
        Prt             0.85;
        value           nonuniform List<scalar> 2(0.000247083 0.000231539);
    }
    sun
    {
        type            compressible::alphatWallFunction;
        Prt             0.85;
        value           nonuniform List<scalar> 
14
(
0.000176205
0.000191374
0.000195541
0.000204514
0.000212738
0.000220492
0.000228221
0.000236033
0.000242399
0.000246391
0.000246846
0.000242606
0.000232171
0.000209889
)
;
    }
    Table_master
    {
        type            compressible::alphatWallFunction;
        Prt             0.85;
        value           nonuniform List<scalar> 9(0.00013667 0.000119635 0.000105239 9.34094e-05 8.37347e-05 7.57986e-05 6.92767e-05 6.39513e-05 5.97741e-05);
    }
    Table_slave
    {
        type            compressible::alphatWallFunction;
        Prt             0.85;
        value           nonuniform List<scalar> 9(0.000153686 0.000141046 0.000132359 0.000125904 0.000120416 0.000114941 0.000109708 0.000104147 9.76021e-05);
    }
    inlet
    {
        type            fixedValue;
        value           uniform 1.94e-05;
    }
    outlet
    {
        type            zeroGradient;
    }
}


// ************************************************************************* //
