/*--------------------------------*- C++ -*----------------------------------*\
  =========                 |
  \\      /  F ield         | OpenFOAM: The Open Source CFD Toolbox
   \\    /   O peration     | Website:  https://openfoam.org
    \\  /    A nd           | Version:  6
     \\/     M anipulation  |
\*---------------------------------------------------------------------------*/
FoamFile
{
    version     2.0;
    format      ascii;
    class       volScalarField;
    location    "210";
    object      nut;
}
// * * * * * * * * * * * * * * * * * * * * * * * * * * * * * * * * * * * * * //

dimensions      [0 2 -1 0 0 0 0];

internalField   nonuniform List<scalar> 
458
(
0.00116113
0.00127441
0.00131331
0.00138089
0.00144427
0.00150591
0.0015699
0.00162985
0.0016764
0.00170134
0.00169569
0.00165107
0.00155036
0.00130908
0.00106881
0.000537044
0.000633727
0.00073473
0.000782584
0.000775139
0.000723314
0.000666191
0.00061562
0.000572312
0.000535123
0.000503019
0.000475028
0.000450413
0.000428225
0.000407286
0.000386088
0.000367302
0.000333324
0.00152927
0.00366315
0.00347447
0.00400822
0.00456179
0.00511146
0.00556271
0.00596393
0.00636077
0.00671525
0.00698069
0.00711152
0.00705418
0.00658649
0.00482216
0.00139668
0.00118089
0.000958384
0.00052426
0.00134929
0.0020664
0.00261089
0.00274821
0.00191751
0.00159282
0.00137897
0.00122417
0.00110724
0.0010157
0.000942433
0.000875678
0.000805079
0.000737061
0.000678622
0.000764865
0.000398049
0.00183477
0.00495162
0.0042876
0.00512474
0.00554501
0.00584864
0.00608397
0.00634162
0.00667242
0.00706957
0.0074952
0.00788134
0.00813601
0.00804869
0.00740223
0.00596456
0.00433934
0.00116892
0.000778724
0.00148585
0.00232406
0.00312852
0.00330008
0.000982212
0.000849563
0.000740587
0.000653229
0.000583302
0.000526996
0.000481297
0.000444682
0.000417321
0.000469331
0.000557238
0.000896432
0.000448497
0.00212658
0.00620962
0.00426586
0.00531531
0.00553473
0.00554841
0.00559097
0.00574324
0.006028
0.00646213
0.00700072
0.00753535
0.0079322
0.00806769
0.00790222
0.00738077
0.00615042
0.00329238
0.00132909
0.00165485
0.00240463
0.00340564
0.00429259
0.00432968
0.00112337
0.00101956
0.000943695
0.000883559
0.000831177
0.000784516
0.000739072
0.000691465
0.000637471
0.000586711
0.000585614
0.00104061
0.000501587
0.00242525
0.00785867
0.00450863
0.0051209
0.00539276
0.00524657
0.00518607
0.0053038
0.00556853
0.00603764
0.00664102
0.00719784
0.00758183
0.00773921
0.00770541
0.00751462
0.00695654
0.0056927
0.00501629
0.00523981
0.00572077
0.00623744
0.00657119
0.00648832
0.00542885
0.00484012
0.00447263
0.00418893
0.00389993
0.00352108
0.00305984
0.00253128
0.00196716
0.00144932
0.00107878
0.00107281
0.00082604
0.000655608
0.000711842
0.000777564
0.00274716
0.00970915
0.00601931
0.00495557
0.00528306
0.00532626
0.0051315
0.00521205
0.00544967
0.00591449
0.00652792
0.00709676
0.00744524
0.00753339
0.00747091
0.00741406
0.0073807
0.00725347
0.00742149
0.00784528
0.0081721
0.00830264
0.00820699
0.00787797
0.0073075
0.00678108
0.00633099
0.00591426
0.00549028
0.00499876
0.00443656
0.00379649
0.00309145
0.00238117
0.00179613
0.00136966
0.00108347
0.000919601
0.00116083
0.000807283
0.00305191
0.011035
0.0084755
0.00613542
0.00566693
0.0056626
0.00545067
0.00535053
0.00553119
0.00601964
0.00667209
0.00724773
0.0075466
0.00755896
0.00748682
0.00763155
0.00808784
0.00858542
0.00907926
0.00943232
0.00948606
0.00928035
0.00887525
0.00833294
0.00771587
0.007121
0.00657332
0.00606218
0.00557712
0.00511928
0.00469305
0.00420011
0.00363757
0.00301384
0.00244328
0.00195611
0.00161878
0.00146429
0.00138067
0.000968625
0.0031214
0.00989695
0.00864807
0.00762882
0.006969
0.00628644
0.00565963
0.00543874
0.00570194
0.00632758
0.00706003
0.00761456
0.00780979
0.00774575
0.00779356
0.00836952
0.00906063
0.00951139
0.00980107
0.0098616
0.00961781
0.00912923
0.00847302
0.00772208
0.0069551
0.00624932
0.0056318
0.00509896
0.00465214
0.00430361
0.00406381
0.00390914
0.00367847
0.00331654
0.00301548
0.00284991
0.00288996
0.0030264
0.00355178
0.00148973
0.00305199
0.00365385
0.00401855
0.00419728
0.00420807
0.00423724
0.00448093
0.00507814
0.00597988
0.00696101
0.0077401
0.00810935
0.00802131
0.00795168
0.00834884
0.00889641
0.00924429
0.00938458
0.00933849
0.00906485
0.00855039
0.00784172
0.00700158
0.00612008
0.00529937
0.00460835
0.00405546
0.00362153
0.00328576
0.00302709
0.00282222
0.00266018
0.00254049
0.00244863
0.00238754
0.00234787
0.00228229
0.00216145
0.00201701
0.00139642
0.00117226
0.00209877
0.00315985
0.00434698
0.00563829
0.00690701
0.00790887
0.00846126
0.0085148
0.00822016
0.00780757
0.0077654
0.00803168
0.00821659
0.00821753
0.00805089
0.00770043
0.0071454
0.00641067
0.00557309
0.00473954
0.00400546
0.0034274
0.00300573
0.00270923
0.00250841
0.00237883
0.00230358
0.0022725
0.00227127
0.00228385
0.00230077
0.00230902
0.00228288
0.00218656
0.00201424
0.00179172
0.00114094
0.00205296
0.00463617
0.00669344
0.00806311
0.00882277
0.00899073
0.00867171
0.00796742
0.0071149
0.00645309
0.006113
0.00599697
0.00591887
0.00579446
0.00560495
0.00531762
0.00490077
0.00436209
0.00376421
0.00320078
0.00274575
0.00242098
0.00220859
0.00207896
0.00200783
0.00197795
0.00198091
0.00201114
0.00206366
0.00213465
0.00221944
0.00230917
0.00238624
0.00242969
0.00239428
0.00237745
0.00232289
0.0011605
0.00219242
0.00225983
0.00231923
0.00260293
0.00247142
0.0022147
0.00196176
0.00176728
0.00160621
0.00144198
0.0012812
0.00114365
0.00104218
0.000973761
0.000925889
0.000887449
0.000850714
0.000811466
0.00076921
0.000727151
0.000690419
0.00066325
0.000647218
0.000641598
0.000644867
0.000655814
0.000673781
0.000698422
0.000729577
0.000767098
0.000810864
0.000860934
0.000917565
0.000981024
0.00105087
0.00113385
0.0011634
0.00113523
0.00106013
0.000984605
)
;

boundaryField
{
    floor
    {
        type            nutkWallFunction;
        Cmu             0.09;
        kappa           0.41;
        E               9.8;
        value           nonuniform List<scalar> 
36
(
0.000128786
6.44287e-05
7.65507e-05
8.89775e-05
9.47928e-05
9.38913e-05
8.75844e-05
8.05699e-05
7.42995e-05
6.88799e-05
6.4186e-05
6.01015e-05
5.65139e-05
5.33371e-05
5.04546e-05
4.77172e-05
4.49274e-05
4.24384e-05
3.78941e-05
3.7894e-05
4.65009e-05
5.30844e-05
5.99131e-05
7.92553e-05
8.6175e-05
9.41798e-05
0.000128786
0.000166468
0.000141797
0.000115814
6.44286e-05
0.000115814
6.28063e-05
0.000140415
9.43231e-05
0.000158791
)
;
    }
    ceiling
    {
        type            nutkWallFunction;
        Cmu             0.09;
        kappa           0.41;
        E               9.8;
        value           nonuniform List<scalar> 
43
(
0.000254113
0.000261365
0.000267738
0.000298034
0.000284123
0.000256661
0.000229251
0.00020791
0.000190039
0.000171609
0.000153339
0.000137504
0.000125685
0.000117642
0.000111976
0.000107401
0.000103008
9.82901e-05
9.31797e-05
8.80598e-05
8.35591e-05
8.02111e-05
7.82272e-05
7.75294e-05
7.79332e-05
7.92869e-05
8.15038e-05
8.45332e-05
8.83458e-05
9.29121e-05
9.82056e-05
0.000104221
0.000110976
0.000118488
0.000126692
0.000136358
0.000139782
0.000136519
0.000127776
0.000118911
0.000345504
0.000407663
0.000238931
)
;
    }
    sWall
    {
        type            nutkWallFunction;
        Cmu             0.09;
        kappa           0.41;
        E               9.8;
        value           uniform 0.00025418;
    }
    nWall
    {
        type            nutkWallFunction;
        Cmu             0.09;
        kappa           0.41;
        E               9.8;
        value           nonuniform List<scalar> 6(9.41797e-05 9.77731e-05 0.000117027 0.000137193 0.000139459 0.000118917);
    }
    sideWalls
    {
        type            empty;
    }
    glass1
    {
        type            nutkWallFunction;
        Cmu             0.09;
        kappa           0.41;
        E               9.8;
        value           nonuniform List<scalar> 9(0.00013965 0.000181659 0.000215655 0.000247554 0.000279719 0.000313921 0.000345917 0.000353176 0.000345952);
    }
    glass2
    {
        type            nutkWallFunction;
        Cmu             0.09;
        kappa           0.41;
        E               9.8;
        value           nonuniform List<scalar> 2(0.000177058 0.000166516);
    }
    sun
    {
        type            nutkWallFunction;
        Cmu             0.09;
        kappa           0.41;
        E               9.8;
        value           nonuniform List<scalar> 
14
(
0.000139517
0.000152545
0.00015699
0.000164678
0.00017185
0.00017879
0.000185964
0.000192655
0.000197832
0.000200599
0.000199971
0.000195015
0.000183774
0.000156506
)
;
    }
    Table_master
    {
        type            nutkWallFunction;
        Cmu             0.09;
        kappa           0.41;
        E               9.8;
        value           nonuniform List<scalar> 9(0.000118629 0.000102861 8.96925e-05 7.89701e-05 7.02629e-05 6.31594e-05 5.73253e-05 5.26012e-05 4.90391e-05);
    }
    Table_slave
    {
        type            nutkWallFunction;
        Cmu             0.09;
        kappa           0.41;
        E               9.8;
        value           nonuniform List<scalar> 9(0.000135141 0.000123023 0.000114078 0.000106928 0.000100654 9.50259e-05 8.95064e-05 8.3681e-05 7.70155e-05);
    }
    inlet
    {
        type            calculated;
        value           uniform 0.000167705;
    }
    outlet
    {
        type            calculated;
        value           nonuniform List<scalar> 2(0.00219242 0.00225983);
    }
}


// ************************************************************************* //
