/*--------------------------------*- C++ -*----------------------------------*\
  =========                 |
  \\      /  F ield         | OpenFOAM: The Open Source CFD Toolbox
   \\    /   O peration     | Website:  https://openfoam.org
    \\  /    A nd           | Version:  6
     \\/     M anipulation  |
\*---------------------------------------------------------------------------*/
FoamFile
{
    version     2.0;
    format      ascii;
    class       volScalarField;
    location    "210";
    object      T;
}
// * * * * * * * * * * * * * * * * * * * * * * * * * * * * * * * * * * * * * //

dimensions      [0 0 0 1 0 0 0];

internalField   nonuniform List<scalar> 
458
(
302.833
302.565
302.551
302.547
302.543
302.538
302.534
302.528
302.519
302.509
302.503
302.504
302.516
302.541
302.568
302.833
302.803
302.789
302.798
302.81
302.821
302.831
302.842
302.852
302.863
302.873
302.884
302.895
302.907
302.919
302.933
302.951
302.987
303.009
302.6
302.575
302.576
302.576
302.575
302.571
302.56
302.539
302.512
302.491
302.488
302.502
302.526
302.545
302.555
302.566
302.589
302.842
302.766
302.76
302.774
302.792
302.802
302.81
302.819
302.827
302.836
302.844
302.854
302.863
302.874
302.888
302.905
302.928
302.977
303.197
302.648
302.608
302.618
302.631
302.639
302.64
302.625
302.583
302.528
302.485
302.475
302.494
302.523
302.544
302.555
302.565
302.582
302.776
302.739
302.742
302.769
302.801
302.805
302.812
302.819
302.827
302.835
302.844
302.854
302.864
302.875
302.89
302.906
302.928
302.977
303.391
302.708
302.645
302.664
302.695
302.724
302.738
302.717
302.646
302.55
302.479
302.461
302.487
302.526
302.556
302.572
302.579
302.586
302.599
302.627
302.673
302.73
302.789
302.841
302.883
302.914
302.94
302.962
302.982
302.999
303.015
303.03
303.041
303.005
302.971
302.956
302.984
303.583
302.785
302.684
302.702
302.75
302.804
302.844
302.814
302.705
302.565
302.469
302.447
302.481
302.537
302.583
302.609
302.617
302.625
302.647
302.686
302.742
302.806
302.871
302.929
302.98
303.018
303.049
303.074
303.093
303.105
303.112
303.112
303.105
303.076
303.031
302.993
302.994
303.12
303.225
303.22
303.76
302.887
302.747
302.742
302.788
302.862
302.929
302.874
302.726
302.561
302.451
302.43
302.48
302.56
302.63
302.673
302.692
302.709
302.742
302.792
302.854
302.92
302.983
303.039
303.085
303.122
303.15
303.171
303.185
303.19
303.188
303.179
303.162
303.131
303.087
303.04
303.02
303.075
303.118
303.166
303.92
303.052
302.899
302.866
302.89
302.962
302.992
302.888
302.695
302.507
302.401
302.404
302.49
302.608
302.708
302.772
302.808
302.835
302.877
302.931
302.991
303.052
303.107
303.154
303.191
303.219
303.24
303.254
303.261
303.26
303.25
303.234
303.212
303.181
303.14
303.095
303.067
303.079
303.099
303.133
304.15
303.502
303.326
303.218
303.174
303.177
303.062
302.824
302.558
302.368
302.309
302.382
302.533
302.703
302.833
302.912
302.954
302.985
303.029
303.083
303.135
303.183
303.225
303.258
303.282
303.299
303.31
303.315
303.314
303.308
303.297
303.278
303.257
303.227
303.195
303.162
303.142
303.148
303.169
303.302
304.48
304.173
303.937
303.719
303.54
303.315
302.887
302.46
302.182
302.104
302.201
302.421
302.663
302.885
303.01
303.07
303.103
303.136
303.177
303.221
303.26
303.293
303.319
303.338
303.35
303.356
303.357
303.353
303.345
303.336
303.326
303.317
303.31
303.307
303.313
303.33
303.359
303.392
303.418
303.48
297.327
298.703
299.493
299.833
300.258
300.772
301.311
301.819
302.275
302.712
302.974
303.107
303.172
303.209
303.238
303.269
303.301
303.333
303.359
303.377
303.389
303.395
303.396
303.394
303.389
303.383
303.376
303.37
303.364
303.359
303.357
303.359
303.367
303.384
303.41
303.442
303.479
303.523
297.733
298.924
299.833
300.534
301.204
301.787
302.26
302.638
302.917
303.105
303.208
303.265
303.3
303.327
303.35
303.373
303.395
303.413
303.425
303.432
303.434
303.433
303.429
303.424
303.418
303.412
303.406
303.4
303.395
303.39
303.388
303.388
303.393
303.404
303.42
303.447
303.461
303.504
299.621
299.581
299.577
300.756
301.584
302.231
302.673
302.933
303.095
303.208
303.288
303.342
303.376
303.399
303.416
303.43
303.441
303.451
303.458
303.463
303.464
303.463
303.461
303.457
303.452
303.447
303.442
303.437
303.431
303.426
303.421
303.417
303.413
303.411
303.41
303.415
303.425
303.437
303.447
303.496
)
;

boundaryField
{
    floor
    {
        type            wallHeatTransfer;
        Tinf            uniform 305.2;
        alphaWall       uniform 0.24;
        value           nonuniform List<scalar> 
36
(
302.848
303.246
303.176
303.127
303.12
303.133
303.158
303.187
303.216
303.244
303.271
303.297
303.322
303.347
303.371
303.396
303.423
303.453
303.511
303.511
303.448
303.413
303.388
303.436
303.508
303.487
302.848
302.784
302.825
302.89
303.246
302.89
303.259
302.842
303.102
302.832
)
;
    }
    ceiling
    {
        type            wallHeatTransfer;
        Tinf            uniform 303.2;
        alphaWall       uniform 0.24;
        value           nonuniform List<scalar> 
43
(
299.835
299.792
299.784
300.884
301.673
302.289
302.708
302.952
303.103
303.208
303.28
303.327
303.357
303.376
303.39
303.402
303.411
303.418
303.423
303.426
303.426
303.424
303.421
303.417
303.414
303.41
303.406
303.402
303.399
303.395
303.392
303.39
303.388
303.387
303.388
303.393
303.403
303.413
303.42
303.463
304.421
304.135
298.077
)
;
    }
    sWall
    {
        type            wallHeatTransfer;
        Tinf            uniform 315.2;
        alphaWall       uniform 0.36;
        value           uniform 300.984;
    }
    nWall
    {
        type            wallHeatTransfer;
        Tinf            uniform 307.2;
        alphaWall       uniform 0.36;
        value           nonuniform List<scalar> 6(303.974 303.911 303.795 304.056 304.032 304.092);
    }
    sideWalls
    {
        type            empty;
    }
    glass1
    {
        type            wallHeatTransfer;
        Tinf            uniform 315.2;
        alphaWall       uniform 4.3;
        value           nonuniform List<scalar> 9(311.12 310.518 310.136 309.845 309.601 309.375 309.197 309.266 309.497);
    }
    glass2
    {
        type            wallHeatTransfer;
        Tinf            uniform 307.2;
        alphaWall       uniform 4.3;
        value           nonuniform List<scalar> 2(305.711 305.828);
    }
    sun
    {
        type            wallHeatTransfer;
        Tinf            uniform 305.2;
        alphaWall       uniform 0.24;
        value           nonuniform List<scalar> 
14
(
303.069
302.81
302.791
302.778
302.767
302.755
302.744
302.732
302.72
302.708
302.703
302.708
302.729
302.782
)
;
    }
    Table_master
    {
        type            zeroGradient;
    }
    Table_slave
    {
        type            zeroGradient;
    }
    inlet
    {
        type            fixedValue;
        value           uniform 295.15;
    }
    outlet
    {
        type            zeroGradient;
    }
}


// ************************************************************************* //
