/*--------------------------------*- C++ -*----------------------------------*=========                 |
  \      /  F ield         | OpenFOAM: The Open Source CFD Toolbox
   \    /   O peration     | Website:  https://openfoam.org
    \  /    A nd           | Version:  6
     \/     M anipulation  |
\*---------------------------------------------------------------------------*/
FoamFile
{
    version     2.0;
    format      ascii;
    class       volScalarField;
    location    "560";
    object      PMV;
}
// * * * * * * * * * * * * * * * * * * * * * * * * * * * * * * * * * * * * * //

dimensions      [0 0 0 0 0 0 0];

internalField   nonuniform List<scalar> 
458
(
1.3240672086361638
1.0779464110827062
1.0452078633012043
1.0162852062322887
0.9977994076648764
0.9891648081775166
0.991742079705822
1.006573101954318
1.0359057548654336
1.0840910688142515
1.1548739487069681
1.2247195927884174
1.2404748121850213
1.2490682298338398
1.2610031192223377
1.3765041100894504
1.3631433401658781
1.3593258205240564
1.3660064345965146
1.3707781714592373
1.3745954816648647
1.37015643403777
1.3663232921904587
1.367282592724142
1.3696413746492253
1.3721570420920468
1.3754233095953252
1.3802457263505188
1.386689328471821
1.3979592280892315
1.4065625858660304
1.4108562700746683
1.4251678284528424
1.2566352727016594
1.0899502369794987
1.0779141817751945
1.049394858410577
1.0325777556307412
1.0241659560600649
1.0253108193265021
1.0337424915483766
1.0481181472204029
1.0728411429847584
1.1132336638191267
1.1741860407845683
1.2371328621160798
1.2481134177644733
1.254314225421668
1.2118490520194334
1.2123711595058515
1.2348858852070832
1.3304738166490224
1.349781723856356
1.349781723856356
1.3574170350190786
1.3601601788599829
1.3598176495744736
1.359888813265797
1.3615006453215666
1.3622224721098428
1.362503232587134
1.3634116027139818
1.3642347391607448
1.3658252368819037
1.368944550088616
1.3775494347440789
1.3860469817708043
1.392726719421872
1.3768405195072462
1.2884209914180578
1.080990419409095
1.1106421446174248
1.0955708975641174
1.0883345058859533
1.0847521901676878
1.0846752866945975
1.0810568952013062
1.0678612340855098
1.0561348773922767
1.0674540480240724
1.116345512595566
1.2086161136922942
1.254797037620616
1.2610031192223377
1.2638674193565596
1.2641934812007367
1.2455110386655601
1.2406918893854568
1.3041428302972475
1.31373854809546
1.3221194626678974
1.333374566149928
1.3375056991665546
1.3600941903370496
1.3745954816648647
1.3745954816648647
1.3750726404448044
1.3750726404448044
1.3755497981098341
1.3760269546585358
1.3765041100894504
1.3793670191217662
1.382707028323426
1.3756934992003544
1.3034068281092832
1.3626606311873732
1.0747220505791317
1.1342894885491162
1.1452522836068257
1.162398148410408
1.1739790852927083
1.1759715740931824
1.1517311524043365
1.0943106832601115
1.0407021871067006
1.0283264100207974
1.0750430031329543
1.167903500599145
1.2608062814649843
1.2748469661212203
1.2762790487703597
1.2492208515462468
1.2250346360735243
1.1745730879843022
1.241067620571558
1.277034198371411
1.3035014589912142
1.333653374561311
1.368270903622295
1.3953795474695645
1.3892192385311255
1.3835483364958636
1.3824285206585158
1.383678441769018
1.3862472951439855
1.393324348778409
1.4065258386835127
1.4297913361999168
1.4287302317760848
1.4146727950447326
1.355604040027974
1.2593980410084198
1.4567583359048326
1.0830226156532587
1.1518324037567798
1.1892873939313806
1.2449070387138634
1.2917467945165753
1.3003156545489845
1.2275999412074199
1.1159984763140798
1.0264756679961666
0.9996826081899952
1.0488979988616347
1.1439497302182304
1.2471407870096574
1.2944180991174212
1.2963273997084575
1.283870381770588
1.2555394729542317
1.2542244904659248
1.270583749966512
1.3020299560662267
1.3424017907013253
1.384287394157512
1.4251400581886917
1.4528335653128013
1.4648390047023023
1.4658043485020904
1.465470645239527
1.4638285008724363
1.4614258146602896
1.4589358094247982
1.4587478517573618
1.4579190150492363
1.4426099723905585
1.4156771535605805
1.3405880770318397
1.3409059340021878
1.3385490010644308
1.4231245377434236
1.3016612978434592
1.5543661208045325
1.1131622432606747
1.182593718277392
1.2213382390705876
1.306588152933226
1.3822298875537624
1.4173523097119816
1.2564434601113015
1.1142295158933502
1.0093105677081513
0.9798591265293044
1.033288392372603
1.1397422673323838
1.2590661842954276
1.3225788020960865
1.32830600136324
1.3259196853348487
1.3273514778795326
1.3389433543398022
1.3595474954268725
1.3937763218691681
1.4261218921764829
1.4537874764500964
1.4762027924470182
1.4933698324117206
1.5048134533625392
1.512918817615208
1.517209710272276
1.5191167326702206
1.5181632246380021
1.5138723603129054
1.506720638133433
1.4896233382155317
1.4596862902316514
1.4226406530049558
1.35186066206883
1.3450012703105465
1.3383957653008913
1.3633529968628983
1.3716857032082193
1.6467136119335521
1.1999919448155736
1.302481457088491
1.2803735680267256
1.3354023947969513
1.4151498551188135
1.34866440324472
1.2263197871983174
1.0840022048254399
0.9798078748012745
0.9603351311504126
1.0328852231786276
1.1629829301907761
1.3060717555841626
1.3612345889362156
1.372209671091251
1.3726868354244133
1.3784127206068486
1.3965436098147277
1.4223056068658837
1.4509257267441642
1.4776334512898484
1.5005221979394467
1.5181632246380021
1.530081615378127
1.5377088536689378
1.5415223144409174
1.5429523347493113
1.5419989895478874
1.538662228823384
1.5319884642643835
1.5229307011899091
1.5119652686589649
1.4952205622044232
1.450376011303237
1.3881990535013482
1.358886918213135
1.3383677714945648
1.3102501702382316
1.4162411324766897
1.7873163999357833
1.5731875038202245
1.5150496405023608
1.3982782182401823
1.3769017427835646
1.3656773021518338
1.2934081900554877
1.1508043965105395
1.0017006492565037
0.9206800304332936
0.9420924398576302
1.0613911850593014
1.2317271495147666
1.3707781714592373
1.411810408692503
1.4237367233509748
1.4285070291923383
1.4385242529956432
1.4580800089658514
1.4819253497821885
1.5052902518633553
1.5253143795533186
1.5405689592234235
1.5510554972204043
1.5572517014174214
1.559634779366366
1.5601113897545005
1.5586815533830078
1.5562984581343648
1.5520087782464587
1.545812330127128
1.537232163609265
1.5267445672754083
1.51434912931053
1.5009990102033095
1.4862171302974994
1.4769134931580634
1.4490131194760865
1.3701299437109293
1.2837435855691215
1.9963925060402437
1.848919952576038
1.68774159005803
1.5447971495451844
1.4526102252984627
1.3801277519441104
1.18472934681353
0.9646186382074942
0.8339234964686382
0.8356368903902568
0.9554886171414188
1.1616275846029558
1.3569398359825522
1.436139251663427
1.4652339815348019
1.4781103346892233
1.4866939874649545
1.4990917520293985
1.51577942687824
1.5334185837843075
1.5491489147351942
1.5605879984045519
1.5668996445229684
1.562612779773686
1.5569367369044234
1.5501298024445522
1.5424133673998714
1.5338475250138413
1.523651611887595
1.5122380279235088
1.4986361190849118
1.4837477916514248
1.4697674740934976
1.4529603052157478
1.4334956431022683
1.41574915919755
1.404357523950988
1.3996980900535692
1.3898292012144462
1.3584168693313794
-1.6641275292177633
-0.7612208203630397
-0.2054001345953886
-0.006475198821568911
0.13851619564996995
0.3261827005034143
0.5701652167110042
0.848993478996827
1.1447036262014985
1.3564626358847356
1.4556952823678022
1.4740601286979353
1.4829940094507823
1.4915993710259523
1.502291207454414
1.5150898269546007
1.5269407242145687
1.5358107190975254
1.5400179972753778
1.5402606151322047
1.5375183748061498
1.532877680331737
1.526235403612874
1.5188636012550318
1.5102783721419948
1.501220804079573
1.4926695145453348
1.4852830153118695
1.4795931836570393
1.4752707455568248
1.4725004676919569
1.470660047562743
1.4687352343272242
1.4694615068298555
1.4794500651762732
1.516269964439344
1.5835140023970466
1.4312627382712637
-1.6754453162046024
-0.5913030920396883
-0.013887945592120622
0.30786138107422284
0.5193075158306916
0.7805364663201805
1.053281130268291
1.282962001037177
1.375880194900763
1.4203772510118093
1.4487418197394732
1.4652077625343702
1.476546244507677
1.485634367341192
1.4942421603145408
1.5016804016085268
1.5077758680999165
1.5128877907336862
1.5152261883017675
1.515799813818517
1.5147127616826925
1.5121017383342448
1.5090916788795605
1.5058447146754765
1.50253098067672
1.4993332929469012
1.4969662418780874
1.495400675648748
1.4955817038112242
1.4982693745734004
1.505073695576422
1.5166754787227228
1.5289466386584931
1.5392901017535703
1.54998591248748
1.5851664787957263
1.5330879064028515
1.4742876423625229
-1.1322404639410826
-1.1317062516242065
-1.0081548869781949
-0.20672414913959938
0.3778464936933114
0.7930070015309513
1.0908458115936537
1.238303991980268
1.3266572020782732
1.380158351240642
1.414581619397845
1.4389527054450189
1.4538610296386383
1.4627401865506036
1.4678365589878257
1.4713592139407252
1.4731699908964386
1.4731195080228956
1.4715403255935369
1.4692959962240648
1.4662898967652565
1.4631256937747208
1.460462898410721
1.4578823030454153
1.4565285631335052
1.4555520915792546
1.4557225174942516
1.457409193948858
1.4611369042334876
1.467136146021788
1.4770333046358952
1.4913572589600455
1.5146405161975827
1.5551661216188708
1.614431744001609
1.6206247739391755
1.5926061704730858
1.5327123646621328
1.4815879492803639
1.4945956398820104
)
;

boundaryField
{
    ".*"
    {
        type            zeroGradient;
    }
}


// ************************************************************************* //
