/*--------------------------------*- C++ -*----------------------------------*\
  =========                 |
  \\      /  F ield         | OpenFOAM: The Open Source CFD Toolbox
   \\    /   O peration     | Website:  https://openfoam.org
    \\  /    A nd           | Version:  6
     \\/     M anipulation  |
\*---------------------------------------------------------------------------*/
FoamFile
{
    version     2.0;
    format      ascii;
    class       volScalarField;
    location    "45100.0000002009547";
    object      nut;
}
// * * * * * * * * * * * * * * * * * * * * * * * * * * * * * * * * * * * * * //

dimensions      [0 2 -1 0 0 0 0];

internalField   nonuniform List<scalar> 
778
(
0.000894332
0.000953099
0.000949625
0.000990835
0.00102859
0.00106288
0.00109479
0.00112555
0.00115652
0.00118942
0.00122079
0.00125059
0.00127995
0.00131153
0.0013445
0.000632161
0.000905457
0.000912696
0.000890547
0.000853548
0.000804151
0.000754968
0.000709691
0.000668875
0.000632267
0.000599632
0.000570313
0.000543601
0.00051867
0.000494408
0.000469041
0.000447982
0.000405522
0.00131081
0.00258128
0.00226515
0.00261454
0.00286812
0.00313693
0.00340503
0.00365202
0.00385077
0.00396638
0.00403428
0.00400612
0.00380622
0.00331122
0.00241827
0.00147209
0.00140351
0.00134351
0.00113144
0.001927
0.00267078
0.00310986
0.0031302
0.0024702
0.00211265
0.00186468
0.00167648
0.00152687
0.00139938
0.00128664
0.00118171
0.00107903
0.000986889
0.000907444
0.00102225
0.000514187
0.00166409
0.00360466
0.00267231
0.00382243
0.00427131
0.00465116
0.00499606
0.0052995
0.00555642
0.00575771
0.00595272
0.00615789
0.00634642
0.00645869
0.0063844
0.00584622
0.00427624
0.00164811
0.0014269
0.00305221
0.00426006
0.00483174
0.00439484
0.00115958
0.00100826
0.000891481
0.000800112
0.000727423
0.000668775
0.000620958
0.000582073
0.000551756
0.00060655
0.00071354
0.00113016
0.000585056
0.00200534
0.00485887
0.00255736
0.00429813
0.00496276
0.00531849
0.00558004
0.00577345
0.00591765
0.00603433
0.00620026
0.00648068
0.00688999
0.00740494
0.00792301
0.00817893
0.00768199
0.00573557
0.00164117
0.00379614
0.00565075
0.006595
0.00682909
0.00583124
0.00132022
0.00120087
0.00110845
0.00103155
0.000966012
0.000907171
0.000851716
0.000796654
0.000737192
0.00068865
0.000713844
0.00122372
0.000644312
0.0023421
0.00643383
0.00258051
0.0040861
0.00510797
0.00541149
0.00552187
0.00552634
0.00547152
0.00542276
0.00549201
0.00576431
0.00626424
0.00697248
0.00779416
0.00855153
0.00903174
0.00902569
0.00809945
0.00824018
0.00843005
0.00845803
0.00828727
0.00775786
0.00617461
0.00533393
0.00475795
0.00429044
0.00383139
0.00338647
0.00295111
0.00251642
0.0020701
0.00159012
0.00121337
0.00121234
0.000959444
0.000768498
0.00101775
0.000976062
0.00267377
0.00819726
0.00303855
0.00344587
0.0048944
0.00523122
0.00520473
0.00501768
0.00475002
0.00452916
0.00452406
0.0048095
0.00537927
0.00620054
0.00716157
0.0081222
0.00893882
0.00946077
0.00955572
0.00946007
0.0092931
0.00905613
0.00875108
0.00836241
0.00779468
0.00724742
0.00675039
0.00627026
0.00575134
0.00519696
0.00460483
0.00397014
0.00328896
0.00256632
0.00191203
0.00143564
0.00111529
0.00125102
0.00217834
0.00116708
0.00301237
0.00982876
0.00404995
0.00282331
0.00439792
0.0049485
0.00488783
0.00458492
0.0041453
0.00375867
0.00374769
0.00410855
0.00476113
0.00567972
0.00672388
0.00775751
0.00864677
0.00928361
0.00957663
0.00955427
0.00934524
0.00902833
0.00866515
0.00830259
0.00795171
0.00762954
0.00732673
0.00700368
0.00661305
0.00614275
0.00558612
0.00494067
0.00420889
0.00340908
0.00262688
0.00189894
0.00139902
0.00124918
0.00222032
0.00137622
0.00330374
0.0110654
0.00552291
0.002689
0.00348376
0.00438702
0.00451338
0.00426449
0.0037448
0.00321917
0.00333876
0.00381646
0.00454695
0.00549387
0.00657916
0.00766114
0.00858323
0.00922348
0.00951419
0.00947626
0.00920598
0.00880706
0.00837766
0.00799662
0.00770282
0.00749287
0.00732899
0.00715085
0.00690247
0.00655485
0.00609465
0.00551926
0.00483405
0.00405878
0.0032516
0.00243771
0.00170273
0.00115121
0.00317396
0.00180281
0.00339342
0.0104825
0.00683851
0.00347882
0.00236198
0.00289392
0.00338796
0.00343028
0.00302925
0.00294454
0.00325066
0.00381281
0.00460356
0.00560883
0.00674703
0.0078623
0.00878038
0.00937013
0.00957665
0.00943353
0.00904134
0.00852673
0.00801573
0.00760777
0.00734883
0.00722184
0.00716425
0.00709574
0.00695255
0.00670107
0.00632815
0.00583249
0.00522006
0.00450652
0.00372219
0.00284112
0.0016345
0.00148693
0.00486293
0.00206965
0.0033246
0.00845604
0.00706659
0.00477757
0.00315405
0.00244101
0.00231145
0.0024205
0.00262428
0.0029485
0.00340855
0.00404179
0.0049029
0.00598802
0.00718885
0.00831948
0.00918826
0.00966484
0.00971277
0.00939002
0.00882319
0.00817053
0.00758719
0.00718715
0.00700399
0.00698304
0.00702305
0.0070224
0.00692922
0.0067251
0.00640405
0.00596561
0.00541271
0.00474981
0.00395847
0.00277555
0.0011904
0.00296016
0.00450613
0.00209094
0.00311414
0.00722931
0.00683482
0.00546915
0.00420771
0.0033864
0.0029801
0.00288801
0.00305599
0.00336541
0.00381531
0.00448435
0.00543651
0.00662729
0.00788934
0.00899466
0.00974071
0.0100147
0.00981522
0.00924114
0.00846274
0.00768242
0.00708793
0.00678943
0.00675593
0.00685513
0.0069542
0.00695618
0.00685743
0.00665962
0.00635932
0.00595129
0.0054293
0.00477711
0.00392147
0.00251978
0.00126789
0.00323301
0.00455406
0.00207641
0.00283568
0.00652025
0.00659535
0.00579139
0.00492527
0.00427354
0.00388984
0.00375253
0.00378656
0.00397296
0.00438598
0.00513416
0.0062361
0.00755544
0.00884307
0.0098341
0.0103381
0.0102876
0.00974078
0.00885689
0.00787161
0.00704608
0.00657709
0.00648482
0.00657102
0.00670293
0.00678751
0.00676279
0.00664751
0.00644778
0.00615706
0.00575642
0.00522152
0.00450287
0.00351665
0.00222866
0.00147449
0.00325113
0.00503675
0.00210721
0.00258627
0.0058359
0.00630094
0.00591951
0.00536279
0.00489553
0.00458485
0.00443274
0.00438673
0.00454511
0.00506969
0.00604835
0.00738239
0.00880947
0.0100095
0.0107198
0.0108083
0.0102901
0.00931272
0.0081169
0.00703156
0.0063344
0.00603262
0.00600725
0.00610633
0.00622482
0.00629228
0.00626592
0.00614649
0.00594337
0.00564397
0.00521159
0.0045768
0.00366933
0.00257885
0.00177615
0.00179383
0.00351583
0.00496529
0.00223758
0.00259531
0.0057932
0.00643948
0.00599265
0.00554158
0.00517241
0.00490607
0.00473236
0.00472268
0.0051082
0.00603491
0.00742251
0.0089863
0.0103603
0.0112249
0.0113981
0.0108688
0.00976597
0.00836589
0.00700619
0.00601949
0.00544862
0.00519875
0.00515946
0.00522728
0.00531441
0.00535986
0.00533111
0.00519752
0.00497364
0.00463173
0.00409752
0.00328536
0.00232464
0.00169961
0.00169096
0.00228451
0.00400663
0.00517286
0.00225681
0.00234237
0.00243609
0.00359202
0.00421866
0.00441143
0.00441302
0.0043686
0.00444675
0.00498264
0.00613305
0.0077578
0.00951323
0.0110099
0.0119234
0.0120689
0.011421
0.0101433
0.00848156
0.00689558
0.0056577
0.00484125
0.00439218
0.00420503
0.00416048
0.0041673
0.00416549
0.00412243
0.00402638
0.00385759
0.00361147
0.00327598
0.00279859
0.00219077
0.00170843
0.00165778
0.00206688
0.00286138
0.00404438
0.00492423
0.002136
0.000806827
0.00146293
0.0022563
0.00289477
0.00363415
0.00488851
0.00673799
0.00879899
0.0106815
0.0120879
0.0128118
0.0127211
0.011829
0.0102433
0.00836828
0.00660356
0.0052174
0.0043085
0.00382841
0.00361097
0.00351075
0.00344343
0.00336538
0.00325718
0.00311813
0.00296059
0.0027997
0.00262844
0.00244504
0.0022326
0.00199555
0.00184488
0.0019734
0.00246584
0.00323082
0.00400308
0.00426286
0.00203514
0.00149747
0.00207267
0.00302306
0.0047244
0.00704078
0.00937096
0.0111874
0.0125087
0.0133142
0.0135374
0.013069
0.0118081
0.00996051
0.00789383
0.0060223
0.00465163
0.00387631
0.00353014
0.00339233
0.00332951
0.00328085
0.00322054
0.00314106
0.00304676
0.00294847
0.00285661
0.00277534
0.00269944
0.00262468
0.00255042
0.00248375
0.00246359
0.00259017
0.00298942
0.00369277
0.00456432
0.00531504
0.00207196
0.00275776
0.00668053
0.00613507
0.00546985
0.00695124
0.0092846
0.0112641
0.0126126
0.0133378
0.0135318
0.0132671
0.0124913
0.0111592
0.00932337
0.00727074
0.00547222
0.00431089
0.00376808
0.00357614
0.00352423
0.003511
0.00349411
0.0034583
0.00340243
0.00333309
0.00325997
0.00319276
0.00314
0.00310915
0.00310554
0.00312825
0.00317371
0.00324086
0.00335972
0.00358298
0.00398877
0.00468713
0.00591569
0.00611786
0.00228714
0.00263886
0.00509507
0.00656025
0.0083833
0.00931107
0.0102778
0.0108484
0.0109968
0.0107996
0.0103075
0.00953042
0.00845644
0.00711948
0.00569869
0.00449811
0.00374987
0.00340311
0.00329073
0.00328624
0.00332008
0.00335538
0.00337359
0.00336836
0.00334147
0.00329891
0.00324837
0.00319943
0.00316573
0.00316619
0.0032226
0.00335352
0.00356406
0.00382998
0.00410749
0.00443472
0.00490173
0.00558823
0.00671062
0.00659284
0.00238396
0.00247353
0.00212029
0.00211015
0.00217243
0.00222443
0.00216059
0.00203402
0.00188483
0.00173305
0.00158539
0.00144339
0.00131056
0.00119681
0.00111534
0.00107172
0.0010559
0.00105673
0.00106551
0.00107742
0.0010901
0.0011026
0.00111493
0.0011278
0.00114257
0.00116113
0.00118585
0.00121938
0.00126409
0.00132115
0.0013897
0.00146698
0.00154973
0.00163621
0.00172772
0.00182257
0.00192168
0.00202639
0.00214067
0.00226376
0.00218111
)
;

boundaryField
{
    floor
    {
        type            nutkWallFunction;
        Cmu             0.09;
        kappa           0.41;
        E               9.8;
        value           nonuniform List<scalar> 
36
(
0.000160534
7.63563e-05
0.000109532
0.000110392
0.000107756
0.000103334
9.7395e-05
9.14392e-05
8.59154e-05
8.08998e-05
7.63699e-05
7.23048e-05
6.86296e-05
6.52612e-05
6.20988e-05
5.90032e-05
5.57464e-05
5.30258e-05
4.74901e-05
4.749e-05
6.15279e-05
7.04801e-05
7.78632e-05
9.30823e-05
0.000122817
0.000117902
0.000160535
0.000174974
0.00016723
0.000160421
7.63563e-05
0.000160421
0.000136067
0.000194672
0.000169875
0.0001939
)
;
    }
    ceiling
    {
        type            nutkWallFunction;
        Cmu             0.09;
        kappa           0.41;
        E               9.8;
        value           nonuniform List<scalar> 
43
(
0.000284302
0.000246392
0.000245297
0.000252035
0.000257651
0.000250785
0.000237088
0.000220816
0.000204115
0.000187713
0.000171778
0.000156709
0.000143659
0.00013422
0.000129129
0.000127273
0.000127366
0.000128394
0.000129789
0.000131273
0.000132735
0.000134171
0.000135665
0.000137371
0.000139505
0.000142336
0.000146163
0.000151256
0.000157742
0.000165517
0.000174258
0.000183583
0.000193279
0.000203482
0.000214006
0.000224927
0.000236383
0.000248802
0.00026207
0.000253055
0.000270496
0.000280512
0.000177622
)
;
    }
    sWall
    {
        type            nutkWallFunction;
        Cmu             0.09;
        kappa           0.41;
        E               9.8;
        value           nonuniform List<scalar> 9(0.000373884 0.000352051 0.000322929 0.000296596 0.000297551 0.000270586 0.00031442 0.000301901 0.000284404);
    }
    nWall
    {
        type            nutkWallFunction;
        Cmu             0.09;
        kappa           0.41;
        E               9.8;
        value           nonuniform List<scalar> 
14
(
0.00011791
0.000140211
0.000164168
0.000243374
0.000241851
0.000245412
0.000259388
0.000261285
0.00024813
0.000237166
0.000241497
0.000264498
0.000274821
0.000253093
)
;
    }
    sideWalls
    {
        type            empty;
    }
    glass1
    {
        type            nutkWallFunction;
        Cmu             0.09;
        kappa           0.41;
        E               9.8;
        value           nonuniform List<scalar> 9(0.000108251 0.000156886 0.000196743 0.000234358 0.000270804 0.000306157 0.000341778 0.0003721 0.000381386);
    }
    glass2
    {
        type            nutkWallFunction;
        Cmu             0.09;
        kappa           0.41;
        E               9.8;
        value           nonuniform List<scalar> 2(0.000211988 0.000241185);
    }
    sun
    {
        type            nutkWallFunction;
        Cmu             0.09;
        kappa           0.41;
        E               9.8;
        value           nonuniform List<scalar> 
14
(
0.000108209
0.000115185
0.000114774
0.000119639
0.000124076
0.000128088
0.00013181
0.000135385
0.000138973
0.000142774
0.000146387
0.000149809
0.000153172
0.000156779
)
;
    }
    Table_master
    {
        type            nutkWallFunction;
        Cmu             0.09;
        kappa           0.41;
        E               9.8;
        value           nonuniform List<scalar> 9(0.000139317 0.000121681 0.000107864 9.69066e-05 8.80848e-05 8.08909e-05 7.49695e-05 7.01136e-05 6.63002e-05);
    }
    Table_slave
    {
        type            nutkWallFunction;
        Cmu             0.09;
        kappa           0.41;
        E               9.8;
        value           nonuniform List<scalar> 9(0.000157758 0.000144082 0.00013339 0.000124414 0.000116705 0.000109732 0.000103112 9.64894e-05 8.92763e-05);
    }
    inlet
    {
        type            calculated;
        value           uniform 0.000167705;
    }
    outlet
    {
        type            calculated;
        value           nonuniform List<scalar> 2(0.00275776 0.00668053);
    }
}


// ************************************************************************* //
