/*--------------------------------*- C++ -*----------------------------------*\
  =========                 |
  \\      /  F ield         | OpenFOAM: The Open Source CFD Toolbox
   \\    /   O peration     | Website:  https://openfoam.org
    \\  /    A nd           | Version:  6
     \\/     M anipulation  |
\*---------------------------------------------------------------------------*/
FoamFile
{
    version     2.0;
    format      ascii;
    class       surfaceScalarField;
    location    "45100.0000002009547";
    object      phi;
}
// * * * * * * * * * * * * * * * * * * * * * * * * * * * * * * * * * * * * * //

dimensions      [1 0 -1 0 0 0 0];

internalField   nonuniform List<scalar> 
1482
(
-0.00279974
0.00286377
-0.00348387
0.000684134
-0.00414444
0.000660568
-0.00475835
0.000613912
-0.00527951
0.000521154
-0.00569117
0.000411659
-0.00598213
0.00029096
-0.00613936
0.000157231
-0.00614556
6.2002e-06
-0.00597477
-0.000170791
-0.00559704
-0.00037772
-0.00498135
-0.000615698
-0.00405746
-0.00092389
-0.00257915
-0.0014783
-0.00257623
-6.33729e-05
6.82279e-05
0.000781708
-0.000845081
0.00143536
-0.000653654
0.00183582
-0.000400455
0.00205829
-0.000222472
0.00216298
-0.000104689
0.00221033
-4.73576e-05
0.00223322
-2.28882e-05
0.00224311
-9.8825e-06
0.0022441
-9.9667e-07
0.00223707
7.03533e-06
0.00221801
1.90609e-05
0.00217361
4.43955e-05
0.00207064
0.000102971
0.00185357
0.000217067
0.00149533
0.000358241
0.00102265
0.000472679
0.00102909
-0.00204033
0.00507442
-0.00290836
0.00155216
-0.00369407
0.00144628
-0.00434493
0.00126477
-0.00488195
0.00105818
-0.00531043
0.000840141
-0.00562861
0.000609143
-0.00582973
0.000358349
-0.00590314
7.9614e-05
-0.00584105
-0.000232887
-0.00563762
-0.000581144
-0.00528153
-0.00097179
-0.00477157
-0.00143385
-0.00428573
-0.00196415
-0.0047015
-0.00216046
-0.00311601
-0.00158005
-0.00163378
-0.00147654
-0.00161893
0.00131837
-0.00123993
0.00166351
-0.00119022
0.00191624
-0.000906386
0.00210848
-0.000592698
0.00221677
-0.000330758
0.00222585
-0.000113772
0.00222775
-4.92608e-05
0.00222931
-2.4445e-05
0.00223025
-1.08205e-05
0.00223027
-1.01514e-06
0.00222892
8.37647e-06
0.00222473
2.32521e-05
0.00221208
5.705e-05
0.00215006
0.000164995
0.00190007
0.000467054
0.00146985
0.00078846
0.000905003
0.00103752
0.00195098
-0.0014882
0.00682053
-0.00235898
0.00242295
-0.00312882
0.00221612
-0.00371286
0.00184881
-0.0041833
0.00152861
-0.00455447
0.00121132
-0.00482821
0.000882881
-0.00500131
0.000531444
-0.00506739
0.000145695
-0.0050174
-0.000282875
-0.00484059
-0.000757953
-0.00452948
-0.00128289
-0.00411484
-0.0018485
-0.00371728
-0.0023617
-0.00329681
-0.00258092
-0.00236568
-0.00251118
-0.00127234
-0.00256988
-0.00287844
0.00115135
-0.00237683
0.00165525
-0.00169411
0.00195414
-0.00120527
0.00214777
-0.00078633
0.00217958
-0.000362574
0.00206597
0.00201686
0.00199257
0.0019819
0.00198104
0.00198957
0.00201298
0.00207018
0.00223533
0.00187684
0.000825549
0.00142834
0.00123696
0.000807534
0.00165833
0.00278453
-0.001106
0.00825773
-0.0019278
0.00324475
-0.00256967
0.00285799
-0.00302982
0.00230897
-0.00339714
0.00189593
-0.00368568
0.00149985
-0.00389845
0.00109565
-0.00403362
0.000666612
-0.00408369
0.000195774
-0.00403551
-0.000331058
-0.00387677
-0.000916695
-0.00360328
-0.00155638
-0.00323756
-0.00221422
-0.00281539
-0.00278387
-0.00227576
-0.00312055
-0.00155597
-0.00323098
-0.000867645
-0.00325821
-0.000687074
-0.00305901
0.00144924
-0.00212087
0.00137945
-0.00230703
0.00169429
-0.00200895
0.00200649
-0.00151747
0.00227249
-0.00105233
0.00254768
-0.000637758
0.00286339
-0.00031587
0.00303195
-0.000168716
0.00309809
-6.62848e-05
0.00308233
1.56003e-05
0.00299345
8.87303e-05
0.00283235
0.000160946
0.00259111
0.000241082
0.00224671
0.000344249
0.00174174
0.000504814
0.00160502
0.000962266
0.00127728
0.00156471
0.000749943
0.00218566
0.00356877
-0.000803707
0.00945463
-0.00157975
0.00402079
-0.00204819
0.00332643
-0.00236371
0.00262449
-0.00260788
0.0021401
-0.00279319
0.00168517
-0.00292468
0.00122713
-0.00300305
0.000744983
-0.00302176
0.000214492
-0.00296422
-0.000388595
-0.00281715
-0.00106377
-0.0025735
-0.00180004
-0.00223975
-0.00254797
-0.001823
-0.00320062
-0.00131742
-0.00362614
-0.000740661
-0.00380773
-0.00020919
-0.00378968
0.000268038
-0.00353624
0.00112864
-0.00298148
0.00149368
-0.00267208
0.00175163
-0.00226689
0.00200344
-0.00176929
0.00223298
-0.00128187
0.00244728
-0.000852062
0.00264946
-0.000518042
0.0027611
-0.000280364
0.00279905
-0.000104231
0.0027749
3.97513e-05
0.00269491
0.000168716
0.00256147
0.000294393
0.00237331
0.000429242
0.0021281
0.000589454
0.00183415
0.000798769
0.00162903
0.00116738
0.00148933
0.00170441
0.00131374
0.00236124
0.00230958
0.00257293
0.00134604
0.000998435
0.00189806
-0.00052343
0.00201646
-0.000575812
0.0104768
-0.00132462
0.0047696
-0.00158398
0.00358579
-0.00174968
0.00279019
-0.00186347
0.00225389
-0.00193479
0.00175649
-0.0019701
0.00126244
-0.0019737
0.000748583
-0.00194237
0.000183158
-0.00185439
-0.000476571
-0.00169991
-0.00121826
-0.00146882
-0.00203113
-0.001164
-0.00285279
-0.000791307
-0.00357331
-0.000371181
-0.00404627
6.9371e-05
-0.00424829
0.000474684
-0.004195
0.000848973
-0.00391053
0.00129938
-0.00343188
0.00159734
-0.00297004
0.00179968
-0.00246924
0.00197047
-0.00194008
0.00212193
-0.00143333
0.00225679
-0.000986922
0.00236274
-0.000623993
0.00242259
-0.00034021
0.00243564
-0.000117284
0.00240688
6.85098e-05
0.0023409
0.000234693
0.00224133
0.000393967
0.00211209
0.000558482
0.00196026
0.000741284
0.00180062
0.000958408
0.00171016
0.00125784
0.00176954
0.00164503
0.00198658
0.00214421
0.00223961
0.0023199
0.00176004
0.001478
0.000830554
0.000406053
0.00294415
-0.000543524
0.0115125
-0.00124364
0.00546972
-0.00119161
0.00353376
-0.00119967
0.00279825
-0.00119181
0.00224602
-0.00115817
0.00172286
-0.00110095
0.00120521
-0.00102588
0.000673516
-0.000927372
8.46515e-05
-0.000778467
-0.000625476
-0.000589188
-0.00140753
-0.000348859
-0.00227145
-6.46144e-05
-0.00313704
0.000240659
-0.00387859
0.00055103
-0.00435664
0.000846465
-0.00454373
0.00110955
-0.00445809
0.00134272
-0.0041437
0.00157386
-0.00366303
0.00173262
-0.0031288
0.00183157
-0.00256818
0.00190092
-0.00200943
0.00195657
-0.00148898
0.00200379
-0.00103415
0.00203737
-0.000657569
0.00205142
-0.000354259
0.00204224
-0.000108103
0.00201026
0.000100485
0.00195825
0.000286706
0.00188965
0.000462567
0.00180937
0.000638758
0.00172579
0.00082487
0.00165412
0.00103008
0.00163855
0.00127341
0.00172627
0.00155731
0.00194299
0.00192749
0.00221244
0.00205044
0.00224196
0.00144848
0.00164548
0.00100252
0.00469205
-0.000483788
0.0125318
-0.00105158
0.00603751
-0.000697177
0.00317936
-0.000635985
0.00273706
-0.000567342
0.00217738
-0.000462437
0.00161796
-0.000333247
0.00107602
-0.0001819
0.000522168
7.39016e-06
-0.000104639
0.000225504
-0.00084359
0.000465358
-0.00164739
0.00072339
-0.00252949
0.000980796
-0.00339444
0.00120983
-0.00410762
0.00140969
-0.0045565
0.00157128
-0.00470532
0.00168926
-0.00457607
0.00176828
-0.00422272
0.00182076
-0.00371551
0.00182998
-0.00313803
0.00180438
-0.00254258
0.00176319
-0.00196824
0.00172154
-0.00144733
0.00168706
-0.000999665
0.0016598
-0.000630312
0.00163575
-0.000330209
0.00160983
-8.21821e-05
0.00157945
0.000130867
0.0015444
0.000321758
0.00150553
0.000501436
0.00146546
0.000678823
0.00142986
0.000860477
0.00140927
0.00105067
0.00142767
0.00125501
0.00151645
0.00146853
0.00173453
0.0017094
0.00205837
0.0017266
0.00223302
0.00127384
0.00175212
0.00148341
0.00681006
0.00297917
0.0101398
0.00202373
0.00699295
0.000870107
0.00433298
0.000371608
0.00323556
0.000214807
0.00233418
0.000271397
0.00156137
0.000425493
0.000921926
0.000639511
0.00030815
0.000898865
-0.000363994
0.00116391
-0.00110864
0.00144265
-0.00192613
0.00171003
-0.00279686
0.0019366
-0.003621
0.00209796
-0.00426898
0.00218822
-0.00464676
0.00220996
-0.00472706
0.00217194
-0.00453804
0.00208776
-0.00413855
0.00197266
-0.00360042
0.00183234
-0.00299771
0.00167917
-0.0023894
0.00153025
-0.00181933
0.00140051
-0.00131759
0.00129844
-0.000897592
0.00122544
-0.000557315
0.00117669
-0.000281462
0.00114471
-5.0201e-05
0.00112377
0.000151812
0.00110981
0.000335717
0.00109998
0.000511266
0.00109343
0.000685374
0.00109157
0.000862335
0.00109848
0.00104376
0.00112449
0.001229
0.00118771
0.00140531
0.00134882
0.00154829
0.00167397
0.00140146
0.00179406
0.00115376
0.000473619
0.0028038
0.00766648
0.00403345
0.00624659
0.00367002
0.00735637
0.00254412
0.00545889
0.00189048
0.00388919
0.00153384
0.00269082
0.00138906
0.00170615
0.001423
0.000887988
0.00159759
0.000133553
0.00184984
-0.000616237
0.00212719
-0.00138599
0.00240718
-0.00220611
0.0026525
-0.00304218
0.00282142
-0.00378992
0.00288687
-0.00433442
0.00284558
-0.00460546
0.00271135
-0.00459283
0.00250646
-0.00433315
0.00225516
-0.00388725
0.00198021
-0.00332546
0.00169875
-0.00271625
0.00142817
-0.00211883
0.00118663
-0.00157779
0.000989244
-0.00112021
0.000842892
-0.000751241
0.000746807
-0.000461229
0.000692157
-0.000226812
0.000667736
-2.57801e-05
0.000664154
0.000155394
0.000673809
0.000326061
0.000691164
0.000493912
0.000712706
0.000663833
0.00073549
0.000839551
0.000755348
0.0010239
0.000763905
0.00122044
0.000736986
0.00143223
0.000600578
0.0016847
-4.31951e-05
0.00204529
-0.00193733
0.00304801
-0.0033094
0.00417581
0.00446047
0.00241052
0.0040006
0.00330608
0.00646082
0.00324986
0.00551511
0.00303889
0.00410017
0.00284793
0.00288179
0.00272486
0.00182923
0.0027112
0.000901646
0.00280046
4.42909e-05
0.00296269
-0.000778465
0.00317357
-0.00159687
0.00339134
-0.00242388
0.00355596
-0.0032068
0.00361258
-0.00384653
0.00353449
-0.00425632
0.00332714
-0.0043981
0.00301672
-0.0042824
0.00263758
-0.003954
0.00222303
-0.00347271
0.00180262
-0.00290505
0.00139986
-0.00231349
0.0010365
-0.00175548
0.000732531
-0.00127381
0.000502524
-0.000890198
0.000346306
-0.000595024
0.000255659
-0.000370582
0.00021416
-0.000185313
0.000207161
-1.87813e-05
0.000223391
0.000139165
0.000254527
0.000294926
0.000295069
0.00045337
0.000341049
0.000617852
0.000387436
0.000793165
0.000426247
0.000985091
0.000440327
0.00120636
0.000388967
0.00148359
0.000188158
0.00188551
-0.000397833
0.00263149
-0.0015726
0.00422319
-0.002081
0.00468441
0.0024948
0.00145657
0.0027383
0.0027478
0.00516959
0.00343188
0.00483103
0.00371824
0.00381381
0.00381719
0.00278284
0.00384589
0.00180054
0.0038827
0.000864832
0.00395243
-2.5436e-05
0.00406268
-0.000888714
0.00420288
-0.00173707
0.00432181
-0.00254281
0.00434878
-0.00323376
0.00423214
-0.00372988
0.00395969
-0.00398386
0.00355396
-0.00399236
0.00305475
-0.00378318
0.00250584
-0.00340508
0.00194576
-0.00291262
0.00140842
-0.00236771
0.000920154
-0.00182523
0.000508174
-0.0013435
0.000191745
-0.000957385
-2.17384e-05
-0.000676715
-0.000147183
-0.00046958
-0.000208872
-0.000308893
-0.000228284
-0.000165901
-0.00021841
-2.86553e-05
-0.000187721
0.000108477
-0.000141865
0.000249071
-8.44945e-05
0.000396
-1.83e-05
0.000551658
5.34259e-05
0.000721439
0.000125111
0.000913406
0.000185774
0.0011457
0.000207877
0.00146148
0.000136368
0.00195699
5.06214e-06
0.00276284
-7.89397e-06
0.00423654
-6.794e-05
0.0047448
0.00255247
0.00216836
0.000795922
0.00293895
0.00439901
0.00359059
0.00417938
0.00416205
0.00324236
0.00449086
0.00245403
0.00466625
0.00162515
0.00478404
0.000747048
0.00488938
-0.000130778
0.00499585
-0.000995187
0.00507376
-0.00181499
0.00505788
-0.00252693
0.00488814
-0.00306402
0.00454207
-0.0033838
0.00403867
-0.00348044
0.00342291
-0.00337659
0.00274555
-0.00310581
0.00205479
-0.00271432
0.0013882
-0.00224602
0.000784133
-0.00176365
0.000267975
-0.00130907
-0.000121705
-0.000953818
-0.000378458
-0.000700634
-0.000527744
-0.000527431
-0.000605313
-0.000392012
-0.00063884
-0.000275367
-0.000641174
-0.000163567
-0.000619834
-4.99951e-05
-0.000579995
6.86381e-05
-0.000525002
0.000194079
-0.000457193
0.000328191
-0.000378428
0.000472895
-0.000289137
0.000632148
-0.000189205
0.000813475
-7.97289e-05
0.00103622
2.12264e-05
0.0013605
8.55595e-05
0.00189254
0.000241428
0.00260675
0.000822328
0.00365571
0.00120525
0.00436199
0.00388864
-0.00158081
0.00262182
0.00111494
0.00170326
0.00334755
0.00194678
0.00435097
0.00223893
0.00485607
0.00194893
0.00517201
0.0013092
0.00540112
0.000517938
0.00557912
-0.000308791
0.00567779
-0.00109387
0.00563566
-0.00177288
0.00540221
-0.00229349
0.00496587
-0.00262768
0.00435469
-0.00277261
0.00362179
-0.00274753
0.0028273
-0.00258208
0.00202102
-0.00229953
0.00125038
-0.00194367
0.000545358
-0.001541
-4.77532e-05
-0.00117054
-0.000485671
-0.00087115
-0.000763461
-0.000676033
-0.000925868
-0.000538233
-0.00101823
-0.00043508
-0.00106413
-0.00034611
-0.00107808
-0.000261421
-0.00106697
-0.000174678
-0.00103522
-8.17406e-05
-0.000987144
2.0564e-05
-0.000925781
0.000132718
-0.000853112
0.000255524
-0.000771822
0.000391606
-0.000683656
0.000543984
-0.000590344
0.000720167
-0.000498428
0.000944299
-0.000426071
0.00128807
-0.00035554
0.00182175
-0.00010683
0.00235753
0.000786294
0.00276219
0.00138535
0.00376257
0.00541356
0.00288352
0.0045716
0.00487079
0.00164759
0.00535735
0.00175237
0.00559462
0.00171167
0.00582678
0.00107703
0.00601388
0.000330822
0.00607878
-0.000373722
0.00595101
-0.000966158
0.00559785
-0.00141976
0.00503231
-0.00172798
0.00430169
-0.00189706
0.00346474
-0.00193566
0.00258049
-0.00186326
0.00170359
-0.00170518
0.000866698
-0.00146263
0.000110038
-0.00118701
-0.000509401
-0.000921554
-0.000950688
-0.000729251
-0.00122885
-0.000592993
-0.00140161
-0.000503287
-0.00150493
-0.000434935
-0.00156443
-0.000375588
-0.00159202
-0.000318538
-0.00159332
-0.000260113
-0.00157118
-0.000196811
-0.00152842
-0.000124495
-0.00146949
-3.8349e-05
-0.0014
6.32307e-05
-0.00132483
0.000180357
-0.00124985
0.000316622
-0.00118391
0.000478052
-0.00114036
0.000676645
-0.00113623
0.000940238
-0.00117466
0.00132656
-0.00121962
0.00186658
-0.00121828
0.00235571
-0.00100573
0.00254888
-0.000697729
0.00345375
0.00487078
0.00793577
0.00536051
0.00581713
0.00387104
0.00556871
0.00196012
0.00563929
0.00100646
0.0056017
0.000368367
0.00535556
-0.000127651
0.00489005
-0.000500696
0.00424619
-0.000775931
0.00347836
-0.000960157
0.00264007
-0.00105877
0.00177355
-0.00106912
0.000916554
-0.00100626
0.000103432
-0.000892045
-0.000609738
-0.000749457
-0.00116825
-0.000628488
-0.00156142
-0.000528379
-0.00182705
-0.000463634
-0.00199942
-0.000420646
-0.00211493
-0.000387817
-0.00219291
-0.000356995
-0.00224257
-0.000325967
-0.00226729
-0.000293823
-0.00226808
-0.000259315
-0.0022448
-0.000220055
-0.00219719
-0.00017207
-0.00212629
-0.00010921
-0.0020399
-2.31388e-05
-0.00194876
8.92166e-05
-0.00186107
0.000228916
-0.00178843
0.000405386
-0.00174727
0.000635515
-0.00175402
0.000947127
-0.00181177
0.0013846
-0.00193436
0.00198951
-0.00235403
0.0027756
-0.00339456
0.00358944
-0.00356882
0.0036278
0.00147272
0.00411934
0.00148771
0.00451978
0.00347061
0.00374469
0.00273521
0.00323713
0.00151397
0.00288766
0.000717768
0.00251838
0.000241576
0.00206923
-5.15715e-05
0.00152841
-0.000235118
0.000915985
-0.000347713
0.00025032
-0.000393086
-0.000429359
-0.000389425
-0.00106514
-0.000370455
-0.00160887
-0.000348295
-0.00203222
-0.00032608
-0.00234478
-0.000315929
-0.00256327
-0.000309905
-0.00272153
-0.000305427
-0.00284348
-0.000298755
-0.00294173
-0.000289652
-0.00301988
-0.000278906
-0.00307828
-0.000267603
-0.00311593
-0.000256172
-0.00313087
-0.000244331
-0.00311999
-0.000230849
-0.00307924
-0.000212717
-0.00300453
-0.000183832
-0.0028938
-0.000133804
-0.00275662
-4.79801e-05
-0.0026128
8.50295e-05
-0.00247485
0.000267334
-0.00234655
0.000507139
-0.00221972
0.000820314
-0.00206901
0.00123412
-0.00185382
0.00177475
-0.00155911
0.00248139
-0.00134577
0.00337654
-0.00110717
0.00338963
0.000547248
-0.00258959
-0.00674769
-0.00740589
-0.00745493
-0.00374743
-0.0021708
-0.00166744
0.00139058
-0.000754486
0.00182222
-0.000557902
0.00131734
-0.000639934
0.000799761
-0.00082735
0.000428972
-0.00106783
0.000188897
-0.00135408
5.11398e-05
-0.00168926
-1.25052e-05
-0.00204963
-3.26703e-05
-0.00240384
-3.51707e-05
-0.00272807
-4.61804e-05
-0.00299481
-8.15209e-05
-0.00319256
-0.000128325
-0.00334036
-0.00016816
-0.00346215
-0.00018818
-0.00357542
-0.000192251
-0.00368527
-0.000189027
-0.00378987
-0.000185156
-0.00388498
-0.000183872
-0.00396633
-0.000186276
-0.00402983
-0.00019263
-0.00407079
-0.000203264
-0.00408315
-0.000218337
-0.00405963
-0.000236047
-0.00399334
-0.000249944
-0.00387971
-0.000247298
-0.00371727
-0.000210377
-0.00351434
-0.000118
-0.00329213
4.49219e-05
-0.00305549
0.000270249
-0.00277099
0.000535599
-0.00238242
0.000845462
-0.00179435
0.0011868
-0.000861389
0.00154874
0.000451234
0.00206424
0.00129275
0.00254849
0.00202014
-0.00733728
0.00104303
-0.00811121
-0.00668107
-0.00716798
-0.0031141
-0.00564944
-0.00012803
-0.00455675
0.000729471
-0.00396505
0.00072559
-0.00370589
0.000540582
-0.00363921
0.000362296
-0.00368098
0.000230685
-0.0037745
0.000144705
-0.00387733
9.03744e-05
-0.00396246
5.25262e-05
-0.00402087
2.33061e-05
-0.00406165
-5.3513e-06
-0.00410206
-4.10907e-05
-0.00415409
-7.63306e-05
-0.00422176
-0.000100569
-0.00430024
-0.000109821
-0.00438331
-0.000109319
-0.00446597
-0.000106503
-0.0045447
-0.00010653
-0.00461698
-0.000111645
-0.00468086
-0.000122375
-0.00473457
-0.000138825
-0.00477612
-0.000161544
-0.00480303
-0.000191184
-0.00481231
-0.000226493
-0.00480041
-0.000261553
-0.00476288
-0.000284594
-0.00469281
-0.000280314
-0.00457647
-0.00023438
-0.0043948
-0.000137
-0.00413738
1.24013e-05
-0.00379089
0.000188661
-0.00330318
0.000357359
-0.00259159
0.000474947
-0.00145574
0.000412796
0.00041914
0.000189425
0.00160569
0.00136211
0.00380964
0.00158469
-0.00503178
-0.00808271
-0.00815126
-0.00736731
-0.00659493
-0.00601415
-0.00561637
-0.00535323
-0.00517778
-0.00505739
-0.00497478
-0.00492084
-0.0048949
-0.00490427
-0.00494872
-0.00501737
-0.00509525
-0.00517259
-0.00524708
-0.0053216
-0.00540133
-0.00549202
-0.00559959
-0.00573054
-0.00589203
-0.00609001
-0.00632441
-0.00658333
-0.0068394
-0.0070508
-0.00716581
-0.00713217
-0.00692282
-0.00654524
-0.00605062
-0.00561888
-0.00541139
-0.00403214
)
;

boundaryField
{
    floor
    {
        type            calculated;
        value           nonuniform List<scalar> 
36
(
0
0
0
0
0
0
0
0
0
0
0
0
0
0
0
0
0
0
0
-6.43902e-06
-1.68824e-05
-2.60251e-05
-3.42904e-05
-3.48955e-05
-2.85912e-05
-2.85201e-05
-2.92053e-06
-5.44213e-06
-5.68847e-06
-5.90847e-06
-4.85475e-06
-8.93949e-06
-1.02087e-05
-1.2832e-05
-1.44559e-05
-1.54454e-05
)
;
    }
    ceiling
    {
        type            calculated;
        value           nonuniform List<scalar> 
43
(
-5.7807e-05
-6.46592e-05
-6.32468e-05
-5.95596e-05
-5.45479e-05
-4.68315e-05
-4.02087e-05
-3.54662e-05
-3.24007e-05
-3.06537e-05
-2.99244e-05
-2.99862e-05
-3.05635e-05
-3.12598e-05
-3.17252e-05
-3.19388e-05
-3.20147e-05
-3.2056e-05
-3.20942e-05
-3.21124e-05
-3.20721e-05
-3.19263e-05
-3.16268e-05
-3.11302e-05
-3.04038e-05
-2.94342e-05
-2.82402e-05
-2.68861e-05
-2.54854e-05
-2.4176e-05
-2.30714e-05
-2.22192e-05
-2.1593e-05
-2.10995e-05
-2.05921e-05
-1.99416e-05
-1.90943e-05
-1.80957e-05
-1.70746e-05
-1.66322e-05
1.93329e-05
1.5184e-05
-0.000246542
)
;
    }
    sWall
    {
        type            calculated;
        value           nonuniform List<scalar> 9(-0.000140238 -0.000164532 -0.000194272 -0.00022598 -0.000245094 -0.000281033 -0.000423411 -0.000453484 -0.000483863);
    }
    nWall
    {
        type            calculated;
        value           nonuniform List<scalar> 
14
(
-8.98788e-05
-9.71509e-05
-0.000102418
-0.000103455
-0.000115351
-0.000125394
-0.000130938
-0.000140039
-0.000155464
-0.000171078
-0.000181149
-0.000179876
-0.000183715
-0.000205766
)
;
    }
    sideWalls
    {
        type            empty;
        value           nonuniform 0();
    }
    glass1
    {
        type            calculated;
        value           nonuniform List<scalar> 9(-6.4034e-05 -0.00017032 -0.000257921 -0.000331203 -0.000393185 -0.000446388 -0.000492196 -0.000535476 -0.000587163);
    }
    glass2
    {
        type            calculated;
        value           nonuniform List<scalar> 2(-0.000365897 -0.000382835);
    }
    sun
    {
        type            calculated;
        value           uniform 0;
    }
    Table_master
    {
        type            calculated;
        value           nonuniform List<scalar> 9(-1.53991e-07 -1.54108e-07 -1.5414e-07 -1.5416e-07 -1.54173e-07 -1.54178e-07 -1.54177e-07 -1.54162e-07 -1.54109e-07);
    }
    Table_slave
    {
        type            calculated;
        value           nonuniform List<scalar> 9(1.53661e-07 1.53717e-07 1.53716e-07 1.53733e-07 1.53753e-07 1.53797e-07 1.53863e-07 1.53957e-07 1.54084e-07);
    }
    inlet
    {
        type            calculated;
        value           uniform -0.0116487;
    }
    outlet
    {
        type            calculated;
        value           nonuniform List<scalar> 2(0.00976065 0.0122712);
    }
}


// ************************************************************************* //
