/*--------------------------------*- C++ -*----------------------------------*\
  =========                 |
  \\      /  F ield         | OpenFOAM: The Open Source CFD Toolbox
   \\    /   O peration     | Website:  https://openfoam.org
    \\  /    A nd           | Version:  6
     \\/     M anipulation  |
\*---------------------------------------------------------------------------*/
FoamFile
{
    version     2.0;
    format      ascii;
    class       volScalarField;
    location    "15400";
    object      epsilon;
}
// * * * * * * * * * * * * * * * * * * * * * * * * * * * * * * * * * * * * * //

dimensions      [0 2 -3 0 0 0 0];

internalField   nonuniform List<scalar> 
778
(
0.000253133
0.000306387
0.000303057
0.000344257
0.000385145
0.000424969
0.00046442
0.000504685
0.000547499
0.000595578
0.000643954
0.000692255
0.000742139
0.000798412
0.000860109
8.94128e-05
0.00026261
0.000268951
0.000249835
0.000219973
0.000183965
0.000152247
0.000126471
0.00010588
8.94272e-05
7.62807e-05
6.56289e-05
5.68326e-05
4.93666e-05
4.27586e-05
3.65096e-05
3.18111e-05
2.35971e-05
0.000797029
0.00144332
0.000287034
0.000259636
0.000261736
0.000267704
0.000276595
0.000290016
0.000310256
0.000340437
0.000379609
0.000430673
0.000498999
0.000600149
0.000785244
0.00112881
0.000978277
0.000858093
0.000512533
0.000369746
0.000294334
0.000242893
0.00020399
0.000186768
0.000154567
0.000124907
0.000100632
8.14462e-05
6.64972e-05
5.48019e-05
4.56164e-05
3.8696e-05
3.45084e-05
3.27518e-05
6.58227e-05
4.80978e-05
0.0016307
0.00407957
0.000407466
0.000242968
0.00022914
0.000231048
0.000238258
0.000250519
0.00026841
0.000292657
0.000324753
0.000366782
0.000421132
0.000494824
0.000601227
0.000724496
0.000829509
0.00158402
0.00102828
0.000512663
0.000367934
0.000294405
0.000262123
0.000551492
0.000362505
0.000250573
0.000181168
0.000136155
0.000105816
8.47083e-05
6.97725e-05
5.94289e-05
4.51148e-05
3.79696e-05
0.000108332
7.08448e-05
0.00285369
0.00877176
0.000710057
0.000240766
0.00020251
0.000200037
0.000203201
0.000209817
0.00022062
0.000237518
0.000263185
0.000299902
0.00034909
0.000412218
0.000487929
0.000560164
0.000612251
0.000824047
0.00156446
0.000729272
0.000459961
0.000358378
0.00030194
0.0002918
0.00081423
0.000612679
0.000481788
0.000388287
0.000318878
0.000264087
0.000218557
0.000178848
0.000141707
8.37434e-05
5.48529e-05
0.000149035
9.45944e-05
0.00454632
0.0158301
0.00134678
0.000258396
0.00017576
0.000166808
0.000165807
0.000167773
0.000173925
0.000187418
0.000211645
0.0002483
0.000297685
0.000359205
0.000427665
0.000489064
0.0005284
0.000582262
0.000627123
0.00048306
0.000393437
0.000331016
0.000282291
0.000248617
0.00024782
0.000226745
0.000202879
0.000180969
0.000162577
0.00014642
0.000131767
0.000118202
0.000105072
8.44833e-05
6.41567e-05
0.000105378
0.000138949
0.000160595
0.000376618
0.000329753
0.00676416
0.0248826
0.00255443
0.000318159
0.000155564
0.00013708
0.000132132
0.000130691
0.000134453
0.000148544
0.000176687
0.000218038
0.00027073
0.000334013
0.000401584
0.000462482
0.000502793
0.000521461
0.000504547
0.000438103
0.000373749
0.000315621
0.00026473
0.000223378
0.000193283
0.000169621
0.0001508
0.000135603
0.00012326
0.000112705
0.000103252
9.45051e-05
8.60894e-05
7.59244e-05
6.531e-05
7.76164e-05
9.98377e-05
0.000213226
0.00108928
0.000562309
0.00967311
0.0336415
0.00458567
0.000465171
0.000150874
0.000116356
0.000107093
0.00010328
0.000107071
0.000127915
0.000166126
0.000215881
0.000273285
0.000340038
0.000409262
0.000470355
0.00051004
0.000520286
0.000494153
0.000437522
0.000371799
0.000307472
0.000250546
0.00020443
0.000169738
0.000144551
0.000126323
0.000112735
0.000102271
9.369e-05
8.61914e-05
7.93216e-05
7.28005e-05
6.61529e-05
6.02798e-05
6.36914e-05
7.69083e-05
0.000178251
0.00164761
0.000925945
0.0127603
0.0404097
0.00749297
0.000871784
0.000194351
0.000115395
9.73862e-05
9.14474e-05
9.86329e-05
0.000137683
0.000189265
0.000246265
0.000307099
0.000373939
0.000444948
0.000508218
0.000547469
0.000550922
0.000515645
0.000451526
0.000375531
0.000301
0.00023651
0.000185974
0.000149317
0.000123988
0.000106723
9.45886e-05
8.57487e-05
7.88018e-05
7.2879e-05
6.75092e-05
6.24614e-05
5.76568e-05
5.38642e-05
5.55874e-05
7.10866e-05
0.000371268
0.00558535
0.00211361
0.0138281
0.0414567
0.0139371
0.00316618
0.000630687
0.000208146
0.000132694
0.000115972
0.000142397
0.000192821
0.000249198
0.000306416
0.000367516
0.00043703
0.00051164
0.000576281
0.000611266
0.000603293
0.000552172
0.000470993
0.00037858
0.000291033
0.000218358
0.00016409
0.000126825
0.000102653
8.73323e-05
7.73941e-05
7.07058e-05
6.56914e-05
6.14673e-05
5.76053e-05
5.39418e-05
5.05333e-05
4.81229e-05
5.17492e-05
0.000102926
0.00116251
0.0145471
0.00316945
0.013004
0.0283654
0.0144171
0.0057288
0.00210545
0.000835054
0.000413822
0.000276856
0.000278899
0.000314407
0.000355933
0.000401752
0.000459
0.000531768
0.000611137
0.00067502
0.000699297
0.000670799
0.00059381
0.00048675
0.000372845
0.00027096
0.000191394
0.000135945
0.000100812
7.99859e-05
6.80625e-05
6.128e-05
5.71873e-05
5.42227e-05
5.16432e-05
4.91483e-05
4.66789e-05
4.44214e-05
4.34894e-05
5.34332e-05
0.000234663
0.00391288
0.0107705
0.00327778
0.0106878
0.0193527
0.0120383
0.00630111
0.0031751
0.001675
0.000986791
0.000678912
0.000559808
0.000517074
0.000510254
0.000531674
0.000584622
0.000664446
0.000749466
0.000806647
0.000808015
0.000744114
0.000627876
0.000486107
0.000347913
0.000234038
0.000152924
0.000102095
7.37724e-05
5.89663e-05
5.15093e-05
4.80659e-05
4.62604e-05
4.49315e-05
4.36128e-05
4.21623e-05
4.06618e-05
3.95598e-05
4.07637e-05
5.83481e-05
0.000319649
0.00336925
0.00916965
0.00328124
0.00807001
0.0137672
0.00969113
0.00593314
0.00356956
0.00222732
0.00149061
0.00109278
0.000868998
0.000743291
0.000685897
0.000690887
0.000752522
0.000847772
0.000935312
0.00097036
0.000926431
0.0008051
0.000634467
0.000452263
0.000293615
0.000178035
0.00010742
6.97177e-05
5.2657e-05
4.45129e-05
4.06979e-05
3.92906e-05
3.86998e-05
3.82456e-05
3.76672e-05
3.69524e-05
3.64415e-05
3.72133e-05
4.28067e-05
7.15519e-05
0.000311143
0.00247053
0.00768382
0.00371975
0.00612265
0.0101683
0.00779119
0.00531247
0.00357013
0.00246913
0.00178799
0.0013682
0.00109287
0.000926044
0.000859802
0.00088864
0.000986563
0.00110222
0.00117339
0.00115158
0.00102606
0.000820443
0.000585744
0.000368995
0.000209077
0.000114969
7.22127e-05
5.22305e-05
4.28047e-05
3.81334e-05
3.58844e-05
3.50641e-05
3.47588e-05
3.45408e-05
3.43137e-05
3.43402e-05
3.56386e-05
4.11301e-05
5.98386e-05
0.000124774
0.000405908
0.00222145
0.00598166
0.00422432
0.00618582
0.00781387
0.00680579
0.00473999
0.00336591
0.00246265
0.00186602
0.00146248
0.00119465
0.00106496
0.00107207
0.00118445
0.00133572
0.00144386
0.00144145
0.00129951
0.00104794
0.000739942
0.000456738
0.000238498
0.0001311
8.1408e-05
5.93059e-05
4.84989e-05
4.25899e-05
3.91102e-05
3.70805e-05
3.60167e-05
3.55196e-05
3.52481e-05
3.53375e-05
3.67627e-05
4.28143e-05
6.3551e-05
0.000127029
0.000298708
0.000754784
0.00228914
0.00589862
0.00389039
0.00454773
0.00511662
0.00418631
0.00336229
0.00263994
0.00207017
0.00164899
0.00136167
0.00124467
0.00130148
0.00148216
0.00169422
0.00183282
0.0018215
0.00163604
0.0012968
0.000903907
0.000518168
0.000277659
0.000153979
0.00010032
7.68882e-05
6.51344e-05
5.79525e-05
5.3032e-05
4.95907e-05
4.72598e-05
4.57531e-05
4.50728e-05
4.50285e-05
4.59408e-05
4.98685e-05
6.35006e-05
0.000106317
0.000228196
0.000536901
0.00124813
0.00273209
0.00516407
0.00322058
0.00139871
0.00142862
0.00143032
0.00135119
0.0013091
0.00142079
0.00170649
0.00204559
0.00231349
0.00241472
0.00229732
0.00197781
0.00152338
0.000973946
0.000562542
0.000308674
0.000184222
0.000131364
0.000109071
9.75447e-05
8.99238e-05
8.42281e-05
8.0042e-05
7.73108e-05
7.59346e-05
7.56464e-05
7.60376e-05
7.79112e-05
8.1245e-05
8.82041e-05
0.000106146
0.000155459
0.000286787
0.000611926
0.00134752
0.00283705
0.00520586
0.00286325
0.00118829
0.00171199
0.0019488
0.00230395
0.00275069
0.00315709
0.00334075
0.00331158
0.00309164
0.00270049
0.00212852
0.00150528
0.000967796
0.000565805
0.000334326
0.000225681
0.000181904
0.000163793
0.000154302
0.000147806
0.00014298
0.000139851
0.000138841
0.000140356
0.000144523
0.000151002
0.000158888
0.000166673
0.000175157
0.000187186
0.00020765
0.000252983
0.000360925
0.00061656
0.00120361
0.00249792
0.00512219
0.00354079
0.00742006
0.00811933
0.00482147
0.00340055
0.00372757
0.00413483
0.00414486
0.00393377
0.00358075
0.00312986
0.00262606
0.00208056
0.00152579
0.00103307
0.000667041
0.000448314
0.000346414
0.000306606
0.000291721
0.000284848
0.000279885
0.00027503
0.000270394
0.000267036
0.000266385
0.000269814
0.00027841
0.000292931
0.000313773
0.000340651
0.000371786
0.000405143
0.000449073
0.000525663
0.000658139
0.000911022
0.00145966
0.00312164
0.00464982
0.00420339
0.00650208
0.00514215
0.00435576
0.0046121
0.00453211
0.00426545
0.00368566
0.00303966
0.00245446
0.00196248
0.00156035
0.00123637
0.000976592
0.000777183
0.000635227
0.000548682
0.000503959
0.000485186
0.000481093
0.000484692
0.00049163
0.000499456
0.00050736
0.000515993
0.000527233
0.000543928
0.000569707
0.000608888
0.000666394
0.000747523
0.000857115
0.000997484
0.00116383
0.00135334
0.00160475
0.00198236
0.00261166
0.00404427
0.00545873
0.00467221
0.00535674
0.00337367
0.00332577
0.00362957
0.0038973
0.00357298
0.00298415
0.00237931
0.00185599
0.00142796
0.00108377
0.000814607
0.000619766
0.000498315
0.000438958
0.000417168
0.000416871
0.000427525
0.000443307
0.000461085
0.00047921
0.000497073
0.000514987
0.000534143
0.000556572
0.000585212
0.000624192
0.000679283
0.000758109
0.00086943
0.00102113
0.00121788
0.00146123
0.00175466
0.00211267
0.0025339
0.00302035
0.00359833
0.00425043
0.00366198
)
;

boundaryField
{
    floor
    {
        Cmu             0.09;
        kappa           0.41;
        E               9.8;
        type            epsilonWallFunction;
        value           nonuniform List<scalar> 
36
(
0.000860109
8.94128e-05
0.00026261
0.000268951
0.000249835
0.000219973
0.000183965
0.000152247
0.000126471
0.00010588
8.94272e-05
7.62807e-05
6.56289e-05
5.68326e-05
4.93666e-05
4.27586e-05
3.65096e-05
3.18111e-05
2.35971e-05
2.35971e-05
4.80978e-05
7.08448e-05
9.45944e-05
0.000160595
0.000376618
0.000329753
0.000860109
0.00112881
0.000978277
0.000858093
8.94128e-05
0.000858093
0.000512533
0.00158402
0.00102828
0.00156446
)
;
    }
    ceiling
    {
        Cmu             0.09;
        kappa           0.41;
        E               9.8;
        type            epsilonWallFunction;
        value           nonuniform List<scalar> 
43
(
0.00535674
0.00337367
0.00332577
0.00362957
0.0038973
0.00357298
0.00298415
0.00237931
0.00185599
0.00142796
0.00108377
0.000814607
0.000619766
0.000498315
0.000438958
0.000417168
0.000416871
0.000427525
0.000443307
0.000461085
0.00047921
0.000497073
0.000514987
0.000534143
0.000556572
0.000585212
0.000624192
0.000679283
0.000758109
0.00086943
0.00102113
0.00121788
0.00146123
0.00175466
0.00211267
0.0025339
0.00302035
0.00359833
0.00425043
0.00366198
0.00454773
0.00511662
0.00118829
)
;
    }
    sWall
    {
        Cmu             0.09;
        kappa           0.41;
        E               9.8;
        type            epsilonWallFunction;
        value           nonuniform List<scalar> 9(0.013004 0.0106878 0.00807001 0.00612265 0.00618582 0.00454773 0.00742006 0.00650208 0.00535674);
    }
    nWall
    {
        Cmu             0.09;
        kappa           0.41;
        E               9.8;
        type            epsilonWallFunction;
        value           nonuniform List<scalar> 
14
(
0.000329753
0.000562309
0.000925945
0.00327778
0.00328124
0.00371975
0.00422432
0.00389039
0.00322058
0.00286325
0.00354079
0.00420339
0.00467221
0.00366198
)
;
    }
    sideWalls
    {
        type            empty;
    }
    glass1
    {
        Cmu             0.09;
        kappa           0.41;
        E               9.8;
        type            epsilonWallFunction;
        value           nonuniform List<scalar> 9(0.000253133 0.000797029 0.0016307 0.00285369 0.00454632 0.00676416 0.00967311 0.0127603 0.0138281);
    }
    glass2
    {
        Cmu             0.09;
        kappa           0.41;
        E               9.8;
        type            epsilonWallFunction;
        value           nonuniform List<scalar> 2(0.00211361 0.00316945);
    }
    sun
    {
        Cmu             0.09;
        kappa           0.41;
        E               9.8;
        type            epsilonWallFunction;
        value           nonuniform List<scalar> 
14
(
0.000253133
0.000306387
0.000303057
0.000344257
0.000385145
0.000424969
0.00046442
0.000504685
0.000547499
0.000595578
0.000643954
0.000692255
0.000742139
0.000798412
)
;
    }
    Table_master
    {
        Cmu             0.09;
        kappa           0.41;
        E               9.8;
        type            epsilonWallFunction;
        value           nonuniform List<scalar> 9(0.000551492 0.000362505 0.000250573 0.000181168 0.000136155 0.000105816 8.47083e-05 6.97725e-05 5.94289e-05);
    }
    Table_slave
    {
        Cmu             0.09;
        kappa           0.41;
        E               9.8;
        type            epsilonWallFunction;
        value           nonuniform List<scalar> 9(0.00081423 0.000612679 0.000481788 0.000388287 0.000318878 0.000264087 0.000218557 0.000178848 0.000141707);
    }
    inlet
    {
        type            turbulentMixingLengthDissipationRateInlet;
        mixingLength    0.01;
        phi             phi;
        k               k;
        value           uniform 0.000471671;
    }
    outlet
    {
        type            zeroGradient;
    }
}


// ************************************************************************* //
