/*--------------------------------*- C++ -*----------------------------------*\
  =========                 |
  \\      /  F ield         | OpenFOAM: The Open Source CFD Toolbox
   \\    /   O peration     | Website:  https://openfoam.org
    \\  /    A nd           | Version:  6
     \\/     M anipulation  |
\*---------------------------------------------------------------------------*/
FoamFile
{
    version     2.0;
    format      ascii;
    class       volScalarField;
    location    "3370";
    object      epsilon;
}
// * * * * * * * * * * * * * * * * * * * * * * * * * * * * * * * * * * * * * //

dimensions      [0 2 -3 0 0 0 0];

internalField   nonuniform List<scalar> 
458
(
0.000432798
0.000557902
0.000596576
0.000686362
0.000776642
0.00086911
0.000968714
0.00107729
0.00117186
0.00123401
0.00124115
0.00117481
0.00102233
0.000744256
0.000324955
3.9232e-05
6.3206e-05
9.21103e-05
0.000104416
9.95896e-05
8.16144e-05
6.44042e-05
5.12219e-05
4.13704e-05
3.3915e-05
2.81878e-05
2.37378e-05
2.02074e-05
1.73133e-05
1.48367e-05
1.25996e-05
1.13836e-05
8.83705e-06
0.00106106
0.00158339
0.000518422
0.000502594
0.000518431
0.000550894
0.000606232
0.000688423
0.000779658
0.000853874
0.000881965
0.000847733
0.00075683
0.000623966
0.000502
0.00074734
0.00042675
0.00023178
3.82919e-05
7.5365e-05
9.27343e-05
9.34143e-05
8.97157e-05
9.00217e-05
7.05481e-05
5.34847e-05
4.07994e-05
3.15312e-05
2.47362e-05
1.97186e-05
1.59642e-05
1.31657e-05
1.14038e-05
1.06881e-05
3.04935e-05
2.0077e-05
0.00190708
0.00384815
0.00060373
0.000458257
0.000465984
0.000508104
0.000580385
0.000683564
0.000797011
0.000884236
0.000917904
0.000887817
0.000801911
0.000667105
0.000517578
0.000416361
0.00035301
0.000381833
0.000139946
0.000139209
0.000125552
0.000111489
0.000103495
0.000198143
0.000132963
9.1123e-05
6.45176e-05
4.72798e-05
3.58079e-05
2.79831e-05
2.25615e-05
1.88657e-05
1.48259e-05
1.31276e-05
6.48853e-05
3.31352e-05
0.00306316
0.00799448
0.000903769
0.000438969
0.000429205
0.00048121
0.000574921
0.000717874
0.000862539
0.000957899
0.000989127
0.000952819
0.000855173
0.000703281
0.000548472
0.000432325
0.000365833
0.000380477
0.000583841
0.000375801
0.000245137
0.000178244
0.000140442
0.000122968
0.000283208
0.000218133
0.000180062
0.000155001
0.000135717
0.000118221
0.000103051
8.84945e-05
7.32984e-05
4.53967e-05
2.92889e-05
0.000114643
5.06224e-05
0.0046497
0.014428
0.00174036
0.000470835
0.000395591
0.000451552
0.000588834
0.000832742
0.00101848
0.00111179
0.00112828
0.00106915
0.000937386
0.000753688
0.000564842
0.000420044
0.000331646
0.000302669
0.000303803
0.000253573
0.00020935
0.000175088
0.000146269
0.000122042
0.000113038
0.000103789
9.75206e-05
9.21781e-05
8.61847e-05
7.87592e-05
7.08776e-05
6.31504e-05
5.58977e-05
4.60254e-05
3.61877e-05
7.47624e-05
0.000114606
0.000120973
0.000143505
0.000184282
0.00687176
0.021736
0.0040016
0.000790671
0.000465048
0.000474008
0.000700623
0.00111972
0.00130607
0.00136572
0.00134339
0.00124594
0.00106706
0.000825148
0.000577579
0.000388676
0.000278781
0.000238478
0.00022818
0.000218193
0.000201089
0.000176723
0.00014926
0.000123723
0.000107299
0.000100883
9.97289e-05
9.93278e-05
9.71911e-05
9.16548e-05
8.17031e-05
7.0442e-05
5.97976e-05
5.01408e-05
4.34345e-05
5.55233e-05
8.83481e-05
0.00010613
0.000206707
0.000205618
0.00966032
0.0261944
0.00879551
0.00280035
0.00145407
0.00114085
0.00148283
0.00172641
0.00178585
0.00174898
0.0016496
0.00148325
0.00122975
0.000907985
0.00058815
0.000355828
0.000234437
0.00020016
0.000202321
0.000202968
0.00018999
0.000166811
0.000141302
0.000120174
0.000109043
0.000108529
0.000113644
0.000120135
0.00012571
0.00012816
0.000124079
0.000111071
9.74738e-05
8.59196e-05
8.04316e-05
8.87093e-05
0.000120572
0.000176759
0.000327312
0.000344784
0.0104474
0.0301001
0.0160957
0.00965278
0.00597006
0.00418046
0.00338351
0.00287596
0.00253814
0.00228113
0.00203895
0.00176078
0.00139706
0.00096829
0.000561292
0.000300435
0.000190359
0.000174359
0.000179612
0.000177096
0.000162185
0.000141937
0.000124113
0.000113525
0.000112222
0.000119058
0.000131173
0.000146861
0.000165759
0.000187752
0.00021205
0.000232934
0.000245997
0.000273122
0.000329075
0.000480069
0.000820521
0.00137763
0.00411034
0.00128189
0.00984346
0.0172564
0.0132407
0.00999031
0.00750808
0.00579393
0.00458954
0.00379062
0.0032509
0.00282344
0.00242652
0.00200607
0.00148357
0.000913943
0.000407004
0.000216067
0.000158864
0.000147517
0.000144444
0.000136921
0.00012459
0.000112488
0.000104968
0.000104105
0.000109947
0.000121519
0.000138068
0.0001599
0.000188371
0.000225732
0.000275053
0.000339946
0.000427257
0.000551982
0.000734097
0.000976841
0.00125106
0.00149864
0.00170332
0.00104489
0.00347911
0.00472054
0.00512305
0.00502773
0.00473231
0.00431895
0.00378251
0.00315715
0.00254694
0.00194785
0.00116388
0.000536652
0.000254599
0.000159707
0.000129176
0.000118205
0.000110938
0.000103126
9.54789e-05
8.99921e-05
8.84649e-05
9.13248e-05
9.81831e-05
0.000108632
0.000122683
0.000140911
0.000164565
0.000195768
0.000237994
0.000297015
0.000378476
0.000488604
0.000629974
0.000786501
0.000911366
0.000944852
0.000871227
0.000544327
0.00289522
0.00861982
0.00827997
0.00717099
0.0060733
0.00478812
0.00347732
0.00225645
0.00128259
0.000709935
0.000375255
0.000215445
0.000151303
0.000124232
0.000111154
0.000102265
9.42762e-05
8.71028e-05
8.17534e-05
7.89689e-05
7.90363e-05
8.20662e-05
8.80164e-05
9.70663e-05
0.000109733
0.000126933
0.000150053
0.000181164
0.000223231
0.000280007
0.000356646
0.000458326
0.000585893
0.000728725
0.000842186
0.000956438
0.000733699
0.000565784
0.00336781
0.00362365
0.00386705
0.00532556
0.00449791
0.00313082
0.00187985
0.00115779
0.000823425
0.000572118
0.000398374
0.000290023
0.000215311
0.000168128
0.000139755
0.000121176
0.000107491
9.65735e-05
8.81375e-05
8.27326e-05
8.07754e-05
8.22465e-05
8.67053e-05
9.3548e-05
0.000102697
0.000114288
0.000128657
0.000146408
0.0001685
0.000196565
0.000232085
0.000276411
0.000331701
0.000400634
0.000486202
0.000603832
0.000660783
0.00062102
0.000499741
0.000395349
)
;

boundaryField
{
    floor
    {
        Cmu             0.09;
        kappa           0.41;
        E               9.8;
        type            epsilonWallFunction;
        value           nonuniform List<scalar> 
36
(
0.000324955
3.9232e-05
6.3206e-05
9.21103e-05
0.000104416
9.95896e-05
8.16144e-05
6.44042e-05
5.12219e-05
4.13704e-05
3.3915e-05
2.81878e-05
2.37378e-05
2.02074e-05
1.73133e-05
1.48367e-05
1.25996e-05
1.13836e-05
8.83705e-06
8.83705e-06
2.0077e-05
3.31352e-05
5.06224e-05
0.000120973
0.000143505
0.000184282
0.000324955
0.00074734
0.00042675
0.00023178
3.9232e-05
0.00023178
3.82919e-05
0.000381833
0.000139946
0.000583841
)
;
    }
    ceiling
    {
        Cmu             0.09;
        kappa           0.41;
        E               9.8;
        type            epsilonWallFunction;
        value           nonuniform List<scalar> 
43
(
0.00336781
0.00362365
0.00386705
0.00532556
0.00449791
0.00313082
0.00187985
0.00115779
0.000823425
0.000572118
0.000398374
0.000290023
0.000215311
0.000168128
0.000139755
0.000121176
0.000107491
9.65735e-05
8.81375e-05
8.27326e-05
8.07754e-05
8.22465e-05
8.67053e-05
9.3548e-05
0.000102697
0.000114288
0.000128657
0.000146408
0.0001685
0.000196565
0.000232085
0.000276411
0.000331701
0.000400634
0.000486202
0.000603832
0.000660783
0.00062102
0.000499741
0.000395349
0.00984346
0.0172564
0.00289522
)
;
    }
    sWall
    {
        Cmu             0.09;
        kappa           0.41;
        E               9.8;
        type            epsilonWallFunction;
        value           uniform 0.00336781;
    }
    nWall
    {
        Cmu             0.09;
        kappa           0.41;
        E               9.8;
        type            epsilonWallFunction;
        value           nonuniform List<scalar> 6(0.000184282 0.000205618 0.000344784 0.000544327 0.000565784 0.000395349);
    }
    sideWalls
    {
        type            empty;
    }
    glass1
    {
        Cmu             0.09;
        kappa           0.41;
        E               9.8;
        type            epsilonWallFunction;
        value           nonuniform List<scalar> 9(0.000432798 0.00106106 0.00190708 0.00306316 0.0046497 0.00687176 0.00966032 0.0104474 0.00984346);
    }
    glass2
    {
        Cmu             0.09;
        kappa           0.41;
        E               9.8;
        type            epsilonWallFunction;
        value           nonuniform List<scalar> 2(0.00128189 0.00104489);
    }
    sun
    {
        Cmu             0.09;
        kappa           0.41;
        E               9.8;
        type            epsilonWallFunction;
        value           nonuniform List<scalar> 
14
(
0.000432798
0.000557902
0.000596576
0.000686362
0.000776642
0.00086911
0.000968714
0.00107729
0.00117186
0.00123401
0.00124115
0.00117481
0.00102233
0.000744256
)
;
    }
    Table_master
    {
        Cmu             0.09;
        kappa           0.41;
        E               9.8;
        type            epsilonWallFunction;
        value           nonuniform List<scalar> 9(0.000198143 0.000132963 9.1123e-05 6.45176e-05 4.72798e-05 3.58079e-05 2.79831e-05 2.25615e-05 1.88657e-05);
    }
    Table_slave
    {
        Cmu             0.09;
        kappa           0.41;
        E               9.8;
        type            epsilonWallFunction;
        value           nonuniform List<scalar> 9(0.000283208 0.000218133 0.000180062 0.000155001 0.000135717 0.000118221 0.000103051 8.84945e-05 7.32984e-05);
    }
    inlet
    {
        type            turbulentMixingLengthDissipationRateInlet;
        mixingLength    0.01;
        phi             phi;
        k               k;
        value           uniform 0.000471672;
    }
    outlet
    {
        type            zeroGradient;
    }
}


// ************************************************************************* //
