/*--------------------------------*- C++ -*----------------------------------*\
  =========                 |
  \\      /  F ield         | OpenFOAM: The Open Source CFD Toolbox
   \\    /   O peration     | Website:  https://openfoam.org
    \\  /    A nd           | Version:  6
     \\/     M anipulation  |
\*---------------------------------------------------------------------------*/
FoamFile
{
    version     2.0;
    format      ascii;
    class       volScalarField;
    location    "2400";
    object      T;
}
// * * * * * * * * * * * * * * * * * * * * * * * * * * * * * * * * * * * * * //

dimensions      [0 0 0 1 0 0 0];

internalField   nonuniform List<scalar> 
778
(
302.571
302.252
302.236
302.231
302.226
302.222
302.217
302.213
302.208
302.203
302.197
302.189
302.18
302.17
302.16
302.232
302.099
302.091
302.09
302.092
302.096
302.1
302.105
302.11
302.115
302.12
302.125
302.13
302.135
302.14
302.147
302.155
302.187
302.784
302.282
302.25
302.249
302.25
302.251
302.25
302.248
302.245
302.24
302.231
302.217
302.197
302.172
302.143
302.124
302.111
302.106
302.087
302.068
302.06
302.058
302.057
302.059
302.06
302.062
302.064
302.066
302.068
302.07
302.073
302.077
302.084
302.095
302.111
302.162
303
302.33
302.277
302.284
302.294
302.304
302.312
302.318
302.32
302.318
302.309
302.29
302.259
302.218
302.173
302.132
302.1
302.08
302.053
302.046
302.044
302.044
302.044
302.046
302.047
302.048
302.049
302.051
302.052
302.053
302.055
302.057
302.062
302.072
302.089
302.15
303.21
302.39
302.308
302.32
302.342
302.363
302.384
302.4
302.412
302.416
302.408
302.384
302.34
302.28
302.213
302.152
302.103
302.067
302.052
302.041
302.037
302.036
302.038
302.039
302.039
302.04
302.04
302.04
302.041
302.041
302.041
302.041
302.041
302.047
302.058
302.076
302.141
303.411
302.464
302.341
302.354
302.385
302.419
302.453
302.484
302.508
302.522
302.518
302.49
302.432
302.347
302.254
302.17
302.105
302.062
302.04
302.032
302.031
302.033
302.036
302.038
302.04
302.041
302.042
302.043
302.043
302.043
302.043
302.043
302.042
302.044
302.05
302.065
302.118
302.13
302.143
302.24
303.599
302.55
302.377
302.382
302.42
302.463
302.508
302.552
302.591
302.618
302.622
302.592
302.519
302.407
302.286
302.181
302.101
302.055
302.033
302.026
302.027
302.031
302.036
302.041
302.044
302.045
302.047
302.047
302.047
302.047
302.046
302.045
302.044
302.043
302.046
302.057
302.09
302.102
302.117
302.252
303.762
302.644
302.426
302.406
302.444
302.49
302.539
302.59
302.639
302.68
302.697
302.669
302.582
302.444
302.299
302.178
302.093
302.043
302.022
302.018
302.024
302.032
302.04
302.046
302.05
302.052
302.053
302.052
302.052
302.051
302.049
302.047
302.045
302.044
302.045
302.051
302.071
302.084
302.1
302.233
303.915
302.788
302.521
302.441
302.462
302.503
302.549
302.596
302.647
302.705
302.736
302.706
302.604
302.452
302.293
302.161
302.071
302.024
302.008
302.011
302.023
302.036
302.047
302.054
302.058
302.06
302.06
302.059
302.057
302.055
302.052
302.05
302.047
302.045
302.044
302.048
302.059
302.072
302.112
302.415
304.123
303.237
302.848
302.593
302.509
302.521
302.556
302.597
302.654
302.723
302.758
302.718
302.596
302.425
302.254
302.119
302.034
301.997
301.993
302.008
302.028
302.046
302.059
302.066
302.069
302.069
302.067
302.064
302.061
302.058
302.055
302.051
302.048
302.046
302.044
302.046
302.054
302.077
302.16
302.577
304.108
303.54
303.168
302.867
302.691
302.622
302.613
302.638
302.707
302.777
302.791
302.713
302.553
302.357
302.179
302.052
301.985
301.968
301.982
302.011
302.039
302.061
302.074
302.079
302.079
302.077
302.073
302.068
302.064
302.06
302.056
302.052
302.049
302.046
302.044
302.046
302.062
302.167
302.326
302.575
304.112
303.675
303.36
303.1
302.919
302.82
302.782
302.791
302.84
302.869
302.82
302.672
302.458
302.239
302.067
301.966
301.931
301.944
301.982
302.025
302.06
302.082
302.091
302.092
302.087
302.081
302.075
302.07
302.065
302.06
302.056
302.052
302.049
302.046
302.045
302.051
302.096
302.23
302.367
302.58
304.144
303.762
303.498
303.287
303.132
303.037
302.995
302.994
302.998
302.944
302.787
302.545
302.281
302.062
301.925
301.874
301.887
301.938
302
302.054
302.09
302.106
302.108
302.101
302.092
302.084
302.076
302.07
302.064
302.06
302.056
302.052
302.049
302.047
302.048
302.072
302.168
302.305
302.422
302.596
304.209
303.882
303.639
303.455
303.323
303.237
303.19
303.163
303.077
302.881
302.586
302.265
301.999
301.833
301.775
301.799
301.873
301.963
302.042
302.098
302.126
302.129
302.121
302.109
302.097
302.087
302.078
302.071
302.066
302.061
302.057
302.053
302.051
302.05
302.058
302.108
302.236
302.385
302.496
302.622
304.145
303.894
303.686
303.544
303.429
303.338
303.261
303.133
302.86
302.479
302.092
301.794
301.632
301.6
301.664
301.782
301.912
302.028
302.109
302.151
302.159
302.15
302.136
302.121
302.107
302.095
302.085
302.077
302.071
302.066
302.062
302.06
302.058
302.06
302.073
302.124
302.249
302.402
302.516
302.63
304.286
304.093
303.623
303.302
303.099
302.934
302.744
302.378
301.906
301.507
301.275
301.221
301.305
301.471
301.668
301.862
302.018
302.132
302.183
302.197
302.191
302.177
302.161
302.145
302.129
302.115
302.103
302.094
302.087
302.083
302.081
302.081
302.084
302.089
302.101
302.137
302.231
302.374
302.474
302.563
294.645
296.45
298.152
299.06
299.409
299.593
299.837
300.159
300.527
300.904
301.263
301.577
301.835
302.045
302.165
302.224
302.244
302.243
302.234
302.222
302.209
302.193
302.177
302.161
302.147
302.136
302.13
302.129
302.132
302.139
302.148
302.156
302.165
302.184
302.237
302.354
302.431
302.524
294.924
295.754
296.656
297.521
298.292
299.01
299.689
300.299
300.82
301.258
301.632
301.91
302.097
302.216
302.276
302.3
302.305
302.304
302.299
302.293
302.283
302.271
302.256
302.24
302.226
302.215
302.211
302.213
302.222
302.236
302.252
302.265
302.276
302.287
302.31
302.37
302.425
302.52
299.76
298.687
297.307
296.759
297.518
298.52
299.419
300.15
300.723
301.162
301.518
301.806
302.03
302.187
302.284
302.337
302.361
302.371
302.376
302.379
302.38
302.378
302.372
302.362
302.348
302.334
302.32
302.31
302.306
302.31
302.321
302.339
302.36
302.381
302.401
302.418
302.435
302.456
302.481
302.558
300.121
299.996
299.41
298.889
299.295
300.014
300.674
301.191
301.574
301.852
302.055
302.201
302.302
302.365
302.401
302.419
302.431
302.44
302.448
302.455
302.458
302.457
302.452
302.443
302.43
302.417
302.405
302.396
302.392
302.395
302.404
302.418
302.437
302.458
302.48
302.502
302.523
302.536
302.538
302.611
300.84
300.84
300.902
300.993
301.148
301.492
301.812
302.053
302.218
302.327
302.398
302.443
302.471
302.487
302.497
302.505
302.513
302.522
302.53
302.536
302.539
302.537
302.532
302.524
302.515
302.506
302.499
302.495
302.494
302.498
302.506
302.519
302.535
302.555
302.578
302.602
302.624
302.64
302.647
302.671
)
;

boundaryField
{
    floor
    {
        type            wallHeatTransfer;
        Tinf            uniform 305.2;
        alphaWall       uniform 0.36;
        value           nonuniform List<scalar> 
36
(
302.549
302.876
302.626
302.617
302.625
302.643
302.668
302.697
302.726
302.755
302.783
302.81
302.836
302.862
302.887
302.914
302.943
302.972
303.043
303.043
302.913
302.845
302.797
302.715
302.623
302.72
302.549
302.492
302.493
302.502
302.876
302.502
302.538
302.422
302.438
302.398
)
;
    }
    ceiling
    {
        type            wallHeatTransfer;
        Tinf            uniform 303.2;
        alphaWall       uniform 0.36;
        value           nonuniform List<scalar> 
43
(
301.028
301.052
301.109
301.187
301.326
301.643
301.942
302.166
302.322
302.426
302.495
302.54
302.57
302.589
302.601
302.61
302.617
302.625
302.631
302.635
302.636
302.633
302.627
302.619
302.61
302.601
302.593
302.588
302.586
302.588
302.594
302.603
302.615
302.631
302.649
302.668
302.684
302.695
302.699
302.723
304.195
304.02
295.885
)
;
    }
    sWall
    {
        type            wallHeatTransfer;
        Tinf            uniform 315.2;
        alphaWall       uniform 0.54;
        value           nonuniform List<scalar> 9(305.128 305.186 305.297 305.441 305.381 305.606 301.39 301.77 302.493);
    }
    nWall
    {
        type            wallHeatTransfer;
        Tinf            uniform 308.2;
        alphaWall       uniform 0.54;
        value           nonuniform List<scalar> 
14
(
303.584
303.443
303.299
303.316
303.32
303.346
303.39
303.408
303.311
303.263
303.25
303.307
303.363
303.441
)
;
    }
    sideWalls
    {
        type            empty;
    }
    glass1
    {
        type            wallHeatTransfer;
        Tinf            uniform 315.2;
        alphaWall       uniform 4.3;
        value           nonuniform List<scalar> 9(311.631 310.818 310.305 309.916 309.609 309.363 309.146 308.999 309.049);
    }
    glass2
    {
        type            wallHeatTransfer;
        Tinf            uniform 308.2;
        alphaWall       uniform 4.3;
        value           nonuniform List<scalar> 2(305.77 305.695);
    }
    sun
    {
        type            wallHeatTransfer;
        Tinf            uniform 305.2;
        alphaWall       uniform 0.36;
        value           nonuniform List<scalar> 
14
(
303.023
302.736
302.724
302.705
302.689
302.675
302.661
302.649
302.636
302.623
302.61
302.596
302.581
302.565
)
;
    }
    Table_master
    {
        type            zeroGradient;
    }
    Table_slave
    {
        type            zeroGradient;
    }
    inlet
    {
        type            fixedValue;
        value           uniform 293.15;
    }
    outlet
    {
        type            zeroGradient;
    }
}


// ************************************************************************* //
