/*--------------------------------*- C++ -*----------------------------------*\
  =========                 |
  \\      /  F ield         | OpenFOAM: The Open Source CFD Toolbox
   \\    /   O peration     | Website:  https://openfoam.org
    \\  /    A nd           | Version:  6
     \\/     M anipulation  |
\*---------------------------------------------------------------------------*/
FoamFile
{
    version     2.0;
    format      ascii;
    class       volVectorField;
    location    "4390";
    object      U;
}
// * * * * * * * * * * * * * * * * * * * * * * * * * * * * * * * * * * * * * //

dimensions      [0 1 -1 0 0 0 0];

internalField   nonuniform List<vector> 
458
(
(0.0348261 0.0885224 0)
(-0.17208 0.0265842 0)
(-0.199347 0.0191131 0)
(-0.233222 0.0130811 0)
(-0.258394 0.00641374 0)
(-0.273599 -0.000804877 0)
(-0.276728 -0.00877819 0)
(-0.26548 -0.0177781 0)
(-0.239422 -0.027427 0)
(-0.199711 -0.0361117 0)
(-0.150445 -0.0420515 0)
(-0.0978287 -0.0436513 0)
(-0.0487289 -0.0390813 0)
(-0.00627104 -0.0236846 0)
(-0.0102629 0.0097713 0)
(-0.0102377 0.0105128 0)
(-0.0372597 -0.0174873 0)
(-0.0145102 -0.0291037 0)
(0.0136702 -0.0251832 0)
(0.033441 -0.0178892 0)
(0.0480574 -0.00955478 0)
(0.0568166 -0.00517624 0)
(0.0606952 -0.00363241 0)
(0.0621307 -0.00308273 0)
(0.06278 -0.00275988 0)
(0.0630899 -0.00250944 0)
(0.0630291 -0.00224147 0)
(0.0624314 -0.00179742 0)
(0.0608399 -0.000838801 0)
(0.0572381 0.00107451 0)
(0.0505188 0.00317061 0)
(0.0451143 0.0050864 0)
(-0.0141471 0.021948 0)
(0.214272 0.181889 0)
(-0.162147 0.0709924 0)
(-0.162941 0.0577621 0)
(-0.198656 0.0457432 0)
(-0.224132 0.0319882 0)
(-0.240108 0.0161756 0)
(-0.244611 -0.00240995 0)
(-0.235115 -0.0239666 0)
(-0.211867 -0.0461697 0)
(-0.176484 -0.0649267 0)
(-0.133355 -0.0764268 0)
(-0.0881261 -0.0781988 0)
(-0.0462597 -0.0687297 0)
(-0.0100268 -0.0460166 0)
(0.0194091 -0.0133807 0)
(0.0442414 0.00784894 0)
(0.0548467 0.0347578 0)
(-0.0118099 0.0706828 0)
(0.0670405 0.0439812 0)
(0.0102887 -0.0218338 0)
(0.0265185 -0.0378984 0)
(0.0407467 -0.0356448 0)
(0.0531356 -0.0273414 0)
(0.0595578 -0.0120935 0)
(0.0611779 -0.00275348 0)
(0.0612277 0.000745514 0)
(0.0613923 0.00202308 0)
(0.0617175 0.00272175 0)
(0.0619425 0.00322156 0)
(0.062 0.00367487 0)
(0.061896 0.00440712 0)
(0.0611849 0.00620497 0)
(0.0577884 0.0112234 0)
(0.0490977 0.0155324 0)
(0.0476926 0.0187038 0)
(-0.0584278 0.0475496 0)
(0.379537 0.272955 0)
(-0.180118 0.113732 0)
(-0.123512 0.0941086 0)
(-0.159197 0.0724341 0)
(-0.182599 0.0495027 0)
(-0.198409 0.0236426 0)
(-0.204062 -0.00653488 0)
(-0.195373 -0.0409796 0)
(-0.17359 -0.0757807 0)
(-0.141424 -0.103649 0)
(-0.103841 -0.118953 0)
(-0.065895 -0.119155 0)
(-0.031823 -0.104118 0)
(-0.00227732 -0.0743972 0)
(0.02203 -0.0400729 0)
(0.0375963 -0.0152196 0)
(0.0431779 0.0131629 0)
(-0.0236629 0.0623188 0)
(0.12249 -0.00753322 0)
(0.0725096 -0.0320912 0)
(0.0643116 -0.0419287 0)
(0.0672602 -0.0417565 0)
(0.0718703 -0.0380436 0)
(0.0734889 -0.0282277 0)
(0.0643657 -0.0183288 0)
(0.0574114 -0.0130267 0)
(0.0548129 -0.0100783 0)
(0.0541216 -0.00818582 0)
(0.0538876 -0.00689728 0)
(0.0539579 -0.00590235 0)
(0.0547573 -0.0047533 0)
(0.0572082 -0.00139866 0)
(0.0561027 0.0149938 0)
(0.0445869 0.025869 0)
(0.0541325 0.0332462 0)
(-0.099378 0.0727936 0)
(0.530026 0.346651 0)
(-0.216668 0.151755 0)
(-0.0801994 0.125835 0)
(-0.115538 0.0962965 0)
(-0.133417 0.067224 0)
(-0.146929 0.0337631 0)
(-0.152515 -0.00711133 0)
(-0.14262 -0.055054 0)
(-0.121288 -0.102308 0)
(-0.0929784 -0.137839 0)
(-0.0625316 -0.155425 0)
(-0.0335724 -0.153426 0)
(-0.00879818 -0.133437 0)
(0.0128646 -0.0979224 0)
(0.0304321 -0.0589721 0)
(0.0443561 -0.0228968 0)
(0.0599541 0.0131487 0)
(0.0588216 0.0534394 0)
(0.100333 0.0615056 0)
(0.0988153 -0.00244135 0)
(0.0851503 -0.0293887 0)
(0.0784666 -0.03769 0)
(0.0736152 -0.0383936 0)
(0.0670196 -0.0341072 0)
(0.0666004 -0.0208383 0)
(0.0772763 -0.0138299 0)
(0.0862394 -0.010107 0)
(0.0916385 -0.00782426 0)
(0.0948783 -0.00591658 0)
(0.0962847 -0.00385552 0)
(0.0945168 -0.00119016 0)
(0.0882548 0.00248028 0)
(0.0757127 0.00774304 0)
(0.0597988 0.0250978 0)
(0.0440615 0.0405831 0)
(0.062978 0.0533442 0)
(-0.131389 0.0942777 0)
(0.662681 0.403808 0)
(-0.262352 0.182677 0)
(-0.035034 0.145257 0)
(-0.0687492 0.111319 0)
(-0.0779461 0.0792332 0)
(-0.0862939 0.0412498 0)
(-0.0890491 -0.00798762 0)
(-0.0740292 -0.0688143 0)
(-0.0534831 -0.125901 0)
(-0.0315795 -0.165073 0)
(-0.0112758 -0.181841 0)
(0.00616075 -0.175989 0)
(0.0193249 -0.151481 0)
(0.0303427 -0.114537 0)
(0.0401929 -0.0729571 0)
(0.0494372 -0.0337224 0)
(0.0619356 0.00067478 0)
(0.0760376 0.0197159 0)
(0.0903264 -0.000567847 0)
(0.0896836 -0.0213729 0)
(0.0826169 -0.0300337 0)
(0.0738102 -0.0325491 0)
(0.0655655 -0.0316288 0)
(0.0586214 -0.0266316 0)
(0.0568402 -0.0155117 0)
(0.0603938 -0.00902662 0)
(0.0647353 -0.00637209 0)
(0.0684587 -0.00482987 0)
(0.0717015 -0.00274975 0)
(0.0742084 0.000780939 0)
(0.075058 0.00596797 0)
(0.0731641 0.0129864 0)
(0.0682549 0.0224377 0)
(0.0612079 0.0371776 0)
(0.0500559 0.0536292 0)
(0.0748591 0.072748 0)
(-0.00684656 0.101381 0)
(0.0557882 0.150674 0)
(-0.0835197 0.0748405 0)
(-0.277797 0.000487994 0)
(0.761895 0.451323 0)
(-0.308549 0.203337 0)
(0.00242974 0.143886 0)
(-0.0205844 0.116259 0)
(-0.0197904 0.0857222 0)
(-0.0215003 0.0472952 0)
(-0.0143142 -0.0069376 0)
(0.0103145 -0.0859248 0)
(0.0269236 -0.146192 0)
(0.0388254 -0.182423 0)
(0.0460454 -0.194553 0)
(0.0488936 -0.18505 0)
(0.048629 -0.158119 0)
(0.0472244 -0.119917 0)
(0.0460508 -0.0779382 0)
(0.0464678 -0.0397067 0)
(0.0508198 -0.00999103 0)
(0.0599681 0.00482405 0)
(0.0662444 -0.00105206 0)
(0.0649912 -0.011014 0)
(0.0586057 -0.0188063 0)
(0.0504349 -0.0229108 0)
(0.0427971 -0.0236607 0)
(0.0368212 -0.0211346 0)
(0.03427 -0.0157706 0)
(0.0354195 -0.0122942 0)
(0.0383734 -0.010863 0)
(0.0420297 -0.00977523 0)
(0.0460897 -0.00763926 0)
(0.0502723 -0.00338503 0)
(0.054483 0.00368341 0)
(0.0570001 0.0131864 0)
(0.0581663 0.024944 0)
(0.0592912 0.0395782 0)
(0.0583675 0.0559998 0)
(0.0797091 0.0766954 0)
(0.0654483 0.0889842 0)
(0.0997223 0.0967316 0)
(0.117478 0.0571989 0)
(-0.136895 -0.029928 0)
(0.815611 0.494186 0)
(-0.334124 0.18737 0)
(0.0322407 0.0938 0)
(0.0390616 0.101055 0)
(0.0459306 0.0830007 0)
(0.051623 0.0393708 0)
(0.079097 -0.0311713 0)
(0.103109 -0.103704 0)
(0.113285 -0.157016 0)
(0.11286 -0.186331 0)
(0.10458 -0.192431 0)
(0.0907888 -0.178774 0)
(0.0740935 -0.149768 0)
(0.0575005 -0.111561 0)
(0.0429712 -0.0709091 0)
(0.0326165 -0.0356954 0)
(0.0281005 -0.0107567 0)
(0.0295006 0.000990915 0)
(0.0311361 -0.000280704 0)
(0.0296346 -0.00656914 0)
(0.024983 -0.0126304 0)
(0.0188637 -0.0163692 0)
(0.0128385 -0.0177425 0)
(0.00803221 -0.0171046 0)
(0.00567116 -0.0151958 0)
(0.00601332 -0.0141014 0)
(0.00805244 -0.0139682 0)
(0.0110508 -0.0137425 0)
(0.014846 -0.0123617 0)
(0.019524 -0.00874014 0)
(0.0256927 -0.00163592 0)
(0.0333026 0.00886876 0)
(0.0400694 0.0208901 0)
(0.0478782 0.0341599 0)
(0.0558776 0.0479595 0)
(0.0754521 0.0644567 0)
(0.0882332 0.0697707 0)
(0.11967 0.0632095 0)
(0.163391 0.0513057 0)
(-0.0203528 0.0954881 0)
(0.921863 0.497285 0)
(-0.0766794 0.167419 0)
(0.110608 0.026162 0)
(0.163736 0.0227934 0)
(0.161398 0.015548 0)
(0.162864 -0.0293617 0)
(0.196487 -0.0804092 0)
(0.211269 -0.125542 0)
(0.205358 -0.158277 0)
(0.185089 -0.173982 0)
(0.155583 -0.171673 0)
(0.121084 -0.153972 0)
(0.085289 -0.124273 0)
(0.0523632 -0.0880737 0)
(0.0244584 -0.0510592 0)
(0.00511436 -0.0219291 0)
(-0.0046318 -0.00442856 0)
(-0.00655879 0.00175812 0)
(-0.00643993 0.000662951 0)
(-0.00764063 -0.0036634 0)
(-0.0109406 -0.00801341 0)
(-0.0154386 -0.0110774 0)
(-0.0200732 -0.0128477 0)
(-0.0239376 -0.0136844 0)
(-0.0263198 -0.0141356 0)
(-0.0272115 -0.0148867 0)
(-0.0271756 -0.0158709 0)
(-0.0265939 -0.0165846 0)
(-0.0254667 -0.016499 0)
(-0.0234874 -0.0150365 0)
(-0.0198622 -0.0114658 0)
(-0.0117097 -0.00490995 0)
(-9.40326e-05 0.00445884 0)
(0.0110862 0.0137603 0)
(0.0226896 0.0208653 0)
(0.0398997 0.0277363 0)
(0.0554301 0.0224377 0)
(0.079569 0.00564839 0)
(0.146409 0.0479778 0)
(-0.428337 0.212666 0)
(1.06591 0.444164 0)
(0.518237 0.2983 0)
(0.529532 0.249858 0)
(0.518389 0.182906 0)
(0.469835 0.122439 0)
(0.433154 0.0601136 0)
(0.392043 -0.00742304 0)
(0.342839 -0.0669795 0)
(0.28908 -0.107862 0)
(0.232742 -0.126612 0)
(0.175361 -0.125099 0)
(0.118902 -0.108912 0)
(0.0654559 -0.0822851 0)
(0.0202361 -0.0512625 0)
(-0.0161012 -0.0208454 0)
(-0.0329466 -0.00607244 0)
(-0.0401245 0.000441763 0)
(-0.041681 0.00220707 0)
(-0.0420595 0.00100806 0)
(-0.0432017 -0.00163959 0)
(-0.0458297 -0.00451729 0)
(-0.0494788 -0.00704502 0)
(-0.0535042 -0.00913504 0)
(-0.057369 -0.0108638 0)
(-0.0608167 -0.0123658 0)
(-0.0640099 -0.0137473 0)
(-0.0673525 -0.0148459 0)
(-0.0712202 -0.0153023 0)
(-0.0759667 -0.0146319 0)
(-0.0820651 -0.0121818 0)
(-0.0902076 -0.00711484 0)
(-0.101118 0.001428 0)
(-0.112753 0.0133218 0)
(-0.127984 0.0284138 0)
(-0.152908 0.0467843 0)
(-0.190232 0.0673932 0)
(-0.241634 0.0862253 0)
(-0.297562 0.0999187 0)
(-0.371647 0.106912 0)
(-0.65067 0.106306 0)
(0.233924 0.0528321 0)
(0.305889 0.115963 0)
(0.321217 0.0913683 0)
(0.299642 0.0395786 0)
(0.275045 -0.0106021 0)
(0.244385 -0.0469392 0)
(0.203096 -0.0684128 0)
(0.154002 -0.0754154 0)
(0.100437 -0.0686995 0)
(0.0461645 -0.0529174 0)
(-0.00862896 -0.0295151 0)
(-0.0451331 -0.011498 0)
(-0.0635914 -0.00313992 0)
(-0.0709223 -0.000758161 0)
(-0.0731578 -0.000284137 0)
(-0.073476 -0.000982625 0)
(-0.0737779 -0.0025839 0)
(-0.0749165 -0.00467934 0)
(-0.0771317 -0.0067681 0)
(-0.0803874 -0.00854782 0)
(-0.0841835 -0.0100193 0)
(-0.0882905 -0.011141 0)
(-0.0927198 -0.0119155 0)
(-0.0976249 -0.0123096 0)
(-0.103157 -0.012133 0)
(-0.109347 -0.0110407 0)
(-0.116065 -0.00856359 0)
(-0.122967 -0.00415756 0)
(-0.129429 0.00273848 0)
(-0.134403 0.0123363 0)
(-0.13837 0.0256171 0)
(-0.141807 0.0431789 0)
(-0.146018 0.0642219 0)
(-0.151773 0.085051 0)
(-0.155359 0.0955471 0)
(-0.141304 0.0734009 0)
(-0.110249 -0.0250095 0)
(-0.286614 -0.213741 0)
(0.120027 0.324336 0)
(0.00839075 0.203593 0)
(0.039265 0.118451 0)
(0.0584786 0.0604352 0)
(0.0631269 0.0216244 0)
(0.060113 -0.0047867 0)
(0.0401985 -0.0199148 0)
(0.00542015 -0.0189553 0)
(-0.0365957 -0.00171932 0)
(-0.0701149 0.0128782 0)
(-0.0912279 0.0208818 0)
(-0.100242 0.0232658 0)
(-0.102467 0.0233937 0)
(-0.102412 0.0234464 0)
(-0.10154 0.0241606 0)
(-0.100508 0.0252873 0)
(-0.0997857 0.0264287 0)
(-0.0996584 0.0271786 0)
(-0.100183 0.0271132 0)
(-0.101325 0.0259077 0)
(-0.103119 0.0238737 0)
(-0.105495 0.0216292 0)
(-0.108387 0.0194495 0)
(-0.111705 0.0174802 0)
(-0.115313 0.0158314 0)
(-0.118996 0.0146123 0)
(-0.122445 0.0139595 0)
(-0.125176 0.0140302 0)
(-0.126372 0.0155212 0)
(-0.124865 0.0198895 0)
(-0.119076 0.0282959 0)
(-0.107619 0.0417405 0)
(-0.0903521 0.0602412 0)
(-0.0683175 0.0804254 0)
(-0.0434464 0.0948378 0)
(-0.00758484 0.0857782 0)
(0.146942 0.00930586 0)
(-0.209932 -0.129684 0)
(-0.422117 -0.51603 0)
(-0.637319 -0.143275 0)
(-0.449398 0.17776 0)
(-0.357933 0.0560798 0)
(-0.213898 -0.00553898 0)
(-0.145609 -0.0477882 0)
(-0.117164 -0.0705384 0)
(-0.112984 -0.0713635 0)
(-0.122343 -0.0626891 0)
(-0.134861 -0.0549777 0)
(-0.140346 -0.0505068 0)
(-0.138587 -0.0490673 0)
(-0.134126 -0.049953 0)
(-0.128945 -0.0527762 0)
(-0.124482 -0.0563046 0)
(-0.121038 -0.059948 0)
(-0.118239 -0.0635899 0)
(-0.115826 -0.0672867 0)
(-0.113757 -0.070888 0)
(-0.112107 -0.0739043 0)
(-0.111008 -0.0756842 0)
(-0.110621 -0.075791 0)
(-0.111051 -0.0743579 0)
(-0.112257 -0.0719862 0)
(-0.114068 -0.0689142 0)
(-0.116259 -0.0652744 0)
(-0.118548 -0.0610867 0)
(-0.120565 -0.0562775 0)
(-0.12183 -0.0506309 0)
(-0.121709 -0.043801 0)
(-0.119186 -0.0358143 0)
(-0.112353 -0.0266897 0)
(-0.0984059 -0.0158832 0)
(-0.0748445 -0.00248645 0)
(-0.0415508 0.0143643 0)
(0.0093161 0.0362844 0)
(0.0618658 0.0423474 0)
(0.109598 0.0240446 0)
(0.172057 -0.0159427 0)
(-0.19629 -0.0826847 0)
)
;

boundaryField
{
    floor
    {
        type            noSlip;
    }
    ceiling
    {
        type            noSlip;
    }
    sWall
    {
        type            noSlip;
    }
    nWall
    {
        type            noSlip;
    }
    sideWalls
    {
        type            empty;
    }
    glass1
    {
        type            noSlip;
    }
    glass2
    {
        type            noSlip;
    }
    sun
    {
        type            noSlip;
    }
    Table_master
    {
        type            noSlip;
    }
    Table_slave
    {
        type            noSlip;
    }
    inlet
    {
        type            fixedValue;
        value           uniform (0.46194 -0.191342 0);
    }
    outlet
    {
        type            zeroGradient;
    }
}


// ************************************************************************* //
