/*--------------------------------*- C++ -*----------------------------------*\
  =========                 |
  \\      /  F ield         | OpenFOAM: The Open Source CFD Toolbox
   \\    /   O peration     | Website:  https://openfoam.org
    \\  /    A nd           | Version:  6
     \\/     M anipulation  |
\*---------------------------------------------------------------------------*/
FoamFile
{
    version     2.0;
    format      ascii;
    class       surfaceScalarField;
    location    "4610";
    object      phi;
}
// * * * * * * * * * * * * * * * * * * * * * * * * * * * * * * * * * * * * * //

dimensions      [1 0 -1 0 0 0 0];

internalField   nonuniform List<scalar> 
850
(
-0.00305312
0.00311357
-0.00414582
0.00109271
-0.00501491
0.000869089
-0.00570376
0.000688851
-0.00617584
0.000472074
-0.00639707
0.000221237
-0.00632785
-6.92235e-05
-0.00592401
-0.000403835
-0.00517375
-0.000750262
-0.00412858
-0.00104518
-0.00290027
-0.00122831
-0.00164146
-0.00125881
-0.00053896
-0.0011025
0.000135941
-0.000674901
0.000138292
-0.00092242
0.000926077
-0.000690026
-0.000232395
-6.07931e-05
-0.000629233
0.000542652
-0.000603445
0.00100183
-0.000459182
0.00125841
-0.000256575
0.00136652
-0.000108115
0.00141934
-5.28162e-05
0.00144969
-3.03509e-05
0.00146476
-1.50646e-05
0.00146837
-3.61258e-06
0.00146137
6.99795e-06
0.00143812
2.32527e-05
0.00137959
5.85226e-05
0.00125367
0.000125922
0.00105009
0.000203582
0.000793445
0.000256646
0.000798285
-0.00220745
0.00548443
-0.0032951
0.00218036
-0.00420832
0.00178231
-0.00490609
0.00138662
-0.0053876
0.00095358
-0.00563053
0.000464169
-0.00559449
-0.000105261
-0.00524028
-0.000758046
-0.00456676
-0.00142378
-0.0036427
-0.00196924
-0.00258801
-0.00228301
-0.00154147
-0.00230534
-0.000628639
-0.00201533
9.2958e-05
-0.0013965
0.000872779
-0.000641529
0.00114861
-0.000272051
0.00095684
0.000196134
0.000969529
4.15244e-05
0.000895553
0.000421783
-0.000612653
0.000786664
-0.000994114
0.00109963
-0.000916414
0.00135048
-0.000710034
0.00140695
-0.000313041
0.00141509
-0.000116252
0.00142581
-6.35424e-05
0.0014348
-3.93365e-05
0.00144007
-2.03327e-05
0.00144223
-5.77319e-06
0.00144184
7.39006e-06
0.00143636
2.87332e-05
0.0013999
9.49788e-05
0.00124702
0.000278801
0.000978557
0.000472045
0.000644614
0.000590588
0.00145528
-0.00156234
0.00729719
-0.00251037
0.0031284
-0.003343
0.00261494
-0.00396557
0.00200918
-0.00441314
0.00140115
-0.00466165
0.000712684
-0.00465598
-0.000110935
-0.00433468
-0.00107935
-0.00371313
-0.00204533
-0.00288869
-0.00279367
-0.00198658
-0.00318512
-0.00112264
-0.00316927
-0.000373442
-0.00276453
0.000240559
-0.0020105
0.00075206
-0.00115303
0.000899407
-0.000419398
0.000707511
0.000388029
0.0016883
0.00143723
-0.000527843
0.00163273
-0.000808152
0.00157514
-0.000936519
0.00160843
-0.000949704
0.0018117
-0.000913303
0.00149881
0.00138271
0.00131932
0.00128014
0.00125996
0.00125434
0.00126188
0.00129077
0.0013859
0.00115888
0.000505829
0.000869994
0.000760929
0.000498895
0.000961688
0.00197274
-0.00109547
0.0087173
-0.00185227
0.0038852
-0.0024366
0.00319926
-0.00288268
0.00245526
-0.00322781
0.00174628
-0.00344067
0.000925545
-0.00344207
-0.000109535
-0.00312365
-0.00139777
-0.00254777
-0.00262121
-0.00184605
-0.00349539
-0.0011304
-0.00390078
-0.000480677
-0.00381899
6.57951e-05
-0.003311
0.000526391
-0.00247109
0.000902492
-0.00152913
0.00111956
-0.00063647
0.00130375
0.000203848
0.0022575
0.000734543
0.00216769
0.000101751
0.00199491
-0.000355065
0.00190895
-0.000722184
0.00179815
-0.000825721
0.00166595
-0.000817507
0.00143499
-0.000682344
0.00175861
-0.000323768
0.00193628
-0.000177824
0.00206721
-0.000131082
0.002168
-0.000100942
0.00222822
-6.03819e-05
0.00222567
2.40238e-06
0.00213278
9.27358e-05
0.00191323
0.0002194
0.00150707
0.000406004
0.00126968
0.000743219
0.000902421
0.00112818
0.000384077
0.00148003
0.00238046
-0.000756068
0.00986109
-0.00132705
0.00445618
-0.00150962
0.00338184
-0.00168822
0.00263386
-0.0018532
0.00191126
-0.00196223
0.00103457
-0.00191377
-0.000158
-0.00155673
-0.0017548
-0.00105571
-0.00312223
-0.000537801
-0.0040133
-7.33086e-05
-0.00436527
0.000305343
-0.00419764
0.000596511
-0.00360217
0.000849394
-0.00272398
0.00106874
-0.00174848
0.00127614
-0.000843877
0.00158682
-0.000106824
0.00203037
0.000290991
0.00206424
6.788e-05
0.00199693
-0.00028775
0.00181243
-0.000537686
0.00162455
-0.000637847
0.00144747
-0.000640419
0.00131879
-0.000553666
0.00137755
-0.000382529
0.00146561
-0.000265888
0.00155009
-0.000215556
0.00163158
-0.000182433
0.00170172
-0.000130519
0.00174075
-3.66302e-05
0.00172468
0.0001088
0.00163842
0.000305663
0.00148618
0.000558241
0.0013301
0.000899304
0.00115112
0.00130716
0.000804083
0.00182707
0.00101981
0.00216473
-0.00109518
0.0021361
-0.00179343
0.000717873
-0.00172066
-0.000638708
0.0109406
-0.00101437
0.00483184
-0.000633428
0.0030009
-0.000448689
0.00244912
-0.000384072
0.00184665
-0.000303717
0.000954218
-5.1929e-05
-0.000409788
0.000334476
-0.00214121
0.000692158
-0.00347991
0.000952005
-0.00427315
0.00109503
-0.00450829
0.00114535
-0.00424797
0.00113925
-0.00359607
0.00111607
-0.00270079
0.0011006
-0.00173301
0.00113277
-0.000876048
0.00126984
-0.00024389
0.00148461
7.62201e-05
0.00153587
1.66187e-05
0.0014379
-0.000189775
0.00126352
-0.00036331
0.00108386
-0.000458183
0.000926557
-0.000483119
0.000821535
-0.000448644
0.000810739
-0.000371733
0.000860087
-0.000315235
0.000936258
-0.000291728
0.00102701
-0.000273182
0.00112584
-0.000229352
0.00122284
-0.000133635
0.00129576
3.58888e-05
0.00133282
0.000268603
0.00134811
0.000542942
0.00138213
0.000865286
0.00148259
0.00120671
0.00168607
0.00162358
0.00203681
0.00181399
0.00233694
0.00183597
0.00182999
0.00122483
0.000174761
-0.000763862
0.0121917
-0.000621483
0.00468946
0.00049228
0.00188714
0.000960635
0.00198077
0.001218
0.00158928
0.0015995
0.000572715
0.00210278
-0.000913069
0.00243994
-0.00247837
0.00257374
-0.00361371
0.00250619
-0.00420559
0.00227296
-0.00427507
0.001936
-0.00391101
0.00155908
-0.00321915
0.00120033
-0.00234205
0.000896614
-0.00142929
0.000705085
-0.000684518
0.000653496
-0.000192302
0.00070466
2.50565e-05
0.00071274
8.53836e-06
0.000636477
-0.000113513
0.000509152
-0.000235984
0.000368854
-0.000317886
0.000242954
-0.000357218
0.000156843
-0.000362533
0.000133883
-0.000348773
0.000162891
-0.000344244
0.000222522
-0.000351359
0.00030298
-0.000353639
0.000405268
-0.00033164
0.000534359
-0.000262726
0.000687265
-0.000117018
0.000845208
0.000110661
0.00100721
0.000380939
0.00120906
0.000663438
0.00148365
0.000932117
0.00188404
0.0012232
0.00241744
0.00128059
0.00318504
0.00106837
0.00336162
0.00104825
0.00360519
0.00273593
0.00999912
0.00339171
0.00403368
0.00344937
0.00182948
0.00353505
0.00189508
0.00374633
0.00137801
0.00422224
9.68034e-05
0.00469337
-0.0013842
0.00478839
-0.00257339
0.00451405
-0.00333938
0.00396089
-0.00365243
0.00322973
-0.0035439
0.00242474
-0.00310602
0.00162791
-0.00242232
0.000922013
-0.00163615
0.000347357
-0.000854637
-2.51949e-06
-0.000334641
-0.000140829
-5.3992e-05
-0.000155255
3.94821e-05
-0.000163107
1.63901e-05
-0.000215236
-6.13831e-05
-0.000306056
-0.000145165
-0.000412285
-0.000211657
-0.000511606
-0.000257897
-0.000585877
-0.000288262
-0.000623875
-0.000310775
-0.000633087
-0.000335032
-0.000625261
-0.000359185
-0.000604698
-0.000374203
-0.000566416
-0.000369922
-0.000494197
-0.000334945
-0.000356734
-0.000254481
-0.0001466
-9.94724e-05
0.00010417
0.000130169
0.000388868
0.00037874
0.000707312
0.000613672
0.00108959
0.000840925
0.00150689
0.000863285
0.00189864
0.000676619
0.00120605
0.00174085
0.00509765
0.010598
0.0146275
0.0125614
0.00389561
0.0112292
0.00322725
0.0103408
0.00226649
0.00953392
0.000903641
0.00853148
-0.000381763
0.00735255
-0.00139445
0.00607926
-0.00206609
0.00476042
-0.0023336
0.00342922
-0.0022127
0.00216419
-0.00184099
0.00100938
-0.00126751
5.63507e-05
-0.000683124
-0.00056606
-0.000232226
-0.000859645
-4.10561e-05
-0.000956779
4.31418e-05
-0.000976435
5.91379e-05
-0.000991822
3.17773e-05
-0.00103525
-1.79505e-05
-0.00110784
-7.25833e-05
-0.00119687
-0.000122621
-0.00128868
-0.000166086
-0.00137431
-0.000202633
-0.00145151
-0.000233578
-0.00152705
-0.000259493
-0.00161021
-0.000276025
-0.00170952
-0.000274886
-0.00183466
-0.000244784
-0.00199852
-0.000171088
-0.00221652
-3.64808e-05
-0.00248302
0.000167032
-0.002807
0.000454141
-0.00327096
0.000842708
-0.00398817
0.00133088
-0.00502971
0.00188247
-0.00651693
0.0023505
-0.00825537
0.00241507
-0.00777182
0.00125729
-0.00235715
0.00895045
0.00560354
0.00747188
0.00470582
0.00708001
0.00265837
0.00672917
0.00125448
0.00611918
0.000228228
0.00524676
-0.000522026
0.00417816
-0.000997488
0.00298276
-0.0011382
0.00169118
-0.00092112
0.000430328
-0.000580137
-0.000609541
-0.000227638
-0.00127075
-2.19136e-05
-0.00156323
6.02521e-05
-0.0016779
7.36161e-05
-0.00170787
7.31089e-05
-0.00171364
6.49048e-05
-0.00172865
4.67964e-05
-0.00176746
2.08589e-05
-0.00183139
-8.65901e-06
-0.00191294
-4.10676e-05
-0.00200445
-7.45768e-05
-0.00210376
-0.000103324
-0.00221221
-0.000125128
-0.00233323
-0.000138472
-0.00246896
-0.000140296
-0.00261827
-0.000125577
-0.00277573
-8.73192e-05
-0.00292901
-1.78135e-05
-0.00306256
9.70725e-05
-0.00317484
0.000279309
-0.00327578
0.000555085
-0.00337729
0.000944216
-0.00348611
0.0014397
-0.00356962
0.00196598
-0.00356799
0.00234888
-0.00331003
0.0021571
-0.00195005
-0.000102695
-0.00422388
-0.000826098
0.00648295
0.0007421
0.00313762
0.00140781
0.00199266
0.00164672
0.00101556
0.00158289
0.000292055
0.00121187
-0.00015101
0.000529654
-0.000315267
-0.00036377
-0.000244778
-0.00124109
-4.38009e-05
-0.00188639
6.51652e-05
-0.00222713
0.000113104
-0.0023581
0.00010905
-0.00238119
8.33492e-05
-0.00237097
6.33867e-05
-0.00234989
5.20377e-05
-0.00232932
4.43351e-05
-0.00231833
3.58021e-05
-0.00232221
2.47367e-05
-0.00234158
1.0716e-05
-0.00237543
-7.22199e-06
-0.00242402
-2.59851e-05
-0.00248537
-4.19732e-05
-0.00255739
-5.31141e-05
-0.00263754
-5.83152e-05
-0.00272178
-5.60556e-05
-0.00280352
-4.38363e-05
-0.0028733
-1.75464e-05
-0.00291854
2.74343e-05
-0.00291853
9.70553e-05
-0.00284796
0.000208747
-0.00267232
0.000379436
-0.00236025
0.000632155
-0.00190395
0.000983389
-0.00128937
0.0013514
-0.000299685
0.00135919
0.00114765
0.000709767
0.00164262
-0.00059766
-0.00248957
-0.0120486
-0.0155771
-0.00905365
-0.00588861
-0.00387368
-0.00283951
-0.00253243
-0.00267143
-0.00297677
-0.00321305
-0.00324918
-0.00317673
-0.00305649
-0.00294033
-0.00284985
-0.00277932
-0.0027201
-0.00266855
-0.00262548
-0.00259344
-0.00257541
-0.00257535
-0.00259414
-0.00262904
-0.0026752
-0.0027267
-0.00277611
-0.00281347
-0.00282474
-0.00279122
-0.00268831
-0.00247394
-0.00208912
-0.00145186
-0.000463662
0.000892164
0.00225549
0.00296931
0.00237583
)
;

boundaryField
{
    floor
    {
        type            calculated;
        value           nonuniform List<scalar> 
36
(
0
0
0
0
0
0
0
0
0
0
0
0
0
0
0
0
0
0
0
-4.83914e-06
-1.23781e-05
-1.85697e-05
-2.36404e-05
-2.11162e-05
-1.96191e-05
-1.84535e-05
-2.35097e-06
-3.78399e-06
-4.35946e-06
-5.04476e-06
-3.65657e-06
-7.64391e-06
-1.10004e-05
-1.12624e-05
-1.38364e-05
-1.19396e-05
)
;
    }
    ceiling
    {
        type            calculated;
        value           nonuniform List<scalar> 
43
(
-4.18441e-05
-4.11787e-05
-4.04782e-05
-2.74141e-05
-2.22701e-05
-1.86048e-05
-1.50289e-05
-1.20046e-05
-9.92944e-06
-8.50215e-06
-7.66632e-06
-7.28564e-06
-7.1379e-06
-7.11114e-06
-7.12493e-06
-7.14625e-06
-7.17745e-06
-7.22026e-06
-7.26657e-06
-7.30716e-06
-7.31476e-06
-7.27607e-06
-7.19259e-06
-7.08106e-06
-6.95223e-06
-6.8091e-06
-6.64849e-06
-6.47518e-06
-6.28366e-06
-6.07854e-06
-5.85892e-06
-5.62505e-06
-5.37643e-06
-5.10578e-06
-4.81117e-06
-4.42479e-06
-4.13947e-06
-4.04924e-06
-4.18128e-06
-3.60358e-06
6.94074e-06
4.17887e-06
-5.3314e-05
)
;
    }
    sWall
    {
        type            calculated;
        value           uniform -0.0002414;
    }
    nWall
    {
        type            calculated;
        value           nonuniform List<scalar> 6(-5.43171e-05 -6.54339e-05 -6.88139e-05 -8.33269e-05 -9.1686e-05 -0.00011014);
    }
    sideWalls
    {
        type            empty;
        value           nonuniform 0();
    }
    glass1
    {
        type            calculated;
        value           nonuniform List<scalar> 9(-6.04583e-05 -0.000163401 -0.000250424 -0.000324643 -0.000387723 -0.000440785 -0.00048727 -0.000543331 -0.000605862);
    }
    glass2
    {
        type            calculated;
        value           nonuniform List<scalar> 2(-0.000286411 -0.000317012);
    }
    sun
    {
        type            calculated;
        value           uniform 0;
    }
    Table_master
    {
        type            calculated;
        value           nonuniform List<scalar> 9(-1.5364e-07 -1.53789e-07 -1.53839e-07 -1.53869e-07 -1.53889e-07 -1.53902e-07 -1.53906e-07 -1.539e-07 -1.5387e-07);
    }
    Table_slave
    {
        type            calculated;
        value           nonuniform List<scalar> 9(1.5353e-07 1.53515e-07 1.53468e-07 1.53431e-07 1.53408e-07 1.53408e-07 1.53413e-07 1.53451e-07 1.53535e-07);
    }
    inlet
    {
        type            calculated;
        value           uniform -0.0106584;
    }
    outlet
    {
        type            calculated;
        value           nonuniform List<scalar> 2(0.0123318 0.00356969);
    }
}


// ************************************************************************* //
