/*--------------------------------*- C++ -*----------------------------------*\
  =========                 |
  \\      /  F ield         | OpenFOAM: The Open Source CFD Toolbox
   \\    /   O peration     | Website:  https://openfoam.org
    \\  /    A nd           | Version:  6
     \\/     M anipulation  |
\*---------------------------------------------------------------------------*/
FoamFile
{
    version     2.0;
    format      ascii;
    class       volScalarField;
    location    "1760";
    object      epsilon;
}
// * * * * * * * * * * * * * * * * * * * * * * * * * * * * * * * * * * * * * //

dimensions      [0 2 -3 0 0 0 0];

internalField   nonuniform List<scalar> 
458
(
0.000432814
0.000557921
0.00059661
0.000686401
0.000776688
0.00086916
0.000968733
0.00107732
0.00117189
0.00123404
0.00124117
0.00117478
0.00102226
0.000744148
0.000324965
3.92317e-05
6.32034e-05
9.21061e-05
0.000104414
9.95884e-05
8.16121e-05
6.44028e-05
5.12202e-05
4.137e-05
3.39146e-05
2.81873e-05
2.37384e-05
2.02079e-05
1.73137e-05
1.48371e-05
1.26e-05
1.13838e-05
8.83716e-06
0.00106103
0.00158339
0.00051848
0.000502654
0.000518504
0.000550978
0.000606324
0.000688532
0.000779778
0.000853994
0.000882081
0.000847838
0.000756908
0.000624009
0.000502023
0.000747389
0.000426782
0.000231796
3.82932e-05
7.53641e-05
9.27396e-05
9.34236e-05
8.97246e-05
9.00281e-05
7.0555e-05
5.349e-05
4.08036e-05
3.15345e-05
2.47391e-05
1.97212e-05
1.59664e-05
1.31677e-05
1.14057e-05
1.06885e-05
3.04908e-05
2.00753e-05
0.00190709
0.00384793
0.000603786
0.000458317
0.000466062
0.000508204
0.00058051
0.000683718
0.000797193
0.000884441
0.000918109
0.00088801
0.000802065
0.00066722
0.000517672
0.000416436
0.000353083
0.0003819
0.000139919
0.000139212
0.000125565
0.000111511
0.000103518
0.000198158
0.000132972
9.11302e-05
6.45231e-05
4.72839e-05
3.58112e-05
2.79858e-05
2.25636e-05
1.88675e-05
1.48278e-05
1.31278e-05
6.4877e-05
3.31339e-05
0.00306284
0.00799459
0.00090384
0.000438996
0.000429239
0.000481263
0.000574989
0.000717972
0.000862748
0.000958131
0.000989374
0.000953055
0.000855367
0.000703438
0.000548588
0.00043242
0.000365911
0.000380543
0.000583932
0.000375869
0.000245186
0.000178289
0.000140472
0.000122997
0.000283258
0.000218176
0.000180104
0.000155041
0.000135755
0.00011824
0.000103067
8.85072e-05
7.33074e-05
4.53968e-05
2.92901e-05
0.000114641
5.06237e-05
0.00464968
0.0144277
0.0017404
0.00047088
0.00039564
0.00045162
0.000588925
0.000832878
0.00101858
0.00111189
0.00112842
0.00106929
0.000937527
0.000753792
0.000564916
0.000420105
0.000331691
0.000302707
0.000303829
0.000253609
0.000209385
0.000175122
0.000146301
0.000122072
0.000113065
0.000103814
9.75374e-05
9.21922e-05
8.61962e-05
7.87661e-05
7.08817e-05
6.31537e-05
5.59003e-05
4.60273e-05
3.61888e-05
7.47584e-05
0.000114591
0.00012097
0.000143505
0.000184282
0.00687175
0.0217355
0.00400185
0.00079079
0.000465135
0.000474101
0.000700803
0.00112
0.00130632
0.00136598
0.00134365
0.0012462
0.00106729
0.000825288
0.000577685
0.000388756
0.00027884
0.000238533
0.000228236
0.000218247
0.000201141
0.000176764
0.000149296
0.000123754
0.000107326
0.000100906
9.97459e-05
9.93423e-05
9.72047e-05
9.16661e-05
8.17113e-05
7.04479e-05
5.98029e-05
5.01443e-05
4.34373e-05
5.55247e-05
8.83481e-05
0.000106129
0.000206707
0.000205618
0.00965911
0.0261945
0.00879609
0.00280096
0.00145444
0.00114116
0.00148333
0.00172685
0.00178616
0.00174926
0.00164989
0.00148353
0.00123
0.000908162
0.00058827
0.00035592
0.00023451
0.000200217
0.000202378
0.000203025
0.000190045
0.000166862
0.000141343
0.000120203
0.000109069
0.000108551
0.000113664
0.000120154
0.000125729
0.000128179
0.000124099
0.000111087
9.74848e-05
8.5929e-05
8.04409e-05
8.87179e-05
0.00012058
0.000176772
0.000327316
0.000344795
0.010447
0.0300972
0.0160955
0.00965295
0.0059705
0.00418101
0.00338393
0.00287626
0.00253835
0.00228135
0.00203921
0.00176105
0.00139724
0.0009684
0.000561373
0.000300492
0.000190398
0.000174398
0.000179651
0.000177135
0.000162219
0.000141968
0.000124127
0.000113535
0.000112228
0.000119061
0.000131175
0.00014686
0.000165745
0.000187737
0.000212035
0.00023294
0.000246002
0.000273113
0.000329066
0.000480057
0.000820478
0.00137761
0.00411016
0.0012819
0.00984346
0.0172559
0.0132405
0.00999026
0.00750814
0.00579406
0.00458982
0.00379094
0.00325126
0.00282382
0.00242693
0.00200642
0.00148383
0.000914077
0.000407055
0.0002161
0.000158894
0.000147549
0.000144475
0.00013695
0.000124614
0.000112497
0.000104974
0.000104108
0.000109949
0.000121519
0.000138067
0.000159896
0.000188367
0.000225724
0.000275039
0.00033993
0.000427243
0.000551962
0.000734055
0.000976782
0.00125104
0.00149865
0.00170332
0.00104491
0.00347935
0.0047207
0.0051232
0.00502812
0.00473285
0.00431956
0.00378317
0.00315788
0.00254756
0.0019482
0.00116384
0.00053661
0.000254571
0.000159701
0.000129175
0.000118204
0.000110936
0.000103121
9.5469e-05
8.99804e-05
8.84515e-05
9.13115e-05
9.81705e-05
0.000108625
0.000122676
0.000140905
0.000164559
0.000195765
0.000237991
0.000297012
0.000378474
0.000488611
0.000629983
0.000786507
0.000911386
0.000944895
0.000871292
0.000544328
0.00289513
0.00862053
0.00828159
0.00717244
0.00607462
0.00478906
0.00347803
0.00225667
0.00128283
0.00071003
0.000375256
0.000215426
0.000151281
0.000124193
0.000111113
0.000102224
9.42322e-05
8.70604e-05
8.17148e-05
7.89368e-05
7.90097e-05
8.20428e-05
8.79956e-05
9.70479e-05
0.000109721
0.000126922
0.000150044
0.000181157
0.000223224
0.000280013
0.000356653
0.000458343
0.000585915
0.000728745
0.000842215
0.000956473
0.000733731
0.000565822
0.00336792
0.00362378
0.00386704
0.00532551
0.0044977
0.00313022
0.00187946
0.00115783
0.000823474
0.000572159
0.000398394
0.000289997
0.000215275
0.000168096
0.000139731
0.00012116
0.000107475
9.65579e-05
8.8121e-05
8.27156e-05
8.07569e-05
8.22257e-05
8.66836e-05
9.35255e-05
0.000102673
0.000114263
0.000128639
0.000146388
0.000168467
0.000196517
0.000232034
0.000276357
0.000331644
0.000400578
0.000486151
0.000603778
0.00066073
0.000620969
0.000499705
0.000395334
)
;

boundaryField
{
    floor
    {
        Cmu             0.09;
        kappa           0.41;
        E               9.8;
        type            epsilonWallFunction;
        value           nonuniform List<scalar> 
36
(
0.000324965
3.92317e-05
6.32034e-05
9.21061e-05
0.000104414
9.95884e-05
8.16121e-05
6.44028e-05
5.12202e-05
4.137e-05
3.39146e-05
2.81873e-05
2.37384e-05
2.02079e-05
1.73137e-05
1.48371e-05
1.26e-05
1.13838e-05
8.83716e-06
8.83716e-06
2.00753e-05
3.31339e-05
5.06237e-05
0.00012097
0.000143505
0.000184282
0.000324965
0.000747389
0.000426782
0.000231796
3.92317e-05
0.000231796
3.82932e-05
0.0003819
0.000139919
0.000583932
)
;
    }
    ceiling
    {
        Cmu             0.09;
        kappa           0.41;
        E               9.8;
        type            epsilonWallFunction;
        value           nonuniform List<scalar> 
43
(
0.00336792
0.00362378
0.00386704
0.00532551
0.0044977
0.00313022
0.00187946
0.00115783
0.000823474
0.000572159
0.000398394
0.000289997
0.000215275
0.000168096
0.000139731
0.00012116
0.000107475
9.65579e-05
8.8121e-05
8.27156e-05
8.07569e-05
8.22257e-05
8.66836e-05
9.35255e-05
0.000102673
0.000114263
0.000128639
0.000146388
0.000168467
0.000196517
0.000232034
0.000276357
0.000331644
0.000400578
0.000486151
0.000603778
0.00066073
0.000620969
0.000499705
0.000395334
0.00984346
0.0172559
0.00289513
)
;
    }
    sWall
    {
        Cmu             0.09;
        kappa           0.41;
        E               9.8;
        type            epsilonWallFunction;
        value           uniform 0.00336792;
    }
    nWall
    {
        Cmu             0.09;
        kappa           0.41;
        E               9.8;
        type            epsilonWallFunction;
        value           nonuniform List<scalar> 6(0.000184282 0.000205618 0.000344795 0.000544328 0.000565822 0.000395334);
    }
    sideWalls
    {
        type            empty;
    }
    glass1
    {
        Cmu             0.09;
        kappa           0.41;
        E               9.8;
        type            epsilonWallFunction;
        value           nonuniform List<scalar> 9(0.000432814 0.00106103 0.00190709 0.00306284 0.00464968 0.00687175 0.00965911 0.010447 0.00984346);
    }
    glass2
    {
        Cmu             0.09;
        kappa           0.41;
        E               9.8;
        type            epsilonWallFunction;
        value           nonuniform List<scalar> 2(0.0012819 0.00104491);
    }
    sun
    {
        Cmu             0.09;
        kappa           0.41;
        E               9.8;
        type            epsilonWallFunction;
        value           nonuniform List<scalar> 
14
(
0.000432814
0.000557921
0.00059661
0.000686401
0.000776688
0.00086916
0.000968733
0.00107732
0.00117189
0.00123404
0.00124117
0.00117478
0.00102226
0.000744148
)
;
    }
    Table_master
    {
        Cmu             0.09;
        kappa           0.41;
        E               9.8;
        type            epsilonWallFunction;
        value           nonuniform List<scalar> 9(0.000198158 0.000132972 9.11302e-05 6.45231e-05 4.72839e-05 3.58112e-05 2.79858e-05 2.25636e-05 1.88675e-05);
    }
    Table_slave
    {
        Cmu             0.09;
        kappa           0.41;
        E               9.8;
        type            epsilonWallFunction;
        value           nonuniform List<scalar> 9(0.000283258 0.000218176 0.000180104 0.000155041 0.000135755 0.00011824 0.000103067 8.85072e-05 7.33074e-05);
    }
    inlet
    {
        type            turbulentMixingLengthDissipationRateInlet;
        mixingLength    0.01;
        phi             phi;
        k               k;
        value           uniform 0.000471672;
    }
    outlet
    {
        type            zeroGradient;
    }
}


// ************************************************************************* //
