/*--------------------------------*- C++ -*----------------------------------*\
  =========                 |
  \\      /  F ield         | OpenFOAM: The Open Source CFD Toolbox
   \\    /   O peration     | Website:  https://openfoam.org
    \\  /    A nd           | Version:  6
     \\/     M anipulation  |
\*---------------------------------------------------------------------------*/
FoamFile
{
    version     2.0;
    format      ascii;
    class       volScalarField;
    location    "1760";
    object      nut;
}
// * * * * * * * * * * * * * * * * * * * * * * * * * * * * * * * * * * * * * //

dimensions      [0 2 -1 0 0 0 0];

internalField   nonuniform List<scalar> 
458
(
0.00106941
0.00116387
0.00119017
0.00124711
0.00129955
0.00134921
0.00139888
0.00144931
0.00149053
0.00151643
0.00151934
0.00149175
0.00142418
0.00128114
0.00097198
0.000480386
0.000563152
0.000638471
0.00066573
0.000655312
0.000613239
0.000566692
0.00052504
0.00048896
0.000457622
0.000430259
0.000406314
0.000385081
0.000365742
0.000347398
0.000328979
0.000318035
0.000292291
0.00144196
0.00324191
0.0029902
0.00342619
0.00386089
0.00430804
0.00470929
0.00501955
0.00533821
0.00563642
0.00587557
0.00602082
0.00603438
0.00582448
0.00473379
0.001283
0.00106442
0.000868455
0.000476525
0.00113085
0.00164826
0.00204879
0.0021755
0.00158547
0.00133846
0.00117037
0.00104633
0.000951285
0.00087587
0.000810852
0.000749736
0.000688732
0.000634239
0.000588566
0.000719971
0.000384237
0.00175322
0.00435748
0.00359597
0.00438459
0.0047161
0.00494893
0.00512788
0.00529301
0.00552269
0.00580173
0.00610666
0.00640558
0.00664185
0.00672476
0.00633667
0.00516446
0.00391406
0.00102572
0.000733956
0.00126654
0.00184307
0.00241655
0.00258044
0.000824231
0.000721603
0.000636208
0.000567044
0.00051123
0.000465999
0.000429231
0.000399498
0.000376372
0.000417093
0.000483051
0.000844736
0.000454084
0.00205315
0.00556627
0.00349822
0.0045428
0.00472449
0.00470678
0.00469027
0.00476954
0.00495627
0.00523221
0.00558289
0.00597424
0.00631734
0.00653339
0.00648487
0.00614956
0.00527793
0.00289756
0.00118168
0.00150488
0.00206898
0.00275979
0.0033587
0.00338834
0.000928479
0.0008511
0.000798399
0.000759499
0.000726604
0.000693906
0.000662855
0.000630045
0.00059169
0.000557323
0.000549171
0.00100686
0.000522994
0.00235968
0.00719277
0.00366953
0.0043126
0.00457226
0.00441807
0.00429262
0.00436472
0.00456185
0.00484889
0.00522693
0.00565603
0.00599223
0.0061599
0.00615614
0.00603892
0.005691
0.00470591
0.00426528
0.00429644
0.00454716
0.00484584
0.00502919
0.00494688
0.00422083
0.00384751
0.00364173
0.00349431
0.00334512
0.00315293
0.00282619
0.00240533
0.00192654
0.0014654
0.00109902
0.00102384
0.000888851
0.000699204
0.000740174
0.000804525
0.00268782
0.00902562
0.00502601
0.0039931
0.00435236
0.00434393
0.004184
0.00424393
0.0044449
0.00473191
0.0051153
0.00552669
0.00583793
0.00593785
0.00584413
0.0057097
0.0056493
0.00556827
0.00573609
0.00602715
0.00623152
0.00626831
0.00613147
0.00584446
0.00544346
0.00511768
0.00486391
0.00464023
0.00442062
0.00418743
0.00388626
0.00347336
0.00295111
0.00236038
0.00181367
0.00131497
0.00108079
0.000942867
0.00118735
0.000834447
0.00301086
0.0104109
0.00750103
0.00490873
0.00427166
0.00433354
0.00438936
0.00442099
0.00453433
0.00478713
0.00516432
0.00557214
0.00585767
0.00589015
0.00571189
0.00558307
0.00579805
0.00627366
0.00675786
0.00703133
0.00703242
0.00679878
0.00640247
0.00591999
0.00543932
0.00505246
0.0047595
0.00452194
0.00431409
0.00412741
0.0039576
0.00373543
0.00337029
0.00288251
0.00237578
0.00188898
0.00157135
0.00143952
0.00137217
0.000991361
0.0030906
0.009663
0.00820291
0.00688333
0.00587517
0.0054291
0.00501067
0.00472538
0.00471894
0.00495968
0.00534989
0.00575318
0.0059941
0.00594038
0.00572216
0.00577851
0.00639185
0.00689488
0.007157
0.00714531
0.00686162
0.00637062
0.00576628
0.00515678
0.00465031
0.00429534
0.00405592
0.00388396
0.00375668
0.00367086
0.00363268
0.00363427
0.00353684
0.0032468
0.00296408
0.0028065
0.00287505
0.00303502
0.00360547
0.00153578
0.0030299
0.00365335
0.00403429
0.00424625
0.00427566
0.0042107
0.00421087
0.00438515
0.00474097
0.0051958
0.00566271
0.00603188
0.00615215
0.00594301
0.00588536
0.0061974
0.00655734
0.00668078
0.00659179
0.00627995
0.00575729
0.00511165
0.00446693
0.00393798
0.00357198
0.00333893
0.00318258
0.00306377
0.0029624
0.00286728
0.00276966
0.0026625
0.00256531
0.00248123
0.00242561
0.00239435
0.00233481
0.00221205
0.00206285
0.00143462
0.00133535
0.00234687
0.00322205
0.00390665
0.0045318
0.00514101
0.00562554
0.00595261
0.00616756
0.00620111
0.00600201
0.00575717
0.00575941
0.00586287
0.00578427
0.00555158
0.00518447
0.00469008
0.00412135
0.00356572
0.00312341
0.00282549
0.00264285
0.00253075
0.00245632
0.00240208
0.0023605
0.00232977
0.00231252
0.00231792
0.00233149
0.00234359
0.00234431
0.00230737
0.00219314
0.00199172
0.00174212
0.00115434
0.00201497
0.00395733
0.00507528
0.00580066
0.00636568
0.00641576
0.00608758
0.00575713
0.00547376
0.0049289
0.00454074
0.00445086
0.00438965
0.00421793
0.00395909
0.00363823
0.00326199
0.00286604
0.00250916
0.00223149
0.00204004
0.00192973
0.00187803
0.00186692
0.00188521
0.00192584
0.00198268
0.00204839
0.00212538
0.00221372
0.00230823
0.00240107
0.00247662
0.00251445
0.0024794
0.00244886
0.00225468
0.00116933
0.00211917
0.00217153
0.00221907
0.00246887
0.00233368
0.00206809
0.00174471
0.00148454
0.00132514
0.00117368
0.00104028
0.000935786
0.000847311
0.000780245
0.000733629
0.00069957
0.000672174
0.000648596
0.000629127
0.000615991
0.00061109
0.000614772
0.000625687
0.000641734
0.000662009
0.000686036
0.000713678
0.000745099
0.000780818
0.000821949
0.000868752
0.000920878
0.000978594
0.00104218
0.00111165
0.00119492
0.00123136
0.00120615
0.00112189
0.00103761
)
;

boundaryField
{
    floor
    {
        type            nutkWallFunction;
        Cmu             0.09;
        kappa           0.41;
        E               9.8;
        value           nonuniform List<scalar> 
36
(
0.000117416
5.72034e-05
6.77268e-05
7.71386e-05
8.05108e-05
7.9224e-05
7.40014e-05
6.81723e-05
6.29065e-05
5.83033e-05
5.42708e-05
5.07213e-05
4.75919e-05
4.47971e-05
4.22344e-05
3.97875e-05
3.73136e-05
3.5835e-05
3.23302e-05
3.23301e-05
4.46849e-05
5.38126e-05
6.26457e-05
8.46288e-05
8.96382e-05
9.74411e-05
0.000117416
0.000153523
0.000128269
0.000105119
5.72034e-05
0.000105119
5.67071e-05
0.000123739
8.88806e-05
0.000141883
)
;
    }
    ceiling
    {
        type            nutkWallFunction;
        Cmu             0.09;
        kappa           0.41;
        E               9.8;
        value           nonuniform List<scalar> 
43
(
0.000246191
0.000251845
0.000256969
0.000283773
0.000269374
0.000240768
0.000205377
0.000176379
0.000158335
0.000140962
0.000125448
0.000113137
0.000102588
9.4506e-05
8.88404e-05
8.4674e-05
8.13051e-05
7.83925e-05
7.59779e-05
7.43436e-05
7.37328e-05
7.41918e-05
7.55504e-05
7.75424e-05
8.00509e-05
8.30116e-05
8.64026e-05
9.02382e-05
9.45754e-05
9.95409e-05
0.000105156
0.000111368
0.000118199
0.000125672
0.000133777
0.000143417
0.000147612
0.000144712
0.000134967
0.000125137
0.000343193
0.000407604
0.000234816
)
;
    }
    sWall
    {
        type            nutkWallFunction;
        Cmu             0.09;
        kappa           0.41;
        E               9.8;
        value           uniform 0.000246258;
    }
    nWall
    {
        type            nutkWallFunction;
        Cmu             0.09;
        kappa           0.41;
        E               9.8;
        value           nonuniform List<scalar> 6(9.74417e-05 0.000101045 0.000119708 0.000138739 0.000140474 0.000125145);
    }
    sideWalls
    {
        type            empty;
    }
    glass1
    {
        type            nutkWallFunction;
        Cmu             0.09;
        kappa           0.41;
        E               9.8;
        value           nonuniform List<scalar> 9(0.000128959 0.000171808 0.000206643 0.000239572 0.000272693 0.000307648 0.000341625 0.000349962 0.000343641);
    }
    glass2
    {
        type            nutkWallFunction;
        Cmu             0.09;
        kappa           0.41;
        E               9.8;
        value           nonuniform List<scalar> 2(0.000182232 0.000170841);
    }
    sun
    {
        type            nutkWallFunction;
        Cmu             0.09;
        kappa           0.41;
        E               9.8;
        value           nonuniform List<scalar> 
14
(
0.000128855
0.000139825
0.000142862
0.000149412
0.000155415
0.000161073
0.000166711
0.000172411
0.000177055
0.000179965
0.000180292
0.000177192
0.000169573
0.00015331
)
;
    }
    Table_master
    {
        type            nutkWallFunction;
        Cmu             0.09;
        kappa           0.41;
        E               9.8;
        value           nonuniform List<scalar> 9(9.98144e-05 8.73731e-05 7.68604e-05 6.82211e-05 6.11555e-05 5.53598e-05 5.05968e-05 4.67076e-05 4.36571e-05);
    }
    Table_slave
    {
        type            nutkWallFunction;
        Cmu             0.09;
        kappa           0.41;
        E               9.8;
        value           nonuniform List<scalar> 9(0.000112268 0.000103041 9.67011e-05 9.199e-05 8.79838e-05 8.39802e-05 8.01574e-05 7.60945e-05 7.13125e-05);
    }
    inlet
    {
        type            calculated;
        value           uniform 0.000167705;
    }
    outlet
    {
        type            calculated;
        value           nonuniform List<scalar> 2(0.00211917 0.00217153);
    }
}


// ************************************************************************* //
