/*--------------------------------*- C++ -*----------------------------------*\
  =========                 |
  \\      /  F ield         | OpenFOAM: The Open Source CFD Toolbox
   \\    /   O peration     | Website:  https://openfoam.org
    \\  /    A nd           | Version:  6
     \\/     M anipulation  |
\*---------------------------------------------------------------------------*/
FoamFile
{
    version     2.0;
    format      ascii;
    class       volScalarField;
    location    "26099.9999987559531";
    object      k;
}
// * * * * * * * * * * * * * * * * * * * * * * * * * * * * * * * * * * * * * //

dimensions      [0 2 -2 0 0 0 0];

internalField   nonuniform List<scalar> 
778
(
0.0015859
0.00180106
0.0017879
0.00194642
0.00209765
0.00223994
0.00237663
0.00251227
0.00265265
0.00280603
0.00295636
0.00310277
0.00325041
0.00341296
0.00358674
0.000793037
0.00162526
0.0016519
0.00157311
0.00144543
0.00128315
0.00113094
0.000999183
0.000887396
0.000792834
0.000713088
0.000645072
0.000586083
0.000533573
0.000484833
0.000436361
0.000398035
0.000326133
0.00340695
0.00643326
0.00268745
0.00274601
0.00288768
0.00305425
0.0032346
0.00343039
0.00364368
0.00387411
0.00412634
0.00438028
0.00459621
0.00470153
0.00459575
0.0042994
0.00390821
0.00358074
0.00253544
0.00281176
0.00295426
0.00289698
0.00266443
0.00226555
0.00190624
0.00160991
0.00137008
0.00117615
0.00101726
0.000885415
0.000774131
0.000681307
0.000615287
0.000574776
0.000864192
0.000524064
0.00549075
0.0127807
0.00347786
0.00321207
0.00329738
0.00345522
0.00363661
0.00384081
0.00407121
0.00432799
0.00463622
0.00501176
0.00545209
0.00596166
0.00653257
0.006861
0.00627864
0.00538649
0.00403687
0.00416824
0.00417149
0.0039743
0.00357688
0.00266502
0.00201532
0.00157605
0.0012699
0.00104981
0.000887383
0.000764972
0.000672094
0.000603852
0.000551618
0.000548793
0.00116484
0.000678043
0.0079735
0.0217574
0.00449094
0.00339069
0.00334146
0.00343804
0.00354944
0.00366896
0.00380927
0.00399172
0.00425971
0.0046493
0.00517231
0.00582648
0.00655593
0.00713543
0.00722876
0.00724275
0.00534345
0.00555041
0.00537554
0.00512466
0.00478619
0.00434763
0.00345543
0.00285875
0.00243584
0.00211001
0.00185074
0.00163233
0.00143892
0.00125889
0.00107795
0.00080083
0.000659892
0.00141998
0.000821753
0.0108762
0.0336325
0.00621223
0.00342491
0.00315821
0.00316692
0.0031896
0.00320997
0.00325231
0.00336139
0.00359518
0.0039899
0.00455451
0.00527814
0.00608851
0.00681893
0.00728461
0.00764525
0.00751877
0.00665469
0.00607322
0.00557865
0.0050987
0.00462915
0.00412293
0.00366553
0.00327504
0.0029375
0.00263139
0.00234802
0.00207948
0.00181866
0.00155496
0.00122196
0.000930601
0.00118956
0.00121574
0.00116755
0.00202223
0.00185419
0.0141745
0.0475952
0.00928253
0.00348983
0.00290843
0.00282267
0.00276442
0.00269966
0.00266439
0.00273473
0.00298104
0.00341469
0.00402431
0.00479886
0.00565504
0.00646224
0.00707003
0.00740844
0.0073248
0.00679051
0.00621521
0.00563707
0.0050742
0.00455597
0.00409136
0.00369574
0.0033632
0.00307381
0.00280699
0.00255182
0.00229928
0.00204237
0.00177377
0.00147135
0.00117895
0.00111277
0.00111104
0.00170949
0.00508449
0.00265504
0.0179913
0.0606018
0.0143569
0.00381913
0.00271504
0.00252929
0.00241181
0.00229417
0.00222126
0.00231166
0.00263033
0.00313936
0.00380225
0.00463147
0.00552909
0.00636738
0.00700163
0.00732898
0.0072554
0.00681878
0.00621572
0.00555488
0.0049119
0.00434282
0.00387257
0.00350049
0.00320677
0.00296187
0.00274161
0.00252952
0.00231394
0.00208746
0.0018452
0.00158296
0.00132838
0.00116116
0.00109237
0.00155446
0.00624621
0.00368469
0.02164
0.0704779
0.0214315
0.00510103
0.00274248
0.00237168
0.00221016
0.00208212
0.00202663
0.00221976
0.00264991
0.00323085
0.00393691
0.00477402
0.00569836
0.00657294
0.00722349
0.00751436
0.0073851
0.00689698
0.00619859
0.00542696
0.00469137
0.00406432
0.00357429
0.00321229
0.00294745
0.00274086
0.00256437
0.00239629
0.00222267
0.00203583
0.0018323
0.00161339
0.00139912
0.00123277
0.00115483
0.00209223
0.0140967
0.00629201
0.0228327
0.0694966
0.032528
0.0110509
0.00406504
0.00258689
0.00223551
0.00210331
0.00219059
0.00251328
0.00300115
0.00360215
0.00433167
0.00521066
0.00618228
0.00708475
0.00771528
0.00792247
0.00766493
0.00702605
0.00616536
0.00524807
0.00440681
0.00372171
0.00321599
0.00286824
0.00263495
0.00246853
0.00233604
0.00221146
0.00207971
0.00193353
0.00177059
0.00159403
0.00141981
0.00129174
0.00133179
0.00387095
0.027536
0.00809778
0.0219183
0.0516409
0.0336412
0.0174279
0.0085831
0.00475723
0.00326097
0.00273076
0.00285456
0.0032127
0.0036738
0.00424647
0.0049932
0.00593366
0.0069678
0.0078814
0.00843751
0.00848212
0.00800343
0.00712389
0.00604062
0.00495252
0.00400968
0.00328911
0.00279657
0.00248748
0.00230113
0.00218325
0.00209549
0.00201095
0.00191603
0.00180505
0.00167722
0.00153703
0.0013997
0.00132087
0.0016811
0.00770791
0.0258535
0.00847756
0.0192341
0.0394415
0.0302378
0.0195632
0.0121794
0.00793712
0.00571699
0.00467037
0.00436412
0.00440176
0.00465361
0.00514388
0.00592942
0.00697084
0.00807619
0.00895349
0.00933687
0.00909461
0.00827342
0.00706029
0.00570936
0.00445649
0.00345853
0.0027663
0.00234661
0.00211352
0.00198903
0.00192187
0.00187227
0.00181868
0.00175095
0.00166527
0.00156255
0.00145036
0.00135146
0.00139406
0.0025719
0.00914781
0.0227246
0.00838842
0.0159502
0.0315883
0.0266507
0.0195377
0.0139748
0.0102833
0.00802704
0.00675162
0.00605015
0.00573218
0.00578245
0.00626931
0.00719697
0.00839836
0.00954562
0.0102673
0.0103043
0.00959436
0.0082882
0.00666441
0.00505083
0.00371517
0.00278932
0.00223222
0.00195315
0.00181315
0.00174412
0.00171047
0.00168338
0.00164813
0.00159716
0.00152731
0.00144053
0.0013502
0.00130869
0.00171371
0.00407183
0.00987145
0.0188305
0.00790754
0.0132657
0.0256674
0.0233474
0.0186879
0.0145824
0.0115872
0.00954297
0.00820966
0.0073006
0.00684062
0.00695521
0.00770755
0.00895375
0.010331
0.0113738
0.0116868
0.0111043
0.00970143
0.0077919
0.00576004
0.00402286
0.00283247
0.00219374
0.00186263
0.00169821
0.00161571
0.00157433
0.00155281
0.00153256
0.0015037
0.00146045
0.00140047
0.00132765
0.00126488
0.00132001
0.00207448
0.00489342
0.0100651
0.0159945
0.00737496
0.0133454
0.0224099
0.0220511
0.0177564
0.0143901
0.0118925
0.010083
0.00876872
0.00791899
0.00777398
0.00846408
0.00984199
0.0114806
0.0128194
0.0133623
0.0128294
0.0112879
0.00899914
0.00652533
0.00431182
0.00296386
0.00222811
0.00186043
0.00167323
0.00157165
0.00151168
0.00147409
0.00144871
0.00142378
0.00139262
0.00135145
0.00129996
0.00124523
0.00121768
0.00133701
0.00208911
0.00462323
0.00936612
0.0168041
0.00746118
0.010873
0.0117609
0.0129222
0.0125525
0.0113751
0.0100759
0.00894841
0.00820605
0.00830633
0.00941247
0.0112679
0.0133084
0.0148801
0.0154627
0.0148018
0.0128853
0.0101831
0.00704192
0.00465518
0.00314931
0.00236324
0.00197867
0.00178135
0.00166246
0.00157736
0.00150992
0.00145555
0.00141316
0.00137555
0.0013386
0.001303
0.00127561
0.00127165
0.00132351
0.00152175
0.00216821
0.00414974
0.00906888
0.0150222
0.00851599
0.00354696
0.00482948
0.0060044
0.00661112
0.00729028
0.00880719
0.0113175
0.014123
0.0165023
0.0179049
0.01799
0.0166914
0.014215
0.0106409
0.00736239
0.00486663
0.00336341
0.0025999
0.00224443
0.00206286
0.00194525
0.00184839
0.00175735
0.00166949
0.00158955
0.00152717
0.00148485
0.00146573
0.00148272
0.00155362
0.00169369
0.00191912
0.00228553
0.0029856
0.00461471
0.010104
0.013909
0.00876874
0.00444511
0.00629882
0.00812056
0.0110401
0.0147204
0.0181679
0.0203825
0.021411
0.0213012
0.0200602
0.0175295
0.014079
0.0104557
0.007204
0.00491404
0.00359961
0.00297063
0.00268479
0.00253579
0.00243609
0.00235486
0.00228
0.00220576
0.00213149
0.00206381
0.00201788
0.00200874
0.0020535
0.00217606
0.00239832
0.00273395
0.00319643
0.00383401
0.00480154
0.006542
0.0112856
0.0151894
0.00900302
0.0150772
0.0244213
0.0180813
0.0144025
0.0170392
0.0207493
0.0228842
0.0235759
0.0230954
0.0217144
0.0196778
0.017029
0.0138738
0.0105968
0.00771143
0.00560538
0.00438524
0.00379287
0.00350366
0.0033351
0.00322213
0.00314647
0.00310074
0.00307585
0.00305979
0.0030426
0.00302472
0.00302373
0.00306156
0.00316655
0.00336431
0.00367948
0.00413292
0.004745
0.00555215
0.00664448
0.00824611
0.0108251
0.0139935
0.00817122
0.0138109
0.0170477
0.0178933
0.0207974
0.0217385
0.0221605
0.021164
0.0193481
0.0172219
0.0150349
0.0128905
0.0108454
0.00896703
0.00737465
0.00618474
0.00538921
0.00484979
0.00448407
0.00422505
0.00404712
0.00394762
0.00392849
0.00398626
0.00410797
0.0042708
0.00444499
0.00460036
0.00471642
0.00483085
0.00498521
0.00521163
0.00553581
0.00598267
0.0065859
0.00740603
0.00854824
0.0101668
0.0127231
0.015806
0.00782316
0.0121384
0.00890739
0.00881873
0.00933692
0.00977611
0.00919592
0.00812039
0.00695081
0.00587512
0.00494674
0.00416347
0.00351591
0.00300496
0.00263661
0.00240506
0.00228825
0.0022539
0.00225864
0.00229463
0.00236038
0.00245386
0.00256984
0.00270052
0.0028377
0.00297504
0.00310954
0.00324252
0.00337949
0.00352337
0.00368478
0.00387395
0.00409843
0.00436291
0.00466904
0.0050145
0.00539686
0.00586176
0.00658337
0.00767169
0.00733501
)
;

boundaryField
{
    floor
    {
        type            kqRWallFunction;
        value           nonuniform List<scalar> 
36
(
0.00358674
0.000793037
0.00162526
0.0016519
0.00157311
0.00144543
0.00128315
0.00113094
0.000999183
0.000887396
0.000792834
0.000713088
0.000645072
0.000586083
0.000533573
0.000484833
0.000436361
0.000398035
0.000326133
0.000326133
0.000524064
0.000678043
0.000821753
0.00116755
0.00202223
0.00185419
0.00358674
0.0042994
0.00390821
0.00358074
0.000793037
0.00358074
0.00253544
0.00538649
0.00403687
0.00534345
)
;
    }
    ceiling
    {
        type            kqRWallFunction;
        value           nonuniform List<scalar> 
43
(
0.0121384
0.00890739
0.00881873
0.00933692
0.00977611
0.00919592
0.00812039
0.00695081
0.00587512
0.00494674
0.00416347
0.00351591
0.00300496
0.00263661
0.00240506
0.00228825
0.0022539
0.00225864
0.00229463
0.00236038
0.00245386
0.00256984
0.00270052
0.0028377
0.00297504
0.00310954
0.00324252
0.00337949
0.00352337
0.00368478
0.00387395
0.00409843
0.00436291
0.00466904
0.0050145
0.00539686
0.00586176
0.00658337
0.00767169
0.00733501
0.010873
0.0117609
0.00444511
)
;
    }
    sWall
    {
        type            kqRWallFunction;
        value           nonuniform List<scalar> 9(0.0219183 0.0192341 0.0159502 0.0132657 0.0133454 0.010873 0.0150772 0.0138109 0.0121384);
    }
    nWall
    {
        type            kqRWallFunction;
        value           nonuniform List<scalar> 
14
(
0.00185419
0.00265504
0.00368469
0.00847756
0.00838842
0.00790754
0.00737496
0.00746118
0.00851599
0.00876874
0.00900302
0.00817122
0.00782316
0.00733501
)
;
    }
    sideWalls
    {
        type            empty;
    }
    glass1
    {
        type            kqRWallFunction;
        value           nonuniform List<scalar> 9(0.0015859 0.00340695 0.00549075 0.0079735 0.0108762 0.0141745 0.0179913 0.02164 0.0228327);
    }
    glass2
    {
        type            kqRWallFunction;
        value           nonuniform List<scalar> 2(0.00629201 0.00809778);
    }
    sun
    {
        type            kqRWallFunction;
        value           nonuniform List<scalar> 
14
(
0.0015859
0.00180106
0.0017879
0.00194642
0.00209765
0.00223994
0.00237663
0.00251227
0.00265265
0.00280603
0.00295636
0.00310277
0.00325041
0.00341296
)
;
    }
    Table_master
    {
        type            kqRWallFunction;
        value           nonuniform List<scalar> 9(0.00266502 0.00201532 0.00157605 0.0012699 0.00104981 0.000887383 0.000764972 0.000672094 0.000603852);
    }
    Table_slave
    {
        type            kqRWallFunction;
        value           nonuniform List<scalar> 9(0.00345543 0.00285875 0.00243584 0.00211001 0.00185074 0.00163233 0.00143892 0.00125889 0.00107795);
    }
    inlet
    {
        type            turbulentIntensityKineticEnergyInlet;
        intensity       0.05;
        value           uniform 0.0009375;
    }
    outlet
    {
        type            zeroGradient;
    }
}


// ************************************************************************* //
