/*--------------------------------*- C++ -*----------------------------------*\
  =========                 |
  \\      /  F ield         | OpenFOAM: The Open Source CFD Toolbox
   \\    /   O peration     | Website:  https://openfoam.org
    \\  /    A nd           | Version:  6
     \\/     M anipulation  |
\*---------------------------------------------------------------------------*/
FoamFile
{
    version     2.0;
    format      ascii;
    class       volScalarField;
    location    "26099.9999987559531";
    object      nut;
}
// * * * * * * * * * * * * * * * * * * * * * * * * * * * * * * * * * * * * * //

dimensions      [0 2 -1 0 0 0 0];

internalField   nonuniform List<scalar> 
778
(
0.000894299
0.000953033
0.000949545
0.000990749
0.00102852
0.00106283
0.00109478
0.00112558
0.0011566
0.00118957
0.00122102
0.00125089
0.00128031
0.00131193
0.00134491
0.0006324
0.000905325
0.000912712
0.000890679
0.00085377
0.000804417
0.000755203
0.000709849
0.000668963
0.000632316
0.000599673
0.000570358
0.000543654
0.000518729
0.000494469
0.000469101
0.000448027
0.000405547
0.00131077
0.00258101
0.00226497
0.00261424
0.00286762
0.00313627
0.00340428
0.00365134
0.0038503
0.00396623
0.00403438
0.0040064
0.00380654
0.00331143
0.00241838
0.00147247
0.00140389
0.00134379
0.00113076
0.00192638
0.00267026
0.00310981
0.00313052
0.00247062
0.00211294
0.00186515
0.00167709
0.00152743
0.00139971
0.00128684
0.00118183
0.00107912
0.000986953
0.00090748
0.00102199
0.000514085
0.00166403
0.00360419
0.00267221
0.00382222
0.0042708
0.00465043
0.00499526
0.00529885
0.00555617
0.00575805
0.00595353
0.00615911
0.0063478
0.00645967
0.00638419
0.00584441
0.00427379
0.00164815
0.00142681
0.00305247
0.0042595
0.00483052
0.00439283
0.00115929
0.00100812
0.00089151
0.000800251
0.000727608
0.000668957
0.000621106
0.000582181
0.000551834
0.000606713
0.000713642
0.00112964
0.000584752
0.00200525
0.00485807
0.00255723
0.0042982
0.00496248
0.00531797
0.00557943
0.00577297
0.00591756
0.00603491
0.00620148
0.00648263
0.00689253
0.0074075
0.00792461
0.00817823
0.00767729
0.00572404
0.00164155
0.00380459
0.00565727
0.00659744
0.00682902
0.0058295
0.00132006
0.00120069
0.00110832
0.00103154
0.000966083
0.000907289
0.000851845
0.000796774
0.000737296
0.000688899
0.000714027
0.00122261
0.000643742
0.00234198
0.00643261
0.00258012
0.0040865
0.00510797
0.00541126
0.00552157
0.00552615
0.00547168
0.00542354
0.0054935
0.00576675
0.00626768
0.00697648
0.00779815
0.00855468
0.00903459
0.00902871
0.00810343
0.008246
0.0084344
0.00846005
0.00828753
0.00775688
0.00617283
0.00533224
0.00475657
0.00428849
0.00382977
0.00338555
0.00295093
0.00251678
0.00207059
0.0015906
0.00121395
0.00121202
0.000958946
0.000767329
0.00100998
0.000967023
0.00267361
0.00819571
0.0030376
0.00344643
0.00489466
0.00523124
0.00520474
0.00501787
0.00475054
0.00453004
0.00452539
0.00481162
0.00538234
0.00620409
0.0071657
0.00812589
0.00894399
0.00946673
0.00956197
0.00946579
0.0092972
0.0090583
0.0087517
0.00836203
0.00779368
0.00724635
0.00674952
0.00626887
0.00575031
0.00519674
0.00460545
0.00397127
0.00329017
0.00256759
0.00191383
0.00143707
0.00111523
0.00125151
0.0021726
0.00115713
0.00301214
0.00982719
0.00404811
0.00282365
0.00439843
0.00494866
0.00488799
0.0045853
0.00414599
0.00375934
0.00374824
0.00410936
0.00476234
0.00568033
0.00672537
0.00775973
0.00865034
0.00928862
0.00958238
0.0095595
0.00934898
0.00903034
0.00866575
0.0083023
0.00795094
0.00762865
0.00732602
0.00700275
0.00661267
0.00614327
0.00558743
0.00494236
0.00421068
0.00341156
0.00263131
0.00190341
0.00140142
0.00125327
0.00220186
0.00136322
0.00330349
0.0110643
0.00552038
0.00268861
0.00348474
0.0043874
0.00451337
0.00426448
0.00374553
0.00321905
0.00333851
0.0038159
0.00454562
0.00549137
0.006576
0.00765866
0.00858279
0.00922547
0.00951773
0.00947982
0.00920833
0.00880786
0.00837727
0.00799556
0.00770136
0.00749121
0.00732743
0.00714931
0.00690175
0.00655526
0.00609598
0.00552106
0.00483634
0.00406316
0.00326111
0.00245007
0.00172019
0.00113719
0.00318336
0.00178163
0.00339331
0.0104839
0.00683664
0.00347672
0.00236281
0.00289618
0.00338865
0.00343
0.00302889
0.0029445
0.00325061
0.00381161
0.00459978
0.00560176
0.00673781
0.00785361
0.00877471
0.00936821
0.00957725
0.0094345
0.00904106
0.00852486
0.00801292
0.00760466
0.00734552
0.00721823
0.00716056
0.00709214
0.00695
0.00669996
0.0063283
0.00583354
0.00522259
0.00451349
0.00373767
0.00286861
0.00171208
0.00137687
0.00485125
0.00202079
0.00332467
0.00845858
0.00706632
0.00477549
0.00315264
0.00244121
0.00231264
0.00242159
0.00262534
0.00294985
0.00340934
0.00403997
0.00489603
0.00597525
0.0071725
0.008304
0.00917741
0.00965943
0.00971064
0.00938794
0.00881904
0.00816438
0.00758052
0.00718079
0.00699757
0.00697592
0.00701545
0.00701465
0.00692271
0.0067202
0.00640044
0.00596309
0.00541278
0.00475535
0.00395974
0.00280414
0.00136356
0.00227727
0.00500698
0.0020679
0.00311445
0.00723165
0.00683533
0.00546811
0.00420658
0.00338605
0.00298076
0.00288964
0.00305832
0.00336796
0.00381648
0.00448087
0.00542487
0.00660714
0.00786503
0.00897295
0.00972645
0.0100079
0.00981177
0.00923613
0.00845391
0.0076713
0.00707765
0.00677983
0.00674495
0.00684205
0.00694046
0.00694217
0.00684529
0.00664883
0.00634844
0.00594017
0.00542071
0.00476501
0.00379329
0.00220616
0.00144242
0.0028819
0.00493619
0.0020574
0.00283614
0.00652121
0.00659543
0.00579063
0.00492444
0.00427309
0.00389005
0.00375331
0.00378858
0.00397532
0.00438597
0.00512665
0.0062169
0.00752596
0.00881102
0.00980898
0.010325
0.0102839
0.00973879
0.00885019
0.00785971
0.0070338
0.00656724
0.0064718
0.00655124
0.00668019
0.00676639
0.006743
0.00663088
0.0064317
0.00613806
0.00573962
0.00521907
0.00448553
0.00308766
0.00154413
0.00187144
0.00321442
0.0045441
0.00199787
0.00258648
0.0058332
0.00629833
0.00591738
0.00536114
0.00489435
0.00458429
0.0044332
0.00438823
0.0045465
0.0050664
0.00603327
0.00735222
0.0087698
0.00997299
0.0106983
0.0108051
0.0102968
0.00931686
0.00811407
0.00702845
0.00633245
0.0060227
0.00597726
0.00605967
0.00617874
0.00626062
0.00624243
0.00613307
0.00593224
0.00563096
0.00521566
0.00465267
0.00377133
0.00228368
0.00150002
0.00219136
0.00336662
0.00416321
0.00192905
0.00259424
0.00578919
0.00643492
0.00598937
0.00553914
0.00517071
0.00490521
0.0047329
0.00472438
0.0051082
0.00602529
0.00739549
0.00894306
0.0103139
0.0111937
0.011394
0.010889
0.00979331
0.0083866
0.00702789
0.00604346
0.00545685
0.00516787
0.00508439
0.00512946
0.00523185
0.00531938
0.00531378
0.00520008
0.00497448
0.0046313
0.00417323
0.00360528
0.00288106
0.00198157
0.00159199
0.00229506
0.00349087
0.00466421
0.00193855
0.00234163
0.00243537
0.00359194
0.00421897
0.0044122
0.00441444
0.00437085
0.00445023
0.00498664
0.00613024
0.0077373
0.00947147
0.0109578
0.0118837
0.012063
0.011455
0.0102052
0.0085491
0.00696874
0.00573117
0.00488974
0.00438941
0.00413977
0.00404307
0.00403386
0.00406794
0.00409517
0.0040453
0.00387696
0.00359075
0.0032081
0.00278715
0.00240259
0.00209719
0.00186697
0.0018268
0.00242216
0.00380672
0.00475234
0.00207226
0.000807879
0.00146609
0.00226278
0.00290379
0.00364506
0.00490058
0.006745
0.0087888
0.0106475
0.0120378
0.0127684
0.0127146
0.0118771
0.0103395
0.00850336
0.00675687
0.00536353
0.00441378
0.00387228
0.00358684
0.00342633
0.00332439
0.00325245
0.0031923
0.00311868
0.00299477
0.00279471
0.00253942
0.00228411
0.00209556
0.00201016
0.00202393
0.00212722
0.00236422
0.00294607
0.00449729
0.00497578
0.00210299
0.00149722
0.00207826
0.00303505
0.00474426
0.00706416
0.00938758
0.0111901
0.0124907
0.0132782
0.013502
0.013067
0.0118775
0.0101157
0.00812205
0.00628836
0.00489723
0.00405381
0.00361638
0.00338318
0.00323865
0.00313843
0.00306598
0.00301067
0.00295921
0.00289263
0.00279136
0.0026578
0.00252111
0.00242309
0.00239916
0.00245989
0.00259601
0.00280617
0.00313169
0.00370141
0.00503524
0.00540748
0.0021318
0.00275742
0.00666446
0.00612319
0.00548056
0.00697915
0.00932156
0.0113027
0.0126413
0.0133467
0.0135232
0.0132572
0.0125149
0.011261
0.00955592
0.00764199
0.00588836
0.00464684
0.00395962
0.00360131
0.003388
0.00324419
0.00314936
0.00309895
0.00308758
0.00310336
0.00312725
0.00313649
0.00311502
0.00308033
0.00305654
0.00306179
0.00310843
0.00319849
0.00332393
0.00347623
0.00366151
0.00391482
0.0042937
0.00446535
0.00203101
0.00263909
0.00510008
0.00658771
0.00841133
0.00934711
0.010321
0.0108939
0.0110381
0.0108303
0.0103273
0.00955497
0.00853056
0.00731332
0.00605658
0.00498591
0.00423198
0.00373339
0.00340922
0.00318146
0.00301758
0.00291238
0.00286902
0.00288832
0.00296345
0.00307755
0.00320399
0.00331064
0.0033715
0.00341246
0.00345849
0.00352398
0.00361544
0.00373354
0.00387623
0.0040446
0.0042461
0.0044825
0.00481879
0.00498873
0.00198645
0.00247415
0.00211944
0.00210887
0.00216995
0.00222041
0.00215353
0.00202371
0.00187237
0.00172148
0.00157971
0.00144933
0.00133188
0.00123127
0.00115323
0.00110132
0.0010742
0.00106608
0.00106722
0.00107576
0.00109114
0.00111258
0.00113855
0.00116706
0.0011962
0.00122465
0.00125187
0.00127823
0.00130484
0.00133225
0.0013624
0.00139691
0.00143678
0.00148234
0.00153334
0.00158895
0.00164848
0.00171882
0.0018227
0.00196798
0.00192261
)
;

boundaryField
{
    floor
    {
        type            nutkWallFunction;
        Cmu             0.09;
        kappa           0.41;
        E               9.8;
        value           nonuniform List<scalar> 
36
(
0.000160581
7.63858e-05
0.000109517
0.000110395
0.000107772
0.000103361
9.74279e-05
9.14683e-05
8.59352e-05
8.09111e-05
7.63764e-05
7.23103e-05
6.86357e-05
6.52683e-05
6.21067e-05
5.90114e-05
5.57544e-05
5.30319e-05
4.74936e-05
4.74935e-05
6.15153e-05
7.04425e-05
7.77936e-05
9.29405e-05
0.000121876
0.000116827
0.000160581
0.000175018
0.000167274
0.000160452
7.63858e-05
0.000160452
0.000135988
0.000194677
0.000169865
0.000193942
)
;
    }
    ceiling
    {
        type            nutkWallFunction;
        Cmu             0.09;
        kappa           0.41;
        E               9.8;
        value           nonuniform List<scalar> 
43
(
0.000284367
0.000246299
0.000245157
0.000251765
0.000257213
0.000250015
0.000235953
0.000219424
0.000202794
0.000187021
0.000172377
0.000159066
0.000147564
0.00013858
0.000132569
0.000129414
0.000128469
0.0001286
0.000129589
0.000131373
0.000133862
0.000136878
0.000140187
0.000143566
0.000146859
0.000150003
0.000153038
0.000156092
0.000159228
0.000162661
0.000166581
0.000171097
0.000176245
0.000181992
0.000188232
0.000194867
0.000202591
0.000213936
0.000229812
0.000225044
0.000270418
0.000280434
0.000177594
)
;
    }
    sWall
    {
        type            nutkWallFunction;
        Cmu             0.09;
        kappa           0.41;
        E               9.8;
        value           nonuniform List<scalar> 9(0.000373891 0.000352083 0.000322978 0.000296618 0.000297438 0.000270507 0.000314385 0.000301926 0.000284468);
    }
    nWall
    {
        type            nutkWallFunction;
        Cmu             0.09;
        kappa           0.41;
        E               9.8;
        value           nonuniform List<scalar> 
14
(
0.000116834
0.000139058
0.000162676
0.000240807
0.000239624
0.000233115
0.000225646
0.000226875
0.000241315
0.000244626
0.000247649
0.000236712
0.000231955
0.000225079
)
;
    }
    sideWalls
    {
        type            empty;
    }
    glass1
    {
        type            nutkWallFunction;
        Cmu             0.09;
        kappa           0.41;
        E               9.8;
        value           nonuniform List<scalar> 9(0.000108247 0.000156882 0.000196736 0.000234349 0.000270792 0.000306141 0.000341754 0.000372074 0.000381375);
    }
    glass2
    {
        type            nutkWallFunction;
        Cmu             0.09;
        kappa           0.41;
        E               9.8;
        value           nonuniform List<scalar> 2(0.00020957 0.000235836);
    }
    sun
    {
        type            nutkWallFunction;
        Cmu             0.09;
        kappa           0.41;
        E               9.8;
        value           nonuniform List<scalar> 
14
(
0.000108206
0.000115177
0.000114764
0.000119628
0.000124066
0.000128082
0.000131808
0.000135389
0.000138983
0.000142792
0.000146413
0.000149843
0.000153212
0.000156824
)
;
    }
    Table_master
    {
        type            nutkWallFunction;
        Cmu             0.09;
        kappa           0.41;
        E               9.8;
        value           nonuniform List<scalar> 9(0.000139285 0.000121667 0.000107869 9.69248e-05 8.81084e-05 8.0914e-05 7.49884e-05 7.01276e-05 6.63105e-05);
    }
    Table_slave
    {
        type            nutkWallFunction;
        Cmu             0.09;
        kappa           0.41;
        E               9.8;
        value           nonuniform List<scalar> 9(0.00015774 0.000144063 0.000133376 0.000124414 0.000116714 0.000109747 0.000103129 9.65048e-05 8.92901e-05);
    }
    inlet
    {
        type            calculated;
        value           uniform 0.000167705;
    }
    outlet
    {
        type            calculated;
        value           nonuniform List<scalar> 2(0.00275742 0.00666446);
    }
}


// ************************************************************************* //
