/*--------------------------------*- C++ -*----------------------------------*\
  =========                 |
  \\      /  F ield         | OpenFOAM: The Open Source CFD Toolbox
   \\    /   O peration     | Website:  https://openfoam.org
    \\  /    A nd           | Version:  6
     \\/     M anipulation  |
\*---------------------------------------------------------------------------*/
FoamFile
{
    version     2.0;
    format      ascii;
    class       surfaceScalarField;
    location    "330";
    object      phi;
}
// * * * * * * * * * * * * * * * * * * * * * * * * * * * * * * * * * * * * * //

dimensions      [1 0 -1 0 0 0 0];

internalField   nonuniform List<scalar> 
850
(
-0.00307867
0.00313841
-0.0042181
0.00113942
-0.00510401
0.000885911
-0.00579264
0.000688622
-0.00624905
0.000456407
-0.00643845
0.000189396
-0.00632036
-0.000118096
-0.00585345
-0.000466914
-0.00503594
-0.000817521
-0.00393209
-0.00110385
-0.00266514
-0.00126696
-0.00139736
-0.00126779
-0.000323361
-0.001074
0.000240869
-0.000564236
0.000243111
-0.000931187
0.00093463
-0.000714791
-0.000216407
-8.65821e-05
-0.000628219
0.000533299
-0.000619892
0.00101196
-0.000478669
0.00128324
-0.000271289
0.00140045
-0.000117223
0.00145999
-5.95532e-05
0.00149622
-3.62408e-05
0.00151638
-2.01778e-05
0.00152446
-8.08609e-06
0.00152139
3.05711e-06
0.00150107
2.03112e-05
0.0014435
5.75538e-05
0.00131458
0.00012891
0.00109999
0.00021457
0.000811209
0.00028877
0.00081572
-0.00222089
0.005521
-0.00333011
0.00224864
-0.00424777
0.00180356
-0.00494036
0.0013812
-0.00540479
0.000920835
-0.00561619
0.000400789
-0.00553284
-0.000201452
-0.00511939
-0.000880363
-0.00438726
-0.00154966
-0.00341848
-0.00207263
-0.00234163
-0.00234381
-0.00130017
-0.00230925
-0.00041975
-0.00195443
0.000275709
-0.0012597
0.00104672
-0.000527903
0.00123435
-0.000184033
0.000969236
0.000269252
0.000981339
1.39085e-05
0.000931146
0.00040896
-0.000611468
0.0007924
-0.00101167
0.00111596
-0.000943463
0.00137384
-0.000736557
0.00143357
-0.00033103
0.00144281
-0.000126474
0.00145434
-7.10946e-05
0.001464
-4.59162e-05
0.00146974
-2.59219e-05
0.00147258
-1.09449e-05
0.00147262
3.00182e-06
0.00146722
2.56979e-05
0.0014301
9.46607e-05
0.00127428
0.000284723
0.00100074
0.000488091
0.000654714
0.000634786
0.00148219
-0.00156453
0.00733362
-0.00251651
0.00320061
-0.00334346
0.00263051
-0.0039557
0.00199343
-0.00438437
0.0013495
-0.00460141
0.000617823
-0.00454512
-0.000257742
-0.00416282
-0.00126267
-0.00348917
-0.00222331
-0.00263315
-0.00292866
-0.00172293
-0.00325403
-0.000873119
-0.00315907
-0.000154595
-0.00267296
0.000452651
-0.00186695
0.000941907
-0.00101716
0.00105544
-0.000297573
0.000821514
0.000503173
0.00181345
0.00143661
-0.000492214
0.00165307
-0.000827935
0.00161714
-0.000975745
0.00165923
-0.000985564
0.00186286
-0.000940202
0.00153198
0.00140564
0.00133469
0.00128892
0.00126314
0.00125233
0.00125548
0.00128132
0.00137612
0.00114872
0.000512105
0.000862802
0.000773997
0.000498939
0.000998634
0.00199892
-0.00108929
0.0087449
-0.00183527
0.00394658
-0.00240604
0.00320127
-0.00283562
0.002423
-0.00315858
0.00167246
-0.00334019
0.000799419
-0.00327815
-0.000319783
-0.0028945
-0.00164632
-0.0022783
-0.00283952
-0.00156239
-0.00364458
-0.000853619
-0.0039628
-0.000225718
-0.00378697
0.000294737
-0.00319342
0.000744192
-0.00231641
0.00110367
-0.00137664
0.00130753
-0.00050144
0.00149757
0.000313121
0.00248604
0.000824984
0.00233808
0.000159217
0.00217576
-0.000329907
0.00206094
-0.000713116
0.00192026
-0.000835074
0.00176475
-0.000830065
0.0015125
-0.000687962
0.00182771
-0.000315377
0.00198782
-0.000160278
0.0020968
-0.000109147
0.00217365
-7.70155e-05
0.00220953
-3.60447e-05
0.00218578
2.35805e-05
0.00207754
0.000108066
0.00184864
0.000228733
0.00143885
0.000409624
0.00120929
0.000741649
0.000859318
0.00112395
0.000379041
0.0014789
0.00240071
-0.000747179
0.00987701
-0.00129748
0.00449688
-0.00146122
0.003365
-0.00161429
0.00257607
-0.00175029
0.00180845
-0.00182934
0.000878469
-0.00168641
-0.000462721
-0.00127306
-0.00205968
-0.000752872
-0.00335971
-0.000240839
-0.00415662
0.000199412
-0.00440306
0.000545933
-0.0041335
0.000818134
-0.00346563
0.00105489
-0.00255318
0.00125963
-0.00158139
0.00145858
-0.000700399
0.00176383
7.86427e-06
0.00220606
0.000382753
0.00223149
0.000133777
0.00214936
-0.000247786
0.00194947
-0.00051324
0.00173809
-0.000623703
0.00153525
-0.00062723
0.00138044
-0.000533173
0.00141463
-0.000349577
0.00147715
-0.000222815
0.00153497
-0.000166978
0.00159088
-0.000132939
0.00163911
-8.42927e-05
0.00166056
2.10961e-06
0.00163308
0.000135534
0.0015436
0.000318187
0.00139524
0.00055797
0.00124866
0.000888214
0.00108576
0.00128683
0.000766916
0.00179772
0.00101361
0.002154
-0.00106819
0.00210205
-0.00175488
0.000705309
-0.00168442
-0.000630128
0.0109451
-0.000982038
0.00484879
-0.000582185
0.00296514
-0.000356247
0.00235012
-0.000245849
0.00169805
-9.85051e-05
0.000731118
0.000239198
-0.000800432
0.000656017
-0.0024765
0.00100578
-0.00370948
0.00123338
-0.00438421
0.00133746
-0.00450713
0.00135573
-0.00415178
0.00132301
-0.00343291
0.00127799
-0.00250817
0.00124812
-0.00155153
0.00127275
-0.000725035
0.00140471
-0.000124107
0.00161442
0.000173042
0.00166173
8.64555e-05
0.00155369
-0.000139755
0.0013648
-0.00032436
0.00116421
-0.000423127
0.000982017
-0.000445052
0.000850694
-0.000401865
0.000814295
-0.000313193
0.000839064
-0.000247601
0.000892226
-0.000220157
0.000962577
-0.000203308
0.00104424
-0.000165977
0.00112738
-8.10458e-05
0.00119311
6.97848e-05
0.00123211
0.000279169
0.00125502
0.000535044
0.00129949
0.000843727
0.00141216
0.00117414
0.00162783
0.00158204
0.00199909
0.00178272
0.00230628
0.00179485
0.00180933
0.00120224
0.000188684
-0.000730003
0.0121598
-0.000573091
0.00469187
0.000561621
0.00183042
0.0010902
0.00182154
0.00141835
0.00136988
0.00189843
0.000251034
0.00244289
-0.00134491
0.0027745
-0.00280812
0.00286914
-0.00380411
0.00274489
-0.00425997
0.00245531
-0.00421755
0.00207326
-0.00376973
0.00166187
-0.00302153
0.00127824
-0.00212454
0.000965449
-0.00123875
0.000774191
-0.000533787
0.000726226
-7.61518e-05
0.000780316
0.000118942
0.000787379
7.93805e-05
0.000703924
-5.63117e-05
0.000563504
-0.000183953
0.000405589
-0.000265226
0.000259529
-0.000299009
0.00015322
-0.000295573
0.000112298
-0.000272289
0.000126239
-0.00026156
0.000173837
-0.000267774
0.000245141
-0.000274632
0.000340853
-0.000261709
0.000465993
-0.000206206
0.000614209
-7.84518e-05
0.000769771
0.000123587
0.000936678
0.000368117
0.00114514
0.00063524
0.00142631
0.00089296
0.00183161
0.00117672
0.00237503
0.00123927
0.00313859
0.00103127
0.00330806
0.00103275
0.00356348
0.0027734
0.00992719
0.00345597
0.0040093
0.00357252
0.00171386
0.00375966
0.00163438
0.00414109
0.000988441
0.00473035
-0.000338239
0.0051213
-0.00173586
0.0051159
-0.00280271
0.0047419
-0.0034301
0.00409407
-0.00361214
0.00328692
-0.00341039
0.0024302
-0.00291301
0.00159865
-0.00218999
0.000873479
-0.00139938
0.000307536
-0.000672822
-2.49728e-05
-0.000201291
-0.000145794
4.46562e-05
-0.000146176
0.000119312
-0.000149503
8.26936e-05
-0.000204802
-1.02856e-06
-0.000303674
-8.50974e-05
-0.000420005
-0.000148912
-0.000529407
-0.000189625
-0.000611668
-0.000213332
-0.000653927
-0.00023005
-0.000663766
-0.000251742
-0.000653958
-0.000277603
-0.000630114
-0.000298497
-0.00058828
-0.000303564
-0.000513247
-0.000281259
-0.000374997
-0.000216723
-0.000171327
-8.01028e-05
7.29193e-05
0.00012385
0.000355516
0.000352624
0.000671743
0.000576713
0.00105041
0.00079804
0.00146603
0.000823631
0.00185185
0.000645438
0.00117884
0.00170574
0.00502074
0.0105235
0.0145285
0.0126187
0.00362361
0.0114423
0.00281077
0.0106366
0.00179415
0.00980563
0.000492711
0.00873161
-0.000661828
0.00746646
-0.00153755
0.00609338
-0.00205701
0.00466886
-0.00218762
0.00326574
-0.00200728
0.00196882
-0.0016161
0.000792313
-0.0010135
-0.000132846
-0.000474234
-0.000706667
-9.9016e-05
-0.000961854
5.38808e-05
-0.00103406
0.000116843
-0.0010382
0.00012344
-0.00104647
9.09425e-05
-0.00108538
3.78706e-05
-0.0011544
-1.61002e-05
-0.00124134
-6.19948e-05
-0.0013307
-0.000100286
-0.00141153
-0.000132519
-0.00148047
-0.00016113
-0.00154506
-0.000187178
-0.0016162
-0.000206476
-0.00170413
-0.000210595
-0.00181963
-0.000188084
-0.00197647
-0.000124441
-0.00218942
-3.78669e-06
-0.00245145
0.000181908
-0.00277599
0.000448369
-0.00323982
0.000816432
-0.00394762
0.00128449
-0.00496883
0.00181924
-0.0064251
0.00227988
-0.00813213
0.00235244
-0.00764984
0.00122343
-0.00232148
0.00897216
0.00532606
0.00746988
0.00431308
0.0070311
0.00223297
0.00664035
0.000883517
0.00595536
2.31976e-05
0.00497991
-0.000562071
0.0038143
-0.000891396
0.00252571
-0.00089903
0.00121204
-0.00069362
-2.22948e-05
-0.000381786
-0.000983747
-5.20619e-05
-0.00153456
7.65607e-05
-0.00176044
0.000126847
-0.00183676
0.000130181
-0.00184678
0.000126843
-0.00184029
0.000116936
-0.00184589
9.65246e-05
-0.00187595
6.79059e-05
-0.0019292
3.71282e-05
-0.00199939
8.17548e-06
-0.00208036
-1.93425e-05
-0.00216688
-4.60166e-05
-0.00225851
-6.95272e-05
-0.00235918
-8.6525e-05
-0.00247239
-9.32854e-05
-0.00259865
-8.43586e-05
-0.00273421
-5.25518e-05
-0.002869
1.03335e-05
-0.00298997
0.000117165
-0.00309572
0.000287636
-0.0031958
0.000548427
-0.00329786
0.000918476
-0.00340426
0.00139087
-0.00347893
0.00189389
-0.00346276
0.00226369
-0.00318194
0.0020716
-0.00184095
-0.000117575
-0.00408195
-0.000855961
0.00623632
0.000559037
0.00289811
0.00105891
0.00173312
0.00112818
0.000814259
0.000939248
0.000212122
0.000490838
-0.000113679
-0.000232682
-0.000167909
-0.00106949
-6.22399e-05
-0.00181001
4.68745e-05
-0.0023131
0.000121283
-0.00252289
0.000157709
-0.00258699
0.000140637
-0.00258065
0.000120494
-0.00255483
0.000104337
-0.00252331
9.52978e-05
-0.00249504
8.86531e-05
-0.00247786
7.93137e-05
-0.00247559
6.56203e-05
-0.00248706
4.85728e-05
-0.00250863
2.97268e-05
-0.00253825
1.02534e-05
-0.00257658
-7.71503e-06
-0.00262378
-2.2345e-05
-0.00267861
-3.17158e-05
-0.00273788
-3.40394e-05
-0.00279555
-2.67116e-05
-0.00284248
-5.63793e-06
-0.00286641
3.42402e-05
-0.00285014
0.000100877
-0.00277007
0.000207546
-0.00259204
0.000370377
-0.00228567
0.000612081
-0.00183945
0.000944635
-0.00123431
0.00128872
-0.000261433
0.0012908
0.00114339
0.000666765
0.00162499
-0.000599194
-0.00236845
-0.0118499
-0.0153974
-0.00912142
-0.00619712
-0.00444375
-0.0036138
-0.00339002
-0.00349498
-0.00365618
-0.00371316
-0.00366191
-0.00353685
-0.00337572
-0.00323191
-0.0031084
-0.00300119
-0.00290312
-0.00281177
-0.00272981
-0.00266156
-0.00261037
-0.00257801
-0.00256511
-0.00257016
-0.00258985
-0.0026189
-0.00265029
-0.00267437
-0.00267741
-0.0026406
-0.00253721
-0.00232721
-0.00195447
-0.00134012
-0.000393367
0.00089725
0.00218972
0.00285803
0.00226033
)
;

boundaryField
{
    floor
    {
        type            calculated;
        value           nonuniform List<scalar> 
36
(
0
0
0
0
0
0
0
0
0
0
0
0
0
0
0
0
0
0
0
-4.5251e-06
-1.17743e-05
-1.78023e-05
-2.27663e-05
-2.02638e-05
-1.86408e-05
-1.75221e-05
-2.24743e-06
-3.60791e-06
-4.14212e-06
-4.81301e-06
-3.45328e-06
-7.29627e-06
-1.04349e-05
-1.06086e-05
-1.32606e-05
-1.12651e-05
)
;
    }
    ceiling
    {
        type            calculated;
        value           nonuniform List<scalar> 
43
(
-4.1132e-05
-4.04253e-05
-3.97017e-05
-2.62041e-05
-2.02824e-05
-1.57195e-05
-1.16784e-05
-8.74365e-06
-6.73195e-06
-5.2894e-06
-4.38687e-06
-3.80722e-06
-3.43408e-06
-3.19975e-06
-3.03326e-06
-2.90077e-06
-2.79537e-06
-2.71766e-06
-2.66954e-06
-2.64879e-06
-2.64768e-06
-2.65676e-06
-2.66881e-06
-2.67923e-06
-2.6844e-06
-2.68194e-06
-2.67124e-06
-2.65201e-06
-2.62399e-06
-2.58637e-06
-2.53648e-06
-2.47162e-06
-2.38844e-06
-2.28187e-06
-2.1425e-06
-1.91195e-06
-1.69756e-06
-1.5566e-06
-1.51571e-06
-7.2772e-07
7.09082e-06
4.34558e-06
-5.42883e-05
)
;
    }
    sWall
    {
        type            calculated;
        value           uniform -0.000239441;
    }
    nWall
    {
        type            calculated;
        value           nonuniform List<scalar> 6(-5.29548e-05 -6.37915e-05 -6.67473e-05 -8.05062e-05 -8.85357e-05 -0.000107411);
    }
    sideWalls
    {
        type            empty;
        value           nonuniform 0();
    }
    glass1
    {
        type            calculated;
        value           nonuniform List<scalar> 9(-5.9745e-05 -0.000161696 -0.000248093 -0.000321999 -0.000384934 -0.00043793 -0.000484698 -0.000540832 -0.000603406);
    }
    glass2
    {
        type            calculated;
        value           nonuniform List<scalar> 2(-0.000278441 -0.000307628);
    }
    sun
    {
        type            calculated;
        value           uniform 0;
    }
    Table_master
    {
        type            calculated;
        value           nonuniform List<scalar> 9(-1.53533e-07 -1.53691e-07 -1.53743e-07 -1.53774e-07 -1.53794e-07 -1.53806e-07 -1.53811e-07 -1.53803e-07 -1.53771e-07);
    }
    Table_slave
    {
        type            calculated;
        value           nonuniform List<scalar> 9(1.534e-07 1.53392e-07 1.53349e-07 1.53317e-07 1.533e-07 1.53298e-07 1.53308e-07 1.53348e-07 1.53433e-07);
    }
    inlet
    {
        type            calculated;
        value           uniform -0.0106746;
    }
    outlet
    {
        type            calculated;
        value           nonuniform List<scalar> 2(0.0121305 0.00358795);
    }
}


// ************************************************************************* //
