/*--------------------------------*- C++ -*----------------------------------*\
  =========                 |
  \\      /  F ield         | OpenFOAM: The Open Source CFD Toolbox
   \\    /   O peration     | Website:  https://openfoam.org
    \\  /    A nd           | Version:  6
     \\/     M anipulation  |
\*---------------------------------------------------------------------------*/
FoamFile
{
    version     2.0;
    format      ascii;
    class       volScalarField;
    location    "330";
    object      T;
}
// * * * * * * * * * * * * * * * * * * * * * * * * * * * * * * * * * * * * * //

dimensions      [0 0 0 1 0 0 0];

internalField   nonuniform List<scalar> 
458
(
302.779
302.505
302.491
302.487
302.484
302.48
302.476
302.471
302.463
302.454
302.446
302.443
302.448
302.467
302.503
302.682
302.657
302.648
302.655
302.664
302.671
302.678
302.685
302.692
302.699
302.706
302.713
302.72
302.727
302.735
302.743
302.754
302.78
302.961
302.539
302.514
302.514
302.516
302.516
302.513
302.505
302.489
302.464
302.441
302.428
302.433
302.451
302.471
302.481
302.491
302.514
302.688
302.631
302.627
302.636
302.649
302.655
302.659
302.663
302.667
302.672
302.676
302.68
302.684
302.69
302.697
302.708
302.723
302.765
303.154
302.585
302.545
302.555
302.568
302.577
302.581
302.573
302.543
302.494
302.445
302.419
302.422
302.446
302.466
302.478
302.487
302.506
302.639
302.614
302.616
302.635
302.658
302.66
302.662
302.665
302.668
302.671
302.674
302.678
302.681
302.685
302.693
302.702
302.717
302.761
303.352
302.644
302.579
302.598
302.627
302.656
302.674
302.668
302.618
302.534
302.451
302.408
302.412
302.443
302.472
302.489
302.496
302.505
302.515
302.536
302.57
302.61
302.652
302.69
302.72
302.742
302.76
302.775
302.788
302.799
302.808
302.816
302.821
302.789
302.758
302.74
302.765
303.548
302.72
302.615
302.632
302.676
302.728
302.772
302.771
302.694
302.569
302.453
302.396
302.403
302.444
302.487
302.515
302.524
302.531
302.548
302.578
302.619
302.666
302.713
302.755
302.792
302.82
302.841
302.859
302.871
302.878
302.88
302.877
302.868
302.844
302.806
302.77
302.77
302.87
302.956
302.956
303.725
302.82
302.673
302.664
302.706
302.768
302.849
302.847
302.736
302.578
302.444
302.381
302.394
302.451
302.515
302.56
302.581
302.594
302.619
302.655
302.701
302.75
302.796
302.837
302.871
302.896
302.915
302.929
302.938
302.94
302.935
302.925
302.91
302.884
302.848
302.807
302.789
302.831
302.864
302.907
303.883
302.984
302.82
302.774
302.787
302.836
302.912
302.878
302.73
302.544
302.402
302.349
302.386
302.473
302.565
302.63
302.666
302.689
302.719
302.758
302.802
302.846
302.887
302.921
302.948
302.967
302.98
302.988
302.991
302.989
302.98
302.964
302.945
302.919
302.886
302.849
302.825
302.832
302.847
302.879
304.113
303.442
303.252
303.122
303.058
303.063
303.033
302.876
302.64
302.425
302.303
302.299
302.392
302.526
302.65
302.732
302.776
302.801
302.832
302.867
302.905
302.94
302.971
302.994
303.011
303.022
303.027
303.029
303.026
303.02
303.011
302.996
302.976
302.953
302.929
302.902
302.887
302.892
302.912
303.056
304.443
304.13
303.886
303.654
303.469
303.32
303.032
302.647
302.323
302.155
302.147
302.262
302.456
302.644
302.79
302.854
302.886
302.91
302.937
302.966
302.993
303.017
303.035
303.048
303.055
303.058
303.057
303.054
303.048
303.042
303.036
303.033
303.031
303.033
303.044
303.065
303.098
303.133
303.16
303.225
297.53
299.137
300.115
300.504
300.729
301.006
301.342
301.708
302.056
302.377
302.697
302.85
302.925
302.96
302.982
303.002
303.023
303.043
303.059
303.071
303.079
303.083
303.084
303.083
303.08
303.078
303.076
303.074
303.073
303.072
303.074
303.08
303.093
303.112
303.138
303.167
303.194
303.223
297.902
299.242
300.09
300.584
301.024
301.459
301.908
302.331
302.618
302.814
302.936
302.993
303.024
303.044
303.059
303.073
303.085
303.095
303.102
303.106
303.107
303.106
303.105
303.104
303.102
303.1
303.099
303.098
303.097
303.097
303.098
303.103
303.111
303.124
303.141
303.164
303.168
303.204
299.515
299.475
299.472
300.554
301.263
301.851
302.323
302.619
302.798
302.922
302.997
303.044
303.075
303.093
303.105
303.113
303.12
303.125
303.129
303.131
303.132
303.131
303.13
303.128
303.126
303.124
303.122
303.12
303.118
303.117
303.115
303.114
303.114
303.115
303.119
303.127
303.137
303.146
303.151
303.194
)
;

boundaryField
{
    floor
    {
        type            wallHeatTransfer;
        Tinf            uniform 305.2;
        alphaWall       uniform 0.24;
        value           nonuniform List<scalar> 
36
(
302.802
303.142
303.074
303.029
303.022
303.033
303.057
303.086
303.114
303.141
303.167
303.192
303.216
303.24
303.262
303.285
303.311
303.332
303.384
303.384
303.289
303.237
303.2
303.212
303.271
303.252
302.802
302.725
302.771
302.838
303.142
302.838
303.152
302.789
302.993
302.77
)
;
    }
    ceiling
    {
        type            wallHeatTransfer;
        Tinf            uniform 303.2;
        alphaWall       uniform 0.24;
        value           nonuniform List<scalar> 
43
(
299.741
299.698
299.691
300.696
301.373
301.935
302.385
302.665
302.833
302.948
303.018
303.062
303.09
303.107
303.118
303.126
303.132
303.137
303.141
303.143
303.143
303.143
303.141
303.14
303.138
303.136
303.134
303.132
303.13
303.128
303.126
303.125
303.124
303.125
303.127
303.134
303.143
303.152
303.156
303.195
304.385
304.093
298.24
)
;
    }
    sWall
    {
        type            wallHeatTransfer;
        Tinf            uniform 315.2;
        alphaWall       uniform 0.36;
        value           uniform 300.917;
    }
    nWall
    {
        type            wallHeatTransfer;
        Tinf            uniform 307.2;
        alphaWall       uniform 0.36;
        value           nonuniform List<scalar> 6(303.745 303.685 303.569 303.795 303.773 303.822);
    }
    sideWalls
    {
        type            empty;
    }
    glass1
    {
        type            wallHeatTransfer;
        Tinf            uniform 315.2;
        alphaWall       uniform 4.3;
        value           nonuniform List<scalar> 9(311.216 310.586 310.186 309.88 309.624 309.388 309.195 309.259 309.486);
    }
    glass2
    {
        type            wallHeatTransfer;
        Tinf            uniform 307.2;
        alphaWall       uniform 4.3;
        value           nonuniform List<scalar> 2(305.596 305.716);
    }
    sun
    {
        type            wallHeatTransfer;
        Tinf            uniform 305.2;
        alphaWall       uniform 0.24;
        value           nonuniform List<scalar> 
14
(
303.03
302.765
302.748
302.735
302.724
302.713
302.703
302.692
302.68
302.668
302.661
302.662
302.676
302.718
)
;
    }
    Table_master
    {
        type            zeroGradient;
    }
    Table_slave
    {
        type            zeroGradient;
    }
    inlet
    {
        type            fixedValue;
        value           uniform 295.15;
    }
    outlet
    {
        type            zeroGradient;
    }
}


// ************************************************************************* //
