/*--------------------------------*- C++ -*----------------------------------*\
  =========                 |
  \\      /  F ield         | OpenFOAM: The Open Source CFD Toolbox
   \\    /   O peration     | Website:  https://openfoam.org
    \\  /    A nd           | Version:  6
     \\/     M anipulation  |
\*---------------------------------------------------------------------------*/
FoamFile
{
    version     2.0;
    format      ascii;
    class       volScalarField;
    location    "2900";
    object      epsilon;
}
// * * * * * * * * * * * * * * * * * * * * * * * * * * * * * * * * * * * * * //

dimensions      [0 2 -3 0 0 0 0];

internalField   nonuniform List<scalar> 
662
(
0.000335822
0.000420965
0.000439676
0.000504086
0.000569705
0.00063688
0.000708316
0.00078853
0.000875703
0.000962156
0.00103442
0.00106323
0.00100548
0.000826806
0.000450638
4.04164e-05
6.58997e-05
9.41978e-05
0.000102335
9.55494e-05
7.80385e-05
6.16436e-05
4.90656e-05
3.96344e-05
3.24771e-05
2.69744e-05
2.27088e-05
1.93176e-05
1.65389e-05
1.41677e-05
1.20448e-05
1.11526e-05
8.842e-06
0.000878374
0.00144586
0.000379221
0.000359329
0.000368804
0.000384226
0.00040838
0.000448465
0.000507651
0.000582823
0.000660594
0.000711881
0.000702383
0.000629478
0.000537262
0.000759921
0.000422198
0.000229783
4.1175e-05
8.20526e-05
9.44118e-05
9.2205e-05
8.63854e-05
8.5346e-05
6.70194e-05
5.10289e-05
3.90779e-05
3.02999e-05
2.3837e-05
1.9062e-05
1.54755e-05
1.28078e-05
1.11201e-05
1.05108e-05
3.45056e-05
2.1822e-05
0.00170227
0.00403626
0.000489401
0.000311781
0.000303739
0.00031256
0.000331479
0.00036699
0.000424529
0.000503116
0.000590887
0.000665177
0.000685276
0.000629313
0.000510879
0.000418833
0.000355578
0.000379402
0.00017025
0.000154077
0.000130723
0.000111205
0.000100564
0.000192372
0.000128702
8.835e-05
6.28223e-05
4.62983e-05
3.52844e-05
2.77537e-05
2.24974e-05
1.88731e-05
1.47615e-05
1.33229e-05
7.65368e-05
3.71459e-05
0.00295457
0.0088144
0.000915396
0.000305693
0.000264548
0.000266098
0.000278088
0.000310412
0.000373512
0.000456907
0.000548234
0.000641515
0.000684124
0.000628004
0.00051725
0.000420709
0.000366572
0.000398741
0.000608368
0.000389959
0.000247223
0.000175108
0.000134949
0.000116818
0.000268979
0.000204748
0.000168261
0.000144933
0.000127345
0.000111272
9.69245e-05
8.31869e-05
6.88254e-05
4.2437e-05
2.83993e-05
0.000139688
5.66783e-05
0.00469196
0.0139199
0.00216511
0.000439196
0.000281795
0.000256713
0.000256601
0.000296196
0.000387749
0.000479565
0.000567667
0.000673886
0.000719917
0.000644511
0.000512669
0.000391321
0.000311508
0.000292651
0.000292838
0.000244075
0.00019938
0.000164232
0.000135393
0.000112423
0.0001052
9.72376e-05
9.18824e-05
8.73371e-05
8.20954e-05
7.52431e-05
6.74871e-05
5.99535e-05
5.30271e-05
4.37139e-05
3.52829e-05
8.59128e-05
0.000142583
0.000137971
0.000157034
0.000200339
0.00735608
0.0214652
0.00577257
0.001444
0.000680408
0.000441298
0.000357425
0.000395054
0.0005097
0.000586543
0.000661177
0.000764497
0.00079969
0.00068692
0.000511007
0.000352068
0.000252531
0.000216574
0.000208967
0.000200982
0.000183932
0.000159972
0.000134374
0.000111854
9.84997e-05
9.41959e-05
9.44205e-05
9.51999e-05
9.43143e-05
8.99922e-05
8.05557e-05
6.91968e-05
5.85281e-05
4.90295e-05
4.33607e-05
6.05718e-05
0.000104789
0.00012306
0.000226736
0.000224504
0.0122067
0.0153339
0.011069
0.00565021
0.00272949
0.00142033
0.000900456
0.000758195
0.000773923
0.000771552
0.000793237
0.000884692
0.000927261
0.000742665
0.000510707
0.000317341
0.000209827
0.000178748
0.000181141
0.000181463
0.000169195
0.000148353
0.000126372
0.000109046
0.000101012
0.000102396
0.000108669
0.000116328
0.000123549
0.000128266
0.00012724
0.000114088
9.99876e-05
8.82823e-05
8.38199e-05
9.47496e-05
0.000130713
0.000188099
0.000362417
0.000372885
0.00598173
0.00866097
0.00755618
0.00636107
0.00496539
0.0034905
0.00237118
0.00168849
0.00127553
0.00106639
0.00105464
0.00114091
0.00104253
0.000769132
0.000474823
0.000264355
0.000173068
0.000157608
0.000161054
0.000158527
0.000145879
0.000129027
0.000114599
0.000106658
0.000106879
0.00011431
0.000126721
0.000143012
0.000163245
0.000187669
0.000215853
0.000244305
0.000258791
0.000288125
0.000349841
0.000505714
0.000833567
0.0013962
0.00474029
0.00129448
0.000925149
0.00304031
0.00324425
0.00286807
0.00230867
0.00180564
0.00147208
0.00138285
0.00146834
0.0014635
0.00105588
0.00069253
0.000345165
0.000201629
0.00015449
0.000144042
0.000141014
0.000134293
0.000123569
0.000113022
0.00010647
0.000105709
0.000110888
0.000121391
0.000136911
0.000158172
0.000186961
0.000226036
0.00027913
0.000350834
0.000447894
0.000581508
0.000777546
0.00104085
0.00134549
0.00163571
0.00188042
0.00106345
0.00125841
0.00133233
0.00185579
0.00208935
0.00207064
0.00198716
0.00199121
0.00204213
0.00193771
0.00152054
0.000771537
0.00045325
0.000267157
0.000191155
0.000163188
0.000152516
0.00014569
0.000138078
0.000129843
0.000122964
0.000119118
0.000118987
0.000122617
0.000129957
0.00014124
0.000157247
0.000179489
0.000210497
0.000254375
0.000317276
0.000406474
0.000529713
0.000694744
0.000895644
0.00110484
0.00128103
0.00121114
0.00060865
0.00678742
0.00685001
0.00171255
0.00204314
0.00254676
0.00276755
0.00284557
0.00279288
0.00254485
0.00209366
0.00154381
0.000811211
0.00031128
0.000257069
0.000229223
0.000218845
0.000214694
0.00021032
0.000203153
0.000193368
0.000182622
0.000172436
0.0001639
0.000157761
0.000154635
0.000155203
0.000160334
0.000171153
0.000189161
0.00021648
0.000256287
0.000313041
0.000392178
0.000499594
0.000638287
0.000802558
0.00098546
0.00131913
0.000680301
0.000679458
0.00315213
0.00352035
0.00340687
0.00423576
0.00448794
0.00414021
0.00346405
0.00257111
0.00165759
0.000989327
0.000568679
0.000360823
0.000224719
0.00021164
0.000198691
0.000185256
0.000172913
0.000160933
0.000149691
0.000140233
0.000133208
0.000129128
0.000128077
0.000129978
0.000134807
0.000142697
0.000153974
0.000169218
0.00018942
0.000216336
0.000251874
0.00029724
0.000354847
0.000427189
0.000516439
0.000625416
0.00069172
0.000521813
0.000425455
0.000611992
0.0127896
0.0162221
0.00822744
0.00394535
0.00192742
0.00108683
0.000784177
0.000766097
0.000777726
0.000774765
0.000833299
0.00093108
0.00934172
0.00834501
0.0069244
0.00570851
0.00420267
0.00287207
0.00198588
0.00145429
0.00114605
0.00103763
0.00109859
0.00115299
0.00254762
0.00324816
0.00309951
0.00259275
0.0020411
0.00161177
0.00139575
0.00141769
0.00149445
0.00136992
0.00100543
0.00162538
0.00201149
0.00210118
0.00202449
0.00197869
0.0020225
0.00202237
0.00176795
0.00125843
0.020213
0.00390419
0.0017411
0.00237315
0.00267763
0.00282196
0.00283794
0.00269616
0.00233268
0.00183689
0.00117132
0.000553038
0.00837824
0.00335606
0.00380809
0.00446969
0.00436511
0.00383587
0.00303648
0.00209776
0.00128615
0.000753216
0.000437266
0.00031486
0.0138799
0.0112774
0.00959555
0.007105
0.00462604
0.00277219
0.00172634
0.00124542
0.00103477
0.000918349
0.000910075
0.000998933
0.00704822
0.0093229
0.00765625
0.0055247
0.00443532
0.00341118
0.00250579
0.00184843
0.00140753
0.00120718
0.00123565
0.00130304
0.00180096
0.00170465
0.00227749
0.00233913
0.00209652
0.00179773
0.00162587
0.00166768
0.00173769
0.00156539
0.000657373
0.00145027
0.00195761
0.00222059
0.00233985
0.00241194
0.0024407
0.00226969
0.00189581
0.00125597
0.00696931
0.00527513
0.00242353
0.00288153
0.00333673
0.00335907
0.00315661
0.00274776
0.00215804
0.00157838
0.00100113
0.000472764
0.00533811
0.00411351
0.00489626
0.0054782
0.00537074
0.00465775
0.00358251
0.00241568
0.00148505
0.000886059
0.000492155
0.000359876
0.0118951
0.0110115
0.00837003
0.00583144
0.00358913
0.00215672
0.00143418
0.00112264
0.000966522
0.000897777
0.000949996
0.00103324
0.00746611
0.00976614
0.00631357
0.0049547
0.00391923
0.00293232
0.00214476
0.00160083
0.00127491
0.00120007
0.00128194
0.00127114
0.001276
0.00205956
0.00236275
0.00223896
0.00194155
0.00168313
0.0016265
0.00171774
0.00169167
0.0013722
0.00089041
0.00175343
0.00210911
0.00229364
0.00237571
0.00244418
0.00237981
0.00211216
0.00160102
0.000941785
0.0162621
0.00357001
0.00252936
0.00320201
0.00338147
0.00328316
0.0029785
0.00246701
0.00186084
0.00129566
0.000705196
0.000349455
0.00379841
0.00454457
0.00521817
0.00552121
0.00507288
0.00415122
0.00298901
0.00190566
0.00115273
0.000665401
0.000385709
0.000389445
)
;

boundaryField
{
    floor
    {
        Cmu             0.09;
        kappa           0.41;
        E               9.8;
        type            epsilonWallFunction;
        value           nonuniform List<scalar> 
36
(
0.000450638
4.04164e-05
6.58997e-05
9.41978e-05
0.000102335
9.55494e-05
7.80385e-05
6.16436e-05
4.90656e-05
3.96344e-05
3.24771e-05
2.69744e-05
2.27088e-05
1.93176e-05
1.65389e-05
1.41677e-05
1.20448e-05
1.11526e-05
8.842e-06
8.842e-06
2.1822e-05
3.71459e-05
5.66783e-05
0.000137971
0.000157034
0.000200339
0.000450638
0.000759921
0.000422198
0.000229783
4.04164e-05
0.000229783
4.1175e-05
0.000379402
0.00017025
0.000608368
)
;
    }
    ceiling
    {
        Cmu             0.09;
        kappa           0.41;
        E               9.8;
        type            epsilonWallFunction;
        value           nonuniform List<scalar> 
58
(
0.00379841
0.00454457
0.00521817
0.00552121
0.00507288
0.00415122
0.00298901
0.00190566
0.00115273
0.000665401
0.000385709
0.000389445
0.000224719
0.00021164
0.000198691
0.000185256
0.000172913
0.000160933
0.000149691
0.000140233
0.000133208
0.000129128
0.000128077
0.000129978
0.000134807
0.000142697
0.000153974
0.000169218
0.00018942
0.000216336
0.000251874
0.00029724
0.000354847
0.000427189
0.000516439
0.000625416
0.00069172
0.000521813
0.000425455
0.000611992
0.00746611
0.00976614
0.000657373
0.00315213
0.00411351
0.00489626
0.0054782
0.00537074
0.00465775
0.00358251
0.00241568
0.00148505
0.000886059
0.000492155
0.000359876
0.00598173
0.0093229
0.00125841
)
;
    }
    sWall
    {
        Cmu             0.09;
        kappa           0.41;
        E               9.8;
        type            epsilonWallFunction;
        value           nonuniform List<scalar> 4(0.00696931 0.00533811 0.00678742 0.00315213);
    }
    nWall
    {
        Cmu             0.09;
        kappa           0.41;
        E               9.8;
        type            epsilonWallFunction;
        value           nonuniform List<scalar> 6(0.000200339 0.000224504 0.000372885 0.00060865 0.000679458 0.000611992);
    }
    sideWalls
    {
        type            empty;
    }
    glass1
    {
        Cmu             0.09;
        kappa           0.41;
        E               9.8;
        type            epsilonWallFunction;
        value           nonuniform List<scalar> 10(0.000335822 0.000878374 0.00170227 0.00295457 0.00469196 0.00735608 0.0138799 0.00704822 0.0122067 0.00598173);
    }
    glass2
    {
        Cmu             0.09;
        kappa           0.41;
        E               9.8;
        type            epsilonWallFunction;
        value           nonuniform List<scalar> 2(0.00129448 0.00106345);
    }
    sun
    {
        Cmu             0.09;
        kappa           0.41;
        E               9.8;
        type            epsilonWallFunction;
        value           nonuniform List<scalar> 
14
(
0.000335822
0.000420965
0.000439676
0.000504086
0.000569705
0.00063688
0.000708316
0.00078853
0.000875703
0.000962156
0.00103442
0.00106323
0.00100548
0.000826806
)
;
    }
    Table_master
    {
        Cmu             0.09;
        kappa           0.41;
        E               9.8;
        type            epsilonWallFunction;
        value           nonuniform List<scalar> 9(0.000192372 0.000128702 8.835e-05 6.28223e-05 4.62983e-05 3.52844e-05 2.77537e-05 2.24974e-05 1.88731e-05);
    }
    Table_slave
    {
        Cmu             0.09;
        kappa           0.41;
        E               9.8;
        type            epsilonWallFunction;
        value           nonuniform List<scalar> 9(0.000268979 0.000204748 0.000168261 0.000144933 0.000127345 0.000111272 9.69245e-05 8.31869e-05 6.88254e-05);
    }
    inlet
    {
        type            turbulentMixingLengthDissipationRateInlet;
        mixingLength    0.01;
        phi             phi;
        k               k;
        value           uniform 0.000471671;
    }
    outlet
    {
        type            zeroGradient;
    }
}


// ************************************************************************* //
