/*--------------------------------*- C++ -*----------------------------------*\
  =========                 |
  \\      /  F ield         | OpenFOAM: The Open Source CFD Toolbox
   \\    /   O peration     | Website:  https://openfoam.org
    \\  /    A nd           | Version:  6
     \\/     M anipulation  |
\*---------------------------------------------------------------------------*/
FoamFile
{
    version     2.0;
    format      ascii;
    class       volScalarField;
    location    "2900";
    object      T;
}
// * * * * * * * * * * * * * * * * * * * * * * * * * * * * * * * * * * * * * //

dimensions      [0 0 0 1 0 0 0];

internalField   nonuniform List<scalar> 
778
(
302.566
302.247
302.231
302.226
302.221
302.217
302.212
302.208
302.203
302.198
302.192
302.185
302.175
302.165
302.155
302.224
302.094
302.087
302.086
302.088
302.092
302.096
302.101
302.106
302.111
302.116
302.12
302.125
302.131
302.136
302.142
302.151
302.182
302.779
302.278
302.245
302.245
302.246
302.246
302.245
302.243
302.24
302.235
302.226
302.212
302.193
302.167
302.139
302.12
302.106
302.102
302.083
302.064
302.056
302.053
302.053
302.055
302.056
302.058
302.06
302.062
302.064
302.066
302.069
302.073
302.08
302.09
302.106
302.158
302.995
302.325
302.273
302.279
302.29
302.3
302.308
302.314
302.316
302.314
302.305
302.286
302.255
302.214
302.168
302.128
302.096
302.076
302.049
302.042
302.04
302.04
302.04
302.042
302.043
302.044
302.045
302.046
302.048
302.049
302.05
302.053
302.058
302.067
302.085
302.146
303.205
302.386
302.303
302.315
302.337
302.359
302.379
302.396
302.408
302.412
302.404
302.379
302.335
302.275
302.208
302.147
302.098
302.063
302.048
302.037
302.033
302.033
302.034
302.035
302.035
302.036
302.036
302.037
302.037
302.037
302.037
302.037
302.037
302.044
302.054
302.072
302.137
303.406
302.46
302.336
302.349
302.381
302.415
302.449
302.479
302.504
302.518
302.514
302.485
302.426
302.342
302.249
302.165
302.1
302.058
302.036
302.029
302.027
302.029
302.032
302.035
302.036
302.038
302.039
302.039
302.04
302.04
302.039
302.039
302.038
302.04
302.046
302.061
302.114
302.126
302.139
302.235
303.594
302.545
302.373
302.378
302.416
302.459
302.504
302.548
302.587
302.613
302.617
302.587
302.513
302.401
302.28
302.174
302.096
302.05
302.028
302.022
302.023
302.028
302.033
302.037
302.04
302.042
302.043
302.044
302.044
302.043
302.042
302.041
302.04
302.04
302.042
302.053
302.086
302.098
302.113
302.246
303.757
302.64
302.421
302.402
302.44
302.486
302.535
302.586
302.635
302.676
302.693
302.664
302.576
302.436
302.292
302.171
302.086
302.038
302.017
302.014
302.02
302.029
302.037
302.043
302.047
302.049
302.049
302.049
302.049
302.047
302.046
302.044
302.042
302.04
302.041
302.047
302.067
302.08
302.097
302.228
303.911
302.783
302.517
302.437
302.457
302.499
302.545
302.592
302.643
302.701
302.732
302.701
302.597
302.445
302.285
302.153
302.065
302.018
302.003
302.007
302.02
302.033
302.044
302.052
302.056
302.057
302.057
302.056
302.054
302.052
302.049
302.046
302.044
302.042
302.041
302.044
302.056
302.068
302.107
302.404
304.118
303.233
302.844
302.589
302.505
302.517
302.552
302.593
302.651
302.719
302.754
302.713
302.59
302.418
302.246
302.111
302.028
301.991
301.988
302.003
302.024
302.043
302.056
302.063
302.066
302.066
302.064
302.062
302.058
302.055
302.052
302.048
302.045
302.042
302.041
302.042
302.051
302.079
302.158
302.552
304.104
303.536
303.164
302.864
302.687
302.618
302.609
302.634
302.704
302.773
302.787
302.708
302.547
302.35
302.172
302.045
301.979
301.963
301.978
302.006
302.036
302.058
302.071
302.077
302.077
302.074
302.07
302.066
302.061
302.057
302.053
302.049
302.046
302.043
302.041
302.043
302.066
302.244
302.361
302.559
304.108
303.671
303.356
303.096
302.916
302.817
302.779
302.787
302.836
302.866
302.816
302.667
302.452
302.233
302.062
301.961
301.926
301.94
301.978
302.021
302.057
302.079
302.089
302.089
302.085
302.079
302.073
302.067
302.062
302.057
302.053
302.049
302.046
302.043
302.042
302.045
302.105
302.301
302.431
302.576
304.139
303.758
303.494
303.283
303.129
303.034
302.991
302.991
302.995
302.94
302.782
302.54
302.276
302.058
301.921
301.87
301.883
301.934
301.996
302.051
302.087
302.104
302.105
302.099
302.09
302.081
302.074
302.067
302.062
302.057
302.053
302.049
302.046
302.044
302.043
302.05
302.107
302.293
302.434
302.59
304.205
303.877
303.634
303.451
303.319
303.233
303.187
303.159
303.071
302.875
302.58
302.26
301.995
301.831
301.772
301.797
301.87
301.96
302.04
302.096
302.123
302.127
302.118
302.106
302.094
302.084
302.076
302.069
302.063
302.058
302.054
302.051
302.048
302.048
302.051
302.065
302.115
302.269
302.396
302.542
304.14
303.89
303.682
303.54
303.425
303.334
303.256
303.126
302.851
302.471
302.085
301.789
301.63
301.6
301.664
301.782
301.912
302.027
302.108
302.15
302.157
302.147
302.132
302.116
302.103
302.091
302.082
302.074
302.068
302.064
302.06
302.057
302.057
302.063
302.079
302.109
302.16
302.273
302.377
302.515
304.281
304.088
303.618
303.297
303.093
302.928
302.736
302.365
301.893
301.497
301.27
301.22
301.307
301.473
301.67
301.863
302.019
302.132
302.184
302.196
302.188
302.172
302.154
302.137
302.123
302.111
302.101
302.092
302.086
302.081
302.078
302.078
302.084
302.103
302.141
302.193
302.254
302.332
302.411
302.54
294.643
296.444
298.138
299.039
299.384
299.573
299.825
300.154
300.528
300.908
301.268
301.582
301.839
302.048
302.169
302.228
302.246
302.241
302.227
302.21
302.194
302.179
302.167
302.157
302.149
302.141
302.134
302.129
302.126
302.126
302.135
302.163
302.214
302.286
302.369
302.449
302.509
302.592
294.923
295.746
296.64
297.5
298.274
299
299.685
300.3
300.824
301.263
301.638
301.917
302.105
302.225
302.285
302.305
302.304
302.294
302.281
302.268
302.256
302.248
302.243
302.24
302.239
302.237
302.231
302.222
302.214
302.208
302.21
302.226
302.266
302.332
302.413
302.497
302.566
302.639
299.766
298.69
297.314
296.751
297.503
298.506
299.408
300.143
300.718
301.159
301.519
301.81
302.037
302.198
302.298
302.351
302.371
302.372
302.365
302.355
302.345
302.338
302.334
302.334
302.337
302.344
302.351
302.356
302.356
302.349
302.334
302.32
302.309
302.307
302.322
302.358
302.411
302.473
302.535
302.604
300.122
299.99
299.403
298.879
299.279
299.998
300.659
301.178
301.566
301.849
302.057
302.21
302.317
302.384
302.42
302.434
302.435
302.429
302.422
302.414
302.409
302.408
302.41
302.417
302.428
302.441
302.454
302.465
302.471
302.469
302.458
302.44
302.423
302.41
302.406
302.415
302.437
302.47
302.513
302.58
300.843
300.832
300.884
300.97
301.123
301.465
301.788
302.034
302.208
302.327
302.408
302.46
302.492
302.508
302.514
302.513
302.509
302.503
302.498
302.495
302.494
302.497
302.504
302.514
302.528
302.542
302.555
302.565
302.569
302.567
302.56
302.549
302.537
302.529
302.526
302.531
302.544
302.561
302.579
302.619
)
;

boundaryField
{
    floor
    {
        type            wallHeatTransfer;
        Tinf            uniform 305.2;
        alphaWall       uniform 0.36;
        value           nonuniform List<scalar> 
36
(
302.545
302.869
302.623
302.613
302.622
302.639
302.665
302.694
302.723
302.752
302.78
302.807
302.833
302.858
302.884
302.911
302.94
302.969
303.04
303.04
302.909
302.841
302.792
302.711
302.62
302.714
302.545
302.488
302.489
302.498
302.869
302.498
302.535
302.418
302.434
302.395
)
;
    }
    ceiling
    {
        type            wallHeatTransfer;
        Tinf            uniform 303.2;
        alphaWall       uniform 0.36;
        value           nonuniform List<scalar> 
43
(
301.03
301.045
301.093
301.167
301.303
301.619
301.919
302.149
302.313
302.426
302.504
302.557
302.591
302.61
302.618
302.618
302.614
302.609
302.604
302.6
302.599
302.6
302.605
302.613
302.623
302.633
302.642
302.647
302.648
302.644
302.636
302.624
302.611
302.601
302.596
302.597
302.606
302.62
302.633
302.67
304.19
304.016
295.883
)
;
    }
    sWall
    {
        type            wallHeatTransfer;
        Tinf            uniform 315.2;
        alphaWall       uniform 0.54;
        value           nonuniform List<scalar> 9(305.124 305.182 305.293 305.437 305.376 305.602 301.395 301.77 302.495);
    }
    nWall
    {
        type            wallHeatTransfer;
        Tinf            uniform 308.2;
        alphaWall       uniform 0.54;
        value           nonuniform List<scalar> 
14
(
303.576
303.433
303.291
303.303
303.327
303.344
303.268
303.233
303.259
303.332
303.386
303.303
303.246
303.33
)
;
    }
    sideWalls
    {
        type            empty;
    }
    glass1
    {
        type            wallHeatTransfer;
        Tinf            uniform 315.2;
        alphaWall       uniform 4.3;
        value           nonuniform List<scalar> 9(311.626 310.813 310.301 309.912 309.605 309.359 309.142 308.996 309.046);
    }
    glass2
    {
        type            wallHeatTransfer;
        Tinf            uniform 308.2;
        alphaWall       uniform 4.3;
        value           nonuniform List<scalar> 2(305.77 305.665);
    }
    sun
    {
        type            wallHeatTransfer;
        Tinf            uniform 305.2;
        alphaWall       uniform 0.36;
        value           nonuniform List<scalar> 
14
(
303.018
302.732
302.72
302.701
302.684
302.67
302.657
302.644
302.631
302.619
302.605
302.592
302.577
302.561
)
;
    }
    Table_master
    {
        type            zeroGradient;
    }
    Table_slave
    {
        type            zeroGradient;
    }
    inlet
    {
        type            fixedValue;
        value           uniform 293.15;
    }
    outlet
    {
        type            zeroGradient;
    }
}


// ************************************************************************* //
