/*--------------------------------*- C++ -*----------------------------------*\
  =========                 |
  \\      /  F ield         | OpenFOAM: The Open Source CFD Toolbox
   \\    /   O peration     | Website:  https://openfoam.org
    \\  /    A nd           | Version:  6
     \\/     M anipulation  |
\*---------------------------------------------------------------------------*/
FoamFile
{
    version     2.0;
    format      ascii;
    class       volScalarField;
    location    "2900";
    object      T;
}
// * * * * * * * * * * * * * * * * * * * * * * * * * * * * * * * * * * * * * //

dimensions      [0 0 0 1 0 0 0];

internalField   nonuniform List<scalar> 
778
(
302.476
302.149
302.697
302.133
302.178
302.922
302.128
302.149
302.227
303.14
302.123
302.15
302.181
302.288
303.348
302.119
302.151
302.192
302.216
302.363
303.542
302.114
302.152
302.206
302.236
302.25
302.45
303.71
302.11
302.152
302.219
302.263
302.274
302.288
302.546
303.862
302.106
302.151
302.231
302.292
302.314
302.305
302.334
302.69
304.071
302.101
302.149
302.24
302.318
302.356
302.352
302.329
302.426
303.15
304.057
302.095
302.145
302.246
302.341
302.398
302.403
302.376
302.358
302.753
303.467
304.06
302.088
302.138
302.247
302.359
302.437
302.456
302.43
302.391
302.499
303.084
303.609
304.091
302.079
302.125
302.241
302.368
302.469
302.506
302.484
302.439
302.427
302.775
303.285
303.701
304.157
302.067
302.104
302.223
302.365
302.49
302.551
302.537
302.488
302.449
302.6
303.016
303.43
303.824
304.096
302.054
302.075
302.192
302.345
302.493
302.584
302.585
302.535
302.487
302.536
302.831
303.211
303.577
303.84
304.241
302.039
302.146
302.304
302.474
302.596
302.625
302.577
302.524
302.529
302.729
303.051
303.39
303.64
304.056
302.011
302.09
302.239
302.424
302.585
302.653
302.624
302.564
302.547
302.687
302.951
303.254
303.506
303.713
301.99
302.035
302.158
302.34
302.532
302.655
302.671
302.627
302.601
302.688
302.903
303.165
303.398
303.469
294.561
301.978
301.988
302.075
302.231
302.429
302.604
302.684
302.687
302.678
302.735
302.898
303.118
303.318
303.311
296.222
294.759
301.953
302
302.117
302.29
302.486
302.628
302.698
302.732
302.791
302.92
303.101
303.263
303.191
297.903
295.526
297.136
301.941
302.017
302.148
302.321
302.498
302.628
302.716
302.799
302.917
303.068
303.199
303.075
298.87
296.314
296.488
298.692
299.782
301.911
301.944
302.026
302.157
302.322
302.476
302.603
302.715
302.832
302.952
303.017
302.78
299.228
296.966
297.372
299.245
300.057
300.314
301.142
301.888
301.9
301.94
302.023
302.144
302.282
302.414
302.533
302.639
302.717
302.689
302.262
299.263
297.511
298.468
299.542
301.2
300.453
301.1
301.898
301.877
301.879
301.892
301.931
302.001
302.095
302.198
302.294
302.37
302.393
302.271
301.708
299.333
298.197
299.37
300.18
301.299
301.105
301.916
301.886
301.873
301.869
301.869
301.879
301.907
301.952
302.009
302.062
302.092
302.059
301.867
301.274
299.55
299.007
300.065
300.75
301.541
301.971
301.902
301.881
301.871
301.866
301.861
301.857
301.858
301.867
301.88
301.888
301.872
301.794
301.573
301.044
299.909
299.769
300.583
301.193
301.786
301.946
301.896
301.879
301.871
301.866
301.86
301.853
301.842
301.83
301.816
301.792
301.743
301.641
301.431
301.02
300.348
300.402
300.995
301.518
301.978
301.938
301.894
301.879
301.87
301.867
301.863
301.856
301.845
301.827
301.802
301.764
301.703
301.601
301.426
301.145
300.799
300.919
301.347
301.758
302.114
301.936
301.894
301.881
301.87
301.868
301.866
301.862
301.855
301.841
301.818
301.782
301.727
301.643
301.518
301.346
301.2
301.366
301.64
301.94
302.209
301.936
301.896
301.882
301.87
301.869
301.868
301.867
301.865
301.858
301.845
301.821
301.783
301.728
301.652
301.569
301.529
301.683
301.871
302.076
302.274
301.939
301.898
301.884
301.87
301.869
301.87
301.871
301.873
301.873
301.869
301.86
301.844
301.818
301.787
301.764
301.797
301.898
302.033
302.172
302.318
301.943
301.9
301.885
301.87
301.869
301.871
301.873
301.878
301.882
301.886
301.889
301.89
301.891
301.893
301.912
301.962
302.036
302.133
302.232
302.344
301.948
301.902
301.887
301.87
301.87
301.871
301.874
301.88
301.887
301.895
301.904
301.916
301.932
301.957
301.992
302.041
302.108
302.186
302.263
302.358
301.952
301.904
301.888
301.87
301.87
301.871
301.875
301.88
301.888
301.897
301.908
301.923
301.945
301.975
302.015
302.068
302.133
302.206
302.275
302.362
301.957
301.906
301.889
301.87
301.87
301.871
301.874
301.88
301.887
301.896
301.906
301.919
301.938
301.968
302.01
302.066
302.134
302.207
302.274
302.36
301.961
301.909
301.891
301.87
301.869
301.871
301.874
301.879
301.885
301.892
301.9
301.91
301.926
301.953
301.994
302.053
302.124
302.199
302.268
302.355
301.966
301.912
301.894
301.879
301.869
301.87
301.873
301.877
301.882
301.889
301.895
301.902
301.914
301.937
301.976
302.036
302.111
302.19
302.261
302.349
301.971
301.916
301.899
301.892
301.872
301.869
301.871
301.875
301.88
301.885
301.89
301.895
301.904
301.923
301.959
302.019
302.098
302.181
302.255
302.345
301.976
301.923
301.91
301.913
301.881
301.87
301.87
301.873
301.877
301.881
301.885
301.889
301.896
301.911
301.944
302.004
302.088
302.175
302.251
302.343
301.981
301.935
301.929
301.982
301.9
301.875
301.87
301.871
301.874
301.877
301.881
301.884
301.889
301.902
301.931
301.992
302.08
302.173
302.252
302.344
301.988
301.951
301.991
301.957
301.889
301.872
301.87
301.872
301.874
301.877
301.88
301.884
301.895
301.921
301.981
302.075
302.174
302.257
302.349
301.996
302.004
301.969
301.926
301.881
301.87
301.87
301.872
301.874
301.876
301.88
301.889
301.912
301.972
302.072
302.179
302.266
302.358
302.028
301.983
301.939
301.904
301.876
301.869
301.869
301.871
301.873
301.877
301.885
301.906
301.963
302.069
302.185
302.278
302.37
302.082
301.954
301.919
301.891
301.873
301.869
301.869
301.871
301.874
301.882
301.902
301.955
302.064
302.19
302.291
302.384
302.092
301.936
301.905
301.884
301.872
301.869
301.869
301.872
301.88
301.899
301.949
302.055
302.192
302.302
302.398
302.073
301.945
301.913
301.895
301.874
301.87
301.872
301.88
301.9
301.947
302.045
302.188
302.31
302.409
302.255
301.994
302.073
301.937
301.877
301.876
301.886
301.907
301.949
302.037
302.176
302.311
302.415
302.408
302.2
302.14
301.943
301.889
301.899
301.925
301.961
302.033
302.16
302.303
302.416
302.414
302.275
302.143
301.945
301.926
301.959
301.99
302.038
302.146
302.288
302.411
302.431
302.29
302.117
301.98
302.006
302.042
302.061
302.139
302.269
302.401
302.448
302.254
302.11
302.065
302.11
302.107
302.143
302.253
302.388
302.407
302.224
302.154
302.188
302.176
302.165
302.244
302.377
302.368
302.243
302.268
302.261
302.207
302.245
302.37
302.379
302.332
302.348
302.265
302.26
302.37
302.43
302.415
302.331
302.287
302.378
302.484
302.395
302.323
302.394
302.477
302.372
302.415
302.439
302.435
302.478
)
;

boundaryField
{
    floor
    {
        type            wallHeatTransfer;
        Tinf            uniform 305.2;
        alphaWall       uniform 0.36;
        value           nonuniform List<scalar> 
36
(
302.483
302.531
302.499
302.49
302.494
302.508
302.532
302.559
302.587
302.615
302.642
302.669
302.695
302.72
302.746
302.772
302.803
302.833
302.907
302.907
302.78
302.712
302.662
302.579
302.487
302.584
302.483
302.418
302.407
302.403
302.531
302.403
302.379
302.328
302.301
302.281
)
;
    }
    ceiling
    {
        type            wallHeatTransfer;
        Tinf            uniform 303.2;
        alphaWall       uniform 0.36;
        value           nonuniform List<scalar> 
43
(
301.28
301.304
301.348
301.396
301.481
301.701
301.927
302.105
302.233
302.323
302.387
302.432
302.461
302.477
302.483
302.482
302.478
302.473
302.468
302.466
302.466
302.469
302.476
302.485
302.495
302.505
302.512
302.514
302.512
302.504
302.493
302.479
302.466
302.458
302.455
302.459
302.47
302.486
302.502
302.542
304.154
303.986
295.373
)
;
    }
    sWall
    {
        type            wallHeatTransfer;
        Tinf            uniform 315.2;
        alphaWall       uniform 0.54;
        value           nonuniform List<scalar> 9(305.092 305.145 305.252 305.397 305.342 305.571 301.824 302.208 302.811);
    }
    nWall
    {
        type            wallHeatTransfer;
        Tinf            uniform 308.2;
        alphaWall       uniform 0.54;
        value           nonuniform List<scalar> 
14
(
303.451
303.305
303.161
303.175
303.198
303.221
303.154
303.104
303.111
303.181
303.246
303.207
303.12
303.204
)
;
    }
    sideWalls
    {
        type            empty;
    }
    glass1
    {
        type            wallHeatTransfer;
        Tinf            uniform 315.2;
        alphaWall       uniform 4.3;
        value           nonuniform List<scalar> 9(311.738 310.933 310.417 310.015 309.69 309.426 309.192 309.022 309.062);
    }
    glass2
    {
        type            wallHeatTransfer;
        Tinf            uniform 308.2;
        alphaWall       uniform 4.3;
        value           nonuniform List<scalar> 2(305.707 305.599);
    }
    sun
    {
        type            wallHeatTransfer;
        Tinf            uniform 305.2;
        alphaWall       uniform 0.36;
        value           nonuniform List<scalar> 
14
(
302.965
302.675
302.662
302.643
302.627
302.613
302.6
302.587
302.576
302.564
302.551
302.537
302.522
302.503
)
;
    }
    Table_master
    {
        type            zeroGradient;
    }
    Table_slave
    {
        type            zeroGradient;
    }
    inlet
    {
        type            fixedValue;
        value           uniform 293.15;
    }
    outlet
    {
        type            zeroGradient;
    }
}


// ************************************************************************* //
