/*--------------------------------*- C++ -*----------------------------------*\
  =========                 |
  \\      /  F ield         | OpenFOAM: The Open Source CFD Toolbox
   \\    /   O peration     | Website:  https://openfoam.org
    \\  /    A nd           | Version:  6
     \\/     M anipulation  |
\*---------------------------------------------------------------------------*/
FoamFile
{
    version     2.0;
    format      ascii;
    class       volVectorField;
    location    "42099.9999995897742";
    object      U;
}
// * * * * * * * * * * * * * * * * * * * * * * * * * * * * * * * * * * * * * //

dimensions      [0 1 -1 0 0 0 0];

internalField   nonuniform List<vector> 
778
(
(0.0656026 0.0794065 0)
(-0.155173 0.0157636 0)
(-0.164297 0.0146224 0)
(-0.19241 0.0122713 0)
(-0.21684 0.00871985 0)
(-0.236892 0.00473785 0)
(-0.252009 0.000410411 0)
(-0.261769 -0.00437472 0)
(-0.265658 -0.00981596 0)
(-0.262675 -0.0161938 0)
(-0.250868 -0.0242641 0)
(-0.22617 -0.0348784 0)
(-0.186058 -0.0503934 0)
(-0.144137 -0.0751539 0)
(-0.150021 -0.108532 0)
(0.0546896 0.0354622 0)
(0.0158275 -0.0268823 0)
(0.0450373 -0.0232672 0)
(0.0694614 -0.0161634 0)
(0.0845361 -0.0103565 0)
(0.0917513 -0.00641673 0)
(0.0945881 -0.00433997 0)
(0.0956271 -0.00331824 0)
(0.0960891 -0.00273064 0)
(0.0962663 -0.00231625 0)
(0.0961435 -0.00195063 0)
(0.0956157 -0.00150936 0)
(0.0943549 -0.000754937 0)
(0.0915028 0.000850237 0)
(0.0852887 0.00407634 0)
(0.0737286 0.00778825 0)
(0.0600398 0.0116359 0)
(-0.00789494 0.0300222 0)
(0.258405 0.167391 0)
(-0.161233 0.0483881 0)
(-0.141597 0.0459757 0)
(-0.173998 0.0416076 0)
(-0.199355 0.0356575 0)
(-0.220068 0.0291156 0)
(-0.236087 0.0220422 0)
(-0.247328 0.0142114 0)
(-0.253492 0.00528042 0)
(-0.2538 -0.00516616 0)
(-0.24764 -0.0170912 0)
(-0.233933 -0.0308527 0)
(-0.214027 -0.0480709 0)
(-0.197452 -0.0699455 0)
(-0.193936 -0.0826183 0)
(-0.166339 -0.0425301 0)
(-0.105316 -0.0363431 0)
(-0.0983235 -0.0444346 0)
(0.10936 -0.0421762 0)
(0.0645136 -0.0412252 0)
(0.071993 -0.0323114 0)
(0.0860053 -0.0207507 0)
(0.0939363 -0.0104949 0)
(0.0961851 -0.00364349 0)
(0.0959438 -0.000201225 0)
(0.0955508 0.00123768 0)
(0.095513 0.00188521 0)
(0.0955946 0.00226293 0)
(0.0956034 0.0025895 0)
(0.0955045 0.00313468 0)
(0.0952138 0.00441775 0)
(0.0939554 0.00773677 0)
(0.0883522 0.0167813 0)
(0.0745742 0.0253841 0)
(0.0632114 0.0330213 0)
(-0.0519401 0.0636889 0)
(0.429989 0.25395 0)
(-0.194234 0.0847525 0)
(-0.11277 0.0784238 0)
(-0.148232 0.0669425 0)
(-0.170658 0.0554813 0)
(-0.188745 0.0437035 0)
(-0.202572 0.0313171 0)
(-0.212254 0.0179799 0)
(-0.217594 0.00337426 0)
(-0.217942 -0.0126509 0)
(-0.212679 -0.030336 0)
(-0.201568 -0.0499131 0)
(-0.185924 -0.071566 0)
(-0.169381 -0.0932016 0)
(-0.151004 -0.104543 0)
(-0.120168 -0.0931111 0)
(-0.079488 -0.0948914 0)
(-0.0714107 -0.107524 0)
(0.0921666 -0.0882659 0)
(0.0626155 -0.0658396 0)
(0.0744392 -0.0461993 0)
(0.0881024 -0.0293146 0)
(0.0949874 -0.0149801 0)
(0.092117 -0.0120149 0)
(0.0878766 -0.00793511 0)
(0.0855046 -0.00577772 0)
(0.0848052 -0.0045638 0)
(0.0847728 -0.00380357 0)
(0.0850235 -0.00322964 0)
(0.0856764 -0.00259986 0)
(0.0874417 -0.00143808 0)
(0.0921343 0.0029246 0)
(0.0902968 0.0251297 0)
(0.0734733 0.0424261 0)
(0.0702132 0.0575739 0)
(-0.0899946 0.101111 0)
(0.578561 0.325834 0)
(-0.240107 0.1218 0)
(-0.0808233 0.109209 0)
(-0.12156 0.0898356 0)
(-0.138988 0.0740449 0)
(-0.153043 0.0586051 0)
(-0.163796 0.0427173 0)
(-0.171382 0.0257716 0)
(-0.175583 0.0071621 0)
(-0.175638 -0.0135609 0)
(-0.170942 -0.03649 0)
(-0.161366 -0.061465 0)
(-0.147489 -0.0873722 0)
(-0.130496 -0.110292 0)
(-0.109523 -0.123182 0)
(-0.0820317 -0.124507 0)
(-0.0524068 -0.126317 0)
(-0.0332586 -0.123133 0)
(0.016534 -0.0568048 0)
(0.0609465 -0.0930838 0)
(0.0685611 -0.0792578 0)
(0.0791597 -0.0588929 0)
(0.0916446 -0.039654 0)
(0.102971 -0.0210004 0)
(0.115719 -0.0132278 0)
(0.126918 -0.00882112 0)
(0.132555 -0.0056112 0)
(0.133576 -0.00311052 0)
(0.13109 -0.000891578 0)
(0.125664 0.00127701 0)
(0.117163 0.00366224 0)
(0.104816 0.00672595 0)
(0.0855541 0.0111691 0)
(0.0716552 0.0368751 0)
(0.0603314 0.0606549 0)
(0.0764526 0.0835055 0)
(-0.117783 0.137471 0)
(0.705746 0.383671 0)
(-0.287688 0.156991 0)
(-0.0476835 0.133763 0)
(-0.0962757 0.106897 0)
(-0.107721 0.0875688 0)
(-0.11675 0.0691412 0)
(-0.123536 0.0504098 0)
(-0.128191 0.0305463 0)
(-0.130544 0.00868193 0)
(-0.129728 -0.0158575 0)
(-0.125219 -0.0431059 0)
(-0.116583 -0.072702 0)
(-0.103842 -0.102834 0)
(-0.0873416 -0.129089 0)
(-0.0673626 -0.145774 0)
(-0.0439944 -0.152234 0)
(-0.0201179 -0.152318 0)
(0.000438494 -0.143662 0)
(0.0309523 -0.114988 0)
(0.0570979 -0.109377 0)
(0.070646 -0.092476 0)
(0.0807543 -0.07131 0)
(0.0907985 -0.0508614 0)
(0.100348 -0.0328256 0)
(0.10947 -0.0194365 0)
(0.116526 -0.0100603 0)
(0.119991 -0.00337137 0)
(0.120235 0.00187862 0)
(0.117865 0.0064252 0)
(0.113251 0.010785 0)
(0.106414 0.0154708 0)
(0.0972815 0.0211843 0)
(0.0853497 0.0292234 0)
(0.0737732 0.0472785 0)
(0.0632375 0.0713839 0)
(0.0949332 0.0995484 0)
(0.0169289 0.138628 0)
(0.09657 0.182885 0)
(0.1408 0.144419 0)
(-0.218825 0.2015 0)
(0.810457 0.431962 0)
(-0.331331 0.190656 0)
(-0.0173014 0.150224 0)
(-0.0733492 0.117496 0)
(-0.078569 0.0954841 0)
(-0.0821875 0.074913 0)
(-0.0844406 0.0543051 0)
(-0.0854776 0.0326775 0)
(-0.0852212 0.00881617 0)
(-0.0825432 -0.0184512 0)
(-0.0773688 -0.049058 0)
(-0.0687246 -0.0825273 0)
(-0.0566975 -0.116528 0)
(-0.0415918 -0.146334 0)
(-0.0245567 -0.166012 0)
(-0.00612494 -0.174486 0)
(0.0122769 -0.172703 0)
(0.0281986 -0.160948 0)
(0.0463448 -0.139279 0)
(0.0627605 -0.122325 0)
(0.0733899 -0.1025 0)
(0.0810297 -0.0804688 0)
(0.0877616 -0.059143 0)
(0.093932 -0.0402827 0)
(0.0992732 -0.0251192 0)
(0.102992 -0.0137778 0)
(0.104639 -0.00510183 0)
(0.104263 0.00207714 0)
(0.102162 0.00854014 0)
(0.0985808 0.0148105 0)
(0.0936683 0.0214187 0)
(0.0876468 0.0289989 0)
(0.0807706 0.0384615 0)
(0.0749816 0.0529474 0)
(0.0696665 0.0729974 0)
(0.0918032 0.0987269 0)
(0.0736985 0.107403 0)
(0.0906495 0.047445 0)
(0.146727 -0.0363315 0)
(-0.324855 0.108057 0)
(0.879925 0.474672 0)
(-0.368655 0.220934 0)
(0.00373267 0.155523 0)
(-0.0526411 0.12154 0)
(-0.0521809 0.097822 0)
(-0.0509976 0.0757897 0)
(-0.0489934 0.054009 0)
(-0.0464797 0.0314977 0)
(-0.043297 0.00673408 0)
(-0.0373415 -0.0223362 0)
(-0.0302639 -0.0554036 0)
(-0.0204608 -0.0919818 0)
(-0.00861324 -0.128949 0)
(0.00465879 -0.161313 0)
(0.0177734 -0.18193 0)
(0.0306085 -0.190224 0)
(0.0424434 -0.187189 0)
(0.0527525 -0.174344 0)
(0.0626983 -0.15398 0)
(0.0712308 -0.132333 0)
(0.0767038 -0.109338 0)
(0.0801144 -0.0858638 0)
(0.082674 -0.0637153 0)
(0.0848894 -0.0442451 0)
(0.0867216 -0.0281761 0)
(0.0878375 -0.0154152 0)
(0.088011 -0.00518125 0)
(0.0870924 0.00344959 0)
(0.0852594 0.0111667 0)
(0.0826528 0.0185002 0)
(0.0794373 0.0259566 0)
(0.0758782 0.0340414 0)
(0.0723622 0.043308 0)
(0.070252 0.0550337 0)
(0.068913 0.069572 0)
(0.0818656 0.0885854 0)
(0.0849552 0.0915986 0)
(0.0906417 0.0536146 0)
(0.182017 0.0262916 0)
(-0.280137 0.156816 0)
(0.927964 0.517131 0)
(-0.383172 0.234123 0)
(0.0169074 0.132914 0)
(-0.0272998 0.116611 0)
(-0.0265183 0.0948858 0)
(-0.0227069 0.072394 0)
(-0.0175946 0.0500692 0)
(-0.0123235 0.0272162 0)
(-0.00536905 0.00182819 0)
(0.00460051 -0.0307737 0)
(0.0143244 -0.0653728 0)
(0.0256447 -0.103401 0)
(0.0373285 -0.140952 0)
(0.0480575 -0.172241 0)
(0.0572024 -0.192412 0)
(0.0647375 -0.199846 0)
(0.0704823 -0.19536 0)
(0.0744351 -0.181106 0)
(0.077107 -0.159985 0)
(0.078419 -0.135981 0)
(0.0779993 -0.110983 0)
(0.0764339 -0.086489 0)
(0.0745621 -0.0639654 0)
(0.0729162 -0.0444104 0)
(0.0716397 -0.0282017 0)
(0.0706017 -0.0150569 0)
(0.0696065 -0.00427363 0)
(0.0683647 0.00493162 0)
(0.0669748 0.0131499 0)
(0.0654023 0.0208778 0)
(0.063713 0.0285525 0)
(0.0620727 0.0365368 0)
(0.0607541 0.0451221 0)
(0.0605911 0.0547581 0)
(0.0613974 0.0653407 0)
(0.0699226 0.0783 0)
(0.0796839 0.0808135 0)
(0.0807451 0.0594926 0)
(0.239831 0.0550253 0)
(-0.541903 0.234246 0)
(1.01132 0.506773 0)
(-0.137107 0.296307 0)
(0.0411034 0.161464 0)
(0.0406528 0.122018 0)
(0.0131346 0.0919145 0)
(0.00871508 0.0653128 0)
(0.0141412 0.0413425 0)
(0.0207666 0.0169341 0)
(0.0325673 -0.0110625 0)
(0.0440311 -0.042191 0)
(0.0559117 -0.0769709 0)
(0.0682124 -0.114737 0)
(0.0793893 -0.151239 0)
(0.0879365 -0.180715 0)
(0.0932002 -0.198711 0)
(0.0952836 -0.203813 0)
(0.0945882 -0.197084 0)
(0.0916579 -0.180965 0)
(0.0871692 -0.15852 0)
(0.0815759 -0.133069 0)
(0.0751779 -0.107046 0)
(0.0685826 -0.082269 0)
(0.0625208 -0.060088 0)
(0.0575224 -0.0412271 0)
(0.0537894 -0.0257726 0)
(0.0512283 -0.0132265 0)
(0.0495728 -0.00280664 0)
(0.0484257 0.0061924 0)
(0.0477418 0.0142865 0)
(0.0472845 0.0219314 0)
(0.0469843 0.0294829 0)
(0.0468603 0.037186 0)
(0.0469929 0.0451721 0)
(0.0477362 0.0535212 0)
(0.0489277 0.0618274 0)
(0.0539405 0.0700781 0)
(0.0630242 0.0672299 0)
(0.058441 0.035195 0)
(0.286998 0.0694621 0)
(-0.756095 0.308431 0)
(0.779332 0.395596 0)
(0.000961545 0.319426 0)
(0.0934338 0.218859 0)
(0.11067 0.155094 0)
(0.0772377 0.106736 0)
(0.0598556 0.0674597 0)
(0.0582766 0.0356823 0)
(0.0624483 0.00634243 0)
(0.073877 -0.0234969 0)
(0.0854542 -0.0551075 0)
(0.0976641 -0.0898451 0)
(0.109556 -0.126404 0)
(0.118967 -0.160234 0)
(0.124111 -0.185962 0)
(0.124379 -0.199997 0)
(0.120191 -0.201512 0)
(0.112493 -0.191892 0)
(0.102352 -0.173708 0)
(0.0908108 -0.150008 0)
(0.0787083 -0.123835 0)
(0.0667382 -0.0977306 0)
(0.0556381 -0.0736058 0)
(0.0461443 -0.0527113 0)
(0.0387461 -0.0354929 0)
(0.0335688 -0.0217398 0)
(0.0303906 -0.0106675 0)
(0.0287573 -0.00135294 0)
(0.0281985 0.00685318 0)
(0.0284207 0.0144166 0)
(0.0290757 0.0217242 0)
(0.0300064 0.0290376 0)
(0.0311059 0.0365298 0)
(0.0322401 0.0443034 0)
(0.0332264 0.052428 0)
(0.0330309 0.0607454 0)
(0.0312185 0.0693636 0)
(0.015783 0.073054 0)
(0.00236067 0.103463 0)
(0.011749 0.177064 0)
(-0.643193 0.295344 0)
(0.617246 0.220607 0)
(0.0047336 0.298013 0)
(0.113053 0.241482 0)
(0.148338 0.177466 0)
(0.130916 0.123398 0)
(0.117899 0.0777189 0)
(0.115043 0.0387822 0)
(0.117216 0.00329754 0)
(0.123585 -0.0308052 0)
(0.131818 -0.0650929 0)
(0.141521 -0.100616 0)
(0.15043 -0.135549 0)
(0.155597 -0.16548 0)
(0.155086 -0.186032 0)
(0.148575 -0.194882 0)
(0.136959 -0.192061 0)
(0.121702 -0.179334 0)
(0.104303 -0.159297 0)
(0.0861314 -0.13488 0)
(0.0682865 -0.108877 0)
(0.0517138 -0.083779 0)
(0.0372875 -0.0614488 0)
(0.025772 -0.0429923 0)
(0.017488 -0.0284752 0)
(0.0122731 -0.0173065 0)
(0.00950875 -0.00832024 0)
(0.00849109 -0.000517868 0)
(0.00877176 0.00664116 0)
(0.00985567 0.0135253 0)
(0.011462 0.0204058 0)
(0.0134293 0.0274514 0)
(0.0156082 0.0348159 0)
(0.0177818 0.0427 0)
(0.0196035 0.0514598 0)
(0.0200714 0.0617665 0)
(0.018374 0.0756218 0)
(-0.00319235 0.0982441 0)
(-0.0048544 0.152934 0)
(0.0601911 0.185577 0)
(-0.543973 0.16064 0)
(0.570782 0.118236 0)
(-0.0203385 0.258514 0)
(0.113688 0.229819 0)
(0.165046 0.17596 0)
(0.166735 0.126057 0)
(0.164421 0.0809674 0)
(0.165427 0.0398505 0)
(0.168364 0.00152032 0)
(0.172321 -0.0354833 0)
(0.177895 -0.0720031 0)
(0.184076 -0.107709 0)
(0.187794 -0.139828 0)
(0.186024 -0.164449 0)
(0.17738 -0.178714 0)
(0.162303 -0.181815 0)
(0.142333 -0.174652 0)
(0.1194 -0.159277 0)
(0.0952531 -0.138151 0)
(0.0714814 -0.114015 0)
(0.0492896 -0.0893599 0)
(0.0298415 -0.0666011 0)
(0.0141278 -0.0474732 0)
(0.00281273 -0.0327784 0)
(-0.00441033 -0.0218055 0)
(-0.00821829 -0.0137245 0)
(-0.00993187 -0.00688911 0)
(-0.0101919 -0.000564889 0)
(-0.00927601 0.00557748 0)
(-0.0076237 0.0117583 0)
(-0.00536554 0.0181328 0)
(-0.00263431 0.0248082 0)
(0.000477019 0.0319942 0)
(0.00382544 0.0399608 0)
(0.0072331 0.0492469 0)
(0.0103241 0.0612926 0)
(0.0134725 0.0797802 0)
(0.00330384 0.112426 0)
(-0.00890947 0.175312 0)
(0.162804 0.199184 0)
(-0.443609 0.112107 0)
(0.628444 0.0535726 0)
(0.00895277 0.197246 0)
(0.113699 0.196872 0)
(0.175042 0.157806 0)
(0.191339 0.117532 0)
(0.198042 0.0771118 0)
(0.203408 0.0371267 0)
(0.208626 -0.00163022 0)
(0.213121 -0.0397532 0)
(0.21742 -0.0766233 0)
(0.219243 -0.110095 0)
(0.21543 -0.136987 0)
(0.204087 -0.154651 0)
(0.185301 -0.162059 0)
(0.160687 -0.159759 0)
(0.132408 -0.149165 0)
(0.102698 -0.132361 0)
(0.0732557 -0.111464 0)
(0.0458457 -0.089021 0)
(0.0215867 -0.0671898 0)
(0.0020617 -0.0483728 0)
(-0.0118356 -0.0341427 0)
(-0.0200776 -0.0246198 0)
(-0.0247884 -0.0175587 0)
(-0.0271536 -0.0117545 0)
(-0.0280131 -0.00642452 0)
(-0.0277418 -0.00121153 0)
(-0.0264512 0.00407221 0)
(-0.0244572 0.00956275 0)
(-0.0217966 0.0153695 0)
(-0.0185981 0.0215748 0)
(-0.0149584 0.0283296 0)
(-0.0109241 0.0359139 0)
(-0.00645685 0.0448804 0)
(-0.00177323 0.0571603 0)
(0.00255959 0.0787706 0)
(0.000784796 0.111613 0)
(-0.0104433 0.159609 0)
(0.195912 0.189985 0)
(-0.365693 0.164167 0)
(0.472602 0.0748497 0)
(-0.132327 0.137488 0)
(0.0941441 0.133132 0)
(0.172627 0.116597 0)
(0.203776 0.0951204 0)
(0.21811 0.0641788 0)
(0.228127 0.028209 0)
(0.237194 -0.00908253 0)
(0.243545 -0.0453863 0)
(0.245024 -0.0783426 0)
(0.239032 -0.105287 0)
(0.224217 -0.12412 0)
(0.201101 -0.13394 0)
(0.171604 -0.135165 0)
(0.13831 -0.129038 0)
(0.103514 -0.116838 0)
(0.0695036 -0.10043 0)
(0.037459 -0.0814494 0)
(0.00972041 -0.0624244 0)
(-0.0132122 -0.0451459 0)
(-0.0277143 -0.0334968 0)
(-0.0367436 -0.0255103 0)
(-0.0419682 -0.0197278 0)
(-0.0449184 -0.0149595 0)
(-0.0463315 -0.0106631 0)
(-0.0466003 -0.00648261 0)
(-0.0459092 -0.00222032 0)
(-0.0442718 0.00226583 0)
(-0.0420035 0.00707243 0)
(-0.0390803 0.0123102 0)
(-0.035687 0.0180849 0)
(-0.0320519 0.0245336 0)
(-0.028431 0.0319051 0)
(-0.0250834 0.040938 0)
(-0.0230255 0.0547342 0)
(-0.0244505 0.0781371 0)
(-0.0272786 0.103795 0)
(-0.0252908 0.122578 0)
(0.179099 0.168779 0)
(-0.434849 0.224312 0)
(0.724052 0.134549 0)
(0.0819489 0.115269 0)
(0.149751 0.0990998 0)
(0.222373 0.0802529 0)
(0.244061 0.069637 0)
(0.248897 0.0473977 0)
(0.255201 0.0173629 0)
(0.261267 -0.014785 0)
(0.260232 -0.0447387 0)
(0.249681 -0.0695992 0)
(0.229392 -0.0876427 0)
(0.200952 -0.0983509 0)
(0.166756 -0.101982 0)
(0.129373 -0.0995107 0)
(0.0913116 -0.0921823 0)
(0.0540315 -0.0806772 0)
(0.0201796 -0.0666321 0)
(-0.0106661 -0.051165 0)
(-0.0327785 -0.038884 0)
(-0.0476421 -0.0301674 0)
(-0.0567454 -0.0244323 0)
(-0.0623555 -0.0201659 0)
(-0.0657813 -0.0166251 0)
(-0.0677685 -0.0133672 0)
(-0.0686223 -0.0102158 0)
(-0.0684793 -0.00702383 0)
(-0.0674029 -0.00363953 0)
(-0.0653734 0.000112386 0)
(-0.0627316 0.00431647 0)
(-0.0595361 0.00909586 0)
(-0.0559887 0.0146708 0)
(-0.0525608 0.0213087 0)
(-0.0499586 0.0295466 0)
(-0.0488273 0.0407546 0)
(-0.0501443 0.0581774 0)
(-0.0583605 0.08437 0)
(-0.07306 0.110622 0)
(-0.0667322 0.126243 0)
(-0.0217018 0.166587 0)
(-0.520636 0.220927 0)
(0.192229 0.0878952 0)
(0.226009 0.099557 0)
(0.246747 0.0698382 0)
(0.24279 0.0395567 0)
(0.23988 0.0120367 0)
(0.234791 -0.0128094 0)
(0.219989 -0.0332161 0)
(0.196193 -0.0484029 0)
(0.165758 -0.0583314 0)
(0.131162 -0.0634179 0)
(0.0942323 -0.0639368 0)
(0.056993 -0.060618 0)
(0.0214084 -0.0543105 0)
(-0.0131047 -0.0451359 0)
(-0.039845 -0.0362866 0)
(-0.0599072 -0.028994 0)
(-0.0734071 -0.0241514 0)
(-0.0822055 -0.0208763 0)
(-0.0880008 -0.0184576 0)
(-0.0920204 -0.0162458 0)
(-0.094808 -0.0140991 0)
(-0.0965834 -0.0119884 0)
(-0.0974153 -0.00987981 0)
(-0.0973142 -0.00767898 0)
(-0.0962586 -0.0052314 0)
(-0.0942008 -0.00232636 0)
(-0.0909966 0.00125122 0)
(-0.0872253 0.00563255 0)
(-0.0828478 0.0111165 0)
(-0.0783388 0.0182392 0)
(-0.0744591 0.0278254 0)
(-0.0715165 0.0414101 0)
(-0.0690086 0.0616774 0)
(-0.0706307 0.0913882 0)
(-0.0805685 0.127603 0)
(-0.0644699 0.155137 0)
(-0.0535209 0.146692 0)
(-0.581237 0.0721439 0)
(0.451738 0.209068 0)
(0.20736 0.178423 0)
(0.153461 0.118629 0)
(0.140056 0.064 0)
(0.12847 0.0259983 0)
(0.114177 0.0020147 0)
(0.0987591 -0.0126855 0)
(0.0776078 -0.0218542 0)
(0.0527889 -0.0276068 0)
(0.0255028 -0.0303263 0)
(-0.00442229 -0.0299378 0)
(-0.0333089 -0.0274347 0)
(-0.0587263 -0.0240614 0)
(-0.0797016 -0.0208106 0)
(-0.0950577 -0.0186997 0)
(-0.105775 -0.0172449 0)
(-0.113215 -0.0161216 0)
(-0.118838 -0.014754 0)
(-0.123415 -0.0130987 0)
(-0.127217 -0.0113021 0)
(-0.130268 -0.00955972 0)
(-0.132537 -0.00799313 0)
(-0.133985 -0.00664212 0)
(-0.134547 -0.00547604 0)
(-0.134101 -0.00439386 0)
(-0.132442 -0.0031882 0)
(-0.129293 -0.00149675 0)
(-0.124284 0.00118002 0)
(-0.117841 0.0054047 0)
(-0.110551 0.0118527 0)
(-0.102724 0.0215253 0)
(-0.09436 0.035773 0)
(-0.0836657 0.0562822 0)
(-0.0694936 0.0849997 0)
(-0.0559315 0.123809 0)
(-0.0304594 0.169023 0)
(0.114017 0.161627 0)
(-0.454825 0.0286307 0)
(0.363327 -0.41277 0)
(-0.345289 -0.512331 0)
(-0.218567 -0.0288519 0)
(-0.0922966 0.11064 0)
(-0.0532279 0.0926601 0)
(-0.0310132 0.0548789 0)
(-0.0262957 0.0288803 0)
(-0.031437 0.0122331 0)
(-0.0404987 0.00144278 0)
(-0.0511253 -0.00570733 0)
(-0.0648082 -0.0102056 0)
(-0.0802681 -0.0127812 0)
(-0.0961747 -0.0146327 0)
(-0.111211 -0.0168084 0)
(-0.124104 -0.0194312 0)
(-0.13385 -0.0222051 0)
(-0.140613 -0.0247441 0)
(-0.145678 -0.0265159 0)
(-0.150213 -0.0275897 0)
(-0.154762 -0.0281367 0)
(-0.159335 -0.0282974 0)
(-0.163727 -0.0281313 0)
(-0.167706 -0.027655 0)
(-0.171079 -0.0268646 0)
(-0.173699 -0.025754 0)
(-0.175425 -0.0243163 0)
(-0.176058 -0.0225244 0)
(-0.175287 -0.0202927 0)
(-0.172686 -0.0174167 0)
(-0.167802 -0.0134972 0)
(-0.160264 -0.00789459 0)
(-0.149952 0.000231999 0)
(-0.137572 0.0116488 0)
(-0.123735 0.0265451 0)
(-0.106168 0.0446933 0)
(-0.081424 0.0660081 0)
(-0.0488611 0.0909031 0)
(-0.00913493 0.124037 0)
(0.17103 0.131401 0)
(-0.401179 0.0861544 0)
(0.125234 -0.184211 0)
(-0.386957 -0.297053 0)
(-0.342605 -0.0968956 0)
(-0.2644 0.0510721 0)
(-0.210747 0.0834245 0)
(-0.178618 0.074643 0)
(-0.162308 0.0612421 0)
(-0.156272 0.051302 0)
(-0.156311 0.0460912 0)
(-0.159573 0.0453714 0)
(-0.164136 0.0482766 0)
(-0.168329 0.0534833 0)
(-0.171516 0.0595983 0)
(-0.173565 0.0644139 0)
(-0.175137 0.0658111 0)
(-0.176925 0.0650761 0)
(-0.179489 0.0640886 0)
(-0.182813 0.064117 0)
(-0.186557 0.0650796 0)
(-0.190383 0.0663409 0)
(-0.194048 0.0672937 0)
(-0.1974 0.0675316 0)
(-0.200353 0.0668364 0)
(-0.202847 0.0651315 0)
(-0.204835 0.0623957 0)
(-0.206256 0.058562 0)
(-0.207019 0.0534825 0)
(-0.206979 0.0470362 0)
(-0.205943 0.0393551 0)
(-0.203682 0.0310213 0)
(-0.199903 0.0230623 0)
(-0.194144 0.016723 0)
(-0.185375 0.0131309 0)
(-0.171706 0.0129895 0)
(-0.15365 0.0151394 0)
(-0.129243 0.0171045 0)
(-0.0923377 0.0161445 0)
(-0.0388411 0.0191425 0)
(0.176479 0.0706544 0)
(-0.413007 0.142607 0)
(1.14634 -0.0109798 0)
(-0.294121 -0.322056 0)
(-0.352405 -0.233087 0)
(-0.351804 -0.148754 0)
(-0.328195 -0.107366 0)
(-0.296473 -0.0986408 0)
(-0.268955 -0.100654 0)
(-0.248732 -0.106138 0)
(-0.234872 -0.113574 0)
(-0.22543 -0.123095 0)
(-0.21876 -0.135218 0)
(-0.213885 -0.150031 0)
(-0.21042 -0.166136 0)
(-0.208446 -0.180291 0)
(-0.208417 -0.18901 0)
(-0.210684 -0.192817 0)
(-0.214665 -0.193133 0)
(-0.21937 -0.191763 0)
(-0.223941 -0.189876 0)
(-0.22794 -0.187916 0)
(-0.231296 -0.185906 0)
(-0.23417 -0.183693 0)
(-0.236834 -0.181059 0)
(-0.239585 -0.177776 0)
(-0.242707 -0.173638 0)
(-0.246483 -0.168475 0)
(-0.251259 -0.162143 0)
(-0.257476 -0.154459 0)
(-0.265582 -0.145124 0)
(-0.275742 -0.133668 0)
(-0.287429 -0.119536 0)
(-0.299137 -0.102287 0)
(-0.308539 -0.081841 0)
(-0.313025 -0.058779 0)
(-0.309617 -0.0346908 0)
(-0.297682 -0.0124511 0)
(-0.272982 0.0084218 0)
(-0.225626 0.0368785 0)
(-0.197995 0.0865424 0)
(-0.5738 0.15082 0)
)
;

boundaryField
{
    floor
    {
        type            noSlip;
    }
    ceiling
    {
        type            noSlip;
    }
    sWall
    {
        type            noSlip;
    }
    nWall
    {
        type            noSlip;
    }
    sideWalls
    {
        type            empty;
    }
    glass1
    {
        type            noSlip;
    }
    glass2
    {
        type            noSlip;
    }
    sun
    {
        type            noSlip;
    }
    Table_master
    {
        type            noSlip;
    }
    Table_slave
    {
        type            noSlip;
    }
    inlet
    {
        type            fixedValue;
        value           uniform (0.5 0 0);
    }
    outlet
    {
        type            zeroGradient;
    }
}


// ************************************************************************* //
