/*--------------------------------*- C++ -*----------------------------------*\
  =========                 |
  \\      /  F ield         | OpenFOAM: The Open Source CFD Toolbox
   \\    /   O peration     | Website:  https://openfoam.org
    \\  /    A nd           | Version:  6
     \\/     M anipulation  |
\*---------------------------------------------------------------------------*/
FoamFile
{
    version     2.0;
    format      ascii;
    class       volScalarField;
    location    "27499.9999985318536";
    object      nut;
}
// * * * * * * * * * * * * * * * * * * * * * * * * * * * * * * * * * * * * * //

dimensions      [0 2 -1 0 0 0 0];

internalField   nonuniform List<scalar> 
778
(
0.00089434
0.000953093
0.000949599
0.000990788
0.00102853
0.0010628
0.00109471
0.00112546
0.00115643
0.00118935
0.00122074
0.00125058
0.00127998
0.0013116
0.0013446
0.000632182
0.000905612
0.000912913
0.000890808
0.000853818
0.000804379
0.000755134
0.000709808
0.000668971
0.000632359
0.000599726
0.000570408
0.000543694
0.000518757
0.000494488
0.000469112
0.000448032
0.000405554
0.00131083
0.00258127
0.00226516
0.00261455
0.00286807
0.00313678
0.00340477
0.00365168
0.0038504
0.00396608
0.00403407
0.00400606
0.00380634
0.00331148
0.00241852
0.00147228
0.00140368
0.00134366
0.0011313
0.00192703
0.00267125
0.00311088
0.00313146
0.00247084
0.00211322
0.00186523
0.00167692
0.00152717
0.00139957
0.00128679
0.00118183
0.00107915
0.000987
0.000907552
0.00102207
0.000514225
0.0016641
0.00360464
0.00267226
0.0038225
0.00427132
0.00465103
0.00499578
0.00529909
0.00555598
0.00575739
0.00595253
0.00615797
0.0063469
0.0064596
0.00638559
0.00584739
0.00427691
0.00164822
0.00142675
0.00305161
0.00425957
0.00483192
0.00439554
0.00115986
0.00100858
0.000891806
0.000800403
0.000727662
0.000668962
0.000621102
0.000582188
0.000551855
0.000606608
0.000713531
0.00112951
0.000585079
0.00200536
0.00485886
0.00255728
0.00429814
0.0049628
0.00531841
0.0055798
0.00577307
0.00591718
0.00603391
0.00619989
0.00648053
0.00689026
0.00740573
0.00792416
0.00818008
0.00768254
0.00573438
0.00164117
0.00379679
0.00565011
0.0065938
0.00682834
0.00583124
0.00132029
0.00120101
0.00110866
0.0010318
0.00096628
0.000907433
0.000851962
0.000796887
0.000737426
0.000688824
0.000713829
0.0012223
0.000644386
0.00234214
0.00643381
0.00258046
0.004086
0.00510799
0.00541146
0.00552174
0.00552611
0.0054712
0.00542243
0.00549169
0.00576422
0.00626467
0.00697358
0.00779574
0.00855316
0.00903313
0.0090267
0.00810015
0.00824034
0.00842932
0.00845693
0.00828646
0.00775777
0.00617511
0.00533482
0.00475908
0.00429174
0.00383277
0.00338788
0.00295253
0.00251775
0.00207123
0.00159109
0.00121435
0.00121221
0.000959641
0.000768228
0.00100967
0.000972316
0.00267381
0.00819723
0.00303853
0.0034457
0.00489433
0.00523121
0.00520472
0.00501766
0.00475
0.00452909
0.00452399
0.00480969
0.00538016
0.0062024
0.0071642
0.0081249
0.00894136
0.00946269
0.00955694
0.00946044
0.00929267
0.00905529
0.00875032
0.00836212
0.00779497
0.00724819
0.00675151
0.00627174
0.00575315
0.00519904
0.00460707
0.00397236
0.00329094
0.00256811
0.00191426
0.00143748
0.00111662
0.00124608
0.0021585
0.00116441
0.00301239
0.00982873
0.0040499
0.0028232
0.0043977
0.00494845
0.00488792
0.00458512
0.0041456
0.00375888
0.00374772
0.00410877
0.00476222
0.00568201
0.00672728
0.00776135
0.0086504
0.00928656
0.0095787
0.00955538
0.00934547
0.00902798
0.00866461
0.00830218
0.00795158
0.00762965
0.00732708
0.00700438
0.00661423
0.00614443
0.00558821
0.00494298
0.00421114
0.00341139
0.00263031
0.00190396
0.00140328
0.00124837
0.00219539
0.0013697
0.00330375
0.0110654
0.0055228
0.0026891
0.00348334
0.00438655
0.00451326
0.00426469
0.00374472
0.0032193
0.00333863
0.00381652
0.00454788
0.0054961
0.00658254
0.00766512
0.00858724
0.00922705
0.00951704
0.00947824
0.00920703
0.00880734
0.00837746
0.00799622
0.00770237
0.00749239
0.00732853
0.00715057
0.00690263
0.00655559
0.00609599
0.00552104
0.00483599
0.00406119
0.00325646
0.00244853
0.00171922
0.00115194
0.00309957
0.00178119
0.00339344
0.0104829
0.00683844
0.00347915
0.00236232
0.00289329
0.00338698
0.0034297
0.00302871
0.00294427
0.00325035
0.0038127
0.00460416
0.0056104
0.00674947
0.00786532
0.00878373
0.00937355
0.00957987
0.00943621
0.00904316
0.00852759
0.00801578
0.00760734
0.00734816
0.00722096
0.00716315
0.00709456
0.00695155
0.00670051
0.00632816
0.00583293
0.00522076
0.00450826
0.00372792
0.00285535
0.00167779
0.0014512
0.00464443
0.00204838
0.00332464
0.00845632
0.00706663
0.00477792
0.00315486
0.00244179
0.00231167
0.00242022
0.00262421
0.00294852
0.00340849
0.00404172
0.00490299
0.00598829
0.00718931
0.00832033
0.00918985
0.00966736
0.00971597
0.00939326
0.00882564
0.00817173
0.00758728
0.00718669
0.00700336
0.0069821
0.00702158
0.0070205
0.00692708
0.00672297
0.00640201
0.00596339
0.00541023
0.0047483
0.00395336
0.00272576
0.00123926
0.00285019
0.00443497
0.00206803
0.00311417
0.00722921
0.00683471
0.00546945
0.00420854
0.00338757
0.00298136
0.00288928
0.00305723
0.0033664
0.00381591
0.00448438
0.00543561
0.00662521
0.00788642
0.00899195
0.00973954
0.0100158
0.00981835
0.00924498
0.00846564
0.00768375
0.0070883
0.00678979
0.00675622
0.00685443
0.00695223
0.00695378
0.00685451
0.00665631
0.00635534
0.00594578
0.00542302
0.00477434
0.00389649
0.00228561
0.00143401
0.00321631
0.00417942
0.00203417
0.00283565
0.00651956
0.00659479
0.00579136
0.0049258
0.00427449
0.00389113
0.00375434
0.00378838
0.00397456
0.004387
0.00513369
0.00623299
0.0075492
0.0088348
0.00982634
0.0103336
0.0102876
0.00974429
0.00886156
0.00787478
0.00704822
0.00658044
0.00648818
0.00657241
0.00670107
0.00678401
0.00675968
0.00664419
0.00644451
0.00615296
0.00575069
0.00522168
0.0045371
0.00359344
0.00207844
0.00156919
0.00332754
0.00448003
0.00200338
0.00258613
0.00583389
0.00629928
0.0059188
0.00536277
0.00489603
0.00458582
0.00443405
0.00438827
0.00454673
0.00507041
0.00604595
0.00737469
0.00879622
0.00999352
0.0107059
0.0108009
0.0102902
0.00931734
0.00812271
0.00703657
0.00634232
0.00604403
0.00601606
0.00610587
0.00621498
0.00628006
0.00625774
0.00614128
0.00594106
0.0056427
0.00521431
0.00461655
0.00382823
0.00288859
0.00192559
0.00171714
0.00341271
0.00467742
0.00211628
0.00259511
0.00579049
0.00643752
0.00599164
0.00554119
0.00517253
0.00490665
0.00473309
0.00472398
0.00510985
0.00603434
0.0074156
0.00897025
0.0103364
0.0111992
0.0113786
0.0108609
0.00976843
0.00837177
0.00701652
0.00603744
0.00547552
0.00522483
0.00517047
0.00521501
0.00528376
0.00532762
0.00531214
0.00518981
0.00497122
0.0046237
0.00408985
0.00334802
0.0025309
0.00192957
0.00173096
0.00208058
0.00376789
0.00468282
0.00216886
0.00234225
0.00243565
0.00359224
0.00421915
0.004412
0.00441357
0.00436899
0.00444768
0.00498517
0.00613511
0.00775382
0.00949747
0.0109806
0.0118857
0.0120337
0.0113994
0.0101396
0.00848924
0.00691421
0.0056913
0.00488804
0.00444017
0.00423824
0.00416499
0.00413841
0.00411379
0.00407172
0.004001
0.00385519
0.0036101
0.00323835
0.00271076
0.00213084
0.00174946
0.00171483
0.00200232
0.00267313
0.00425933
0.00500391
0.00217813
0.000807221
0.00146413
0.0022582
0.00289595
0.00363409
0.00489121
0.00674213
0.0087987
0.0106687
0.0120572
0.0127648
0.0126692
0.0117879
0.0102243
0.00837571
0.0066357
0.00527297
0.00437761
0.00389756
0.00366745
0.00354319
0.00344613
0.00334303
0.00322505
0.00309585
0.00296209
0.00282194
0.00263947
0.00240756
0.00212652
0.00188332
0.00183517
0.00206245
0.0025337
0.00321626
0.00408861
0.00461181
0.00208083
0.00149727
0.00207254
0.00302202
0.00472271
0.00704078
0.00937012
0.0111862
0.0124992
0.0132868
0.0134882
0.0130045
0.0117473
0.00992226
0.00789216
0.00606495
0.00473203
0.00397685
0.00363294
0.00348173
0.00339359
0.00331469
0.00322785
0.00313232
0.00303411
0.00293995
0.00285278
0.00276825
0.00267296
0.00256227
0.00244509
0.0023597
0.00239416
0.00263407
0.00308272
0.00364859
0.00411103
0.00414155
0.00202047
0.00275786
0.00667325
0.00612513
0.00546362
0.00694745
0.00928494
0.0112689
0.0126175
0.0133354
0.0135157
0.013227
0.0124343
0.0111057
0.00930605
0.00731761
0.00558485
0.00446974
0.00394368
0.00373942
0.00365075
0.00358449
0.0035087
0.00341785
0.00331771
0.00321916
0.00313479
0.00307604
0.00305005
0.00305624
0.00308125
0.00310346
0.00312724
0.00318049
0.00330569
0.00355804
0.00398209
0.00457797
0.00526359
0.00557295
0.00216098
0.00263902
0.00509449
0.00656229
0.00838304
0.00930989
0.0102787
0.0108517
0.0110013
0.0108014
0.0102994
0.00950528
0.00841136
0.0070768
0.00570646
0.0046004
0.00392993
0.00362464
0.00351142
0.00346835
0.00343595
0.00339028
0.00332539
0.00324476
0.00315754
0.00307734
0.0030216
0.00300948
0.00305762
0.00317424
0.00335129
0.00355045
0.00371518
0.00387421
0.00408301
0.00439427
0.0048507
0.00548089
0.00638779
0.00604727
0.00237505
0.00247343
0.00211997
0.00210952
0.00217123
0.00222249
0.00215718
0.00202846
0.00187631
0.00172103
0.00157026
0.00142706
0.00129661
0.00118867
0.00111344
0.00107319
0.00105987
0.00106065
0.00106743
0.00107632
0.001086
0.00109664
0.00110939
0.00112612
0.00114901
0.00118006
0.00122034
0.00126933
0.00132493
0.00138421
0.00144467
0.00150537
0.00156727
0.00163025
0.00169742
0.00177287
0.00185872
0.00195335
0.0020579
0.00218141
0.00216333
)
;

boundaryField
{
    floor
    {
        type            nutkWallFunction;
        Cmu             0.09;
        kappa           0.41;
        E               9.8;
        value           nonuniform List<scalar> 
36
(
0.000160546
7.63587e-05
0.00010955
0.000110418
0.000107787
0.000103366
9.74225e-05
9.14592e-05
8.59298e-05
8.09116e-05
7.63814e-05
7.23165e-05
6.86416e-05
6.5273e-05
6.211e-05
5.90136e-05
5.57556e-05
5.30324e-05
4.74943e-05
4.74943e-05
6.15329e-05
7.04833e-05
7.7873e-05
9.30504e-05
0.000121867
0.000117464
0.000160546
0.000174996
0.000167249
0.000160437
7.63587e-05
0.000160438
0.00013605
0.000194684
0.000169859
0.000193899
)
;
    }
    ceiling
    {
        type            nutkWallFunction;
        Cmu             0.09;
        kappa           0.41;
        E               9.8;
        value           nonuniform List<scalar> 
43
(
0.000284291
0.000246358
0.000245229
0.000251906
0.000257443
0.00025042
0.000236487
0.000219886
0.000202787
0.000186018
0.000169919
0.000155089
0.000142688
0.000133967
0.000129279
0.000127725
0.000127819
0.000128617
0.00012966
0.000130794
0.000132033
0.00013351
0.000135439
0.000138071
0.000141635
0.000146254
0.000151864
0.00015822
0.000164982
0.000171857
0.000178729
0.000185709
0.000192777
0.000200267
0.000208631
0.000218093
0.000228471
0.000239879
0.000253252
0.000251217
0.000270484
0.000280465
0.0001776
)
;
    }
    sWall
    {
        type            nutkWallFunction;
        Cmu             0.09;
        kappa           0.41;
        E               9.8;
        value           nonuniform List<scalar> 9(0.000373888 0.000352054 0.000322926 0.000296581 0.000297531 0.000270573 0.00031443 0.000301917 0.000284392);
    }
    nWall
    {
        type            nutkWallFunction;
        Cmu             0.09;
        kappa           0.41;
        E               9.8;
        value           nonuniform List<scalar> 
14
(
0.000117472
0.000139908
0.000163433
0.000240876
0.000237216
0.000233937
0.000246319
0.000251941
0.000252829
0.000242221
0.000235704
0.000251376
0.000274043
0.000251255
)
;
    }
    sideWalls
    {
        type            empty;
    }
    glass1
    {
        type            nutkWallFunction;
        Cmu             0.09;
        kappa           0.41;
        E               9.8;
        value           nonuniform List<scalar> 9(0.000108251 0.000156887 0.000196745 0.000234361 0.000270808 0.000306161 0.00034178 0.000372101 0.000381388);
    }
    glass2
    {
        type            nutkWallFunction;
        Cmu             0.09;
        kappa           0.41;
        E               9.8;
        value           nonuniform List<scalar> 2(0.000209588 0.000238867);
    }
    sun
    {
        type            nutkWallFunction;
        Cmu             0.09;
        kappa           0.41;
        E               9.8;
        value           nonuniform List<scalar> 
14
(
0.00010821
0.000115184
0.000114771
0.000119633
0.000124068
0.000128079
0.0001318
0.000135375
0.000138963
0.000142766
0.000146382
0.000149808
0.000153175
0.000156787
)
;
    }
    Table_master
    {
        type            nutkWallFunction;
        Cmu             0.09;
        kappa           0.41;
        E               9.8;
        value           nonuniform List<scalar> 9(0.00013935 0.00012172 0.000107903 9.6942e-05 8.81141e-05 8.09139e-05 7.49874e-05 7.01281e-05 6.63128e-05);
    }
    Table_slave
    {
        type            nutkWallFunction;
        Cmu             0.09;
        kappa           0.41;
        E               9.8;
        value           nonuniform List<scalar> 9(0.000157766 0.000144099 0.000133415 0.000124444 0.000116737 0.000109763 0.000103142 9.65176e-05 8.93049e-05);
    }
    inlet
    {
        type            calculated;
        value           uniform 0.000167705;
    }
    outlet
    {
        type            calculated;
        value           nonuniform List<scalar> 2(0.00275786 0.00667325);
    }
}


// ************************************************************************* //
