/*--------------------------------*- C++ -*----------------------------------*=========                 |
  \      /  F ield         | OpenFOAM: The Open Source CFD Toolbox
   \    /   O peration     | Website:  https://openfoam.org
    \  /    A nd           | Version:  6
     \/     M anipulation  |
\*---------------------------------------------------------------------------*/
FoamFile
{
    version     2.0;
    format      ascii;
    class       volScalarField;
    location    "90";
    object      PMV;
}
// * * * * * * * * * * * * * * * * * * * * * * * * * * * * * * * * * * * * * //

dimensions      [0 0 0 0 0 0 0];

internalField   nonuniform List<scalar> 
458
(
1.1492123253530875
0.8885389523048526
0.8404976478721039
0.8140336395336529
0.8102666398239327
0.8314959145764064
0.8810056236583351
0.9620661343210775
1.0766561910978851
1.069645549366432
1.0422434773686184
1.0302876288127354
1.037492755142331
1.0725440635643106
1.09220816769452
1.7749250716806537
1.7158096516000731
1.691585807635939
1.6839190098564167
1.7006894199581324
1.69778062274093
1.6923777948818242
1.6978766177535531
1.7102210670286044
1.724452479358063
1.7397003220274192
1.7563179293604418
1.7740790096808055
1.7940684566475107
1.8196163692290008
1.8539287995081624
1.9052618869808347
1.9762241643325995
1.0645377194146695
0.9073634156235115
0.8821833822594366
0.8550326208562667
0.8481266896705594
0.8555600003974125
0.8664877001791429
0.8948287487217358
0.9899459137094105
1.0680673953938118
1.0966859035193974
1.1033540268624127
1.099295539902257
1.0896354118075016
1.061574534506665
1.0655064898384397
1.1273137749867352
1.2151046844027753
1.7926175296399363
1.7059595746261444
1.6369233228649405
1.6103189741092854
1.6172008189645648
1.637830170518177
1.65709969885407
1.6766145078217425
1.69678687429546
1.716396271839805
1.737257713109917
1.7584215144183868
1.779696126250504
1.8026193348936828
1.8305610452709118
1.8677214217111306
1.9125473354289857
1.96008034127039
1.0649760453343975
0.9066525672311646
0.9330381440920847
0.9254772917258017
0.9178911904629135
0.8901282993229933
0.8258177079373553
0.8084602883885347
0.9128795594456672
1.0412964270513287
1.134219218682073
1.1782604664594403
1.1821559658860405
1.1637044254681723
1.1323026174178614
1.1312330839452513
1.1527761156627983
1.1677862173511206
1.7797124784867653
1.5638008903111111
1.5036477823218466
1.5210706060697592
1.5611572080961478
1.5844196552131604
1.632771098474151
1.6779978436445673
1.7143293453696689
1.7462972859797847
1.777950388820186
1.8095373591373833
1.840968334254753
1.866170090944675
1.887950419472148
1.909898248963072
1.9243561593530236
1.9386631485096812
1.1160351362739187
0.9112157445326362
0.9813861177280362
1.022937006968001
1.0304585460956293
0.9319588087921279
0.7806370774491747
0.741823152519131
0.85927176760966
1.0315609745790013
1.1796009708614439
1.2679792293220342
1.2919972506928095
1.2707124812073238
1.228990736167544
1.1974215764692622
1.1659487705872718
1.1304314393563875
1.128750074634627
1.2171637308706298
1.2924368157389805
1.386212400575005
1.493369555656066
1.5948848303340333
1.6754097469770537
1.7149881738815833
1.748676228914143
1.7863821301174454
1.8260127684644647
1.86631717113214
1.9078032236557485
1.9516592649424185
2.0004827815632553
2.001098859160215
1.9771862440609986
1.9476954146399328
1.9311418142510683
1.1932599069065217
0.9327167323058907
1.0282529973503869
1.1411257010102729
1.1791113265166981
0.9520774130669792
0.7358319754177617
0.6927332691113096
0.8280042689226759
1.049004443848844
1.2508938431403844
1.3829334199095347
1.4314928897467425
1.4090415191489554
1.3522448095603348
1.2991985358014033
1.2522730458566107
1.220058280544595
1.2416541354085104
1.2975540593201698
1.3894888694850318
1.505164309179663
1.626674669980611
1.7394295936413442
1.832851061109989
1.8946270380015386
1.9447208662833715
1.9880011158707727
2.0235778309653765
2.0536819489862577
2.0777530972650253
2.0964780920422768
2.106649460439751
2.08433142624577
2.037469916467276
1.9814075871512404
1.95299013593182
2.038198418306395
2.645248468093364
2.4858203664191407
1.2816499508483314
0.9771708215791804
1.0958697751059654
1.2409691922582715
1.18860558969523
0.9194701554463398
0.6931766324160182
0.6497550988634945
0.8218704738230409
1.1028027434725705
1.3620914617722002
1.537150422177624
1.6105793122383687
1.5878552504347927
1.515134081817861
1.4528926720615742
1.4090679527343024
1.392983561461299
1.4313432120970653
1.5111132430570704
1.6183250387098864
1.736531542718702
1.8514820860536976
1.9535853169230573
2.0374819364283407
2.098200486164416
2.1412926943321535
2.172617390755461
2.1925467584463374
2.2049043835402498
2.210606597467784
2.2091811221173048
2.199201341614969
2.1613655244353827
2.10566113593493
2.04102554211459
2.0050869673832032
2.05014879626553
2.209688268181794
2.294324756817825
1.3803411146612066
1.079376557457678
1.2744158096121974
1.2904688201192083
1.1213105721744785
0.844095748047168
0.6103387022280639
0.6067146493629447
0.8522866207492492
1.2134098358464194
1.532500934599846
1.7323063016785516
1.7591248508690795
1.730390408096145
1.6887108220043583
1.6593461248307249
1.6354828930353902
1.64775508790811
1.7110403479862188
1.807655506415025
1.911296529851117
2.017884057730648
2.115943420164676
2.181136349945928
2.230557690304669
2.2637855897761767
2.283233072663142
2.2950857776435916
2.3017214196383438
2.3026692572742355
2.298403768451915
2.2879746643654446
2.2685298962339107
2.236256061313575
2.1869084067915807
2.122571215850082
2.078527258796802
2.0896389440554923
2.137822212597651
2.22992854265866
1.516751679442116
1.425997508876203
1.400146603702863
1.2815763731568748
1.025246913848095
0.6688044417818964
0.4617123617308574
0.5758254908638472
0.9568638417757398
1.4215607173748894
1.785576534054082
1.9055220988210466
1.9179481696687752
1.8926157763915608
1.866318025808241
1.8557963443225265
1.8696655287652613
1.9179481696687752
1.9996148524782928
2.0935564274665834
2.179709825106419
2.255718789171969
2.314988581547495
2.3571210969988465
2.3831273571250646
2.390943955259806
2.392017425128479
2.390667977287444
2.386827151482163
2.3799542623952012
2.370356641449943
2.3580672024476836
2.335825558125642
2.3069341797511855
2.2709018052253045
2.2324572445540576
2.2045480368557135
2.205536838816346
2.198507891105828
2.213808118785744
1.7257975879768794
1.6256228713329648
1.5056281315199997
1.253341459874767
0.6561753409255705
0.23291880804565143
0.22844932235670304
0.6405567709648463
1.2426154216046479
1.7982153890599502
2.0001644696658833
2.042931883504444
2.0419081555362117
2.033113884120329
2.0347467008593862
2.0551392077271777
2.098176740641168
2.1645503177797454
2.2442534086471273
2.3202473042081917
2.38074809818161
2.424470044187517
2.452817954095298
2.467353832162376
2.4722811565865053
2.470747570440486
2.4657738043955226
2.4585684763817146
2.448988155008785
2.43690267973598
2.4225589395830873
2.4068386307509178
2.3908123617646937
2.3755113431667114
2.362266831464549
2.354640601230858
2.3598074311970874
2.3757609691387547
2.386637260678407
2.4181571332110896
-2.6901320283455377
-2.4555877874727994
-1.8463862262158346
-0.8579143445964119
0.19682826580302484
1.2381560660562347
1.8628181098430592
2.08581552506527
2.175865414320615
2.20379073123812
2.213651023175846
2.2240638412144214
2.2429614775245463
2.2743702083868222
2.319692148650644
2.375242454085966
2.434966268663068
2.4884389446676325
2.5287016569722556
2.554276631803993
2.5669881033278057
2.5700183658671447
2.566434070172222
2.5587364070625824
2.54887771183893
2.5372987983405006
2.524431964986631
2.5106689459753455
2.4958152291798537
2.481571108081819
2.4685774210952447
2.457075753813341
2.449987104741886
2.4493922719708485
2.461891781525658
2.4938949284609695
2.5647307474316077
2.788543469532913
-2.1977395839093
-0.6095175886134824
0.6201331479849995
1.2425924447530645
1.6856470124760905
2.0250815924497103
2.2343489376112933
2.328782370325362
2.374040007415998
2.398965118545179
2.4183829847949596
2.439561367409938
2.4650471691352847
2.4973247455051997
2.534650643901168
2.574237179515429
2.6112912277465345
2.6411844658382795
2.660956088804095
2.6707681527284963
2.672813309198801
2.6687159564397613
2.661084515407226
2.651449625100997
2.640808028510315
2.6286314153999735
2.6160039841739366
2.6030765160529636
2.589081968615205
2.575918157530688
2.5635115717282546
2.553473606358051
2.548707200345688
2.5525567850634427
2.567882651295753
2.605099603149943
2.6517579220310754
2.7710970439838265
-0.16350972457514032
-0.18416393772035805
-0.10781170792112692
1.1593042327327403
1.9041233356788607
2.245948632353151
2.4011771332274296
2.4942845443496378
2.5543871107849534
2.5931728281895987
2.6207670345357212
2.6431966866002745
2.6627319272994234
2.6810962263483473
2.6999652245754238
2.7188025829827236
2.7370411337802754
2.753558477776187
2.7661617613922234
2.7737622243464455
2.7763837366073316
2.775132112305818
2.7700346042262773
2.76272493869916
2.7548258682429867
2.745789179607935
2.7366981324062594
2.726490142461569
2.716309923352711
2.705168355534594
2.693196836503794
2.6805449769624805
2.6673621811181913
2.6537451899685305
2.641228410662191
2.631351861495631
2.6304088908438774
2.675261198318056
2.7902352136637885
2.9096450718948024
)
;

boundaryField
{
    ".*"
    {
        type            zeroGradient;
    }
}


// ************************************************************************* //
