/*--------------------------------*- C++ -*----------------------------------*\
  =========                 |
  \\      /  F ield         | OpenFOAM: The Open Source CFD Toolbox
   \\    /   O peration     | Website:  https://openfoam.org
    \\  /    A nd           | Version:  6
     \\/     M anipulation  |
\*---------------------------------------------------------------------------*/
FoamFile
{
    version     2.0;
    format      ascii;
    class       volScalarField;
    location    "19800";
    object      k;
}
// * * * * * * * * * * * * * * * * * * * * * * * * * * * * * * * * * * * * * //

dimensions      [0 2 -2 0 0 0 0];

internalField   nonuniform List<scalar> 
778
(
0.00158588
0.00180108
0.00178801
0.00194662
0.00209792
0.00224027
0.00237701
0.00251267
0.00265305
0.0028064
0.00295662
0.00310289
0.00325036
0.00341271
0.00358631
0.00079307
0.00162461
0.00165104
0.00157211
0.00144442
0.00128233
0.00113037
0.000998773
0.000887072
0.000792544
0.000712816
0.000644817
0.000585847
0.000533361
0.000484647
0.000436205
0.00039793
0.000326072
0.00340687
0.00643318
0.00268757
0.00274624
0.00288798
0.00305461
0.00323502
0.00343085
0.00364413
0.00387449
0.00412655
0.0043802
0.00459578
0.00470075
0.00459478
0.00429841
0.00390736
0.00358002
0.00253552
0.00281137
0.00295326
0.00289547
0.00266269
0.00226404
0.0019051
0.00160907
0.00136949
0.00117574
0.00101696
0.000885175
0.000773924
0.000681117
0.000615098
0.000574552
0.000864202
0.000523936
0.00549054
0.0127804
0.00347797
0.00321232
0.00329769
0.00345557
0.003637
0.00384122
0.0040716
0.00432824
0.00463628
0.00501148
0.00545131
0.00596031
0.00653068
0.00685879
0.00627668
0.00538526
0.00403734
0.00416864
0.00417136
0.00397352
0.00357549
0.00266329
0.00201369
0.00157469
0.00126885
0.00104903
0.000886814
0.000764556
0.000671775
0.000603589
0.000551414
0.000548609
0.0011656
0.000677869
0.00797308
0.0217567
0.00449098
0.00339094
0.00334176
0.00343836
0.00354976
0.00366927
0.00380954
0.0039919
0.00425974
0.00464902
0.00517152
0.00582509
0.00655406
0.00713339
0.00722703
0.00724187
0.00534316
0.00555061
0.00537619
0.00512519
0.00478635
0.00434734
0.00345482
0.00285778
0.00243464
0.00210877
0.00184955
0.00163124
0.00143794
0.001258
0.00107712
0.000800115
0.000659384
0.00142207
0.000821306
0.0108756
0.0336316
0.00621209
0.00342513
0.00315849
0.0031672
0.00318983
0.00321015
0.00325246
0.0033615
0.00359518
0.00398961
0.00455366
0.00527654
0.00608635
0.0068166
0.00728258
0.00764386
0.00751779
0.00665439
0.00607347
0.00557905
0.0050989
0.00462897
0.0041224
0.00366475
0.00327413
0.00293651
0.00263039
0.00234705
0.00207856
0.00181782
0.00155423
0.00122107
0.000929357
0.00118991
0.00121559
0.00116813
0.00205457
0.0018674
0.0141736
0.0475945
0.00928213
0.00348999
0.00290866
0.00282289
0.00276456
0.00269973
0.00266443
0.0027348
0.00298109
0.00341447
0.00402342
0.00479698
0.00565237
0.00645935
0.00706734
0.00740642
0.00732341
0.00678982
0.00621509
0.00563717
0.00507422
0.00455576
0.00409094
0.00369524
0.00336269
0.00307326
0.00280637
0.00255112
0.00229851
0.00204161
0.00177314
0.00147065
0.00117736
0.00111168
0.00111009
0.00172638
0.00515067
0.002664
0.0179902
0.0606018
0.0143564
0.00381909
0.00271519
0.00252943
0.00241186
0.00229414
0.00222118
0.00231173
0.00263052
0.00313937
0.00380152
0.00462959
0.00552616
0.00636399
0.00699841
0.00732637
0.00725351
0.00681762
0.00621515
0.00555464
0.00491172
0.00434259
0.00387231
0.0035003
0.00320668
0.00296178
0.00274141
0.00252913
0.00231333
0.00208674
0.00184459
0.0015824
0.00132679
0.00115842
0.00109068
0.00157198
0.00635963
0.00371692
0.0216389
0.0704788
0.0214311
0.00510042
0.00274239
0.00237166
0.00221006
0.00208192
0.00202636
0.00221966
0.00265009
0.00323098
0.00393639
0.00477242
0.00569574
0.00656975
0.00722025
0.00751147
0.00738278
0.00689533
0.00619758
0.00542643
0.00469111
0.00406419
0.00357429
0.00321247
0.00294781
0.00274125
0.00256464
0.00239629
0.00222232
0.0020352
0.00183161
0.0016127
0.00139721
0.00122702
0.00115078
0.00214964
0.0146717
0.00646027
0.0228318
0.069497
0.0325281
0.011049
0.00406373
0.00258638
0.00223513
0.00210285
0.00218992
0.00251277
0.003001
0.00360214
0.00433134
0.00520971
0.00618068
0.00708261
0.00771276
0.00791974
0.0076623
0.00702387
0.00616392
0.0052474
0.00440671
0.00372194
0.00321644
0.0028689
0.00263581
0.00246945
0.00233689
0.00221207
0.00207995
0.00193335
0.00177011
0.00159307
0.00141641
0.00127875
0.00131491
0.00410898
0.0298971
0.00814554
0.0219177
0.0516422
0.0336412
0.0174255
0.00857982
0.00475441
0.00325894
0.00272925
0.00285282
0.00321123
0.00367287
0.00424604
0.00499317
0.00593397
0.00696825
0.00788144
0.00843653
0.00847987
0.00800038
0.00712095
0.00603872
0.00495194
0.00401014
0.00329006
0.00279765
0.00248866
0.00230245
0.00218468
0.00209698
0.00201237
0.0019173
0.00180614
0.00167812
0.00153705
0.00139529
0.0012984
0.00159904
0.00819562
0.027133
0.00860817
0.0192342
0.0394442
0.0302384
0.0195613
0.0121761
0.00793341
0.00571333
0.00466681
0.00436074
0.00439898
0.00465169
0.00514313
0.00593035
0.00697375
0.0080804
0.00895721
0.00933819
0.00909273
0.00826934
0.00705608
0.00570706
0.00445643
0.00345999
0.00276798
0.00234806
0.00211486
0.0019903
0.00192356
0.00187418
0.00182071
0.00175319
0.00166806
0.00156622
0.00145393
0.00134801
0.00133445
0.0020499
0.00838454
0.0259822
0.00873266
0.0159511
0.0315916
0.0266525
0.0195371
0.0139727
0.0102804
0.00802369
0.00674748
0.00604627
0.00572887
0.00578016
0.00626923
0.00720074
0.00840653
0.00955633
0.0102765
0.0103081
0.00959179
0.00828183
0.00665835
0.0050488
0.00371607
0.00279118
0.00223315
0.00195382
0.00181417
0.0017456
0.00171237
0.00168535
0.00165
0.00159911
0.00153013
0.00144539
0.00135707
0.00130237
0.00153722
0.0032402
0.00922681
0.0232179
0.00847189
0.0132674
0.0256739
0.0233525
0.0186895
0.0145822
0.011586
0.00954092
0.00820725
0.007298
0.00683793
0.00695376
0.00771045
0.00896416
0.010349
0.0113947
0.0117027
0.0111093
0.00969551
0.00778205
0.00575263
0.00402313
0.0028321
0.00219266
0.00186073
0.00169671
0.00161562
0.00157576
0.00155499
0.00153456
0.0015047
0.00146006
0.00139926
0.00132816
0.00127324
0.00135859
0.00216806
0.00479786
0.0102526
0.0186102
0.00787431
0.0133467
0.0224213
0.0220591
0.0177605
0.0143922
0.0118931
0.0100826
0.00876812
0.00791741
0.00777175
0.00846502
0.0098523
0.0115043
0.0128537
0.0133968
0.0128505
0.0112892
0.00898645
0.00651528
0.00430458
0.00296011
0.0022231
0.00185333
0.00166545
0.00156558
0.00150911
0.00147518
0.00145176
0.00142668
0.00139345
0.00134883
0.00129375
0.00123951
0.00123287
0.00146415
0.0025598
0.00543646
0.0103944
0.0161961
0.00738945
0.0108737
0.0117647
0.0129245
0.012554
0.0113764
0.0100771
0.0089497
0.00820601
0.00830337
0.00941013
0.0112753
0.0133345
0.0149262
0.0155188
0.0148486
0.0129034
0.0101733
0.007027
0.00464283
0.00314014
0.00235217
0.00196298
0.00176189
0.00164238
0.0015609
0.00150062
0.00145435
0.00141741
0.00138144
0.00134303
0.00130316
0.001268
0.00125449
0.00131293
0.00160349
0.00258496
0.00507603
0.00958202
0.0168325
0.00791837
0.00354449
0.00482671
0.00600303
0.00661256
0.00729352
0.00880399
0.0113114
0.0141259
0.0165278
0.0179593
0.0180651
0.0167668
0.0142643
0.0106494
0.00735116
0.00485118
0.00334608
0.00257699
0.00221347
0.00202449
0.00190222
0.00180497
0.00171929
0.00164298
0.00157859
0.00153031
0.00149774
0.00148419
0.00149761
0.00154576
0.00163759
0.00180279
0.00214391
0.0029419
0.0048764
0.00991497
0.0151074
0.00883797
0.00444579
0.00630054
0.00812524
0.0110442
0.0147185
0.018169
0.0203895
0.0214367
0.0213555
0.0201413
0.0176179
0.0141638
0.0105181
0.0072333
0.00491111
0.00356947
0.00291988
0.00262075
0.0024654
0.00236418
0.002284
0.00221249
0.00214625
0.00208791
0.00204519
0.00202967
0.00205168
0.00212313
0.00225271
0.00244258
0.00269387
0.00302561
0.00351128
0.00434617
0.00606648
0.0114806
0.0148769
0.00920198
0.0150714
0.0244255
0.0180956
0.0144133
0.0170451
0.0207435
0.0228687
0.023558
0.0230865
0.0217182
0.0196992
0.017064
0.0139091
0.0106118
0.00767446
0.0055089
0.00425884
0.00365564
0.00337455
0.00323146
0.00315394
0.00311258
0.0030895
0.00307042
0.00304697
0.00302141
0.00300825
0.00302883
0.00310138
0.00324045
0.00345463
0.00374986
0.00413609
0.00464424
0.00535746
0.00646693
0.00844034
0.0134132
0.0176496
0.00901573
0.0138083
0.0170473
0.0178852
0.0207937
0.02174
0.0221625
0.0211657
0.0193504
0.0172279
0.0150504
0.0129209
0.01089
0.00901203
0.00738817
0.00612058
0.00520537
0.00460054
0.0042254
0.00400682
0.00390564
0.00389929
0.00396691
0.00408368
0.0042216
0.00435465
0.00446625
0.00455629
0.00464377
0.00476444
0.00494283
0.00519996
0.0055578
0.0060465
0.00672032
0.00767391
0.00902805
0.0109435
0.0146381
0.0208157
0.00877488
0.0121405
0.00891116
0.00882545
0.00934844
0.00979428
0.00922568
0.00816578
0.00701463
0.00595593
0.00503671
0.00424873
0.00358005
0.00303598
0.00263352
0.0023814
0.0022692
0.00223615
0.0022525
0.00230434
0.0023818
0.00247581
0.00257801
0.00268182
0.00278318
0.00288112
0.00297772
0.00307764
0.00318699
0.00331194
0.00345783
0.00362935
0.00383424
0.00408813
0.00442099
0.00488291
0.00553765
0.00643507
0.00757383
0.00886502
0.00776372
)
;

boundaryField
{
    floor
    {
        type            kqRWallFunction;
        value           nonuniform List<scalar> 
36
(
0.00358631
0.00079307
0.00162461
0.00165104
0.00157211
0.00144442
0.00128233
0.00113037
0.000998773
0.000887072
0.000792544
0.000712816
0.000644817
0.000585847
0.000533361
0.000484647
0.000436205
0.00039793
0.000326072
0.000326072
0.000523936
0.000677869
0.000821306
0.00116813
0.00205457
0.0018674
0.00358631
0.00429841
0.00390736
0.00358002
0.00079307
0.00358002
0.00253552
0.00538526
0.00403734
0.00534316
)
;
    }
    ceiling
    {
        type            kqRWallFunction;
        value           nonuniform List<scalar> 
43
(
0.0121405
0.00891116
0.00882545
0.00934844
0.00979428
0.00922568
0.00816578
0.00701463
0.00595593
0.00503671
0.00424873
0.00358005
0.00303598
0.00263352
0.0023814
0.0022692
0.00223615
0.0022525
0.00230434
0.0023818
0.00247581
0.00257801
0.00268182
0.00278318
0.00288112
0.00297772
0.00307764
0.00318699
0.00331194
0.00345783
0.00362935
0.00383424
0.00408813
0.00442099
0.00488291
0.00553765
0.00643507
0.00757383
0.00886502
0.00776372
0.0108737
0.0117647
0.00444579
)
;
    }
    sWall
    {
        type            kqRWallFunction;
        value           nonuniform List<scalar> 9(0.0219177 0.0192342 0.0159511 0.0132674 0.0133467 0.0108737 0.0150714 0.0138083 0.0121405);
    }
    nWall
    {
        type            kqRWallFunction;
        value           nonuniform List<scalar> 
14
(
0.0018674
0.002664
0.00371692
0.00860817
0.00873266
0.00847189
0.00787431
0.00738945
0.00791837
0.00883797
0.00920198
0.00901573
0.00877488
0.00776372
)
;
    }
    sideWalls
    {
        type            empty;
    }
    glass1
    {
        type            kqRWallFunction;
        value           nonuniform List<scalar> 9(0.00158588 0.00340687 0.00549054 0.00797308 0.0108756 0.0141736 0.0179902 0.0216389 0.0228318);
    }
    glass2
    {
        type            kqRWallFunction;
        value           nonuniform List<scalar> 2(0.00646027 0.00814554);
    }
    sun
    {
        type            kqRWallFunction;
        value           nonuniform List<scalar> 
14
(
0.00158588
0.00180108
0.00178801
0.00194662
0.00209792
0.00224027
0.00237701
0.00251267
0.00265305
0.0028064
0.00295662
0.00310289
0.00325036
0.00341271
)
;
    }
    Table_master
    {
        type            kqRWallFunction;
        value           nonuniform List<scalar> 9(0.00266329 0.00201369 0.00157469 0.00126885 0.00104903 0.000886814 0.000764556 0.000671775 0.000603589);
    }
    Table_slave
    {
        type            kqRWallFunction;
        value           nonuniform List<scalar> 9(0.00345482 0.00285778 0.00243464 0.00210877 0.00184955 0.00163124 0.00143794 0.001258 0.00107712);
    }
    inlet
    {
        type            turbulentIntensityKineticEnergyInlet;
        intensity       0.05;
        value           uniform 0.0009375;
    }
    outlet
    {
        type            zeroGradient;
    }
}


// ************************************************************************* //
