/*--------------------------------*- C++ -*----------------------------------*\
  =========                 |
  \\      /  F ield         | OpenFOAM: The Open Source CFD Toolbox
   \\    /   O peration     | Website:  https://openfoam.org
    \\  /    A nd           | Version:  6
     \\/     M anipulation  |
\*---------------------------------------------------------------------------*/
FoamFile
{
    version     2.0;
    format      ascii;
    class       volScalarField;
    location    "1900";
    object      T;
}
// * * * * * * * * * * * * * * * * * * * * * * * * * * * * * * * * * * * * * //

dimensions      [0 0 0 1 0 0 0];

internalField   nonuniform List<scalar> 
778
(
328.28
327.624
328.987
325.93
327.785
329.6
324.79
326.835
328.179
330.224
324.751
326.29
327.429
328.787
330.891
324.618
325.963
326.982
328.042
329.499
331.709
324.491
325.823
326.814
327.73
328.898
330.431
332.715
324.375
325.754
326.821
327.82
328.826
330.046
331.64
334.041
324.261
325.692
326.842
327.966
329.059
330.167
331.415
333.237
336.426
324.157
325.61
326.811
328.014
329.202
330.372
331.578
333.016
335.612
339.506
324.059
325.5
326.73
327.97
329.211
330.441
331.69
333.06
335.16
340.107
354.315
323.934
325.368
326.611
327.87
329.138
330.403
331.671
333.009
334.747
338.891
350.19
358.311
323.762
325.214
326.463
327.741
329.024
330.308
331.586
332.883
334.366
337.098
345.703
356.666
359.2
323.518
325.04
326.305
327.596
328.894
330.191
331.48
332.759
334.08
335.86
341.633
352.102
358.56
359.615
323.103
324.862
326.14
327.441
328.764
330.075
331.379
332.664
333.927
335.286
337.804
346.303
355.344
359.481
359.967
324.652
325.982
327.292
328.642
329.975
331.301
332.609
333.876
335.108
336.576
339.906
348.967
356.789
360.313
324.574
325.814
327.161
328.532
329.896
331.254
332.599
333.904
335.137
336.348
337.799
340.654
348.21
360.578
324.341
325.722
327.047
328.438
329.841
331.24
332.635
333.997
335.292
336.472
337.53
338.706
340.792
346.843
388.246
323.514
325.647
326.972
328.368
329.81
331.26
332.715
334.153
335.515
336.725
337.752
338.628
339.552
341.111
349.714
372.553
325.341
326.859
328.333
329.806
331.31
332.838
334.354
335.78
337.052
338.131
339.016
339.779
340.641
342.614
351.736
370.278
326.535
328.307
329.83
331.391
332.994
334.585
336.085
337.427
338.575
339.533
340.349
341.183
342.518
346.988
361.545
366.352
368.057
326.7
328.242
329.884
331.502
333.175
334.845
336.425
337.837
339.052
340.084
340.992
341.916
343.258
346.492
356.796
366.461
364.256
366.207
366.69
326.631
328.423
329.963
331.637
333.378
335.132
336.796
338.277
339.547
340.638
341.626
342.655
344.081
346.95
354.636
365.061
366.555
364.767
366.059
322.851
326.503
328.579
330.159
331.8
333.603
335.443
337.193
338.739
340.052
341.182
342.227
343.343
344.863
347.646
353.89
363.952
366.353
365.315
319.321
322.98
326.378
328.638
330.323
332.009
333.849
335.775
337.613
339.219
340.562
341.712
342.79
343.968
345.565
348.329
354.016
363.103
366.133
317.668
319.302
322.82
326.212
328.614
330.423
332.199
334.114
336.125
338.052
339.711
341.07
342.224
343.316
344.535
346.19
348.935
354.246
362.313
365.921
317.564
319.312
322.628
326.048
328.549
330.467
332.348
334.374
336.491
338.508
340.212
341.572
342.713
343.806
345.048
346.747
349.472
354.439
361.623
365.706
317.369
319.381
322.383
326.396
328.528
330.484
332.467
334.623
336.864
338.977
340.717
342.063
343.178
344.261
345.513
347.232
349.97
354.583
361.022
365.467
317.278
319.318
321.693
326.65
328.686
330.519
332.58
334.864
337.244
339.456
341.222
342.539
343.617
344.68
345.934
347.658
350.361
354.657
360.499
365.203
317.176
318.936
321.216
326.803
328.789
330.614
332.708
335.111
337.635
339.944
341.724
342.998
344.026
345.064
346.317
348.034
350.68
354.685
360.04
364.919
317.083
318.554
320.804
326.899
328.839
330.698
332.858
335.378
338.045
340.442
342.222
343.44
344.408
345.413
346.662
348.369
350.945
354.683
359.633
364.615
317.101
318.414
320.437
326.943
328.823
330.734
333.006
335.676
338.486
340.953
342.716
343.865
344.762
345.728
346.968
348.679
351.165
354.663
359.266
364.295
317.065
318.351
320.101
326.939
328.761
330.744
333.164
336.021
338.972
341.486
343.211
344.277
345.093
346.01
347.236
348.945
351.329
354.628
358.933
363.963
317.062
318.314
319.782
326.887
328.665
330.749
333.36
336.434
339.522
342.049
343.711
344.681
345.405
346.261
347.471
349.161
351.452
354.58
358.626
363.62
317.097
318.299
319.466
326.78
328.538
330.769
333.625
336.944
340.151
342.655
344.226
345.086
345.706
346.487
347.666
349.32
351.539
354.517
358.34
363.269
317.159
318.308
319.131
326.516
328.378
330.823
333.991
337.575
340.875
343.313
344.763
345.499
346.004
346.696
347.825
349.435
351.592
354.442
358.07
362.913
317.245
318.335
318.857
325.06
328.176
330.94
334.486
338.344
341.702
344.031
345.328
345.924
346.306
346.894
347.954
349.515
351.613
354.353
357.81
362.554
317.348
318.331
319.901
324.243
327.936
331.169
335.133
339.257
342.63
344.805
345.922
346.367
346.618
347.091
348.063
349.565
351.606
354.25
357.557
362.192
317.432
318.186
320.096
323.863
327.817
331.57
335.94
340.301
343.643
345.625
346.539
346.827
346.946
347.297
348.165
349.594
351.576
354.134
357.309
361.829
317.271
318.272
320.317
323.68
327.673
332.064
336.875
341.446
344.711
346.467
347.169
347.299
347.29
347.517
348.27
349.611
351.527
354.005
357.062
361.466
317.079
318.372
320.312
327.079
332.474
337.83
342.637
345.785
347.298
347.793
347.777
347.65
347.76
348.388
349.627
351.465
353.865
356.815
361.104
317.381
318.789
329.952
332.465
338.683
343.803
346.806
348.081
348.392
348.251
348.025
348.027
348.527
349.65
351.398
353.716
356.567
360.742
317.758
339.992
335.525
339.237
344.703
347.662
348.775
348.949
348.716
348.413
348.32
348.693
349.69
351.333
353.562
356.319
360.382
344.464
342.223
340.713
345.223
348.319
349.343
349.444
349.168
348.814
348.64
348.893
349.756
351.279
353.409
356.071
360.024
346.593
344.123
345.568
348.859
349.856
349.918
349.619
349.235
348.993
349.132
349.856
351.244
353.262
355.824
359.668
348.471
347.119
349.367
350.339
350.391
350.087
349.684
349.386
349.418
349.999
351.239
353.129
355.584
359.315
350.508
350.117
350.809
350.867
350.578
350.17
349.827
349.758
350.194
351.271
353.017
355.352
358.965
352.555
351.316
351.34
351.089
350.693
350.319
350.161
350.449
351.353
352.935
355.136
358.62
352.014
351.806
351.603
351.247
350.859
350.627
350.772
351.493
352.893
354.942
358.28
352.45
352.096
351.812
351.44
351.153
351.168
351.702
352.902
354.777
357.948
352.804
352.344
352.037
351.724
351.631
351.984
352.97
354.649
357.624
353.099
352.596
352.316
352.146
352.336
353.104
354.566
357.311
353.361
352.875
352.678
352.744
353.304
354.533
357.01
353.599
353.188
353.173
353.557
354.548
356.72
353.836
353.584
353.833
354.603
356.441
354.116
354.091
354.674
356.167
354.465
354.732
355.886
354.925
355.598
355.621
)
;

boundaryField
{
    floor
    {
        type            wallHeatTransfer;
        Tinf            uniform 305.2;
        alphaWall       uniform 0.36;
        value           nonuniform List<scalar> 
36
(
320.471
315.521
315.545
315.029
314.814
314.598
314.33
314.264
314.044
313.834
313.665
313.541
313.478
313.515
313.724
314.295
314.624
315.434
315.712
315.712
317.054
318.649
321.827
327.949
337.407
341.858
320.471
322.283
322.109
321.181
315.521
321.181
317.535
323.442
321.027
324.827
)
;
    }
    ceiling
    {
        type            wallHeatTransfer;
        Tinf            uniform 301.2;
        alphaWall       uniform 0.36;
        value           nonuniform List<scalar> 
43
(
363.135
364.385
365.057
364.856
364.588
364.305
364.035
363.767
363.482
363.18
362.864
362.536
362.197
361.849
361.495
361.136
360.772
360.406
360.039
359.67
359.302
358.933
358.566
358.199
357.834
357.471
357.109
356.751
356.396
356.045
355.699
355.359
355.026
354.699
354.377
354.056
353.728
353.381
352.948
352.761
358.804
359.42
371.682
)
;
    }
    sWall
    {
        type            wallHeatTransfer;
        Tinf            uniform 315.2;
        alphaWall       uniform 0.54;
        value           nonuniform List<scalar> 9(337.655 351.612 355.988 357.273 358.003 358.653 361.389 361.989 362.805);
    }
    nWall
    {
        type            wallHeatTransfer;
        Tinf            uniform 308.2;
        alphaWall       uniform 0.54;
        value           nonuniform List<scalar> 
14
(
340.979
343.704
346.067
348.756
349.131
349.53
349.84
350.113
350.393
350.698
351.043
351.44
351.873
351.987
)
;
    }
    sideWalls
    {
        type            empty;
    }
    glass1
    {
        type            wallHeatTransfer;
        Tinf            uniform 315.2;
        alphaWall       uniform 4.3;
        value           nonuniform List<scalar> 9(321.495 322.635 323.54 324.262 324.895 325.571 326.373 327.429 329.2);
    }
    glass2
    {
        type            wallHeatTransfer;
        Tinf            uniform 308.2;
        alphaWall       uniform 4.3;
        value           nonuniform List<scalar> 2(338.52 339.472);
    }
    sun
    {
        type            wallHeatTransfer;
        Tinf            uniform 305.2;
        alphaWall       uniform 0.36;
        value           nonuniform List<scalar> 
14
(
326.346
325.655
323.682
322.294
322.176
321.873
321.635
321.455
321.311
321.205
321.122
321.017
320.872
320.704
)
;
    }
    Table_master
    {
        type            zeroGradient;
    }
    Table_slave
    {
        type            zeroGradient;
    }
    inlet
    {
        type            fixedValue;
        value           uniform 298.15;
    }
    outlet
    {
        type            zeroGradient;
    }
}


// ************************************************************************* //
