/*--------------------------------*- C++ -*----------------------------------*\
  =========                 |
  \\      /  F ield         | OpenFOAM: The Open Source CFD Toolbox
   \\    /   O peration     | Website:  https://openfoam.org
    \\  /    A nd           | Version:  6
     \\/     M anipulation  |
\*---------------------------------------------------------------------------*/
FoamFile
{
    version     2.0;
    format      ascii;
    class       volVectorField;
    location    "1900";
    object      U;
}
// * * * * * * * * * * * * * * * * * * * * * * * * * * * * * * * * * * * * * //

dimensions      [0 1 -1 0 0 0 0];

internalField   nonuniform List<vector> 
662
(
(0.0433153 0.0859918 0)
(-0.167861 0.0222577 0)
(-0.187702 0.0164687 0)
(-0.217601 0.0118222 0)
(-0.241123 0.00675709 0)
(-0.257832 0.00135677 0)
(-0.266558 -0.0046489 0)
(-0.265028 -0.0116319 0)
(-0.250904 -0.0201507 0)
(-0.222357 -0.0298995 0)
(-0.179754 -0.039185 0)
(-0.127607 -0.0448038 0)
(-0.0741509 -0.0428403 0)
(-0.0288571 -0.0312053 0)
(-0.0171952 -0.00306344 0)
(-0.0072922 0.0100704 0)
(-0.0362372 -0.0188681 0)
(-0.0129748 -0.0302793 0)
(0.0161036 -0.0245569 0)
(0.0344506 -0.0169803 0)
(0.0482731 -0.00902058 0)
(0.0563527 -0.004878 0)
(0.0597708 -0.00340702 0)
(0.0609484 -0.00288121 0)
(0.0614434 -0.00257457 0)
(0.0616512 -0.00234379 0)
(0.0615441 -0.00210635 0)
(0.0609759 -0.00171038 0)
(0.0595099 -0.000823329 0)
(0.0561574 0.000983099 0)
(0.049863 0.00287313 0)
(0.0458436 0.00446419 0)
(-0.017223 0.0222914 0)
(0.235816 0.177535 0)
(-0.159287 0.0604717 0)
(-0.147293 0.0500202 0)
(-0.178119 0.0410747 0)
(-0.200869 0.0313782 0)
(-0.21739 0.0205718 0)
(-0.2268 0.00774998 0)
(-0.226953 -0.00812731 0)
(-0.215571 -0.0276034 0)
(-0.191246 -0.0494595 0)
(-0.15435 -0.0695976 0)
(-0.109403 -0.0809647 0)
(-0.0641974 -0.0768904 0)
(-0.0247547 -0.058105 0)
(0.00734513 -0.0286625 0)
(0.0346675 0.000143096 0)
(0.0514568 0.0334994 0)
(-0.0186865 0.0732895 0)
(0.0745583 0.0430054 0)
(0.013724 -0.0210702 0)
(0.0278161 -0.0373096 0)
(0.0417322 -0.0343187 0)
(0.0532829 -0.0254759 0)
(0.0592358 -0.0110432 0)
(0.06069 -0.00234684 0)
(0.0606708 0.000907761 0)
(0.0607846 0.00208683 0)
(0.0610683 0.00272425 0)
(0.0612692 0.00315882 0)
(0.0613184 0.00353182 0)
(0.0612241 0.00417457 0)
(0.0605474 0.00585976 0)
(0.0572257 0.0107314 0)
(0.0486664 0.0147388 0)
(0.0490791 0.0174097 0)
(-0.0645387 0.0483591 0)
(0.412939 0.265193 0)
(-0.184219 0.0965067 0)
(-0.104237 0.0798903 0)
(-0.134323 0.0632391 0)
(-0.153159 0.0471993 0)
(-0.167702 0.029856 0)
(-0.177197 0.00947842 0)
(-0.179089 -0.0152891 0)
(-0.170167 -0.0453111 0)
(-0.14938 -0.0788767 0)
(-0.117381 -0.109014 0)
(-0.0792164 -0.124337 0)
(-0.0428518 -0.115981 0)
(-0.0116768 -0.0891082 0)
(0.0136893 -0.0529913 0)
(0.0301933 -0.0236731 0)
(0.0374966 0.00756877 0)
(-0.0343994 0.0593209 0)
(0.127354 -0.0125481 0)
(0.0731693 -0.0339275 0)
(0.0641274 -0.0414368 0)
(0.0666014 -0.0398225 0)
(0.070489 -0.0352735 0)
(0.0719881 -0.0261041 0)
(0.0636255 -0.0169148 0)
(0.0573524 -0.0120436 0)
(0.0550938 -0.00936267 0)
(0.0545682 -0.00765228 0)
(0.0544413 -0.00650381 0)
(0.0545657 -0.00562639 0)
(0.0553307 -0.00461415 0)
(0.0576255 -0.00145719 0)
(0.0561723 0.0145786 0)
(0.0441193 0.0249722 0)
(0.0564447 0.0315019 0)
(-0.108414 0.0736832 0)
(0.567202 0.335672 0)
(-0.229249 0.128617 0)
(-0.0590973 0.103597 0)
(-0.0882788 0.0808456 0)
(-0.0998529 0.0614279 0)
(-0.109526 0.0406755 0)
(-0.117289 0.0152176 0)
(-0.119963 -0.0172773 0)
(-0.112473 -0.0575729 0)
(-0.0944472 -0.102849 0)
(-0.0679338 -0.142575 0)
(-0.038362 -0.16089 0)
(-0.0131875 -0.147708 0)
(0.00877635 -0.113024 0)
(0.0256826 -0.0720982 0)
(0.0391023 -0.0324887 0)
(0.0548614 0.00644506 0)
(0.0533204 0.0477414 0)
(0.0968552 0.0595205 0)
(0.0963888 -0.00565744 0)
(0.0816994 -0.0303808 0)
(0.0747849 -0.0365677 0)
(0.070211 -0.036119 0)
(0.0642419 -0.0312589 0)
(0.0638397 -0.0189126 0)
(0.0735646 -0.0126244 0)
(0.0817887 -0.00933074 0)
(0.0868808 -0.00734647 0)
(0.0901326 -0.00567326 0)
(0.0917739 -0.00378011 0)
(0.0903854 -0.00122352 0)
(0.0845238 0.00239536 0)
(0.0722453 0.00762166 0)
(0.0570578 0.0249535 0)
(0.0413184 0.039964 0)
(0.0650404 0.0517535 0)
(-0.147331 0.0943562 0)
(0.687071 0.393276 0)
(-0.28035 0.146037 0)
(-0.0170436 0.114609 0)
(-0.0413709 0.089128 0)
(-0.0443627 0.0689033 0)
(-0.0473211 0.0475819 0)
(-0.051399 0.0202785 0)
(-0.052371 -0.0171259 0)
(-0.0440706 -0.0664793 0)
(-0.02776 -0.121751 0)
(-0.00819936 -0.167796 0)
(0.0100637 -0.185626 0)
(0.021617 -0.166165 0)
(0.0309567 -0.128826 0)
(0.0389055 -0.0849021 0)
(0.0465301 -0.0427213 0)
(0.0579954 -0.00640087 0)
(0.0720513 0.0135629 0)
(0.0858282 -0.00497009 0)
(0.0846976 -0.0235436 0)
(0.0772061 -0.0302805 0)
(0.06833 -0.0313909 0)
(0.0604305 -0.0297031 0)
(0.0539796 -0.0245223 0)
(0.0523076 -0.0141115 0)
(0.0556012 -0.00828169 0)
(0.0596988 -0.00606558 0)
(0.0633836 -0.00487636 0)
(0.0668061 -0.00312766 0)
(0.0696625 0.000147311 0)
(0.0711096 0.00525824 0)
(0.0698003 0.012312 0)
(0.0653895 0.0217693 0)
(0.0588139 0.0363872 0)
(0.0474827 0.052597 0)
(0.0762654 0.0715883 0)
(-0.0133032 0.100332 0)
(0.0552962 0.157066 0)
(-0.0868073 0.0816708 0)
(-0.283245 0.00352032 0)
(0.745045 0.451284 0)
(-0.297015 0.0457542 0)
(0.0373901 0.0756681 0)
(0.0159073 0.0725209 0)
(0.0178715 0.0643175 0)
(0.018411 0.0475083 0)
(0.0168177 0.0207715 0)
(0.0199245 -0.0204845 0)
(0.0306208 -0.0768668 0)
(0.0446727 -0.136391 0)
(0.0556532 -0.181244 0)
(0.0600665 -0.195206 0)
(0.0571837 -0.171106 0)
(0.0521012 -0.13151 0)
(0.0473636 -0.0872619 0)
(0.0450929 -0.0466613 0)
(0.0476866 -0.0151611 0)
(0.0556904 0.00057143 0)
(0.0608904 -0.00369121 0)
(0.0592598 -0.0124292 0)
(0.0528019 -0.0190694 0)
(0.044841 -0.0221414 0)
(0.0375981 -0.0222191 0)
(0.032044 -0.0194582 0)
(0.0297324 -0.0143638 0)
(0.030891 -0.011342 0)
(0.0337754 -0.0103642 0)
(0.037437 -0.0097617 0)
(0.0416545 -0.0081612 0)
(0.0461849 -0.00441508 0)
(0.0510737 0.00244701 0)
(0.0543368 0.0120077 0)
(0.0561352 0.023796 0)
(0.0578709 0.0382817 0)
(0.0572038 0.0544149 0)
(0.0808563 0.0753256 0)
(0.0652577 0.0870218 0)
(0.101377 0.0970131 0)
(0.120036 0.0569429 0)
(-0.139238 -0.0317045 0)
(0.812715 0.232219 0)
(0.248984 0.234271 0)
(0.203191 0.101884 0)
(0.142588 0.0797028 0)
(0.1092 0.0693104 0)
(0.0905354 0.0532792 0)
(0.0837072 0.0264395 0)
(0.0888431 -0.0141062 0)
(0.101642 -0.0687719 0)
(0.113374 -0.127936 0)
(0.117295 -0.174451 0)
(0.109607 -0.19156 0)
(0.0869361 -0.15657 0)
(0.0642095 -0.117936 0)
(0.0444481 -0.0762808 0)
(0.0309254 -0.0399883 0)
(0.0248655 -0.0143774 0)
(0.0252065 -0.00212753 0)
(0.02656 -0.00256294 0)
(0.0249241 -0.00791226 0)
(0.0202988 -0.0129894 0)
(0.014375 -0.0158542 0)
(0.00865208 -0.0166197 0)
(0.00415884 -0.015706 0)
(0.00200453 -0.0138738 0)
(0.00238833 -0.0131039 0)
(0.00436287 -0.013419 0)
(0.00728817 -0.0137691 0)
(0.0110728 -0.0130889 0)
(0.0158794 -0.0102475 0)
(0.0220617 -0.0038346 0)
(0.0309395 0.00686068 0)
(0.0386434 0.0190525 0)
(0.0472413 0.0321688 0)
(0.0559592 0.0455238 0)
(0.0770546 0.0619587 0)
(0.0906898 0.066953 0)
(0.123176 0.0613153 0)
(0.168107 0.0497099 0)
(-0.0176928 0.0951087 0)
(0.590848 0.000506141 0)
(0.290184 0.197356 0)
(0.406549 0.149819 0)
(0.374419 0.141944 0)
(0.311924 0.120561 0)
(0.261087 0.0849241 0)
(0.228464 0.0402547 0)
(0.211746 -0.0143527 0)
(0.204166 -0.0736586 0)
(0.195352 -0.127126 0)
(0.176024 -0.161194 0)
(0.143874 -0.165819 0)
(0.08831 -0.122279 0)
(0.0525475 -0.0885693 0)
(0.0220224 -0.0530695 0)
(0.00193019 -0.0247032 0)
(-0.00724542 -0.00790008 0)
(-0.00913144 -0.00127382 0)
(-0.00918892 -0.00157367 0)
(-0.0105942 -0.00496669 0)
(-0.0139059 -0.00840808 0)
(-0.0182694 -0.0107043 0)
(-0.02268 -0.0119123 0)
(-0.0263191 -0.0124342 0)
(-0.0285595 -0.0128306 0)
(-0.0294347 -0.0137592 0)
(-0.0294934 -0.0151118 0)
(-0.0290872 -0.0163711 0)
(-0.0281879 -0.0169701 0)
(-0.0264482 -0.016295 0)
(-0.0231412 -0.0135901 0)
(-0.0161232 -0.00793526 0)
(-0.00209419 0.00116133 0)
(0.00999968 0.010921 0)
(0.0223406 0.0177645 0)
(0.0407179 0.024679 0)
(0.0571742 0.0208208 0)
(0.0809476 0.00923167 0)
(0.148342 0.0574426 0)
(-0.46708 0.215838 0)
(0.401584 0.139653 0)
(0.40667 0.169856 0)
(0.372759 0.16722 0)
(0.341918 0.127025 0)
(0.313674 0.06968 0)
(0.290984 0.00701574 0)
(0.265141 -0.0529753 0)
(0.230564 -0.098893 0)
(0.184813 -0.121671 0)
(0.131878 -0.118752 0)
(0.0538211 -0.0776505 0)
(0.0124418 -0.051245 0)
(-0.0194402 -0.0252225 0)
(-0.0341662 -0.0111052 0)
(-0.0404202 -0.00380469 0)
(-0.0421089 -0.000935543 0)
(-0.0426936 -0.00118869 0)
(-0.0440971 -0.0030469 0)
(-0.0467605 -0.00520062 0)
(-0.0502698 -0.00706061 0)
(-0.0540477 -0.00858896 0)
(-0.0576486 -0.00993201 0)
(-0.0608925 -0.0112638 0)
(-0.0639979 -0.0126904 0)
(-0.0673997 -0.0140212 0)
(-0.0714833 -0.0148702 0)
(-0.0765832 -0.0147354 0)
(-0.0831089 -0.0129796 0)
(-0.0916783 -0.00877164 0)
(-0.102959 -0.00118867 0)
(-0.115785 0.0100517 0)
(-0.130239 0.0242653 0)
(-0.154089 0.0412316 0)
(-0.189756 0.0599773 0)
(-0.239529 0.0768627 0)
(-0.296614 0.0890883 0)
(-0.377626 0.0952185 0)
(-0.663532 0.0902753 0)
(0.186261 -0.114266 0)
(0.248199 0.227487 0)
(0.238281 0.186975 0)
(0.240439 0.143141 0)
(0.237526 0.0867166 0)
(0.225274 0.027847 0)
(0.201793 -0.020838 0)
(0.163359 -0.0533918 0)
(0.114448 -0.0679122 0)
(0.0622209 -0.0644972 0)
(-0.0135281 -0.0333436 0)
(-0.0428128 -0.0195365 0)
(-0.0591068 -0.0111662 0)
(-0.0669518 -0.00726014 0)
(-0.0703199 -0.00549324 0)
(-0.0714583 -0.00520209 0)
(-0.0720582 -0.00613502 0)
(-0.0732457 -0.00773869 0)
(-0.075338 -0.00948841 0)
(-0.0781255 -0.0111419 0)
(-0.0813602 -0.0125544 0)
(-0.0849061 -0.0136696 0)
(-0.0888151 -0.0144861 0)
(-0.0932872 -0.0149808 0)
(-0.0985195 -0.0149854 0)
(-0.104573 -0.0141581 0)
(-0.111304 -0.0119977 0)
(-0.118303 -0.00789503 0)
(-0.124888 -0.00118096 0)
(-0.130192 0.00835916 0)
(-0.134211 0.0213145 0)
(-0.137339 0.0384227 0)
(-0.140769 0.0591558 0)
(-0.144852 0.0807624 0)
(-0.145164 0.0957858 0)
(-0.124948 0.0898509 0)
(-0.0642762 0.0341393 0)
(-0.207404 -0.183025 0)
(0.398722 -0.332789 0)
(-0.0937552 -0.48754 0)
(-0.288105 -0.014989 0)
(-0.119075 0.174727 0)
(-0.0296023 0.156004 0)
(0.0219146 0.121788 0)
(0.0514705 0.0793462 0)
(0.0621635 0.0355624 0)
(0.0551638 0.00166074 0)
(0.0343415 -0.0168504 0)
(0.000188585 -0.0238098 0)
(-0.0348313 -0.0228599 0)
(-0.0693273 0.015513 0)
(-0.0848327 0.0250602 0)
(-0.0919559 0.0288922 0)
(-0.0950347 0.0313437 0)
(-0.0961335 0.0336428 0)
(-0.0962025 0.0358854 0)
(-0.0960323 0.0381092 0)
(-0.0960387 0.0399237 0)
(-0.0963747 0.0409507 0)
(-0.097103 0.0413262 0)
(-0.0982484 0.0410288 0)
(-0.0998192 0.0401529 0)
(-0.101819 0.0388388 0)
(-0.104243 0.0371965 0)
(-0.107047 0.035319 0)
(-0.110119 0.0332907 0)
(-0.113261 0.0311706 0)
(-0.116107 0.0289162 0)
(-0.11788 0.0272352 0)
(-0.117334 0.0280306 0)
(-0.112845 0.0327573 0)
(-0.103024 0.0424579 0)
(-0.0878343 0.0572077 0)
(-0.0687 0.0739576 0)
(-0.0456965 0.0835328 0)
(0.0225464 0.0487619 0)
(0.151143 -0.0584148 0)
(-0.0521937 -0.0617122 0)
(0.286964 -0.238648 0)
(-0.278233 -0.136322 0)
(-0.412119 -0.016525 0)
(-0.369444 0.0737238 0)
(-0.274837 0.0891667 0)
(-0.188593 0.0782101 0)
(-0.123527 0.0581585 0)
(-0.0853546 0.0374662 0)
(-0.0732088 0.0237467 0)
(-0.0777899 0.0200603 0)
(-0.0873052 0.0190178 0)
(-0.0950983 -0.00165514 0)
(-0.111404 -0.0914888 0)
(-0.111712 -0.0941826 0)
(-0.110935 -0.0963885 0)
(-0.109644 -0.100037 0)
(-0.108398 -0.104209 0)
(-0.107287 -0.108932 0)
(-0.106379 -0.113967 0)
(-0.10578 -0.118691 0)
(-0.105666 -0.122392 0)
(-0.106149 -0.124807 0)
(-0.107217 -0.125694 0)
(-0.108795 -0.125031 0)
(-0.110748 -0.122907 0)
(-0.112898 -0.119408 0)
(-0.115014 -0.114559 0)
(-0.116783 -0.108279 0)
(-0.117792 -0.100337 0)
(-0.117528 -0.0903045 0)
(-0.115215 -0.0784696 0)
(-0.10923 -0.0654856 0)
(-0.0969261 -0.0512267 0)
(-0.0757125 -0.0352116 0)
(-0.0452867 -0.0168778 0)
(-0.00416519 0.00383388 0)
(0.0397656 0.00186892 0)
(0.107893 -0.0581885 0)
(0.124859 -0.102944 0)
(-0.523675 2.62981e-05 0)
(0.473905 0.385835 0)
(0.195107 0.133619 0)
(0.172087 0.0882226 0)
(0.122659 0.0744139 0)
(0.097423 0.0634694 0)
(0.0849165 0.0425589 0)
(0.0836403 0.00846375 0)
(0.0950578 -0.0399068 0)
(0.108074 -0.0983726 0)
(0.116494 -0.153564 0)
(0.114549 -0.187169 0)
(0.101737 -0.187053 0)
(0.28716 0.0907161 0)
(0.370653 0.173344 0)
(0.40004 0.143495 0)
(0.342888 0.134187 0)
(0.28429 0.103912 0)
(0.242407 0.0638742 0)
(0.218793 0.0141859 0)
(0.207402 -0.0439051 0)
(0.200601 -0.101821 0)
(0.187344 -0.14731 0)
(0.161338 -0.167382 0)
(0.124975 -0.156786 0)
(0.382808 0.145083 0)
(0.390794 0.175157 0)
(0.35717 0.150242 0)
(0.327137 0.0996555 0)
(0.301737 0.0384386 0)
(0.27887 -0.0239882 0)
(0.249241 -0.0783972 0)
(0.208962 -0.113487 0)
(0.15884 -0.123338 0)
(0.105546 -0.108802 0)
(0.297935 0.24733 0)
(0.238784 0.205488 0)
(0.239507 0.166933 0)
(0.239969 0.116007 0)
(0.232755 0.0567539 0)
(0.215163 0.00171995 0)
(0.184251 -0.039291 0)
(0.139801 -0.0629581 0)
(0.0883031 -0.0683372 0)
(0.0377382 -0.0568521 0)
(0.0180678 -0.434545 0)
(-0.258382 -0.359128 0)
(-0.165598 0.13948 0)
(-0.066618 0.169898 0)
(-0.000719675 0.14015 0)
(0.0390312 0.10139 0)
(0.0591452 0.0569349 0)
(0.0605913 0.0166627 0)
(0.0469689 -0.00934733 0)
(0.0185663 -0.021476 0)
(-0.01871 -0.0244689 0)
(-0.0464201 -0.0139012 0)
(-0.241123 -0.169223 0)
(-0.370239 -0.0817739 0)
(-0.406543 0.0399152 0)
(-0.322466 0.0871403 0)
(-0.229621 0.0854009 0)
(-0.152935 0.0687963 0)
(-0.100953 0.047365 0)
(-0.0764094 0.029378 0)
(-0.074209 0.0208017 0)
(-0.082401 0.0201015 0)
(-0.0918653 0.0137595 0)
(-0.0989519 -0.0338695 0)
(0.763607 0.466195 0)
(0.316715 0.264088 0)
(0.349581 0.155236 0)
(0.276505 0.115015 0)
(0.216424 0.0918217 0)
(0.175277 0.0651524 0)
(0.153573 0.0300139 0)
(0.1482 -0.0177095 0)
(0.153008 -0.0743251 0)
(0.15667 -0.130634 0)
(0.150538 -0.170948 0)
(0.130935 -0.181564 0)
(0.790971 -0.171642 0)
(0.154227 0.238122 0)
(0.40041 0.168088 0)
(0.427979 0.169916 0)
(0.372595 0.151219 0)
(0.324477 0.10859 0)
(0.288764 0.0552428 0)
(0.265327 -0.00504112 0)
(0.246004 -0.0661759 0)
(0.223096 -0.116517 0)
(0.189352 -0.144593 0)
(0.145275 -0.144496 0)
(0.306991 0.0951165 0)
(0.355656 0.195184 0)
(0.326377 0.178059 0)
(0.311647 0.138431 0)
(0.295382 0.0804643 0)
(0.276844 0.0182242 0)
(0.250612 -0.0370221 0)
(0.210303 -0.0766215 0)
(0.159064 -0.0949062 0)
(0.104005 -0.0910417 0)
(0.443023 0.229716 0)
(0.0664532 0.220676 0)
(0.111883 0.180528 0)
(0.138132 0.138049 0)
(0.150423 0.0868466 0)
(0.147485 0.0342186 0)
(0.13114 -0.0073596 0)
(0.100568 -0.0328486 0)
(0.0588068 -0.0437963 0)
(0.0149431 -0.0416464 0)
(0.496156 -0.265102 0)
(-0.195611 -0.257477 0)
(-0.35265 -0.0655275 0)
(-0.264245 0.102839 0)
(-0.165708 0.114442 0)
(-0.0937128 0.095154 0)
(-0.0440103 0.0646362 0)
(-0.0174997 0.0318299 0)
(-0.0142081 0.00684776 0)
(-0.0273259 -0.00467416 0)
(-0.0516506 -0.00765912 0)
(-0.0728094 -0.00785192 0)
(0.327165 -0.25171 0)
(-0.350892 -0.159634 0)
(-0.477123 -0.102901 0)
(-0.452015 -0.0538504 0)
(-0.360373 -0.0390961 0)
(-0.265494 -0.0420331 0)
(-0.190789 -0.0515564 0)
(-0.143462 -0.0606021 0)
(-0.118999 -0.0653492 0)
(-0.105858 -0.068627 0)
(-0.0955728 -0.0765775 0)
(-0.100039 -0.0828729 0)
(0.343327 0.291156 0)
(0.354016 0.201815 0)
(0.313552 0.129387 0)
(0.244145 0.103511 0)
(0.19306 0.0794966 0)
(0.161901 0.0492907 0)
(0.148904 0.00802647 0)
(0.150148 -0.0447854 0)
(0.1556 -0.102773 0)
(0.155172 -0.153296 0)
(0.14229 -0.180186 0)
(0.11768 -0.17464 0)
(-0.224442 0.18906 0)
(0.298482 0.192012 0)
(0.436411 0.162793 0)
(0.400883 0.165633 0)
(0.34716 0.131572 0)
(0.304852 0.0830116 0)
(0.276132 0.0258426 0)
(0.25552 -0.0361568 0)
(0.235586 -0.0934599 0)
(0.20775 -0.133883 0)
(0.168262 -0.148098 0)
(0.121518 -0.134231 0)
(0.373626 0.19576 0)
(0.337728 0.187971 0)
(0.318894 0.161482 0)
(0.30375 0.110817 0)
(0.286535 0.0490428 0)
(0.265645 -0.0108801 0)
(0.232109 -0.059246 0)
(0.185679 -0.0885793 0)
(0.131466 -0.095645 0)
(0.0765383 -0.0816245 0)
(0.0741797 0.217829 0)
(0.0911378 0.200996 0)
(0.126848 0.160293 0)
(0.146098 0.113308 0)
(0.150894 0.0599539 0)
(0.140227 0.0114453 0)
(0.117633 -0.0219855 0)
(0.080675 -0.0400887 0)
(0.0363109 -0.0442515 0)
(-0.00619342 -0.0350973 0)
(-0.17515 -0.285229 0)
(-0.311254 -0.187025 0)
(-0.319303 0.0449795 0)
(-0.210728 0.116329 0)
(-0.126863 0.106679 0)
(-0.0660869 0.0808189 0)
(-0.0277792 0.0478774 0)
(-0.0131412 0.0177613 0)
(-0.0190293 -0.000461594 0)
(-0.0386742 -0.00670671 0)
(-0.0643797 -0.00818837 0)
(-0.0745359 -0.00384227 0)
(-0.289144 -0.183904 0)
(-0.434795 -0.131672 0)
(-0.479668 -0.0752923 0)
(-0.409167 -0.0430211 0)
(-0.31136 -0.0392634 0)
(-0.224878 -0.0464315 0)
(-0.163735 -0.0565169 0)
(-0.129029 -0.0634923 0)
(-0.111743 -0.0667518 0)
(-0.100451 -0.0719297 0)
(-0.0936637 -0.0807059 0)
(-0.112329 -0.0877573 0)
)
;

boundaryField
{
    floor
    {
        type            noSlip;
    }
    ceiling
    {
        type            noSlip;
    }
    sWall
    {
        type            noSlip;
    }
    nWall
    {
        type            noSlip;
    }
    sideWalls
    {
        type            empty;
    }
    glass1
    {
        type            noSlip;
    }
    glass2
    {
        type            noSlip;
    }
    sun
    {
        type            noSlip;
    }
    Table_master
    {
        type            noSlip;
    }
    Table_slave
    {
        type            noSlip;
    }
    inlet
    {
        type            fixedValue;
        value           uniform (0.5 0 0);
    }
    outlet
    {
        type            zeroGradient;
    }
}


// ************************************************************************* //
