/*--------------------------------*- C++ -*----------------------------------*\
  =========                 |
  \\      /  F ield         | OpenFOAM: The Open Source CFD Toolbox
   \\    /   O peration     | Website:  https://openfoam.org
    \\  /    A nd           | Version:  6
     \\/     M anipulation  |
\*---------------------------------------------------------------------------*/
FoamFile
{
    version     2.0;
    format      ascii;
    class       volVectorField;
    location    "12400";
    object      U;
}
// * * * * * * * * * * * * * * * * * * * * * * * * * * * * * * * * * * * * * //

dimensions      [0 1 -1 0 0 0 0];

internalField   nonuniform List<vector> 
778
(
(0.065603 0.0794068 0)
(-0.155173 0.0157644 0)
(-0.164298 0.0146239 0)
(-0.192413 0.012273 0)
(-0.216846 0.00872124 0)
(-0.236901 0.00473861 0)
(-0.25202 0.000410249 0)
(-0.26178 -0.00437595 0)
(-0.265669 -0.00981824 0)
(-0.262683 -0.0161969 0)
(-0.250872 -0.0242678 0)
(-0.226171 -0.0348821 0)
(-0.186056 -0.0503966 0)
(-0.144136 -0.0751566 0)
(-0.150027 -0.108534 0)
(0.0546826 0.0354446 0)
(0.0158151 -0.0268717 0)
(0.0450125 -0.0232579 0)
(0.0694194 -0.0161546 0)
(0.0844778 -0.0103496 0)
(0.0916831 -0.00641514 0)
(0.0945182 -0.00434058 0)
(0.0955598 -0.00331844 0)
(0.096023 -0.00273012 0)
(0.0961993 -0.00231548 0)
(0.0960751 -0.00194998 0)
(0.0955465 -0.00150918 0)
(0.0942863 -0.000755488 0)
(0.0914364 0.000848594 0)
(0.0852268 0.00407276 0)
(0.073676 0.00778049 0)
(0.0600065 0.0116222 0)
(-0.00792898 0.0300082 0)
(0.258405 0.167391 0)
(-0.161233 0.0483889 0)
(-0.141598 0.0459786 0)
(-0.174002 0.0416116 0)
(-0.199362 0.0356618 0)
(-0.220078 0.0291194 0)
(-0.2361 0.0220446 0)
(-0.247343 0.0142119 0)
(-0.253507 0.00527856 0)
(-0.253812 -0.00517012 0)
(-0.247649 -0.0170963 0)
(-0.233938 -0.0308573 0)
(-0.214029 -0.0480739 0)
(-0.197452 -0.069947 0)
(-0.193932 -0.0826214 0)
(-0.16633 -0.0425406 0)
(-0.105303 -0.036354 0)
(-0.0983263 -0.0444381 0)
(0.109359 -0.0421549 0)
(0.064513 -0.0411979 0)
(0.071976 -0.0322825 0)
(0.0859681 -0.0207212 0)
(0.0938775 -0.0104693 0)
(0.0961127 -0.003638 0)
(0.095869 -0.000204902 0)
(0.0954787 0.00123537 0)
(0.095443 0.00188601 0)
(0.0955255 0.00226509 0)
(0.0955343 0.00259121 0)
(0.0954351 0.00313499 0)
(0.0951442 0.00441615 0)
(0.0938862 0.00773251 0)
(0.0882844 0.016772 0)
(0.074512 0.0253637 0)
(0.0631717 0.0329835 0)
(-0.0520101 0.0636512 0)
(0.42999 0.25395 0)
(-0.194233 0.0847538 0)
(-0.112771 0.0784286 0)
(-0.148235 0.0669493 0)
(-0.170664 0.0554887 0)
(-0.188753 0.0437101 0)
(-0.202584 0.0313214 0)
(-0.212267 0.0179806 0)
(-0.217608 0.0033709 0)
(-0.217954 -0.0126578 0)
(-0.212689 -0.0303449 0)
(-0.201576 -0.0499215 0)
(-0.18593 -0.0715717 0)
(-0.169388 -0.0932039 0)
(-0.151014 -0.104544 0)
(-0.12018 -0.0931145 0)
(-0.0795025 -0.0948965 0)
(-0.071441 -0.107523 0)
(0.0921454 -0.0882542 0)
(0.0626012 -0.0658088 0)
(0.074419 -0.0461568 0)
(0.0880691 -0.0292637 0)
(0.094933 -0.014924 0)
(0.0920419 -0.0119853 0)
(0.087804 -0.00792997 0)
(0.0854345 -0.00578107 0)
(0.0847331 -0.00456699 0)
(0.0846999 -0.00380466 0)
(0.084952 -0.00322929 0)
(0.085606 -0.00259945 0)
(0.0873709 -0.00143862 0)
(0.0920611 0.00292207 0)
(0.0902175 0.0251209 0)
(0.0733888 0.0424003 0)
(0.0701573 0.0575104 0)
(-0.0901316 0.101027 0)
(0.578564 0.325833 0)
(-0.240106 0.121801 0)
(-0.0808235 0.109216 0)
(-0.121562 0.0898445 0)
(-0.138993 0.074055 0)
(-0.15305 0.0586145 0)
(-0.163805 0.042724 0)
(-0.171393 0.0257738 0)
(-0.175596 0.00715901 0)
(-0.17565 -0.0135688 0)
(-0.170952 -0.0365005 0)
(-0.161375 -0.0614743 0)
(-0.147499 -0.0873767 0)
(-0.13051 -0.110291 0)
(-0.109541 -0.123179 0)
(-0.0820556 -0.124506 0)
(-0.0524345 -0.126318 0)
(-0.0332858 -0.123126 0)
(0.0164928 -0.0567994 0)
(0.0609172 -0.0930781 0)
(0.0685322 -0.0792294 0)
(0.0791334 -0.0588488 0)
(0.0916202 -0.039599 0)
(0.102951 -0.0209407 0)
(0.115696 -0.0131868 0)
(0.126869 -0.00879866 0)
(0.132483 -0.00559987 0)
(0.133488 -0.00310467 0)
(0.130994 -0.000888139 0)
(0.125561 0.00127975 0)
(0.117055 0.0036652 0)
(0.104702 0.00672927 0)
(0.0854325 0.0111724 0)
(0.0715357 0.0368774 0)
(0.0602013 0.0606329 0)
(0.0763574 0.083423 0)
(-0.118062 0.13729 0)
(0.705752 0.38367 0)
(-0.287688 0.156992 0)
(-0.0476827 0.13377 0)
(-0.0962768 0.106908 0)
(-0.107724 0.0875811 0)
(-0.116755 0.0691532 0)
(-0.123543 0.0504191 0)
(-0.128201 0.0305506 0)
(-0.130556 0.00867983 0)
(-0.129741 -0.0158658 0)
(-0.125231 -0.0431174 0)
(-0.116595 -0.0727114 0)
(-0.103856 -0.102836 0)
(-0.0873601 -0.129082 0)
(-0.0673858 -0.145765 0)
(-0.0440232 -0.152228 0)
(-0.0201494 -0.152317 0)
(0.000404035 -0.143664 0)
(0.0309199 -0.114983 0)
(0.0570658 -0.109366 0)
(0.070614 -0.0924494 0)
(0.0807253 -0.0712687 0)
(0.0907716 -0.0508098 0)
(0.100321 -0.0327721 0)
(0.109434 -0.019396 0)
(0.116474 -0.0100303 0)
(0.11992 -0.00334774 0)
(0.120148 0.00189686 0)
(0.117767 0.00643851 0)
(0.113144 0.0107943 0)
(0.106302 0.0154779 0)
(0.0971643 0.0211914 0)
(0.0852232 0.0292318 0)
(0.0736305 0.0472909 0)
(0.0630585 0.0713841 0)
(0.0947297 0.099495 0)
(0.0165714 0.138442 0)
(0.0961718 0.182968 0)
(0.14105 0.144072 0)
(-0.218922 0.201734 0)
(0.810468 0.431961 0)
(-0.331333 0.190656 0)
(-0.0172985 0.150232 0)
(-0.0733497 0.117507 0)
(-0.0785704 0.0954985 0)
(-0.0821916 0.0749277 0)
(-0.0844478 0.0543174 0)
(-0.085488 0.0326846 0)
(-0.0852345 0.00881653 0)
(-0.0825588 -0.0184583 0)
(-0.0773849 -0.0490693 0)
(-0.0687415 -0.082536 0)
(-0.0567168 -0.116527 0)
(-0.0416158 -0.146321 0)
(-0.0245821 -0.165998 0)
(-0.00615468 -0.174476 0)
(0.0122472 -0.172699 0)
(0.0281667 -0.160947 0)
(0.0463131 -0.139276 0)
(0.0627292 -0.122315 0)
(0.0733597 -0.102476 0)
(0.0810013 -0.0804292 0)
(0.0877331 -0.0590908 0)
(0.0938998 -0.0402246 0)
(0.0992309 -0.0250643 0)
(0.102934 -0.0137299 0)
(0.104564 -0.00506202 0)
(0.104171 0.00210824 0)
(0.102059 0.00856235 0)
(0.0984707 0.0148251 0)
(0.0935557 0.0214291 0)
(0.0875331 0.0290112 0)
(0.0806506 0.0384837 0)
(0.0748404 0.0529888 0)
(0.0694671 0.0730543 0)
(0.0915289 0.0987674 0)
(0.0732331 0.107337 0)
(0.0900668 0.0472201 0)
(0.146736 -0.0369473 0)
(-0.326531 0.108266 0)
(0.879943 0.47467 0)
(-0.36866 0.220934 0)
(0.00374014 0.155532 0)
(-0.0526404 0.121553 0)
(-0.0521813 0.0978389 0)
(-0.0510015 0.0758076 0)
(-0.0490013 0.0540248 0)
(-0.0464915 0.0315081 0)
(-0.0433139 0.00673748 0)
(-0.0373625 -0.0223407 0)
(-0.0302878 -0.0554137 0)
(-0.0204875 -0.0919892 0)
(-0.00864199 -0.128946 0)
(0.00462844 -0.161297 0)
(0.0177471 -0.181916 0)
(0.0305833 -0.190214 0)
(0.0424187 -0.187184 0)
(0.0527272 -0.174343 0)
(0.0626732 -0.153977 0)
(0.0712063 -0.132323 0)
(0.0766801 -0.109315 0)
(0.0800908 -0.0858237 0)
(0.0826477 -0.0636593 0)
(0.0848557 -0.0441781 0)
(0.0866748 -0.0281062 0)
(0.0877727 -0.0153494 0)
(0.0879273 -0.00512466 0)
(0.0869907 0.00349373 0)
(0.0851463 0.0111965 0)
(0.0825359 0.0185164 0)
(0.0793243 0.025964 0)
(0.0757747 0.0340511 0)
(0.0722664 0.0433386 0)
(0.0701467 0.0551113 0)
(0.0687455 0.0697192 0)
(0.0815694 0.0887953 0)
(0.0843824 0.091751 0)
(0.0897833 0.0534027 0)
(0.182053 0.0253423 0)
(-0.281403 0.156394 0)
(0.927991 0.517127 0)
(-0.383182 0.234124 0)
(0.0169196 0.132927 0)
(-0.0272986 0.116629 0)
(-0.026518 0.0949067 0)
(-0.0227111 0.0724163 0)
(-0.0176048 0.0500901 0)
(-0.0123395 0.0272324 0)
(-0.00539866 0.00184354 0)
(0.00457146 -0.0307744 0)
(0.0142889 -0.0653794 0)
(0.0256054 -0.103407 0)
(0.037289 -0.140951 0)
(0.0480225 -0.172233 0)
(0.0571743 -0.192402 0)
(0.0647152 -0.199839 0)
(0.0704643 -0.195356 0)
(0.0744197 -0.181105 0)
(0.0770932 -0.159983 0)
(0.0784066 -0.135972 0)
(0.0779876 -0.11096 0)
(0.0764209 -0.0864462 0)
(0.0745437 -0.0639023 0)
(0.0728865 -0.0443308 0)
(0.0715921 -0.0281137 0)
(0.0705313 -0.0149701 0)
(0.0695124 -0.00419718 0)
(0.0682478 0.00499074 0)
(0.0668449 0.0131864 0)
(0.065271 0.02089 0)
(0.063595 0.0285454 0)
(0.0619836 0.0365252 0)
(0.0607046 0.0451372 0)
(0.0605735 0.0548543 0)
(0.0613507 0.065597 0)
(0.0696902 0.0787947 0)
(0.0789148 0.0814298 0)
(0.07904 0.0593329 0)
(0.240341 0.0531431 0)
(-0.543675 0.233192 0)
(1.01135 0.506769 0)
(-0.137141 0.296303 0)
(0.041104 0.161469 0)
(0.0406435 0.122036 0)
(0.0131262 0.0919397 0)
(0.00870748 0.0653421 0)
(0.0141275 0.0413718 0)
(0.0207453 0.0169595 0)
(0.0325363 -0.0110448 0)
(0.0439924 -0.0421839 0)
(0.0558649 -0.0769726 0)
(0.0681616 -0.114742 0)
(0.0793401 -0.151242 0)
(0.0878948 -0.180715 0)
(0.0931692 -0.19871 0)
(0.0952633 -0.203813 0)
(0.0945768 -0.197086 0)
(0.0916531 -0.180968 0)
(0.0871694 -0.15852 0)
(0.0815798 -0.133061 0)
(0.0751841 -0.107023 0)
(0.0685875 -0.0822218 0)
(0.0625186 -0.0600145 0)
(0.0575047 -0.0411297 0)
(0.0537466 -0.0256602 0)
(0.0511536 -0.013112 0)
(0.0494649 -0.00270366 0)
(0.0482854 0.0062715 0)
(0.0475825 0.0143306 0)
(0.0471233 0.0219337 0)
(0.0468459 0.0294437 0)
(0.0467776 0.037118 0)
(0.0470053 0.0451139 0)
(0.0478784 0.0535595 0)
(0.0491823 0.0621447 0)
(0.0540489 0.0710405 0)
(0.061914 0.069384 0)
(0.0547438 0.0375498 0)
(0.288314 0.0689686 0)
(-0.766938 0.307238 0)
(0.779348 0.395602 0)
(0.000908716 0.319426 0)
(0.0934151 0.21886 0)
(0.110649 0.155105 0)
(0.077215 0.106757 0)
(0.0598359 0.0674891 0)
(0.0582553 0.0357171 0)
(0.0624206 0.00637693 0)
(0.0738381 -0.0234684 0)
(0.0854058 -0.0550902 0)
(0.0976075 -0.0898406 0)
(0.109496 -0.126408 0)
(0.118909 -0.160243 0)
(0.124063 -0.185973 0)
(0.124344 -0.200009 0)
(0.120171 -0.201525 0)
(0.112485 -0.191904 0)
(0.102356 -0.173719 0)
(0.0908248 -0.150015 0)
(0.0787314 -0.123833 0)
(0.0667688 -0.0977086 0)
(0.0556711 -0.073554 0)
(0.0461707 -0.0526245 0)
(0.0387521 -0.035371 0)
(0.0335385 -0.0215928 0)
(0.0303129 -0.0105128 0)
(0.0286286 -0.00121063 0)
(0.0280218 0.006963 0)
(0.0282122 0.014475 0)
(0.0288572 0.0217152 0)
(0.0298121 0.0289492 0)
(0.0309901 0.0363577 0)
(0.0322886 0.0440659 0)
(0.0335818 0.0521936 0)
(0.0339316 0.0607133 0)
(0.032825 0.070051 0)
(0.0182734 0.0754996 0)
(0.00532573 0.102886 0)
(0.0213428 0.174058 0)
(-0.651351 0.290693 0)
(0.61726 0.220645 0)
(0.00468013 0.298025 0)
(0.113034 0.241484 0)
(0.14832 0.177473 0)
(0.130896 0.123416 0)
(0.11788 0.0777482 0)
(0.11502 0.0388198 0)
(0.117184 0.00333934 0)
(0.123541 -0.0307655 0)
(0.131763 -0.0650651 0)
(0.141458 -0.100605 0)
(0.150363 -0.135554 0)
(0.155534 -0.165497 0)
(0.155033 -0.186056 0)
(0.148536 -0.194909 0)
(0.136934 -0.192089 0)
(0.121693 -0.179361 0)
(0.104309 -0.159322 0)
(0.086156 -0.134901 0)
(0.0683307 -0.108887 0)
(0.0517779 -0.0837658 0)
(0.0373643 -0.0613964 0)
(0.0258464 -0.042891 0)
(0.0175342 -0.0283192 0)
(0.0122642 -0.0171076 0)
(0.00942683 -0.00810343 0)
(0.00832845 -0.000315007 0)
(0.00853992 0.00679953 0)
(0.00957161 0.0136133 0)
(0.0111471 0.0203969 0)
(0.0131182 0.0273165 0)
(0.0153594 0.0345177 0)
(0.0176994 0.0421939 0)
(0.0198928 0.050697 0)
(0.0211744 0.0607551 0)
(0.020925 0.0745817 0)
(0.00303242 0.0966948 0)
(-0.00434803 0.148525 0)
(0.10553 0.185078 0)
(-0.549684 0.166184 0)
(0.57078 0.118299 0)
(-0.0203716 0.258529 0)
(0.113686 0.229817 0)
(0.165046 0.175963 0)
(0.166735 0.126076 0)
(0.164419 0.081002 0)
(0.165416 0.0398983 0)
(0.168332 0.00157541 0)
(0.172277 -0.0354311 0)
(0.177839 -0.0719653 0)
(0.184012 -0.107692 0)
(0.187726 -0.139834 0)
(0.185958 -0.164472 0)
(0.17732 -0.178749 0)
(0.162252 -0.181856 0)
(0.142293 -0.174695 0)
(0.119376 -0.159322 0)
(0.0952507 -0.138198 0)
(0.0715101 -0.114061 0)
(0.0493585 -0.0893976 0)
(0.0299561 -0.0666128 0)
(0.0142747 -0.0474316 0)
(0.00296339 -0.0326651 0)
(-0.00430981 -0.0215933 0)
(-0.00820004 -0.0134427 0)
(-0.0100187 -0.0065773 0)
(-0.0103879 -0.000270666 0)
(-0.00957809 0.00581381 0)
(-0.00800679 0.0119062 0)
(-0.0058103 0.0181597 0)
(-0.00311669 0.0246736 0)
(-2.70293e-05 0.0316132 0)
(0.00335363 0.0392479 0)
(0.00690752 0.0479797 0)
(0.010482 0.0591481 0)
(0.0141752 0.0767249 0)
(0.00548222 0.108032 0)
(-0.01198 0.164122 0)
(0.189243 0.194275 0)
(-0.440635 0.140798 0)
(0.628412 0.0536589 0)
(0.0089368 0.197257 0)
(0.11372 0.196861 0)
(0.17507 0.157805 0)
(0.191369 0.11755 0)
(0.198069 0.0771539 0)
(0.203423 0.0371897 0)
(0.208621 -0.00155464 0)
(0.213094 -0.0396817 0)
(0.217375 -0.076571 0)
(0.219186 -0.110069 0)
(0.215366 -0.136989 0)
(0.204019 -0.154675 0)
(0.185228 -0.162098 0)
(0.16061 -0.159808 0)
(0.132332 -0.14922 0)
(0.102636 -0.132428 0)
(0.0732256 -0.111544 0)
(0.0458729 -0.0891143 0)
(0.0216951 -0.0672874 0)
(0.00226314 -0.0484466 0)
(-0.0115869 -0.0341198 0)
(-0.0198365 -0.0244667 0)
(-0.0246165 -0.0172684 0)
(-0.0270985 -0.0113613 0)
(-0.0281043 -0.00598557 0)
(-0.0279831 -0.000791523 0)
(-0.0268463 0.00441883 0)
(-0.0249635 0.00979966 0)
(-0.0223924 0.0154689 0)
(-0.0192718 0.02151 0)
(-0.0157426 0.0280525 0)
(-0.0119215 0.035334 0)
(-0.00782118 0.0437774 0)
(-0.00366683 0.0551986 0)
(-0.00135137 0.0762687 0)
(-0.00635091 0.107261 0)
(-0.0195062 0.141846 0)
(0.208878 0.181771 0)
(-0.405899 0.192358 0)
(0.472817 0.074864 0)
(-0.132326 0.13748 0)
(0.0941783 0.133114 0)
(0.172676 0.116589 0)
(0.203831 0.0951384 0)
(0.218165 0.0642318 0)
(0.228166 0.0282929 0)
(0.237206 -0.00898178 0)
(0.243534 -0.0452934 0)
(0.244997 -0.0782746 0)
(0.238994 -0.105249 0)
(0.224165 -0.124111 0)
(0.201028 -0.133952 0)
(0.171503 -0.135192 0)
(0.138181 -0.129078 0)
(0.103367 -0.116896 0)
(0.0693724 -0.10052 0)
(0.0373824 -0.0815835 0)
(0.00975866 -0.0626099 0)
(-0.013019 -0.045359 0)
(-0.0274016 -0.0336459 0)
(-0.036371 -0.0255095 0)
(-0.0416114 -0.0195284 0)
(-0.0446536 -0.0145613 0)
(-0.0462214 -0.0101162 0)
(-0.046685 -0.00586663 0)
(-0.0462013 -0.00162301 0)
(-0.0447767 0.00276118 0)
(-0.0426459 0.00742212 0)
(-0.039815 0.0125036 0)
(-0.0364846 0.0181332 0)
(-0.032946 0.0244821 0)
(-0.0296212 0.0318448 0)
(-0.0269885 0.0409815 0)
(-0.0262297 0.0550736 0)
(-0.0314318 0.0797108 0)
(-0.043114 0.10711 0)
(-0.0362669 0.124398 0)
(0.10494 0.173226 0)
(-0.485788 0.231339 0)
(0.724136 0.134557 0)
(0.0819227 0.115274 0)
(0.149764 0.0990797 0)
(0.222413 0.0802253 0)
(0.244121 0.0696424 0)
(0.248961 0.0474588 0)
(0.255245 0.0174698 0)
(0.261296 -0.0146618 0)
(0.260248 -0.0446294 0)
(0.24969 -0.0695173 0)
(0.229386 -0.0875874 0)
(0.200914 -0.098316 0)
(0.166663 -0.101957 0)
(0.129211 -0.0994941 0)
(0.0910858 -0.0921864 0)
(0.0537648 -0.0807233 0)
(0.019953 -0.0667588 0)
(-0.0107749 -0.0514056 0)
(-0.032672 -0.0392322 0)
(-0.047341 -0.0305204 0)
(-0.0563008 -0.0246642 0)
(-0.0618441 -0.0201721 0)
(-0.0652902 -0.0163518 0)
(-0.0673829 -0.0128223 0)
(-0.0684169 -0.00946488 0)
(-0.0685111 -0.00616951 0)
(-0.0677089 -0.00280372 0)
(-0.0659376 0.000806629 0)
(-0.0635366 0.00478818 0)
(-0.0604218 0.00933006 0)
(-0.0568242 0.0146995 0)
(-0.0531792 0.0212438 0)
(-0.0502461 0.0296107 0)
(-0.0487644 0.0412862 0)
(-0.0493476 0.0597484 0)
(-0.0571848 0.0890664 0)
(-0.0755934 0.122987 0)
(-0.0732963 0.144263 0)
(-0.0683056 0.161981 0)
(-0.556958 0.16715 0)
(0.19228 0.0878639 0)
(0.226042 0.0995037 0)
(0.24678 0.069837 0)
(0.24282 0.0396403 0)
(0.2399 0.0121706 0)
(0.23483 -0.0126769 0)
(0.220046 -0.0331051 0)
(0.196253 -0.0483098 0)
(0.165785 -0.058241 0)
(0.131115 -0.0633206 0)
(0.0940727 -0.063823 0)
(0.0567104 -0.0605012 0)
(0.021028 -0.0542359 0)
(-0.0135388 -0.0451814 0)
(-0.0401208 -0.0365464 0)
(-0.0599628 -0.0294539 0)
(-0.0732 -0.0247264 0)
(-0.0817689 -0.0214141 0)
(-0.0874035 -0.0188018 0)
(-0.0913492 -0.0162812 0)
(-0.0941508 -0.0137769 0)
(-0.0960217 -0.0113306 0)
(-0.0970261 -0.00896615 0)
(-0.0971752 -0.00662551 0)
(-0.0964417 -0.0041741 0)
(-0.0947656 -0.00141239 0)
(-0.0920514 0.00186315 0)
(-0.0885755 0.0058333 0)
(-0.0841923 0.0108753 0)
(-0.0792066 0.0175679 0)
(-0.0742283 0.026832 0)
(-0.069587 0.0403434 0)
(-0.0642073 0.0610468 0)
(-0.0595412 0.0927785 0)
(-0.0630461 0.13567 0)
(-0.0454628 0.176336 0)
(0.0364585 0.165364 0)
(-0.556749 0.0224849 0)
(0.45175 0.209036 0)
(0.207217 0.178371 0)
(0.153329 0.118603 0)
(0.139987 0.0640321 0)
(0.128473 0.0260647 0)
(0.114223 0.00208496 0)
(0.0988485 -0.0126092 0)
(0.0776847 -0.0217447 0)
(0.0527889 -0.0274317 0)
(0.0253736 -0.0300793 0)
(-0.00475247 -0.0296328 0)
(-0.0337863 -0.0271565 0)
(-0.0592796 -0.0239596 0)
(-0.0801865 -0.0210584 0)
(-0.0953083 -0.0193826 0)
(-0.105705 -0.018291 0)
(-0.112821 -0.0173374 0)
(-0.118189 -0.0158795 0)
(-0.12261 -0.013891 0)
(-0.126353 -0.0115895 0)
(-0.129422 -0.00926552 0)
(-0.131772 -0.00713228 0)
(-0.133364 -0.00529531 0)
(-0.134165 -0.00375805 0)
(-0.134098 -0.00244044 0)
(-0.132988 -0.00118309 0)
(-0.130526 0.000276112 0)
(-0.126374 0.00231759 0)
(-0.120567 0.0054606 0)
(-0.11305 0.0105542 0)
(-0.104009 0.0187832 0)
(-0.0934321 0.0317778 0)
(-0.0797081 0.0515903 0)
(-0.0605791 0.080262 0)
(-0.0400615 0.11953 0)
(-0.0160003 0.168449 0)
(0.148373 0.164034 0)
(-0.412168 0.0557598 0)
(0.362634 -0.413195 0)
(-0.345248 -0.512179 0)
(-0.218443 -0.0287395 0)
(-0.0924286 0.110619 0)
(-0.0532974 0.0926362 0)
(-0.0310279 0.0548788 0)
(-0.0262645 0.028897 0)
(-0.0313759 0.0122773 0)
(-0.0404584 0.00154877 0)
(-0.0511537 -0.0055037 0)
(-0.0649518 -0.00989532 0)
(-0.0805119 -0.0124191 0)
(-0.0966046 -0.0142556 0)
(-0.111816 -0.0165083 0)
(-0.124809 -0.0192442 0)
(-0.134463 -0.0221318 0)
(-0.140904 -0.0247458 0)
(-0.145534 -0.0265183 0)
(-0.149659 -0.0275093 0)
(-0.153905 -0.0279092 0)
(-0.158302 -0.027898 0)
(-0.16264 -0.0275702 0)
(-0.166662 -0.0269584 0)
(-0.170142 -0.0260555 0)
(-0.172909 -0.0248498 0)
(-0.174845 -0.0233459 0)
(-0.175841 -0.0215551 0)
(-0.175713 -0.0194547 0)
(-0.174108 -0.0169332 0)
(-0.170477 -0.0137394 0)
(-0.164124 -0.00940865 0)
(-0.154576 -0.00318583 0)
(-0.141657 0.00607598 0)
(-0.125553 0.0195135 0)
(-0.105373 0.0371921 0)
(-0.0781842 0.0584632 0)
(-0.0432044 0.0830513 0)
(-0.00468136 0.116877 0)
(0.179381 0.130757 0)
(-0.397911 0.109957 0)
(0.124807 -0.18444 0)
(-0.387082 -0.297136 0)
(-0.342631 -0.0968746 0)
(-0.264453 0.0510169 0)
(-0.210797 0.0833398 0)
(-0.178656 0.0745673 0)
(-0.162329 0.0611942 0)
(-0.15627 0.0512971 0)
(-0.156291 0.0461405 0)
(-0.159545 0.0454816 0)
(-0.164128 0.0484629 0)
(-0.16841 0.0537854 0)
(-0.171599 0.0599515 0)
(-0.173539 0.0647387 0)
(-0.174927 0.065538 0)
(-0.176551 0.0635389 0)
(-0.179035 0.0613167 0)
(-0.182423 0.0606126 0)
(-0.186351 0.0614604 0)
(-0.19041 0.0631421 0)
(-0.194284 0.0649061 0)
(-0.197779 0.0661775 0)
(-0.200793 0.066569 0)
(-0.203277 0.065889 0)
(-0.205201 0.0641194 0)
(-0.206534 0.0613189 0)
(-0.207229 0.0574809 0)
(-0.207192 0.0524524 0)
(-0.206245 0.0460166 0)
(-0.204107 0.0381317 0)
(-0.200388 0.0292036 0)
(-0.194611 0.0201886 0)
(-0.186135 0.0124424 0)
(-0.173606 0.00730534 0)
(-0.155371 0.00537904 0)
(-0.130984 0.00436871 0)
(-0.0963329 0.00213223 0)
(-0.0460415 0.00723863 0)
(0.180154 0.0723627 0)
(-0.428936 0.166381 0)
(1.1467 -0.0108945 0)
(-0.294525 -0.322032 0)
(-0.352477 -0.232808 0)
(-0.351946 -0.14849 0)
(-0.328374 -0.107152 0)
(-0.296702 -0.098438 0)
(-0.269227 -0.100429 0)
(-0.249016 -0.105841 0)
(-0.2351 -0.113127 0)
(-0.225482 -0.122403 0)
(-0.218482 -0.134239 0)
(-0.213123 -0.14888 0)
(-0.209111 -0.165173 0)
(-0.206689 -0.179978 0)
(-0.206488 -0.189108 0)
(-0.209101 -0.19271 0)
(-0.213997 -0.192475 0)
(-0.219949 -0.190357 0)
(-0.225802 -0.187739 0)
(-0.230875 -0.185214 0)
(-0.234931 -0.182868 0)
(-0.238034 -0.180553 0)
(-0.240423 -0.178045 0)
(-0.242431 -0.175106 0)
(-0.244398 -0.171525 0)
(-0.246621 -0.167143 0)
(-0.24938 -0.161859 0)
(-0.253032 -0.155598 0)
(-0.258097 -0.148219 0)
(-0.265178 -0.13937 0)
(-0.274646 -0.12835 0)
(-0.286157 -0.11412 0)
(-0.298313 -0.0955742 0)
(-0.308902 -0.072081 0)
(-0.31539 -0.044253 0)
(-0.313372 -0.0142939 0)
(-0.296012 0.0157779 0)
(-0.253288 0.0516165 0)
(-0.222552 0.104856 0)
(-0.579564 0.175241 0)
)
;

boundaryField
{
    floor
    {
        type            noSlip;
    }
    ceiling
    {
        type            noSlip;
    }
    sWall
    {
        type            noSlip;
    }
    nWall
    {
        type            noSlip;
    }
    sideWalls
    {
        type            empty;
    }
    glass1
    {
        type            noSlip;
    }
    glass2
    {
        type            noSlip;
    }
    sun
    {
        type            noSlip;
    }
    Table_master
    {
        type            noSlip;
    }
    Table_slave
    {
        type            noSlip;
    }
    inlet
    {
        type            fixedValue;
        value           uniform (0.5 0 0);
    }
    outlet
    {
        type            zeroGradient;
    }
}


// ************************************************************************* //
