/*--------------------------------*- C++ -*----------------------------------*\
  =========                 |
  \\      /  F ield         | OpenFOAM: The Open Source CFD Toolbox
   \\    /   O peration     | Website:  https://openfoam.org
    \\  /    A nd           | Version:  6
     \\/     M anipulation  |
\*---------------------------------------------------------------------------*/
FoamFile
{
    version     2.0;
    format      ascii;
    class       volScalarField;
    location    "100";
    object      alphat;
}
// * * * * * * * * * * * * * * * * * * * * * * * * * * * * * * * * * * * * * //

dimensions      [1 -1 -1 0 0 0 0];

internalField   nonuniform List<scalar> 
459
(
0.000885839
0.000905945
0.00079271
0.000817555
0.000849394
0.000880837
0.000911489
0.000941965
0.000973532
0.00100386
0.00102831
0.00104473
0.0010511
0.00104561
0.00102205
0.000529028
0.000598673
0.000606644
0.00050424
0.000375875
0.000310183
0.00027417
0.000266295
0.00025339
0.000241697
0.000233587
0.000229159
0.000228049
0.000247832
0.000342429
0.000517202
0.000628399
0.000628506
0.000557518
0.00156478
0.00289341
0.0019751
0.0028018
0.00307762
0.00332336
0.00357744
0.00381639
0.00400623
0.00414026
0.00420234
0.00414641
0.00389805
0.00333795
0.00234243
0.00109253
0.000768411
0.000637107
0.00146678
0.001591
0.00140712
0.00107103
0.000698922
0.000577562
0.000511453
0.000484883
0.000466792
0.000442562
0.000425031
0.000477536
0.000718015
0.00113845
0.00163033
0.00177648
0.00182587
0.000664786
0.00214398
0.00486866
0.00211986
0.00382138
0.00461254
0.00491381
0.00515526
0.00536108
0.00551722
0.00562208
0.0056517
0.00555143
0.00523586
0.00459267
0.00355237
0.00227634
0.00114603
0.00103164
0.00253764
0.00217925
0.0017734
0.0014126
0.00103639
0.000340025
0.000247745
0.000244522
0.000265422
0.000317898
0.000400869
0.000505055
0.00063066
0.000798995
0.00194456
0.0018857
0.00149826
0.000819174
0.00267423
0.00720248
0.00256443
0.0038367
0.00533347
0.00571841
0.00593818
0.00612898
0.00629548
0.00643375
0.00655515
0.00661184
0.00650724
0.00609193
0.00519485
0.00377733
0.00221453
0.00127062
0.00262395
0.00287434
0.00256933
0.00220906
0.00185643
0.00143947
0.00105217
0.00106883
0.00108815
0.00110619
0.00112168
0.00113501
0.00114802
0.00116276
0.00119109
0.00271227
0.00347533
0.00363094
0.00123798
0.00315168
0.0095856
0.00352298
0.0034668
0.0053959
0.00592302
0.00613474
0.00631332
0.006494
0.00668239
0.0069601
0.00731317
0.00768108
0.00797237
0.00807592
0.00789775
0.00742474
0.0067417
0.00616354
0.00572325
0.00548808
0.00533478
0.00517448
0.00503618
0.00493341
0.00492887
0.00493532
0.00493199
0.00491082
0.00488108
0.00486663
0.00489587
0.00497424
0.0051127
0.00514636
0.00497197
0.00421979
0.00172129
0.0015032
0.00131589
0.003589
0.0116091
0.00522966
0.00335364
0.00476346
0.00550644
0.00580861
0.00599115
0.00612855
0.00628435
0.00662533
0.0071352
0.00777307
0.00846227
0.00908622
0.00950827
0.00960876
0.00936453
0.00889806
0.00837527
0.00791808
0.00756846
0.00730113
0.00708062
0.00688358
0.00671307
0.00655941
0.00640012
0.00621626
0.00601334
0.00582353
0.00568379
0.00560391
0.00555925
0.00551705
0.00541172
0.00502654
0.00435631
0.00298984
0.00155306
0.00398438
0.0129972
0.00805963
0.00450551
0.00384599
0.00445593
0.00509427
0.005469
0.00555948
0.00565044
0.00591083
0.00635032
0.00698509
0.0077874
0.00865012
0.00940484
0.00987484
0.00998871
0.00982087
0.00951524
0.00919536
0.00891445
0.00866621
0.00842441
0.00817421
0.00792949
0.0077011
0.00746712
0.007186
0.00683364
0.0064294
0.00602468
0.00567031
0.00537612
0.00509797
0.00475015
0.00424096
0.00361471
0.00296854
0.00150815
0.00405298
0.0128189
0.0100982
0.00774734
0.00563403
0.00472066
0.00488423
0.00529881
0.00531902
0.00529766
0.00536287
0.00554761
0.00589654
0.00646257
0.00724572
0.0081317
0.0088695
0.00930132
0.00946222
0.00944966
0.00937213
0.00929466
0.00922832
0.00915261
0.00904607
0.00891303
0.00877558
0.00863707
0.00846344
0.00820538
0.00783664
0.00733652
0.0067147
0.00602234
0.00531987
0.00466245
0.00408445
0.00355692
0.00308052
0.00180559
0.00390615
0.00461813
0.00642973
0.00677136
0.00626895
0.0056184
0.00517746
0.004963
0.00485432
0.00482894
0.00485471
0.00491855
0.00503815
0.00526313
0.00565832
0.00624419
0.00692088
0.0075271
0.00796911
0.00825004
0.0084305
0.00857273
0.00871287
0.00886113
0.00901364
0.00916419
0.00930698
0.00943217
0.00952248
0.00957735
0.00952916
0.00936685
0.00913644
0.0089149
0.00872949
0.00831756
0.00719536
0.00595084
0.00571089
0.00197389
0.00994214
0.0117552
0.00822297
0.00685856
0.00607919
0.00557896
0.00523786
0.00498694
0.00479272
0.00464076
0.00452874
0.00446958
0.00449335
0.00464014
0.00493034
0.00533261
0.00577428
0.00618852
0.00654815
0.00686041
0.0071463
0.00742729
0.00772247
0.00804752
0.00840772
0.00879053
0.00916453
0.00946401
0.00964626
0.00970552
0.00965451
0.00953191
0.00937099
0.00912897
0.00854013
0.00737768
0.00657061
0.00193886
0.00510826
0.0113234
0.00844208
0.00711196
0.00627153
0.00565723
0.00518209
0.00479605
0.0044461
0.00412823
0.00384995
0.00361749
0.00343855
0.00332467
0.00329037
0.00334739
0.0034961
0.00372118
0.0039963
0.0042939
0.00459383
0.0048885
0.00518474
0.00550227
0.0058671
0.00629862
0.00679015
0.00727855
0.00769566
0.00800035
0.00816808
0.00819511
0.00808578
0.00780827
0.00712496
0.006064
0.00530847
0.00171922
0.00288743
0.00343517
0.00415986
0.00406922
0.00340617
0.00297831
0.00265716
0.00239869
0.00218337
0.00199999
0.00184528
0.00171207
0.00159498
0.00149097
0.00139836
0.00131635
0.00124462
0.00118318
0.00113205
0.00109114
0.0010601
0.00103833
0.00102502
0.0010194
0.00102097
0.00102984
0.00104692
0.00107389
0.00111239
0.00116763
0.00124153
0.00132756
0.0014132
0.00148335
0.00152504
0.00152864
0.00150888
0.00147223
0.00145556
0.00136154
)
;

boundaryField
{
    floor
    {
        type            compressible::alphatWallFunction;
        Prt             0.85;
        value           nonuniform List<scalar> 
29
(
0.000145317
7.35956e-05
8.4106e-05
8.53004e-05
6.98303e-05
4.98508e-05
3.92897e-05
3.33674e-05
3.20568e-05
2.99041e-05
2.79401e-05
2.65681e-05
2.58123e-05
2.56192e-05
2.89574e-05
4.44669e-05
7.17869e-05
8.85456e-05
8.85653e-05
7.79155e-05
7.79146e-05
9.39351e-05
0.000116435
0.000175265
0.000145316
7.35947e-05
8.98447e-05
0.000146655
0.000179772
)
;
    }
    ceiling
    {
        type            compressible::alphatWallFunction;
        Prt             0.85;
        value           nonuniform List<scalar> 
43
(
0.000390531
0.000458518
0.000546795
0.000535832
0.000454917
0.000401858
0.000361513
0.000328669
0.000301022
0.000277244
0.000256999
0.000239419
0.000223842
0.000209898
0.000197391
0.000186236
0.000176416
0.000167952
0.00016087
0.000155178
0.000150843
0.000147792
0.000145924
0.000145134
0.000145354
0.000146598
0.000148992
0.000152764
0.00015813
0.000165793
0.00017598
0.000187751
0.000199383
0.000208853
0.000214458
0.000214942
0.000212288
0.000207355
0.000205103
0.000192368
0.000516109
0.000601819
0.000660042
)
;
    }
    sWall
    {
        type            compressible::alphatWallFunction;
        Prt             0.85;
        value           uniform 0.000389418;
    }
    nWall
    {
        type            compressible::alphatWallFunction;
        Prt             0.85;
        value           nonuniform List<scalar> 6(0.000185692 0.000217891 0.000211818 0.000268838 0.000239952 0.000192001);
    }
    sideWalls
    {
        type            empty;
    }
    glass1
    {
        type            compressible::alphatWallFunction;
        Prt             0.85;
        value           nonuniform List<scalar> 9(0.000122282 0.000214272 0.000289459 0.000356551 0.000415881 0.000469475 0.000517398 0.00052582 0.000508375);
    }
    glass2
    {
        type            compressible::alphatWallFunction;
        Prt             0.85;
        value           nonuniform List<scalar> 2(0.000249478 0.000271484);
    }
    sun
    {
        type            compressible::alphatWallFunction;
        Prt             0.85;
        value           nonuniform List<scalar> 
14
(
0.000126056
0.000128902
0.000112646
0.000116235
0.000120816
0.000125319
0.000129691
0.000134021
0.000138489
0.000142764
0.000146202
0.000148502
0.000149394
0.000148624
)
;
    }
    heatsource1
    {
        type            compressible::alphatWallFunction;
        Prt             0.85;
        value           nonuniform List<scalar> 3(0.000240558 0.00021148 0.000186162);
    }
    heatsource2
    {
        type            compressible::alphatWallFunction;
        Prt             0.85;
        value           nonuniform List<scalar> 4(0.000155378 0.000109307 0.000109305 0.000162813);
    }
    Table_master
    {
        type            compressible::alphatWallFunction;
        Prt             0.85;
        value           nonuniform List<scalar> 9(4.4274e-05 2.9124e-05 2.85701e-05 3.20425e-05 4.06393e-05 5.38919e-05 7.00616e-05 8.90165e-05 0.000113717);
    }
    Table_slave
    {
        type            compressible::alphatWallFunction;
        Prt             0.85;
        value           nonuniform List<scalar> 9(0.000149761 0.000152101 0.000154807 0.00015733 0.000159493 0.000161351 0.000163159 0.0001652 0.000169097);
    }
    inlet
    {
        type            fixedValue;
        value           uniform 1.94e-05;
    }
    outlet
    {
        type            zeroGradient;
    }
}


// ************************************************************************* //
