/*--------------------------------*- C++ -*----------------------------------*\
  =========                 |
  \\      /  F ield         | OpenFOAM: The Open Source CFD Toolbox
   \\    /   O peration     | Website:  https://openfoam.org
    \\  /    A nd           | Version:  6
     \\/     M anipulation  |
\*---------------------------------------------------------------------------*/
FoamFile
{
    version     2.0;
    format      ascii;
    class       volScalarField;
    location    "100";
    object      alphat;
}
// * * * * * * * * * * * * * * * * * * * * * * * * * * * * * * * * * * * * * //

dimensions      [1 -1 -1 0 0 0 0];

internalField   nonuniform List<scalar> 
459
(
0.00217549
0.00264918
0.00259244
0.00251717
0.00245183
0.00239586
0.00234665
0.00230161
0.0022579
0.00221318
0.00216497
0.0021101
0.00204346
0.00195426
0.00183465
0.000436831
0.000560397
0.000610727
0.000648711
0.000650707
0.000623248
0.000572519
0.000530081
0.000493488
0.000460402
0.000429481
0.000400157
0.000372241
0.000345646
0.000320266
0.00029602
0.00027373
0.000265746
0.000242739
0.003086
0.00340885
0.00341008
0.00329649
0.00322284
0.00320306
0.00321225
0.00322333
0.00321063
0.00316884
0.00309552
0.00298745
0.00283224
0.00258725
0.00221645
0.00176432
0.00157842
0.00055903
0.00241439
0.00262465
0.00250397
0.00213993
0.00172618
0.00137125
0.00121804
0.0010944
0.000975643
0.000865836
0.000767604
0.000680755
0.000604309
0.000537143
0.000487255
0.000480484
0.000684144
0.000320799
0.00330806
0.00383562
0.00350794
0.00318368
0.00310654
0.00318467
0.00332968
0.00347003
0.00356595
0.00359701
0.00355434
0.00343704
0.00324506
0.00296139
0.0025943
0.00223095
0.00159086
0.00076056
0.00294116
0.00308124
0.00267225
0.00207711
0.00144588
0.000500278
0.000389668
0.000370521
0.000350403
0.000327411
0.000306521
0.000287749
0.000271431
0.000263865
0.000426507
0.00056993
0.00108912
0.000398746
0.00344473
0.00415016
0.00318619
0.00267603
0.00284218
0.00328323
0.00377357
0.00411391
0.0042294
0.00417392
0.00401384
0.00379217
0.00352434
0.00319678
0.00281961
0.00244841
0.00189364
0.00132921
0.00218579
0.00303212
0.00301403
0.0025237
0.00191316
0.00127487
0.000802466
0.000802768
0.000807933
0.000812109
0.0008175
0.000820042
0.000815642
0.000796542
0.000754759
0.000829532
0.000900605
0.00126523
0.000577044
0.00355346
0.00424238
0.00250952
0.00241047
0.00374712
0.00495
0.00572825
0.00604897
0.00565787
0.00504963
0.00449494
0.00404744
0.00366677
0.00328996
0.00290414
0.00253843
0.00209906
0.00179033
0.00268101
0.00333733
0.0033856
0.00320168
0.00307786
0.00303045
0.00305306
0.0031477
0.00324301
0.00334103
0.00343161
0.00347567
0.00345669
0.0033602
0.00316519
0.0027578
0.00227947
0.00189987
0.00133167
0.000694117
0.000727477
0.000866004
0.00365834
0.00408159
0.00188296
0.00326352
0.00547078
0.00619862
0.00652902
0.00657953
0.00604732
0.00523489
0.00454786
0.0040353
0.00362615
0.00324281
0.0028744
0.00253005
0.00221552
0.00214919
0.00309963
0.00360777
0.00360462
0.00348927
0.00345288
0.00345856
0.00348246
0.0035157
0.00356327
0.00363667
0.00372996
0.00381181
0.00383994
0.0038003
0.00370943
0.00354559
0.00318702
0.00269198
0.00213072
0.0014814
0.0016459
0.00093181
0.0037812
0.00372811
0.00179454
0.0030313
0.0052401
0.00563192
0.00566663
0.00556355
0.00525204
0.00475171
0.00425183
0.00382695
0.00346177
0.00311818
0.00279401
0.0025062
0.00233424
0.00248652
0.00341883
0.00380865
0.00377496
0.00370393
0.00369442
0.00367943
0.0036392
0.00358993
0.00356015
0.00357473
0.00362937
0.00368853
0.00371616
0.00369991
0.00368582
0.00373127
0.00371226
0.00338315
0.00294028
0.00252459
0.00224739
0.00113163
0.00395781
0.00375123
0.00217972
0.00204729
0.0040501
0.00446437
0.00446802
0.00443179
0.00432558
0.00410741
0.00382792
0.00354173
0.00326467
0.00299263
0.00273446
0.00252845
0.00248593
0.00279938
0.00366916
0.00405951
0.00408239
0.00407075
0.00407188
0.0040343
0.00394173
0.00381936
0.00370835
0.00365079
0.00365283
0.0036698
0.0036537
0.00359682
0.00357525
0.00370989
0.00403961
0.00432361
0.00430511
0.00413167
0.00426443
0.0015058
0.00427195
0.00475597
0.00364681
0.00193395
0.00286404
0.00359227
0.00368575
0.00371209
0.0036885
0.00361707
0.00348949
0.00333002
0.00315345
0.00296596
0.00278099
0.00264909
0.00269103
0.00311429
0.00395875
0.00443685
0.00459084
0.00459257
0.00457305
0.00451083
0.00438803
0.00421925
0.00404066
0.00390763
0.00385221
0.00382744
0.00375455
0.00357226
0.0033038
0.0030691
0.00292536
0.00281643
0.00268229
0.00247564
0.00227135
0.00146955
0.00564306
0.0025572
0.00288151
0.00325281
0.00338958
0.00347736
0.00351447
0.00350027
0.00345594
0.00338842
0.00329944
0.00318861
0.00306261
0.00296803
0.00303662
0.00354768
0.00430938
0.00484639
0.00510727
0.00513021
0.00509554
0.00502206
0.00490246
0.0047383
0.00454067
0.00434855
0.0042407
0.00420946
0.00419315
0.00410924
0.00388802
0.00355431
0.00328271
0.00306419
0.00283728
0.00259368
0.00231141
0.00137581
0.00304527
0.00270517
0.00322602
0.0030521
0.00307509
0.003135
0.00318589
0.00319327
0.00321056
0.00323326
0.00324834
0.00324129
0.00319863
0.00313526
0.00314381
0.00338221
0.00380904
0.00441766
0.00494464
0.00531256
0.00551557
0.00557955
0.00554404
0.00544453
0.00529995
0.00511632
0.00493159
0.00483754
0.00490253
0.00506083
0.00507089
0.00465125
0.00407188
0.00358238
0.00316094
0.00289559
0.00312199
0.00145983
0.00181347
0.00172158
0.0017682
0.00130694
0.00134062
0.00135832
0.00137663
0.00139131
0.00140407
0.00141674
0.00142816
0.00143867
0.00144769
0.00145378
0.00145447
0.00144595
0.00140524
0.00133432
0.00128675
0.00126047
0.0012567
0.00127581
0.00130536
0.00133447
0.00135654
0.00136889
0.0013698
0.00135502
0.00132112
0.00128243
0.00127029
0.00128093
0.00127401
0.00127707
0.00128979
0.00129911
0.00127981
0.0012197
0.00117968
0.00112939
)
;

boundaryField
{
    floor
    {
        type            compressible::alphatWallFunction;
        Prt             0.85;
        value           nonuniform List<scalar> 
29
(
0.000255649
5.95597e-05
7.84977e-05
8.60682e-05
9.17305e-05
9.20306e-05
8.795e-05
8.03478e-05
7.39232e-05
6.8332e-05
6.32313e-05
5.84219e-05
5.38199e-05
4.93981e-05
4.51454e-05
4.10469e-05
3.70912e-05
3.3416e-05
3.2087e-05
2.8237e-05
2.82365e-05
4.11213e-05
5.358e-05
8.09712e-05
0.000255646
5.95589e-05
7.83016e-05
0.000108139
0.000188004
)
;
    }
    ceiling
    {
        type            compressible::alphatWallFunction;
        Prt             0.85;
        value           nonuniform List<scalar> 
43
(
0.000253052
0.000240883
0.000246981
0.000185085
0.000189678
0.000192089
0.000194577
0.000196571
0.000198301
0.000200016
0.000201562
0.000202982
0.000204202
0.000205022
0.000205115
0.000203964
0.000198453
0.000188812
0.000182312
0.000178706
0.000178186
0.000180803
0.000184841
0.000188809
0.000191811
0.000193484
0.000193597
0.000191569
0.00018693
0.000181643
0.000180004
0.000181464
0.000180497
0.000180921
0.000182667
0.000183951
0.000181319
0.000173074
0.000167552
0.000160587
0.000560423
0.000618346
0.000410336
)
;
    }
    sWall
    {
        type            compressible::alphatWallFunction;
        Prt             0.85;
        value           uniform 0.000252088;
    }
    nWall
    {
        type            compressible::alphatWallFunction;
        Prt             0.85;
        value           nonuniform List<scalar> 6(0.000123172 0.00013255 0.000160588 0.000194104 0.00020547 0.000160288);
    }
    sideWalls
    {
        type            empty;
    }
    glass1
    {
        type            compressible::alphatWallFunction;
        Prt             0.85;
        value           nonuniform List<scalar> 9(0.000295039 0.000409701 0.000437002 0.0004537 0.000466924 0.000479633 0.000494471 0.000515746 0.000553423);
    }
    glass2
    {
        type            compressible::alphatWallFunction;
        Prt             0.85;
        value           nonuniform List<scalar> 2(0.000210763 0.000205931);
    }
    sun
    {
        type            compressible::alphatWallFunction;
        Prt             0.85;
        value           nonuniform List<scalar> 
14
(
0.000299542
0.000360705
0.000353463
0.000343881
0.00033555
0.000328398
0.000322095
0.000316316
0.000310696
0.000304934
0.00029871
0.000291608
0.000282957
0.000271329
)
;
    }
    heatsource1
    {
        type            compressible::alphatWallFunction;
        Prt             0.85;
        value           nonuniform List<scalar> 3(9.84374e-05 0.000103347 0.000123391);
    }
    heatsource2
    {
        type            compressible::alphatWallFunction;
        Prt             0.85;
        value           nonuniform List<scalar> 4(0.00024634 0.000221636 0.000221633 0.000223296);
    }
    Table_master
    {
        type            compressible::alphatWallFunction;
        Prt             0.85;
        value           nonuniform List<scalar> 9(6.9434e-05 5.22109e-05 4.91659e-05 4.59493e-05 4.22461e-05 3.88516e-05 3.57739e-05 3.30766e-05 3.1816e-05);
    }
    Table_slave
    {
        type            compressible::alphatWallFunction;
        Prt             0.85;
        value           nonuniform List<scalar> 9(0.000114262 0.000114299 0.000115038 0.000115633 0.000116406 0.000116769 0.000116131 0.000113368 0.0001073);
    }
    inlet
    {
        type            fixedValue;
        value           uniform 1.94e-05;
    }
    outlet
    {
        type            zeroGradient;
    }
}


// ************************************************************************* //
