/*--------------------------------*- C++ -*----------------------------------*\
  =========                 |
  \\      /  F ield         | OpenFOAM: The Open Source CFD Toolbox
   \\    /   O peration     | Website:  https://openfoam.org
    \\  /    A nd           | Version:  6
     \\/     M anipulation  |
\*---------------------------------------------------------------------------*/
FoamFile
{
    version     2.0;
    format      ascii;
    class       volScalarField;
    location    "100";
    object      alphat;
}
// * * * * * * * * * * * * * * * * * * * * * * * * * * * * * * * * * * * * * //

dimensions      [1 -1 -1 0 0 0 0];

internalField   nonuniform List<scalar> 
459
(
0.00281066
0.00273828
0.00265295
0.00257453
0.00250742
0.00244885
0.00239656
0.00234825
0.00230153
0.00225414
0.00220364
0.00214684
0.00207859
0.00198796
0.00186722
0.000372791
0.000489323
0.0005518
0.000589408
0.000586009
0.000552788
0.000506019
0.000465513
0.000428632
0.000393958
0.00036076
0.00032891
0.000298625
0.000270364
0.000244877
0.000223767
0.000211611
0.000229547
0.000210739
0.00316167
0.00350456
0.00355048
0.0034572
0.00340395
0.00339818
0.00341841
0.00342977
0.00341025
0.00335478
0.00325984
0.00312092
0.00292641
0.00264108
0.00224774
0.00178747
0.00159923
0.000516604
0.0020926
0.00227604
0.00212167
0.00178638
0.0014179
0.00116894
0.00101971
0.000879838
0.000750782
0.000642081
0.000555656
0.00048947
0.000440329
0.000406724
0.000379394
0.000453897
0.000751412
0.000289151
0.00336037
0.00387755
0.00359404
0.00327251
0.00319056
0.00325477
0.00338456
0.00351754
0.00362058
0.00366702
0.00363912
0.00352689
0.00332415
0.00301506
0.0026235
0.00224971
0.00160772
0.00071607
0.00253959
0.00259003
0.00217942
0.00165194
0.00112076
0.000413389
0.000345165
0.000324835
0.000299954
0.000274078
0.000252201
0.000235127
0.000222518
0.000228965
0.000486051
0.000675815
0.0011464
0.000376275
0.00349994
0.00415724
0.00322317
0.00272335
0.00289049
0.00331759
0.00378682
0.00410697
0.00423792
0.00420675
0.00406747
0.00385717
0.00358735
0.00324299
0.0028432
0.00246118
0.00190852
0.00130869
0.00198262
0.00267109
0.00252493
0.00208472
0.00160826
0.00114642
0.000797756
0.000807815
0.000822307
0.000836823
0.000849718
0.000862739
0.000868698
0.000863772
0.000839933
0.000976285
0.00107356
0.00126921
0.000620702
0.00361709
0.00422535
0.00254264
0.00245908
0.00380908
0.00501478
0.00579164
0.00610823
0.00571606
0.00512323
0.00457241
0.00411916
0.00372714
0.00333173
0.00292301
0.00254576
0.00210723
0.00175138
0.00252124
0.00318111
0.00326847
0.00317193
0.00312922
0.00312791
0.00316133
0.0032494
0.00333851
0.00342834
0.00352312
0.00361232
0.00365071
0.00361672
0.00349418
0.00328989
0.00282524
0.0023311
0.00155101
0.00073444
0.000695676
0.000824628
0.0037328
0.00407422
0.00193357
0.00334657
0.00561076
0.00637465
0.00670656
0.0067427
0.00617713
0.00535421
0.00464659
0.00411144
0.00368284
0.00327897
0.00288855
0.00253231
0.00221086
0.00208459
0.00296676
0.00358208
0.00370228
0.00369226
0.00371707
0.00375598
0.00378583
0.00380589
0.00382498
0.00385553
0.00390765
0.00397908
0.00403754
0.00403689
0.00397224
0.00387163
0.00366372
0.00322114
0.00258825
0.0017675
0.00167537
0.000879522
0.00386809
0.00376568
0.00185566
0.00312149
0.0053871
0.00582811
0.00586561
0.00574898
0.00541078
0.00487736
0.00434588
0.00389387
0.00350754
0.00314506
0.00280227
0.00250049
0.00230984
0.00239715
0.00332515
0.00387815
0.0040027
0.00403393
0.00408321
0.00410973
0.00409097
0.00403837
0.00397888
0.00393609
0.00392583
0.00394768
0.00397046
0.00395372
0.00389575
0.00388189
0.00396928
0.00386265
0.00343955
0.00288929
0.00239995
0.00108103
0.00406211
0.00384704
0.00227671
0.00208624
0.00412169
0.00459571
0.00460358
0.00456088
0.00444168
0.0041997
0.00389565
0.00358787
0.00329376
0.00300707
0.0027334
0.00250976
0.00243907
0.00269928
0.00362594
0.00419058
0.0043716
0.00446667
0.00453435
0.00455472
0.00450412
0.00439629
0.00426879
0.00415531
0.0040779
0.00404229
0.00401049
0.00392983
0.00380618
0.00375959
0.0039533
0.0043644
0.00446129
0.00406359
0.00404231
0.00136021
0.00440241
0.00491284
0.00385724
0.00199028
0.00287135
0.00365025
0.00375124
0.00377602
0.00374594
0.00366339
0.00352214
0.00334939
0.00316171
0.00296394
0.00276556
0.00261322
0.00262365
0.00301609
0.00394403
0.00455455
0.00485953
0.0050137
0.00507854
0.00508497
0.0050162
0.00487931
0.00471006
0.00454616
0.00441056
0.00432282
0.00424218
0.004078
0.00375925
0.00333162
0.00295578
0.00272758
0.00254886
0.00235514
0.00216021
0.00138133
0.0059729
0.00265696
0.00293808
0.00331088
0.00344136
0.00352347
0.00355281
0.00352681
0.00346897
0.00338946
0.00329059
0.00317058
0.00303212
0.00291741
0.00295888
0.00347651
0.00432502
0.00499998
0.00546344
0.00564586
0.00570551
0.00568115
0.00558477
0.00543554
0.00526106
0.00508721
0.00492714
0.00481793
0.00476137
0.00471147
0.00459756
0.0043363
0.00389302
0.00341518
0.00301141
0.0026757
0.00233792
0.00140597
0.00316121
0.00275512
0.00337629
0.00318821
0.00317282
0.00319036
0.0032059
0.0031879
0.00318167
0.00318692
0.00318976
0.00317451
0.00312492
0.00305189
0.00304759
0.00334883
0.0039154
0.00466281
0.00536802
0.00587547
0.00615817
0.00625065
0.00621593
0.00611816
0.00600361
0.0058921
0.00577948
0.00565991
0.005579
0.00558292
0.00566431
0.00566221
0.00513366
0.00441398
0.00367506
0.00318984
0.00337047
0.00152993
0.00176882
0.00170236
0.00181893
0.0013105
0.00134288
0.00135575
0.00137156
0.00138445
0.00139581
0.0014073
0.00141761
0.00142728
0.00143605
0.00144261
0.00144455
0.00143781
0.00140098
0.00134023
0.00130714
0.00129925
0.0013117
0.00135016
0.00139707
0.00143841
0.00146749
0.001484
0.00149102
0.0014915
0.00148513
0.00146826
0.00144287
0.00142472
0.00142511
0.00142263
0.00142348
0.00139771
0.00134196
0.00126191
0.00122711
0.00117219
)
;

boundaryField
{
    floor
    {
        type            compressible::alphatWallFunction;
        Prt             0.85;
        value           nonuniform List<scalar> 
29
(
0.000259946
4.95036e-05
6.76991e-05
7.72303e-05
8.29083e-05
8.24026e-05
7.73961e-05
7.0278e-05
6.40467e-05
5.83132e-05
5.2865e-05
4.75903e-05
4.24699e-05
3.75403e-05
3.28801e-05
2.86209e-05
2.50475e-05
2.2966e-05
2.60135e-05
2.28144e-05
2.2814e-05
3.59732e-05
5.00427e-05
8.75329e-05
0.000259944
4.95029e-05
7.18837e-05
0.000101668
0.000185227
)
;
    }
    ceiling
    {
        type            compressible::alphatWallFunction;
        Prt             0.85;
        value           nonuniform List<scalar> 
43
(
0.000247193
0.000238369
0.000253695
0.000185593
0.000190009
0.000191762
0.000193912
0.000195662
0.000197203
0.000198761
0.000200157
0.000201466
0.00020265
0.000203537
0.000203798
0.000202886
0.000197896
0.000189638
0.00018512
0.000184037
0.000185734
0.000190972
0.000197341
0.000202934
0.000206857
0.00020908
0.000210021
0.00021008
0.000209211
0.000206923
0.000203485
0.00020104
0.000201106
0.000200762
0.000200873
0.000197382
0.000189814
0.000178885
0.000174105
0.000166535
0.000576127
0.000637023
0.000424785
)
;
    }
    sWall
    {
        type            compressible::alphatWallFunction;
        Prt             0.85;
        value           uniform 0.000246247;
    }
    nWall
    {
        type            compressible::alphatWallFunction;
        Prt             0.85;
        value           nonuniform List<scalar> 6(0.00011726 0.000125135 0.000153581 0.000198214 0.000214919 0.000166244);
    }
    sideWalls
    {
        type            empty;
    }
    glass1
    {
        type            compressible::alphatWallFunction;
        Prt             0.85;
        value           nonuniform List<scalar> 9(0.000375767 0.000419256 0.000443646 0.00046068 0.000474915 0.000488924 0.000505246 0.000528584 0.000569313);
    }
    glass2
    {
        type            compressible::alphatWallFunction;
        Prt             0.85;
        value           nonuniform List<scalar> 2(0.000191315 0.000194186);
    }
    sun
    {
        type            compressible::alphatWallFunction;
        Prt             0.85;
        value           nonuniform List<scalar> 
14
(
0.000380945
0.00037183
0.000361057
0.000351126
0.000342603
0.000335144
0.000328469
0.000322289
0.000316299
0.00031021
0.000303705
0.000296371
0.00028753
0.000275743
)
;
    }
    heatsource1
    {
        type            compressible::alphatWallFunction;
        Prt             0.85;
        value           nonuniform List<scalar> 3(0.000104349 9.86777e-05 0.000117446);
    }
    heatsource2
    {
        type            compressible::alphatWallFunction;
        Prt             0.85;
        value           nonuniform List<scalar> 4(0.000249393 0.000224416 0.000224413 0.000225547);
    }
    Table_master
    {
        type            compressible::alphatWallFunction;
        Prt             0.85;
        value           nonuniform List<scalar> 9(5.59509e-05 4.51101e-05 4.18295e-05 3.7777e-05 3.35149e-05 2.98698e-05 2.69956e-05 2.48535e-05 2.59417e-05);
    }
    Table_slave
    {
        type            compressible::alphatWallFunction;
        Prt             0.85;
        value           nonuniform List<scalar> 9(0.000113584 0.000115032 0.000117117 0.0001192 0.000121046 0.000122907 0.000123757 0.000123048 0.000119623);
    }
    inlet
    {
        type            fixedValue;
        value           uniform 1.94e-05;
    }
    outlet
    {
        type            zeroGradient;
    }
}


// ************************************************************************* //
