/*--------------------------------*- C++ -*----------------------------------*\
  =========                 |
  \\      /  F ield         | OpenFOAM: The Open Source CFD Toolbox
   \\    /   O peration     | Website:  https://openfoam.org
    \\  /    A nd           | Version:  6
     \\/     M anipulation  |
\*---------------------------------------------------------------------------*/
FoamFile
{
    version     2.0;
    format      ascii;
    class       volScalarField;
    location    "100";
    object      epsilon;
}
// * * * * * * * * * * * * * * * * * * * * * * * * * * * * * * * * * * * * * //

dimensions      [0 2 -3 0 0 0 0];

internalField   nonuniform List<scalar> 
459
(
0.0023861
0.00432486
0.0040466
0.00370162
0.00341941
0.00318969
0.00299657
0.00282691
0.00266851
0.00251274
0.0023518
0.0021772
0.00197713
0.00172912
0.00143042
1.90543e-05
4.02173e-05
5.20817e-05
6.24383e-05
6.3029e-05
5.53859e-05
4.29296e-05
3.40699e-05
2.74876e-05
2.23193e-05
1.81158e-05
1.46512e-05
1.17925e-05
9.44031e-06
7.50894e-06
5.92877e-06
4.68714e-06
4.28749e-06
3.26772e-06
0.0068305
0.00564859
0.00449103
0.00350631
0.00284963
0.00242593
0.00213499
0.00192281
0.00176761
0.00165325
0.00157025
0.00151025
0.00145855
0.00137516
0.00122435
0.00127162
0.000910332
3.99491e-05
5.24104e-05
4.67984e-05
5.08542e-05
5.29086e-05
5.02608e-05
3.26597e-05
2.52763e-05
2.06865e-05
1.68384e-05
1.34495e-05
1.05702e-05
8.22347e-06
6.37128e-06
4.96596e-06
4.01904e-06
3.83897e-06
1.30358e-05
7.54056e-06
0.00840733
0.00693417
0.00474958
0.00320636
0.00240769
0.00199057
0.00175823
0.00161519
0.00149557
0.00138971
0.00129832
0.00122586
0.00117299
0.00111737
0.00104739
0.00105554
0.000931939
0.000100578
7.16799e-05
5.82936e-05
5.94522e-05
6.23758e-05
6.27215e-05
2.86716e-05
1.35359e-05
1.16316e-05
9.83646e-06
8.02475e-06
6.5849e-06
5.44747e-06
4.57209e-06
4.19924e-06
9.29607e-06
1.07321e-05
4.84393e-05
1.44835e-05
0.00948712
0.00834808
0.00451728
0.00233019
0.00148415
0.0011448
0.00101311
0.000978931
0.000986415
0.000993704
0.000987546
0.000970939
0.000952002
0.000924907
0.00089729
0.000905439
0.000853287
0.000540834
0.000194336
7.1306e-05
5.90503e-05
6.12614e-05
6.79588e-05
8.27104e-05
0.000118202
0.000118303
0.000120572
0.000122421
0.000124852
0.000126007
0.000123975
0.000115449
9.81956e-05
6.94862e-05
5.17852e-05
7.58915e-05
4.38461e-05
0.0104073
0.00988444
0.00392354
0.00141537
0.000815701
0.000663918
0.000647444
0.000664755
0.000702224
0.000736143
0.000759569
0.000772072
0.00077682
0.000770118
0.000766054
0.000780309
0.000801507
0.000569331
0.000161504
6.83156e-05
5.84506e-05
6.12987e-05
6.73492e-05
7.47664e-05
8.31482e-05
8.9587e-05
9.45651e-05
9.84657e-05
0.000101355
0.000102106
0.000100683
9.52462e-05
8.34122e-05
6.70525e-05
5.55621e-05
5.91428e-05
5.88123e-05
7.63744e-05
8.80291e-05
0.000148516
0.0113477
0.0113112
0.00374622
0.000798723
0.000599988
0.000514638
0.000514582
0.000528882
0.000553496
0.000580227
0.000606529
0.000627415
0.000641698
0.000645776
0.000655667
0.000677769
0.000731182
0.000541307
0.000173287
7.71062e-05
6.60915e-05
7.21587e-05
8.29814e-05
9.37211e-05
0.000102998
0.000109992
0.000114427
0.000116623
0.000118239
0.00012069
0.000123944
0.000126395
0.000123671
0.000105217
8.16827e-05
6.75636e-05
6.3191e-05
6.64153e-05
0.000163552
0.00018495
0.0125181
0.0125276
0.00573484
0.000873949
0.000565854
0.000438623
0.000423368
0.000434873
0.000454829
0.000476186
0.000499266
0.000520544
0.000537977
0.000550613
0.000568694
0.000596633
0.000649648
0.000483565
0.000175975
8.46712e-05
7.80566e-05
9.2029e-05
0.000111335
0.000128285
0.000140685
0.000148648
0.000152172
0.000151393
0.000149156
0.000149658
0.000155447
0.0001676
0.00018548
0.000197369
0.000168838
0.00014993
0.000154286
0.000179458
0.000306665
0.000331285
0.0143417
0.0160472
0.0134629
0.00145233
0.000501441
0.000345564
0.000333186
0.000350846
0.000375418
0.00039949
0.00042295
0.000445506
0.000466499
0.000486008
0.000507966
0.000535733
0.000571353
0.000418619
0.000166755
9.44781e-05
9.9977e-05
0.000129268
0.000162255
0.000188912
0.000207268
0.000218449
0.000222269
0.000217288
0.000207779
0.000202163
0.00020646
0.000225823
0.000266049
0.000331142
0.000424328
0.000529672
0.000754387
0.00102977
0.00252143
0.000781544
0.0180192
0.0248059
0.0417987
0.00495559
0.000518626
0.000302468
0.000286278
0.000301688
0.000324583
0.00035199
0.000379302
0.000406677
0.000433622
0.000458854
0.000480825
0.000499353
0.000508023
0.000365397
0.000167426
0.000126663
0.000154673
0.000211369
0.000261478
0.00029928
0.000325383
0.00034284
0.000350668
0.000341449
0.000318782
0.000298106
0.000289332
0.000298881
0.000337193
0.000409118
0.000508663
0.000632795
0.00078036
0.00093633
0.00108854
0.000727031
0.0938507
0.0107055
0.000868961
0.000368758
0.000319391
0.000325928
0.00035029
0.000379186
0.000410681
0.000444456
0.000478139
0.000506948
0.000523359
0.000522555
0.000504189
0.000382258
0.000238846
0.000254239
0.000328078
0.000409242
0.000478153
0.000528721
0.00056326
0.000588559
0.000606885
0.000598788
0.000556431
0.000508422
0.000474318
0.000444405
0.000420429
0.000432712
0.000506583
0.000601469
0.000687403
0.000748331
0.000750172
0.000596249
0.00651002
0.00158445
0.00109825
0.000565532
0.000438079
0.000381558
0.000362528
0.000372165
0.000397165
0.000431163
0.000469413
0.000504238
0.00052292
0.000513743
0.000474584
0.000353926
0.000334003
0.00043901
0.000623565
0.000823976
0.00099396
0.0011144
0.0011929
0.00124781
0.00128664
0.00128164
0.00119295
0.00107327
0.0010235
0.0010187
0.000972814
0.000816484
0.000680644
0.000623198
0.000590071
0.000595763
0.000910991
0.000712231
0.00139791
0.00118995
0.00127601
0.000515152
0.000556053
0.000578424
0.000602166
0.000621674
0.000638963
0.000656441
0.000672461
0.000687404
0.000700393
0.000709179
0.000710045
0.000697373
0.000639303
0.000546847
0.000490168
0.000460567
0.000456315
0.000477307
0.000511096
0.000545904
0.000573278
0.00058885
0.000589678
0.000570276
0.000527908
0.00048247
0.000468896
0.000480751
0.000472807
0.000476321
0.000490802
0.000501673
0.000479757
0.00041535
0.000375765
0.000329831
)
;

boundaryField
{
    floor
    {
        Cmu             0.09;
        kappa           0.41;
        E               9.8;
        type            epsilonWallFunction;
        value           nonuniform List<scalar> 
29
(
0.00143042
1.90543e-05
4.02173e-05
5.20817e-05
6.24383e-05
6.3029e-05
5.53859e-05
4.29296e-05
3.40699e-05
2.74876e-05
2.23193e-05
1.81158e-05
1.46512e-05
1.17925e-05
9.44031e-06
7.50894e-06
5.92877e-06
4.68714e-06
4.28749e-06
3.26772e-06
3.26772e-06
7.54056e-06
1.44835e-05
4.38461e-05
0.00143042
1.90543e-05
3.99491e-05
0.000100578
0.000540834
)
;
    }
    ceiling
    {
        Cmu             0.09;
        kappa           0.41;
        E               9.8;
        type            epsilonWallFunction;
        value           nonuniform List<scalar> 
43
(
0.00139791
0.00118995
0.00127601
0.000515152
0.000556053
0.000578424
0.000602166
0.000621674
0.000638963
0.000656441
0.000672461
0.000687404
0.000700393
0.000709179
0.000710045
0.000697373
0.000639303
0.000546847
0.000490168
0.000460567
0.000456315
0.000477307
0.000511096
0.000545904
0.000573278
0.00058885
0.000589678
0.000570276
0.000527908
0.00048247
0.000468896
0.000480751
0.000472807
0.000476321
0.000490802
0.000501673
0.000479757
0.00041535
0.000375765
0.000329831
0.0180192
0.0248059
0.00651002
)
;
    }
    sWall
    {
        Cmu             0.09;
        kappa           0.41;
        E               9.8;
        type            epsilonWallFunction;
        value           uniform 0.00139791;
    }
    nWall
    {
        Cmu             0.09;
        kappa           0.41;
        E               9.8;
        type            epsilonWallFunction;
        value           nonuniform List<scalar> 6(0.000148516 0.00018495 0.000331285 0.000596249 0.000712231 0.000329831);
    }
    sideWalls
    {
        type            empty;
    }
    glass1
    {
        Cmu             0.09;
        kappa           0.41;
        E               9.8;
        type            epsilonWallFunction;
        value           nonuniform List<scalar> 9(0.0023861 0.0068305 0.00840733 0.00948712 0.0104073 0.0113477 0.0125181 0.0143417 0.0180192);
    }
    glass2
    {
        Cmu             0.09;
        kappa           0.41;
        E               9.8;
        type            epsilonWallFunction;
        value           nonuniform List<scalar> 2(0.000781544 0.000727031);
    }
    sun
    {
        Cmu             0.09;
        kappa           0.41;
        E               9.8;
        type            epsilonWallFunction;
        value           nonuniform List<scalar> 
14
(
0.0023861
0.00432486
0.0040466
0.00370162
0.00341941
0.00318969
0.00299657
0.00282691
0.00266851
0.00251274
0.0023518
0.0021772
0.00197713
0.00172912
)
;
    }
    heatsource1
    {
        Cmu             0.09;
        kappa           0.41;
        E               9.8;
        type            epsilonWallFunction;
        value           nonuniform List<scalar> 3(7.63744e-05 8.80291e-05 0.000148516);
    }
    heatsource2
    {
        Cmu             0.09;
        kappa           0.41;
        E               9.8;
        type            epsilonWallFunction;
        value           nonuniform List<scalar> 4(0.00127162 0.000910332 0.000910332 0.000931939);
    }
    Table_master
    {
        Cmu             0.09;
        kappa           0.41;
        E               9.8;
        type            epsilonWallFunction;
        value           nonuniform List<scalar> 9(2.86716e-05 1.35359e-05 1.16316e-05 9.83646e-06 8.02475e-06 6.5849e-06 5.44747e-06 4.57209e-06 4.19924e-06);
    }
    Table_slave
    {
        Cmu             0.09;
        kappa           0.41;
        E               9.8;
        type            epsilonWallFunction;
        value           nonuniform List<scalar> 9(0.000118202 0.000118303 0.000120572 0.000122421 0.000124852 0.000126007 0.000123975 0.000115449 9.81956e-05);
    }
    inlet
    {
        type            turbulentMixingLengthDissipationRateInlet;
        mixingLength    0.01;
        phi             phi;
        k               k;
        value           uniform 3.77336e-06;
    }
    outlet
    {
        type            zeroGradient;
    }
}


// ************************************************************************* //
