/*--------------------------------*- C++ -*----------------------------------*\
  =========                 |
  \\      /  F ield         | OpenFOAM: The Open Source CFD Toolbox
   \\    /   O peration     | Website:  https://openfoam.org
    \\  /    A nd           | Version:  6
     \\/     M anipulation  |
\*---------------------------------------------------------------------------*/
FoamFile
{
    version     2.0;
    format      ascii;
    class       volScalarField;
    location    "100";
    object      epsilon;
}
// * * * * * * * * * * * * * * * * * * * * * * * * * * * * * * * * * * * * * //

dimensions      [0 2 -3 0 0 0 0];

internalField   nonuniform List<scalar> 
459
(
0.00518092
0.00478351
0.00434753
0.00397207
0.00366874
0.00341711
0.00320252
0.00301252
0.00283606
0.00266426
0.00248899
0.00230128
0.00208854
0.00182695
0.00151369
1.18918e-05
2.68832e-05
3.85656e-05
4.7024e-05
4.62256e-05
3.88046e-05
2.97607e-05
2.31679e-05
1.80841e-05
1.40394e-05
1.07797e-05
8.16832e-06
6.11278e-06
4.53601e-06
3.3702e-06
2.57153e-06
2.17408e-06
2.77123e-06
2.14694e-06
0.00736912
0.00570091
0.00458633
0.00361518
0.00297616
0.00255879
0.00226969
0.00205902
0.00189889
0.00177406
0.00167583
0.00159698
0.00152544
0.0014277
0.00127776
0.00132732
0.00095043
3.16522e-05
3.80631e-05
3.94294e-05
4.33654e-05
4.33719e-05
3.74833e-05
2.26572e-05
1.72018e-05
1.3313e-05
1.01034e-05
7.50093e-06
5.51016e-06
4.05787e-06
3.02846e-06
2.37229e-06
2.49794e-06
3.14405e-06
1.18713e-05
5.54432e-06
0.00884249
0.0069408
0.00480732
0.00323857
0.00242169
0.00198231
0.00173167
0.00157882
0.00146524
0.00137401
0.00129875
0.00123844
0.00119158
0.00113822
0.00107529
0.00109007
0.000965541
8.42729e-05
5.64571e-05
5.15801e-05
5.29381e-05
5.3284e-05
4.9516e-05
1.62285e-05
9.44085e-06
7.86852e-06
6.19493e-06
4.72579e-06
3.68215e-06
2.98405e-06
2.52912e-06
2.75289e-06
2.15652e-05
1.82963e-05
4.12599e-05
1.22174e-05
0.00998515
0.00840391
0.00456482
0.00235896
0.00151117
0.00116387
0.00102215
0.0009795
0.000975528
0.000977078
0.000972027
0.000960969
0.000948612
0.000927474
0.000908699
0.000926106
0.000882043
0.000518095
0.000151478
5.97989e-05
5.40089e-05
5.8351e-05
6.67387e-05
8.29343e-05
0.000116587
0.000121026
0.000127631
0.000134481
0.000140765
0.000147303
0.000150361
0.000147802
0.000135876
9.2295e-05
6.95559e-05
6.67971e-05
5.47973e-05
0.0110152
0.00994903
0.0039957
0.00145424
0.000850831
0.000691985
0.000667616
0.000679166
0.000707226
0.000730997
0.000747688
0.000758782
0.000766426
0.000765
0.000769195
0.000792347
0.000823229
0.000557916
0.00013989
6.10578e-05
5.49588e-05
5.90513e-05
6.64419e-05
7.51519e-05
8.4378e-05
9.25747e-05
0.000100661
0.000108293
0.000115336
0.00012123
0.000123516
0.000121714
0.000113387
9.58225e-05
7.71124e-05
6.68916e-05
6.02315e-05
9.08413e-05
7.72499e-05
0.000128723
0.0120982
0.0114779
0.00390296
0.000832272
0.000631611
0.000535754
0.000528377
0.000538452
0.000558361
0.000577222
0.000596188
0.000613955
0.000629745
0.00063846
0.000655536
0.000685142
0.000746116
0.000531819
0.00015681
7.01008e-05
6.25173e-05
6.98809e-05
8.17421e-05
9.42316e-05
0.000105717
0.000116053
0.000125511
0.000133654
0.0001398
0.000144366
0.000148327
0.000151515
0.00015226
0.000145323
0.000117517
9.18858e-05
7.5865e-05
7.59806e-05
0.00012472
0.000156144
0.0134506
0.0130284
0.00606926
0.000917664
0.000595914
0.000452889
0.000430336
0.000438135
0.00045492
0.000471426
0.000489682
0.000508543
0.000527075
0.000543759
0.000567673
0.000601168
0.000658507
0.0004751
0.000163072
7.86271e-05
7.49395e-05
8.9979e-05
0.00011077
0.00013043
0.000146305
0.000159263
0.000170426
0.000179292
0.000184143
0.000185218
0.000186419
0.000191672
0.000202986
0.000220298
0.000229701
0.000195928
0.000178018
0.000181437
0.000272518
0.000289952
0.0155647
0.0172178
0.0144818
0.00155012
0.00053453
0.000355135
0.000335068
0.000349767
0.000372238
0.000393483
0.000414162
0.000435321
0.000457362
0.000480285
0.000506721
0.000538163
0.000575904
0.000412617
0.000158815
9.16113e-05
9.99519e-05
0.000130068
0.000167764
0.000198167
0.000220098
0.000236734
0.000250921
0.000262038
0.000265864
0.000260939
0.000254558
0.000256548
0.000275107
0.000318854
0.000399094
0.00051825
0.000657969
0.000826318
0.00203022
0.000578377
0.0197984
0.0274568
0.0455963
0.00550856
0.00056865
0.00031427
0.000287527
0.000298973
0.0003195
0.000345209
0.000370986
0.000397702
0.000425681
0.000453749
0.000479218
0.000500263
0.000510343
0.000363163
0.000165565
0.000131635
0.00016743
0.000233564
0.000292868
0.000333612
0.000359614
0.00037855
0.000396316
0.000412577
0.000418193
0.000404097
0.000379909
0.000362228
0.000362275
0.000388068
0.000443108
0.000527904
0.000636645
0.000763238
0.000898384
0.000605957
0.102067
0.0120101
0.000982725
0.000398856
0.000331617
0.000331414
0.000352508
0.000378698
0.000407852
0.000440291
0.000474176
0.000504898
0.000524086
0.000525503
0.00050954
0.00038851
0.000255632
0.000289416
0.000388462
0.000501646
0.000586392
0.000639178
0.00066642
0.000681481
0.00069747
0.000719101
0.000735572
0.000716662
0.000668103
0.000618392
0.000576906
0.00054703
0.000553191
0.000601783
0.00065481
0.000692432
0.0006885
0.000638449
0.00731275
0.00173589
0.00128468
0.000638327
0.000477936
0.000402138
0.00037038
0.000370858
0.000389868
0.000419677
0.000455615
0.000490461
0.000511538
0.000506216
0.00047128
0.000365784
0.000376251
0.000529173
0.000782929
0.00104712
0.00125545
0.00138385
0.00144874
0.0014841
0.00151978
0.00156691
0.00160533
0.00158296
0.00148721
0.00139717
0.0013558
0.00129744
0.00105101
0.000833399
0.000673588
0.000613197
0.00102362
0.000822571
0.00130341
0.00115689
0.00139474
0.000521351
0.000561013
0.000577345
0.000597817
0.00061486
0.000630146
0.000645875
0.000660192
0.000673791
0.000686249
0.000695641
0.000698309
0.000688334
0.000635969
0.000556293
0.00051582
0.000506333
0.000520859
0.000567852
0.000628942
0.000686279
0.000728563
0.000753248
0.000763748
0.000764147
0.000753888
0.000727823
0.000690061
0.000664047
0.000664576
0.00066098
0.000662165
0.00062688
0.000554931
0.000461524
0.000424374
0.00037003
)
;

boundaryField
{
    floor
    {
        Cmu             0.09;
        kappa           0.41;
        E               9.8;
        type            epsilonWallFunction;
        value           nonuniform List<scalar> 
29
(
0.00151369
1.18918e-05
2.68832e-05
3.85656e-05
4.7024e-05
4.62256e-05
3.88046e-05
2.97607e-05
2.31679e-05
1.80841e-05
1.40394e-05
1.07797e-05
8.16832e-06
6.11278e-06
4.53601e-06
3.3702e-06
2.57153e-06
2.17408e-06
2.77123e-06
2.14694e-06
2.14694e-06
5.54432e-06
1.22174e-05
5.47973e-05
0.00151369
1.18918e-05
3.16522e-05
8.42729e-05
0.000518095
)
;
    }
    ceiling
    {
        Cmu             0.09;
        kappa           0.41;
        E               9.8;
        type            epsilonWallFunction;
        value           nonuniform List<scalar> 
43
(
0.00130341
0.00115689
0.00139474
0.000521351
0.000561013
0.000577345
0.000597817
0.00061486
0.000630146
0.000645875
0.000660192
0.000673791
0.000686249
0.000695641
0.000698309
0.000688334
0.000635969
0.000556293
0.00051582
0.000506333
0.000520859
0.000567852
0.000628942
0.000686279
0.000728563
0.000753248
0.000763748
0.000764147
0.000753888
0.000727823
0.000690061
0.000664047
0.000664576
0.00066098
0.000662165
0.00062688
0.000554931
0.000461524
0.000424374
0.00037003
0.0197984
0.0274568
0.00731275
)
;
    }
    sWall
    {
        Cmu             0.09;
        kappa           0.41;
        E               9.8;
        type            epsilonWallFunction;
        value           uniform 0.00130341;
    }
    nWall
    {
        Cmu             0.09;
        kappa           0.41;
        E               9.8;
        type            epsilonWallFunction;
        value           nonuniform List<scalar> 6(0.000128723 0.000156144 0.000289952 0.000638449 0.000822571 0.00037003);
    }
    sideWalls
    {
        type            empty;
    }
    glass1
    {
        Cmu             0.09;
        kappa           0.41;
        E               9.8;
        type            epsilonWallFunction;
        value           nonuniform List<scalar> 9(0.00518092 0.00736912 0.00884249 0.00998515 0.0110152 0.0120982 0.0134506 0.0155647 0.0197984);
    }
    glass2
    {
        Cmu             0.09;
        kappa           0.41;
        E               9.8;
        type            epsilonWallFunction;
        value           nonuniform List<scalar> 2(0.000578377 0.000605957);
    }
    sun
    {
        Cmu             0.09;
        kappa           0.41;
        E               9.8;
        type            epsilonWallFunction;
        value           nonuniform List<scalar> 
14
(
0.00518092
0.00478351
0.00434753
0.00397207
0.00366874
0.00341711
0.00320252
0.00301252
0.00283606
0.00266426
0.00248899
0.00230128
0.00208854
0.00182695
)
;
    }
    heatsource1
    {
        Cmu             0.09;
        kappa           0.41;
        E               9.8;
        type            epsilonWallFunction;
        value           nonuniform List<scalar> 3(9.08413e-05 7.72499e-05 0.000128723);
    }
    heatsource2
    {
        Cmu             0.09;
        kappa           0.41;
        E               9.8;
        type            epsilonWallFunction;
        value           nonuniform List<scalar> 4(0.00132732 0.00095043 0.00095043 0.000965541);
    }
    Table_master
    {
        Cmu             0.09;
        kappa           0.41;
        E               9.8;
        type            epsilonWallFunction;
        value           nonuniform List<scalar> 9(1.62285e-05 9.44085e-06 7.86852e-06 6.19493e-06 4.72579e-06 3.68215e-06 2.98405e-06 2.52912e-06 2.75289e-06);
    }
    Table_slave
    {
        Cmu             0.09;
        kappa           0.41;
        E               9.8;
        type            epsilonWallFunction;
        value           nonuniform List<scalar> 9(0.000116587 0.000121026 0.000127631 0.000134481 0.000140765 0.000147303 0.000150361 0.000147802 0.000135876);
    }
    inlet
    {
        type            turbulentMixingLengthDissipationRateInlet;
        mixingLength    0.01;
        phi             phi;
        k               k;
        value           uniform 3.77336e-06;
    }
    outlet
    {
        type            zeroGradient;
    }
}


// ************************************************************************* //
