/*--------------------------------*- C++ -*----------------------------------*\
  =========                 |
  \\      /  F ield         | OpenFOAM: The Open Source CFD Toolbox
   \\    /   O peration     | Website:  https://openfoam.org
    \\  /    A nd           | Version:  6
     \\/     M anipulation  |
\*---------------------------------------------------------------------------*/
FoamFile
{
    version     2.0;
    format      ascii;
    class       volScalarField;
    location    "100";
    object      epsilon;
}
// * * * * * * * * * * * * * * * * * * * * * * * * * * * * * * * * * * * * * //

dimensions      [0 2 -3 0 0 0 0];

internalField   nonuniform List<scalar> 
459
(
0.000155346
0.000165554
0.000110906
0.000121676
0.000136465
0.000152199
0.000168659
0.000186159
0.00020552
0.000225336
0.000242209
0.000253982
0.000258636
0.000254576
0.000237721
3.28513e-05
4.76091e-05
4.95393e-05
2.84623e-05
1.17952e-05
6.62734e-06
4.57158e-06
4.18615e-06
3.60594e-06
3.12883e-06
2.82327e-06
2.66414e-06
2.62445e-06
3.36935e-06
8.88912e-06
3.06763e-05
5.5062e-05
5.5095e-05
3.84469e-05
0.000858557
0.0019728
0.000180563
9.57646e-05
9.77408e-05
0.00010532
0.000114256
0.000125009
0.00013847
0.00015458
0.000172209
0.000190316
0.000206652
0.000217214
0.000224539
0.000290303
0.000100871
5.74171e-05
0.00011471
7.82235e-05
3.76189e-05
2.42501e-05
1.34483e-05
4.83354e-06
3.48054e-06
3.07514e-06
3.07164e-06
3.50915e-06
4.68728e-06
7.29768e-06
1.57005e-05
3.76166e-05
6.74238e-05
8.34345e-05
0.000110657
6.51725e-05
0.00221385
0.0065498
0.000500525
0.000121008
0.000102914
0.000109258
0.000119517
0.000132277
0.000147606
0.000165368
0.000184012
0.000202398
0.00021938
0.000233599
0.000246075
0.000268618
0.000334988
0.000243799
0.000219894
0.000113815
9.28001e-05
8.78819e-05
8.15964e-05
8.70005e-06
3.36551e-06
3.23213e-06
4.12532e-06
7.07801e-06
1.42004e-05
2.84483e-05
5.54961e-05
0.000113069
0.000118888
0.000125328
0.000142494
0.000121891
0.00430601
0.0140134
0.00121812
0.000177763
0.000117137
0.000121589
0.000134346
0.000150308
0.000168745
0.000189503
0.000209336
0.000226725
0.000241629
0.000254649
0.000268026
0.000290244
0.000343187
0.000456375
0.000218882
0.00013308
0.000115288
0.000124036
0.000145916
0.000185357
0.000259512
0.000272086
0.000287166
0.000301747
0.000314661
0.000326055
0.000337412
0.000350535
0.000376568
0.00025
0.000247233
0.000342108
0.00042147
0.00706346
0.0232993
0.00252662
0.000287582
0.000140912
0.00014093
0.000158672
0.000182295
0.000209757
0.00023941
0.000264311
0.000283101
0.000297556
0.000307857
0.000310738
0.000301652
0.000278619
0.00023445
0.000161311
0.000128122
0.000119352
0.000123943
0.000135121
0.000150264
0.000167362
0.000184098
0.000204073
0.000227107
0.000253238
0.000283745
0.000321418
0.000370124
0.000429183
0.000484902
0.000576143
0.000688782
0.000760074
0.00113499
0.000755515
0.000507166
0.0104495
0.0311775
0.00466063
0.000572089
0.000211905
0.000188614
0.000210435
0.000245859
0.000289329
0.000332795
0.000358042
0.000371004
0.000380644
0.000390483
0.000396166
0.00038736
0.000353936
0.000296912
0.000233753
0.000187215
0.00016256
0.000155691
0.000159927
0.000171014
0.000186934
0.000208036
0.000235215
0.000267893
0.000305874
0.000351384
0.00041021
0.000490876
0.000602227
0.000751783
0.000948392
0.00118085
0.00132694
0.00143723
0.000855392
0.000837011
0.014319
0.0342072
0.00876577
0.00197231
0.000678598
0.000426676
0.000402279
0.000435261
0.000498439
0.000528637
0.000519522
0.000495594
0.000475546
0.000466914
0.00046566
0.00045792
0.000428357
0.000374801
0.00031102
0.00025572
0.000219022
0.000200963
0.000197403
0.000204811
0.000221773
0.000249144
0.000287548
0.00033548
0.000390283
0.000451176
0.000522678
0.000614327
0.000737456
0.000899341
0.00109454
0.00128852
0.00140265
0.00139486
0.00127135
0.000766012
0.0151081
0.0417784
0.0195557
0.0100848
0.00449965
0.00211042
0.00137206
0.00114249
0.00105865
0.000929902
0.000796356
0.000681464
0.000594069
0.000536647
0.000506122
0.000489371
0.000464844
0.000422471
0.000367952
0.000314651
0.000273107
0.000246954
0.000235501
0.000237393
0.000252925
0.000284868
0.000336548
0.000409161
0.000500121
0.000603592
0.000716
0.000834725
0.000955736
0.00107689
0.00120038
0.00133657
0.00150541
0.00171354
0.00192054
0.00131875
0.0135699
0.0223589
0.0246503
0.0177139
0.0112272
0.00689911
0.00437422
0.00295587
0.00207549
0.00151466
0.00114664
0.000896579
0.000723002
0.000603358
0.000524905
0.000477025
0.000444976
0.000414026
0.000377787
0.000339071
0.000304248
0.000277957
0.000262205
0.000257751
0.000265891
0.000289893
0.000335144
0.000408497
0.000516336
0.000652088
0.000811748
0.000995114
0.00120578
0.00145322
0.00174218
0.00200458
0.00210613
0.00241256
0.00385753
0.00172497
0.0329979
0.0460928
0.0177262
0.00938849
0.00563476
0.00364952
0.00250441
0.00179276
0.00132681
0.0010108
0.000790261
0.000633531
0.000522085
0.000444631
0.000392527
0.000357195
0.000330866
0.000308769
0.000289701
0.000274543
0.000264707
0.000261559
0.000266692
0.000282629
0.000313173
0.000363029
0.000436423
0.000533665
0.000655176
0.000794882
0.000940897
0.0010794
0.00119343
0.00125628
0.00122824
0.0011291
0.00176591
0.00163261
0.0303107
0.0332513
0.0139691
0.00790685
0.00500802
0.0033717
0.00237561
0.00173418
0.0013024
0.00100033
0.000782499
0.00062192
0.000502084
0.000412665
0.00034691
0.000299961
0.000267873
0.000247273
0.000235426
0.000230347
0.000230786
0.00023619
0.000246744
0.000263582
0.000289052
0.000326598
0.000379604
0.000450492
0.000540534
0.000644645
0.000749456
0.000836495
0.000886998
0.000883859
0.000828176
0.000776181
0.00125234
0.00113864
0.00547488
0.00921501
0.0163645
0.0152752
0.0089481
0.00597771
0.00424311
0.00312045
0.00235276
0.00180798
0.00141978
0.00113376
0.000916532
0.000748528
0.000617421
0.000514931
0.000435177
0.000373776
0.000327311
0.000293027
0.000268665
0.000252385
0.000242742
0.000238707
0.000239743
0.000245961
0.000258318
0.0002787
0.000309645
0.000357968
0.000430134
0.000525617
0.000633719
0.000732538
0.000795779
0.000801232
0.000770401
0.000715479
0.000691274
0.000565878
)
;

boundaryField
{
    floor
    {
        Cmu             0.09;
        kappa           0.41;
        E               9.8;
        type            epsilonWallFunction;
        value           nonuniform List<scalar> 
29
(
0.000237721
3.28513e-05
4.76091e-05
4.95393e-05
2.84623e-05
1.17952e-05
6.62734e-06
4.57158e-06
4.18615e-06
3.60594e-06
3.12883e-06
2.82327e-06
2.66414e-06
2.62445e-06
3.36935e-06
8.88912e-06
3.06763e-05
5.5062e-05
5.5095e-05
3.84469e-05
3.84469e-05
6.51725e-05
0.000121891
0.00042147
0.000237721
3.28513e-05
5.74171e-05
0.000243799
0.000456375
)
;
    }
    ceiling
    {
        Cmu             0.09;
        kappa           0.41;
        E               9.8;
        type            epsilonWallFunction;
        value           nonuniform List<scalar> 
43
(
0.00547488
0.00921501
0.0163645
0.0152752
0.0089481
0.00597771
0.00424311
0.00312045
0.00235276
0.00180798
0.00141978
0.00113376
0.000916532
0.000748528
0.000617421
0.000514931
0.000435177
0.000373776
0.000327311
0.000293027
0.000268665
0.000252385
0.000242742
0.000238707
0.000239743
0.000245961
0.000258318
0.0002787
0.000309645
0.000357968
0.000430134
0.000525617
0.000633719
0.000732538
0.000795779
0.000801232
0.000770401
0.000715479
0.000691274
0.000565878
0.0135699
0.0223589
0.0303107
)
;
    }
    sWall
    {
        Cmu             0.09;
        kappa           0.41;
        E               9.8;
        type            epsilonWallFunction;
        value           uniform 0.00547488;
    }
    nWall
    {
        Cmu             0.09;
        kappa           0.41;
        E               9.8;
        type            epsilonWallFunction;
        value           nonuniform List<scalar> 6(0.000507166 0.000837011 0.000766012 0.00163261 0.00113864 0.000565878);
    }
    sideWalls
    {
        type            empty;
    }
    glass1
    {
        Cmu             0.09;
        kappa           0.41;
        E               9.8;
        type            epsilonWallFunction;
        value           nonuniform List<scalar> 9(0.000155346 0.000858557 0.00221385 0.00430601 0.00706346 0.0104495 0.014319 0.0151081 0.0135699);
    }
    glass2
    {
        Cmu             0.09;
        kappa           0.41;
        E               9.8;
        type            epsilonWallFunction;
        value           nonuniform List<scalar> 2(0.00131875 0.00172497);
    }
    sun
    {
        Cmu             0.09;
        kappa           0.41;
        E               9.8;
        type            epsilonWallFunction;
        value           nonuniform List<scalar> 
14
(
0.000155346
0.000165554
0.000110906
0.000121676
0.000136465
0.000152199
0.000168659
0.000186159
0.00020552
0.000225336
0.000242209
0.000253982
0.000258636
0.000254576
)
;
    }
    heatsource1
    {
        Cmu             0.09;
        kappa           0.41;
        E               9.8;
        type            epsilonWallFunction;
        value           nonuniform List<scalar> 3(0.00113499 0.000755515 0.000507166);
    }
    heatsource2
    {
        Cmu             0.09;
        kappa           0.41;
        E               9.8;
        type            epsilonWallFunction;
        value           nonuniform List<scalar> 4(0.000290303 0.000100871 0.000100871 0.000334988);
    }
    Table_master
    {
        Cmu             0.09;
        kappa           0.41;
        E               9.8;
        type            epsilonWallFunction;
        value           nonuniform List<scalar> 9(8.70005e-06 3.36551e-06 3.23213e-06 4.12532e-06 7.07801e-06 1.42004e-05 2.84483e-05 5.54961e-05 0.000113069);
    }
    Table_slave
    {
        Cmu             0.09;
        kappa           0.41;
        E               9.8;
        type            epsilonWallFunction;
        value           nonuniform List<scalar> 9(0.000259512 0.000272086 0.000287166 0.000301747 0.000314661 0.000326055 0.000337412 0.000350535 0.000376568);
    }
    inlet
    {
        type            turbulentMixingLengthDissipationRateInlet;
        mixingLength    0.01;
        phi             phi;
        k               k;
        value           uniform 0.0329979;
    }
    outlet
    {
        type            zeroGradient;
    }
}


// ************************************************************************* //
