/*--------------------------------*- C++ -*----------------------------------*\
  =========                 |
  \\      /  F ield         | OpenFOAM: The Open Source CFD Toolbox
   \\    /   O peration     | Website:  https://openfoam.org
    \\  /    A nd           | Version:  6
     \\/     M anipulation  |
\*---------------------------------------------------------------------------*/
FoamFile
{
    version     2.0;
    format      ascii;
    class       volScalarField;
    location    "100";
    object      nut;
}
// * * * * * * * * * * * * * * * * * * * * * * * * * * * * * * * * * * * * * //

dimensions      [0 2 -1 0 0 0 0];

internalField   nonuniform List<scalar> 
459
(
0.00244637
0.00238213
0.00230743
0.002239
0.00218049
0.00212945
0.00208391
0.00204186
0.00200119
0.00195993
0.00191598
0.00186655
0.00180716
0.00172833
0.00162329
0.000322593
0.000423429
0.000477496
0.000510047
0.000507109
0.000478357
0.000437879
0.000402822
0.000370904
0.000340898
0.000312169
0.000284607
0.000258401
0.000233947
0.000211893
0.000193627
0.000183108
0.000198628
0.000182358
0.0027512
0.00304729
0.00308623
0.00300466
0.0029581
0.00295291
0.0029704
0.00298026
0.00296332
0.00291519
0.00283278
0.0027122
0.00254333
0.00229555
0.00195386
0.00155373
0.00139003
0.000447049
0.00181087
0.00196965
0.0018361
0.00154595
0.00122705
0.00101155
0.000882376
0.000761333
0.000649654
0.000555591
0.000480806
0.000423535
0.000381013
0.000351935
0.000328287
0.000392754
0.000650196
0.00025021
0.00292354
0.00336984
0.00312222
0.00284238
0.00277092
0.00282651
0.00293913
0.00305463
0.00314424
0.0031848
0.00316088
0.00306377
0.00288808
0.00261996
0.00228008
0.00195534
0.00139735
0.000619706
0.00219783
0.00224153
0.00188623
0.00142972
0.000969972
0.000357721
0.000298676
0.000281082
0.000259551
0.00023716
0.00021823
0.000203455
0.000192545
0.000198124
0.000420609
0.000584811
0.000992024
0.000325608
0.00304441
0.00361124
0.00279883
0.00236447
0.00250937
0.00288
0.00328724
0.00356515
0.00367899
0.00365227
0.00353182
0.00334977
0.00311604
0.00281752
0.0024707
0.00213899
0.00165869
0.00113542
0.00171624
0.00231189
0.00218542
0.00180445
0.00139207
0.000992314
0.000690521
0.000699227
0.000711773
0.000724339
0.000735504
0.000746778
0.000751938
0.000747673
0.000727033
0.000845037
0.000929193
0.00109847
0.000537175
0.00314569
0.00366919
0.00220744
0.00213471
0.00330648
0.0043529
0.00502701
0.00530165
0.00496141
0.00444724
0.00396965
0.00357682
0.00323711
0.00289437
0.00253989
0.00221241
0.00183126
0.00151929
0.0021829
0.00275365
0.00282929
0.0027458
0.0027089
0.00270779
0.00273672
0.00281294
0.00289006
0.00296781
0.00304984
0.00312706
0.00316029
0.00313087
0.00302477
0.00284787
0.00244554
0.0020177
0.0013424
0.000635647
0.000602144
0.000713841
0.00324559
0.00353733
0.0016786
0.00290516
0.00487062
0.0055335
0.0058213
0.00585241
0.00536155
0.00464767
0.004034
0.00357008
0.00319862
0.00284853
0.00250993
0.00220065
0.00192091
0.00180784
0.00256889
0.00310108
0.00320518
0.00319664
0.00321822
0.00325195
0.00327778
0.00329508
0.00331153
0.00333789
0.00338295
0.00344476
0.00349537
0.00349482
0.00343883
0.00335167
0.00317156
0.00278828
0.00224031
0.00152983
0.00145011
0.000761296
0.00336229
0.00326937
0.00161103
0.00271
0.00467694
0.00505965
0.00509201
0.00499062
0.00469709
0.00423433
0.00377338
0.00338148
0.00304659
0.00273231
0.00243494
0.00217276
0.00200623
0.00207834
0.00287945
0.00335777
0.00346573
0.00349298
0.00353581
0.00355884
0.00354255
0.00349687
0.00344519
0.00340795
0.00339891
0.00341775
0.00343746
0.00342298
0.0033728
0.00336076
0.0034363
0.0033438
0.00297738
0.00250095
0.00207735
0.000935752
0.00352996
0.00333998
0.00197666
0.00181145
0.00357885
0.00399041
0.0039972
0.00396011
0.00385667
0.00364677
0.00338307
0.00311618
0.00286116
0.00261251
0.00237495
0.00218039
0.00211767
0.00233981
0.00314021
0.00362876
0.00378571
0.00386836
0.00392724
0.00394498
0.0039011
0.0038075
0.00369678
0.00359816
0.00353083
0.00349982
0.00347224
0.00340243
0.00329541
0.00325506
0.00342271
0.00377847
0.00386213
0.00351775
0.00349931
0.00117774
0.00382473
0.00426522
0.00334875
0.00172826
0.00249345
0.00316992
0.00325769
0.00327927
0.00325322
0.00318166
0.00305917
0.00290937
0.00274658
0.00257496
0.00240257
0.00226971
0.00227719
0.00261422
0.00341618
0.00394461
0.004209
0.00434299
0.00439948
0.00440519
0.00434558
0.00422676
0.00407973
0.00393723
0.00381926
0.00374292
0.00367296
0.00353083
0.00325491
0.00288471
0.00255933
0.00236177
0.00220707
0.00203938
0.00187065
0.00119629
0.00518445
0.00230712
0.00255145
0.00287534
0.00298878
0.00306021
0.00308579
0.0030633
0.00301316
0.00294422
0.00285842
0.00275416
0.00263366
0.00253334
0.00256772
0.00301356
0.00374723
0.0043317
0.00473338
0.00489176
0.0049437
0.0049227
0.00483916
0.00470965
0.00455805
0.0044068
0.00426728
0.004172
0.00412263
0.00407934
0.00398078
0.00375467
0.00337093
0.00295723
0.00260766
0.002317
0.00202453
0.00121751
0.0027442
0.00239228
0.00293188
0.00276871
0.00275546
0.00277079
0.00278437
0.00276879
0.00276343
0.00276801
0.00277045
0.0027571
0.00271375
0.00264971
0.00264462
0.00290382
0.00339414
0.00404159
0.00465267
0.00509241
0.00533738
0.00541746
0.00538722
0.00530221
0.00520249
0.00510517
0.00500663
0.00490197
0.00483096
0.00483391
0.00490433
0.00490264
0.00444511
0.00382206
0.00318229
0.00276218
0.00291852
0.00132483
0.00154427
0.0014841
0.00157958
0.00113787
0.00116602
0.00117722
0.00119097
0.00120218
0.00121206
0.00122206
0.00123103
0.00123942
0.00124701
0.00125267
0.00125427
0.00124826
0.00121574
0.00116269
0.00113379
0.00112682
0.00113751
0.00117076
0.00121134
0.00124709
0.00127219
0.0012864
0.00129236
0.00129262
0.00128688
0.00127198
0.00124964
0.00123363
0.00123384
0.00123167
0.00123246
0.00121019
0.00116194
0.00109263
0.00106249
0.00101503
)
;

boundaryField
{
    floor
    {
        type            nutkWallFunction;
        Cmu             0.09;
        kappa           0.41;
        E               9.8;
        value           nonuniform List<scalar> 
29
(
0.00019204
3.64242e-05
4.98091e-05
5.68208e-05
6.09983e-05
6.06266e-05
5.69434e-05
5.17065e-05
4.71221e-05
4.2904e-05
3.88959e-05
3.50155e-05
3.12486e-05
2.76221e-05
2.41936e-05
2.10602e-05
1.84312e-05
1.68997e-05
1.91419e-05
1.67884e-05
1.67883e-05
2.64702e-05
3.68217e-05
6.44063e-05
0.00019204
3.64241e-05
5.28894e-05
7.48042e-05
0.000136581
)
;
    }
    ceiling
    {
        type            nutkWallFunction;
        Cmu             0.09;
        kappa           0.41;
        E               9.8;
        value           nonuniform List<scalar> 
43
(
0.00018324
0.000176459
0.000187143
0.000136859
0.000140122
0.000141418
0.000143007
0.000144301
0.00014544
0.000146592
0.000147623
0.000148589
0.000149461
0.000150111
0.000150294
0.000149604
0.000145864
0.000139737
0.000136385
0.000135573
0.000136813
0.000140662
0.000145344
0.000149456
0.000152335
0.000153961
0.000154642
0.000154668
0.000154004
0.000152288
0.00014972
0.000147889
0.000147922
0.000147668
0.000147754
0.000145189
0.000139624
0.000131581
0.000128063
0.000122502
0.000425308
0.000469962
0.000313309
)
;
    }
    sWall
    {
        type            nutkWallFunction;
        Cmu             0.09;
        kappa           0.41;
        E               9.8;
        value           uniform 0.00018328;
    }
    nWall
    {
        type            nutkWallFunction;
        Cmu             0.09;
        kappa           0.41;
        E               9.8;
        value           nonuniform List<scalar> 6(8.64145e-05 9.22058e-05 0.000113147 0.000146049 0.000158345 0.000122508);
    }
    sideWalls
    {
        type            empty;
    }
    glass1
    {
        type            nutkWallFunction;
        Cmu             0.09;
        kappa           0.41;
        E               9.8;
        value           nonuniform List<scalar> 9(0.000282064 0.000314449 0.000332587 0.00034524 0.000355802 0.000366184 0.00037827 0.000395562 0.000425765);
    }
    glass2
    {
        type            nutkWallFunction;
        Cmu             0.09;
        kappa           0.41;
        E               9.8;
        value           nonuniform List<scalar> 2(0.00014151 0.000143643);
    }
    sun
    {
        type            nutkWallFunction;
        Cmu             0.09;
        kappa           0.41;
        E               9.8;
        value           nonuniform List<scalar> 
14
(
0.000281763
0.000274884
0.000266869
0.000259502
0.000253186
0.000247661
0.00024272
0.000238147
0.000233715
0.00022921
0.000224398
0.000218973
0.000212435
0.000203719
)
;
    }
    heatsource1
    {
        type            nutkWallFunction;
        Cmu             0.09;
        kappa           0.41;
        E               9.8;
        value           nonuniform List<scalar> 3(7.6765e-05 7.25982e-05 8.64161e-05);
    }
    heatsource2
    {
        type            nutkWallFunction;
        Cmu             0.09;
        kappa           0.41;
        E               9.8;
        value           nonuniform List<scalar> 4(0.000184261 0.000165798 0.000165798 0.000166629);
    }
    Table_master
    {
        type            nutkWallFunction;
        Cmu             0.09;
        kappa           0.41;
        E               9.8;
        value           nonuniform List<scalar> 9(4.11544e-05 3.31796e-05 3.07664e-05 2.77856e-05 2.46507e-05 2.19696e-05 1.98556e-05 1.82801e-05 1.90805e-05);
    }
    Table_slave
    {
        type            nutkWallFunction;
        Cmu             0.09;
        kappa           0.41;
        E               9.8;
        value           nonuniform List<scalar> 9(8.35678e-05 8.46328e-05 8.61669e-05 8.77e-05 8.90588e-05 9.04278e-05 9.10536e-05 9.0532e-05 8.80111e-05);
    }
    inlet
    {
        type            calculated;
        value           uniform 3.3541e-05;
    }
    outlet
    {
        type            calculated;
        value           nonuniform List<scalar> 2(0.00154427 0.0014841);
    }
}


// ************************************************************************* //
