/*--------------------------------*- C++ -*----------------------------------*\
  =========                 |
  \\      /  F ield         | OpenFOAM: The Open Source CFD Toolbox
   \\    /   O peration     | Website:  https://openfoam.org
    \\  /    A nd           | Version:  6
     \\/     M anipulation  |
\*---------------------------------------------------------------------------*/
FoamFile
{
    version     2.0;
    format      ascii;
    class       volScalarField;
    location    "100";
    object      nut;
}
// * * * * * * * * * * * * * * * * * * * * * * * * * * * * * * * * * * * * * //

dimensions      [0 2 -1 0 0 0 0];

internalField   nonuniform List<scalar> 
459
(
0.000759984
0.000776283
0.000679245
0.00070056
0.000727868
0.000754835
0.000781123
0.000807259
0.00083433
0.000860331
0.000881295
0.000895354
0.000900795
0.000896062
0.00087584
0.000452656
0.000512217
0.000519033
0.000431404
0.000321555
0.000265325
0.000234488
0.000227723
0.000216681
0.000206681
0.000199744
0.000195959
0.000195018
0.000211948
0.000292883
0.000442484
0.00053765
0.000537723
0.000476995
0.00134368
0.00248004
0.00169274
0.00240138
0.00263795
0.00284875
0.0030667
0.00327167
0.00343454
0.00354951
0.00360272
0.00355466
0.00334151
0.00286109
0.0020075
0.000936175
0.000658162
0.000545187
0.00125512
0.00136137
0.00120396
0.000916299
0.000597788
0.000493823
0.000437233
0.000414507
0.000399044
0.00037834
0.000363375
0.000408308
0.000614057
0.000973958
0.0013952
0.00152013
0.00156221
0.000568781
0.00184257
0.00417456
0.00181723
0.00327607
0.00395472
0.00421341
0.00442081
0.00459763
0.00473177
0.00482186
0.00484723
0.00476097
0.00448985
0.00393767
0.00304508
0.00195081
0.000981941
0.000883137
0.00217229
0.00186556
0.00151819
0.00120928
0.000887038
0.000290715
0.000211773
0.000209018
0.000226896
0.00027179
0.000342799
0.000432011
0.000539609
0.000683849
0.00166468
0.00161388
0.00128221
0.000701048
0.00230003
0.00617801
0.00219888
0.00329003
0.00457417
0.00490498
0.00509412
0.00525838
0.00540168
0.00552061
0.00562477
0.00567306
0.00558257
0.00522522
0.00445457
0.00323802
0.00189771
0.00108856
0.00224757
0.00246236
0.00220135
0.00189288
0.00159079
0.00123352
0.000901653
0.000915918
0.000932462
0.000947911
0.00096118
0.000972596
0.000983736
0.000996341
0.00102058
0.0023237
0.00297692
0.00310977
0.00106024
0.00271257
0.00822547
0.00302158
0.00297355
0.00462899
0.00508211
0.00526471
0.00541885
0.00557468
0.00573691
0.00597549
0.00627832
0.00659336
0.0068421
0.00692927
0.00677454
0.0063671
0.00578009
0.0052836
0.004906
0.00470457
0.00457324
0.00443578
0.00431712
0.0042289
0.00422488
0.00423031
0.00422741
0.00420926
0.00418379
0.00417145
0.00419658
0.00426381
0.00438253
0.00441144
0.00426208
0.0036174
0.00147549
0.00128825
0.00112762
0.00309082
0.00996616
0.00448684
0.00287717
0.00408744
0.00472601
0.00498647
0.0051443
0.0052633
0.00539788
0.00569114
0.00612903
0.0066763
0.00726701
0.00780103
0.00816125
0.00824537
0.00803401
0.00763257
0.00718343
0.00679089
0.00649073
0.00626115
0.00607171
0.0059024
0.00575588
0.00562391
0.00548722
0.0053296
0.00515576
0.00499326
0.00487375
0.00480564
0.0047678
0.00473212
0.0046423
0.00431228
0.00373723
0.00256343
0.00133132
0.00343304
0.0111649
0.00691919
0.00386701
0.00330112
0.0038254
0.00437445
0.00469741
0.00477636
0.00485545
0.00507977
0.00545764
0.00600288
0.00669152
0.00743137
0.00807779
0.00847929
0.00857504
0.00842932
0.00816579
0.0078904
0.00764865
0.00743502
0.00722695
0.00701169
0.00680117
0.00660478
0.00640379
0.00616264
0.00586068
0.00551443
0.00516786
0.00486448
0.00461269
0.00437455
0.00407649
0.00363974
0.00310224
0.00254724
0.00129296
0.00349498
0.0110281
0.00868259
0.00665768
0.00483987
0.00405494
0.00419591
0.00455296
0.00457151
0.004554
0.0046106
0.00476972
0.00506974
0.00555608
0.00622858
0.00698879
0.00762109
0.00799026
0.00812676
0.00811449
0.0080467
0.00797917
0.0079213
0.00785542
0.00776308
0.00764798
0.00752914
0.00740954
0.00726013
0.00703874
0.00672283
0.00629446
0.00576169
0.00516829
0.00456599
0.00400216
0.00350635
0.00305375
0.00264496
0.00155041
0.00337209
0.00398281
0.00554286
0.00583324
0.0053966
0.00483433
0.0044538
0.00426886
0.00417513
0.00415325
0.00417548
0.00423047
0.00433335
0.00452674
0.00486631
0.00536952
0.00595042
0.00647036
0.00684892
0.00708898
0.00724278
0.00736381
0.00748312
0.00760944
0.00773937
0.00786755
0.00798897
0.00809522
0.00817162
0.00821796
0.00817624
0.00803697
0.00783958
0.00764994
0.00749132
0.00713833
0.00617589
0.00510839
0.00490328
0.00169552
0.00858394
0.010131
0.00708221
0.0059049
0.00523273
0.00480154
0.00450765
0.00429147
0.00412417
0.00399326
0.00389674
0.00384568
0.00386591
0.00399188
0.00424108
0.00458649
0.00496557
0.00532089
0.00562914
0.00589661
0.00614137
0.00638189
0.00663455
0.00691279
0.00722109
0.00754867
0.00786856
0.00812446
0.00827981
0.00832984
0.00828557
0.00818015
0.00804203
0.00783444
0.00732936
0.00633211
0.00563997
0.0016646
0.0044083
0.00976
0.00727299
0.00612528
0.00540044
0.00487089
0.00446144
0.00412885
0.00382737
0.00355355
0.00331384
0.00311358
0.00295939
0.00286118
0.00283144
0.00288024
0.00300787
0.00320113
0.00343734
0.00369279
0.00395016
0.00420294
0.00445698
0.00472924
0.00504206
0.00541205
0.00583343
0.00625194
0.00660908
0.00686965
0.00701275
0.00703525
0.00694093
0.00670245
0.00611587
0.00520528
0.00455701
0.00147614
0.00249173
0.00296404
0.00358948
0.00350793
0.00293519
0.00256588
0.00228885
0.00206598
0.00188037
0.00172232
0.00158899
0.00147419
0.00137329
0.00128365
0.00120385
0.00113317
0.00107135
0.00101839
0.000974306
0.000939023
0.000912237
0.000893417
0.000881882
0.000876958
0.000878216
0.000885737
0.000900322
0.000923397
0.000956372
0.00100371
0.00106706
0.0011408
0.00121418
0.00127426
0.00130991
0.00131287
0.00129579
0.00126423
0.00124984
0.00116919
)
;

boundaryField
{
    floor
    {
        type            nutkWallFunction;
        Cmu             0.09;
        kappa           0.41;
        E               9.8;
        value           nonuniform List<scalar> 
29
(
0.000105995
5.36581e-05
6.13063e-05
6.21753e-05
5.09128e-05
3.63625e-05
2.86671e-05
2.43497e-05
2.33926e-05
2.18235e-05
2.03922e-05
1.93922e-05
1.88414e-05
1.87012e-05
2.1135e-05
3.24363e-05
5.23362e-05
6.45375e-05
6.45501e-05
5.67993e-05
5.67993e-05
6.84609e-05
8.48525e-05
0.000127749
0.000105995
5.36581e-05
6.54927e-05
0.000106874
0.000131068
)
;
    }
    ceiling
    {
        type            nutkWallFunction;
        Cmu             0.09;
        kappa           0.41;
        E               9.8;
        value           nonuniform List<scalar> 
43
(
0.00028643
0.00033626
0.000401019
0.00039262
0.000333204
0.000294273
0.00026469
0.000240618
0.000220361
0.000202941
0.000188112
0.000175234
0.000163824
0.00015361
0.000144449
0.000136278
0.000129085
0.000122884
0.000117695
0.000113522
0.000110343
0.000108103
0.000106728
0.00010614
0.000106291
0.000107189
0.000108928
0.000111673
0.000115581
0.000121165
0.00012859
0.000137168
0.000145642
0.000152538
0.000156612
0.000156951
0.000155002
0.000151392
0.000149739
0.000140453
0.000378677
0.000441152
0.000484124
)
;
    }
    sWall
    {
        type            nutkWallFunction;
        Cmu             0.09;
        kappa           0.41;
        E               9.8;
        value           uniform 0.000286495;
    }
    nWall
    {
        type            nutkWallFunction;
        Cmu             0.09;
        kappa           0.41;
        E               9.8;
        value           nonuniform List<scalar> 6(0.000135609 0.000159124 0.000154713 0.000196533 0.000175459 0.000140463);
    }
    sideWalls
    {
        type            empty;
    }
    glass1
    {
        type            nutkWallFunction;
        Cmu             0.09;
        kappa           0.41;
        E               9.8;
        value           nonuniform List<scalar> 9(9.20373e-05 0.000160639 0.000216505 0.00026627 0.000310243 0.000349946 0.000385436 0.000391833 0.000379178);
    }
    glass2
    {
        type            nutkWallFunction;
        Cmu             0.09;
        kappa           0.41;
        E               9.8;
        value           nonuniform List<scalar> 2(0.000183862 0.000200052);
    }
    sun
    {
        type            nutkWallFunction;
        Cmu             0.09;
        kappa           0.41;
        E               9.8;
        value           nonuniform List<scalar> 
14
(
9.20502e-05
9.40269e-05
8.21803e-05
8.47986e-05
8.81391e-05
9.14233e-05
9.46115e-05
9.77687e-05
0.000101026
0.000104143
0.000106648
0.000108324
0.000108972
0.000108407
)
;
    }
    heatsource1
    {
        type            nutkWallFunction;
        Cmu             0.09;
        kappa           0.41;
        E               9.8;
        value           nonuniform List<scalar> 3(0.000175274 0.000154051 0.000135597);
    }
    heatsource2
    {
        type            nutkWallFunction;
        Cmu             0.09;
        kappa           0.41;
        E               9.8;
        value           nonuniform List<scalar> 4(0.000113169 7.95793e-05 7.95793e-05 0.000118576);
    }
    Table_master
    {
        type            nutkWallFunction;
        Cmu             0.09;
        kappa           0.41;
        E               9.8;
        value           nonuniform List<scalar> 9(3.21758e-05 2.11612e-05 2.07588e-05 2.32831e-05 2.95335e-05 3.91728e-05 5.09401e-05 6.47409e-05 8.27305e-05);
    }
    Table_slave
    {
        type            nutkWallFunction;
        Cmu             0.09;
        kappa           0.41;
        E               9.8;
        value           nonuniform List<scalar> 9(0.000109085 0.000110788 0.000112758 0.000114594 0.000116169 0.000117522 0.000118838 0.000120321 0.000123155);
    }
    inlet
    {
        type            calculated;
        value           uniform 0.00858394;
    }
    outlet
    {
        type            calculated;
        value           nonuniform List<scalar> 2(0.00249173 0.00296404);
    }
}


// ************************************************************************* //
