/*--------------------------------*- C++ -*----------------------------------*\
  =========                 |
  \\      /  F ield         | OpenFOAM: The Open Source CFD Toolbox
   \\    /   O peration     | Website:  https://openfoam.org
    \\  /    A nd           | Version:  6
     \\/     M anipulation  |
\*---------------------------------------------------------------------------*/
FoamFile
{
    version     2.0;
    format      ascii;
    class       volScalarField;
    location    "100";
    object      nut;
}
// * * * * * * * * * * * * * * * * * * * * * * * * * * * * * * * * * * * * * //

dimensions      [0 2 -1 0 0 0 0];

internalField   nonuniform List<scalar> 
459
(
0.00189422
0.00230212
0.00225213
0.00218642
0.00212949
0.00208075
0.00203792
0.00199875
0.00196073
0.00192185
0.00187994
0.00183224
0.00177433
0.00169683
0.00159291
0.000377528
0.000484308
0.000527809
0.000560648
0.00056238
0.000538646
0.000494793
0.000458108
0.000426477
0.000397879
0.000371153
0.00034581
0.000321683
0.0002987
0.000276767
0.000255815
0.000236554
0.000229656
0.000209778
0.00268261
0.00296114
0.00296109
0.00286189
0.00279761
0.00278024
0.00278811
0.00279769
0.00278666
0.00275042
0.00268683
0.00259312
0.00245851
0.00224598
0.00192422
0.00153165
0.00137019
0.000483144
0.00208664
0.00226843
0.0021642
0.0018496
0.00149197
0.00118511
0.00105265
0.000945767
0.000843125
0.000748223
0.00066333
0.000588276
0.000522214
0.000464173
0.000421062
0.000415213
0.000591214
0.000277238
0.00287479
0.00332968
0.00304391
0.00276196
0.00269473
0.00276232
0.00288801
0.00300977
0.00309311
0.0031203
0.0030836
0.00298219
0.002816
0.0025702
0.0022519
0.0019366
0.00138095
0.000657367
0.00254212
0.00266327
0.00230985
0.00179546
0.00124982
0.000432361
0.000336743
0.000320191
0.000302803
0.000282934
0.000264881
0.000248658
0.000234556
0.000228019
0.000368576
0.00049252
0.000941203
0.000344606
0.00299292
0.00360068
0.00276328
0.00232051
0.0024644
0.00284669
0.00327174
0.00356681
0.00366714
0.00361942
0.0034811
0.00328942
0.00305767
0.00277403
0.00244719
0.00212523
0.00164368
0.0011518
0.00188973
0.00262105
0.00260546
0.00218167
0.00165391
0.00110211
0.000693718
0.000693976
0.000698441
0.000702051
0.000706713
0.00070891
0.000705104
0.000688586
0.000652454
0.000717068
0.000778459
0.00109356
0.000498722
0.00308672
0.00367922
0.00217591
0.00208993
0.00324874
0.00429147
0.00496598
0.00524388
0.00490498
0.00437808
0.00389774
0.00351037
0.0031809
0.00285465
0.00252041
0.00220329
0.00182186
0.00155112
0.00231832
0.00288524
0.00292699
0.00276808
0.00266109
0.00262011
0.00263963
0.00272142
0.00280381
0.00288854
0.00296685
0.00300494
0.00298852
0.00290507
0.00273642
0.00238413
0.00197049
0.00164223
0.00115101
0.000599946
0.000628893
0.000748687
0.00317703
0.00353903
0.00163258
0.00282964
0.00474339
0.00537424
0.0056604
0.00570393
0.00524259
0.00453866
0.00394359
0.00349982
0.00314565
0.00281374
0.00249458
0.00219594
0.00192251
0.00186151
0.00268058
0.00311941
0.00311673
0.00301712
0.00298573
0.00299064
0.00301124
0.0030399
0.00308095
0.00314436
0.00322501
0.00329578
0.0033201
0.0032858
0.00320718
0.0030654
0.00275523
0.00232711
0.00184179
0.00128049
0.00142272
0.000805507
0.00328272
0.00323244
0.00155598
0.00262851
0.00454384
0.00488347
0.00491339
0.00482389
0.00455385
0.00412033
0.00368734
0.00331943
0.00300325
0.00270569
0.00242477
0.00217498
0.00202481
0.00215308
0.00295686
0.0032935
0.00326448
0.00320324
0.00319512
0.00318214
0.00314723
0.00310445
0.00307852
0.003091
0.0031382
0.00318936
0.00321326
0.0031992
0.00318697
0.00322617
0.00320953
0.00292481
0.00254179
0.00218235
0.00194273
0.000978273
0.00343496
0.00325241
0.00188999
0.00177545
0.00351242
0.0038717
0.00387484
0.00384342
0.00375138
0.00356237
0.00332027
0.00307242
0.00283247
0.00259679
0.00237291
0.00219383
0.00215555
0.00242348
0.00317367
0.00351092
0.00353092
0.00352115
0.00352229
0.00348975
0.00340949
0.00330335
0.00320702
0.00315699
0.00315863
0.00317329
0.00315939
0.00311022
0.00309155
0.00320793
0.00349289
0.00373817
0.00372203
0.00357203
0.00368682
0.00130217
0.00370654
0.00412328
0.00316163
0.00167725
0.00248405
0.00311576
0.00319692
0.00321985
0.00319947
0.00313763
0.00302715
0.00288902
0.00273606
0.00257351
0.00241293
0.0022979
0.00233262
0.00269587
0.00342463
0.00383794
0.00397143
0.00397335
0.00395669
0.00390286
0.00379639
0.00364995
0.00349494
0.0033794
0.0033312
0.00330971
0.00324671
0.00308913
0.00285702
0.0026541
0.00252982
0.00243567
0.00231973
0.00214111
0.00196452
0.00127118
0.00489045
0.00221769
0.00249921
0.00282141
0.00294019
0.00301645
0.00304874
0.0030365
0.00299814
0.00293967
0.00286253
0.00276634
0.00265675
0.00257394
0.00263171
0.00307129
0.00372894
0.00419338
0.00441936
0.00443953
0.00440971
0.00434615
0.00424247
0.00409998
0.0039283
0.00376128
0.00366742
0.00364015
0.00362604
0.00355357
0.00336235
0.00307382
0.00283899
0.00265006
0.00245387
0.00224326
0.00199917
0.00118998
0.0026399
0.00234594
0.00279786
0.00264717
0.00266723
0.0027193
0.00276351
0.00276998
0.00278501
0.00280472
0.00281776
0.00281149
0.00277417
0.00271852
0.00272452
0.00292893
0.00329767
0.00382421
0.00428029
0.00459874
0.00477443
0.00482971
0.00479874
0.00471217
0.00458632
0.00442645
0.00426557
0.00418349
0.00423947
0.00437642
0.00438526
0.00402246
0.00352149
0.00309822
0.00273379
0.00250436
0.0027001
0.00126262
0.00158073
0.00149811
0.00153341
0.00113333
0.00116257
0.00117795
0.00119385
0.0012066
0.00121768
0.00122868
0.00123859
0.0012477
0.00125551
0.00126073
0.00126124
0.00125368
0.00121784
0.00115605
0.00111465
0.00109177
0.00108842
0.00110488
0.00113037
0.00115548
0.0011745
0.00118507
0.00118569
0.00117267
0.00114302
0.0011092
0.00109847
0.00110762
0.00110166
0.00110434
0.00111539
0.00112348
0.00110681
0.00105483
0.00102021
0.000976816
)
;

boundaryField
{
    floor
    {
        type            nutkWallFunction;
        Cmu             0.09;
        kappa           0.41;
        E               9.8;
        value           nonuniform List<scalar> 
29
(
0.000188638
4.37784e-05
5.76923e-05
6.32551e-05
6.74164e-05
6.76376e-05
6.46392e-05
5.90526e-05
5.43313e-05
5.02226e-05
4.64744e-05
4.29403e-05
3.95587e-05
3.63095e-05
3.31846e-05
3.01729e-05
2.72661e-05
2.45654e-05
2.35887e-05
2.07596e-05
2.07595e-05
3.02289e-05
3.93848e-05
5.95137e-05
0.000188639
4.37783e-05
5.75509e-05
7.94789e-05
0.000138475
)
;
    }
    ceiling
    {
        type            nutkWallFunction;
        Cmu             0.09;
        kappa           0.41;
        E               9.8;
        value           nonuniform List<scalar> 
43
(
0.000187311
0.000178021
0.000181957
0.000136328
0.000139717
0.000141497
0.000143333
0.000144804
0.000146081
0.000147347
0.000148487
0.000149534
0.00015043
0.00015103
0.000151088
0.000150221
0.000146101
0.000138964
0.000134158
0.000131492
0.000131099
0.000133014
0.000135977
0.000138887
0.000141085
0.000142303
0.000142369
0.000140852
0.000137406
0.000133482
0.000132252
0.00013332
0.000132611
0.000132927
0.000134214
0.000135162
0.00013323
0.000127169
0.00012311
0.000118001
0.000413192
0.000455567
0.000302251
)
;
    }
    sWall
    {
        type            nutkWallFunction;
        Cmu             0.09;
        kappa           0.41;
        E               9.8;
        value           uniform 0.000187353;
    }
    nWall
    {
        type            nutkWallFunction;
        Cmu             0.09;
        kappa           0.41;
        E               9.8;
        value           nonuniform List<scalar> 6(9.06724e-05 9.75606e-05 0.000118175 0.000142878 0.000151234 0.000118007);
    }
    sideWalls
    {
        type            empty;
    }
    glass1
    {
        type            nutkWallFunction;
        Cmu             0.09;
        kappa           0.41;
        E               9.8;
        value           nonuniform List<scalar> 9(0.000221845 0.000307173 0.000327451 0.00033984 0.000349638 0.000359043 0.000370012 0.000385751 0.000413657);
    }
    glass2
    {
        type            nutkWallFunction;
        Cmu             0.09;
        kappa           0.41;
        E               9.8;
        value           nonuniform List<scalar> 2(0.000155803 0.000152255);
    }
    sun
    {
        type            nutkWallFunction;
        Cmu             0.09;
        kappa           0.41;
        E               9.8;
        value           nonuniform List<scalar> 
14
(
0.000221618
0.000266387
0.000260962
0.000253853
0.000247682
0.000242388
0.000237727
0.000233454
0.000229299
0.000225041
0.000220441
0.000215194
0.000208804
0.000200218
)
;
    }
    heatsource1
    {
        type            nutkWallFunction;
        Cmu             0.09;
        kappa           0.41;
        E               9.8;
        value           nonuniform List<scalar> 3(7.23193e-05 7.59401e-05 9.06733e-05);
    }
    heatsource2
    {
        type            nutkWallFunction;
        Cmu             0.09;
        kappa           0.41;
        E               9.8;
        value           nonuniform List<scalar> 4(0.000181775 0.000163535 0.000163535 0.000164757);
    }
    Table_master
    {
        type            nutkWallFunction;
        Cmu             0.09;
        kappa           0.41;
        E               9.8;
        value           nonuniform List<scalar> 9(5.10072e-05 3.8352e-05 3.61147e-05 3.37517e-05 3.10314e-05 2.85379e-05 2.62772e-05 2.42959e-05 2.33699e-05);
    }
    Table_slave
    {
        type            nutkWallFunction;
        Cmu             0.09;
        kappa           0.41;
        E               9.8;
        value           nonuniform List<scalar> 9(8.39603e-05 8.39865e-05 8.45295e-05 8.49673e-05 8.55349e-05 8.58019e-05 8.5333e-05 8.3302e-05 7.88418e-05);
    }
    inlet
    {
        type            calculated;
        value           uniform 3.3541e-05;
    }
    outlet
    {
        type            calculated;
        value           nonuniform List<scalar> 2(0.00158073 0.00149811);
    }
}


// ************************************************************************* //
