/*--------------------------------*- C++ -*----------------------------------*\
  =========                 |
  \\      /  F ield         | OpenFOAM: The Open Source CFD Toolbox
   \\    /   O peration     | Website:  https://openfoam.org
    \\  /    A nd           | Version:  6
     \\/     M anipulation  |
\*---------------------------------------------------------------------------*/
FoamFile
{
    version     2.0;
    format      ascii;
    class       surfaceScalarField;
    location    "100";
    object      phi;
}
// * * * * * * * * * * * * * * * * * * * * * * * * * * * * * * * * * * * * * //

dimensions      [1 0 -1 0 0 0 0];

internalField   nonuniform List<scalar> 
852
(
-0.00246843
0.00253715
-0.0025355
6.72414e-05
-0.00265317
0.000117847
-0.00285489
0.0002019
-0.00306477
0.000210061
-0.00324272
0.000178136
-0.00336383
0.000121306
-0.00340809
4.44433e-05
-0.00335678
-5.11183e-05
-0.00319108
-0.000165503
-0.00289644
-0.000294451
-0.00246499
-0.000431249
-0.00187999
-0.000584814
-0.00107468
-0.000805125
-0.00107134
-0.000740719
0.000746455
-0.000662653
-7.79944e-05
-0.000366169
-0.000296413
-0.000177603
-0.000188513
-0.000225158
4.75776e-05
-0.000372856
0.000147687
-0.000382662
9.78672e-06
-0.000237752
-0.000144932
-0.000113033
-0.000124728
-1.1265e-05
-0.000101768
9.29156e-05
-0.000104176
0.000192563
-9.96355e-05
0.000254763
-6.21796e-05
0.000266521
-1.17268e-05
0.000306771
-4.02038e-05
0.000475771
-0.000168963
0.000794127
-0.00031829
0.000860246
-6.60332e-05
0.000865855
-0.00177684
0.00448851
-0.0022771
0.000567677
-0.00259309
0.000434016
-0.00285294
0.000461944
-0.00308696
0.000444266
-0.0032809
0.000372267
-0.00341818
0.000258775
-0.00348325
0.000109709
-0.00346205
-7.21313e-05
-0.00334257
-0.000284785
-0.00311273
-0.000524099
-0.00276102
-0.000782772
-0.0022829
-0.00106274
-0.0017278
-0.00136005
-0.00119955
-0.00159942
0.000268902
-0.00146833
0.000269035
0.000811377
-4.99232e-05
0.000501544
0.00023192
1.93862e-05
0.000185832
-0.000190203
2.11289e-05
-0.000158588
1.59804e-05
-0.000239787
0.00022889
-0.000289154
5.91383e-05
-0.000279054
-0.00015504
-0.000271824
-0.000131957
-0.00025301
-0.000120568
-0.000229209
-0.00012794
-0.000213454
-0.000115321
-0.000224548
-5.09845e-05
-0.000273502
3.73731e-05
-0.000300192
-1.33743e-05
-9.52883e-05
-0.000373788
0.000172854
-0.000586322
0.000252495
-0.000145571
0.00113314
-0.00130944
0.00605456
-0.00198991
0.00124832
-0.00240916
0.000853443
-0.00271198
0.000764958
-0.00296831
0.000700789
-0.00318071
0.000584859
-0.00334093
0.00041918
-0.0034385
0.000207475
-0.0034642
-4.62354e-05
-0.00341341
-0.000335384
-0.00328749
-0.000649834
-0.00309341
-0.000976668
-0.00284868
-0.00130729
-0.00258989
-0.00161866
-0.00235052
-0.00183863
-0.00196337
-0.00185533
-0.00169419
-0.00100001
0.000967373
-0.00120405
0.000436059
-0.00121689
0.000198747
-0.00116373
-3.19593e-05
-0.000931144
-0.000216533
-0.000279319
-0.000422847
-0.000219995
-0.000374866
-0.000506633
-0.00062696
-0.000754582
-0.000869514
-0.000920086
-0.000882333
-0.000895391
-0.00085783
-0.000411217
-0.00141062
-3.3354e-05
-0.00154734
-8.67687e-06
-0.000393261
-0.000974704
0.00735285
-0.00172391
0.00199771
-0.00215942
0.00128913
-0.00247581
0.00108154
-0.00273257
0.000957732
-0.00294125
0.000793735
-0.00310292
0.000581043
-0.00321305
0.000317798
-0.00326589
6.79997e-06
-0.00326418
-0.000336909
-0.00322883
-0.000684992
-0.00318921
-0.00101611
-0.00318168
-0.00131464
-0.00324642
-0.00155375
-0.00340015
-0.00168473
-0.00362028
-0.00163506
-0.00413096
-0.00118338
-0.00360338
-0.000511182
-0.00277926
0.000143347
-0.00261813
0.000275019
-0.00254088
0.000121595
-0.00250027
-7.24618e-05
-0.0024658
-0.000250895
-0.00254346
-0.000345062
-0.00224241
-0.000301071
-0.00193326
-0.000309169
-0.00159733
-0.000335945
-0.00124045
-0.000356876
-0.000874789
-0.000365658
-0.000514091
-0.000360684
-0.000170383
-0.000343684
0.000140386
-0.000310729
0.00042314
-0.000282704
0.000334456
-0.000322321
0.000492407
-0.000191038
0.000507793
-2.37556e-05
0.000135107
-0.000724689
0.00845852
-0.00150148
0.00277469
-0.00186709
0.00165492
-0.00216088
0.00137551
-0.00238669
0.00118373
-0.00255244
0.000959679
-0.00266899
0.000697778
-0.00274011
0.000389107
-0.00276437
3.12523e-05
-0.00274941
-0.000351681
-0.00272876
-0.000705448
-0.00273928
-0.00100541
-0.00280788
-0.00124586
-0.00294599
-0.00141547
-0.00314606
-0.00148449
-0.00338804
-0.00139292
-0.0035136
-0.00105768
-0.00342984
-0.000594807
-0.0030803
-0.000206078
-0.0027522
-5.29687e-05
-0.00254153
-8.89523e-05
-0.00241745
-0.00019641
-0.00235145
-0.000316765
-0.00229707
-0.000399294
-0.00215656
-0.000441425
-0.00197898
-0.000486579
-0.00178325
-0.000531498
-0.00157745
-0.000562479
-0.00137254
-0.000570356
-0.00117883
-0.000554163
-0.00100078
-0.000521488
-0.000825045
-0.000486192
-0.000628837
-0.000478605
-0.000417607
-0.000533203
2.81677e-05
-0.0006364
0.000783872
-0.000778952
0.00183377
-0.000914196
0.00232291
-0.000488652
0.00108223
0.00124113
0.00113589
-0.000680008
0.00957023
-0.00142576
0.00352061
-0.00153069
0.00176004
-0.00174346
0.00158847
-0.00192959
0.00137005
-0.00202323
0.00105351
-0.00205064
0.000725376
-0.00203412
0.000372781
-0.00197719
-2.54941e-05
-0.00190078
-0.0004279
-0.00185307
-0.000752972
-0.00186643
-0.000991854
-0.00195337
-0.00115874
-0.00210817
-0.00126048
-0.00230977
-0.00128271
-0.0025133
-0.00118921
-0.00261394
-0.000956876
-0.00256247
-0.000646121
-0.00238447
-0.00038393
-0.00218959
-0.000247706
-0.00204992
-0.000228488
-0.001971
-0.000275179
-0.00194007
-0.00034755
-0.00192414
-0.000415073
-0.00189372
-0.000471672
-0.00185314
-0.000526978
-0.00181073
-0.00057371
-0.00177402
-0.000598967
-0.00175089
-0.000593245
-0.00174679
-0.000558011
-0.00175997
-0.000508019
-0.00177576
-0.00047009
-0.00177142
-0.0004826
-0.00171685
-0.000587392
-0.00153452
-0.000818317
-0.00109068
-0.00122236
-0.000210536
-0.00179392
0.00130036
-0.00199909
0.00243656
0.000105487
0.00362923
-0.000944516
0.0109929
-0.00119429
0.00377056
-0.000794846
0.00136078
-0.00093265
0.00172646
-0.00118404
0.00162163
-0.00122979
0.00109945
-0.00114283
0.000638596
-0.000996208
0.000226347
-0.00083805
-0.000183468
-0.000710107
-0.000555657
-0.000652318
-0.000810574
-0.000680628
-0.000963355
-0.000792093
-0.00104709
-0.000969808
-0.00108258
-0.00118264
-0.0010697
-0.00138212
-0.000989546
-0.00150764
-0.000831171
-0.0015249
-0.000628688
-0.00146032
-0.000448342
-0.00137209
-0.000335779
-0.00130671
-0.000293707
-0.00128118
-0.000300546
-0.00129518
-0.000333393
-0.00133637
-0.000373726
-0.00139432
-0.000413543
-0.00147041
-0.000450708
-0.00156921
-0.000474703
-0.00169721
-0.000470735
-0.00186291
-0.000427307
-0.00207365
-0.000347007
-0.00233043
-0.000250965
-0.0026228
-0.000177424
-0.00293235
-0.000172733
-0.00323412
-0.000285292
-0.00349086
-0.000561237
-0.00365476
-0.00105813
-0.00362362
-0.00182473
-0.00302376
-0.00259865
-0.000776777
-0.0021412
0.00292064
0.00175514
0.00977263
0.00224411
0.00328175
0.00190666
0.0016984
0.00125248
0.00238083
0.000719585
0.00215471
0.000525757
0.00129346
0.000549129
0.000615408
0.000687213
8.84465e-05
0.000840269
-0.000336341
0.000901143
-0.000616348
0.000869753
-0.000779001
0.000764527
-0.000857943
0.000598141
-0.000880512
0.000382017
-0.000866263
0.000137494
-0.000824981
-9.54776e-05
-0.000756381
-0.000270372
-0.000656085
-0.000364035
-0.000534837
-0.000392252
-0.00041994
-0.000390324
-0.000337526
-0.000389811
-0.000294042
-0.000408581
-0.000281603
-0.000453526
-0.000288278
-0.000524494
-0.000302588
-0.000621193
-0.00031667
-0.000747386
-0.00032433
-0.000907236
-0.00031465
-0.00110542
-0.000272328
-0.00135015
-0.000182349
-0.00165178
-4.51348e-05
-0.0020326
0.000130097
-0.00253314
0.000323362
-0.00318461
0.000478997
-0.00397881
0.000509178
-0.0048611
0.000321332
-0.00581099
-0.000107952
-0.00699776
-0.000637678
-0.00833173
-0.00126439
-0.0077826
-0.00269002
-0.00453993
0.0103696
0.0136496
0.0104115
0.00493661
0.00751637
0.00527614
0.00594177
0.00372949
0.00496572
0.00226968
0.00432139
0.00125991
0.00382606
0.000583965
0.00338319
0.00010671
0.00299623
-0.000229211
0.00266137
-0.000443958
0.00236255
-0.000558939
0.00208267
-0.000600438
0.00180907
-0.000592472
0.00153853
-0.000554248
0.00128196
-0.000499614
0.00106197
-0.000435895
0.000895999
-0.00036867
0.000783042
-0.000306784
0.000705765
-0.000260051
0.00064409
-0.000232173
0.000583226
-0.000220549
0.000514669
-0.000219535
0.000434795
-0.000222532
0.000341832
-0.000223527
0.0002344
-0.000216716
0.000114321
-0.000194382
-1.0825e-05
-0.000146979
-0.000127866
-6.50916e-05
-0.000232159
5.93817e-05
-0.000327855
0.000226021
-0.00041621
0.00041195
-0.000497577
0.000560603
-0.000585636
0.000597478
-0.000736744
0.000472675
-0.00103991
0.000195429
-0.00149762
-0.000179775
-0.00202589
-0.000735938
-0.00211223
-0.00260352
-0.00630475
0.000709601
0.00383108
0.00266592
0.00332
0.00395026
0.00244533
0.00438233
0.0018378
0.00446722
0.00117521
0.00442356
0.000627804
0.00428978
0.000240667
0.00408165
-2.08923e-05
0.00382855
-0.000190678
0.00355821
-0.00028841
0.00328822
-0.000330257
0.00302735
-0.000331414
0.00277902
-0.00030572
0.0025452
-0.0002656
0.00233093
-0.00022142
0.00214339
-0.000180927
0.00198622
-0.000149408
0.00185591
-0.000129531
0.00174477
-0.000120824
0.00164502
-0.000120588
0.00155093
-0.000125244
0.0014595
-0.0001309
0.00136984
-0.000133679
0.00128295
-0.000129637
0.0012028
-0.000114043
0.00113695
-8.09354e-05
0.00109612
-2.40687e-05
0.00109369
6.20144e-05
0.0011417
0.000178216
0.00124554
0.000308319
0.00139336
0.000413
0.00155236
0.000438704
0.00168199
0.000343272
0.00176828
0.000109359
0.0018604
-0.000271684
0.00201284
-0.000888176
0.00164869
-0.00223916
-0.00458079
-0.000822525
0.00465033
0.00142073
0.00107693
0.00276508
0.00110117
0.0036337
0.000969355
0.00415546
0.00065363
0.00441359
0.000369861
0.0044903
0.000164141
0.00444436
2.52354e-05
0.00431827
-6.43907e-05
0.0041466
-0.000116557
0.00395575
-0.000139213
0.00376435
-0.00013981
0.003584
-0.000125175
0.00342012
-0.000101516
0.00327349
-7.45868e-05
0.00314231
-4.95406e-05
0.00302358
-3.0463e-05
0.00291394
-1.96718e-05
0.0028106
-1.72723e-05
0.00271184
-2.16024e-05
0.00261694
-3.01299e-05
0.00252633
-4.00755e-05
0.00244163
-4.877e-05
0.00236593
-5.37319e-05
0.0023043
-5.22124e-05
0.00226395
-4.03884e-05
0.00225393
-1.38634e-05
0.00229169
2.44546e-05
0.00239224
7.78556e-05
0.00255882
0.000141933
0.00277521
0.000196807
0.00300069
0.00021343
0.00317717
0.000167002
0.00324311
4.3621e-05
0.00315754
-0.000185899
0.00281273
-0.000543157
0.00177153
-0.00119776
-0.00271814
-0.0037475
-0.00440975
0.000236941
0.00131222
0.00241235
0.00338113
0.00403454
0.00440447
0.00456892
0.0045947
0.0045311
0.00441562
0.00427779
0.00413971
0.00401665
0.00391767
0.0038461
0.00380008
0.0037737
0.00375871
0.00374675
0.00373113
0.00370768
0.00367499
0.00363433
0.00358942
0.00354673
0.00351653
0.00351347
0.00354928
0.00363896
0.00379312
0.00400251
0.00422886
0.00440916
0.00446655
0.00429495
0.00376671
0.00258432
)
;

boundaryField
{
    floor
    {
        type            calculated;
        value           nonuniform List<scalar> 
29
(
0
0
0
0
0
0
0
0
0
0
0
0
0
0
0
0
0
0
0
0
-5.51018e-06
-1.46885e-05
-2.07731e-05
-2.02834e-05
-3.14848e-06
-5.6681e-06
-1.49341e-05
-1.71766e-05
-1.62805e-05
)
;
    }
    ceiling
    {
        type            calculated;
        value           nonuniform List<scalar> 
43
(
5.71211e-06
4.54587e-06
3.86123e-06
1.86119e-06
1.24097e-06
7.66305e-07
4.11757e-07
1.28947e-07
-1.16461e-07
-3.48066e-07
-5.98131e-07
-8.7598e-07
-1.18527e-06
-1.52976e-06
-1.91281e-06
-2.33709e-06
-2.80435e-06
-3.31528e-06
-3.86944e-06
-4.46498e-06
-5.09841e-06
-5.76441e-06
-6.45613e-06
-7.16557e-06
-7.88385e-06
-8.60064e-06
-9.30275e-06
-9.97316e-06
-1.05937e-05
-1.11457e-05
-1.16195e-05
-1.20243e-05
-1.23828e-05
-1.27281e-05
-1.31037e-05
-1.35676e-05
-1.41044e-05
-1.47269e-05
-1.51772e-05
-1.5608e-05
3.91551e-06
1.89025e-06
3.48548e-06
)
;
    }
    sWall
    {
        type            calculated;
        value           uniform -0.000153458;
    }
    nWall
    {
        type            calculated;
        value           nonuniform List<scalar> 6(-5.34648e-05 -5.64519e-05 -6.78208e-05 -7.50684e-05 -9.09183e-05 -0.000118015);
    }
    sideWalls
    {
        type            empty;
        value           nonuniform 0();
    }
    glass1
    {
        type            calculated;
        value           nonuniform List<scalar> 9(-6.85572e-05 -0.000174348 -0.000256443 -0.000323433 -0.000380816 -0.000431549 -0.000477987 -0.000534732 -0.000600693);
    }
    glass2
    {
        type            calculated;
        value           nonuniform List<scalar> 2(-0.000321676 -0.000347228);
    }
    sun
    {
        type            calculated;
        value           uniform 0;
    }
    heatsource1
    {
        type            calculated;
        value           nonuniform List<scalar> 3(2.05437e-07 2.05638e-07 2.06291e-07);
    }
    heatsource2
    {
        type            calculated;
        value           nonuniform List<scalar> 4(5.15286e-08 5.173e-08 0 0);
    }
    Table_master
    {
        type            calculated;
        value           nonuniform List<scalar> 9(-1.55765e-07 -1.55817e-07 -1.55775e-07 -1.55716e-07 -1.55629e-07 -1.55518e-07 -1.55406e-07 -1.55298e-07 -1.55174e-07);
    }
    Table_slave
    {
        type            calculated;
        value           nonuniform List<scalar> 9(1.54179e-07 1.54287e-07 1.5439e-07 1.54502e-07 1.54621e-07 1.54743e-07 1.54864e-07 1.54936e-07 1.54882e-07);
    }
    inlet
    {
        type            calculated;
        value           uniform 0.000396156;
    }
    outlet
    {
        type            calculated;
        value           nonuniform List<scalar> 2(0.00389547 0.00065791);
    }
}


// ************************************************************************* //
