/*--------------------------------*- C++ -*----------------------------------*\
  =========                 |
  \\      /  F ield         | OpenFOAM: The Open Source CFD Toolbox
   \\    /   O peration     | Website:  https://openfoam.org
    \\  /    A nd           | Version:  6
     \\/     M anipulation  |
\*---------------------------------------------------------------------------*/
FoamFile
{
    version     2.0;
    format      ascii;
    class       surfaceScalarField;
    location    "100";
    object      phi;
}
// * * * * * * * * * * * * * * * * * * * * * * * * * * * * * * * * * * * * * //

dimensions      [1 0 -1 0 0 0 0];

internalField   nonuniform List<scalar> 
852
(
0.00137543
-0.00134233
0.00716101
-0.00578493
0.010582
-0.00342051
0.0123313
-0.00174881
0.0133278
-0.000996171
0.0138989
-0.000570724
0.0141222
-0.000223061
0.0140355
8.69733e-05
0.01366
0.000375745
0.012988
0.000672225
0.0119868
0.00100144
0.0105848
0.00140223
0.00861948
0.00196546
0.00562382
0.00299583
0.00562365
-0.000241344
0.000242702
-0.000158439
-8.28875e-05
4.0758e-05
-0.000199173
0.000335663
-0.000294874
0.000671224
-0.000335527
0.000903767
-0.000232512
0.000923138
-1.9341e-05
0.000903802
1.93616e-05
0.000866489
3.73343e-05
0.000815289
5.12186e-05
0.000760543
5.47607e-05
0.000708162
5.23931e-05
0.000659417
4.87542e-05
0.000613278
4.61472e-05
0.000564762
4.85227e-05
0.000517927
4.68398e-05
0.000478415
3.95173e-05
0.000432776
4.56435e-05
0.000434687
0.00731619
-0.00856381
0.0091803
-0.007649
0.0103457
-0.00458582
0.0111838
-0.00258672
0.0117381
-0.00155039
0.0120542
-0.000886654
0.0121656
-0.000334317
0.0120616
0.000191093
0.0117217
0.000715782
0.0111301
0.00126397
0.0102708
0.00186091
0.00913951
0.00253369
0.00778721
0.00331791
0.00655867
0.00422453
0.00700638
0.00517608
0.00290942
0.00409706
0.00290953
-5.65224e-05
0.000302694
-0.00017117
3.17858e-05
-0.000161176
-0.000209133
-3.5713e-05
-0.000420298
0.000190735
-0.000561935
0.000389521
-0.000431264
0.000409643
-3.94357e-05
0.00042232
6.70348e-06
0.000407092
5.2578e-05
0.000391609
6.67135e-05
0.000383427
6.29514e-05
0.000380669
5.51582e-05
0.000381227
4.82016e-05
0.000384476
4.29027e-05
0.000372778
6.02248e-05
0.000356405
6.32163e-05
0.00031272
8.32058e-05
0.000255478
0.000102889
0.000695122
0.00484426
-0.0132547
0.006339
-0.00914364
0.00691761
-0.0051643
0.00739694
-0.0030659
0.00779051
-0.00194381
0.00805656
-0.00115255
0.0082335
-0.000511111
0.00831201
0.000112734
0.00824629
0.000781638
0.00799827
0.00151214
0.00754852
0.0023108
0.00690869
0.00317366
0.00614506
0.00408169
0.00537204
0.0049977
0.00459166
0.00595661
0.0028035
0.00588538
0.00571318
-0.000441061
0.000748357
-0.000532071
0.000122835
-0.00059039
-0.000150769
-0.000608965
-0.000401675
-0.00054515
-0.000625705
-0.000121598
-0.000854781
-0.000160874
-0.000154011
-0.000101274
-3.44026e-05
2.87059e-05
8.40203e-05
0.000132378
0.000175436
0.000235817
0.000332992
-3.39394e-05
0.000255016
0.000161194
5.68666e-05
0.000301052
0.000759271
0.00269068
-0.0157341
0.00354102
-0.00999384
0.00394538
-0.0055685
0.00412099
-0.00324135
0.0043343
-0.00215696
0.00453991
-0.001358
0.00474215
-0.000713193
0.00491334
-5.82929e-05
0.00500121
0.000693919
0.00496787
0.00154561
0.00478982
0.002489
0.00446616
0.00349747
0.00401284
0.00453515
0.00344517
0.00556552
0.00283406
0.00656787
0.00210652
0.00661307
0.00174579
0.00607406
-0.00117714
0.00292303
-0.000950891
0.00052215
-0.00103879
0.000210783
-0.00114045
-4.90555e-05
-0.00126242
-0.000279647
-0.00140069
-0.000487381
-0.00168752
-0.000567898
-0.0012617
-0.000425919
-0.000845135
-0.00041666
-0.000393079
-0.000452152
8.07117e-05
-0.000473888
0.000545396
-0.000464784
0.000984888
-0.000439592
0.00137827
-0.00039348
0.00167016
-0.00029199
0.0017769
-0.000106844
0.0015807
0.000162311
0.00122743
0.000514515
0.000646265
0.000882264
0.00141351
0.00114809
-0.0166127
0.00152881
-0.0103744
0.00176181
-0.00580133
0.00150194
-0.00298132
0.00157591
-0.00223076
0.00176696
-0.00154889
0.00197138
-0.000917453
0.00214469
-0.000231438
0.00226775
0.000571017
0.00230798
0.00150553
0.00225299
0.00254415
0.00210064
0.00364997
0.00185424
0.0047817
0.0015334
0.00588651
0.00121811
0.00688331
0.000794855
0.00703647
0.000276355
0.00659272
-0.000432143
0.0036316
-0.000985679
0.00107574
-0.00117796
0.000403121
-0.00130462
7.76682e-05
-0.00140028
-0.000183929
-0.00147359
-0.000414021
-0.00148091
-0.000560509
-0.00127515
-0.000631622
-0.000978208
-0.000713541
-0.000633197
-0.000797106
-0.000250865
-0.00085617
0.000155919
-0.000871523
0.000559456
-0.000843087
0.000938028
-0.000772011
0.00127022
-0.000624143
0.00150145
-0.000338024
0.00156477
9.90351e-05
0.00147903
0.000600298
0.00126791
0.00109343
0.00129509
0.00138636
-9.53661e-05
0.00139028
-0.00080041
0.000704859
-0.000764895
5.96722e-06
-0.0162904
4.41884e-05
-0.0104124
-0.000153142
-0.00560383
-0.000716303
-0.00241799
-0.000704688
-0.0022422
-0.000543212
-0.00171019
-0.000372552
-0.00108795
-0.000246591
-0.000357233
-0.000170821
0.000495409
-0.000129771
0.00146464
-0.000118538
0.00253307
-0.00014088
0.00367246
-0.000200482
0.00484146
-0.000288457
0.00597464
-0.000357245
0.00695225
-0.000514467
0.00719385
-0.000575635
0.00665403
-0.000646664
0.00370271
-0.000970634
0.00139976
-0.00116696
0.000599501
-0.00128812
0.000198888
-0.00136199
-0.000109996
-0.00139671
-0.000379242
-0.00136462
-0.000592523
-0.00123702
-0.000759151
-0.00104008
-0.000910407
-0.00079682
-0.00104031
-0.000523427
-0.00112951
-0.000226359
-0.00116855
9.15201e-05
-0.00116093
0.000421506
-0.00110196
0.000760301
-0.000962902
0.0010946
-0.000672286
0.00137014
-0.000176456
0.00154073
0.000429749
0.00169703
0.000937176
0.00188587
0.00119756
0.00208022
0.00119596
0.00174212
0.00104299
0.00101919
-0.00105275
-0.0148513
-0.00181847
-0.00964655
-0.00240172
-0.0050204
-0.00299976
-0.00181978
-0.00302706
-0.00221473
-0.00289864
-0.00183845
-0.00275269
-0.00123372
-0.00263835
-0.000471404
-0.00254962
0.00040684
-0.00246027
0.00137546
-0.00235194
0.0024249
-0.00222105
0.00354173
-0.00207027
0.00469083
-0.00189733
0.00580186
-0.00166944
0.00672451
-0.00145858
0.00698314
-0.00111791
0.00631348
-0.000947576
0.00353245
-0.00101081
0.00146305
-0.00108225
0.000670994
-0.00113261
0.000249307
-0.00116065
-8.18949e-05
-0.00116952
-0.000370304
-0.00115291
-0.000609059
-0.0010993
-0.000812665
-0.00100995
-0.000999666
-0.000888291
-0.00116189
-0.000743586
-0.00127415
-0.000585449
-0.00132664
-0.000415333
-0.00133102
-0.000220906
-0.00129636
2.26805e-05
-0.00120646
0.000344231
-0.000993801
0.000756836
-0.000589022
0.00115421
3.24125e-05
0.00151017
0.000581249
0.00192771
0.000780057
0.00237741
0.000746295
0.00229893
0.0011215
0.0033613
-0.00387898
-0.0105298
-0.00616329
-0.00736206
-0.00607731
-0.0051062
-0.00604801
-0.00184891
-0.00561747
-0.0026451
-0.00527722
-0.00217852
-0.00506152
-0.00144925
-0.00490979
-0.000622971
-0.0047686
0.000265816
-0.00459767
0.0012047
-0.00436273
0.00219012
-0.00404775
0.00322691
-0.00364895
0.00429218
-0.00316738
0.00532045
-0.00259677
0.00615406
-0.00201344
0.00639995
-0.00138303
0.0056832
-0.00101966
0.00316914
-0.000898515
0.00134195
-0.000832731
0.000605264
-0.000780836
0.000197465
-0.000740494
-0.000122181
-0.000725908
-0.000384822
-0.000740507
-0.000594373
-0.000773513
-0.000779552
-0.000811222
-0.000961838
-0.000840133
-0.00113286
-0.00085981
-0.00125439
-0.00088048
-0.00130592
-0.000908036
-0.00130343
-0.00093792
-0.00126645
-0.000948922
-0.00119543
-0.000883423
-0.00105927
-0.000658034
-0.000814375
-0.000190015
-0.000435566
0.000302995
8.82733e-05
0.000691886
0.000391195
0.00099998
0.000438229
0.000619352
0.00150215
0.00417011
-0.0100484
-0.0174194
-0.0121194
-0.010406
-0.00860579
-0.00536237
-0.00751216
-0.00373856
-0.00707183
-0.00261868
-0.00690237
-0.00161854
-0.00679961
-0.000725552
-0.0066533
0.000119676
-0.00640551
0.000957082
-0.00603099
0.00181576
-0.00551029
0.00270638
-0.00483627
0.00361832
-0.00401714
0.00450147
-0.00308216
0.00521923
-0.00213815
0.00545609
-0.00127075
0.00481591
-0.000724525
0.00262298
-0.00045917
0.00107665
-0.000290705
0.000436849
-0.000151109
5.79142e-05
-5.16099e-05
-0.000221633
-2.98218e-05
-0.000406548
-8.56319e-05
-0.000538478
-0.000206909
-0.000658159
-0.000377251
-0.00079135
-0.000572952
-0.000936999
-0.000779101
-0.00104811
-0.00100392
-0.00108102
-0.00126561
-0.00104171
-0.001593
-0.000939031
-0.00201614
-0.000772265
-0.00254689
-0.000528487
-0.00316729
-0.000193937
-0.00382719
0.000224367
-0.00450904
0.000770161
-0.00546038
0.00134256
-0.00671936
0.00169724
-0.00633759
0.00112041
-0.00195856
-0.0103979
0.000138393
-0.00810304
-0.00765703
-0.00779779
-0.00404364
-0.00795365
-0.00246265
-0.00810325
-0.00146876
-0.00814083
-0.000687807
-0.00802991
8.92431e-06
-0.00774304
0.000670385
-0.00725172
0.00132461
-0.00653643
0.00199125
-0.00559106
0.00267312
-0.00443292
0.00334348
-0.00312304
0.0039095
-0.00180831
0.00414149
-0.000643129
0.00365085
0.000142031
0.0018379
0.000496561
0.000722179
0.000717354
0.00021611
0.00085491
-7.95954e-05
0.000901667
-0.000268338
0.000859792
-0.000364614
0.000743324
-0.000421934
0.000558215
-0.000472945
0.000301642
-0.000534629
-2.25501e-05
-0.000612603
-0.00037784
-0.000692639
-0.000728336
-0.000730393
-0.00106689
-0.000703094
-0.00139513
-0.000610768
-0.00171132
-0.000456052
-0.0019999
-0.000239889
-0.0022694
7.55809e-05
-0.00248749
0.000442483
-0.0025928
0.000875494
-0.00255329
0.00130308
-0.00212873
0.00127269
-0.000922089
-8.62164e-05
-0.00282856
-0.000447045
0.000569071
-0.0050567
-0.00304722
-0.00706384
-0.00203634
-0.0082005
-0.00132582
-0.00885418
-0.000814923
-0.00913934
-0.000402482
-0.00909199
-3.82596e-05
-0.00876851
0.000347077
-0.00816141
0.000717669
-0.00725778
0.00108778
-0.00604899
0.00146449
-0.00455009
0.00184474
-0.0028353
0.00219486
-0.00105601
0.00236234
0.000620588
0.00197437
0.00159363
0.000864956
0.00197686
0.000339036
0.0021189
7.4151e-05
0.0021029
-6.35303e-05
0.00196662
-0.000131981
0.00177633
-0.000174257
0.00155595
-0.000201472
0.00130798
-0.000224873
0.00102446
-0.000250971
0.000695096
-0.000283053
0.000324143
-0.000321457
-4.61384e-05
-0.000359878
-0.000372979
-0.000376127
-0.000643957
-0.000339747
-0.000876369
-0.000223632
-0.00106799
-4.82594e-05
-0.00109459
0.000102191
-0.000961254
0.000309165
-0.000600262
0.000514521
0.000138777
0.000564056
0.00116919
0.00024229
0.00166144
-0.000578444
-0.00111169
0.00471707
-0.00215032
-0.00161126
-0.00469608
-0.00676927
-0.00813157
-0.00898262
-0.00942098
-0.00949493
-0.00918336
-0.00850103
-0.00744841
-0.0060189
-0.00420893
-0.0020486
0.00027961
0.00222135
0.00305392
0.00336053
0.00340231
0.00330682
0.00314371
0.00293931
0.00270862
0.00245536
0.00217674
0.00186679
0.00151928
0.00113436
0.000734276
0.000371435
0.000125001
5.36855e-05
0.000132672
0.000418621
0.000909919
0.00145041
0.00166825
0.00106474
)
;

boundaryField
{
    floor
    {
        type            calculated;
        value           nonuniform List<scalar> 
29
(
0
0
0
0
0
0
0
0
0
0
0
0
0
0
0
0
0
0
0
0
-1.90625e-06
-4.95256e-06
-7.27233e-06
-7.95274e-06
3.35589e-07
-1.34541e-06
-3.45365e-06
-4.57216e-06
-1.08088e-08
)
;
    }
    ceiling
    {
        type            calculated;
        value           nonuniform List<scalar> 
43
(
5.12879e-05
4.54295e-05
3.01773e-05
3.77575e-05
3.70121e-05
3.66444e-05
3.62906e-05
3.60381e-05
3.58502e-05
3.56677e-05
3.54967e-05
3.5321e-05
3.51334e-05
3.49266e-05
3.46781e-05
3.42764e-05
3.27656e-05
3.25123e-05
3.25464e-05
3.24863e-05
3.20686e-05
3.12331e-05
3.02487e-05
2.93116e-05
2.84963e-05
2.77752e-05
2.7065e-05
2.62792e-05
2.53417e-05
2.42427e-05
2.32455e-05
2.28245e-05
2.3051e-05
2.3205e-05
2.32221e-05
2.32302e-05
2.35723e-05
2.44632e-05
2.50685e-05
2.66012e-05
1.14431e-05
9.17432e-06
1.65351e-05
)
;
    }
    sWall
    {
        type            calculated;
        value           uniform -0.000159163;
    }
    nWall
    {
        type            calculated;
        value           nonuniform List<scalar> 6(-3.56965e-05 -4.1947e-05 -4.31576e-05 -5.20752e-05 -5.54248e-05 -7.35347e-05);
    }
    sideWalls
    {
        type            empty;
        value           nonuniform 0();
    }
    glass1
    {
        type            calculated;
        value           nonuniform List<scalar> 9(-3.47049e-05 -9.46486e-05 -0.000153182 -0.000211175 -0.000269369 -0.000328037 -0.000386266 -0.000442317 -0.000492687);
    }
    glass2
    {
        type            calculated;
        value           nonuniform List<scalar> 2(-0.000189427 -0.000208902);
    }
    sun
    {
        type            calculated;
        value           uniform 0;
    }
    heatsource1
    {
        type            calculated;
        value           nonuniform List<scalar> 3(2.02675e-07 2.02864e-07 2.02876e-07);
    }
    heatsource2
    {
        type            calculated;
        value           nonuniform List<scalar> 4(4.95901e-08 5.00558e-08 0 0);
    }
    Table_master
    {
        type            calculated;
        value           nonuniform List<scalar> 9(-1.52451e-07 -1.52498e-07 -1.52511e-07 -1.52534e-07 -1.52552e-07 -1.5255e-07 -1.52537e-07 -1.52526e-07 -1.52505e-07);
    }
    Table_slave
    {
        type            calculated;
        value           nonuniform List<scalar> 9(1.51823e-07 1.5197e-07 1.52105e-07 1.52224e-07 1.52198e-07 1.52053e-07 1.51926e-07 1.51837e-07 1.51813e-07);
    }
    inlet
    {
        type            calculated;
        value           uniform -0.000146369;
    }
    outlet
    {
        type            calculated;
        value           nonuniform List<scalar> 2(-0.00460886 0.00682226);
    }
}


// ************************************************************************* //
