/*--------------------------------*- C++ -*----------------------------------*\
  =========                 |
  \\      /  F ield         | OpenFOAM: The Open Source CFD Toolbox
   \\    /   O peration     | Website:  https://openfoam.org
    \\  /    A nd           | Version:  6
     \\/     M anipulation  |
\*---------------------------------------------------------------------------*/
FoamFile
{
    version     2.0;
    format      ascii;
    class       surfaceScalarField;
    location    "100";
    object      phi;
}
// * * * * * * * * * * * * * * * * * * * * * * * * * * * * * * * * * * * * * //

dimensions      [1 0 -1 0 0 0 0];

internalField   nonuniform List<scalar> 
852
(
0.00478263
-0.00475088
0.00933698
-0.00455421
0.0118181
-0.00248098
0.0131193
-0.00130104
0.013892
-0.000772611
0.0143194
-0.000427226
0.0144446
-0.000125051
0.0142984
0.000146381
0.0138948
0.000403734
0.0132186
0.000676374
0.0122262
0.000992515
0.0108316
0.00139469
0.00885235
0.00197942
0.00579128
0.00306121
0.00579087
-0.000107034
0.000107822
-4.77763e-05
-5.92477e-05
0.000102959
-0.000150721
0.000332705
-0.000229729
0.000571618
-0.000238894
0.000700913
-0.000129278
0.000678246
2.26821e-05
0.000639686
3.85721e-05
0.000587368
5.23286e-05
0.000524744
6.26323e-05
0.000460698
6.40522e-05
0.000400274
6.04299e-05
0.000344871
5.54074e-05
0.000293561
5.13133e-05
0.000241355
5.22094e-05
0.000220202
2.11556e-05
0.000241261
-2.1056e-05
0.000273258
-3.19943e-05
0.000274348
0.00535909
-0.0100198
0.00814607
-0.00734104
0.0096501
-0.00398485
0.0105676
-0.00221837
0.0111567
-0.00136154
0.0115032
-0.000773584
0.0116427
-0.000264406
0.0115762
0.000212963
0.0112923
0.00068782
0.0107742
0.00119459
0.0100024
0.00176449
0.00896581
0.00243143
0.00770602
0.00323935
0.00656291
0.00420446
0.0071082
0.00524572
0.00295282
0.00415547
0.00295291
-6.41928e-05
0.000173941
-0.000168031
4.46075e-05
-0.000169883
-0.000148847
-8.54983e-05
-0.00031409
7.58264e-05
-0.000400196
0.000195642
-0.000249077
0.000185395
3.29408e-05
0.000187503
3.64715e-05
0.000174573
6.52648e-05
0.000165414
7.17956e-05
0.000162832
6.6638e-05
0.000164395
5.88691e-05
0.000168178
5.16279e-05
0.000169801
4.96919e-05
0.000133934
8.80786e-05
0.000136659
1.84348e-05
0.000129587
-1.39803e-05
8.9742e-05
7.85518e-06
0.000366885
0.00390519
-0.0137788
0.00562149
-0.00905718
0.00651397
-0.00487717
0.00712005
-0.00282429
0.00755437
-0.00179569
0.0078423
-0.00106136
0.00802554
-0.000447492
0.00809463
0.000144026
0.00801682
0.000765783
0.00776685
0.00144472
0.00733401
0.00219747
0.00673226
0.00303332
0.0060249
0.00394686
0.00531827
0.00491123
0.00459839
0.00596574
0.00282008
0.00593392
0.00577313
-0.000520258
0.000696689
-0.000604892
0.00012927
-0.000666593
-8.71138e-05
-0.000702109
-0.000278542
-0.000664037
-0.000438241
-0.000339743
-0.000573352
-0.000306645
-0.000270018
-0.000204598
-0.000132648
-6.58557e-05
-6.83242e-06
4.49495e-05
9.47955e-05
0.00018303
0.000389869
-0.000188366
0.000275811
0.000100101
-1.42227e-05
0.000297904
0.000356668
0.00234184
-0.0159193
0.00328008
-0.00999525
0.00383599
-0.0054329
0.00408448
-0.00307262
0.00431518
-0.00202623
0.00451932
-0.00126534
0.0047152
-0.000643209
0.00486789
-8.50794e-06
0.00492674
0.000707086
0.00486992
0.00150169
0.00468217
0.00238537
0.00436541
0.00335023
0.00393414
0.00437828
0.00339797
0.00544754
0.0028216
0.00654226
0.00210861
0.00664705
0.00173397
0.00614792
-0.0012196
0.00295196
-0.00103939
0.000516516
-0.00115164
0.000241569
-0.00128397
4.52523e-05
-0.0014302
-0.000132263
-0.00157832
-0.00029008
-0.00179327
-0.000358354
-0.00150785
-0.000285515
-0.00120355
-0.000304394
-0.00084048
-0.000363173
-0.000412377
-0.000428201
6.40538e-05
-0.000476533
0.000553877
-0.000489928
0.00102844
-0.000474666
0.00145094
-0.000422606
0.00175262
-0.00030179
0.00164708
-8.27803e-05
0.0014305
0.000316724
0.000978225
0.000750212
0.00133877
0.00106192
-0.0167247
0.00148705
-0.0104202
0.00173832
-0.005684
0.00150489
-0.00283902
0.00158725
-0.00210843
0.00177319
-0.00145111
0.0019711
-0.000840953
0.00214004
-0.00017729
0.00225786
0.000589426
0.00229114
0.00146856
0.00223069
0.00244597
0.00207736
0.00350372
0.00183535
0.00462044
0.00152396
0.00575908
0.00122395
0.00684241
0.00080749
0.00706366
0.000286284
0.00666927
-0.000422164
0.00366048
-0.00101085
0.00110525
-0.00123643
0.000467195
-0.00138256
0.000191434
-0.00149172
-2.30554e-05
-0.00157165
-0.000210094
-0.00158986
-0.000340089
-0.00144959
-0.000425731
-0.001227
-0.000526921
-0.0009463
-0.000643818
-0.00061366
-0.000760785
-0.000233436
-0.000856707
0.00018299
-0.000906312
0.000607621
-0.000899259
0.0010122
-0.00082715
0.00135409
-0.000643648
0.00154552
-0.000274167
0.00159423
0.000268055
0.00153132
0.000813159
0.00169584
0.00117429
0.000464271
0.0012314
-0.000543244
0.00100733
-0.000511892
-4.74721e-06
-0.0164081
4.57883e-05
-0.0104706
-0.000158394
-0.00547965
-0.000713064
-0.00228418
-0.000688341
-0.00213298
-0.000518339
-0.00162095
-0.000340926
-0.0010182
-0.000205682
-0.000312371
-0.000119786
0.000503691
-7.39148e-05
0.00142285
-6.50949e-05
0.0024373
-9.49935e-05
0.00353378
-0.00016414
0.00468973
-0.000259595
0.00585468
-0.000327786
0.00691075
-0.00048679
0.00722281
-0.000553072
0.00673569
-0.000637047
0.00374451
-0.000969408
0.00143765
-0.00117281
0.000670649
-0.00129672
0.000315399
-0.00137601
5.62859e-05
-0.00141675
-0.000169294
-0.0014021
-0.000354679
-0.00131563
-0.000512143
-0.00117209
-0.000670386
-0.000981989
-0.00083385
-0.000751375
-0.000991332
-0.000487346
-0.00112068
-0.000192207
-0.00120141
0.000133367
-0.0012248
0.000480558
-0.00117431
0.000842085
-0.00100514
0.00119801
-0.000630062
0.0014901
-2.39995e-05
0.00169767
0.000605623
0.0018659
0.00100609
0.00194402
0.00115331
0.00175917
0.00119222
0.00128461
-0.00108007
-0.0149617
-0.00183041
-0.00972005
-0.00238863
-0.00492125
-0.00298481
-0.00168784
-0.00298855
-0.00212907
-0.00283824
-0.00177109
-0.00267239
-0.00118387
-0.00253993
-0.000444671
-0.00243799
0.000401912
-0.00234492
0.00132994
-0.00224345
0.00233599
-0.00212844
0.00341892
-0.00199811
0.00455955
-0.00184355
0.00570027
-0.00162418
0.00669154
-0.00142069
0.00701946
-0.00108725
0.00640237
-0.000926061
0.00358338
-0.00098704
0.00149867
-0.00105056
0.000734219
-0.00109044
0.00035533
-0.00111001
7.59095e-05
-0.00111237
-0.000166884
-0.00109607
-0.000370911
-0.00105875
-0.000549385
-0.00100137
-0.000727683
-0.000922084
-0.000913048
-0.000818824
-0.00109451
-0.000694121
-0.00124531
-0.000554102
-0.00134138
-0.000396194
-0.00138268
-0.000202445
-0.00136803
5.71375e-05
-0.0012647
0.000409957
-0.00098285
0.00084504
-0.000459049
0.00126453
0.000186162
0.00164089
0.000629766
0.0020324
0.000761826
0.00199962
0.00122502
0.00332235
-0.00393134
-0.0106119
-0.00620523
-0.00744597
-0.00608367
-0.00504263
-0.00604256
-0.00172877
-0.00556899
-0.00260247
-0.00519116
-0.00214875
-0.00494576
-0.00142911
-0.00477293
-0.000617335
-0.00462046
0.000249614
-0.00445001
0.00115965
-0.00422731
0.00211346
-0.00393448
0.00312625
-0.00356233
0.00418756
-0.00310414
0.00524224
-0.00254613
0.00613367
-0.00197116
0.00644463
-0.00134697
0.0057783
-0.000986604
0.00322306
-0.000861122
0.00137324
-0.000784582
0.000657726
-0.00072037
0.000291163
-0.000657391
1.29753e-05
-0.000611368
-0.000212855
-0.000596257
-0.000385958
-0.000609894
-0.000535669
-0.000645534
-0.000691944
-0.000693965
-0.000864504
-0.000745544
-0.00104282
-0.000796353
-0.00119441
-0.000855472
-0.0012822
-0.000926375
-0.00131174
-0.000997165
-0.00129722
-0.00103103
-0.00123081
-0.000946962
-0.00106689
-0.000650595
-0.000755383
-0.000175101
-0.000289295
0.000285619
0.000169076
0.000646116
0.000401355
0.000383584
0.00148758
0.00387327
-0.0101604
-0.017617
-0.0122212
-0.0104383
-0.00862013
-0.00532963
-0.00746596
-0.00375647
-0.00697673
-0.0026378
-0.00677347
-0.0016322
-0.00665156
-0.000739077
-0.00649908
9.7296e-05
-0.00625586
0.000916591
-0.00589715
0.00175491
-0.00540135
0.00263061
-0.00475557
0.00354194
-0.00396002
0.00444683
-0.0030369
0.0052107
-0.00209715
0.00550501
-0.00123275
0.004914
-0.000681166
0.00267153
-0.000417465
0.00110958
-0.000240834
0.000481142
-8.75117e-05
0.000137886
4.13585e-05
-0.000115853
0.000108893
-0.000280341
0.000110507
-0.000387515
5.04328e-05
-0.000475518
-6.7412e-05
-0.000573993
-0.000236093
-0.000695692
-0.000445279
-0.000833484
-0.000683093
-0.000956468
-0.000962003
-0.00100321
-0.00130591
-0.000967782
-0.00174604
-0.000857061
-0.00230583
-0.000670993
-0.00297007
-0.000402622
-0.00368475
-4.0662e-05
-0.00440754
0.000433526
-0.0052643
0.00102587
-0.00635517
0.00149225
-0.00600122
0.00113365
-0.00194495
-0.0104931
0.000129087
-0.00808567
-0.00773693
-0.00773496
-0.00410701
-0.00785886
-0.00251373
-0.00798301
-0.00150788
-0.00800342
-0.000718502
-0.00788772
-1.82438e-05
-0.00760859
0.000637626
-0.00713726
0.00128375
-0.00644943
0.00194293
-0.00553292
0.00262559
-0.00439707
0.00331114
-0.00309538
0.00390915
-0.00177494
0.0041847
-0.000597144
0.00373631
0.000195585
0.00187887
0.000544824
0.000760401
0.000759555
0.000266467
0.000916848
-1.93555e-05
0.00100082
-0.000199776
0.00100637
-0.000285832
0.000949026
-0.000330117
0.000838783
-0.000365203
0.000673842
-0.000408958
0.000445806
-0.000467527
0.000145949
-0.00053346
-0.000206357
-0.000603973
-0.000574207
-0.000635216
-0.000936304
-0.000605605
-0.00127991
-0.000513418
-0.00159104
-0.000359849
-0.0018498
-0.000143837
-0.00209667
0.000206228
-0.00226788
0.000604757
-0.00228785
0.00104586
-0.00188417
0.0010886
-0.000722334
-2.81711e-05
-0.0026231
-0.000365472
0.000475434
-0.00490475
-0.00319749
-0.0069236
-0.002088
-0.00807935
-0.00135782
-0.00874698
-0.000840076
-0.00904088
-0.00042444
-0.00899887
-6.00907e-05
-0.00868777
0.000326689
-0.00810089
0.000697026
-0.00722317
0.00106537
-0.00604047
0.00144303
-0.00455977
0.00183059
-0.00284665
0.00219617
-0.00104165
0.00237983
0.000675413
0.00201935
0.00166419
0.000890183
0.00205522
0.000369456
0.00220486
0.000116908
0.00220994
-2.43534e-05
0.00209812
-8.78882e-05
0.00194263
-0.000130272
0.00177043
-0.000157852
0.00158475
-0.000179443
0.00137571
-0.00019983
0.00112938
-0.000221073
0.000840179
-0.000244096
0.000506005
-0.000269598
0.000163461
-0.00029246
-0.000144102
-0.000297877
-0.000390782
-0.000266663
-0.000571677
-0.000178931
-0.00069615
-1.93566e-05
-0.000639709
0.000149797
-0.00035571
0.000320771
0.000292973
0.000397192
0.00119854
0.000183047
0.00169692
-0.000526546
-0.000880013
0.00483899
-0.00161331
-0.00117305
-0.00441499
-0.00654655
-0.0079476
-0.00883054
-0.00929757
-0.00940004
-0.00911554
-0.00846053
-0.007437
-0.00603562
-0.00424649
-0.00209158
0.000247312
0.00222714
0.00307805
0.00340838
0.00348661
0.00342435
0.00329987
0.00313439
0.00294251
0.00272996
0.0024977
0.00224478
0.00196946
0.00166938
0.00134734
0.00102085
0.000726392
0.000520132
0.000473386
0.000595612
0.000888243
0.00125629
0.00140876
0.000851008
)
;

boundaryField
{
    floor
    {
        type            calculated;
        value           nonuniform List<scalar> 
29
(
0
0
0
0
0
0
0
0
0
0
0
0
0
0
0
0
0
0
0
0
-1.08734e-06
-2.79074e-06
-3.99772e-06
-3.8495e-06
5.5363e-07
-7.80389e-07
-1.91607e-06
-2.46579e-06
1.68915e-06
)
;
    }
    ceiling
    {
        type            calculated;
        value           nonuniform List<scalar> 
43
(
5.9127e-05
5.38714e-05
3.53454e-05
4.4611e-05
4.37247e-05
4.33931e-05
4.30196e-05
4.27492e-05
4.25457e-05
4.23447e-05
4.21675e-05
4.19931e-05
4.18108e-05
4.16168e-05
4.14005e-05
4.10735e-05
3.96483e-05
3.9403e-05
3.92437e-05
3.87991e-05
3.80134e-05
3.67007e-05
3.53079e-05
3.41163e-05
3.32065e-05
3.25254e-05
3.19565e-05
3.13698e-05
3.06693e-05
2.98308e-05
2.88916e-05
2.80005e-05
2.74139e-05
2.74006e-05
2.75647e-05
2.81352e-05
2.91454e-05
3.05773e-05
3.12126e-05
3.28918e-05
1.31025e-05
1.07868e-05
1.92973e-05
)
;
    }
    sWall
    {
        type            calculated;
        value           uniform -0.00015214;
    }
    nWall
    {
        type            calculated;
        value           nonuniform List<scalar> 6(-3.15285e-05 -3.73122e-05 -3.80876e-05 -4.41756e-05 -4.61605e-05 -6.18894e-05);
    }
    sideWalls
    {
        type            empty;
        value           nonuniform 0();
    }
    glass1
    {
        type            calculated;
        value           nonuniform List<scalar> 9(-3.16066e-05 -9.00199e-05 -0.000146006 -0.00020123 -0.00025636 -0.000311655 -0.000366237 -0.000418299 -0.000464376);
    }
    glass2
    {
        type            calculated;
        value           nonuniform List<scalar> 2(-0.000167305 -0.000182974);
    }
    sun
    {
        type            calculated;
        value           uniform 0;
    }
    heatsource1
    {
        type            calculated;
        value           nonuniform List<scalar> 3(2.01987e-07 2.02276e-07 2.02467e-07);
    }
    heatsource2
    {
        type            calculated;
        value           nonuniform List<scalar> 4(4.94516e-08 4.99227e-08 0 0);
    }
    Table_master
    {
        type            calculated;
        value           nonuniform List<scalar> 9(-1.5202e-07 -1.52059e-07 -1.52078e-07 -1.52104e-07 -1.52133e-07 -1.52159e-07 -1.52166e-07 -1.52154e-07 -1.52121e-07);
    }
    Table_slave
    {
        type            calculated;
        value           nonuniform List<scalar> 9(1.51404e-07 1.51501e-07 1.51597e-07 1.51712e-07 1.51827e-07 1.51798e-07 1.51641e-07 1.51504e-07 1.51409e-07);
    }
    inlet
    {
        type            calculated;
        value           uniform -7.40072e-05;
    }
    outlet
    {
        type            calculated;
        value           nonuniform List<scalar> 2(-0.00474565 0.00639876);
    }
}


// ************************************************************************* //
