/*--------------------------------*- C++ -*----------------------------------*\
  =========                 |
  \\      /  F ield         | OpenFOAM: The Open Source CFD Toolbox
   \\    /   O peration     | Website:  https://openfoam.org
    \\  /    A nd           | Version:  6
     \\/     M anipulation  |
\*---------------------------------------------------------------------------*/
FoamFile
{
    version     2.0;
    format      ascii;
    class       volScalarField;
    location    "100";
    object      T;
}
// * * * * * * * * * * * * * * * * * * * * * * * * * * * * * * * * * * * * * //

dimensions      [0 0 0 1 0 0 0];

internalField   nonuniform List<scalar> 
459
(
306.655
306.052
305.957
305.914
305.887
305.868
305.855
305.845
305.837
305.828
305.82
305.813
305.805
305.796
305.784
304.377
304.37
304.373
304.38
304.383
304.382
304.376
304.37
304.365
304.362
304.359
304.357
304.355
304.355
304.355
304.356
304.358
304.359
304.368
306.146
305.928
305.812
305.75
305.714
305.692
305.68
305.676
305.675
305.678
305.684
305.695
305.709
305.728
305.748
305.739
305.721
304.375
304.374
304.383
304.393
304.4
304.396
304.375
304.361
304.352
304.346
304.342
304.34
304.339
304.338
304.338
304.339
304.34
304.343
304.36
306.048
305.72
305.588
305.524
305.488
305.468
305.459
305.461
305.476
305.5
305.531
305.568
305.609
305.652
305.693
305.708
305.704
304.391
304.392
304.402
304.413
304.42
304.419
304.364
304.341
304.336
304.334
304.332
304.331
304.331
304.33
304.331
304.339
304.341
304.344
304.358
305.976
305.539
305.422
305.379
305.356
305.341
305.332
305.332
305.348
305.38
305.424
305.477
305.535
305.594
305.65
305.682
305.68
305.163
304.466
304.422
304.427
304.438
304.444
304.444
304.442
304.44
304.44
304.44
304.44
304.44
304.439
304.437
304.431
304.421
304.403
304.382
304.367
305.902
305.41
305.342
305.329
305.32
305.308
305.295
305.287
305.296
305.324
305.37
305.429
305.495
305.562
305.626
305.664
305.652
305.106
304.518
304.453
304.455
304.466
304.473
304.474
304.471
304.467
304.464
304.463
304.463
304.463
304.462
304.46
304.453
304.442
304.425
304.403
304.381
304.381
304.436
304.451
305.819
305.34
305.325
305.331
305.328
305.316
305.3
305.286
305.288
305.315
305.36
305.42
305.487
305.555
305.617
305.646
305.577
305.013
304.542
304.481
304.486
304.499
304.507
304.506
304.5
304.492
304.484
304.478
304.477
304.477
304.477
304.475
304.469
304.457
304.44
304.42
304.399
304.389
304.4
304.417
305.718
305.323
305.33
305.351
305.352
305.344
305.333
305.325
305.329
305.352
305.39
305.441
305.5
305.559
305.605
305.603
305.462
304.92
304.56
304.512
304.523
304.541
304.551
304.549
304.537
304.521
304.503
304.491
304.486
304.486
304.487
304.487
304.483
304.472
304.454
304.435
304.417
304.406
304.405
304.419
305.616
305.309
305.328
305.378
305.386
305.386
305.384
305.384
305.39
305.407
305.435
305.474
305.517
305.557
305.576
305.532
305.336
304.85
304.581
304.548
304.567
304.592
304.606
304.604
304.587
304.56
304.529
304.505
304.493
304.491
304.494
304.496
304.494
304.489
304.477
304.454
304.442
304.437
304.438
304.515
305.522
305.283
305.279
305.387
305.407
305.417
305.425
305.432
305.44
305.452
305.471
305.494
305.518
305.534
305.523
305.445
305.227
304.817
304.618
304.594
304.617
304.649
304.667
304.667
304.649
304.614
304.569
304.526
304.501
304.495
304.498
304.503
304.508
304.511
304.516
304.522
304.53
304.544
304.558
304.594
305.158
305.369
305.401
305.419
305.434
305.446
305.456
305.465
305.475
305.485
305.492
305.487
305.455
305.365
305.166
304.836
304.691
304.673
304.691
304.713
304.726
304.728
304.715
304.683
304.63
304.565
304.517
304.496
304.496
304.503
304.511
304.518
304.523
304.529
304.537
304.546
304.552
304.559
305.24
305.352
305.378
305.395
305.409
305.42
305.429
305.435
305.44
305.441
305.436
305.421
305.385
305.309
305.149
304.922
304.839
304.81
304.802
304.8
304.797
304.791
304.776
304.747
304.7
304.633
304.557
304.504
304.488
304.493
304.502
304.51
304.517
304.523
304.529
304.535
304.528
304.544
306.913
306.398
305.35
305.33
305.339
305.346
305.351
305.356
305.361
305.365
305.367
305.365
305.36
305.347
305.325
305.282
305.147
305.059
305.011
304.98
304.953
304.927
304.902
304.878
304.851
304.82
304.779
304.719
304.636
304.542
304.479
304.464
304.47
304.481
304.492
304.501
304.506
304.507
304.505
304.537
)
;

boundaryField
{
    floor
    {
        type            wallHeatTransfer;
        Tinf            uniform 305.2;
        alphaWall       uniform 0.24;
        value           nonuniform List<scalar> 
29
(
305.738
304.558
304.526
304.519
304.519
304.522
304.525
304.528
304.531
304.535
304.54
304.545
304.552
304.56
304.569
304.579
304.59
304.601
304.606
304.624
304.624
304.582
304.554
304.52
305.738
304.558
304.529
304.514
305.167
)
;
    }
    ceiling
    {
        type            wallHeatTransfer;
        Tinf            uniform 303.2;
        alphaWall       uniform 0.24;
        value           nonuniform List<scalar> 
43
(
306.619
306.134
305.176
305.113
305.125
305.133
305.14
305.146
305.152
305.157
305.16
305.16
305.155
305.145
305.125
305.085
304.958
304.872
304.824
304.793
304.768
304.747
304.728
304.709
304.687
304.66
304.623
304.568
304.49
304.403
304.345
304.333
304.338
304.348
304.359
304.368
304.371
304.366
304.361
304.384
305.43
305.208
305.133
)
;
    }
    sWall
    {
        type            wallHeatTransfer;
        Tinf            uniform 315.2;
        alphaWall       uniform 0.36;
        value           uniform 307.864;
    }
    nWall
    {
        type            wallHeatTransfer;
        Tinf            uniform 307.2;
        alphaWall       uniform 0.36;
        value           nonuniform List<scalar> 6(304.987 304.933 304.869 304.931 304.902 304.969);
    }
    sideWalls
    {
        type            empty;
    }
    glass1
    {
        type            wallHeatTransfer;
        Tinf            uniform 315.2;
        alphaWall       uniform 4.3;
        value           nonuniform List<scalar> 9(311.551 310.645 310.456 310.337 310.235 310.132 310.009 309.858 309.646);
    }
    glass2
    {
        type            wallHeatTransfer;
        Tinf            uniform 307.2;
        alphaWall       uniform 4.3;
        value           nonuniform List<scalar> 2(306.247 306.288);
    }
    sun
    {
        type            wallHeatTransfer;
        Tinf            uniform 305.2;
        alphaWall       uniform 0.24;
        value           nonuniform List<scalar> 
14
(
306.556
306.001
305.912
305.87
305.844
305.825
305.812
305.803
305.794
305.786
305.778
305.769
305.761
305.751
)
;
    }
    heatsource1
    {
        type            fixedGradient;
        gradient        uniform 0;
    }
    heatsource2
    {
        type            fixedGradient;
        gradient        uniform 0;
    }
    Table_master
    {
        type            zeroGradient;
    }
    Table_slave
    {
        type            zeroGradient;
    }
    inlet
    {
        type            fixedValue;
        value           uniform 290.15;
    }
    outlet
    {
        type            zeroGradient;
    }
}


// ************************************************************************* //
