// -*- C++ -*-
// File generated by PyFoam - sorry for the ugliness

FoamFile
{
 version 2.0;
 format ascii;
 class volScalarField;
 location "100";
 object T;
}

dimensions [ 0 0 0 1 0 0 0 ];

internalField nonuniform List<scalar> 459
(
  302.152
  301.782
  301.778
  301.789
  301.8
  301.809
  301.817
  301.824
  301.83
  301.835
  301.836
  301.833
  301.827
  301.817
  301.807
  301.346
  301.328
  301.326
  301.316
  301.292
  301.256
  301.216
  301.176
  301.166
  301.164
  301.162
  301.165
  301.176
  301.194
  301.231
  301.309
  301.328
  301.318
  301.322
  302.418
  301.866
  301.832
  301.849
  301.868
  301.885
  301.901
  301.914
  301.924
  301.93
  301.929
  301.919
  301.899
  301.868
  301.826
  301.778
  301.651
  301.369
  301.36
  301.35
  301.334
  301.302
  301.22
  301.119
  301.073
  301.065
  301.067
  301.075
  301.093
  301.126
  301.19
  301.294
  301.389
  301.36
  301.326
  301.32
  302.663
  301.965
  301.896
  301.918
  301.947
  301.975
  302
  302.021
  302.037
  302.046
  302.044
  302.027
  301.995
  301.946
  301.882
  301.81
  301.747
  301.479
  301.47
  301.48
  301.492
  301.484
  301.423
  301.102
  301.038
  301.039
  301.055
  301.093
  301.157
  301.239
  301.328
  301.42
  301.485
  301.408
  301.389
  301.389
  302.886
  302.074
  301.965
  301.987
  302.029
  302.07
  302.108
  302.141
  302.166
  302.182
  302.182
  302.163
  302.123
  302.062
  301.981
  301.884
  301.783
  301.704
  301.65
  301.688
  301.728
  301.759
  301.773
  301.779
  301.786
  301.782
  301.778
  301.776
  301.773
  301.771
  301.768
  301.762
  301.751
  301.712
  301.659
  301.617
  301.604
  303.091
  302.188
  302.037
  302.053
  302.105
  302.16
  302.214
  302.263
  302.304
  302.331
  302.339
  302.325
  302.288
  302.23
  302.156
  302.073
  301.993
  301.926
  301.881
  301.871
  301.881
  301.886
  301.883
  301.876
  301.867
  301.858
  301.852
  301.848
  301.847
  301.849
  301.853
  301.857
  301.861
  301.863
  301.867
  301.877
  301.885
  301.869
  301.799
  301.772
  303.268
  302.313
  302.13
  302.118
  302.172
  302.238
  302.306
  302.372
  302.431
  302.475
  302.495
  302.491
  302.461
  302.409
  302.34
  302.26
  302.182
  302.115
  302.066
  302.036
  302.018
  302.004
  301.988
  301.971
  301.954
  301.938
  301.925
  301.919
  301.92
  301.928
  301.942
  301.962
  301.986
  302.015
  302.047
  302.081
  302.109
  302.104
  301.926
  301.869
  303.413
  302.498
  302.313
  302.237
  302.253
  302.312
  302.383
  302.459
  302.538
  302.596
  302.63
  302.64
  302.625
  302.586
  302.526
  302.453
  302.375
  302.304
  302.245
  302.2
  302.167
  302.139
  302.113
  302.087
  302.06
  302.033
  302.011
  301.996
  301.993
  302.004
  302.028
  302.06
  302.097
  302.135
  302.171
  302.201
  302.219
  302.216
  302.165
  301.896
  303.652
  302.941
  302.769
  302.605
  302.497
  302.474
  302.508
  302.567
  302.646
  302.702
  302.738
  302.756
  302.758
  302.74
  302.701
  302.641
  302.569
  302.499
  302.434
  302.379
  302.334
  302.295
  302.26
  302.226
  302.191
  302.154
  302.118
  302.087
  302.068
  302.067
  302.085
  302.117
  302.156
  302.195
  302.232
  302.264
  302.293
  302.319
  302.344
  302.368
  303.981
  303.683
  303.556
  303.341
  303.125
  302.985
  302.908
  302.876
  302.857
  302.854
  302.858
  302.864
  302.865
  302.858
  302.837
  302.801
  302.75
  302.69
  302.628
  302.569
  302.516
  302.469
  302.426
  302.385
  302.345
  302.303
  302.259
  302.214
  302.173
  302.145
  302.131
  302.131
  302.143
  302.161
  302.18
  302.202
  302.234
  302.275
  302.329
  302.465
  304.014
  303.464
  303.268
  303.156
  303.089
  303.05
  303.028
  303.011
  302.999
  302.989
  302.978
  302.966
  302.948
  302.924
  302.892
  302.85
  302.802
  302.751
  302.699
  302.649
  302.602
  302.556
  302.512
  302.467
  302.421
  302.373
  302.324
  302.278
  302.238
  302.207
  302.189
  302.182
  302.181
  302.185
  302.196
  302.215
  302.244
  302.308
  303.862
  303.493
  303.348
  303.259
  303.203
  303.167
  303.143
  303.125
  303.109
  303.093
  303.078
  303.061
  303.043
  303.022
  302.998
  302.97
  302.937
  302.9
  302.86
  302.817
  302.773
  302.729
  302.685
  302.641
  302.595
  302.547
  302.498
  302.446
  302.393
  302.345
  302.305
  302.275
  302.255
  302.243
  302.241
  302.247
  302.265
  302.324
  303.849
  303.811
  303.823
  303.534
  303.415
  303.343
  303.296
  303.263
  303.239
  303.218
  303.199
  303.18
  303.162
  303.143
  303.124
  303.104
  303.083
  303.062
  303.039
  303.015
  302.989
  302.962
  302.933
  302.902
  302.869
  302.834
  302.797
  302.758
  302.717
  302.671
  302.621
  302.569
  302.517
  302.47
  302.431
  302.401
  302.377
  302.355
  302.337
  302.359
)
;

boundaryField
{
  floor
  {
    type wallHeatTransfer;
    Tinf uniform 305.2;
    alphaWall uniform 0.24;
    value nonuniform List<scalar> 29
(
  302.224
  302.096
  302.022
  302.015
  302.096
  302.234
  302.319
  302.366
  302.357
  302.382
  302.411
  302.432
  302.447
  302.458
  302.416
  302.243
  302.078
  302
  301.992
  302.051
  302.051
  301.968
  301.94
  301.987
  302.224
  302.096
  302.028
  301.934
  302.07
)
;
  }
  ceiling
  {
    type wallHeatTransfer;
    Tinf uniform 303.2;
    alphaWall uniform 0.24;
    value nonuniform List<scalar> 43
(
  303.814
  303.782
  303.798
  303.52
  303.405
  303.335
  303.29
  303.259
  303.236
  303.217
  303.199
  303.182
  303.165
  303.148
  303.131
  303.113
  303.095
  303.077
  303.057
  303.036
  303.014
  302.991
  302.965
  302.938
  302.909
  302.879
  302.846
  302.81
  302.772
  302.73
  302.683
  302.632
  302.583
  302.538
  302.501
  302.473
  302.452
  302.434
  302.418
  302.442
  303.948
  303.665
  303.839
)
;
  }
  sWall
  {
    type wallHeatTransfer;
    Tinf uniform 315.2;
    alphaWall uniform 0.36;
    value uniform 304.755;
  }
  nWall
  {
    type wallHeatTransfer;
    Tinf uniform 307.2;
    alphaWall uniform 0.36;
    value nonuniform List<scalar> 6
(
  302.561
  302.555
  302.594
  302.841
  302.906
  303.045
)
;
  }
  sideWalls
  {
    type empty;
  }
  glass1
  {
    type wallHeatTransfer;
    Tinf uniform 315.2;
    alphaWall uniform 4.3;
    value nonuniform List<scalar> 9
(
  311.859
  310.621
  309.897
  309.405
  309.065
  308.814
  308.621
  308.711
  308.985
)
;
  }
  glass2
  {
    type wallHeatTransfer;
    Tinf uniform 307.2;
    alphaWall uniform 4.3;
    value nonuniform List<scalar> 2
(
  305.314
  305.265
)
;
  }
  sun
  {
    type wallHeatTransfer;
    Tinf uniform 305.2;
    alphaWall uniform 0.24;
    value nonuniform List<scalar> 14
(
  302.568
  302.241
  302.284
  302.282
  302.278
  302.274
  302.269
  302.265
  302.26
  302.254
  302.248
  302.241
  302.233
  302.226
)
;
  }
  heatsource1
  {
    type fixedGradient;
    gradient uniform 0;
  }
  heatsource2
  {
    type fixedGradient;
    gradient uniform 0;
  }
  Table_master
  {
    type zeroGradient;
  }
  Table_slave
  {
    type zeroGradient;
  }
  inlet
  {
    type fixedValue;
    value uniform 291.15;
  }
  outlet
  {
    type zeroGradient;
  }
} 	// ************************************************************************* //

