/*--------------------------------*- C++ -*----------------------------------*\
  =========                 |
  \\      /  F ield         | OpenFOAM: The Open Source CFD Toolbox
   \\    /   O peration     | Website:  https://openfoam.org
    \\  /    A nd           | Version:  6
     \\/     M anipulation  |
\*---------------------------------------------------------------------------*/
FoamFile
{
    version     2.0;
    format      ascii;
    class       volScalarField;
    location    "100";
    object      T;
}
// * * * * * * * * * * * * * * * * * * * * * * * * * * * * * * * * * * * * * //

dimensions      [0 0 0 1 0 0 0];

internalField   nonuniform List<scalar> 
459
(
306.542
306.382
306.322
306.29
306.268
306.254
306.244
306.236
306.229
306.222
306.215
306.207
306.2
306.192
306.181
304.766
304.762
304.765
304.769
304.771
304.769
304.764
304.76
304.757
304.754
304.753
304.751
304.751
304.751
304.751
304.751
304.752
304.752
304.758
306.459
306.229
306.132
306.082
306.052
306.034
306.026
306.024
306.026
306.033
306.044
306.06
306.08
306.107
306.136
306.128
306.11
304.764
304.766
304.772
304.779
304.782
304.776
304.761
304.751
304.746
304.744
304.742
304.741
304.74
304.74
304.74
304.74
304.741
304.743
304.753
306.393
306.061
305.941
305.885
305.853
305.834
305.825
305.828
305.84
305.862
305.892
305.93
305.974
306.024
306.074
306.093
306.092
304.781
304.781
304.788
304.796
304.799
304.793
304.749
304.74
304.738
304.737
304.737
304.736
304.736
304.736
304.736
304.757
304.751
304.749
304.752
306.33
305.913
305.802
305.757
305.732
305.716
305.705
305.705
305.719
305.748
305.788
305.839
305.898
305.963
306.027
306.064
306.067
305.541
304.851
304.808
304.812
304.82
304.826
304.827
304.827
304.827
304.828
304.829
304.83
304.831
304.832
304.832
304.83
304.822
304.809
304.791
304.775
306.263
305.805
305.732
305.706
305.692
305.678
305.664
305.656
305.665
305.692
305.735
305.791
305.857
305.929
306.001
306.045
306.039
305.491
304.9
304.837
304.839
304.848
304.856
304.859
304.858
304.856
304.854
304.852
304.85
304.85
304.851
304.851
304.849
304.843
304.83
304.812
304.792
304.788
304.811
304.846
306.187
305.745
305.714
305.702
305.696
305.683
305.666
305.652
305.655
305.68
305.724
305.781
305.849
305.922
305.992
306.028
305.966
305.4
304.924
304.863
304.868
304.88
304.89
304.894
304.892
304.886
304.879
304.871
304.865
304.862
304.863
304.864
304.862
304.857
304.844
304.828
304.81
304.799
304.801
304.814
306.095
305.731
305.719
305.721
305.72
305.711
305.699
305.69
305.694
305.715
305.753
305.804
305.865
305.928
305.982
305.989
305.856
305.309
304.941
304.891
304.902
304.92
304.934
304.939
304.935
304.924
304.909
304.892
304.878
304.871
304.87
304.872
304.872
304.868
304.858
304.841
304.825
304.813
304.808
304.818
306.004
305.722
305.726
305.752
305.757
305.755
305.751
305.75
305.755
305.772
305.801
305.84
305.886
305.93
305.957
305.922
305.733
305.24
304.962
304.925
304.941
304.966
304.987
304.994
304.99
304.974
304.949
304.92
304.894
304.879
304.875
304.877
304.879
304.879
304.873
304.86
304.842
304.834
304.833
304.897
305.921
305.709
305.706
305.768
305.783
305.791
305.797
305.802
305.81
305.822
305.841
305.866
305.893
305.914
305.909
305.839
305.627
305.208
304.999
304.971
304.989
305.021
305.043
305.053
305.051
305.034
305.003
304.962
304.919
304.889
304.878
304.88
304.886
304.892
304.897
304.902
304.907
304.916
304.927
304.957
305.637
305.755
305.782
305.798
305.811
305.822
305.832
305.841
305.852
305.864
305.873
305.872
305.846
305.763
305.569
305.228
305.079
305.055
305.066
305.087
305.103
305.11
305.108
305.095
305.067
305.023
304.962
304.911
304.882
304.876
304.881
304.889
304.896
304.902
304.908
304.914
304.919
304.92
305.662
305.74
305.763
305.78
305.793
305.804
305.813
305.819
305.824
305.827
305.824
305.812
305.78
305.709
305.553
305.32
305.234
305.2
305.188
305.183
305.18
305.175
305.167
305.151
305.125
305.084
305.026
304.959
304.899
304.871
304.868
304.876
304.884
304.892
304.898
304.903
304.895
304.906
307.404
306.961
305.771
305.721
305.73
305.737
305.742
305.747
305.752
305.756
305.759
305.758
305.754
305.743
305.723
305.684
305.549
305.459
305.409
305.374
305.346
305.319
305.293
305.269
305.245
305.219
305.191
305.153
305.102
305.032
304.95
304.879
304.844
304.841
304.852
304.863
304.87
304.871
304.869
304.895
)
;

boundaryField
{
    floor
    {
        type            wallHeatTransfer;
        Tinf            uniform 305.2;
        alphaWall       uniform 0.24;
        value           nonuniform List<scalar> 
29
(
306.105
304.871
304.851
304.847
304.847
304.849
304.85
304.851
304.853
304.855
304.859
304.863
304.868
304.874
304.881
304.888
304.895
304.9
304.894
304.904
304.904
304.878
304.86
304.85
306.105
304.871
304.85
304.847
305.506
)
;
    }
    ceiling
    {
        type            wallHeatTransfer;
        Tinf            uniform 303.2;
        alphaWall       uniform 0.24;
        value           nonuniform List<scalar> 
43
(
307.064
306.648
305.568
305.464
305.476
305.484
305.492
305.498
305.504
305.509
305.513
305.514
305.511
305.502
305.484
305.448
305.321
305.233
305.183
305.151
305.127
305.108
305.09
305.072
305.053
305.032
305.007
304.973
304.926
304.861
304.784
304.718
304.687
304.684
304.694
304.701
304.702
304.695
304.69
304.707
305.817
305.621
305.537
)
;
    }
    sWall
    {
        type            wallHeatTransfer;
        Tinf            uniform 315.2;
        alphaWall       uniform 0.36;
        value           uniform 308.315;
    }
    nWall
    {
        type            wallHeatTransfer;
        Tinf            uniform 307.2;
        alphaWall       uniform 0.36;
        value           nonuniform List<scalar> 6(305.32 305.274 305.216 305.236 305.205 305.259);
    }
    sideWalls
    {
        type            empty;
    }
    glass1
    {
        type            wallHeatTransfer;
        Tinf            uniform 315.2;
        alphaWall       uniform 4.3;
        value           nonuniform List<scalar> 9(311.019 310.755 310.604 310.492 310.392 310.29 310.169 310.021 309.814);
    }
    glass2
    {
        type            wallHeatTransfer;
        Tinf            uniform 307.2;
        alphaWall       uniform 4.3;
        value           nonuniform List<scalar> 2(306.427 306.441);
    }
    sun
    {
        type            wallHeatTransfer;
        Tinf            uniform 305.2;
        alphaWall       uniform 0.24;
        value           nonuniform List<scalar> 
14
(
306.467
306.315
306.256
306.224
306.203
306.188
306.178
306.169
306.161
306.154
306.146
306.137
306.129
306.119
)
;
    }
    heatsource1
    {
        type            fixedGradient;
        gradient        uniform 0;
    }
    heatsource2
    {
        type            fixedGradient;
        gradient        uniform 0;
    }
    Table_master
    {
        type            zeroGradient;
    }
    Table_slave
    {
        type            zeroGradient;
    }
    inlet
    {
        type            fixedValue;
        value           uniform 290.15;
    }
    outlet
    {
        type            zeroGradient;
    }
}


// ************************************************************************* //
