/*--------------------------------*- C++ -*----------------------------------*\
  =========                 |
  \\      /  F ield         | OpenFOAM: The Open Source CFD Toolbox
   \\    /   O peration     | Website:  https://openfoam.org
    \\  /    A nd           | Version:  6
     \\/     M anipulation  |
\*---------------------------------------------------------------------------*/
FoamFile
{
    version     2.0;
    format      ascii;
    class       volVectorField;
    location    "100";
    object      U;
}
// * * * * * * * * * * * * * * * * * * * * * * * * * * * * * * * * * * * * * //

dimensions      [0 1 -1 0 0 0 0];

internalField   nonuniform List<vector> 
459
(
(0.132322 0.198118 0)
(0.226825 -0.189937 0)
(0.371656 -0.14518 0)
(0.494286 -0.0980418 0)
(0.56532 -0.0689601 0)
(0.598914 -0.0505944 0)
(0.613003 -0.0371356 0)
(0.614691 -0.0261449 0)
(0.604386 -0.015941 0)
(0.58189 -0.005666 0)
(0.546135 0.00557301 0)
(0.495054 0.0191231 0)
(0.424431 0.0381316 0)
(0.320798 0.0737438 0)
(0.237771 0.169557 0)
(0.017186 0.00618889 0)
(-0.012641 -0.00203978 0)
(-0.00342381 -0.00791327 0)
(0.00854632 -0.0129523 0)
(0.0214971 -0.0144503 0)
(0.0327851 -0.0108 0)
(0.0409979 -0.00582018 0)
(0.0413606 -0.0034251 0)
(0.0390314 -0.00199214 0)
(0.03646 -0.000996951 0)
(0.0340145 -0.000348673 0)
(0.0316936 5.52637e-05 0)
(0.0295141 0.00031789 0)
(0.0274748 0.000511204 0)
(0.025469 0.000726939 0)
(0.0234728 0.000829956 0)
(0.0216424 0.000765598 0)
(0.0234818 0.000775899 0)
(-0.0132368 0.011561 0)
(0.548805 -0.307038 0)
(0.315479 -0.300209 0)
(0.396217 -0.18961 0)
(0.471488 -0.10193 0)
(0.505766 -0.0526785 0)
(0.520645 -0.0230156 0)
(0.527954 -0.000489039 0)
(0.528249 0.0190996 0)
(0.518663 0.0366608 0)
(0.498742 0.0537978 0)
(0.467691 0.0720332 0)
(0.424987 0.0931403 0)
(0.372003 0.119955 0)
(0.313139 0.158221 0)
(0.277898 0.227061 0)
(0.248629 0.198745 0)
(0.131357 0.147247 0)
(0.0441872 0.0136227 0)
(-0.0113792 0.000431418 0)
(-0.00831523 -0.00882421 0)
(-0.00466327 -0.0161042 0)
(0.00240861 -0.0208067 0)
(0.00807756 -0.016618 0)
(0.0219144 -0.00282239 0)
(0.0203384 0.000944315 0)
(0.0182332 0.00328754 0)
(0.0171341 0.0044009 0)
(0.0166265 0.00462222 0)
(0.016436 0.00443043 0)
(0.0164224 0.00415014 0)
(0.0165198 0.00390528 0)
(0.0163605 0.00380525 0)
(0.0159821 0.00332169 0)
(0.0147418 0.00273221 0)
(0.0231952 0.00289263 0)
(-0.0506915 0.022895 0)
(0.582168 -0.507474 0)
(0.133603 -0.380938 0)
(0.263038 -0.220667 0)
(0.324293 -0.126046 0)
(0.337173 -0.0779687 0)
(0.344995 -0.0474641 0)
(0.353007 -0.022583 0)
(0.359914 0.00185063 0)
(0.360877 0.0283271 0)
(0.354559 0.0573067 0)
(0.3399 0.0890767 0)
(0.316514 0.123907 0)
(0.285716 0.162135 0)
(0.248956 0.203671 0)
(0.218017 0.248158 0)
(0.174255 0.215615 0)
(0.108381 0.191087 0)
(0.018734 0.0220966 0)
(-0.0244286 0.00232179 0)
(-0.0245159 -0.00805496 0)
(-0.0253208 -0.0182964 0)
(-0.0255132 -0.0269655 0)
(-0.02919 -0.0316635 0)
(0.0126653 -0.0055651 0)
(-0.00481358 -0.00215881 0)
(-0.00547988 -0.00102764 0)
(-0.00315187 -0.00111265 0)
(-0.000251262 -0.00176513 0)
(0.00236887 -0.00244269 0)
(0.00465519 -0.00300956 0)
(0.00655357 -0.00337126 0)
(0.00728903 -0.00146243 0)
(0.0139836 0.00344992 0)
(0.0131306 0.0077696 0)
(0.0290807 0.010455 0)
(-0.0899916 0.0329428 0)
(0.600914 -0.649184 0)
(-0.0450423 -0.425275 0)
(0.161962 -0.23606 0)
(0.196508 -0.138803 0)
(0.186058 -0.0898387 0)
(0.190774 -0.0548741 0)
(0.199873 -0.0258749 0)
(0.209047 0.0027019 0)
(0.215976 0.0335437 0)
(0.217752 0.0677098 0)
(0.213636 0.105469 0)
(0.203031 0.146338 0)
(0.186162 0.189144 0)
(0.162307 0.23185 0)
(0.140259 0.272258 0)
(0.111402 0.265073 0)
(0.0885622 0.250637 0)
(0.00950099 0.143688 0)
(-0.0571619 0.0264673 0)
(-0.0475943 0.00653882 0)
(-0.0465457 -0.00517324 0)
(-0.0514788 -0.0154481 0)
(-0.0594477 -0.024207 0)
(-0.0686676 -0.0278711 0)
(-0.0649847 -0.0183727 0)
(-0.0463199 -0.0171418 0)
(-0.027676 -0.0182856 0)
(-0.00694863 -0.0189564 0)
(0.0144098 -0.0180557 0)
(0.0330684 -0.0165364 0)
(0.0509264 -0.0145357 0)
(0.0660552 -0.0112399 0)
(0.0761299 -0.00649127 0)
(0.0760369 0.00144206 0)
(0.0626429 0.014058 0)
(0.0567859 0.0268391 0)
(-0.0524395 0.0486337 0)
(0.592907 -0.721301 0)
(-0.165385 -0.453092 0)
(0.102934 -0.250582 0)
(0.0943019 -0.136985 0)
(0.0597209 -0.0939549 0)
(0.0699118 -0.0620625 0)
(0.0805299 -0.0347345 0)
(0.0877404 -0.00588165 0)
(0.0962524 0.0280101 0)
(0.100122 0.0668946 0)
(0.100247 0.110179 0)
(0.0961694 0.156429 0)
(0.0878893 0.203793 0)
(0.0742415 0.250066 0)
(0.0632309 0.29304 0)
(0.0440875 0.29884 0)
(0.036535 0.282884 0)
(-0.018201 0.143039 0)
(-0.042801 0.0350819 0)
(-0.0464452 0.0129008 0)
(-0.0535738 0.000576263 0)
(-0.0589816 -0.0096732 0)
(-0.0633595 -0.0187061 0)
(-0.0651083 -0.0239159 0)
(-0.0602737 -0.0231314 0)
(-0.0490653 -0.0253058 0)
(-0.0351038 -0.0281785 0)
(-0.019551 -0.0302639 0)
(-0.00212123 -0.0304027 0)
(0.0156627 -0.0286915 0)
(0.0322724 -0.0254754 0)
(0.0476333 -0.0191879 0)
(0.0604279 -0.00781492 0)
(0.0684128 0.00810835 0)
(0.0676397 0.0260568 0)
(0.07094 0.0443111 0)
(0.0332893 0.0613149 0)
(0.0701969 0.0558026 0)
(-0.0117885 -0.00514166 0)
(-0.254563 -0.0348311 0)
(0.540598 -0.734923 0)
(-0.215773 -0.463033 0)
(0.0406414 -0.245165 0)
(0.00296994 -0.104294 0)
(-0.0433642 -0.0933604 0)
(-0.0276602 -0.0700195 0)
(-0.0203422 -0.0445677 0)
(-0.0147074 -0.0147128 0)
(-0.00890928 0.0215315 0)
(-0.00657118 0.0638934 0)
(-0.00467357 0.110722 0)
(-0.00428993 0.160413 0)
(-0.00556468 0.211091 0)
(-0.0100402 0.2603 0)
(-0.0102843 0.304135 0)
(-0.0196448 0.313658 0)
(-0.0134183 0.291516 0)
(-0.039719 0.155568 0)
(-0.0392054 0.0533826 0)
(-0.0460438 0.0220663 0)
(-0.0535191 0.00621014 0)
(-0.0579782 -0.0062976 0)
(-0.0603225 -0.0173029 0)
(-0.0603553 -0.0256135 0)
(-0.0567213 -0.0310069 0)
(-0.0494912 -0.036249 0)
(-0.0398822 -0.0409846 0)
(-0.0287073 -0.0442857 0)
(-0.0164495 -0.0455926 0)
(-0.00313163 -0.0449035 0)
(0.0108998 -0.0419481 0)
(0.0248195 -0.0353796 0)
(0.0392666 -0.0221557 0)
(0.0543595 -0.000395362 0)
(0.0643611 0.0241668 0)
(0.0741384 0.0464497 0)
(0.0716754 0.0590166 0)
(0.0906714 0.0584588 0)
(0.099957 0.0467999 0)
(-0.0806271 0.0228675 0)
(0.42322 -0.672885 0)
(-0.217896 -0.424744 0)
(-0.082198 -0.214917 0)
(-0.082285 -0.0744352 0)
(-0.142382 -0.0913801 0)
(-0.128105 -0.0754906 0)
(-0.122621 -0.0500657 0)
(-0.117464 -0.0176809 0)
(-0.112497 0.0201954 0)
(-0.10898 0.0627001 0)
(-0.104265 0.109223 0)
(-0.0986061 0.158812 0)
(-0.0921517 0.209769 0)
(-0.0855984 0.259118 0)
(-0.0746909 0.300595 0)
(-0.0689722 0.311614 0)
(-0.0500947 0.284021 0)
(-0.0529396 0.157995 0)
(-0.0423346 0.0630243 0)
(-0.0453937 0.0281023 0)
(-0.0484169 0.00989776 0)
(-0.0500281 -0.00432678 0)
(-0.050513 -0.0168148 0)
(-0.0503329 -0.0270893 0)
(-0.0488051 -0.0354925 0)
(-0.0456632 -0.0430232 0)
(-0.0410798 -0.0494344 0)
(-0.0353233 -0.0538634 0)
(-0.0287877 -0.0559792 0)
(-0.0217215 -0.0561762 0)
(-0.0140985 -0.0546607 0)
(-0.0054678 -0.0504585 0)
(0.00597938 -0.0399577 0)
(0.0211666 -0.0200843 0)
(0.0434158 0.0101093 0)
(0.060024 0.0345139 0)
(0.0727628 0.0454361 0)
(0.0933514 0.0450535 0)
(0.126241 0.0497139 0)
(-0.0414256 0.0944892 0)
(0.246278 -0.52696 0)
(-0.329718 -0.336942 0)
(-0.314967 -0.205005 0)
(-0.189801 -0.0573476 0)
(-0.264015 -0.103418 0)
(-0.234067 -0.0877111 0)
(-0.223905 -0.0585194 0)
(-0.216954 -0.0230193 0)
(-0.210268 0.0163419 0)
(-0.203719 0.0582016 0)
(-0.194743 0.10284 0)
(-0.182484 0.150112 0)
(-0.166685 0.198723 0)
(-0.147465 0.245565 0)
(-0.123458 0.283529 0)
(-0.100884 0.294146 0)
(-0.0706589 0.262525 0)
(-0.0559839 0.14701 0)
(-0.0397859 0.0621338 0)
(-0.0374079 0.0284264 0)
(-0.0352717 0.0101994 0)
(-0.0326382 -0.00399264 0)
(-0.0311676 -0.0161048 0)
(-0.031275 -0.0260801 0)
(-0.032433 -0.0347612 0)
(-0.0340205 -0.0429108 0)
(-0.0355189 -0.0501533 0)
(-0.0366367 -0.0552371 0)
(-0.0375095 -0.0576776 0)
(-0.0385177 -0.058158 0)
(-0.0398365 -0.0573604 0)
(-0.0411574 -0.0550852 0)
(-0.0411702 -0.0498964 0)
(-0.0372191 -0.0401402 0)
(-0.0242121 -0.0250847 0)
(0.00953421 -0.00339368 0)
(0.0226748 0.00428677 0)
(0.0419362 0.00138635 0)
(0.103046 0.0515444 0)
(-0.365017 0.18705 0)
(-0.0126207 -0.386378 0)
(-0.659943 -0.341259 0)
(-0.863201 -0.335509 0)
(-0.247102 -0.180888 0)
(-0.367892 -0.145167 0)
(-0.315304 -0.106673 0)
(-0.303425 -0.0682101 0)
(-0.298458 -0.030797 0)
(-0.293109 0.00754718 0)
(-0.284336 0.0478261 0)
(-0.270726 0.0892235 0)
(-0.251006 0.132161 0)
(-0.224661 0.175938 0)
(-0.191791 0.217918 0)
(-0.153101 0.25146 0)
(-0.113848 0.261198 0)
(-0.0728307 0.229634 0)
(-0.0443893 0.127165 0)
(-0.0225118 0.0541706 0)
(-0.0155333 0.0244649 0)
(-0.0096696 0.00838492 0)
(-0.00289531 -0.00383962 0)
(-0.000601766 -0.0134636 0)
(-0.00165951 -0.0212166 0)
(-0.0056735 -0.028467 0)
(-0.0120416 -0.036104 0)
(-0.0200655 -0.0436356 0)
(-0.0289971 -0.049004 0)
(-0.0382919 -0.0509684 0)
(-0.048556 -0.0499481 0)
(-0.0608572 -0.046544 0)
(-0.0766457 -0.0406418 0)
(-0.0974005 -0.0309807 0)
(-0.12359 -0.0156653 0)
(-0.152352 0.00613997 0)
(-0.179936 0.031428 0)
(-0.208911 0.0543186 0)
(-0.245418 0.0724185 0)
(-0.300952 0.0842574 0)
(-0.530693 0.086841 0)
(-1.82385 -0.364407 0)
(-0.13481 -0.298684 0)
(-0.361518 -0.176351 0)
(-0.345941 -0.10962 0)
(-0.350782 -0.0589465 0)
(-0.354614 -0.0175433 0)
(-0.352961 0.0173409 0)
(-0.343993 0.0471727 0)
(-0.32693 0.0780152 0)
(-0.300357 0.110438 0)
(-0.263697 0.144029 0)
(-0.217317 0.17692 0)
(-0.16337 0.20398 0)
(-0.107738 0.213221 0)
(-0.054535 0.187504 0)
(-0.0103522 0.09955 0)
(0.0191926 0.039323 0)
(0.0279938 0.0171342 0)
(0.0355412 0.0031277 0)
(0.0396 -0.00830398 0)
(0.0391821 -0.0159769 0)
(0.0354651 -0.021664 0)
(0.028865 -0.0270949 0)
(0.0194185 -0.0333959 0)
(0.00686399 -0.0406744 0)
(-0.00864823 -0.0465601 0)
(-0.0239791 -0.0480805 0)
(-0.0388908 -0.0449776 0)
(-0.0532435 -0.0375213 0)
(-0.0672463 -0.026256 0)
(-0.0805 -0.0120727 0)
(-0.0925712 0.00339471 0)
(-0.10258 0.0192816 0)
(-0.11092 0.0389624 0)
(-0.1124 0.056244 0)
(-0.0967722 0.0533635 0)
(-0.0584911 -0.00707428 0)
(-0.215372 -0.175839 0)
(-0.184845 0.0879065 0)
(-0.0894668 -0.264326 0)
(-0.278537 -0.167105 0)
(-0.337287 -0.127206 0)
(-0.37434 -0.100522 0)
(-0.393867 -0.0762415 0)
(-0.398764 -0.049824 0)
(-0.389962 -0.0184075 0)
(-0.369515 0.010937 0)
(-0.336217 0.0394029 0)
(-0.289472 0.0678799 0)
(-0.229718 0.0961602 0)
(-0.159991 0.121665 0)
(-0.0871442 0.135703 0)
(-0.0133152 0.11702 0)
(0.0519429 0.0336774 0)
(0.0822914 -0.0176369 0)
(0.0922657 -0.049464 0)
(0.093765 -0.067093 0)
(0.0893914 -0.0733922 0)
(0.081811 -0.0740628 0)
(0.0726243 -0.0723923 0)
(0.0623999 -0.0701414 0)
(0.0509522 -0.0680964 0)
(0.0377689 -0.0663673 0)
(0.0226548 -0.064389 0)
(0.00619298 -0.0616083 0)
(-0.00956924 -0.0584959 0)
(-0.0227405 -0.0563744 0)
(-0.0343616 -0.0558032 0)
(-0.0433608 -0.0539515 0)
(-0.0465292 -0.0405381 0)
(-0.0437939 -0.0196535 0)
(-0.0337303 0.00118022 0)
(-0.0184027 0.0166425 0)
(0.0149693 0.00641569 0)
(0.126542 -0.0445856 0)
(-0.153668 -0.0954427 0)
(0.708464 0.202729 0)
(0.1212 -0.287375 0)
(-0.221967 0.151526 0)
(-0.123413 0.04485 0)
(-0.261551 0.0846992 0)
(-0.329883 0.107988 0)
(-0.376115 0.120564 0)
(-0.403436 0.126823 0)
(-0.414191 0.128558 0)
(-0.408426 0.126917 0)
(-0.386373 0.128774 0)
(-0.347888 0.13402 0)
(-0.292413 0.142393 0)
(-0.220599 0.153871 0)
(-0.137315 0.168035 0)
(-0.0521337 0.182178 0)
(0.0594184 0.176818 0)
(0.116119 0.169252 0)
(0.143895 0.175234 0)
(0.151374 0.187327 0)
(0.148071 0.195539 0)
(0.140653 0.196813 0)
(0.132007 0.19431 0)
(0.1225 0.190515 0)
(0.112066 0.186859 0)
(0.100626 0.183955 0)
(0.0879809 0.181845 0)
(0.0738449 0.180157 0)
(0.0578945 0.177571 0)
(0.0402661 0.173136 0)
(0.0223415 0.172511 0)
(0.00857453 0.182804 0)
(0.00353729 0.19804 0)
(0.00389187 0.19242 0)
(0.0114856 0.178448 0)
(0.0274778 0.16808 0)
(0.0464473 0.164673 0)
(0.066204 0.167278 0)
(0.143518 0.155593 0)
(-0.289758 0.142476 0)
)
;

boundaryField
{
    floor
    {
        type            noSlip;
    }
    ceiling
    {
        type            noSlip;
    }
    sWall
    {
        type            noSlip;
    }
    nWall
    {
        type            noSlip;
    }
    sideWalls
    {
        type            empty;
    }
    glass1
    {
        type            noSlip;
    }
    glass2
    {
        type            noSlip;
    }
    sun
    {
        type            noSlip;
    }
    heatsource1
    {
        type            noSlip;
    }
    heatsource2
    {
        type            noSlip;
    }
    Table_master
    {
        type            noSlip;
    }
    Table_slave
    {
        type            noSlip;
    }
    inlet
    {
        type            fixedValue;
        value           uniform (0.1 0 0);
    }
    outlet
    {
        type            zeroGradient;
    }
}


// ************************************************************************* //
