/*--------------------------------*- C++ -*----------------------------------*\
  =========                 |
  \\      /  F ield         | OpenFOAM: The Open Source CFD Toolbox
   \\    /   O peration     | Website:  https://openfoam.org
    \\  /    A nd           | Version:  6
     \\/     M anipulation  |
\*---------------------------------------------------------------------------*/
FoamFile
{
    version     2.0;
    format      ascii;
    class       volVectorField;
    location    "100";
    object      U;
}
// * * * * * * * * * * * * * * * * * * * * * * * * * * * * * * * * * * * * * //

dimensions      [0 1 -1 0 0 0 0];

internalField   nonuniform List<vector> 
459
(
(0.375754 -0.162618 0)
(0.286601 -0.161689 0)
(0.43269 -0.108815 0)
(0.545985 -0.0718547 0)
(0.599179 -0.0504978 0)
(0.620332 -0.036415 0)
(0.628652 -0.025544 0)
(0.627455 -0.0162896 0)
(0.615643 -0.00761834 0)
(0.592515 0.00127888 0)
(0.556838 0.0113175 0)
(0.506155 0.0239207 0)
(0.435545 0.0423919 0)
(0.330448 0.0782249 0)
(0.245902 0.176132 0)
(0.0171358 0.00425242 0)
(-0.00647064 -0.000269766 0)
(0.00061972 -0.00560007 0)
(0.0095541 -0.0101214 0)
(0.0187853 -0.0110344 0)
(0.0267531 -0.00795356 0)
(0.0315781 -0.00454683 0)
(0.0301301 -0.00269358 0)
(0.0270731 -0.00136311 0)
(0.0240883 -0.000316678 0)
(0.0212647 0.000436149 0)
(0.0185632 0.000920384 0)
(0.0160408 0.00117942 0)
(0.0137327 0.00127043 0)
(0.0115072 0.00128607 0)
(0.00992002 0.000534466 0)
(0.0099424 -0.00061407 0)
(0.0147443 -0.00121499 0)
(-0.014295 0.00675474 0)
(0.497705 -0.352143 0)
(0.229182 -0.273744 0)
(0.357397 -0.152193 0)
(0.447768 -0.0790299 0)
(0.482799 -0.0416959 0)
(0.496812 -0.0180717 0)
(0.504691 0.00109949 0)
(0.506531 0.017962 0)
(0.499202 0.033491 0)
(0.482073 0.0493416 0)
(0.454444 0.0671202 0)
(0.415696 0.0887266 0)
(0.366928 0.117216 0)
(0.312077 0.158623 0)
(0.281402 0.232418 0)
(0.252688 0.203176 0)
(0.133934 0.150424 0)
(0.0286664 0.00795111 0)
(-0.00915565 0.000583029 0)
(-0.0079994 -0.00650747 0)
(-0.00595867 -0.0122666 0)
(-0.00215719 -0.0150031 0)
(0.00282675 -0.0101884 0)
(0.0129286 0.000515876 0)
(0.00998471 0.00285779 0)
(0.00790858 0.00434165 0)
(0.00718817 0.00487642 0)
(0.00699151 0.00478548 0)
(0.0070052 0.00446008 0)
(0.00715214 0.00414601 0)
(0.00730187 0.00398733 0)
(0.00644389 0.00423143 0)
(0.00610036 0.0019072 0)
(0.00624309 -0.000576091 0)
(0.0147919 -0.000618778 0)
(-0.0482051 0.0127632 0)
(0.545919 -0.541251 0)
(0.0849837 -0.371432 0)
(0.242194 -0.202992 0)
(0.311364 -0.115914 0)
(0.327204 -0.0733515 0)
(0.335902 -0.0445893 0)
(0.344394 -0.0202263 0)
(0.351248 0.00326969 0)
(0.351584 0.0279771 0)
(0.344768 0.0549243 0)
(0.330283 0.0849783 0)
(0.308027 0.118971 0)
(0.279333 0.157786 0)
(0.245249 0.201719 0)
(0.217915 0.250399 0)
(0.175542 0.218011 0)
(0.109636 0.193472 0)
(-0.00258683 0.0189479 0)
(-0.0252084 0.00272671 0)
(-0.0273116 -0.0055202 0)
(-0.0295121 -0.0132871 0)
(-0.0312036 -0.0189317 0)
(-0.0314232 -0.0197813 0)
(-0.00063895 -0.00054701 0)
(-0.0115356 -0.00148582 0)
(-0.0102405 -0.0013143 0)
(-0.00748581 -0.00173936 0)
(-0.00447281 -0.00261515 0)
(-0.00164028 -0.00351493 0)
(0.000831958 -0.00427567 0)
(0.0028094 -0.00466015 0)
(0.00115483 -0.00174775 0)
(0.0187633 -0.00114188 0)
(0.0143671 0.00642415 0)
(0.0223455 0.0105291 0)
(-0.0732673 0.0161058 0)
(0.56706 -0.662477 0)
(-0.0564503 -0.422941 0)
(0.156607 -0.228944 0)
(0.193295 -0.132561 0)
(0.185407 -0.0852598 0)
(0.190407 -0.0513822 0)
(0.19909 -0.0232045 0)
(0.208283 0.00414394 0)
(0.213674 0.0331655 0)
(0.21412 0.0651433 0)
(0.209144 0.100785 0)
(0.198385 0.140241 0)
(0.182147 0.183032 0)
(0.159431 0.227668 0)
(0.13951 0.272097 0)
(0.11173 0.266852 0)
(0.0892141 0.253551 0)
(0.00888664 0.140301 0)
(-0.0628165 0.0247403 0)
(-0.0501781 0.00716641 0)
(-0.052259 -0.00190558 0)
(-0.0586261 -0.00973989 0)
(-0.0669929 -0.0161717 0)
(-0.0747198 -0.0188955 0)
(-0.0723573 -0.0132327 0)
(-0.0590801 -0.0131385 0)
(-0.044446 -0.0151338 0)
(-0.0278186 -0.0174268 0)
(-0.00796585 -0.019157 0)
(0.0143355 -0.0190561 0)
(0.0341871 -0.0177771 0)
(0.0534711 -0.0155471 0)
(0.0698905 -0.0121565 0)
(0.0764714 -0.00621949 0)
(0.0697609 0.00798097 0)
(0.059152 0.0233335 0)
(0.00225313 0.0419824 0)
(0.557005 -0.728295 0)
(-0.155541 -0.455363 0)
(0.100105 -0.246695 0)
(0.0936745 -0.131167 0)
(0.0605354 -0.0887209 0)
(0.0704316 -0.0579003 0)
(0.0807953 -0.0314244 0)
(0.0879329 -0.00343855 0)
(0.0962725 0.028885 0)
(0.0997056 0.0653174 0)
(0.09937 0.105933 0)
(0.0950188 0.150153 0)
(0.086785 0.196961 0)
(0.073375 0.244817 0)
(0.0634404 0.29172 0)
(0.04477 0.300394 0)
(0.0374537 0.286398 0)
(-0.017714 0.143883 0)
(-0.0436059 0.035996 0)
(-0.0481213 0.0152265 0)
(-0.0567106 0.00536639 0)
(-0.0628311 -0.00282694 0)
(-0.0674016 -0.00997613 0)
(-0.0695083 -0.0144993 0)
(-0.0664589 -0.0153361 0)
(-0.0583257 -0.0184474 0)
(-0.0472847 -0.0225592 0)
(-0.0340112 -0.026895 0)
(-0.0188387 -0.0304417 0)
(-0.00118593 -0.0319096 0)
(0.0172366 -0.0308861 0)
(0.0348466 -0.0274092 0)
(0.0510923 -0.019557 0)
(0.0638414 -0.00543891 0)
(0.0705557 0.0148272 0)
(0.0737799 0.0356951 0)
(0.0582332 0.0549025 0)
(0.0760523 0.0534222 0)
(0.0310426 0.022976 0)
(-0.266656 -0.0282301 0)
(0.503701 -0.741104 0)
(-0.20071 -0.466816 0)
(0.0377145 -0.240337 0)
(0.00326317 -0.0981361 0)
(-0.042851 -0.0882751 0)
(-0.0268364 -0.0658479 0)
(-0.0190566 -0.0411926 0)
(-0.0130406 -0.0122766 0)
(-0.00657527 0.0224072 0)
(-0.00410844 0.0623277 0)
(-0.00238663 0.106519 0)
(-0.00236763 0.154155 0)
(-0.00403816 0.204231 0)
(-0.00897546 0.25497 0)
(-0.00885075 0.302602 0)
(-0.0183441 0.315282 0)
(-0.0120019 0.295465 0)
(-0.0390981 0.157556 0)
(-0.0392087 0.0550014 0)
(-0.0462213 0.0250902 0)
(-0.0538714 0.0112755 0)
(-0.058534 0.000859537 0)
(-0.0610932 -0.00830193 0)
(-0.0615897 -0.0155822 0)
(-0.0592684 -0.0210977 0)
(-0.0541255 -0.0269513 0)
(-0.0467995 -0.033195 0)
(-0.0376454 -0.0392693 0)
(-0.0269697 -0.0442791 0)
(-0.0149963 -0.0472808 0)
(-0.00150866 -0.0478098 0)
(0.0128836 -0.0450504 0)
(0.0276325 -0.0369442 0)
(0.0431498 -0.019854 0)
(0.060075 0.00712869 0)
(0.0717069 0.0329863 0)
(0.0752734 0.0502417 0)
(0.0867744 0.0534098 0)
(0.095492 0.0510707 0)
(-0.0651302 0.0362259 0)
(0.388256 -0.678801 0)
(-0.208345 -0.428637 0)
(-0.0826366 -0.210333 0)
(-0.0814743 -0.0683774 0)
(-0.141425 -0.086977 0)
(-0.126135 -0.0720168 0)
(-0.119645 -0.0474718 0)
(-0.113621 -0.016212 0)
(-0.107796 0.0201429 0)
(-0.104066 0.0607123 0)
(-0.0995322 0.105159 0)
(-0.0944638 0.153132 0)
(-0.0888443 0.203702 0)
(-0.0831915 0.254502 0)
(-0.0725065 0.299281 0)
(-0.0672519 0.313421 0)
(-0.0483829 0.288151 0)
(-0.0520896 0.160356 0)
(-0.0415405 0.0647947 0)
(-0.044219 0.0311794 0)
(-0.0467869 0.014936 0)
(-0.0480789 0.00293198 0)
(-0.0482915 -0.00761656 0)
(-0.047891 -0.0165397 0)
(-0.0467142 -0.024243 0)
(-0.0446246 -0.0318373 0)
(-0.0416236 -0.0395951 0)
(-0.0376419 -0.0470694 0)
(-0.0327226 -0.0532712 0)
(-0.0270198 -0.0573148 0)
(-0.0206565 -0.0590875 0)
(-0.0134917 -0.0583611 0)
(-0.0048395 -0.0534393 0)
(0.00736342 -0.0396119 0)
(0.0254148 -0.0141792 0)
(0.0487485 0.0174833 0)
(0.0632842 0.0365536 0)
(0.0801028 0.0429178 0)
(0.112187 0.0535951 0)
(-0.046721 0.0965407 0)
(0.214261 -0.531435 0)
(-0.326769 -0.340006 0)
(-0.316255 -0.200859 0)
(-0.18915 -0.0502214 0)
(-0.26328 -0.100453 0)
(-0.231361 -0.0856905 0)
(-0.219686 -0.0571817 0)
(-0.211585 -0.0225084 0)
(-0.2041 0.0157395 0)
(-0.197437 0.0561385 0)
(-0.188802 0.0992254 0)
(-0.177356 0.145336 0)
(-0.162656 0.19378 0)
(-0.144524 0.241937 0)
(-0.121069 0.2827 0)
(-0.099023 0.29628 0)
(-0.0688605 0.266868 0)
(-0.0548462 0.149532 0)
(-0.0383429 0.0637475 0)
(-0.0355246 0.0310943 0)
(-0.0328405 0.0146569 0)
(-0.0299194 0.00251119 0)
(-0.0269564 -0.00782294 0)
(-0.0257225 -0.0162518 0)
(-0.0257702 -0.0236023 0)
(-0.0268795 -0.0310333 0)
(-0.0287034 -0.0389234 0)
(-0.0308379 -0.0468014 0)
(-0.0330963 -0.0534209 0)
(-0.03546 -0.0576385 0)
(-0.0382841 -0.0596801 0)
(-0.0415536 -0.059924 0)
(-0.0446632 -0.0578034 0)
(-0.0455957 -0.0514784 0)
(-0.0401197 -0.0393937 0)
(-0.0194487 -0.0218396 0)
(0.0076284 -0.00364147 0)
(0.026111 0.00401032 0)
(0.0906298 0.0575681 0)
(-0.357205 0.181663 0)
(-0.0425629 -0.388359 0)
(-0.665677 -0.342817 0)
(-0.875274 -0.335165 0)
(-0.245819 -0.178335 0)
(-0.368197 -0.144865 0)
(-0.312516 -0.10652 0)
(-0.298819 -0.0682582 0)
(-0.292652 -0.0313986 0)
(-0.286726 0.00615047 0)
(-0.277986 0.0456135 0)
(-0.264864 0.0860878 0)
(-0.246072 0.128353 0)
(-0.220897 0.172172 0)
(-0.189109 0.215305 0)
(-0.151035 0.251175 0)
(-0.112156 0.263625 0)
(-0.0711337 0.234144 0)
(-0.0429776 0.129758 0)
(-0.020576 0.0555799 0)
(-0.0134648 0.0266463 0)
(-0.00734422 0.0121018 0)
(0.000116005 0.00162436 0)
(0.00426736 -0.00661726 0)
(0.00545545 -0.0127834 0)
(0.00410886 -0.018214 0)
(0.00022273 -0.0242685 0)
(-0.00598028 -0.0313619 0)
(-0.0140625 -0.0388943 0)
(-0.0239044 -0.0452064 0)
(-0.035021 -0.048254 0)
(-0.0482149 -0.0479972 0)
(-0.0646752 -0.0447427 0)
(-0.0860095 -0.0379789 0)
(-0.113287 -0.0259128 0)
(-0.145461 -0.00677523 0)
(-0.176695 0.0185225 0)
(-0.204922 0.0440239 0)
(-0.233905 0.0646264 0)
(-0.283721 0.0777358 0)
(-0.497952 0.0768228 0)
(-1.86003 -0.367417 0)
(-0.128312 -0.302404 0)
(-0.361218 -0.179525 0)
(-0.343042 -0.111268 0)
(-0.346539 -0.0589581 0)
(-0.349353 -0.0163933 0)
(-0.347201 0.0187486 0)
(-0.338306 0.0476058 0)
(-0.321908 0.0773359 0)
(-0.296393 0.108913 0)
(-0.260944 0.142244 0)
(-0.215596 0.175748 0)
(-0.16217 0.2044 0)
(-0.106586 0.215824 0)
(-0.0530472 0.192062 0)
(-0.00820612 0.101556 0)
(0.0214597 0.0417025 0)
(0.0303022 0.0205905 0)
(0.0370747 0.00887125 0)
(0.0430337 -0.00171271 0)
(0.0444629 -0.00880114 0)
(0.0429899 -0.0137181 0)
(0.0392584 -0.0179848 0)
(0.0333397 -0.0227564 0)
(0.0249596 -0.028597 0)
(0.0138195 -0.0352554 0)
(-0.000942395 -0.0414227 0)
(-0.0168393 -0.0435029 0)
(-0.0328104 -0.0407273 0)
(-0.0481498 -0.0333103 0)
(-0.0624283 -0.0219559 0)
(-0.0747155 -0.0077016 0)
(-0.0848256 0.00813934 0)
(-0.0952719 0.025784 0)
(-0.0995335 0.045011 0)
(-0.0867968 0.0490261 0)
(-0.0546657 0.00133427 0)
(-0.183776 -0.170886 0)
(-0.20233 0.0816106 0)
(-0.0759321 -0.269557 0)
(-0.273473 -0.17465 0)
(-0.33217 -0.136617 0)
(-0.369931 -0.111061 0)
(-0.389895 -0.087203 0)
(-0.395078 -0.0604308 0)
(-0.386634 -0.0277009 0)
(-0.366907 0.00287494 0)
(-0.334629 0.0322658 0)
(-0.288978 0.061736 0)
(-0.230064 0.0913553 0)
(-0.160587 0.118676 0)
(-0.0872903 0.134784 0)
(-0.0118972 0.117231 0)
(0.0546686 0.0297817 0)
(0.0856685 -0.0237442 0)
(0.0958007 -0.0559847 0)
(0.0978576 -0.0754954 0)
(0.0945123 -0.0818204 0)
(0.0882658 -0.081689 0)
(0.0808563 -0.0790688 0)
(0.0729913 -0.0760214 0)
(0.064489 -0.0734173 0)
(0.0547386 -0.071441 0)
(0.0432146 -0.0698577 0)
(0.0296168 -0.068172 0)
(0.0148535 -0.0655794 0)
(-7.03759e-05 -0.0625142 0)
(-0.0125042 -0.060222 0)
(-0.022317 -0.0594014 0)
(-0.0282355 -0.0583607 0)
(-0.0278773 -0.043638 0)
(-0.0212853 -0.0249736 0)
(-0.00802818 -0.0090877 0)
(0.0206623 -0.0167505 0)
(0.116208 -0.0603756 0)
(-0.122609 -0.102584 0)
(0.683646 0.209376 0)
(0.15614 -0.269525 0)
(-0.210225 0.184285 0)
(-0.104857 0.0619539 0)
(-0.251889 0.10679 0)
(-0.321662 0.132096 0)
(-0.369384 0.145228 0)
(-0.398019 0.151139 0)
(-0.410017 0.151695 0)
(-0.405449 0.148068 0)
(-0.384559 0.148037 0)
(-0.34729 0.151886 0)
(-0.292976 0.159285 0)
(-0.222017 0.170264 0)
(-0.139135 0.184528 0)
(-0.0543859 0.19956 0)
(0.0595075 0.196716 0)
(0.116879 0.192655 0)
(0.145529 0.201145 0)
(0.15407 0.213584 0)
(0.152569 0.223159 0)
(0.14676 0.223422 0)
(0.139743 0.218709 0)
(0.131905 0.2126 0)
(0.123179 0.207143 0)
(0.113576 0.203153 0)
(0.103098 0.20066 0)
(0.0916895 0.199265 0)
(0.0792082 0.198401 0)
(0.0656236 0.197708 0)
(0.0511459 0.196546 0)
(0.0369729 0.196627 0)
(0.0256134 0.203493 0)
(0.0209632 0.218092 0)
(0.0218619 0.212186 0)
(0.0302315 0.204309 0)
(0.0426658 0.202019 0)
(0.0561223 0.208716 0)
(0.132717 0.200618 0)
(-0.285671 0.201602 0)
)
;

boundaryField
{
    floor
    {
        type            noSlip;
    }
    ceiling
    {
        type            noSlip;
    }
    sWall
    {
        type            noSlip;
    }
    nWall
    {
        type            noSlip;
    }
    sideWalls
    {
        type            empty;
    }
    glass1
    {
        type            noSlip;
    }
    glass2
    {
        type            noSlip;
    }
    sun
    {
        type            noSlip;
    }
    heatsource1
    {
        type            noSlip;
    }
    heatsource2
    {
        type            noSlip;
    }
    Table_master
    {
        type            noSlip;
    }
    Table_slave
    {
        type            noSlip;
    }
    inlet
    {
        type            fixedValue;
        value           uniform (0.1 0 0);
    }
    outlet
    {
        type            zeroGradient;
    }
}


// ************************************************************************* //
