// -*- C++ -*-
// File generated by PyFoam - sorry for the ugliness

FoamFile
{
 version 2.0;
 format ascii;
 class volVectorField;
 location "100";
 object U;
}

dimensions [ 0 1 -1 0 0 0 0 ];

internalField nonuniform List<vector> 459
(
  (0.108823 0.0669143 0)
  (-0.137865 -0.00126795 0)
  (-0.10985 0.00212535 0)
  (-0.11807 0.00434909 0)
  (-0.127333 0.00426944 0)
  (-0.135907 0.00312184 0)
  (-0.14249 0.00131347 0)
  (-0.146163 -0.00103056 0)
  (-0.146136 -0.0038902 0)
  (-0.141608 -0.00735793 0)
  (-0.131539 -0.0114781 0)
  (-0.114579 -0.0163572 0)
  (-0.0904438 -0.0226821 0)
  (-0.0659319 -0.0317303 0)
  (-0.0662873 -0.0417721 0)
  (0.0240765 0.0122763 0)
  (-0.0347687 -0.00954499 0)
  (-0.0229003 -0.0115363 0)
  (-0.0145927 -0.00760637 0)
  (-0.00762054 -0.00111858 0)
  (-0.0120579 0.00302378 0)
  (-0.0160508 -0.00106784 0)
  (-0.0135183 -0.00439249 0)
  (-0.00773137 -0.00372346 0)
  (-0.0026153 -0.002745 0)
  (0.00187312 -0.00245943 0)
  (0.00607928 -0.0022909 0)
  (0.00977862 -0.00124165 0)
  (0.0110799 0.000501709 0)
  (0.0111936 0.000435151 0)
  (0.0176139 -0.00647048 0)
  (0.0252743 -0.0161931 0)
  (0.0418505 -0.0106414 0)
  (-0.0121011 0.0146978 0)
  (0.31543 0.1471 0)
  (-0.163787 0.0119502 0)
  (-0.10222 0.0111964 0)
  (-0.116898 0.0142809 0)
  (-0.12775 0.0142889 0)
  (-0.137172 0.01219 0)
  (-0.144419 0.00861345 0)
  (-0.148874 0.00379093 0)
  (-0.149884 -0.00222889 0)
  (-0.146873 -0.00944246 0)
  (-0.139245 -0.0176829 0)
  (-0.126292 -0.0267844 0)
  (-0.107872 -0.0371782 0)
  (-0.0857574 -0.049761 0)
  (-0.0638551 -0.0627322 0)
  (-0.0434316 -0.0686285 0)
  (0.035863 0.0074939 0)
  (0.127147 0.0167377 0)
  (0.0347173 0.00962373 0)
  (-0.000542017 0.00171313 0)
  (-0.010136 -0.000489332 0)
  (-0.00886722 0.00448092 0)
  (-0.00738293 0.0108072 0)
  (-0.00963516 0.00200653 0)
  (-0.0124838 -0.00549263 0)
  (-0.0120382 -0.0044445 0)
  (-0.0111602 -0.00379152 0)
  (-0.0102723 -0.00445022 0)
  (-0.00954215 -0.00451872 0)
  (-0.00933388 -0.00215208 0)
  (-0.012281 0.00126052 0)
  (-0.0124728 -0.00208712 0)
  (-0.00447461 -0.0157989 0)
  (-0.000756343 -0.0244726 0)
  (0.0221775 -0.00960485 0)
  (-0.0896033 0.0436837 0)
  (0.484765 0.224877 0)
  (-0.209769 0.0381701 0)
  (-0.0866444 0.0271002 0)
  (-0.109996 0.0260166 0)
  (-0.122232 0.0242572 0)
  (-0.132445 0.020156 0)
  (-0.140546 0.0140281 0)
  (-0.146178 0.00610346 0)
  (-0.148876 -0.00347113 0)
  (-0.148157 -0.0145338 0)
  (-0.144134 -0.0268705 0)
  (-0.136916 -0.0400469 0)
  (-0.127066 -0.0538172 0)
  (-0.115687 -0.0674287 0)
  (-0.104326 -0.0776695 0)
  (-0.0964211 -0.0786448 0)
  (-0.100594 -0.0681476 0)
  (0.0455387 0.0267066 0)
  (-0.0537242 0.0166661 0)
  (-0.053912 0.0110496 0)
  (-0.0519466 0.00215636 0)
  (-0.0464798 -0.00440326 0)
  (-0.0368514 -0.00791075 0)
  (0.0047258 -0.00054895 0)
  (-0.0120817 -0.0101094 0)
  (-0.0190169 -0.0098723 0)
  (-0.0241497 -0.00946339 0)
  (-0.0294162 -0.00871746 0)
  (-0.0350029 -0.00689285 0)
  (-0.039831 -0.00476007 0)
  (-0.0418853 -0.00416971 0)
  (-0.0390681 -0.00747155 0)
  (-0.0250255 -0.0139454 0)
  (-0.0400223 -0.00543865 0)
  (-0.0727428 0.00893939 0)
  (-0.161205 0.0251291 0)
  (0.620091 0.289387 0)
  (-0.254779 0.0702636 0)
  (-0.0667184 0.0458686 0)
  (-0.0992601 0.0394858 0)
  (-0.112303 0.0355901 0)
  (-0.122242 0.0296007 0)
  (-0.130253 0.0214064 0)
  (-0.136171 0.0110688 0)
  (-0.13975 -0.00126192 0)
  (-0.140428 -0.0150911 0)
  (-0.139254 -0.0296717 0)
  (-0.137245 -0.0441723 0)
  (-0.135761 -0.0578359 0)
  (-0.136305 -0.0691963 0)
  (-0.140871 -0.0748458 0)
  (-0.153104 -0.0683044 0)
  (-0.172654 -0.0378046 0)
  (-0.168462 0.0288415 0)
  (-0.12184 0.0251385 0)
  (-0.121199 0.0161725 0)
  (-0.110652 0.00607726 0)
  (-0.108337 -0.0039335 0)
  (-0.107434 -0.0120203 0)
  (-0.108249 -0.0169582 0)
  (-0.103262 -0.0132712 0)
  (-0.0897334 -0.0131014 0)
  (-0.0756864 -0.0143614 0)
  (-0.0607482 -0.0155624 0)
  (-0.0452971 -0.0164823 0)
  (-0.0300679 -0.0170044 0)
  (-0.0157073 -0.0169915 0)
  (0.000247395 -0.0156586 0)
  (0.014279 -0.0141363 0)
  (0.0150625 -0.0149754 0)
  (0.0208959 -0.00469047 0)
  (0.0338725 -0.00148085 0)
  (-0.0961061 -0.00600453 0)
  (0.726697 0.342712 0)
  (-0.292834 0.105154 0)
  (-0.0462957 0.0643916 0)
  (-0.0852033 0.0527706 0)
  (-0.0984535 0.0461545 0)
  (-0.106576 0.0380004 0)
  (-0.11264 0.0278416 0)
  (-0.11675 0.0154998 0)
  (-0.118791 0.00105064 0)
  (-0.118411 -0.0146521 0)
  (-0.117181 -0.0299341 0)
  (-0.11665 -0.0437026 0)
  (-0.118147 -0.055429 0)
  (-0.122581 -0.0644018 0)
  (-0.130437 -0.0692945 0)
  (-0.141074 -0.0678468 0)
  (-0.14988 -0.0555412 0)
  (-0.150355 -0.02777 0)
  (-0.139458 -0.00316799 0)
  (-0.124981 0.00474064 0)
  (-0.112799 0.00089176 0)
  (-0.105879 -0.00553472 0)
  (-0.102307 -0.0118608 0)
  (-0.100002 -0.0159219 0)
  (-0.0957524 -0.0164522 0)
  (-0.0887833 -0.0180806 0)
  (-0.0806639 -0.0198433 0)
  (-0.0719741 -0.0212045 0)
  (-0.0631415 -0.0217925 0)
  (-0.0546432 -0.0214969 0)
  (-0.0467505 -0.0204592 0)
  (-0.0391069 -0.0188551 0)
  (-0.031443 -0.0174944 0)
  (-0.0228932 -0.0182036 0)
  (-0.00895249 -0.0170196 0)
  (0.0223693 -0.0148246 0)
  (0.0418905 -0.0138067 0)
  (0.0885874 -0.00936161 0)
  (0.174831 0.0365332 0)
  (-0.288224 0.0372178 0)
  (0.79568 0.390822 0)
  (-0.324479 0.137768 0)
  (-0.0312671 0.0767125 0)
  (-0.0665027 0.0652078 0)
  (-0.080166 0.0551773 0)
  (-0.0857144 0.0438857 0)
  (-0.0881515 0.0314894 0)
  (-0.0884924 0.0173114 0)
  (-0.0866667 0.00100073 0)
  (-0.0827686 -0.016116 0)
  (-0.0797653 -0.0309722 0)
  (-0.0789177 -0.0427056 0)
  (-0.0811085 -0.0514794 0)
  (-0.086526 -0.0571834 0)
  (-0.0947425 -0.0589113 0)
  (-0.104204 -0.0549976 0)
  (-0.111235 -0.0440313 0)
  (-0.112194 -0.0282884 0)
  (-0.106649 -0.0143902 0)
  (-0.0980323 -0.00777295 0)
  (-0.0904612 -0.00760229 0)
  (-0.0857876 -0.0106736 0)
  (-0.0836469 -0.0148249 0)
  (-0.0828503 -0.0183245 0)
  (-0.0818951 -0.0206304 0)
  (-0.0802809 -0.0229836 0)
  (-0.0784034 -0.0251177 0)
  (-0.0766344 -0.0264716 0)
  (-0.0753338 -0.0266496 0)
  (-0.0748132 -0.0256563 0)
  (-0.075135 -0.0239772 0)
  (-0.0759351 -0.0225175 0)
  (-0.076477 -0.0226663 0)
  (-0.0753111 -0.0259031 0)
  (-0.0692035 -0.0328807 0)
  (-0.054785 -0.0454973 0)
  (-0.0357769 -0.0649537 0)
  (-0.00469567 -0.0724117 0)
  (0.139302 0.0261656 0)
  (-0.0730807 0.0984455 0)
  (0.814919 0.435727 0)
  (-0.33969 0.14241 0)
  (-0.0140753 0.0593481 0)
  (-0.0268978 0.0765907 0)
  (-0.0476024 0.0646555 0)
  (-0.0538267 0.0451991 0)
  (-0.0520783 0.0291755 0)
  (-0.0474041 0.0131134 0)
  (-0.0388202 -0.0049068 0)
  (-0.0318165 -0.0218303 0)
  (-0.0279148 -0.0341343 0)
  (-0.027507 -0.0422744 0)
  (-0.0307527 -0.0474889 0)
  (-0.0372876 -0.0504164 0)
  (-0.0461509 -0.0506855 0)
  (-0.0556143 -0.0471102 0)
  (-0.0629956 -0.0389985 0)
  (-0.0660309 -0.0283475 0)
  (-0.0646284 -0.0188202 0)
  (-0.0608509 -0.0132685 0)
  (-0.0572155 -0.0117041 0)
  (-0.0551618 -0.0126888 0)
  (-0.0549566 -0.0149207 0)
  (-0.0562153 -0.0173479 0)
  (-0.0583451 -0.0195719 0)
  (-0.061145 -0.021702 0)
  (-0.0647909 -0.0233503 0)
  (-0.0695438 -0.0239295 0)
  (-0.0757788 -0.0230472 0)
  (-0.083882 -0.0209076 0)
  (-0.0940076 -0.0184131 0)
  (-0.105996 -0.0168708 0)
  (-0.11911 -0.0177664 0)
  (-0.132252 -0.0228491 0)
  (-0.144271 -0.0343529 0)
  (-0.153751 -0.0547628 0)
  (-0.15677 -0.0820011 0)
  (-0.143793 -0.0959792 0)
  (-0.10724 -0.0444489 0)
  (-0.150562 0.214799 0)
  (0.917764 0.461124 0)
  (-0.143948 0.123446 0)
  (0.0621786 0.00730589 0)
  (0.0887203 0.0518973 0)
  (0.0456659 0.0543144 0)
  (0.0211225 0.0274598 0)
  (0.0197605 0.00779906 0)
  (0.0240463 -0.00772749 0)
  (0.0353825 -0.0207328 0)
  (0.039429 -0.0306438 0)
  (0.0392137 -0.0371914 0)
  (0.0359257 -0.0407612 0)
  (0.0299218 -0.0422029 0)
  (0.021512 -0.0422388 0)
  (0.0113117 -0.0410615 0)
  (0.000454257 -0.038091 0)
  (-0.00873328 -0.0326887 0)
  (-0.0144532 -0.0258362 0)
  (-0.0168234 -0.0194432 0)
  (-0.0170344 -0.015084 0)
  (-0.0166962 -0.0130326 0)
  (-0.0169364 -0.0127236 0)
  (-0.0182519 -0.0134485 0)
  (-0.0207232 -0.014562 0)
  (-0.0242768 -0.0156899 0)
  (-0.0289775 -0.0165961 0)
  (-0.0350063 -0.0167732 0)
  (-0.0425549 -0.0155341 0)
  (-0.0519757 -0.0123237 0)
  (-0.0636706 -0.00720716 0)
  (-0.0777918 -0.000921198 0)
  (-0.0961457 0.00469731 0)
  (-0.120713 0.00654893 0)
  (-0.152381 0.00108021 0)
  (-0.19066 -0.0140034 0)
  (-0.232106 -0.0377849 0)
  (-0.269057 -0.0653683 0)
  (-0.3021 -0.0890185 0)
  (-0.373416 -0.0950651 0)
  (-0.645446 -0.0602495 0)
  (1.05831 0.426666 0)
  (0.508809 0.271708 0)
  (0.452293 0.211766 0)
  (0.39945 0.192354 0)
  (0.293149 0.15015 0)
  (0.22587 0.097528 0)
  (0.193917 0.0548102 0)
  (0.175379 0.0238572 0)
  (0.15556 0.000240875 0)
  (0.136882 -0.0162565 0)
  (0.121303 -0.0261913 0)
  (0.107883 -0.0311019 0)
  (0.0955898 -0.0325971 0)
  (0.0837357 -0.0319553 0)
  (0.0719539 -0.0300537 0)
  (0.0603517 -0.0273976 0)
  (0.0497921 -0.0240905 0)
  (0.0413705 -0.0202798 0)
  (0.0354739 -0.0166096 0)
  (0.0316177 -0.013812 0)
  (0.0288563 -0.012158 0)
  (0.026372 -0.0114871 0)
  (0.023669 -0.0114642 0)
  (0.0205174 -0.0117162 0)
  (0.0168355 -0.0119373 0)
  (0.0125644 -0.0118558 0)
  (0.0077003 -0.011063 0)
  (0.00240157 -0.00897625 0)
  (-0.0030512 -0.00491394 0)
  (-0.00745679 0.00128631 0)
  (-0.0114631 0.00940218 0)
  (-0.0155432 0.0187012 0)
  (-0.0196496 0.027069 0)
  (-0.0242213 0.0312328 0)
  (-0.0296908 0.0277543 0)
  (-0.0394654 0.0139513 0)
  (-0.0539886 -0.0117426 0)
  (-0.0435571 -0.0574211 0)
  (-0.0561556 -0.155623 0)
  (-0.535259 -0.282665 0)
  (-0.93572 0.176668 0)
  (0.19094 0.201141 0)
  (0.169229 0.14944 0)
  (0.172218 0.099505 0)
  (0.186539 0.060189 0)
  (0.192494 0.031605 0)
  (0.189516 0.0117702 0)
  (0.18127 -0.00192419 0)
  (0.170694 -0.0110146 0)
  (0.159157 -0.0163714 0)
  (0.147373 -0.0188131 0)
  (0.135838 -0.0191374 0)
  (0.124805 -0.0180826 0)
  (0.114343 -0.0163022 0)
  (0.104568 -0.0142868 0)
  (0.0957966 -0.0123586 0)
  (0.0883457 -0.0107702 0)
  (0.0822345 -0.00969826 0)
  (0.0771599 -0.00915014 0)
  (0.0727274 -0.00899258 0)
  (0.0686245 -0.00903921 0)
  (0.064667 -0.00909647 0)
  (0.0607822 -0.008988 0)
  (0.056975 -0.00854409 0)
  (0.0533429 -0.00755488 0)
  (0.0501214 -0.00576135 0)
  (0.0477217 -0.00287332 0)
  (0.0468894 0.00161688 0)
  (0.047754 0.00783868 0)
  (0.0508777 0.0149552 0)
  (0.0561245 0.0209082 0)
  (0.0625743 0.0229086 0)
  (0.0688184 0.0188804 0)
  (0.0734063 0.00906144 0)
  (0.0772019 -0.00349715 0)
  (0.0849145 -0.0209993 0)
  (0.136476 -0.0841676 0)
  (-0.155152 -0.221228 0)
  (-0.481586 0.175143 0)
  (0.184487 0.119816 0)
  (0.0989384 0.0815895 0)
  (0.128471 0.0605943 0)
  (0.16589 0.0393249 0)
  (0.186915 0.0213942 0)
  (0.194202 0.00841815 0)
  (0.193959 -0.000193302 0)
  (0.189526 -0.00549868 0)
  (0.182713 -0.00827046 0)
  (0.174635 -0.00907194 0)
  (0.166184 -0.00837523 0)
  (0.158024 -0.00659139 0)
  (0.150525 -0.00409475 0)
  (0.143802 -0.00123534 0)
  (0.137807 0.00167007 0)
  (0.132429 0.0043554 0)
  (0.127532 0.00663148 0)
  (0.122978 0.00841829 0)
  (0.118655 0.00974259 0)
  (0.114502 0.0107098 0)
  (0.11051 0.0114756 0)
  (0.106722 0.0122165 0)
  (0.103238 0.0131098 0)
  (0.100228 0.0143473 0)
  (0.0979553 0.0161634 0)
  (0.0968176 0.0187631 0)
  (0.097274 0.0217215 0)
  (0.100054 0.0250163 0)
  (0.105671 0.0285269 0)
  (0.113903 0.0312806 0)
  (0.123569 0.0317707 0)
  (0.132577 0.0287884 0)
  (0.138403 0.0217464 0)
  (0.138213 0.00809624 0)
  (0.130248 -0.0153248 0)
  (0.15519 -0.0650332 0)
  (-0.180364 -0.157566 0)
  (0.14498 -0.166441 0)
  (-0.188476 -0.0260573 0)
  (-0.267717 0.178389 0)
  (0.173448 0.0484043 0)
  (0.085058 0.0351216 0)
  (0.115046 0.0311606 0)
  (0.157548 0.0233398 0)
  (0.184203 0.0153019 0)
  (0.196096 0.00870458 0)
  (0.199233 0.00354206 0)
  (0.197595 -0.00063803 0)
  (0.193251 -0.00414359 0)
  (0.187473 -0.00719786 0)
  (0.181266 -0.0100232 0)
  (0.175432 -0.0128361 0)
  (0.170514 -0.0158291 0)
  (0.166778 -0.0191517 0)
  (0.164244 -0.0228921 0)
  (0.162728 -0.027065 0)
  (0.161907 -0.0316137 0)
  (0.161403 -0.0364303 0)
  (0.160873 -0.0413894 0)
  (0.160071 -0.0463751 0)
  (0.158873 -0.0512868 0)
  (0.157276 -0.0560271 0)
  (0.155388 -0.0604762 0)
  (0.153426 -0.0644641 0)
  (0.151739 -0.067754 0)
  (0.150932 -0.0700608 0)
  (0.15149 -0.0705861 0)
  (0.153975 -0.0688973 0)
  (0.159026 -0.0655208 0)
  (0.166777 -0.0617545 0)
  (0.176297 -0.0593925 0)
  (0.185424 -0.0601297 0)
  (0.191473 -0.0653298 0)
  (0.190049 -0.0738606 0)
  (0.176828 -0.0857625 0)
  (0.183961 -0.105811 0)
  (-0.190643 -0.151907 0)
)
;

boundaryField
{
  floor
  {
    type noSlip;
  }
  ceiling
  {
    type noSlip;
  }
  sWall
  {
    type noSlip;
  }
  nWall
  {
    type noSlip;
  }
  sideWalls
  {
    type empty;
  }
  glass1
  {
    type noSlip;
  }
  glass2
  {
    type noSlip;
  }
  sun
  {
    type noSlip;
  }
  heatsource1
  {
    type noSlip;
  }
  heatsource2
  {
    type noSlip;
  }
  Table_master
  {
    type noSlip;
  }
  Table_slave
  {
    type noSlip;
  }
  inlet
  {
    type fixedValue;
    value uniform (0.191342 -0.46194 0);
  }
  outlet
  {
    type zeroGradient;
  }
} 	// ************************************************************************* //

