/*--------------------------------*- C++ -*----------------------------------*\
  =========                 |
  \\      /  F ield         | OpenFOAM: The Open Source CFD Toolbox
   \\    /   O peration     | Website:  https://openfoam.org
    \\  /    A nd           | Version:  6
     \\/     M anipulation  |
\*---------------------------------------------------------------------------*/
FoamFile
{
    version     2.0;
    format      ascii;
    class       volScalarField;
    location    "42199.9999996101469";
    object      epsilon;
}
// * * * * * * * * * * * * * * * * * * * * * * * * * * * * * * * * * * * * * //

dimensions      [0 2 -3 0 0 0 0];

internalField   nonuniform List<scalar> 
778
(
0.000253119
0.000306368
0.000303047
0.000344256
0.000385159
0.000425004
0.00046448
0.000504774
0.00054762
0.000595733
0.000644136
0.000692455
0.000742343
0.000798607
0.000860285
8.945e-05
0.000262464
0.00026882
0.000249722
0.000219887
0.000183918
0.000152223
0.000126451
0.000105858
8.94029e-05
7.62581e-05
6.56093e-05
5.68165e-05
4.93537e-05
4.27484e-05
3.65018e-05
3.18062e-05
2.35943e-05
0.000796981
0.00144324
0.000287036
0.000259656
0.000261765
0.000267742
0.000276642
0.000290075
0.000310331
0.000340532
0.000379723
0.0004308
0.000499127
0.000600261
0.000785323
0.00112885
0.000978317
0.000858067
0.000512251
0.000369533
0.000294148
0.000242745
0.000203882
0.000186683
0.000154534
0.000124895
0.000100626
8.14397e-05
6.64903e-05
5.47946e-05
4.56093e-05
3.86892e-05
3.45008e-05
3.27402e-05
6.57988e-05
4.80758e-05
0.00163058
0.00407924
0.000407445
0.000242988
0.000229168
0.000231081
0.000238297
0.000250565
0.000268466
0.000292724
0.000324827
0.000366854
0.000421186
0.00049484
0.000601189
0.000724419
0.000829484
0.00158368
0.00102837
0.000512539
0.000367796
0.000294283
0.000262006
0.000551011
0.000362172
0.000250374
0.000181057
0.000136094
0.000105782
8.46855e-05
6.97544e-05
5.94131e-05
4.50997e-05
3.79529e-05
0.00010832
7.07867e-05
0.00285341
0.00877092
0.000709962
0.000240779
0.000202534
0.000200066
0.000203233
0.000209853
0.000220661
0.000237566
0.000263236
0.000299945
0.000349107
0.00041219
0.00048785
0.000560063
0.000612257
0.000824217
0.00156479
0.000729182
0.000459896
0.000358342
0.000301922
0.00029179
0.000814007
0.000612401
0.000481511
0.000388067
0.000318709
0.000263956
0.00021845
0.000178755
0.00014162
8.36522e-05
5.47896e-05
0.00014904
9.44524e-05
0.0045458
0.0158286
0.00134652
0.000258391
0.000175778
0.000166831
0.000165832
0.000167799
0.000173954
0.000187451
0.000211679
0.000248324
0.000297677
0.000359142
0.000427552
0.000488926
0.000528336
0.000582318
0.000627332
0.000483152
0.000393499
0.000331055
0.000282309
0.000248616
0.000247806
0.000226725
0.000202864
0.000180978
0.000162598
0.000146442
0.000131783
0.000118205
0.000105059
8.44365e-05
6.408e-05
0.000105306
0.000138852
0.000160411
0.000379373
0.000328761
0.00676331
0.0248806
0.00255385
0.000318117
0.000155572
0.000137095
0.000132149
0.000130709
0.000134472
0.000148563
0.000176706
0.000218041
0.000270688
0.000333891
0.000401405
0.000462275
0.000502661
0.000521436
0.000504615
0.000438174
0.000373809
0.000315658
0.000264744
0.000223374
0.000193271
0.000169611
0.000150798
0.000135614
0.00012328
0.000112728
0.000103269
9.45113e-05
8.60837e-05
7.59056e-05
6.5256e-05
7.75491e-05
9.97158e-05
0.00021486
0.00109884
0.000558926
0.0096718
0.0336402
0.00458461
0.000465043
0.000150864
0.000116362
0.000107103
0.000103293
0.000107085
0.000127933
0.000166143
0.000215871
0.000273205
0.000339834
0.000408977
0.00047005
0.000509799
0.000520157
0.00049412
0.000437529
0.00037181
0.000307473
0.000250537
0.000204418
0.000169728
0.000144547
0.000126328
0.000112747
0.00010229
9.37112e-05
8.62071e-05
7.93246e-05
7.27917e-05
6.61445e-05
6.02651e-05
6.36071e-05
7.68024e-05
0.000179707
0.00166279
0.000924793
0.0127587
0.0404098
0.0074916
0.000871384
0.000194274
0.000115378
9.73856e-05
9.14552e-05
9.8633e-05
0.00013771
0.000189292
0.000246246
0.000306971
0.000373655
0.000444529
0.000507767
0.000547099
0.000550686
0.000515518
0.00045145
0.000375468
0.000300941
0.000236463
0.000185945
0.000149304
0.000123987
0.000106733
9.46025e-05
8.57693e-05
7.88267e-05
7.29004e-05
6.75181e-05
6.24564e-05
5.76546e-05
5.38795e-05
5.54351e-05
7.07198e-05
0.000380458
0.00584381
0.00215032
0.013827
0.0414598
0.0139353
0.00316421
0.000629967
0.000207958
0.000132637
0.000115957
0.000142384
0.000192844
0.000249228
0.00030638
0.00036732
0.000436618
0.000511059
0.000575676
0.000610779
0.000602967
0.000551957
0.000470819
0.000378415
0.000290888
0.000218254
0.000164032
0.000126803
0.00010265
8.73414e-05
7.74068e-05
7.07273e-05
6.57219e-05
6.15012e-05
5.76344e-05
5.3963e-05
5.05602e-05
4.8159e-05
5.12468e-05
9.89839e-05
0.00119704
0.0157351
0.00312119
0.0130038
0.0283699
0.0144165
0.00572659
0.00210382
0.000834208
0.000413436
0.000276693
0.000278796
0.000314378
0.000355923
0.000401651
0.000458681
0.000531178
0.000610376
0.000674289
0.000698747
0.00067043
0.000593516
0.000486448
0.000372533
0.000270693
0.000191216
0.000135853
0.000100775
7.99741e-05
6.80615e-05
6.12842e-05
5.72025e-05
5.42512e-05
5.16847e-05
4.92019e-05
4.67508e-05
4.45388e-05
4.36446e-05
5.21472e-05
0.000202143
0.00365484
0.0118697
0.00328356
0.0106888
0.0193569
0.0120388
0.00629988
0.0031738
0.00167406
0.000986165
0.000678508
0.000559555
0.000516939
0.000510146
0.000531436
0.000584101
0.000663632
0.000748554
0.000805899
0.000807542
0.000743791
0.000627504
0.000485619
0.000347394
0.000233624
0.00015269
0.000101985
7.37231e-05
5.89343e-05
5.14742e-05
4.80487e-05
4.62551e-05
4.49378e-05
4.36321e-05
4.22012e-05
4.07438e-05
3.97877e-05
4.14162e-05
5.82733e-05
0.000241434
0.00281328
0.0107381
0.00340467
0.00807177
0.01377
0.00969208
0.00593285
0.003569
0.00222679
0.00149014
0.00109229
0.000868666
0.000743072
0.000685662
0.000690434
0.000751719
0.000846746
0.000934419
0.000969881
0.000926309
0.000804949
0.000633987
0.000451508
0.000292879
0.000177546
0.00010725
6.96098e-05
5.2583e-05
4.44452e-05
4.06353e-05
3.92463e-05
3.86629e-05
3.8212e-05
3.7628e-05
3.68973e-05
3.63911e-05
3.75077e-05
4.51289e-05
8.27626e-05
0.00031841
0.00230706
0.00848582
0.00402788
0.00612387
0.0101688
0.00779181
0.0053126
0.00357006
0.00246896
0.00178774
0.00136796
0.00109266
0.000925827
0.000859414
0.000887878
0.000985457
0.0011012
0.00117301
0.00115195
0.00102671
0.00082055
0.00058506
0.000368
0.000208457
0.000114661
7.213e-05
5.21917e-05
4.27351e-05
3.80237e-05
3.57652e-05
3.49778e-05
3.46888e-05
3.44764e-05
3.42119e-05
3.41226e-05
3.53788e-05
4.22618e-05
7.11638e-05
0.000182636
0.000569952
0.00232257
0.0073951
0.00399739
0.0061836
0.00781512
0.00680644
0.00474044
0.00336618
0.00246274
0.00186596
0.00146243
0.00119456
0.00106469
0.00107139
0.00118329
0.00133454
0.00144357
0.00144265
0.00130161
0.00104972
0.000740163
0.000455945
0.000237957
0.000131034
8.16172e-05
5.95472e-05
4.86126e-05
4.25171e-05
3.88832e-05
3.68055e-05
3.58365e-05
3.54153e-05
3.52058e-05
3.52345e-05
3.62379e-05
4.13681e-05
6.25233e-05
0.000140702
0.000386071
0.00104664
0.00274557
0.00628348
0.00325528
0.0045464
0.00511626
0.00418632
0.00336249
0.00264026
0.00207054
0.00164936
0.00136198
0.00124473
0.00130101
0.00148099
0.00169287
0.00183258
0.00182364
0.00164043
0.00130114
0.000906587
0.000518373
0.000277996
0.000154747
0.000101353
7.79123e-05
6.58829e-05
5.8236e-05
5.27889e-05
4.89284e-05
4.64544e-05
4.51572e-05
4.48868e-05
4.52089e-05
4.62578e-05
4.92524e-05
5.89634e-05
9.15717e-05
0.000196138
0.000497769
0.00125754
0.00288742
0.00533434
0.00277377
0.00139824
0.00142852
0.001431
0.00135259
0.0013109
0.00142196
0.00170682
0.00204485
0.00231232
0.00241475
0.00230033
0.00198434
0.00153147
0.000978685
0.00056612
0.000311094
0.000186588
0.000133824
0.000111407
9.94224e-05
9.09887e-05
8.41961e-05
7.8811e-05
7.50684e-05
7.31991e-05
7.32311e-05
7.51313e-05
7.87687e-05
8.38631e-05
9.13434e-05
0.000105353
0.000139269
0.000230877
0.000476644
0.00108592
0.00243494
0.0054058
0.00296853
0.00118797
0.00171441
0.00195212
0.00230771
0.00275407
0.00316005
0.00334227
0.00331223
0.00309293
0.00270394
0.00213407
0.00151373
0.000976931
0.000573507
0.000340672
0.000230909
0.000186343
0.000167464
0.000157029
0.000149268
0.000142763
0.000137572
0.000134313
0.000133765
0.000136592
0.0001431
0.000153025
0.000166083
0.0001822
0.000201155
0.000225549
0.000264813
0.000344132
0.000525316
0.00097304
0.00235117
0.00445923
0.00368503
0.00741499
0.00809404
0.00481763
0.00340421
0.00373436
0.00414189
0.00415181
0.00393953
0.00358444
0.00313157
0.00262792
0.00208628
0.00153508
0.00104512
0.000678166
0.000455571
0.000349981
0.000307255
0.000290329
0.000282402
0.000277176
0.000272264
0.000267067
0.000262185
0.000259078
0.00025955
0.000265223
0.000277258
0.000296463
0.000323541
0.000359245
0.000405383
0.000465278
0.000550698
0.000690313
0.000933037
0.00143576
0.00323399
0.00446798
0.00408827
0.00650081
0.00513674
0.00435905
0.00461618
0.00453914
0.00427329
0.00369328
0.00304642
0.00246003
0.00196694
0.00156416
0.00124125
0.0009871
0.000794958
0.000655762
0.000563195
0.000508854
0.000481049
0.000470646
0.000471381
0.000478622
0.000488876
0.000499847
0.000510646
0.000521843
0.00053532
0.000554036
0.000581905
0.000623835
0.000685919
0.000775796
0.00090308
0.00107949
0.00131683
0.00163254
0.00207338
0.00272957
0.00412306
0.0058007
0.00445588
0.00535905
0.00337372
0.0033258
0.0036291
0.00389619
0.00357108
0.00298327
0.00238235
0.00186578
0.00144594
0.00110887
0.000842845
0.000645057
0.00051549
0.000448405
0.000421585
0.000417883
0.000427408
0.000444289
0.00046496
0.000487115
0.000509334
0.000531021
0.000552419
0.000574579
0.000599247
0.000628758
0.000666193
0.00071602
0.00078517
0.000884103
0.00102687
0.00122907
0.0015041
0.00186121
0.00231045
0.00286889
0.00355153
0.00432874
0.00357792
)
;

boundaryField
{
    floor
    {
        Cmu             0.09;
        kappa           0.41;
        E               9.8;
        type            epsilonWallFunction;
        value           nonuniform List<scalar> 
36
(
0.000860285
8.945e-05
0.000262464
0.00026882
0.000249722
0.000219887
0.000183918
0.000152223
0.000126451
0.000105858
8.94029e-05
7.62581e-05
6.56093e-05
5.68165e-05
4.93537e-05
4.27484e-05
3.65018e-05
3.18062e-05
2.35943e-05
2.35943e-05
4.80758e-05
7.07867e-05
9.44524e-05
0.000160411
0.000379373
0.000328761
0.000860285
0.00112885
0.000978317
0.000858067
8.945e-05
0.000858067
0.000512251
0.00158368
0.00102837
0.00156479
)
;
    }
    ceiling
    {
        Cmu             0.09;
        kappa           0.41;
        E               9.8;
        type            epsilonWallFunction;
        value           nonuniform List<scalar> 
43
(
0.00535905
0.00337372
0.0033258
0.0036291
0.00389619
0.00357108
0.00298327
0.00238235
0.00186578
0.00144594
0.00110887
0.000842845
0.000645057
0.00051549
0.000448405
0.000421585
0.000417883
0.000427408
0.000444289
0.00046496
0.000487115
0.000509334
0.000531021
0.000552419
0.000574579
0.000599247
0.000628758
0.000666193
0.00071602
0.00078517
0.000884103
0.00102687
0.00122907
0.0015041
0.00186121
0.00231045
0.00286889
0.00355153
0.00432874
0.00357792
0.0045464
0.00511626
0.00118797
)
;
    }
    sWall
    {
        Cmu             0.09;
        kappa           0.41;
        E               9.8;
        type            epsilonWallFunction;
        value           nonuniform List<scalar> 9(0.0130038 0.0106888 0.00807177 0.00612387 0.0061836 0.0045464 0.00741499 0.00650081 0.00535905);
    }
    nWall
    {
        Cmu             0.09;
        kappa           0.41;
        E               9.8;
        type            epsilonWallFunction;
        value           nonuniform List<scalar> 
14
(
0.000328761
0.000558926
0.000924793
0.00328356
0.00340467
0.00402788
0.00399739
0.00325528
0.00277377
0.00296853
0.00368503
0.00408827
0.00445588
0.00357792
)
;
    }
    sideWalls
    {
        type            empty;
    }
    glass1
    {
        Cmu             0.09;
        kappa           0.41;
        E               9.8;
        type            epsilonWallFunction;
        value           nonuniform List<scalar> 9(0.000253119 0.000796981 0.00163058 0.00285341 0.0045458 0.00676331 0.0096718 0.0127587 0.013827);
    }
    glass2
    {
        Cmu             0.09;
        kappa           0.41;
        E               9.8;
        type            epsilonWallFunction;
        value           nonuniform List<scalar> 2(0.00215032 0.00312119);
    }
    sun
    {
        Cmu             0.09;
        kappa           0.41;
        E               9.8;
        type            epsilonWallFunction;
        value           nonuniform List<scalar> 
14
(
0.000253119
0.000306368
0.000303047
0.000344256
0.000385159
0.000425004
0.00046448
0.000504774
0.00054762
0.000595733
0.000644136
0.000692455
0.000742343
0.000798607
)
;
    }
    Table_master
    {
        Cmu             0.09;
        kappa           0.41;
        E               9.8;
        type            epsilonWallFunction;
        value           nonuniform List<scalar> 9(0.000551011 0.000362172 0.000250374 0.000181057 0.000136094 0.000105782 8.46855e-05 6.97544e-05 5.94131e-05);
    }
    Table_slave
    {
        Cmu             0.09;
        kappa           0.41;
        E               9.8;
        type            epsilonWallFunction;
        value           nonuniform List<scalar> 9(0.000814007 0.000612401 0.000481511 0.000388067 0.000318709 0.000263956 0.00021845 0.000178755 0.00014162);
    }
    inlet
    {
        type            turbulentMixingLengthDissipationRateInlet;
        mixingLength    0.01;
        phi             phi;
        k               k;
        value           uniform 0.000471671;
    }
    outlet
    {
        type            zeroGradient;
    }
}


// ************************************************************************* //
