/*--------------------------------*- C++ -*----------------------------------*\
  =========                 |
  \\      /  F ield         | OpenFOAM: The Open Source CFD Toolbox
   \\    /   O peration     | Website:  https://openfoam.org
    \\  /    A nd           | Version:  6
     \\/     M anipulation  |
\*---------------------------------------------------------------------------*/
FoamFile
{
    version     2.0;
    format      ascii;
    class       surfaceScalarField;
    location    "42199.9999996101469";
    object      phi;
}
// * * * * * * * * * * * * * * * * * * * * * * * * * * * * * * * * * * * * * //

dimensions      [1 0 -1 0 0 0 0];

internalField   nonuniform List<scalar> 
1482
(
-0.00279972
0.00286376
-0.00348388
0.000684156
-0.00414455
0.000660671
-0.0047586
0.000614047
-0.00527988
0.000521286
-0.00569164
0.000411756
-0.00598263
0.000290992
-0.00613981
0.000157181
-0.00614588
6.06644e-06
-0.00597489
-0.000170994
-0.00559694
-0.000377947
-0.00498106
-0.000615875
-0.00405712
-0.000923943
-0.00257892
-0.0014782
-0.00257599
-6.32582e-05
6.8113e-05
0.000780975
-0.000844234
0.00143377
-0.000652792
0.00183329
-0.000399522
0.00205496
-0.000221666
0.00215936
-0.000104408
0.00220685
-4.74889e-05
0.00222987
-2.30165e-05
0.00223976
-9.88937e-06
0.00224069
-9.33694e-07
0.00223359
7.09816e-06
0.00221452
1.90763e-05
0.00217018
4.43343e-05
0.00206738
0.000102802
0.00185066
0.000216723
0.00149313
0.000357523
0.00102172
0.000471415
0.00102816
-0.00204032
0.0050744
-0.00290836
0.0015522
-0.00369418
0.00144649
-0.00434519
0.00126505
-0.00488237
0.00105847
-0.005311
0.000840382
-0.00562927
0.000609261
-0.00583038
0.000358294
-0.00590368
7.93706e-05
-0.00584139
-0.000233284
-0.00563773
-0.000581608
-0.00528141
-0.000972198
-0.00477126
-0.00143409
-0.00428527
-0.0019642
-0.00470077
-0.00216049
-0.00311514
-0.00158019
-0.00163283
-0.00147662
-0.00161798
0.00131857
-0.00124024
0.0016633
-0.00118897
0.00191505
-0.000904544
0.00210612
-0.000590589
0.00221333
-0.000328877
0.00222211
-0.000113192
0.00222405
-4.94288e-05
0.00222569
-2.4653e-05
0.0022267
-1.09019e-05
0.00222676
-9.89481e-07
0.00222541
8.44059e-06
0.00222121
2.32817e-05
0.00220855
5.69909e-05
0.00214658
0.00016478
0.00189674
0.00046656
0.00146704
0.000787216
0.000903546
0.00103491
0.00194859
-0.00148818
0.0068205
-0.00235896
0.00242299
-0.00312889
0.00221641
-0.00371306
0.00184923
-0.00418364
0.00152906
-0.00455496
0.0012117
-0.00482879
0.000883095
-0.00500191
0.000531412
-0.00506793
0.000145387
-0.0050178
-0.000283414
-0.00484081
-0.000758591
-0.00452957
-0.00128344
-0.00411489
-0.00184877
-0.00371741
-0.00236167
-0.0032971
-0.00258079
-0.00236617
-0.00251112
-0.00127294
-0.00256985
-0.00287808
0.00115073
-0.00237651
0.00165448
-0.00169271
0.00195292
-0.00120299
0.0021457
-0.000783363
0.00217576
-0.000358943
0.00206272
0.00201345
0.00198895
0.0019782
0.00197737
0.00198596
0.0020094
0.00206654
0.00223148
0.00187261
0.000825431
0.00142409
0.00123573
0.000804652
0.00165435
0.00277927
-0.00110597
0.00825768
-0.00192775
0.00324477
-0.00256968
0.00285834
-0.00302993
0.00230947
-0.00339737
0.0018965
-0.00368605
0.00150037
-0.00389893
0.00109598
-0.00403416
0.000666648
-0.00408423
0.000195456
-0.00403596
-0.000331684
-0.00387709
-0.000917456
-0.00360353
-0.001557
-0.00323787
-0.00221443
-0.00281592
-0.00278362
-0.00227656
-0.00312015
-0.00155701
-0.00323067
-0.000868777
-0.00325808
-0.000688113
-0.00305875
0.00144799
-0.00212066
0.00137817
-0.00230669
0.00169303
-0.00200758
0.00200526
-0.00151521
0.00227135
-0.00104945
0.00254724
-0.000634834
0.00286111
-0.000314026
0.0030285
-0.000167547
0.00309381
-6.54593e-05
0.0030775
1.61559e-05
0.00298826
8.90831e-05
0.00282693
0.000161175
0.0025855
0.000241276
0.00224088
0.000344472
0.00173567
0.000505048
0.00159855
0.000962558
0.00127017
0.0015641
0.000742955
0.00218157
0.00355653
-0.000803671
0.00945454
-0.00157967
0.00402077
-0.00204815
0.00332681
-0.00236373
0.00262505
-0.002608
0.00214077
-0.00279345
0.00168582
-0.00292508
0.0012276
-0.00300357
0.000745139
-0.00302235
0.000214241
-0.0029648
-0.000389237
-0.00281765
-0.0010646
-0.00257396
-0.0018007
-0.00224028
-0.00254811
-0.00182377
-0.00320013
-0.0013184
-0.00362553
-0.000741854
-0.00380722
-0.000210519
-0.00378942
0.000266831
-0.0035361
0.0011274
-0.00298123
0.00149226
-0.00267155
0.00175023
-0.00226554
0.00200209
-0.00176708
0.00223164
-0.001279
0.00244577
-0.000848964
0.00264706
-0.000515314
0.00275771
-0.000278198
0.00279482
-0.000102569
0.00277002
4.09548e-05
0.0026896
0.000169506
0.00255589
0.000294876
0.00236756
0.000429612
0.00212206
0.000589975
0.0018274
0.000799701
0.00162095
0.00116901
0.00147889
0.00170616
0.00129922
0.00236124
0.00228917
0.00256658
0.00133567
0.000988407
0.00191572
-0.000551571
0.00203413
-0.000575755
0.0104767
-0.00132451
0.00476952
-0.00158387
0.00358617
-0.00174961
0.0027908
-0.00186352
0.00225468
-0.00193499
0.0017573
-0.00197048
0.00126309
-0.00197426
0.000748917
-0.00194311
0.000183095
-0.00185523
-0.000477118
-0.00170076
-0.00121908
-0.00146967
-0.00203179
-0.00116487
-0.00285291
-0.000792271
-0.00357273
-0.000372192
-0.00404561
6.83094e-05
-0.00424772
0.000473569
-0.00419468
0.000847809
-0.00391034
0.00129817
-0.00343159
0.00159602
-0.0029694
0.00179835
-0.00246786
0.00196908
-0.00193781
0.00212036
-0.00143027
0.0022548
-0.000983402
0.00235998
-0.000620497
0.00241889
-0.000337103
0.00243109
-0.000114769
0.0024017
7.03433e-05
0.00233537
0.00023583
0.00223572
0.000394526
0.00210656
0.000558779
0.00195465
0.000741878
0.00179427
0.000960085
0.00170173
0.00126155
0.00175675
0.00165114
0.00196652
0.00215147
0.00221086
0.00232224
0.0017314
0.00146787
0.000803658
0.000376168
0.00293505
-0.000543395
0.0115123
-0.00124342
0.00546955
-0.00119137
0.00353412
-0.00119951
0.00279894
-0.0011918
0.00224696
-0.00115837
0.00172388
-0.00110139
0.00120611
-0.00102656
0.000674081
-0.000928445
8.49826e-05
-0.000779769
-0.000625793
-0.000590626
-0.00140822
-0.000350332
-0.00227208
-6.59992e-05
-0.00313724
0.000239529
-0.00387826
0.000550147
-0.00435623
0.00084574
-0.00454332
0.00110885
-0.0044578
0.00134198
-0.00414347
0.00157308
-0.00366268
0.00173175
-0.00312807
0.00183059
-0.0025667
0.00189974
-0.00200696
0.00195499
-0.00148553
0.00200156
-0.00102997
0.00203421
-0.000653149
0.00204722
-0.000350109
0.0020371
-0.000104653
0.00200449
0.000102955
0.00195226
0.000288054
0.00188393
0.00046286
0.0018043
0.000638406
0.00172143
0.000824757
0.00164979
0.00103172
0.0016323
0.00127904
0.00171415
0.00156929
0.00191905
0.00194657
0.00217293
0.00206835
0.00220209
0.00143872
0.00163101
0.000947249
0.00466839
-0.000483609
0.0125314
-0.00105132
0.00603727
-0.000696833
0.00317963
-0.000635756
0.00273787
-0.000567303
0.0021785
-0.000462699
0.00161927
-0.000333908
0.00107732
-0.000183074
0.000523248
5.75643e-06
-0.000103848
0.000223543
-0.000843579
0.000463159
-0.00164784
0.0007212
-0.00253012
0.000978906
-0.00339495
0.00120852
-0.00410788
0.00140889
-0.00455661
0.00157089
-0.00470533
0.00168911
-0.00457602
0.00176823
-0.00422259
0.00182071
-0.00371517
0.00182986
-0.00313722
0.00180409
-0.00254093
0.00176255
-0.00196542
0.00172027
-0.00144325
0.00168482
-0.000994527
0.00165632
-0.000624645
0.00163092
-0.000324711
0.00160381
-7.75423e-05
0.00157266
0.000134107
0.0015375
0.000323216
0.00149936
0.000501004
0.00146091
0.000676856
0.00142762
0.000858047
0.00140928
0.00105006
0.00142793
0.00126039
0.00151057
0.00148664
0.00170836
0.00174878
0.00199131
0.00178541
0.00216109
0.00126894
0.0017502
0.00135813
0.00678279
0.00297878
0.0101398
0.00202324
0.00699281
0.000869694
0.00433318
0.000371345
0.00323622
0.000214579
0.00233527
0.000270952
0.0015629
0.000424608
0.000923663
0.000638077
0.000309778
0.000896913
-0.000362684
0.00116135
-0.00110801
0.00143977
-0.00192625
0.00170721
-0.00279757
0.00193424
-0.00362198
0.00209635
-0.00427
0.00218743
-0.00464769
0.00220987
-0.00472778
0.00217236
-0.00453851
0.0020885
-0.00413875
0.00197358
-0.00360025
0.00183329
-0.00299694
0.00167997
-0.00238761
0.00153061
-0.00181605
0.00139999
-0.00131264
0.00129654
-0.000891075
0.00122175
-0.000549857
0.00117107
-0.00027403
0.00113736
-4.38286e-05
0.00111527
0.0001562
0.00110113
0.000337355
0.00109245
0.000509681
0.00108877
0.000680539
0.00109183
0.000854986
0.00110558
0.00103631
0.00113871
0.00122726
0.00120248
0.00142287
0.00133407
0.00161719
0.00154476
0.00157472
0.00162771
0.00118602
0.000309305
0.00267654
0.00747437
0.00403237
0.00624766
0.00366861
0.00735657
0.00254281
0.00545899
0.00188938
0.00388965
0.00153283
0.00269182
0.001388
0.00170773
0.00142166
0.000889999
0.00159572
0.000135723
0.0018473
-0.000614268
0.00212403
-0.00138475
0.0024037
-0.00220592
0.00264914
-0.00304301
0.00281864
-0.00379148
0.00288499
-0.00433635
0.00284471
-0.0046074
0.00271142
-0.00459449
0.00250731
-0.00433441
0.00225664
-0.00388808
0.00198217
-0.00332579
0.00170106
-0.00271583
0.00143058
-0.00211713
0.00118863
-0.0015741
0.000990165
-0.00111417
0.00084181
-0.00074272
0.000743021
-0.000451067
0.00068541
-0.00021642
0.0006583
-1.6718e-05
0.000652823
0.000161677
0.000661851
0.000328327
0.000680393
0.000491139
0.000705769
0.000655164
0.000736493
0.000824262
0.0007704
0.0010024
0.000802285
0.00119537
0.000811572
0.00141358
0.000728278
0.00170049
0.000185812
0.0021172
-0.00176461
0.00313683
-0.00326828
0.00418038
0.00430893
0.00240946
0.00400273
0.00330455
0.00646148
0.00324853
0.00551501
0.00303781
0.00410037
0.00284691
0.00288272
0.00272367
0.00183097
0.00270965
0.000904026
0.00279828
4.7087e-05
0.00295973
-0.000775716
0.00316996
-0.00159498
0.00338743
-0.00242339
0.0035522
-0.00320778
0.00360942
-0.00384869
0.00353225
-0.00425917
0.00332596
-0.00440111
0.00301659
-0.00428513
0.00263848
-0.00395631
0.00222498
-0.00347459
0.00180564
-0.00290645
0.00140391
-0.0023141
0.00104132
-0.00175454
0.000737196
-0.00126998
0.00050586
-0.000882837
0.0003466
-0.00058346
0.000251756
-0.000356224
0.00020562
-0.000170283
0.000194481
-5.57942e-06
0.000207692
0.000148466
0.000237208
0.000298811
0.000278036
0.000450312
0.000327128
0.000606072
0.000381785
0.000769605
0.000437614
0.000946574
0.000486444
0.00114654
0.000503179
0.00139684
0.000425372
0.00177828
0.000105492
0.00243704
-0.000506764
0.00374942
-0.000856857
0.00453081
0.00356537
0.00145582
0.00274116
0.00274696
0.00517034
0.00343145
0.00483053
0.00371814
0.00381369
0.00381717
0.0027837
0.00384555
0.00180258
0.00388157
0.000868004
0.00395028
-2.16184e-05
0.00405963
-0.000885062
0.00419913
-0.00173448
0.0043177
-0.00254196
0.00434475
-0.00323482
0.00422856
-0.0037325
0.00395681
-0.00398741
0.00355192
-0.00399622
0.00305371
-0.00378692
0.00250609
-0.00340869
0.00194771
-0.00291621
0.00141253
-0.00237128
0.000926658
-0.00182823
0.00051679
-0.00134468
0.000200672
-0.000953862
-1.50352e-05
-0.00066713
-0.000145132
-0.000453363
-0.000212963
-0.000288393
-0.000238956
-0.000144291
-0.00023509
-9.44562e-06
-0.00020913
0.000122506
-0.000166433
0.000256114
-0.000110623
0.000394502
-4.43863e-05
0.000539836
2.98889e-05
0.00069533
0.00010935
0.000867113
0.000191203
0.00106469
0.000263111
0.00132493
0.00026603
0.00177531
0.000219442
0.00248341
0.000525709
0.00344305
0.000708074
0.00434848
0.00439267
0.00216657
0.000800558
0.00293893
0.00439798
0.00359154
0.00417791
0.00416351
0.00324172
0.00449254
0.00245467
0.00466759
0.00162753
0.00478449
0.000751112
0.00488846
-0.000125591
0.00499354
-0.000990144
0.00507044
-0.00181137
0.00505397
-0.00252547
0.00488398
-0.00306481
0.00453783
-0.00338634
0.00403443
-0.00348401
0.00341892
-0.0033807
0.00274231
-0.00311031
0.00205326
-0.00271963
0.00138961
-0.00225255
0.00078988
-0.00177156
0.000278766
-0.00131712
-0.000107412
-0.000958498
-0.000363982
-0.000697292
-0.000516865
-0.000514249
-0.000600927
-0.000369303
-0.000643042
-0.00024628
-0.000654642
-0.000132694
-0.000641899
-2.21885e-05
-0.000608823
8.94293e-05
-0.000558425
0.000205716
-0.000493781
0.000329858
-0.00041834
0.000464396
-0.00033583
0.000612821
-0.000249667
0.000780952
-0.000165515
0.000980542
-0.000109071
0.00126847
-0.000134481
0.00180056
-0.00011619
0.00246466
0.000486744
0.0028396
0.000898594
0.0039362
0.00542022
-0.00157659
0.00262226
0.00111738
0.00170402
0.0033496
0.00194569
0.00435378
0.00223753
0.00485947
0.00194898
0.00517507
0.00131193
0.00540286
0.000523318
0.00557914
-0.000301871
0.00567639
-0.0010874
0.00563324
-0.0017682
0.00539891
-0.00229113
0.00496157
-0.00262746
0.00434912
-0.00277386
0.00361485
-0.00274973
0.00281951
-0.00258534
0.0020137
-0.0023045
0.00124586
-0.00195178
0.000546575
-0.00155327
-3.83019e-05
-0.00118668
-0.000468466
-0.000886948
-0.000742008
-0.000684954
-0.000904445
-0.000534855
-0.0010016
-0.000417099
-0.00105624
-0.000314672
-0.0010817
-0.000220824
-0.00108333
-0.000131063
-0.00106372
-4.17976e-05
-0.00102473
5.04379e-05
-0.000968401
0.000149384
-0.000898101
0.000259559
-0.000819321
0.000385616
-0.000740431
0.000533932
-0.000675415
0.000715943
-0.000651671
0.000956825
-0.000712627
0.00132947
-0.00087521
0.00196311
-0.00112139
0.0027105
-0.00138657
0.00310416
-0.00128413
0.00383309
0.00428181
0.00288397
0.0045728
0.0048724
0.0016461
0.00536049
0.00174943
0.00559884
0.00171063
0.00583056
0.0010802
0.00601623
0.000337635
0.00608002
-0.000365671
0.00595148
-0.000958867
0.00559736
-0.00141408
0.00503014
-0.0017239
0.00429689
-0.00189419
0.00345638
-0.00193333
0.00256851
-0.00186184
0.00168943
-0.00170625
0.000853432
-0.0014685
0.000102871
-0.00120121
-0.000505742
-0.000944649
-0.000934929
-0.000757482
-0.00120367
-0.000618194
-0.00137154
-0.000517084
-0.00147521
-0.000431196
-0.00154035
-0.000351969
-0.00157823
-0.000276813
-0.00159352
-0.000205547
-0.00158766
-0.000136936
-0.00156123
-6.82299e-05
-0.00151574
4.9552e-06
-0.001453
8.66482e-05
-0.00137558
0.000182144
-0.00128987
0.000299905
-0.00120687
0.000450926
-0.00114479
0.000653872
-0.00113403
0.00094612
-0.00120777
0.00140341
-0.00137638
0.00213205
-0.00182572
0.00316015
-0.00294204
0.00422065
-0.0032585
0.00414957
0.00118607
0.00793757
0.00535744
0.00582006
0.00386693
0.00557173
0.0019589
0.00564138
0.00101047
0.00560365
0.000375283
0.00535844
-0.000120516
0.00489333
-0.000493768
0.00424812
-0.000768869
0.00347658
-0.000952337
0.00263268
-0.00105026
0.00175924
-0.00105988
0.000896133
-0.000998707
8.06004e-05
-0.000890699
-0.000627624
-0.000760257
-0.00117381
-0.000655006
-0.00155156
-0.000566869
-0.00180286
-0.000506161
-0.0019647
-0.000456357
-0.00207486
-0.000406929
-0.00215297
-0.000353117
-0.00220793
-0.000297053
-0.00224278
-0.00024201
-0.00225832
-0.000190039
-0.00225422
-0.000141046
-0.00222965
-9.27888e-05
-0.00218371
-4.09672e-05
-0.00211636
1.93172e-05
-0.00202733
9.3128e-05
-0.00191737
0.000189941
-0.00179186
0.000325378
-0.00166054
0.000522513
-0.00153422
0.000819794
-0.00141025
0.00127957
-0.00125467
0.00197685
-0.00102887
0.00293488
-0.00085667
0.00404894
-0.000609945
0.00390331
0.000750257
0.00411577
0.00148824
0.0045153
0.00346736
0.00374047
0.00273366
0.00323534
0.00151551
0.00288916
0.000721404
0.00252248
0.000246137
0.00207396
-4.52526e-05
0.00152998
-0.000224883
0.000910406
-0.000332753
0.000234936
-0.00037477
-0.000454288
-0.000370636
-0.00109537
-0.000357602
-0.0016367
-0.000349337
-0.0020484
-0.000348515
-0.00234324
-0.000360121
-0.00254236
-0.000367711
-0.00268447
-0.000364044
-0.00279595
-0.000344892
-0.00288976
-0.000313163
-0.00296871
-0.000274251
-0.00303217
-0.000233684
-0.00307904
-0.000195218
-0.00310856
-0.000160571
-0.0031197
-0.000129904
-0.0031101
-0.000102359
-0.00307472
-7.62719e-05
-0.00300699
-4.83339e-05
-0.00290157
-1.22471e-05
-0.00275292
4.12923e-05
-0.00255685
0.000129248
-0.00231312
0.00027865
-0.00201813
0.000524652
-0.00164217
0.000903514
-0.00111225
0.00144701
-0.000353526
0.00217648
0.000578513
0.00311726
0.00123661
0.00324564
0.00216347
-0.00259895
-0.00675694
-0.00740288
-0.00745611
-0.00374745
-0.00216714
-0.0016697
0.00138957
-0.000756203
0.00182009
-0.000557089
0.00131634
-0.000636657
0.000800931
-0.000824032
0.000433482
-0.00106755
0.000198249
-0.00135904
6.65896e-05
-0.00170154
9.73498e-06
-0.00207142
-4.88371e-06
-0.00243516
-6.87954e-06
-0.0027664
-2.63163e-05
-0.00303119
-8.44855e-05
-0.00321295
-0.000166686
-0.00333588
-0.000237133
-0.00343235
-0.000271214
-0.0035259
-0.000270511
-0.00362373
-0.000247136
-0.00372387
-0.000213136
-0.0038209
-0.000177361
-0.00390901
-0.000145702
-0.00398315
-0.000121184
-0.00403952
-0.000104258
-0.00407556
-9.38397e-05
-0.00408886
-8.89743e-05
-0.00407508
-8.99154e-05
-0.00402537
-9.78695e-05
-0.0039252
-0.000112253
-0.0037582
-0.000125589
-0.00350914
-0.000119779
-0.00316908
-6.15019e-05
-0.0027348
9.01516e-05
-0.00218347
0.00035189
-0.00142944
0.000692684
-0.000375017
0.00112191
0.000887331
0.00185497
0.0013448
0.00278835
0.00369017
-0.00734488
0.00104136
-0.00811401
-0.00668699
-0.00716937
-0.00311179
-0.00565074
-0.000129098
-0.00455789
0.000727179
-0.00396529
0.000723667
-0.0037047
0.000540278
-0.00363663
0.000365357
-0.0036778
0.000239372
-0.00377238
0.000161152
-0.00387805
0.000115415
-0.00396581
8.29081e-05
-0.00402157
4.89392e-05
-0.00405358
5.77108e-06
-0.00408386
-5.41122e-05
-0.00412967
-0.000120792
-0.00419803
-0.000168735
-0.00428473
-0.000184532
-0.0043806
-0.000174717
-0.00447639
-0.000151473
-0.00456533
-0.000124364
-0.00464339
-9.94843e-05
-0.00470856
-8.06772e-05
-0.00475996
-6.98988e-05
-0.00479704
-6.72085e-05
-0.00481935
-7.14849e-05
-0.00482599
-8.21976e-05
-0.00481461
-0.000101089
-0.00478043
-0.000131787
-0.00471549
-0.000176879
-0.00460835
-0.000232424
-0.004444
-0.000283856
-0.0042009
-0.000304451
-0.00384925
-0.000261536
-0.00336602
-0.000131626
-0.00272131
4.75094e-05
-0.00170682
0.000106918
6.06084e-05
8.71807e-05
0.00109507
0.00175378
0.0049721
0.00158293
-0.00503961
-0.00808852
-0.00815848
-0.00737718
-0.00660709
-0.00602695
-0.00562638
-0.00535472
-0.00516291
-0.00501746
-0.00490441
-0.00482472
-0.00478749
-0.00480974
-0.00489865
-0.00503573
-0.00518888
-0.00533244
-0.00545288
-0.00554625
-0.00561471
-0.00566436
-0.00570328
-0.00573967
-0.00578067
-0.00583291
-0.00590481
-0.00600841
-0.00615835
-0.0063653
-0.00662529
-0.00690753
-0.00714835
-0.00726052
-0.00719455
-0.00706996
-0.00696577
-0.00519558
)
;

boundaryField
{
    floor
    {
        type            calculated;
        value           nonuniform List<scalar> 
36
(
0
0
0
0
0
0
0
0
0
0
0
0
0
0
0
0
0
0
0
-6.43926e-06
-1.68847e-05
-2.60311e-05
-3.43055e-05
-3.4906e-05
-2.84798e-05
-2.85233e-05
-2.92047e-06
-5.44247e-06
-5.68883e-06
-5.90898e-06
-4.85429e-06
-8.94025e-06
-1.02101e-05
-1.28339e-05
-1.44558e-05
-1.5445e-05
)
;
    }
    ceiling
    {
        type            calculated;
        value           nonuniform List<scalar> 
43
(
-5.77893e-05
-6.44671e-05
-6.29339e-05
-5.9223e-05
-5.42122e-05
-4.65256e-05
-3.99607e-05
-3.53015e-05
-3.23332e-05
-3.06753e-05
-3.00029e-05
-3.00814e-05
-3.06589e-05
-3.13634e-05
-3.17751e-05
-3.18233e-05
-3.16537e-05
-3.14319e-05
-3.12612e-05
-3.11735e-05
-3.11526e-05
-3.11578e-05
-3.11377e-05
-3.10385e-05
-3.08089e-05
-3.04054e-05
-2.9796e-05
-2.8962e-05
-2.78978e-05
-2.66143e-05
-2.51522e-05
-2.35993e-05
-2.20879e-05
-2.07512e-05
-1.96594e-05
-1.87895e-05
-1.80478e-05
-1.73347e-05
-1.66334e-05
-1.68204e-05
1.93391e-05
1.51851e-05
-0.000246575
)
;
    }
    sWall
    {
        type            calculated;
        value           nonuniform List<scalar> 9(-0.000140239 -0.000164528 -0.000194258 -0.000225963 -0.000245114 -0.000281053 -0.000423495 -0.000453414 -0.000483778);
    }
    nWall
    {
        type            calculated;
        value           nonuniform List<scalar> 
14
(
-8.98918e-05
-9.72694e-05
-0.000102345
-0.000102912
-0.0001133
-0.000119332
-0.000129455
-0.000146127
-0.0001628
-0.000173489
-0.000176288
-0.000181778
-0.000186901
-0.000206755
)
;
    }
    sideWalls
    {
        type            empty;
        value           nonuniform 0();
    }
    glass1
    {
        type            calculated;
        value           nonuniform List<scalar> 9(-6.40344e-05 -0.000170322 -0.000257924 -0.000331209 -0.000393193 -0.000446399 -0.000492209 -0.000535489 -0.000587172);
    }
    glass2
    {
        type            calculated;
        value           nonuniform List<scalar> 2(-0.000364231 -0.000382394);
    }
    sun
    {
        type            calculated;
        value           uniform 0;
    }
    Table_master
    {
        type            calculated;
        value           nonuniform List<scalar> 9(-1.53992e-07 -1.54109e-07 -1.54141e-07 -1.54161e-07 -1.54174e-07 -1.54179e-07 -1.54178e-07 -1.54163e-07 -1.5411e-07);
    }
    Table_slave
    {
        type            calculated;
        value           nonuniform List<scalar> 9(1.53662e-07 1.53718e-07 1.53717e-07 1.53734e-07 1.53755e-07 1.53798e-07 1.53865e-07 1.53959e-07 1.54086e-07);
    }
    inlet
    {
        type            calculated;
        value           uniform -0.0116489;
    }
    outlet
    {
        type            calculated;
        value           nonuniform List<scalar> 2(0.00977943 0.0122601);
    }
}


// ************************************************************************* //
