/*--------------------------------*- C++ -*----------------------------------*=========                 |
  \      /  F ield         | OpenFOAM: The Open Source CFD Toolbox
   \    /   O peration     | Website:  https://openfoam.org
    \  /    A nd           | Version:  6
     \/     M anipulation  |
\*---------------------------------------------------------------------------*/
FoamFile
{
    version     2.0;
    format      ascii;
    class       volScalarField;
    location    "630";
    object      PPD;
}
// * * * * * * * * * * * * * * * * * * * * * * * * * * * * * * * * * * * * * //

dimensions      [0 0 0 0 0 0 0];

internalField   nonuniform List<scalar> 
458
(
41.47072135329133
29.486504697435507
28.016011127968838
26.76535464825848
26.003267327271814
25.639752073631712
25.743495624931214
26.361828876657086
27.611955603368585
29.735998133633913
32.98100020006211
36.40358869637882
37.21103337764125
37.61736606074052
38.24208071103293
44.17221223985348
43.441917754619574
43.26613366492544
43.59274530961189
43.869628732751096
44.07129064440971
43.84044823172861
43.61573396196338
43.66766359864482
43.76868650626219
43.927131351893905
44.10081218007413
44.33243074046732
44.67504158598992
45.27517341428361
45.71832363221755
45.947489530154414
46.713148896875474
38.01210298255888
30.025075329473196
29.463405990766717
28.195203814435473
27.460414784657814
27.09519847384091
27.16297972716734
27.500516775167952
28.144836880213433
29.236460237517377
31.0700925546536
33.93848762596879
37.02041410434601
37.56947361184737
37.92923595364811
35.82976713034992
35.83092108831953
36.922264974028806
41.70932480510157
42.76499544620919
42.76499544620919
43.16577439899238
43.31681899955882
43.2726454158597
43.27644811784758
43.361820255048755
43.40013774038243
43.41506585166848
43.438586629317015
43.50650362954167
43.59043226322238
43.730677491873024
44.18573994248091
44.62708966454465
44.98168538014493
44.09992652131065
39.625228004111726
29.61687434601059
30.94944746353434
30.255620589834137
29.94781851000829
29.760631435381924
29.777172506076084
29.612994966693563
29.022887854898343
28.50425470768461
29.005358870470445
31.19688365335871
35.58717800846391
37.905211149006306
38.24208071103293
38.38679498580779
38.43122049188456
37.441542034987414
37.16309567799619
40.40195946589527
40.903955386137
41.33806141146316
41.89763645445366
42.11029858460287
43.292422826508954
44.046069635723136
44.046069635723136
44.07129064440971
44.07129064440971
44.096515417999996
44.096515417999996
44.12174394766425
44.2731935078845
44.45005260709824
44.0764350523215
40.26399384793736
43.481227880701724
29.309052169558882
32.04553712173542
32.55347203683995
33.36248536396012
33.91455698388833
34.01005736259263
32.885477477871845
30.224927329773266
27.859505090724795
27.317733990799482
29.318500253510663
33.62158486720004
38.209020474892235
38.919135876869206
38.99193458408429
37.679710369226186
36.47177581354357
34.00099414026664
37.253222610335904
39.064088047144544
40.39090512638956
41.94897291020896
43.76193783211864
45.17258531427128
44.814600000917586
44.5078903860584
44.442862238136094
44.50379772499349
44.63478050405166
45.00672473849394
45.70718963957028
46.924954320534084
46.894999634512565
46.12590338656276
43.0123209502449
38.0204232777922
48.535574687587165
29.679629142391263
32.87016246842644
34.65640031850029
37.36408644272923
39.754714437966726
40.21014616443464
36.59100964483981
31.25690704887718
27.249833689138867
26.078036480698984
28.163226273544097
32.4612982469706
37.510478154267524
39.9182234198961
40.01616772015444
39.43461213951086
37.99267391668005
37.916341128766085
38.71071313846184
40.31504537622839
42.408142447452825
44.58660642929397
46.7372047470835
48.226097434987594
48.86440584218235
48.90943257792484
48.85945728856473
48.76466026837598
48.60556555884072
48.49214241602024
48.45472850413453
48.434957778311144
47.6118950162187
46.1708881811865
42.197048464879465
42.2231076668948
42.05864055571574
46.53596805248769
40.142308742783854
53.803948743978495
31.052040807279
34.33984753724965
36.22541432453339
40.494348703303075
44.47533279123934
46.432099478840215
38.08756244193907
31.205295284774735
26.538946444130744
25.25307857599799
27.48287331786348
32.26092361041695
38.07606583827695
41.346230837851685
41.668522151809405
41.54447127876266
41.61888799156419
42.23761882247508
43.31185247329248
45.093605588306964
46.78985840093733
48.251813780123975
49.462842535319616
50.36728410731473
50.98851162745667
51.403052103705384
51.63634909376347
51.7400613373229
51.688203391359764
51.4289700286521
51.06621605817642
50.12548590193457
48.506687566213394
46.51520579684543
42.785171199253355
42.45527872954179
42.08141383187197
43.392010371015864
43.80249360288644
58.826112753403244
35.17451638033633
40.30076725268786
39.16116754373284
41.99114622996937
46.20241211872375
42.807689164031174
36.57254492517605
29.84638789991166
25.322329526829336
24.472570899795954
27.461781881227395
33.32999352256236
40.43129467471995
43.34144561022806
43.9200213744984
43.970429287296625
44.24794262756716
45.209997704012494
46.58535616949674
48.09754968473009
49.540286671711264
50.75546358531688
51.688203391359764
52.33666331341729
52.725945862160415
52.933611318059484
53.01149300168189
52.95957147796174
52.777859443033385
52.44045904399627
51.921591692062606
51.35121933853837
50.43446126342786
48.00707430625607
44.678088778572814
43.15610383384302
42.05467587993305
40.59272729744972
46.20391586088375
66.33893690257177
54.83409791844972
51.650083273491106
45.33278153160902
44.189620905353856
43.620242520131086
39.92564310295942
32.94208659736047
26.261558346967078
22.93708816196738
23.730595301843337
28.6767629287352
36.63511830321023
43.81925143234708
45.99844957710325
46.66202329200234
46.89217672470226
47.430055722928856
48.48336062760348
49.74688068896373
51.014411929907695
52.07722123391465
52.907651573368156
53.45287951436015
53.790453264005166
53.92029370603307
53.946261886753234
53.89432554203475
53.738517499210815
53.50481224882217
53.167266452452694
52.69998981435463
52.12910391915267
51.48080891212149
50.75546358531688
49.95358168000942
49.44755763282277
47.96498047309385
43.718130545701214
39.24019018660807
76.57557264987001
69.49404210649601
61.0400708706068
53.25765536687514
48.264122016454714
44.41975787930544
34.606410982360984
24.782543907720253
19.738081783300117
19.7491775851459
24.185651044273612
33.21044250580387
43.0404171550458
47.250633389573366
48.84388891202971
49.540286671711264
50.005273043428026
50.67780356820025
51.58449852665547
52.518312312744094
53.34901660136896
53.99819825619027
54.33408890403011
54.098323880850636
53.78607615077202
53.411539312003775
52.987250767845275
52.517030494768335
51.95882160540048
51.33540880878205
50.620227123919435
49.810657631823766
49.05160426991995
48.142692843641015
47.091945727298175
46.136441757867274
45.52313285241181
45.299224474899404
44.77090147558035
43.10350359536719
59.62127724423488
17.008980477501126
5.805388099714435
5.000309215120382
5.4428561057001446
7.2722967850179145
11.817488520585883
20.091305122588594
32.317685993976326
42.915162956666805
48.277532367654345
49.35038428226631
49.81631416013274
50.275160216670514
50.85042061887584
51.54179753292298
52.18339966660351
52.64030797139724
52.869483902056146
52.88214649157495
52.73131374371178
52.476137107193026
52.111152051672754
51.705855654974926
51.23430638578188
50.76377835377643
50.295159595413345
49.864196917582646
49.55310996935935
49.34414936303302
49.193414214999756
49.092976430464674
48.987227040734005
49.02434326600992
49.59083455566791
51.56201374798647
55.22109442236715
46.957684491089324
60.25999076833854
12.226635792289954
5.002314402823785
7.023330187281445
10.656979145411569
17.769289200694573
28.13273677131278
39.1376787819972
44.07270186182827
46.383115556538286
47.932367969931775
48.81026164664405
49.445220451547726
49.934464561635785
50.37238434211984
50.774008013843485
51.104169194512366
51.35863565107447
51.5100621570901
51.53796303203594
51.4487301777716
51.32956682564096
51.16227348414972
50.98258788060515
50.79976231891904
50.62387895077694
50.493612340429074
50.43414557971445
50.44333012948935
50.58869880818354
50.95805467638261
51.58909424709562
52.2573225537773
52.82002470031001
53.40159419804482
55.318310332418605
52.49076371584335
49.28352714032364
32.055102288906596
31.995365979187312
26.48283432830746
5.908867634181362
7.895948235723154
18.01714136362817
29.78944518181777
36.852599411826716
41.36652608731233
44.193295859325396
46.021625916390335
47.32716490491616
48.15349140132319
48.59930011750327
48.895675874694156
49.053239356686106
49.14692523801053
49.14184566272518
49.05703239832497
48.939316854560786
48.8040340962024
48.632444603192766
48.4876406182957
48.34692556113637
48.27237371715377
48.21831387463558
48.22649457358744
48.31708144088223
48.51862808232375
48.87154651809983
49.38216534113791
50.1884361460144
51.455586758570895
53.66417794677844
56.929878650603534
57.240570845699224
55.74181934543888
52.46130620396082
49.64535393043704
50.38466591702468
)
;

boundaryField
{
    ".*"
    {
        type            zeroGradient;
    }
}


// ************************************************************************* //
