/*--------------------------------*- C++ -*----------------------------------*\
  =========                 |
  \\      /  F ield         | OpenFOAM: The Open Source CFD Toolbox
   \\    /   O peration     | Website:  https://openfoam.org
    \\  /    A nd           | Version:  6
     \\/     M anipulation  |
\*---------------------------------------------------------------------------*/
FoamFile
{
    version     2.0;
    format      ascii;
    class       volScalarField;
    location    "16000";
    object      nut;
}
// * * * * * * * * * * * * * * * * * * * * * * * * * * * * * * * * * * * * * //

dimensions      [0 2 -1 0 0 0 0];

internalField   nonuniform List<scalar> 
778
(
0.000894321
0.000953054
0.000949549
0.000990733
0.00102848
0.00106276
0.00109469
0.00112547
0.00115647
0.00118943
0.00122087
0.00125075
0.00128018
0.00131183
0.00134484
0.000632309
0.000905541
0.000912931
0.000890897
0.000853963
0.000804548
0.000755281
0.000709909
0.000669028
0.000632393
0.000599755
0.000570439
0.000543731
0.000518797
0.000494529
0.000469151
0.000448061
0.00040557
0.0013108
0.00258113
0.00226505
0.00261438
0.00286778
0.00313639
0.00340433
0.00365127
0.00385011
0.00396597
0.00403412
0.00400623
0.00380656
0.00331165
0.00241862
0.00147249
0.00140389
0.0013438
0.00113094
0.00192668
0.00267096
0.00311087
0.00313169
0.00247112
0.00211344
0.00186553
0.0016773
0.00152751
0.00139977
0.00128691
0.00118191
0.00107921
0.000987044
0.000907581
0.00102194
0.000514171
0.00166408
0.00360441
0.00267219
0.00382237
0.00427102
0.0046506
0.0049953
0.0052987
0.00555581
0.00575755
0.00595297
0.00615865
0.0063477
0.00646022
0.00638561
0.00584659
0.00427577
0.00164825
0.00142672
0.00305172
0.00425924
0.00483126
0.00439453
0.00115973
0.00100853
0.000891844
0.0008005
0.000727783
0.000669078
0.000621196
0.000582258
0.000551907
0.000606699
0.000713589
0.00112923
0.000584914
0.00200532
0.00485848
0.00255719
0.00429816
0.00496262
0.0053181
0.00557944
0.00577277
0.00591711
0.00603421
0.00620056
0.00648163
0.00689173
0.00740726
0.00792523
0.00818
0.00768047
0.0057289
0.00164141
0.00380112
0.0056535
0.00659509
0.0068283
0.00583038
0.00132022
0.00120093
0.00110862
0.00103182
0.00096634
0.000907519
0.000852054
0.000796972
0.000737499
0.000688961
0.000713924
0.00122167
0.00064408
0.00234208
0.00643323
0.00258025
0.00408618
0.00510797
0.00541132
0.00552156
0.00552599
0.00547128
0.00542286
0.00549253
0.00576561
0.00626667
0.00697597
0.00779819
0.00855521
0.00903505
0.00902872
0.00810263
0.00824366
0.00843178
0.00845807
0.00828662
0.00775729
0.00617428
0.00533402
0.00475841
0.00429076
0.00383193
0.0033874
0.00295246
0.00251799
0.00207155
0.00159141
0.00121473
0.00121202
0.000959383
0.00076757
0.00100483
0.000967014
0.00267373
0.00819649
0.00303805
0.00344595
0.00489446
0.00523122
0.00520473
0.00501778
0.00475031
0.0045296
0.00452475
0.00481091
0.00538198
0.00620459
0.00716676
0.00812726
0.00894454
0.00946627
0.00956065
0.00946378
0.00929506
0.00905655
0.0087507
0.00836194
0.00779448
0.00724766
0.00675109
0.00627104
0.00575263
0.00519896
0.00460747
0.00397307
0.00329171
0.00256892
0.00191539
0.00143837
0.00111666
0.00124606
0.0021553
0.00115864
0.00301229
0.00982798
0.004049
0.00282335
0.00439795
0.00494854
0.00488803
0.00458539
0.00414604
0.00375928
0.00374803
0.00410923
0.00476296
0.00568252
0.00672833
0.00776284
0.00865267
0.00928962
0.00958215
0.00955849
0.00934769
0.00902918
0.00866499
0.00830204
0.00795115
0.00762915
0.00732667
0.00700387
0.00661404
0.00614476
0.00558902
0.00494402
0.00421226
0.00341291
0.002633
0.00190673
0.00140483
0.00125055
0.00218428
0.00136217
0.00330364
0.0110649
0.00552157
0.00268889
0.00348383
0.00438674
0.00451327
0.00426473
0.00374511
0.00321926
0.00333848
0.00381616
0.00454711
0.00549471
0.00658084
0.00766385
0.00858716
0.00922838
0.00951925
0.00948044
0.00920851
0.00880788
0.00837727
0.00799561
0.00770152
0.0074914
0.00732757
0.00714965
0.00690219
0.00655583
0.00609679
0.00552213
0.00483739
0.00406383
0.00326213
0.00245592
0.00172945
0.00114501
0.00309418
0.00176934
0.00339339
0.0104836
0.00683756
0.0034781
0.00236272
0.00289441
0.00338728
0.00342951
0.00302847
0.00294424
0.00325029
0.00381196
0.0046019
0.00560626
0.00674414
0.00786036
0.00878056
0.00937259
0.00958039
0.00943695
0.00904315
0.0085266
0.00801418
0.00760551
0.00734619
0.00721878
0.00716089
0.00709236
0.00694998
0.00669982
0.00632823
0.00583355
0.00522226
0.00451239
0.00373698
0.00287125
0.00172295
0.00139533
0.00460675
0.00202745
0.00332468
0.0084576
0.00706653
0.00477689
0.00315416
0.00244194
0.00231235
0.00242082
0.00262483
0.00294932
0.00340893
0.0040406
0.00489887
0.0059807
0.00717967
0.00831127
0.00918357
0.00966433
0.00971493
0.00939228
0.00882342
0.00816825
0.0075834
0.00718294
0.00699952
0.0069778
0.00701697
0.00701578
0.00692313
0.00672003
0.00639987
0.0059619
0.00541024
0.00475155
0.00395461
0.00275111
0.00132259
0.00250445
0.00466673
0.00205744
0.00311433
0.00723046
0.00683504
0.00546895
0.004208
0.00338749
0.00298186
0.00289033
0.00305867
0.00336794
0.00381662
0.00448229
0.00542862
0.00661314
0.00787191
0.00897904
0.00973114
0.010012
0.00981659
0.00924238
0.00846074
0.00767735
0.0070823
0.00678414
0.00674968
0.00684654
0.00694401
0.00694529
0.00684717
0.0066499
0.00634901
0.00593944
0.00541782
0.00476781
0.00382241
0.0021344
0.00152725
0.0030322
0.00434201
0.00202657
0.00283589
0.00652017
0.0065949
0.005791
0.0049254
0.00427435
0.00389139
0.00375496
0.00378968
0.00397604
0.00438705
0.00512922
0.00622142
0.00753141
0.00881546
0.00981117
0.0103257
0.0102855
0.00974348
0.00885808
0.00786811
0.00704119
0.00657492
0.00648075
0.00656065
0.00668714
0.00677159
0.00674746
0.00663408
0.00643508
0.00614227
0.00574232
0.00521897
0.00453602
0.00333472
0.00158815
0.00187664
0.00324313
0.00408043
0.0019597
0.00258623
0.00583236
0.00629779
0.00591762
0.00536188
0.00489544
0.0045856
0.0044344
0.00438922
0.00454767
0.00506857
0.00603694
0.00735642
0.00877206
0.00997112
0.0106925
0.0107986
0.0102942
0.00932022
0.00812154
0.0070352
0.00634197
0.00603934
0.00599902
0.0060777
0.00618606
0.00625989
0.00624262
0.0061329
0.00593479
0.00563561
0.00521614
0.00465926
0.00392758
0.00279658
0.0015852
0.00198461
0.00336292
0.00444801
0.00193487
0.00259448
0.00578809
0.00643485
0.00598975
0.00553982
0.00517161
0.00490623
0.00473346
0.00472512
0.00511009
0.00602876
0.00739928
0.00894381
0.0103077
0.0111793
0.0113749
0.0108721
0.00978451
0.00838422
0.00702994
0.00605333
0.00548336
0.00520918
0.0051265
0.00515471
0.00523066
0.00529992
0.00530027
0.00519122
0.00497297
0.0046241
0.00412992
0.00351499
0.00285237
0.00220796
0.00169123
0.00205419
0.00353597
0.00459259
0.00206691
0.00234181
0.00243516
0.00359204
0.00421915
0.00441226
0.00441424
0.0043702
0.00444982
0.00498788
0.00613381
0.00774151
0.00947177
0.0109482
0.0118602
0.0120279
0.0114175
0.0101748
0.00852848
0.00695784
0.00573752
0.00492179
0.00444348
0.00420231
0.00409503
0.00405555
0.00404994
0.00405249
0.00401604
0.00386892
0.00360028
0.00319829
0.00270664
0.00224739
0.00194456
0.00183608
0.00191416
0.00241456
0.00399263
0.0046665
0.00209541
0.000807664
0.00146545
0.0022611
0.00290041
0.00364006
0.00489848
0.00674667
0.0087925
0.0106471
0.0120252
0.0127367
0.0126627
0.0118131
0.0102779
0.0084529
0.00672579
0.00536274
0.00444652
0.00393103
0.0036596
0.00349741
0.00337681
0.00327301
0.00317859
0.00308807
0.00298419
0.00282284
0.00258801
0.00230223
0.00204372
0.00191067
0.00194411
0.00212744
0.00246489
0.00309082
0.00458887
0.00502491
0.00212058
0.00149705
0.00207539
0.00302841
0.00473387
0.00705435
0.00937968
0.0111871
0.0124868
0.0132624
0.0134646
0.0130026
0.0117874
0.0100102
0.00802183
0.00622011
0.0048812
0.0040913
0.00369668
0.0034892
0.00334929
0.00323316
0.00313032
0.00304051
0.00296329
0.00289315
0.00281615
0.00271071
0.00257569
0.00243573
0.0023423
0.00235425
0.00249668
0.00275332
0.0031076
0.00358691
0.00426643
0.00468564
0.00203718
0.00275769
0.00666508
0.00611955
0.00546973
0.00696315
0.00930627
0.0112915
0.0126342
0.0133398
0.0135093
0.0132222
0.0124548
0.0111778
0.00944982
0.00753701
0.00583374
0.00467766
0.00407216
0.00377301
0.00358801
0.00343747
0.00330236
0.00318688
0.00310095
0.00305185
0.0030397
0.00305508
0.00307801
0.00308008
0.0030644
0.00305539
0.00307916
0.0031629
0.00332357
0.0035537
0.00381942
0.00406282
0.0041622
0.00401404
0.00199642
0.00263912
0.00509717
0.00657693
0.00839853
0.00933038
0.0103036
0.0108782
0.0110251
0.010818
0.0103084
0.00951559
0.00845048
0.00718742
0.00591559
0.00488024
0.00421672
0.00383379
0.00360186
0.0034294
0.00327592
0.00313419
0.00301282
0.00292646
0.00288979
0.00291259
0.00299558
0.00312654
0.00327683
0.0033992
0.00347897
0.00355354
0.00365184
0.00379385
0.00399161
0.00424914
0.00456066
0.00489972
0.0051945
0.00463793
0.00215867
0.00247374
0.00211944
0.00210865
0.00216963
0.00221993
0.00215277
0.00202193
0.00186816
0.001713
0.00156547
0.00142924
0.00130828
0.00120865
0.00113634
0.0010926
0.00107169
0.00106676
0.00106882
0.00107485
0.00108505
0.00110068
0.00112284
0.00115171
0.00118623
0.00122435
0.00126378
0.0013028
0.00134068
0.00137806
0.0014155
0.00145435
0.0014975
0.00154762
0.00160655
0.00167482
0.00175059
0.00182888
0.001907
0.00200686
0.00204331
)
;

boundaryField
{
    floor
    {
        type            nutkWallFunction;
        Cmu             0.09;
        kappa           0.41;
        E               9.8;
        value           nonuniform List<scalar> 
36
(
0.000160572
7.63744e-05
0.000109542
0.000110421
0.000107798
0.000103384
9.74432e-05
9.14774e-05
8.59423e-05
8.09189e-05
7.63858e-05
7.23204e-05
6.86458e-05
6.52778e-05
6.21152e-05
5.90189e-05
5.57607e-05
5.30361e-05
4.74965e-05
4.74964e-05
6.15262e-05
7.04628e-05
7.78355e-05
9.29705e-05
0.000121283
0.000116834
0.000160573
0.00017502
0.000167273
0.000160453
7.63744e-05
0.000160453
0.000136009
0.000194688
0.000169855
0.000193925
)
;
    }
    ceiling
    {
        type            nutkWallFunction;
        Cmu             0.09;
        kappa           0.41;
        E               9.8;
        value           nonuniform List<scalar> 
43
(
0.000284323
0.0002463
0.000245135
0.000251733
0.000257166
0.00024994
0.00023577
0.000218978
0.000201874
0.000185446
0.00017012
0.000156375
0.00014495
0.000136599
0.000131529
0.000129105
0.000128537
0.000128784
0.000129487
0.000130671
0.000132478
0.00013504
0.000138378
0.000142366
0.000146766
0.000151311
0.000155798
0.000160143
0.000164413
0.000168677
0.000173079
0.000177947
0.000183575
0.000190169
0.000197781
0.000206201
0.000214874
0.000223489
0.000234389
0.000238363
0.000270437
0.000280413
0.000177575
)
;
    }
    sWall
    {
        type            nutkWallFunction;
        Cmu             0.09;
        kappa           0.41;
        E               9.8;
        value           nonuniform List<scalar> 9(0.000373892 0.00035207 0.000322951 0.000296591 0.000297464 0.000270526 0.000314413 0.000301928 0.000284425);
    }
    nWall
    {
        type            nutkWallFunction;
        Cmu             0.09;
        kappa           0.41;
        E               9.8;
        value           nonuniform List<scalar> 
14
(
0.000116841
0.00013924
0.000162568
0.000239692
0.000236315
0.00022904
0.000226423
0.000240833
0.000243871
0.000246577
0.000237486
0.000233124
0.000251117
0.000238399
)
;
    }
    sideWalls
    {
        type            empty;
    }
    glass1
    {
        type            nutkWallFunction;
        Cmu             0.09;
        kappa           0.41;
        E               9.8;
        value           nonuniform List<scalar> 9(0.000108249 0.000156885 0.000196741 0.000234357 0.000270802 0.000306153 0.00034177 0.000372089 0.000381384);
    }
    glass2
    {
        type            nutkWallFunction;
        Cmu             0.09;
        kappa           0.41;
        E               9.8;
        value           nonuniform List<scalar> 2(0.000208246 0.000236575);
    }
    sun
    {
        type            nutkWallFunction;
        Cmu             0.09;
        kappa           0.41;
        E               9.8;
        value           nonuniform List<scalar> 
14
(
0.000108208
0.00011518
0.000114765
0.000119627
0.000124062
0.000128075
0.000131798
0.000135376
0.000138968
0.000142775
0.000146396
0.000149827
0.000153198
0.000156812
)
;
    }
    Table_master
    {
        type            nutkWallFunction;
        Cmu             0.09;
        kappa           0.41;
        E               9.8;
        value           nonuniform List<scalar> 9(0.000139335 0.000121715 0.000107908 9.69543e-05 8.81294e-05 8.09286e-05 7.49994e-05 7.01371e-05 6.63195e-05);
    }
    Table_slave
    {
        type            nutkWallFunction;
        Cmu             0.09;
        kappa           0.41;
        E               9.8;
        value           nonuniform List<scalar> 9(0.000157758 0.000144091 0.000133409 0.000124446 0.000116744 0.000109774 0.000103153 9.65283e-05 8.93144e-05);
    }
    inlet
    {
        type            calculated;
        value           uniform 0.000167705;
    }
    outlet
    {
        type            calculated;
        value           nonuniform List<scalar> 2(0.00275769 0.00666508);
    }
}


// ************************************************************************* //
