/*--------------------------------*- C++ -*----------------------------------*\
  =========                 |
  \\      /  F ield         | OpenFOAM: The Open Source CFD Toolbox
   \\    /   O peration     | Website:  https://openfoam.org
    \\  /    A nd           | Version:  6
     \\/     M anipulation  |
\*---------------------------------------------------------------------------*/
FoamFile
{
    version     2.0;
    format      ascii;
    class       volScalarField;
    location    "47100.0000006084083";
    object      alphat;
}
// * * * * * * * * * * * * * * * * * * * * * * * * * * * * * * * * * * * * * //

dimensions      [1 -1 -1 0 0 0 0];

internalField   nonuniform List<scalar> 
778
(
0.00104102
0.00111059
0.00110659
0.00115462
0.00119863
0.0012386
0.0012758
0.00131166
0.00134776
0.00138614
0.00142273
0.00145751
0.00149179
0.00152867
0.00156716
0.00073667
0.00105569
0.00106417
0.00103836
0.000995222
0.000937599
0.000880219
0.000827404
0.000779802
0.000737114
0.000699059
0.00066487
0.000633719
0.000604643
0.000576347
0.000546763
0.000522192
0.000472643
0.0015247
0.00300744
0.0026394
0.00304654
0.00334198
0.00365517
0.00396751
0.00425531
0.00448691
0.00462172
0.004701
0.00466846
0.00443587
0.00385939
0.0028189
0.00171609
0.00163621
0.00156629
0.00131905
0.00224678
0.00311424
0.00362646
0.00365026
0.00288041
0.00246348
0.00217433
0.00195483
0.00178032
0.00163163
0.00150017
0.0013778
0.00125807
0.00115062
0.00105796
0.00119162
0.000599336
0.00193419
0.00419902
0.00311345
0.00445341
0.00497619
0.00541849
0.00582007
0.00617337
0.00647258
0.00670714
0.00693455
0.00717412
0.00739471
0.00752677
0.00744152
0.00681526
0.00498552
0.00192149
0.00166362
0.00355851
0.00496696
0.00563389
0.00512474
0.00135219
0.00117576
0.00103959
0.000933028
0.000848245
0.000779837
0.000724064
0.000678711
0.000643352
0.000707203
0.000831888
0.00131726
0.000681956
0.00232917
0.00565878
0.00297914
0.00500687
0.00578071
0.00619458
0.00649871
0.00672351
0.00689111
0.00702689
0.00722028
0.00754752
0.00802555
0.00862734
0.00923318
0.00953344
0.00895557
0.00668675
0.00191345
0.00442611
0.00658804
0.00768895
0.00796223
0.00679916
0.00153939
0.00140025
0.00129253
0.00120287
0.00112646
0.00105785
0.000993179
0.000928974
0.000859645
0.000802996
0.000832256
0.00142604
0.000751067
0.00271845
0.00749101
0.00300574
0.00475917
0.00594882
0.00630159
0.00642937
0.00643386
0.00636945
0.00631237
0.00639302
0.00671069
0.00729432
0.00812158
0.00908166
0.00996691
0.0105287
0.010523
0.00944357
0.00960757
0.00982866
0.00986118
0.00966223
0.0090453
0.00719956
0.00621954
0.00554807
0.00500309
0.0044679
0.00394913
0.00344148
0.00293459
0.00241411
0.0018544
0.00141511
0.00141336
0.00111848
0.0008957
0.00118293
0.00113607
0.00310142
0.00954129
0.00353879
0.00401296
0.00569925
0.00609064
0.0060589
0.00584028
0.005528
0.00527046
0.00526443
0.00559723
0.00626214
0.00722125
0.00834403
0.0094665
0.0104207
0.0110305
0.0111417
0.01103
0.010835
0.0105585
0.0102027
0.00974973
0.00908803
0.00845015
0.0078708
0.00731121
0.00670635
0.00606009
0.00536977
0.00462976
0.00383547
0.00299286
0.00223017
0.00167453
0.00130074
0.00145592
0.00253
0.00135914
0.00349221
0.0114364
0.00471585
0.00328763
0.00512052
0.0057608
0.0056893
0.00533587
0.00482348
0.00437299
0.00435991
0.00478024
0.0055415
0.00661418
0.00783416
0.00904201
0.010081
0.0108247
0.0111666
0.0111402
0.010896
0.010526
0.0101023
0.00967952
0.00927049
0.00889495
0.00854201
0.00816556
0.00771037
0.00716228
0.00651352
0.00576113
0.00490798
0.00397552
0.00306396
0.00221597
0.0016328
0.00145552
0.00257744
0.00160113
0.00382796
0.0128689
0.00642877
0.00313093
0.00405568
0.0051066
0.00525308
0.00496276
0.0043571
0.00374493
0.00388355
0.00443977
0.00529182
0.00639765
0.00766586
0.00893039
0.0100078
0.0107555
0.0110946
0.0110498
0.0107338
0.010268
0.00976687
0.00932237
0.00897974
0.00873494
0.00854391
0.00833636
0.00804701
0.00764201
0.00710579
0.00643524
0.0056365
0.00473279
0.00379257
0.00284629
0.00199183
0.00134306
0.00366344
0.00208926
0.0039291
0.0121728
0.00795136
0.0040486
0.00274954
0.00336808
0.00394258
0.00399154
0.00352421
0.00342498
0.00378061
0.00443521
0.00535771
0.00653191
0.0078622
0.00916584
0.0102387
0.0109274
0.011168
0.0110003
0.010542
0.00994107
0.00934461
0.00886861
0.00856658
0.00841847
0.0083513
0.00827147
0.00810466
0.00781169
0.00737723
0.00679963
0.00608576
0.00525415
0.00434113
0.00331738
0.00192122
0.00172182
0.00556163
0.00239935
0.00384952
0.00980944
0.0082077
0.0055548
0.00366958
0.00284064
0.00268964
0.00281607
0.00305257
0.00342895
0.00396381
0.0047016
0.0057067
0.00697459
0.00837833
0.00970003
0.0107152
0.0112716
0.0113271
0.0109497
0.0102875
0.00952551
0.00884463
0.0083779
0.00816433
0.0081399
0.00818644
0.00818563
0.00807694
0.007839
0.00746479
0.00695361
0.00630883
0.00553618
0.00461235
0.00320596
0.00139233
0.00342575
0.00518603
0.002423
0.00360569
0.00838226
0.00793317
0.00635375
0.00489149
0.0039382
0.00346617
0.00335893
0.00355364
0.0039129
0.00443659
0.00521715
0.00632942
0.00772129
0.00919669
0.0104886
0.0113601
0.0116796
0.0114463
0.0107758
0.0098669
0.00895603
0.00826234
0.00791436
0.00787549
0.00799098
0.00810608
0.0081084
0.00799308
0.00776233
0.00741203
0.00693572
0.00632678
0.00556834
0.00456805
0.00284393
0.00152998
0.00378716
0.0050924
0.00239555
0.00328282
0.00755755
0.00765137
0.00672364
0.00572128
0.00496597
0.0045209
0.00436154
0.00440097
0.0046183
0.00510088
0.00597551
0.00726383
0.0088062
0.010311
0.0114685
0.0120566
0.0119971
0.0113586
0.010327
0.00917698
0.00821389
0.00766764
0.00756046
0.00766069
0.00781342
0.00791135
0.0078829
0.00774837
0.00751562
0.00717656
0.00670845
0.00608734
0.00526534
0.00414858
0.00260142
0.00171191
0.00383623
0.00568603
0.00239609
0.00299333
0.00676113
0.00730596
0.00686819
0.00622523
0.00568465
0.00532491
0.00514884
0.00509691
0.00528437
0.00589982
0.0070454
0.00860546
0.0102729
0.0116735
0.0125012
0.0126033
0.0119982
0.0108579
0.00946307
0.008197
0.0073857
0.00703622
0.00700695
0.00711956
0.00725375
0.00733071
0.00730155
0.00716319
0.00692764
0.00657923
0.00607629
0.00535085
0.00434632
0.00314727
0.00215641
0.00203848
0.00403607
0.00564794
0.00255578
0.00300442
0.006711
0.00746525
0.00695079
0.00643026
0.00600387
0.00569635
0.00549702
0.00549092
0.00594683
0.00703411
0.00865808
0.0104849
0.0120864
0.0130911
0.0132892
0.0126702
0.0113841
0.00975132
0.00816757
0.00702093
0.00636079
0.00607177
0.00602215
0.00609246
0.00618529
0.00623541
0.00620659
0.00605475
0.00579607
0.00539474
0.00476767
0.00384236
0.00277989
0.00206079
0.00197329
0.00256401
0.00460329
0.00576603
0.00259918
0.00271031
0.0028204
0.00416548
0.00489743
0.00512465
0.00512923
0.00508066
0.00517802
0.00581172
0.00716295
0.00906553
0.0111148
0.0128549
0.0139099
0.0140695
0.0133087
0.0118191
0.00988323
0.0080385
0.0066027
0.00565881
0.00513926
0.00491854
0.00485713
0.00485131
0.00483732
0.0047837
0.00467871
0.00449393
0.00420949
0.00380481
0.00322036
0.00250963
0.00199118
0.00195361
0.00239034
0.00327007
0.00482106
0.00603216
0.00249906
0.000964311
0.00173804
0.00266521
0.00340824
0.00427295
0.0057455
0.00791335
0.0103213
0.0125097
0.0141323
0.0149533
0.0148271
0.0137754
0.011925
0.00974578
0.00769864
0.00609457
0.00504413
0.00448843
0.00423348
0.00410949
0.00401965
0.00391718
0.00378468
0.00362453
0.00344984
0.00327257
0.00307289
0.00284321
0.00256443
0.00226969
0.00212785
0.00233324
0.00291701
0.00376787
0.00462644
0.00494897
0.00238757
0.00178755
0.00246702
0.00358669
0.00558882
0.00830892
0.0110324
0.0131419
0.0146618
0.0155721
0.0158001
0.0152241
0.0137365
0.0115802
0.00918142
0.00701849
0.00544012
0.00454993
0.00415272
0.00399126
0.00391101
0.0038436
0.00376277
0.00366332
0.00355175
0.00343908
0.00333401
0.003238
0.00314212
0.00304065
0.00293479
0.00284024
0.00282363
0.00301622
0.0035245
0.00431388
0.00515761
0.00568917
0.00237415
0.00323887
0.00787119
0.00726021
0.00648559
0.0082224
0.010948
0.0132445
0.0147945
0.0156132
0.0158121
0.0154731
0.0145424
0.0129738
0.0108361
0.00846485
0.00639906
0.00507265
0.00445634
0.00423639
0.00416781
0.00413523
0.00409368
0.00402992
0.00394575
0.00385022
0.00375515
0.00367274
0.00361428
0.00358847
0.00359791
0.00363184
0.00367975
0.0037506
0.00388696
0.00415451
0.00464051
0.00543941
0.00666951
0.00690399
0.00265275
0.00309546
0.00597858
0.0077133
0.00987286
0.01095
0.0120587
0.0127013
0.0128537
0.0126067
0.0120175
0.0110956
0.00982623
0.00825846
0.00661528
0.00525112
0.00441885
0.00404373
0.00392464
0.00391396
0.00393355
0.00394547
0.0039338
0.00389568
0.00383579
0.00376285
0.00368882
0.00363014
0.00360838
0.00364759
0.00376785
0.00397552
0.00424511
0.00451689
0.00479179
0.0051578
0.00570086
0.006493
0.00775201
0.00751633
0.00278497
0.00289434
0.00248106
0.00246866
0.00254062
0.00259989
0.00252189
0.00237077
0.00219375
0.00201408
0.00183963
0.00167261
0.00151786
0.00138719
0.00129483
0.00124635
0.00122951
0.00123092
0.00124064
0.00125339
0.00126682
0.00128023
0.00129405
0.0013096
0.00132892
0.00135464
0.00138966
0.00143647
0.00149623
0.0015679
0.00164842
0.00173409
0.00182251
0.0019143
0.0020091
0.00210826
0.00221544
0.00233166
0.00246081
0.00260501
0.0025364
)
;

boundaryField
{
    floor
    {
        type            compressible::alphatWallFunction;
        Prt             0.85;
        value           nonuniform List<scalar> 
36
(
0.00021986
0.00010446
0.00014998
0.000151166
0.000147553
0.000141491
0.000133345
0.000125176
0.000117601
0.000110725
0.000104516
9.89441e-05
9.39072e-05
8.92907e-05
8.49566e-05
8.07144e-05
7.62513e-05
7.25221e-05
6.49349e-05
6.49341e-05
8.4164e-05
9.64294e-05
0.000106551
0.00012739
0.000167691
0.0001612
0.000219858
0.000239682
0.000229072
0.000219738
0.000104459
0.000219736
0.000186343
0.000266713
0.000232712
0.000265662
)
;
    }
    ceiling
    {
        type            compressible::alphatWallFunction;
        Prt             0.85;
        value           nonuniform List<scalar> 
43
(
0.000391129
0.000338952
0.00033738
0.00034654
0.000354073
0.000344213
0.000324981
0.000302274
0.000279019
0.000256218
0.000234159
0.000213494
0.000195848
0.000183257
0.000176602
0.00017428
0.000174472
0.000175811
0.000177569
0.000179418
0.000181261
0.000183154
0.000185272
0.000187892
0.000191365
0.00019608
0.000202371
0.000210388
0.000219985
0.000230741
0.000242148
0.000253871
0.000265975
0.000278422
0.000291357
0.000305241
0.0003202
0.000336722
0.000355039
0.000346174
0.000368324
0.000382164
0.000248638
)
;
    }
    sWall
    {
        type            compressible::alphatWallFunction;
        Prt             0.85;
        value           nonuniform List<scalar> 9(0.00050761 0.000477865 0.000438162 0.000402228 0.000403603 0.000366749 0.000432092 0.000414359 0.000389378);
    }
    nWall
    {
        type            compressible::alphatWallFunction;
        Prt             0.85;
        value           nonuniform List<scalar> 
14
(
0.000160752
0.000191356
0.000223936
0.000331083
0.000327635
0.000327859
0.000348187
0.000353626
0.000340511
0.000326398
0.000324952
0.000360327
0.00037683
0.00034548
)
;
    }
    sideWalls
    {
        type            empty;
    }
    glass1
    {
        type            compressible::alphatWallFunction;
        Prt             0.85;
        value           nonuniform List<scalar> 9(0.000143931 0.000209139 0.000262698 0.000313308 0.000362384 0.000410009 0.000458022 0.00049888 0.000511236);
    }
    glass2
    {
        type            compressible::alphatWallFunction;
        Prt             0.85;
        value           nonuniform List<scalar> 2(0.000285929 0.000325694);
    }
    sun
    {
        type            compressible::alphatWallFunction;
        Prt             0.85;
        value           nonuniform List<scalar> 
14
(
0.000147965
0.000157652
0.000157095
0.000163762
0.000169844
0.000175344
0.000180446
0.000185348
0.000190268
0.00019548
0.000200437
0.000205134
0.00020975
0.000214704
)
;
    }
    Table_master
    {
        type            compressible::alphatWallFunction;
        Prt             0.85;
        value           nonuniform List<scalar> 9(0.000191124 0.000166934 0.000147979 0.000132946 0.00012084 0.000110969 0.000102843 9.61805e-05 9.09482e-05);
    }
    Table_slave
    {
        type            compressible::alphatWallFunction;
        Prt             0.85;
        value           nonuniform List<scalar> 9(0.00021641 0.000197655 0.000182991 0.000170681 0.000160106 0.00015054 0.000141458 0.000132373 0.000122479);
    }
    inlet
    {
        type            fixedValue;
        value           uniform 1.94e-05;
    }
    outlet
    {
        type            zeroGradient;
    }
}


// ************************************************************************* //
