/*--------------------------------*- C++ -*----------------------------------*\
  =========                 |
  \\      /  F ield         | OpenFOAM: The Open Source CFD Toolbox
   \\    /   O peration     | Website:  https://openfoam.org
    \\  /    A nd           | Version:  6
     \\/     M anipulation  |
\*---------------------------------------------------------------------------*/
FoamFile
{
    version     2.0;
    format      ascii;
    class       volScalarField;
    location    "39999.9999991619479";
    object      nut;
}
// * * * * * * * * * * * * * * * * * * * * * * * * * * * * * * * * * * * * * //

dimensions      [0 2 -1 0 0 0 0];

internalField   nonuniform List<scalar> 
778
(
0.000894328
0.000953097
0.000949627
0.000990841
0.00102861
0.0010629
0.00109481
0.00112558
0.00115654
0.00118945
0.00122082
0.00125061
0.00127997
0.00131154
0.0013445
0.000632169
0.000905408
0.000912641
0.000890488
0.000853491
0.000804108
0.000754939
0.000709669
0.000668854
0.000632245
0.00059961
0.000570291
0.00054358
0.00051865
0.00049439
0.000469026
0.000447971
0.000405515
0.00131081
0.00258127
0.00226513
0.00261452
0.0028681
0.00313693
0.00340505
0.00365207
0.00385083
0.00396644
0.00403434
0.00400615
0.0038062
0.00331118
0.00241821
0.00147206
0.00140348
0.00134348
0.00113143
0.00192695
0.00267061
0.00310959
0.00312989
0.00247006
0.00211252
0.00186457
0.0016764
0.00152683
0.00139935
0.00128661
0.00118168
0.00107901
0.000986864
0.000907417
0.00102228
0.00051417
0.00166408
0.00360464
0.00267232
0.0038224
0.00427128
0.00465115
0.00499609
0.00529956
0.00555651
0.00575781
0.00595282
0.00615793
0.00634637
0.0064585
0.00638406
0.00584581
0.00427593
0.00164807
0.00142694
0.00305237
0.00426014
0.00483161
0.00439453
0.00115949
0.00100817
0.000891397
0.000800044
0.000727371
0.000668737
0.000620929
0.000582049
0.000551734
0.000606545
0.000713549
0.00113031
0.00058503
0.00200532
0.00485884
0.00255737
0.00429812
0.00496273
0.00531848
0.00558006
0.00577351
0.00591776
0.00603447
0.00620042
0.00648082
0.00689006
0.00740488
0.0079228
0.0081786
0.00768163
0.0057354
0.00164119
0.00379637
0.00565127
0.00659545
0.00682928
0.00583113
0.0013202
0.00120082
0.00110839
0.00103148
0.000965947
0.000907111
0.000851659
0.0007966
0.000737135
0.000688616
0.000713859
0.00122403
0.000644255
0.00234209
0.00643378
0.00258051
0.00408615
0.00510796
0.00541148
0.00552188
0.00552639
0.0054716
0.00542289
0.00549217
0.00576447
0.00626433
0.00697244
0.00779401
0.00855132
0.00903158
0.00902563
0.00809953
0.00824046
0.00843048
0.00845842
0.00828748
0.00775782
0.00617439
0.0053336
0.00475757
0.00428997
0.00383091
0.00338602
0.00295071
0.00251608
0.00206983
0.00158988
0.00121314
0.00121235
0.00095937
0.000768497
0.00101934
0.000976483
0.00267375
0.00819721
0.00303851
0.00344595
0.00489443
0.00523122
0.00520473
0.0050177
0.00475006
0.00452922
0.00452415
0.00480958
0.00537924
0.0062003
0.00716118
0.00812178
0.00893851
0.00946066
0.00955579
0.00946031
0.00929345
0.00905646
0.0087513
0.00836245
0.00779454
0.00724715
0.00675004
0.00626978
0.00575078
0.00519637
0.00460426
0.00396961
0.00328849
0.0025659
0.00191153
0.00143523
0.00111493
0.00125236
0.00218314
0.00116713
0.00301235
0.00982872
0.00404987
0.00282335
0.00439801
0.00494853
0.00488782
0.00458489
0.00414527
0.00375866
0.00374772
0.00410855
0.00476094
0.00567922
0.00672315
0.00775672
0.00864611
0.00928319
0.00957646
0.00955431
0.00934541
0.00902854
0.00866532
0.00830267
0.0079517
0.00762946
0.00732659
0.00700343
0.0066127
0.00614233
0.00558563
0.00494015
0.00420838
0.00340859
0.0026262
0.00189788
0.00139806
0.00124972
0.00222569
0.00137719
0.00330372
0.0110654
0.00552282
0.00268895
0.00348392
0.00438717
0.00451341
0.00426445
0.00374486
0.00321914
0.00333878
0.00381642
0.00454666
0.0054932
0.00657818
0.00766004
0.00858225
0.00922274
0.00951371
0.009476
0.00920587
0.00880705
0.0083777
0.00799667
0.00770285
0.00749289
0.00732901
0.00715081
0.00690237
0.00655466
0.00609435
0.00551888
0.00483364
0.00405836
0.00325087
0.00243563
0.00169944
0.00115035
0.00319547
0.00180826
0.0033934
0.0104825
0.00683844
0.00347862
0.00236193
0.00289421
0.00338824
0.00343041
0.00302936
0.0029446
0.00325073
0.00381276
0.0046032
0.00560805
0.00674592
0.00786108
0.00877926
0.0093692
0.00957591
0.00943295
0.0090409
0.00852643
0.00801557
0.00760771
0.00734881
0.00722185
0.0071643
0.0070958
0.00695262
0.00670111
0.00632812
0.00583239
0.00521998
0.00450644
0.00372162
0.00283889
0.00162751
0.00149033
0.00492586
0.00207381
0.0033246
0.00845611
0.00706658
0.00477735
0.00315376
0.00244083
0.00231147
0.00242063
0.00262436
0.00294857
0.00340861
0.00404169
0.00490248
0.00598722
0.0071878
0.00831839
0.00918726
0.00966392
0.00971188
0.00938913
0.00882238
0.00816991
0.0075868
0.00718691
0.00700378
0.00698286
0.00702295
0.00702237
0.00692932
0.00672529
0.0064043
0.00596597
0.0054133
0.0047505
0.00395964
0.00279046
0.00119551
0.00295637
0.00455381
0.00209578
0.00311415
0.00722949
0.00683489
0.00546902
0.00420743
0.00338609
0.00297983
0.0028878
0.00305582
0.00336532
0.00381523
0.00448414
0.00543604
0.00662662
0.00788865
0.00899408
0.00974017
0.010014
0.00981427
0.00923994
0.00846157
0.0076815
0.00708728
0.00678881
0.00675524
0.00685454
0.00695387
0.00695588
0.00685735
0.00665973
0.0063596
0.00595199
0.00543034
0.00477716
0.00391989
0.00255725
0.00125981
0.00320227
0.0046894
0.00208787
0.00283571
0.0065205
0.00659551
0.00579135
0.00492509
0.00427328
0.00388954
0.00375214
0.00378622
0.0039727
0.00438574
0.00513382
0.00623572
0.00755524
0.00884323
0.00983455
0.0103385
0.0102874
0.00973983
0.0088554
0.0078702
0.0070449
0.00657577
0.00648331
0.00656959
0.00670204
0.00678707
0.00676226
0.00664719
0.00644749
0.00615688
0.00575702
0.00522108
0.00449395
0.00348515
0.00220805
0.00148958
0.00322659
0.0050941
0.00214832
0.00258632
0.00583622
0.00630119
0.00591955
0.0053627
0.00489534
0.00458457
0.00443244
0.00438644
0.0045448
0.00506933
0.00604803
0.00738248
0.00881037
0.0100113
0.0107219
0.01081
0.0102904
0.00931185
0.00811536
0.0070302
0.00633242
0.00602942
0.00600359
0.00610387
0.00622447
0.00629319
0.00626629
0.00614671
0.00594308
0.00564343
0.00521093
0.00456948
0.00363302
0.00250255
0.00172895
0.00182493
0.00355941
0.00505676
0.00226237
0.00259529
0.00579361
0.00643969
0.00599271
0.00554154
0.00517228
0.00490586
0.00473221
0.00472248
0.00510783
0.00603451
0.00742259
0.00898762
0.0103634
0.0112294
0.0114026
0.0108719
0.00976691
0.00836563
0.00700487
0.0060165
0.00544279
0.00519107
0.00515287
0.00522475
0.00531677
0.00536469
0.00533416
0.00519915
0.00497422
0.00463403
0.00410444
0.00328627
0.0022975
0.00166564
0.00169508
0.00233653
0.00401381
0.0053293
0.00225391
0.00234235
0.00243613
0.00359193
0.00421852
0.00441131
0.00441295
0.00436866
0.00444678
0.00498236
0.0061325
0.0077576
0.00951453
0.0110139
0.0119302
0.0120772
0.0114282
0.0101477
0.00848342
0.00689499
0.00565359
0.00483289
0.00438092
0.00419381
0.00415302
0.00416666
0.00417181
0.00413208
0.00403407
0.00385884
0.0036108
0.00328127
0.0028204
0.00222117
0.00171757
0.0016471
0.00206804
0.00288162
0.00399767
0.00477945
0.00212006
0.000806694
0.00146264
0.00225607
0.002895
0.00363492
0.00488876
0.00673763
0.0087986
0.0106825
0.0120921
0.0128204
0.0127333
0.0118419
0.0102535
0.00837398
0.00660401
0.00521185
0.00429776
0.00381455
0.00359652
0.00349876
0.00343676
0.00336508
0.00326134
0.00312246
0.00296079
0.00279429
0.00262112
0.00244391
0.00224684
0.00202469
0.00186417
0.00196038
0.00243628
0.00321743
0.00403656
0.0043703
0.00202113
0.00149747
0.002073
0.00302403
0.00472603
0.0070422
0.00937221
0.0111879
0.0125098
0.0133182
0.0135465
0.0130843
0.0118272
0.00997902
0.00790692
0.00602626
0.00464536
0.0038618
0.00351057
0.00337127
0.00331056
0.00326667
0.00321181
0.00313618
0.0030428
0.00294299
0.00284924
0.00276799
0.00269567
0.0026284
0.00256461
0.00250879
0.00249162
0.00260095
0.00297177
0.00367669
0.00462237
0.00544981
0.00210381
0.00275765
0.00668147
0.00613701
0.00547194
0.00695369
0.00928658
0.0112652
0.0126131
0.0133388
0.0135347
0.0132756
0.0125065
0.01118
0.00934401
0.00728214
0.0054681
0.00429089
0.00373634
0.00353871
0.00348757
0.00348076
0.0034739
0.00344911
0.00340306
0.00334141
0.00327391
0.00321042
0.00315901
0.00312631
0.00311788
0.00313577
0.00317954
0.00325133
0.00337189
0.00359343
0.0039929
0.00469278
0.00599867
0.00618667
0.00228488
0.0026388
0.0050954
0.00656104
0.00838479
0.00931332
0.0102801
0.0108502
0.0109981
0.0108009
0.0103101
0.00953684
0.00847064
0.00714129
0.00571979
0.00450381
0.00373362
0.00336781
0.00324411
0.00323733
0.00327735
0.00332521
0.00335934
0.0033705
0.00335869
0.00332933
0.00328957
0.00324718
0.00321244
0.00320099
0.00323391
0.00333361
0.00351582
0.00377437
0.00408168
0.00442437
0.00489285
0.00557884
0.00671461
0.00664218
0.0023749
0.0024736
0.00212034
0.00211023
0.00217258
0.00222467
0.00216102
0.00203479
0.00188618
0.00173525
0.0015886
0.00144751
0.00131498
0.00120051
0.00111764
0.00107274
0.00105593
0.00105634
0.00106525
0.00107768
0.00109107
0.00110429
0.00111711
0.00113005
0.0011442
0.00116123
0.00118327
0.00121289
0.00125285
0.00130538
0.00137106
0.00144822
0.00153361
0.00162444
0.00172076
0.0018225
0.0019276
0.00203681
0.0021542
0.00227671
0.00218051
)
;

boundaryField
{
    floor
    {
        type            nutkWallFunction;
        Cmu             0.09;
        kappa           0.41;
        E               9.8;
        value           nonuniform List<scalar> 
36
(
0.000160534
7.63574e-05
0.000109526
0.000110386
0.000107749
0.000103327
9.73898e-05
9.14357e-05
8.59128e-05
8.08973e-05
7.63672e-05
7.2302e-05
6.86268e-05
6.52585e-05
6.20963e-05
5.9001e-05
5.57444e-05
5.30244e-05
4.74892e-05
4.74891e-05
6.15257e-05
7.04768e-05
7.7856e-05
9.3082e-05
0.000123002
0.00011795
0.000160534
0.000174971
0.000167227
0.000160417
7.63574e-05
0.000160417
0.000136066
0.000194668
0.000169879
0.000193902
)
;
    }
    ceiling
    {
        type            nutkWallFunction;
        Cmu             0.09;
        kappa           0.41;
        E               9.8;
        value           nonuniform List<scalar> 
43
(
0.000284309
0.000246397
0.000245306
0.000252051
0.000257676
0.000250831
0.00023717
0.000220962
0.000204356
0.00018807
0.000172242
0.000157215
0.000144089
0.00013449
0.000129251
0.000127279
0.000127322
0.000128364
0.000129819
0.000131386
0.000132932
0.000134427
0.00013593
0.000137568
0.000139528
0.000142054
0.000145435
0.000149986
0.000155952
0.000163397
0.000172119
0.000181739
0.000191924
0.000202661
0.000213948
0.000225534
0.000237488
0.000250247
0.000263452
0.000252985
0.000270494
0.000280516
0.000177622
)
;
    }
    sWall
    {
        type            nutkWallFunction;
        Cmu             0.09;
        kappa           0.41;
        E               9.8;
        value           nonuniform List<scalar> 9(0.000373884 0.000352051 0.000322933 0.000296601 0.000297549 0.000270583 0.000314408 0.000301895 0.000284411);
    }
    nWall
    {
        type            nutkWallFunction;
        Cmu             0.09;
        kappa           0.41;
        E               9.8;
        value           nonuniform List<scalar> 
14
(
0.000117958
0.000140215
0.000164276
0.000243892
0.000243094
0.00024987
0.00026203
0.000260815
0.000246301
0.000235641
0.000245064
0.000264248
0.000273844
0.000253023
)
;
    }
    sideWalls
    {
        type            empty;
    }
    glass1
    {
        type            nutkWallFunction;
        Cmu             0.09;
        kappa           0.41;
        E               9.8;
        value           nonuniform List<scalar> 9(0.00010825 0.000156885 0.000196741 0.000234357 0.000270802 0.000306155 0.000341775 0.000372098 0.000381384);
    }
    glass2
    {
        type            nutkWallFunction;
        Cmu             0.09;
        kappa           0.41;
        E               9.8;
        value           nonuniform List<scalar> 2(0.000212589 0.000241627);
    }
    sun
    {
        type            nutkWallFunction;
        Cmu             0.09;
        kappa           0.41;
        E               9.8;
        value           nonuniform List<scalar> 
14
(
0.000108209
0.000115185
0.000114774
0.000119639
0.000124077
0.00012809
0.000131812
0.000135388
0.000138976
0.000142778
0.00014639
0.000149812
0.000153173
0.00015678
)
;
    }
    Table_master
    {
        type            nutkWallFunction;
        Cmu             0.09;
        kappa           0.41;
        E               9.8;
        value           nonuniform List<scalar> 9(0.000139307 0.00012167 0.000107854 9.68985e-05 8.80786e-05 8.08862e-05 7.49659e-05 7.01106e-05 6.62975e-05);
    }
    Table_slave
    {
        type            nutkWallFunction;
        Cmu             0.09;
        kappa           0.41;
        E               9.8;
        value           nonuniform List<scalar> 9(0.000157755 0.000144077 0.000133383 0.000124406 0.000116697 0.000109725 0.000103105 9.64828e-05 8.92694e-05);
    }
    inlet
    {
        type            calculated;
        value           uniform 0.000167705;
    }
    outlet
    {
        type            calculated;
        value           nonuniform List<scalar> 2(0.00275765 0.00668147);
    }
}


// ************************************************************************* //
