/*--------------------------------*- C++ -*----------------------------------*\
  =========                 |
  \\      /  F ield         | OpenFOAM: The Open Source CFD Toolbox
   \\    /   O peration     | Website:  https://openfoam.org
    \\  /    A nd           | Version:  6
     \\/     M anipulation  |
\*---------------------------------------------------------------------------*/
FoamFile
{
    version     2.0;
    format      ascii;
    class       volVectorField;
    location    "39999.9999991619479";
    object      U;
}
// * * * * * * * * * * * * * * * * * * * * * * * * * * * * * * * * * * * * * //

dimensions      [0 1 -1 0 0 0 0];

internalField   nonuniform List<vector> 
778
(
(0.0656019 0.0794064 0)
(-0.155174 0.0157633 0)
(-0.164297 0.0146217 0)
(-0.192409 0.0122707 0)
(-0.216838 0.00871954 0)
(-0.236889 0.00473805 0)
(-0.252006 0.000411237 0)
(-0.261767 -0.00437327 0)
(-0.265658 -0.00981401 0)
(-0.262678 -0.0161916 0)
(-0.250873 -0.0242619 0)
(-0.226178 -0.0348767 0)
(-0.186067 -0.0503927 0)
(-0.144143 -0.0751547 0)
(-0.150023 -0.108535 0)
(0.0546898 0.0354759 0)
(0.0158269 -0.0268883 0)
(0.0450422 -0.0232728 0)
(0.0694749 -0.0161687 0)
(0.0845585 -0.0103604 0)
(0.0917794 -0.00641738 0)
(0.0946167 -0.00433911 0)
(0.0956532 -0.00331768 0)
(0.0961134 -0.0027307 0)
(0.0962906 -0.00231665 0)
(0.0961686 -0.00195109 0)
(0.0956414 -0.00150962 0)
(0.0943806 -0.00075479 0)
(0.0915276 0.000850958 0)
(0.0853116 0.00407796 0)
(0.0737478 0.00779189 0)
(0.0600499 0.0116427 0)
(-0.00787648 0.0300273 0)
(0.258403 0.167391 0)
(-0.161234 0.0483882 0)
(-0.141597 0.0459744 0)
(-0.173997 0.0416059 0)
(-0.199353 0.0356559 0)
(-0.220064 0.0291147 0)
(-0.236083 0.0220424 0)
(-0.247324 0.014213 0)
(-0.25349 0.00528341 0)
(-0.2538 -0.00516213 0)
(-0.247644 -0.0170871 0)
(-0.23394 -0.0308497 0)
(-0.214037 -0.04807 0)
(-0.197463 -0.0699467 0)
(-0.19395 -0.0826199 0)
(-0.166355 -0.0425268 0)
(-0.10533 -0.0363407 0)
(-0.0983224 -0.0444379 0)
(0.109359 -0.0421786 0)
(0.0645072 -0.0412358 0)
(0.0719927 -0.0323258 0)
(0.0860145 -0.0207666 0)
(0.0939567 -0.0105088 0)
(0.0962132 -0.00364647 0)
(0.0959738 -0.000197754 0)
(0.0955794 0.00124078 0)
(0.0955401 0.00188595 0)
(0.0956209 0.00226213 0)
(0.0956294 0.00258844 0)
(0.0955305 0.00313423 0)
(0.09524 0.00441836 0)
(0.0939815 0.00773879 0)
(0.0883778 0.0167855 0)
(0.0745981 0.0253929 0)
(0.0632234 0.0330386 0)
(-0.0518993 0.0637001 0)
(0.429987 0.253951 0)
(-0.194235 0.0847529 0)
(-0.112771 0.0784217 0)
(-0.148232 0.0669396 0)
(-0.170657 0.0554785 0)
(-0.188742 0.0437018 0)
(-0.202569 0.0313174 0)
(-0.21225 0.0179828 0)
(-0.217592 0.00337967 0)
(-0.217942 -0.0126437 0)
(-0.212682 -0.0303285 0)
(-0.201573 -0.049907 0)
(-0.18593 -0.0715632 0)
(-0.169387 -0.0932024 0)
(-0.151009 -0.104546 0)
(-0.120172 -0.0931136 0)
(-0.0794878 -0.0948949 0)
(-0.0713987 -0.107534 0)
(0.0921754 -0.0882585 0)
(0.0626179 -0.0658481 0)
(0.0744422 -0.0462183 0)
(0.0881106 -0.0293405 0)
(0.0950042 -0.0150088 0)
(0.0921435 -0.0120354 0)
(0.0879026 -0.00794114 0)
(0.0855293 -0.00577658 0)
(0.0848318 -0.00456152 0)
(0.0848006 -0.00380234 0)
(0.085051 -0.00322952 0)
(0.0857032 -0.00260007 0)
(0.0874684 -0.0014379 0)
(0.0921619 0.00292589 0)
(0.0903273 0.025134 0)
(0.0735084 0.0424362 0)
(0.0702305 0.0576026 0)
(-0.0899106 0.101141 0)
(0.578558 0.325835 0)
(-0.240107 0.121801 0)
(-0.0808247 0.109207 0)
(-0.121561 0.0898319 0)
(-0.138988 0.074041 0)
(-0.153042 0.0586024 0)
(-0.163793 0.042717 0)
(-0.171379 0.0257745 0)
(-0.175581 0.0071685 0)
(-0.175637 -0.0135519 0)
(-0.170943 -0.0364804 0)
(-0.161369 -0.0614576 0)
(-0.147493 -0.0873693 0)
(-0.130499 -0.110295 0)
(-0.109524 -0.123186 0)
(-0.0820312 -0.124511 0)
(-0.0524058 -0.126322 0)
(-0.0332609 -0.123143 0)
(0.0165325 -0.0568075 0)
(0.0609458 -0.0930783 0)
(0.0685659 -0.0792658 0)
(0.0791655 -0.0589124 0)
(0.0916503 -0.0396814 0)
(0.102975 -0.0210302 0)
(0.115726 -0.0132529 0)
(0.126938 -0.00883639 0)
(0.132588 -0.00561886 0)
(0.133615 -0.00311359 0)
(0.131132 -0.000892247 0)
(0.125706 0.00127708 0)
(0.117205 0.00366186 0)
(0.104859 0.0067245 0)
(0.0856021 0.0111663 0)
(0.0717042 0.0368709 0)
(0.0603913 0.0606588 0)
(0.0764872 0.0835405 0)
(-0.1176 0.137549 0)
(0.70574 0.383672 0)
(-0.287687 0.156993 0)
(-0.0476857 0.13376 0)
(-0.0962772 0.106893 0)
(-0.107723 0.087564 0)
(-0.11675 0.0691373 0)
(-0.123534 0.0504084 0)
(-0.128188 0.0305487 0)
(-0.130541 0.00868867 0)
(-0.129726 -0.0158473 0)
(-0.125218 -0.0430946 0)
(-0.116584 -0.0726934 0)
(-0.103843 -0.102831 0)
(-0.087342 -0.129093 0)
(-0.0673626 -0.14578 0)
(-0.0439934 -0.15224 0)
(-0.0201171 -0.152323 0)
(0.000438729 -0.143666 0)
(0.0309521 -0.114991 0)
(0.0571001 -0.10938 0)
(0.0706521 -0.0924865 0)
(0.0807619 -0.0713299 0)
(0.0908066 -0.0508881 0)
(0.100357 -0.0328538 0)
(0.109484 -0.0194581 0)
(0.11655 -0.0100752 0)
(0.120023 -0.00338129 0)
(0.120273 0.00187284 0)
(0.117907 0.00642281 0)
(0.113294 0.0107847 0)
(0.106457 0.0154705 0)
(0.0973252 0.0211817 0)
(0.0853985 0.029217 0)
(0.073833 0.0472657 0)
(0.0633234 0.0713721 0)
(0.0950225 0.0995635 0)
(0.0171238 0.138713 0)
(0.0967679 0.182831 0)
(0.14061 0.14481 0)
(-0.219121 0.201434 0)
(0.810448 0.431964 0)
(-0.331328 0.190659 0)
(-0.017305 0.150222 0)
(-0.0733515 0.117492 0)
(-0.0785714 0.0954787 0)
(-0.0821887 0.0749079 0)
(-0.0844401 0.0543022 0)
(-0.0854753 0.0326784 0)
(-0.0852171 0.00882179 0)
(-0.0825378 -0.018441 0)
(-0.0773636 -0.0490457 0)
(-0.06872 -0.0825173 0)
(-0.0566939 -0.116525 0)
(-0.041589 -0.146338 0)
(-0.0245567 -0.166018 0)
(-0.00612584 -0.174492 0)
(0.0122747 -0.172708 0)
(0.0281968 -0.160952 0)
(0.0463441 -0.139283 0)
(0.0627623 -0.122331 0)
(0.0733949 -0.102513 0)
(0.081037 -0.0804901 0)
(0.0877713 -0.0591716 0)
(0.0939453 -0.0403147 0)
(0.0992927 -0.0251487 0)
(0.10302 -0.0138019 0)
(0.104675 -0.00511908 0)
(0.104305 0.00206692 0)
(0.102207 0.00853628 0)
(0.0986244 0.0148108 0)
(0.0937088 0.0214194 0)
(0.0876846 0.0289946 0)
(0.0808109 0.0384462 0)
(0.0750359 0.0529149 0)
(0.0697606 0.0729507 0)
(0.0919346 0.0986889 0)
(0.0739426 0.107439 0)
(0.0909483 0.0476249 0)
(0.146667 -0.0359634 0)
(-0.323915 0.10777 0)
(0.879912 0.474675 0)
(-0.36865 0.220938 0)
(0.00372665 0.155523 0)
(-0.0526444 0.121536 0)
(-0.0521844 0.0978158 0)
(-0.0509995 0.075783 0)
(-0.0489928 0.054004 0)
(-0.0464764 0.0314964 0)
(-0.0432901 0.00673758 0)
(-0.0373312 -0.0223274 0)
(-0.0302518 -0.0553912 0)
(-0.0204483 -0.0919704 0)
(-0.00860256 -0.128942 0)
(0.00466546 -0.161313 0)
(0.0177732 -0.181933 0)
(0.0306038 -0.190228 0)
(0.0424361 -0.187193 0)
(0.052745 -0.174349 0)
(0.0626923 -0.153986 0)
(0.0712275 -0.132342 0)
(0.076704 -0.109354 0)
(0.0801184 -0.0858885 0)
(0.0826828 -0.0637484 0)
(0.0849047 -0.0442834 0)
(0.0867455 -0.0282143 0)
(0.0878714 -0.0154482 0)
(0.0880539 -0.00520526 0)
(0.0871419 0.00343618 0)
(0.0853097 0.0111638 0)
(0.0826986 0.0185054 0)
(0.0794738 0.0259639 0)
(0.0759034 0.0340412 0)
(0.0723805 0.0432867 0)
(0.0702785 0.0549751 0)
(0.0689858 0.0694669 0)
(0.0820177 0.0884496 0)
(0.0852672 0.0915296 0)
(0.0910893 0.0538113 0)
(0.181914 0.0267787 0)
(-0.27932 0.15692 0)
(0.927948 0.517135 0)
(-0.383165 0.234127 0)
(0.0168993 0.132914 0)
(-0.0273038 0.116606 0)
(-0.0265226 0.0948779 0)
(-0.0227089 0.0723848 0)
(-0.017593 0.0500608 0)
(-0.0123178 0.0272107 0)
(-0.00535363 0.00182293 0)
(0.00461683 -0.0307683 0)
(0.0143451 -0.0653621 0)
(0.0256662 -0.103388 0)
(0.0373464 -0.14094 0)
(0.0480675 -0.172233 0)
(0.0572027 -0.192407 0)
(0.0647297 -0.199845 0)
(0.0704692 -0.195362 0)
(0.0744198 -0.181111 0)
(0.0770921 -0.159993 0)
(0.0784066 -0.135994 0)
(0.0779908 -0.111003 0)
(0.0764307 -0.0865193 0)
(0.0745663 -0.064006 0)
(0.0729306 -0.0444585 0)
(0.0716671 -0.0282513 0)
(0.0706431 -0.0151009 0)
(0.0696597 -0.00430576 0)
(0.0684263 0.00491523 0)
(0.0670363 0.0131508 0)
(0.0654545 0.0208938 0)
(0.0637463 0.0285765 0)
(0.062079 0.0365542 0)
(0.0607319 0.0451087 0)
(0.0605543 0.0546782 0)
(0.0613978 0.0651528 0)
(0.0700612 0.077983 0)
(0.080147 0.080509 0)
(0.0816259 0.059785 0)
(0.23947 0.0559913 0)
(-0.541839 0.234757 0)
(1.01131 0.506779 0)
(-0.137099 0.296312 0)
(0.0411014 0.161466 0)
(0.0406537 0.122014 0)
(0.013135 0.0919045 0)
(0.00871488 0.065299 0)
(0.014145 0.041328 0)
(0.0207759 0.0169217 0)
(0.0325845 -0.0110705 0)
(0.0440543 -0.0421914 0)
(0.0559402 -0.0769628 0)
(0.0682416 -0.114721 0)
(0.0794134 -0.15122 0)
(0.0879505 -0.180696 0)
(0.0932018 -0.198696 0)
(0.0952737 -0.203803 0)
(0.0945697 -0.19708 0)
(0.0916343 -0.180968 0)
(0.0871437 -0.158528 0)
(0.0815513 -0.133085 0)
(0.0751565 -0.107072 0)
(0.0685673 -0.082307 0)
(0.0625156 -0.0601396 0)
(0.0575321 -0.0412896 0)
(0.0538186 -0.0258388 0)
(0.0512786 -0.0132864 0)
(0.0496414 -0.00285049 0)
(0.0485074 0.00617187 0)
(0.0478241 0.0142938 0)
(0.047353 0.0219667 0)
(0.0470217 0.0295397 0)
(0.0468467 0.0372474 0)
(0.04691 0.0452031 0)
(0.0475783 0.0534566 0)
(0.0487394 0.061551 0)
(0.0539324 0.0694 0)
(0.0638225 0.0660383 0)
(0.0605462 0.0344873 0)
(0.286633 0.0698359 0)
(-0.751074 0.308752 0)
(0.779323 0.395602 0)
(0.00098162 0.319431 0)
(0.0934422 0.218862 0)
(0.110679 0.155093 0)
(0.0772481 0.10673 0)
(0.0598646 0.067446 0)
(0.0582867 0.0356638 0)
(0.0624629 0.00632297 0)
(0.0739004 -0.0235129 0)
(0.0854848 -0.0551151 0)
(0.0976998 -0.0898401 0)
(0.109592 -0.126385 0)
(0.118996 -0.160206 0)
(0.124128 -0.18593 0)
(0.124382 -0.199968 0)
(0.120181 -0.201491 0)
(0.112471 -0.19188 0)
(0.102322 -0.173705 0)
(0.0907747 -0.150015 0)
(0.0786693 -0.123852 0)
(0.0666992 -0.09776 0)
(0.055604 -0.0736529 0)
(0.0461224 -0.0527777 0)
(0.0387454 -0.0355766 0)
(0.0335982 -0.0218312 0)
(0.0304534 -0.0107524 0)
(0.02885 -0.00141607 0)
(0.0283132 0.00682431 0)
(0.0285399 0.014431 0)
(0.0291798 0.021787 0)
(0.0300687 0.0291478 0)
(0.0310892 0.0366772 0)
(0.0320925 0.0444565 0)
(0.0328742 0.0525137 0)
(0.0323823 0.0605948 0)
(0.0303515 0.0685903 0)
(0.014576 0.0710357 0)
(0.00161842 0.103155 0)
(0.0114158 0.1783 0)
(-0.638839 0.298297 0)
(0.617238 0.2206 0)
(0.00476253 0.298012 0)
(0.113065 0.241484 0)
(0.14835 0.177467 0)
(0.130927 0.123392 0)
(0.11791 0.0777055 0)
(0.115056 0.0387619 0)
(0.117235 0.00327298 0)
(0.123613 -0.0308294 0)
(0.131855 -0.0651075 0)
(0.141563 -0.100613 0)
(0.150471 -0.135527 0)
(0.155632 -0.165442 0)
(0.155109 -0.185986 0)
(0.148583 -0.194837 0)
(0.136952 -0.192025 0)
(0.121681 -0.17931 0)
(0.104269 -0.159286 0)
(0.0860861 -0.13488 0)
(0.0682306 -0.10889 0)
(0.0516498 -0.0838087 0)
(0.037224 -0.0615047 0)
(0.0257224 -0.0430779 0)
(0.0174704 -0.0285905 0)
(0.0123026 -0.0174379 0)
(0.00959121 -0.00844563 0)
(0.00862215 -0.00061334 0)
(0.00893775 0.00659541 0)
(0.0100349 0.013543 0)
(0.0116318 0.0204981 0)
(0.0135582 0.027628 0)
(0.0156489 0.0350867 0)
(0.0176563 0.0430681 0)
(0.0191684 0.0519121 0)
(0.0190408 0.0622139 0)
(0.0163918 0.0757998 0)
(-0.00760626 0.0991081 0)
(-0.00752136 0.154405 0)
(0.0337411 0.185419 0)
(-0.542081 0.161472 0)
(0.570783 0.118211 0)
(-0.0203096 0.258511 0)
(0.113695 0.229824 0)
(0.165051 0.175963 0)
(0.166736 0.126053 0)
(0.164421 0.0809517 0)
(0.165431 0.0398236 0)
(0.168383 0.00148595 0)
(0.17235 -0.0355172 0)
(0.177934 -0.0720251 0)
(0.184122 -0.107709 0)
(0.18784 -0.139802 0)
(0.186064 -0.164401 0)
(0.17741 -0.178655 0)
(0.162322 -0.181755 0)
(0.142338 -0.174601 0)
(0.11939 -0.159237 0)
(0.0952239 -0.138124 0)
(0.0714286 -0.113998 0)
(0.0492111 -0.0893575 0)
(0.029739 -0.066622 0)
(0.0140184 -0.0475349 0)
(0.00272109 -0.0328886 0)
(-0.00444705 -0.0219739 0)
(-0.00818499 -0.0139205 0)
(-0.00982173 -0.00707848 0)
(-0.0100126 -0.000712505 0)
(-0.00904039 0.00549875 0)
(-0.00736072 0.0117656 0)
(-0.00509915 0.0182415 0)
(-0.00239166 0.0250375 0)
(0.000670215 0.032388 0)
(0.00390858 0.0405562 0)
(0.00708848 0.0501545 0)
(0.00966355 0.0626319 0)
(0.0121291 0.0814783 0)
(0.000250898 0.115085 0)
(-0.0090603 0.181318 0)
(0.146009 0.201556 0)
(-0.458233 0.0931438 0)
(0.628467 0.0535156 0)
(0.00899508 0.197241 0)
(0.113695 0.196886 0)
(0.175032 0.157817 0)
(0.191322 0.117531 0)
(0.198023 0.0770938 0)
(0.203394 0.0370907 0)
(0.208625 -0.00168012 0)
(0.213139 -0.0398035 0)
(0.217455 -0.0766575 0)
(0.219287 -0.1101 0)
(0.215478 -0.13696 0)
(0.204134 -0.154597 0)
(0.185346 -0.161991 0)
(0.160728 -0.159689 0)
(0.13244 -0.1491 0)
(0.102711 -0.132302 0)
(0.0732389 -0.111409 0)
(0.0457829 -0.0889703 0)
(0.0214703 -0.0671512 0)
(0.00189357 -0.048364 0)
(-0.0120075 -0.0342158 0)
(-0.020215 -0.0247823 0)
(-0.0248515 -0.0178001 0)
(-0.0271176 -0.0120378 0)
(-0.0278687 -0.00670157 0)
(-0.0274976 -0.00143403 0)
(-0.0261212 0.00394237 0)
(-0.0240845 0.00954633 0)
(-0.021409 0.0154774 0)
(-0.0182126 0.0218182 0)
(-0.0145625 0.0287374 0)
(-0.0104738 0.0365514 0)
(-0.00591404 0.0459171 0)
(-0.00114933 0.0588402 0)
(0.0040356 0.0809148 0)
(0.00342448 0.115117 0)
(-0.00619111 0.169978 0)
(0.185702 0.195799 0)
(-0.356354 0.144762 0)
(0.472443 0.0748323 0)
(-0.132308 0.1375 0)
(0.0941269 0.133159 0)
(0.1726 0.116618 0)
(0.20374 0.095126 0)
(0.218069 0.064158 0)
(0.228093 0.0281596 0)
(0.23718 -0.0091536 0)
(0.243554 -0.0454572 0)
(0.24505 -0.0783918 0)
(0.23907 -0.105301 0)
(0.224265 -0.124098 0)
(0.20116 -0.13389 0)
(0.171677 -0.1351 0)
(0.138393 -0.128965 0)
(0.103594 -0.11676 0)
(0.0695565 -0.100343 0)
(0.0374566 -0.0813475 0)
(0.00962609 -0.0623049 0)
(-0.0134013 -0.0450414 0)
(-0.0279608 -0.0334654 0)
(-0.0369954 -0.0256012 0)
(-0.0421708 -0.0199547 0)
(-0.0450229 -0.0153019 0)
(-0.0463035 -0.0110692 0)
(-0.0464241 -0.00688635 0)
(-0.0455897 -0.00255454 0)
(-0.0438265 0.0020614 0)
(-0.0415014 0.00702117 0)
(-0.0385691 0.0124053 0)
(-0.0351884 0.0183034 0)
(-0.0315258 0.0248369 0)
(-0.0277151 0.0322516 0)
(-0.0238915 0.0413378 0)
(-0.0209451 0.055177 0)
(-0.0198895 0.0782672 0)
(-0.0184501 0.104332 0)
(-0.0166427 0.129206 0)
(0.191198 0.170693 0)
(-0.381795 0.208938 0)
(0.723995 0.134534 0)
(0.0819551 0.115262 0)
(0.149737 0.0991212 0)
(0.222343 0.0802886 0)
(0.244015 0.0696573 0)
(0.248843 0.0473776 0)
(0.255159 0.017299 0)
(0.261241 -0.0148763 0)
(0.260222 -0.0448284 0)
(0.249685 -0.0696645 0)
(0.229412 -0.0876731 0)
(0.200999 -0.0983474 0)
(0.16684 -0.101955 0)
(0.129497 -0.099467 0)
(0.0914632 -0.0921202 0)
(0.0541842 -0.0805887 0)
(0.0202748 -0.0664983 0)
(-0.0106857 -0.0509722 0)
(-0.0329463 -0.0386592 0)
(-0.0479265 -0.0299878 0)
(-0.0570937 -0.0243781 0)
(-0.062705 -0.0202919 0)
(-0.0660705 -0.0169425 0)
(-0.0679425 -0.0138439 0)
(-0.0686376 -0.0107854 0)
(-0.0683071 -0.00759985 0)
(-0.067036 -0.00412763 0)
(-0.0648525 -0.000201918 0)
(-0.0620753 0.00423035 0)
(-0.0589011 0.00922397 0)
(-0.0554764 0.014945 0)
(-0.0522453 0.0216005 0)
(-0.0497984 0.0296538 0)
(-0.0486394 0.0404209 0)
(-0.0497383 0.0569709 0)
(-0.0562766 0.0808954 0)
(-0.0654072 0.102985 0)
(-0.0513718 0.117058 0)
(0.0338393 0.16537 0)
(-0.486254 0.23628 0)
(0.192181 0.0879237 0)
(0.225966 0.0996084 0)
(0.246699 0.0698676 0)
(0.242745 0.0395253 0)
(0.23985 0.0119511 0)
(0.234756 -0.0129145 0)
(0.219952 -0.0333152 0)
(0.196164 -0.0484839 0)
(0.165761 -0.0583919 0)
(0.131222 -0.0634599 0)
(0.0943702 -0.0639664 0)
(0.0572006 -0.0606261 0)
(0.0216525 -0.0542694 0)
(-0.0128783 -0.0450029 0)
(-0.0397692 -0.0360218 0)
(-0.0600061 -0.0286345 0)
(-0.073681 -0.023777 0)
(-0.0826083 -0.0205951 0)
(-0.0884694 -0.0183621 0)
(-0.0924892 -0.016388 0)
(-0.0952171 -0.0144805 0)
(-0.096879 -0.0125649 0)
(-0.0975457 -0.0105746 0)
(-0.0972282 -0.00839561 0)
(-0.0959124 -0.00586064 0)
(-0.09357 -0.00275147 0)
(-0.0901121 0.00114153 0)
(-0.0862413 0.00589177 0)
(-0.0820852 0.0117009 0)
(-0.0781442 0.019021 0)
(-0.0751658 0.0285825 0)
(-0.0733665 0.0418102 0)
(-0.072768 0.0611575 0)
(-0.0778342 0.0884359 0)
(-0.0896725 0.118929 0)
(-0.0794566 0.139549 0)
(-0.0926193 0.143569 0)
(-0.574148 0.126017 0)
(0.45168 0.209136 0)
(0.207359 0.178484 0)
(0.153483 0.118662 0)
(0.140067 0.0639799 0)
(0.128453 0.0259357 0)
(0.114152 0.00193695 0)
(0.0987067 -0.0127706 0)
(0.0775726 -0.0219588 0)
(0.0528148 -0.0277374 0)
(0.0256222 -0.0304731 0)
(-0.00416981 -0.0300787 0)
(-0.0329908 -0.0274991 0)
(-0.0584156 -0.0239523 0)
(-0.079508 -0.020447 0)
(-0.0950719 -0.0180757 0)
(-0.106017 -0.0164611 0)
(-0.113651 -0.0153438 0)
(-0.119396 -0.0141623 0)
(-0.124022 -0.012833 0)
(-0.127808 -0.0114377 0)
(-0.130796 -0.0101053 0)
(-0.132959 -0.00890547 0)
(-0.134246 -0.00784558 0)
(-0.134567 -0.00687124 0)
(-0.133775 -0.00584435 0)
(-0.131674 -0.00449069 0)
(-0.128041 -0.00236849 0)
(-0.122625 0.00105656 0)
(-0.116169 0.00621532 0)
(-0.109559 0.0135277 0)
(-0.10305 0.023809 0)
(-0.0964232 0.0382202 0)
(-0.0878893 0.0583654 0)
(-0.0774367 0.0861804 0)
(-0.0685808 0.123045 0)
(-0.0419601 0.162846 0)
(0.0837998 0.156612 0)
(-0.515698 0.012981 0)
(0.36358 -0.412697 0)
(-0.345378 -0.512479 0)
(-0.218642 -0.0288239 0)
(-0.092274 0.110685 0)
(-0.053219 0.0926743 0)
(-0.0310312 0.0548555 0)
(-0.0263384 0.0288309 0)
(-0.0314905 0.0121586 0)
(-0.0405202 0.00132402 0)
(-0.0510922 -0.00588404 0)
(-0.0647178 -0.0104235 0)
(-0.0800788 -0.0130222 0)
(-0.0958637 -0.0148543 0)
(-0.110812 -0.0169647 0)
(-0.123714 -0.0195124 0)
(-0.133619 -0.0222292 0)
(-0.140661 -0.0247499 0)
(-0.146025 -0.0265537 0)
(-0.150794 -0.0277012 0)
(-0.155482 -0.0283432 0)
(-0.160099 -0.0285973 0)
(-0.164461 -0.0285083 0)
(-0.168357 -0.0280883 0)
(-0.171611 -0.027333 0)
(-0.174062 -0.0262305 0)
(-0.175522 -0.0247564 0)
(-0.175723 -0.0228528 0)
(-0.174321 -0.0203848 0)
(-0.170965 -0.0170694 0)
(-0.165408 -0.0124102 0)
(-0.157517 -0.00572405 0)
(-0.147492 0.00362274 0)
(-0.136642 0.015846 0)
(-0.124659 0.0306915 0)
(-0.108781 0.0483663 0)
(-0.0857 0.069178 0)
(-0.0552045 0.0939799 0)
(-0.0148272 0.12689 0)
(0.163716 0.134075 0)
(-0.405321 0.0717295 0)
(0.12537 -0.184163 0)
(-0.386964 -0.297052 0)
(-0.342649 -0.0968747 0)
(-0.264407 0.0511575 0)
(-0.210754 0.0834963 0)
(-0.178635 0.0746933 0)
(-0.162344 0.0612674 0)
(-0.156327 0.0512981 0)
(-0.15638 0.046057 0)
(-0.159642 0.0453066 0)
(-0.164153 0.0481652 0)
(-0.168312 0.0533596 0)
(-0.171524 0.0595465 0)
(-0.173666 0.0645898 0)
(-0.175339 0.0666486 0)
(-0.177196 0.0667485 0)
(-0.179754 0.066378 0)
(-0.182982 0.0665844 0)
(-0.186576 0.067303 0)
(-0.190248 0.0680124 0)
(-0.193794 0.0682328 0)
(-0.197079 0.0676735 0)
(-0.200014 0.0661957 0)
(-0.202532 0.0637361 0)
(-0.204566 0.0602187 0)
(-0.206031 0.0555169 0)
(-0.206815 0.0495325 0)
(-0.206774 0.0423894 0)
(-0.205749 0.03462 0)
(-0.203547 0.0271689 0)
(-0.199865 0.0211726 0)
(-0.194097 0.0176371 0)
(-0.184689 0.0170587 0)
(-0.171183 0.0190528 0)
(-0.153898 0.0221992 0)
(-0.128648 0.0248065 0)
(-0.0902442 0.0238109 0)
(-0.0342164 0.0255911 0)
(0.175039 0.070278 0)
(-0.400455 0.128363 0)
(1.14622 -0.0110405 0)
(-0.294011 -0.32216 0)
(-0.352415 -0.233304 0)
(-0.351772 -0.14896 0)
(-0.328129 -0.107543 0)
(-0.296384 -0.0988269 0)
(-0.268861 -0.100873 0)
(-0.248665 -0.106425 0)
(-0.234893 -0.113983 0)
(-0.225623 -0.123673 0)
(-0.219223 -0.135955 0)
(-0.21468 -0.150806 0)
(-0.211513 -0.1667 0)
(-0.209688 -0.180495 0)
(-0.209542 -0.18919 0)
(-0.211314 -0.193247 0)
(-0.214503 -0.193979 0)
(-0.218323 -0.193065 0)
(-0.222115 -0.191551 0)
(-0.225578 -0.189816 0)
(-0.22872 -0.187868 0)
(-0.231731 -0.185552 0)
(-0.23487 -0.182649 0)
(-0.238402 -0.178927 0)
(-0.242594 -0.174171 0)
(-0.247746 -0.168189 0)
(-0.254221 -0.160795 0)
(-0.262377 -0.151757 0)
(-0.272351 -0.140787 0)
(-0.283732 -0.127587 0)
(-0.295303 -0.111984 0)
(-0.305061 -0.094049 0)
(-0.310578 -0.0741678 0)
(-0.309132 -0.0532641 0)
(-0.299763 -0.0333579 0)
(-0.283905 -0.0162286 0)
(-0.256434 0.000143657 0)
(-0.207878 0.0256062 0)
(-0.183707 0.0743612 0)
(-0.571559 0.135677 0)
)
;

boundaryField
{
    floor
    {
        type            noSlip;
    }
    ceiling
    {
        type            noSlip;
    }
    sWall
    {
        type            noSlip;
    }
    nWall
    {
        type            noSlip;
    }
    sideWalls
    {
        type            empty;
    }
    glass1
    {
        type            noSlip;
    }
    glass2
    {
        type            noSlip;
    }
    sun
    {
        type            noSlip;
    }
    Table_master
    {
        type            noSlip;
    }
    Table_slave
    {
        type            noSlip;
    }
    inlet
    {
        type            fixedValue;
        value           uniform (0.5 0 0);
    }
    outlet
    {
        type            zeroGradient;
    }
}


// ************************************************************************* //
