/*--------------------------------*- C++ -*----------------------------------*\
  =========                 |
  \\      /  F ield         | OpenFOAM: The Open Source CFD Toolbox
   \\    /   O peration     | Website:  https://openfoam.org
    \\  /    A nd           | Version:  6
     \\/     M anipulation  |
\*---------------------------------------------------------------------------*/
FoamFile
{
    version     2.0;
    format      ascii;
    class       volScalarField;
    location    "18900";
    object      nut;
}
// * * * * * * * * * * * * * * * * * * * * * * * * * * * * * * * * * * * * * //

dimensions      [0 2 -1 0 0 0 0];

internalField   nonuniform List<scalar> 
778
(
0.000894298
0.000953033
0.000949547
0.000990753
0.00102852
0.00106284
0.00109479
0.0011256
0.00115662
0.00118959
0.00122103
0.0012509
0.00128031
0.00131193
0.00134491
0.000632405
0.000905302
0.000912686
0.000890649
0.00085374
0.000804393
0.000755186
0.000709836
0.000668952
0.000632305
0.000599662
0.000570346
0.000543643
0.000518718
0.00049446
0.000469093
0.000448021
0.000405543
0.00131077
0.002581
0.00226497
0.00261423
0.00286762
0.00313627
0.0034043
0.00365137
0.00385033
0.00396626
0.00403441
0.00400641
0.00380652
0.0033114
0.00241835
0.00147246
0.00140388
0.00134378
0.00113075
0.00192636
0.00267019
0.00310968
0.00313037
0.00247055
0.00211288
0.00186509
0.00167704
0.0015274
0.00139969
0.00128682
0.00118182
0.00107911
0.00098694
0.000907466
0.001022
0.000514077
0.00166402
0.00360417
0.00267222
0.00382222
0.00427079
0.00465043
0.00499528
0.00529889
0.00555621
0.00575809
0.00595357
0.00615913
0.00634777
0.00645957
0.00638402
0.00584419
0.0042736
0.00164813
0.00142682
0.00305255
0.00425953
0.00483046
0.00439267
0.00115924
0.00100808
0.000891468
0.000800217
0.000727581
0.000668936
0.00062109
0.000582168
0.000551822
0.00060671
0.000713645
0.0011297
0.000584739
0.00200524
0.00485804
0.00255724
0.00429821
0.00496247
0.00531797
0.00557945
0.005773
0.00591761
0.00603497
0.00620155
0.00648268
0.00689254
0.00740745
0.00792448
0.00817803
0.00767701
0.00572375
0.00164156
0.00380477
0.00565754
0.00659764
0.00682909
0.00582942
0.00132005
0.00120066
0.00110829
0.0010315
0.00096605
0.000907257
0.000851816
0.000796746
0.000737267
0.000688884
0.000714034
0.00122275
0.000643715
0.00234197
0.00643257
0.00258011
0.00408653
0.00510797
0.00541126
0.00552157
0.00552618
0.00547171
0.0054236
0.00549357
0.00576681
0.0062677
0.00697643
0.00779803
0.00855453
0.00903445
0.00902861
0.0081034
0.0082461
0.00843457
0.00846021
0.00828761
0.00775684
0.00617269
0.00533206
0.00475638
0.00428825
0.00382954
0.00338534
0.00295075
0.00251662
0.00207046
0.00159048
0.00121384
0.00121202
0.000958909
0.00076733
0.00101077
0.000967261
0.0026736
0.00819566
0.00303757
0.00344647
0.00489468
0.00523124
0.00520474
0.00501787
0.00475055
0.00453007
0.00452543
0.00481164
0.0053823
0.00620394
0.00716548
0.00812565
0.00894379
0.00946663
0.00956195
0.00946585
0.00929732
0.00905843
0.00875179
0.00836203
0.0077936
0.00724621
0.00674935
0.00626864
0.00575005
0.00519647
0.00460518
0.00397102
0.00328994
0.00256738
0.00191358
0.00143687
0.00111506
0.00125214
0.00217465
0.0011572
0.00301213
0.00982715
0.00404805
0.00282368
0.00439847
0.00494867
0.00488798
0.00458528
0.00414597
0.00375933
0.00374825
0.00410935
0.00476225
0.00568009
0.00672503
0.00775935
0.00865001
0.00928839
0.00958226
0.00955947
0.00934902
0.0090304
0.00866582
0.00830233
0.00795093
0.00762862
0.00732596
0.00700264
0.00661251
0.00614307
0.0055872
0.00494211
0.00421043
0.0034113
0.00263095
0.00190289
0.00140096
0.00125351
0.00220432
0.00136367
0.00330347
0.0110642
0.00552031
0.00268859
0.00348483
0.00438747
0.00451338
0.00426445
0.00374556
0.00321903
0.00333853
0.00381589
0.0045455
0.00549109
0.00657558
0.00765818
0.00858235
0.00922512
0.00951749
0.00947967
0.00920825
0.00880783
0.00837728
0.00799558
0.00770139
0.00749123
0.00732745
0.00714931
0.00690171
0.00655517
0.00609583
0.00552087
0.00483613
0.00406292
0.0032607
0.00244906
0.0017187
0.00113667
0.00319451
0.00178375
0.0033933
0.0104839
0.00683658
0.00347661
0.0023628
0.00289633
0.00338879
0.00343007
0.00302894
0.00294453
0.00325064
0.00381161
0.00459966
0.00560148
0.0067374
0.00785314
0.00877425
0.00936781
0.00957691
0.00943422
0.00904085
0.00852473
0.00801286
0.00760465
0.00734555
0.00721828
0.00716063
0.00709221
0.00695006
0.00669998
0.00632828
0.00583348
0.00522252
0.00451338
0.00373731
0.00286761
0.0017089
0.00137729
0.0048837
0.00202072
0.00332466
0.00845863
0.0070663
0.00477538
0.0031525
0.00244112
0.00231264
0.00242165
0.00262537
0.00294987
0.00340936
0.00403995
0.00489591
0.00597502
0.00717219
0.00830365
0.00917705
0.00965906
0.00971024
0.00938754
0.0088187
0.00816414
0.0075804
0.00718074
0.00699754
0.00697591
0.00701549
0.00701472
0.00692282
0.00672032
0.00640057
0.00596325
0.00541302
0.00475558
0.00396024
0.00280952
0.00136511
0.00226659
0.00503646
0.00206944
0.00311445
0.00723173
0.00683535
0.00546804
0.00420645
0.0033859
0.00298062
0.00288952
0.00305821
0.00336789
0.00381644
0.00448081
0.00542478
0.00660705
0.00786496
0.00897289
0.00972634
0.0100076
0.00981134
0.0092356
0.00845343
0.00767096
0.00707745
0.00677964
0.00674475
0.00684193
0.00694045
0.00694218
0.00684537
0.00664895
0.00634862
0.00594049
0.00542121
0.00476497
0.00379381
0.00222089
0.001437
0.00286968
0.00500234
0.00206145
0.00283616
0.00652129
0.00659548
0.0057906
0.00492435
0.00427296
0.00388989
0.0037531
0.0037884
0.00397518
0.00438585
0.00512657
0.00621693
0.00752617
0.00881141
0.00980943
0.0103253
0.0102838
0.00973834
0.00884953
0.00785915
0.00703336
0.00656671
0.00647122
0.00655081
0.00668008
0.00676634
0.00674301
0.00663092
0.00643168
0.00613801
0.00573977
0.00521906
0.0044807
0.00308316
0.00154958
0.00186001
0.00321492
0.00462158
0.00200386
0.00258651
0.00583334
0.00629845
0.0059174
0.0053611
0.00489426
0.00458415
0.00443305
0.00438808
0.00454634
0.00506625
0.00603328
0.00735257
0.00877063
0.00997419
0.0106995
0.0108058
0.0102968
0.00931639
0.00811335
0.00702782
0.00633148
0.00602122
0.00597583
0.00605911
0.00617924
0.00626138
0.00624298
0.00613335
0.00593215
0.00563071
0.00521544
0.00464908
0.00374692
0.00224422
0.00150105
0.00220003
0.00337164
0.00417941
0.00193288
0.00259424
0.00578941
0.00643504
0.00598941
0.00553913
0.00517065
0.00490512
0.00473282
0.00472426
0.00510801
0.00602518
0.0073958
0.00894413
0.0103159
0.0111961
0.0113962
0.0108903
0.00979351
0.00838628
0.00702704
0.00604169
0.00545379
0.00516443
0.00508214
0.0051296
0.00523427
0.00532237
0.00531555
0.00520079
0.0049745
0.00463216
0.00417649
0.00360747
0.00286479
0.00194724
0.0015941
0.00231827
0.00349728
0.00463609
0.00193237
0.00234163
0.00243541
0.00359194
0.00421894
0.00441218
0.00441445
0.00437088
0.00445021
0.00498642
0.00612996
0.00773741
0.00947254
0.0109602
0.0118873
0.012067
0.0114582
0.0102068
0.00854946
0.00696781
0.00572832
0.00488493
0.00438382
0.00413509
0.00404094
0.00403533
0.0040725
0.00410027
0.00404774
0.00387703
0.00359025
0.0032109
0.00279613
0.00241537
0.00210427
0.00185898
0.00182073
0.00243513
0.00379747
0.00476618
0.00207158
0.000807843
0.00146606
0.00226284
0.00290401
0.00364541
0.00490057
0.00674471
0.00878875
0.0106485
0.0120404
0.0127728
0.0127203
0.0118828
0.0103437
0.00850516
0.00675588
0.00535935
0.00440719
0.00386476
0.00357984
0.00342126
0.00332233
0.00325376
0.0031959
0.00312177
0.00299453
0.00279162
0.00253696
0.00228644
0.00210335
0.00201961
0.00202963
0.00212533
0.00235509
0.0029375
0.00448191
0.00497815
0.00210393
0.00149724
0.00207846
0.00303551
0.00474491
0.00706463
0.00938803
0.0111904
0.0124917
0.0132807
0.0135065
0.0130736
0.0118853
0.0101231
0.00812675
0.00628821
0.00489177
0.00404449
0.0036052
0.00337224
0.00322986
0.00313306
0.00306432
0.00301192
0.00296141
0.00289316
0.00278889
0.00265422
0.00252003
0.0024273
0.00240805
0.00246962
0.0026024
0.00280745
0.00312954
0.00370285
0.00506761
0.00540317
0.00213704
0.00275736
0.00666468
0.00612378
0.00548139
0.00698013
0.00932221
0.0113029
0.0126413
0.0133472
0.0135246
0.0132602
0.0125198
0.0112674
0.00956215
0.00764461
0.00588279
0.00463389
0.00394188
0.00358208
0.00337066
0.00323175
0.00314381
0.00310076
0.00309546
0.00311437
0.00313747
0.00314256
0.0031168
0.00308092
0.00305797
0.00306494
0.00311243
0.00320091
0.00332263
0.0034724
0.00366306
0.00394053
0.00438
0.00458445
0.00203704
0.00263907
0.00510023
0.00658816
0.00841196
0.00934793
0.0103217
0.0108944
0.0110385
0.0108309
0.010329
0.00955885
0.00853695
0.00732102
0.00606229
0.00498492
0.00422019
0.00371316
0.00338488
0.00315772
0.00299887
0.00290219
0.00286923
0.0028987
0.00298141
0.00309838
0.00322185
0.00332055
0.00337439
0.00341261
0.00345784
0.00352279
0.00361285
0.00372814
0.00386718
0.00403307
0.0042352
0.00446932
0.00483596
0.00509064
0.00198945
0.00247419
0.00211947
0.00210894
0.00217006
0.00222058
0.00215381
0.0020242
0.00187318
0.00172271
0.00158137
0.00145127
0.00133377
0.00123269
0.00115392
0.00110132
0.00107401
0.00106574
0.00106704
0.00107598
0.00109181
0.00111349
0.00113933
0.00116733
0.00119566
0.00122314
0.00124941
0.00127495
0.00130084
0.00132778
0.00135765
0.00139192
0.0014314
0.00147632
0.00152646
0.00158134
0.00164166
0.00171759
0.00182822
0.00197561
0.00191998
)
;

boundaryField
{
    floor
    {
        type            nutkWallFunction;
        Cmu             0.09;
        kappa           0.41;
        E               9.8;
        value           nonuniform List<scalar> 
36
(
0.000160581
7.63865e-05
0.000109514
0.000110392
0.000107769
0.000103358
9.74251e-05
9.14662e-05
8.59337e-05
8.09097e-05
7.6375e-05
7.23089e-05
6.86342e-05
6.52669e-05
6.21054e-05
5.90103e-05
5.57534e-05
5.30312e-05
4.74931e-05
4.7493e-05
6.15142e-05
7.04409e-05
7.77902e-05
9.29406e-05
0.000121967
0.000116854
0.000160581
0.000175017
0.000167272
0.000160451
7.63865e-05
0.000160451
0.000135987
0.000194675
0.000169866
0.000193943
)
;
    }
    ceiling
    {
        type            nutkWallFunction;
        Cmu             0.09;
        kappa           0.41;
        E               9.8;
        value           nonuniform List<scalar> 
43
(
0.000284371
0.000246302
0.000245165
0.000251777
0.000257232
0.000250045
0.000236005
0.000219512
0.00020293
0.000187206
0.000172597
0.000159282
0.000147731
0.000138663
0.000132571
0.000129393
0.000128429
0.000128579
0.000129615
0.000131451
0.000133969
0.000136972
0.000140222
0.000143507
0.00014669
0.000149723
0.000152664
0.000155637
0.000158718
0.000162121
0.000166015
0.00017049
0.000175568
0.000181219
0.000187375
0.000194083
0.000202406
0.000214499
0.000230614
0.000224716
0.000270418
0.000280438
0.000177596
)
;
    }
    sWall
    {
        type            nutkWallFunction;
        Cmu             0.09;
        kappa           0.41;
        E               9.8;
        value           nonuniform List<scalar> 9(0.000373891 0.000352083 0.00032298 0.000296621 0.000297438 0.000270507 0.000314379 0.000301924 0.000284472);
    }
    nWall
    {
        type            nutkWallFunction;
        Cmu             0.09;
        kappa           0.41;
        E               9.8;
        value           nonuniform List<scalar> 
14
(
0.000116862
0.000139065
0.000162726
0.000240972
0.000240061
0.000233761
0.00022605
0.000226167
0.000241247
0.000244722
0.000248243
0.000237379
0.000232237
0.00022475
)
;
    }
    sideWalls
    {
        type            empty;
    }
    glass1
    {
        type            nutkWallFunction;
        Cmu             0.09;
        kappa           0.41;
        E               9.8;
        value           nonuniform List<scalar> 9(0.000108246 0.000156881 0.000196735 0.000234348 0.00027079 0.000306139 0.000341753 0.000372073 0.000381374);
    }
    glass2
    {
        type            nutkWallFunction;
        Cmu             0.09;
        kappa           0.41;
        E               9.8;
        value           nonuniform List<scalar> 2(0.000209801 0.000235825);
    }
    sun
    {
        type            nutkWallFunction;
        Cmu             0.09;
        kappa           0.41;
        E               9.8;
        value           nonuniform List<scalar> 
14
(
0.000108205
0.000115177
0.000114765
0.000119629
0.000124067
0.000128083
0.000131809
0.00013539
0.000138985
0.000142793
0.000146414
0.000149844
0.000153213
0.000156824
)
;
    }
    Table_master
    {
        type            nutkWallFunction;
        Cmu             0.09;
        kappa           0.41;
        E               9.8;
        value           nonuniform List<scalar> 9(0.00013928 0.000121661 0.000107864 9.69207e-05 8.81052e-05 8.09115e-05 7.49865e-05 7.0126e-05 6.6309e-05);
    }
    Table_slave
    {
        type            nutkWallFunction;
        Cmu             0.09;
        kappa           0.41;
        E               9.8;
        value           nonuniform List<scalar> 9(0.000157738 0.00014406 0.000133372 0.00012441 0.000116711 0.000109743 0.000103125 9.65014e-05 8.92866e-05);
    }
    inlet
    {
        type            calculated;
        value           uniform 0.000167705;
    }
    outlet
    {
        type            calculated;
        value           nonuniform List<scalar> 2(0.00275736 0.00666468);
    }
}


// ************************************************************************* //
