/*--------------------------------*- C++ -*----------------------------------*\
  =========                 |
  \\      /  F ield         | OpenFOAM: The Open Source CFD Toolbox
   \\    /   O peration     | Website:  https://openfoam.org
    \\  /    A nd           | Version:  6
     \\/     M anipulation  |
\*---------------------------------------------------------------------------*/
FoamFile
{
    version     2.0;
    format      ascii;
    class       volScalarField;
    location    "100";
    object      alphat;
}
// * * * * * * * * * * * * * * * * * * * * * * * * * * * * * * * * * * * * * //

dimensions      [1 -1 -1 0 0 0 0];

internalField   nonuniform List<scalar> 
459
(
0.00122655
0.00135353
0.00139567
0.00146861
0.0015377
0.00160571
0.00167508
0.00172656
0.00175289
0.00174865
0.00171086
0.00163712
0.00151852
0.00128528
0.00103784
0.000514008
0.000646489
0.000770451
0.00084293
0.000855755
0.000842411
0.000791273
0.000733536
0.000680604
0.00063282
0.000588857
0.000547433
0.000507631
0.000468137
0.000427456
0.000384384
0.000337534
0.000283372
0.000272132
0.00161562
0.00412885
0.00406096
0.0047458
0.00544639
0.00609382
0.00656558
0.00699968
0.00736951
0.00764574
0.00780094
0.00779769
0.00759244
0.00702035
0.0052733
0.00133944
0.000985455
0.000592833
0.00198814
0.00237443
0.00283102
0.00316544
0.00315993
0.00217683
0.00174823
0.00145673
0.00124895
0.00110195
0.000995229
0.000889184
0.000770228
0.00065016
0.000557486
0.00051928
0.000417157
0.000301975
0.0019361
0.00562186
0.00510785
0.00609312
0.00662605
0.00703214
0.00734695
0.00769726
0.00808591
0.00849123
0.00887501
0.00915207
0.00926104
0.00903856
0.00819541
0.00578907
0.00137779
0.000891498
0.00198481
0.00271965
0.00341622
0.00394422
0.00384897
0.00109342
0.000946032
0.000815392
0.000699589
0.000598202
0.00051449
0.000452913
0.000409632
0.000378939
0.000394361
0.000453574
0.000440077
0.000320359
0.00224124
0.00698942
0.00521047
0.00634677
0.00663164
0.00676967
0.00693772
0.00720754
0.00758946
0.00807169
0.00861182
0.00906076
0.00936235
0.00946553
0.00922427
0.00808919
0.00466087
0.00159272
0.00195251
0.00264099
0.00357856
0.00449818
0.00512338
0.00485861
0.0011972
0.00106614
0.000966267
0.000883259
0.000810048
0.000741413
0.000673772
0.000604822
0.000530725
0.000428349
0.000430809
0.000495062
0.000348743
0.00255468
0.0087321
0.00567592
0.00631435
0.00657315
0.00654273
0.0066183
0.00681146
0.00717663
0.00769076
0.00826542
0.00877665
0.00913382
0.0093073
0.00928331
0.00893068
0.00780909
0.00678021
0.00660395
0.00676242
0.00703003
0.0072282
0.00722422
0.00682756
0.0054695
0.00463932
0.00405602
0.00356897
0.00304619
0.00250843
0.00202486
0.00164057
0.00129524
0.00093138
0.000707643
0.000713756
0.000550862
0.000437633
0.000462098
0.000467888
0.00289146
0.0106949
0.00757974
0.00668805
0.00694579
0.00673803
0.00664958
0.00671365
0.00703394
0.00757718
0.00820896
0.00876118
0.00911596
0.00925547
0.00924994
0.00918742
0.00907754
0.00905118
0.00912755
0.00919126
0.00914294
0.00892686
0.00851508
0.00787926
0.00698861
0.00612968
0.00533153
0.00454583
0.00381246
0.00321525
0.00280905
0.00252368
0.00220617
0.00177115
0.0013806
0.001259
0.00112702
0.00106874
0.00117758
0.000580964
0.00319214
0.0120584
0.0103446
0.00852853
0.00790809
0.00720352
0.00677482
0.00675017
0.00712466
0.00778158
0.00852022
0.00912885
0.00948112
0.00958881
0.00958959
0.00967243
0.00991653
0.010205
0.0103561
0.010284
0.00998132
0.00947518
0.00879544
0.00797532
0.00705838
0.00613256
0.0052897
0.00457182
0.00401987
0.00364515
0.00338982
0.00314797
0.00282998
0.00243963
0.0020718
0.00189142
0.00179922
0.00170973
0.00174917
0.000688325
0.00324832
0.0105096
0.00955631
0.00848068
0.00744056
0.00669175
0.00644762
0.0067392
0.00745947
0.0083985
0.00929379
0.00992553
0.0102209
0.0102745
0.0102741
0.0103813
0.0105534
0.0106318
0.0105144
0.0101606
0.00958151
0.00883315
0.00795291
0.00698859
0.00605852
0.00526969
0.00464694
0.00418178
0.00384963
0.00360272
0.00337679
0.00311604
0.00279956
0.00246592
0.00217896
0.00197231
0.00183897
0.00167281
0.00164216
0.000738181
0.0031636
0.00373248
0.00402002
0.00409274
0.00428378
0.00485462
0.00584864
0.00716373
0.0085722
0.00981133
0.0106619
0.0110329
0.0110561
0.0109635
0.0107442
0.0104026
0.0100594
0.00969634
0.0092309
0.00862125
0.00786379
0.00701345
0.00616166
0.00540821
0.00480904
0.00437267
0.00406033
0.0038234
0.00361871
0.00340825
0.00316493
0.00288093
0.00256827
0.00224994
0.00195104
0.00170212
0.00152828
0.0014144
0.00133583
0.00112819
0.00119935
0.00281018
0.00565854
0.00801118
0.00980323
0.0110697
0.0118042
0.0120932
0.0120433
0.0115915
0.0109299
0.010217
0.0095383
0.00894852
0.00844827
0.00797905
0.00749304
0.00698783
0.00649186
0.00604408
0.00567324
0.00538873
0.00518092
0.00502793
0.00490294
0.00477938
0.00463206
0.00443854
0.00418366
0.00386583
0.00350192
0.00312567
0.00277366
0.00246827
0.00222187
0.0020834
0.00205497
0.00142767
0.00173722
0.00589016
0.00848985
0.0102577
0.0112837
0.0116352
0.0114751
0.011033
0.0104345
0.00973344
0.00903554
0.00845114
0.00802169
0.00772028
0.00749482
0.00730149
0.00711716
0.00693747
0.0067685
0.00661864
0.00649328
0.00639374
0.00631825
0.00626212
0.00621676
0.00616944
0.00610321
0.00599742
0.00582978
0.00558085
0.00524178
0.00482441
0.00436721
0.00392549
0.00354933
0.00339995
0.00382116
0.0017164
0.00166491
0.00179751
0.00191893
0.00217602
0.00227968
0.0023393
0.00233662
0.00229764
0.00222422
0.00212621
0.00202454
0.00193363
0.00186429
0.00181727
0.00178735
0.00176815
0.0017543
0.00174229
0.00173059
0.0017192
0.00170889
0.00170046
0.00169449
0.00169117
0.00169023
0.00169094
0.00169221
0.00169256
0.00169027
0.00168344
0.00167036
0.00164984
0.00162165
0.00158677
0.00154713
0.00150467
0.00146048
0.00144459
0.00147637
0.00140728
)
;

boundaryField
{
    floor
    {
        type            compressible::alphatWallFunction;
        Prt             0.85;
        value           nonuniform List<scalar> 
29
(
0.000147774
7.15234e-05
9.14479e-05
0.000109634
0.000120103
0.000121942
0.000120022
0.000112643
0.000104244
9.64732e-05
8.93936e-05
8.28209e-05
7.65709e-05
7.05096e-05
6.4435e-05
5.81102e-05
5.1331e-05
4.38489e-05
3.50349e-05
3.32378e-05
3.32373e-05
3.81531e-05
4.11505e-05
4.57385e-05
0.000147772
7.15225e-05
8.3465e-05
0.000127055
0.000223577
)
;
    }
    ceiling
    {
        type            compressible::alphatWallFunction;
        Prt             0.85;
        value           nonuniform List<scalar> 
43
(
0.000233218
0.000250764
0.000266711
0.000300186
0.000313563
0.000321229
0.000320897
0.000315906
0.000306471
0.00029382
0.000280629
0.000268773
0.000259688
0.000253506
0.000249564
0.000247032
0.000245202
0.000243615
0.000242067
0.00024056
0.000239193
0.000238076
0.000237286
0.000236847
0.000236724
0.000236822
0.000236993
0.000237044
0.000236744
0.000235844
0.000234112
0.000231388
0.000227638
0.000222986
0.000217684
0.000211985
0.000206031
0.000203883
0.000208147
0.000198813
0.000425184
0.000495162
0.000242641
)
;
    }
    sWall
    {
        type            compressible::alphatWallFunction;
        Prt             0.85;
        value           uniform 0.000232181;
    }
    nWall
    {
        type            compressible::alphatWallFunction;
        Prt             0.85;
        value           nonuniform List<scalar> 6(6.43952e-05 8.16175e-05 9.75855e-05 0.000201352 0.000239997 0.000198557);
    }
    sideWalls
    {
        type            empty;
    }
    glass1
    {
        type            compressible::alphatWallFunction;
        Prt             0.85;
        value           nonuniform List<scalar> 9(0.000170553 0.000222659 0.000264608 0.000303904 0.000343718 0.000385956 0.000423265 0.000430289 0.000419999);
    }
    glass2
    {
        type            compressible::alphatWallFunction;
        Prt             0.85;
        value           nonuniform List<scalar> 2(0.00010476 0.000160181);
    }
    sun
    {
        type            compressible::alphatWallFunction;
        Prt             0.85;
        value           nonuniform List<scalar> 
14
(
0.000173994
0.000191353
0.000197075
0.000206934
0.000216223
0.000225322
0.000234558
0.000241385
0.000244868
0.000244307
0.000239304
0.000229507
0.000213647
0.000182037
)
;
    }
    heatsource1
    {
        type            compressible::alphatWallFunction;
        Prt             0.85;
        value           nonuniform List<scalar> 3(5.97601e-05 6.35592e-05 6.44427e-05);
    }
    heatsource2
    {
        type            compressible::alphatWallFunction;
        Prt             0.85;
        value           nonuniform List<scalar> 4(0.00018939 0.000140367 0.000140366 0.000194601);
    }
    Table_master
    {
        type            compressible::alphatWallFunction;
        Prt             0.85;
        value           nonuniform List<scalar> 9(0.000155467 0.000134749 0.000116062 9.91963e-05 8.41546e-05 7.15056e-05 6.20431e-05 5.5292e-05 5.04461e-05);
    }
    Table_slave
    {
        type            compressible::alphatWallFunction;
        Prt             0.85;
        value           nonuniform List<scalar> 9(0.000169869 0.000151672 0.00013763 0.000125826 0.000115306 0.000105337 9.54022e-05 8.51498e-05 7.39743e-05);
    }
    inlet
    {
        type            fixedValue;
        value           uniform 1.94e-05;
    }
    outlet
    {
        type            zeroGradient;
    }
}


// ************************************************************************* //
