/*--------------------------------*- C++ -*----------------------------------*\
  =========                 |
  \\      /  F ield         | OpenFOAM: The Open Source CFD Toolbox
   \\    /   O peration     | Website:  https://openfoam.org
    \\  /    A nd           | Version:  6
     \\/     M anipulation  |
\*---------------------------------------------------------------------------*/
FoamFile
{
    version     2.0;
    format      ascii;
    class       volScalarField;
    location    "100";
    object      epsilon;
}
// * * * * * * * * * * * * * * * * * * * * * * * * * * * * * * * * * * * * * //

dimensions      [0 2 -3 0 0 0 0];

internalField   nonuniform List<scalar> 
459
(
0.000428643
0.000574958
0.000630277
0.000734311
0.000842861
0.000959678
0.00108944
0.00119292
0.00124821
0.00123905
0.00116036
0.00101667
0.000811364
0.000492039
0.000259083
3.15704e-05
6.27745e-05
0.000106178
0.00013901
0.000145435
0.000138725
0.000114962
9.1593e-05
7.31659e-05
5.88145e-05
4.73893e-05
3.80736e-05
3.03554e-05
2.38026e-05
1.8116e-05
1.3169e-05
8.91557e-06
5.27842e-06
4.69976e-06
0.000980895
0.00129878
0.000538099
0.000536915
0.000576404
0.000643951
0.00074108
0.000835824
0.000896448
0.000903039
0.000851902
0.00075465
0.000626196
0.000477963
0.000356243
0.000556946
0.000221843
4.84848e-05
0.000153705
0.000139554
0.000136621
0.000128919
0.000120619
0.000123
9.71801e-05
7.34273e-05
5.48224e-05
4.07766e-05
3.04138e-05
2.26686e-05
1.66833e-05
1.21133e-05
9.26646e-06
8.38143e-06
5.60638e-06
6.42282e-06
0.00169039
0.00287898
0.000620867
0.000512658
0.000564369
0.000670473
0.000813204
0.000939894
0.00101058
0.00101721
0.000962129
0.000862165
0.000730624
0.00060414
0.000496174
0.00045916
0.000606198
0.000164491
0.000224141
0.000203139
0.000178698
0.000155602
0.000144437
0.000303243
0.000196383
0.000125726
7.9402e-05
4.96526e-05
3.16095e-05
2.15841e-05
1.5978e-05
1.26515e-05
9.0473e-06
8.0459e-06
6.01154e-06
7.6708e-06
0.00262586
0.00574072
0.000910949
0.000529886
0.000587088
0.000755636
0.000970377
0.001117
0.00117459
0.00116519
0.0010931
0.000976903
0.000839593
0.000704722
0.000592512
0.000522539
0.000508735
0.000936415
0.000571259
0.000385139
0.000285867
0.000227155
0.000188086
0.000169437
0.000398257
0.000281295
0.000209431
0.000159959
0.000123387
9.45999e-05
7.09949e-05
5.13567e-05
3.47108e-05
1.64812e-05
9.66515e-06
8.33565e-06
9.90171e-06
0.00389418
0.0101308
0.00171876
0.00065869
0.000693552
0.00101787
0.00129573
0.00140803
0.00141774
0.00136898
0.0012681
0.0011215
0.000945869
0.000768625
0.000616161
0.000504997
0.000442045
0.000416216
0.000363505
0.000316373
0.000275995
0.000239003
0.000203471
0.000170274
0.000153118
0.000131518
0.000114059
9.86012e-05
8.38258e-05
6.87085e-05
5.33553e-05
3.90009e-05
2.56879e-05
1.54632e-05
9.9046e-06
1.10364e-05
1.2864e-05
1.96063e-05
2.30811e-05
2.39466e-05
0.00565348
0.0151516
0.00385556
0.00131211
0.00123387
0.00176636
0.00189024
0.00185901
0.00177786
0.00166693
0.00151429
0.00131229
0.00107616
0.000840005
0.000639128
0.000494455
0.000409995
0.000369276
0.000343275
0.000318058
0.000288048
0.000252427
0.000212848
0.000172229
0.000137889
0.000113988
9.64687e-05
8.09071e-05
6.57958e-05
5.20853e-05
4.08445e-05
3.17404e-05
2.33041e-05
1.75972e-05
1.39318e-05
1.67265e-05
2.49552e-05
3.00911e-05
4.61002e-05
4.58349e-05
0.00761625
0.0182761
0.00811491
0.0041537
0.00363177
0.00321581
0.00282596
0.00251532
0.00228001
0.00207391
0.00184276
0.00156007
0.00124185
0.00093303
0.000681149
0.000510385
0.000418487
0.000378932
0.000356455
0.00033108
0.000296629
0.000254517
0.000208583
0.000163169
0.000123618
9.62185e-05
7.87223e-05
6.51628e-05
5.43706e-05
4.63237e-05
4.02718e-05
3.49957e-05
2.97018e-05
2.6256e-05
2.57317e-05
3.14283e-05
4.74404e-05
5.3502e-05
8.56167e-05
7.62231e-05
0.00803899
0.0196527
0.0115154
0.00824866
0.00620952
0.00476186
0.00382422
0.00325328
0.0028915
0.00259569
0.00226246
0.00186025
0.00142413
0.00102092
0.000717518
0.000532271
0.0004416
0.000402204
0.000374614
0.000340448
0.000294157
0.000242655
0.000191479
0.000147015
0.000114007
9.29813e-05
7.98461e-05
7.08197e-05
6.42541e-05
5.90008e-05
5.40734e-05
4.9104e-05
4.48217e-05
4.34514e-05
4.75722e-05
5.94589e-05
8.39827e-05
0.000121158
0.000191529
9.40065e-05
0.00744384
0.0122006
0.00963655
0.00740136
0.00575502
0.00474988
0.004188
0.00386895
0.00360241
0.00324218
0.00272402
0.0021071
0.00150378
0.00100433
0.000706431
0.00056523
0.000496118
0.000456222
0.000419698
0.000376281
0.000326782
0.000277275
0.000233472
0.000199304
0.000176012
0.000161481
0.000152063
0.000144686
0.000137102
0.000127581
0.000115308
0.000101138
8.79951e-05
8.03545e-05
8.28948e-05
9.97811e-05
0.000134844
0.000190854
0.000264869
0.000335872
0.00178298
0.00280085
0.00405619
0.00472711
0.00493463
0.00475385
0.00419279
0.00335546
0.00236314
0.00164932
0.00121285
0.000961975
0.000832156
0.000769088
0.000734203
0.00070588
0.000674826
0.000640056
0.000604844
0.000573388
0.000548415
0.000530727
0.000519649
0.0005134
0.000509396
0.000504389
0.000494425
0.000475243
0.00044343
0.000398287
0.000343744
0.000288888
0.000245716
0.000225133
0.000233431
0.000280044
0.000378124
0.000680055
0.0011637
0.00429417
0.0061665
0.00627037
0.00575107
0.00491221
0.00393911
0.00306083
0.00237895
0.0019514
0.00171447
0.00160519
0.001574
0.00158186
0.00160484
0.00162841
0.00164335
0.0016456
0.00163651
0.00162081
0.00160388
0.00159052
0.00158459
0.0015882
0.00160033
0.0016164
0.00162801
0.00162291
0.00158627
0.00150433
0.00137082
0.00119436
0.00100083
0.000823519
0.000685361
0.000712771
0.0013449
0.00118186
0.00105226
0.00132301
0.00160958
0.00236948
0.00273624
0.0029642
0.00295926
0.00281719
0.00255813
0.00223635
0.0019318
0.00168386
0.00150965
0.00139867
0.00133102
0.00128884
0.001259
0.00123349
0.00120895
0.00118538
0.00116427
0.00114723
0.00113529
0.00112872
0.00112693
0.00112846
0.00113111
0.00113194
0.00112746
0.001114
0.00108837
0.00104887
0.000996145
0.000933344
0.00086521
0.000795941
0.000727837
0.000704275
0.000751334
0.000650651
)
;

boundaryField
{
    floor
    {
        Cmu             0.09;
        kappa           0.41;
        E               9.8;
        type            epsilonWallFunction;
        value           nonuniform List<scalar> 
29
(
0.000259083
3.15704e-05
6.27745e-05
0.000106178
0.00013901
0.000145435
0.000138725
0.000114962
9.1593e-05
7.31659e-05
5.88145e-05
4.73893e-05
3.80736e-05
3.03554e-05
2.38026e-05
1.8116e-05
1.3169e-05
8.91557e-06
5.27842e-06
4.69976e-06
4.69976e-06
6.42282e-06
7.6708e-06
9.90171e-06
0.000259083
3.15704e-05
4.84848e-05
0.000164491
0.000936415
)
;
    }
    ceiling
    {
        Cmu             0.09;
        kappa           0.41;
        E               9.8;
        type            epsilonWallFunction;
        value           nonuniform List<scalar> 
43
(
0.00105226
0.00132301
0.00160958
0.00236948
0.00273624
0.0029642
0.00295926
0.00281719
0.00255813
0.00223635
0.0019318
0.00168386
0.00150965
0.00139867
0.00133102
0.00128884
0.001259
0.00123349
0.00120895
0.00118538
0.00116427
0.00114723
0.00113529
0.00112872
0.00112693
0.00112846
0.00113111
0.00113194
0.00112746
0.001114
0.00108837
0.00104887
0.000996145
0.000933344
0.00086521
0.000795941
0.000727837
0.000704275
0.000751334
0.000650651
0.00744384
0.0122006
0.0011637
)
;
    }
    sWall
    {
        Cmu             0.09;
        kappa           0.41;
        E               9.8;
        type            epsilonWallFunction;
        value           uniform 0.00105226;
    }
    nWall
    {
        Cmu             0.09;
        kappa           0.41;
        E               9.8;
        type            epsilonWallFunction;
        value           nonuniform List<scalar> 6(2.39466e-05 4.58349e-05 7.62231e-05 0.000680055 0.00118186 0.000650651);
    }
    sideWalls
    {
        type            empty;
    }
    glass1
    {
        Cmu             0.09;
        kappa           0.41;
        E               9.8;
        type            epsilonWallFunction;
        value           nonuniform List<scalar> 9(0.000428643 0.000980895 0.00169039 0.00262586 0.00389418 0.00565348 0.00761625 0.00803899 0.00744384);
    }
    glass2
    {
        Cmu             0.09;
        kappa           0.41;
        E               9.8;
        type            epsilonWallFunction;
        value           nonuniform List<scalar> 2(9.40065e-05 0.000335872);
    }
    sun
    {
        Cmu             0.09;
        kappa           0.41;
        E               9.8;
        type            epsilonWallFunction;
        value           nonuniform List<scalar> 
14
(
0.000428643
0.000574958
0.000630277
0.000734311
0.000842861
0.000959678
0.00108944
0.00119292
0.00124821
0.00123905
0.00116036
0.00101667
0.000811364
0.000492039
)
;
    }
    heatsource1
    {
        Cmu             0.09;
        kappa           0.41;
        E               9.8;
        type            epsilonWallFunction;
        value           nonuniform List<scalar> 3(1.96063e-05 2.30811e-05 2.39466e-05);
    }
    heatsource2
    {
        Cmu             0.09;
        kappa           0.41;
        E               9.8;
        type            epsilonWallFunction;
        value           nonuniform List<scalar> 4(0.000556946 0.000221843 0.000221843 0.000606198);
    }
    Table_master
    {
        Cmu             0.09;
        kappa           0.41;
        E               9.8;
        type            epsilonWallFunction;
        value           nonuniform List<scalar> 9(0.000303243 0.000196383 0.000125726 7.9402e-05 4.96526e-05 3.16095e-05 2.15841e-05 1.5978e-05 1.26515e-05);
    }
    Table_slave
    {
        Cmu             0.09;
        kappa           0.41;
        E               9.8;
        type            epsilonWallFunction;
        value           nonuniform List<scalar> 9(0.000398257 0.000281295 0.000209431 0.000159959 0.000123387 9.45999e-05 7.09949e-05 5.13567e-05 3.47108e-05);
    }
    inlet
    {
        type            turbulentMixingLengthDissipationRateInlet;
        mixingLength    0.01;
        phi             phi;
        k               k;
        value           uniform 0.000101881;
    }
    outlet
    {
        type            zeroGradient;
    }
}


// ************************************************************************* //
