/*--------------------------------*- C++ -*----------------------------------*\
  =========                 |
  \\      /  F ield         | OpenFOAM: The Open Source CFD Toolbox
   \\    /   O peration     | Website:  https://openfoam.org
    \\  /    A nd           | Version:  6
     \\/     M anipulation  |
\*---------------------------------------------------------------------------*/
FoamFile
{
    version     2.0;
    format      ascii;
    class       volScalarField;
    location    "100";
    object      nut;
}
// * * * * * * * * * * * * * * * * * * * * * * * * * * * * * * * * * * * * * //

dimensions      [0 2 -1 0 0 0 0];

internalField   nonuniform List<scalar> 
459
(
0.00106597
0.0011756
0.00121215
0.00127548
0.00133547
0.00139452
0.00145473
0.00149941
0.00152222
0.00151849
0.00148564
0.00142159
0.00131861
0.00111613
0.000901291
0.000446972
0.000562035
0.000669669
0.000732575
0.00074371
0.000732126
0.000687715
0.000637578
0.000591622
0.000550142
0.000511984
0.000476029
0.000441477
0.000407183
0.000371845
0.000334413
0.00029368
0.000246569
0.000236782
0.00140471
0.00358661
0.00352744
0.00412231
0.00473085
0.00529317
0.00570281
0.00607954
0.00640026
0.00663965
0.00677402
0.00677101
0.00659282
0.00609627
0.00457937
0.00116322
0.000855862
0.000515544
0.00172816
0.0020635
0.00246008
0.00275064
0.00274591
0.00189169
0.00151933
0.00126611
0.00108566
0.000958024
0.000865394
0.00077332
0.000669976
0.000565617
0.000485048
0.000451844
0.000363
0.000262772
0.00168413
0.00488433
0.00443739
0.00529347
0.00575662
0.00610948
0.00638282
0.00668654
0.00702319
0.00737423
0.00770673
0.00794696
0.00804159
0.00784865
0.00711677
0.00502734
0.00119656
0.000774881
0.00172468
0.00236299
0.00296819
0.00342707
0.00334448
0.000950134
0.000822112
0.000708656
0.000608112
0.0005201
0.00044743
0.000393966
0.000356377
0.000329712
0.000343155
0.000394701
0.000382966
0.000278785
0.00195046
0.00607362
0.00452718
0.00551477
0.00576274
0.00588299
0.00602884
0.00626235
0.00659272
0.00701016
0.00747815
0.00786751
0.0081294
0.00821929
0.00801015
0.00702478
0.00404775
0.00138323
0.00169583
0.002294
0.00310869
0.00390798
0.00445164
0.00422199
0.00104041
0.000926567
0.000839816
0.000767716
0.000704133
0.000644533
0.00058581
0.000525963
0.000461645
0.000372707
0.0003749
0.000430834
0.000303498
0.00222426
0.00758968
0.00493235
0.0054875
0.00571315
0.00568736
0.0057527
0.0059191
0.0062345
0.00667936
0.00717722
0.00762061
0.00793081
0.00808188
0.00806157
0.00775579
0.0067821
0.00588886
0.00573623
0.00587448
0.00610768
0.00628067
0.00627802
0.00593401
0.00475418
0.00403292
0.00352616
0.00310304
0.00264881
0.00218151
0.00176126
0.00142726
0.00112703
0.000810527
0.00061586
0.00062119
0.000479417
0.000380879
0.000402178
0.000407233
0.00251856
0.00929832
0.00658824
0.0058134
0.00603842
0.00585843
0.00578059
0.00583435
0.00611042
0.00658034
0.00712771
0.0076068
0.00791519
0.00803708
0.00803311
0.00797955
0.00788476
0.00786257
0.00792976
0.0079861
0.00794521
0.00775854
0.00740166
0.00684984
0.00607625
0.00533002
0.00463653
0.00395374
0.00331635
0.00279728
0.00244425
0.00219622
0.0019201
0.00154155
0.00120164
0.00109579
0.000980906
0.000930186
0.00102492
0.000505666
0.0027816
0.0104882
0.00899538
0.00741631
0.00687773
0.00626431
0.00588944
0.00586531
0.00618804
0.00675656
0.00739694
0.00792548
0.00823232
0.00832722
0.00832929
0.00840243
0.00861554
0.00886723
0.0089997
0.00893827
0.00867645
0.00823767
0.00764776
0.00693554
0.00613891
0.00533437
0.00460175
0.00397772
0.00349793
0.00317223
0.00295029
0.00273999
0.00246331
0.00212355
0.00180336
0.00164633
0.00156604
0.00148815
0.00152248
0.000599131
0.00283214
0.00915046
0.00831809
0.00738125
0.00647409
0.00581926
0.00560316
0.00585299
0.00647581
0.00728965
0.00806696
0.00861684
0.0088755
0.00892447
0.0089263
0.00902103
0.00917205
0.0092414
0.00914058
0.00883428
0.00833195
0.00768226
0.00691761
0.00607958
0.00527108
0.00458524
0.00404378
0.00363933
0.00335054
0.00313585
0.00293933
0.00271244
0.00243698
0.00214654
0.00189672
0.00171682
0.00160074
0.00145611
0.00142944
0.000642579
0.00276045
0.00325467
0.00350356
0.00356424
0.00372569
0.00421681
0.00507572
0.00621426
0.0074356
0.00851225
0.00925371
0.00957983
0.00960381
0.00952679
0.00933876
0.00904346
0.0087463
0.00843175
0.00802807
0.00749883
0.00684084
0.00610184
0.00536133
0.00470616
0.00418511
0.00380563
0.00353402
0.00332798
0.00314996
0.00296685
0.0027551
0.00250789
0.00223572
0.0019586
0.0016984
0.00148171
0.00133039
0.00123127
0.0011629
0.000982169
0.00102513
0.00240691
0.00486312
0.00690619
0.00847122
0.00958308
0.0102327
0.0104938
0.010459
0.0100719
0.00950029
0.00888286
0.0082943
0.00778256
0.0073484
0.00694108
0.00651901
0.0060801
0.00564907
0.00525984
0.00493745
0.0046901
0.00450946
0.00437648
0.00426783
0.0041604
0.00403225
0.00386385
0.00364201
0.00336535
0.00304856
0.00272102
0.00241458
0.00214872
0.00193423
0.0018137
0.00178898
0.00124288
0.00148705
0.00505951
0.00731789
0.00887055
0.00977614
0.0100932
0.00996297
0.00958503
0.00906908
0.00846246
0.00785751
0.00735057
0.00697799
0.00671655
0.00652104
0.00635338
0.00619346
0.00603751
0.00589079
0.00576064
0.00565176
0.00556532
0.00549977
0.00545105
0.00541168
0.00537058
0.00531301
0.00522098
0.00507508
0.00485841
0.00456325
0.00419992
0.00380191
0.00341737
0.00308992
0.00295988
0.00332658
0.00149424
0.00143798
0.00155203
0.00165685
0.00188479
0.00197741
0.00203087
0.00202973
0.00199672
0.00193354
0.00184881
0.00176076
0.00168197
0.00162185
0.0015811
0.0015552
0.0015386
0.00152664
0.00151626
0.00150614
0.00149629
0.00148735
0.00148006
0.0014749
0.00147204
0.00147124
0.00147189
0.00147301
0.00147333
0.00147135
0.00146542
0.00145405
0.0014362
0.00141167
0.00138132
0.00134682
0.00130986
0.00127139
0.00125754
0.00128515
0.00122497
)
;

boundaryField
{
    floor
    {
        type            nutkWallFunction;
        Cmu             0.09;
        kappa           0.41;
        E               9.8;
        value           nonuniform List<scalar> 
29
(
0.000109052
5.28294e-05
6.75389e-05
8.0961e-05
8.86857e-05
9.00426e-05
8.8626e-05
8.3179e-05
7.69795e-05
7.12444e-05
6.60201e-05
6.11703e-05
5.65583e-05
5.20851e-05
4.7601e-05
4.29307e-05
3.79233e-05
3.23953e-05
2.58819e-05
2.45532e-05
2.45531e-05
2.81883e-05
3.04054e-05
3.37984e-05
0.000109052
5.28294e-05
6.16572e-05
9.38319e-05
0.000165012
)
;
    }
    ceiling
    {
        type            nutkWallFunction;
        Cmu             0.09;
        kappa           0.41;
        E               9.8;
        value           nonuniform List<scalar> 
43
(
0.000171175
0.000184003
0.000195704
0.000220923
0.000231081
0.000236922
0.000236808
0.000233215
0.000226315
0.00021702
0.00020731
0.000198576
0.000191881
0.000187328
0.000184426
0.000182565
0.000181221
0.000180055
0.000178917
0.000177809
0.000176803
0.000175981
0.0001754
0.000175079
0.00017499
0.000175065
0.000175194
0.000175234
0.000175014
0.000174349
0.000173069
0.000171055
0.000168282
0.000164842
0.00016092
0.000156704
0.0001523
0.000150709
0.000153857
0.000146948
0.000315144
0.00036681
0.000176631
)
;
    }
    sWall
    {
        type            nutkWallFunction;
        Cmu             0.09;
        kappa           0.41;
        E               9.8;
        value           uniform 0.000171215;
    }
    nWall
    {
        type            nutkWallFunction;
        Cmu             0.09;
        kappa           0.41;
        E               9.8;
        value           nonuniform List<scalar> 6(4.76711e-05 6.04176e-05 7.2236e-05 0.00014904 0.000177639 0.000146956);
    }
    sideWalls
    {
        type            empty;
    }
    glass1
    {
        type            nutkWallFunction;
        Cmu             0.09;
        kappa           0.41;
        E               9.8;
        value           nonuniform List<scalar> 9(0.000128568 0.000167617 0.000199023 0.000228427 0.000258206 0.000289783 0.000317677 0.00032301 0.000315462);
    }
    glass2
    {
        type            nutkWallFunction;
        Cmu             0.09;
        kappa           0.41;
        E               9.8;
        value           nonuniform List<scalar> 2(7.76436e-05 0.000118707);
    }
    sun
    {
        type            nutkWallFunction;
        Cmu             0.09;
        kappa           0.41;
        E               9.8;
        value           nonuniform List<scalar> 
14
(
0.000128491
0.000141235
0.000145454
0.00015273
0.000159585
0.0001663
0.000173114
0.00017815
0.000180715
0.000180295
0.000176599
0.000169366
0.000157662
0.000134337
)
;
    }
    heatsource1
    {
        type            nutkWallFunction;
        Cmu             0.09;
        kappa           0.41;
        E               9.8;
        value           nonuniform List<scalar> 3(4.4208e-05 4.70193e-05 4.76749e-05);
    }
    heatsource2
    {
        type            nutkWallFunction;
        Cmu             0.09;
        kappa           0.41;
        E               9.8;
        value           nonuniform List<scalar> 4(0.000139801 0.000103621 0.000103621 0.000143653);
    }
    Table_master
    {
        type            nutkWallFunction;
        Cmu             0.09;
        kappa           0.41;
        E               9.8;
        value           nonuniform List<scalar> 9(0.000114832 9.95343e-05 8.57398e-05 7.32926e-05 6.2193e-05 5.28582e-05 4.58734e-05 4.08886e-05 3.73094e-05);
    }
    Table_slave
    {
        type            nutkWallFunction;
        Cmu             0.09;
        kappa           0.41;
        E               9.8;
        value           nonuniform List<scalar> 9(0.000125478 0.000112042 0.000101675 9.29605e-05 8.51942e-05 7.78362e-05 7.05044e-05 6.29398e-05 5.46932e-05);
    }
    inlet
    {
        type            calculated;
        value           uniform 0.000100623;
    }
    outlet
    {
        type            calculated;
        value           nonuniform List<scalar> 2(0.00143798 0.00155203);
    }
}


// ************************************************************************* //
