/*--------------------------------*- C++ -*----------------------------------*\
  =========                 |
  \\      /  F ield         | OpenFOAM: The Open Source CFD Toolbox
   \\    /   O peration     | Website:  https://openfoam.org
    \\  /    A nd           | Version:  6
     \\/     M anipulation  |
\*---------------------------------------------------------------------------*/
FoamFile
{
    version     2.0;
    format      ascii;
    class       surfaceScalarField;
    location    "100";
    object      phi;
}
// * * * * * * * * * * * * * * * * * * * * * * * * * * * * * * * * * * * * * //

dimensions      [1 0 -1 0 0 0 0];

internalField   nonuniform List<scalar> 
852
(
-0.0027244
0.00276842
-0.00380473
0.00108029
-0.00457145
0.000766677
-0.00510013
0.000528643
-0.00535914
0.000258964
-0.00532176
-3.74175e-05
-0.00496846
-0.000353339
-0.00432339
-0.00064511
-0.00346608
-0.000857347
-0.00250371
-0.000962402
-0.00154493
-0.00095882
-0.0006912
-0.000853773
-5.07224e-05
-0.000640517
0.000210893
-0.000261659
0.000210261
-0.000485142
0.00048344
-0.000564531
7.92406e-05
-0.000182354
-0.000382304
0.000401721
-0.000584187
0.000969241
-0.000567634
0.00144967
-0.000480552
0.00175482
-0.000305296
0.00193011
-0.000175468
0.0020677
-0.000137811
0.00218656
-0.000119108
0.00227208
-8.58057e-05
0.00230815
-3.63785e-05
0.00228368
2.41437e-05
0.00218786
9.55086e-05
0.00199721
0.000190364
0.00166377
0.000333211
0.00114955
0.000514053
0.000417082
0.000732385
0.000414427
-0.0019656
0.004854
-0.00295917
0.00207382
-0.00372191
0.00152938
-0.00424051
0.0010472
-0.00449745
0.000515866
-0.00446523
-6.96722e-05
-0.00413033
-0.000688275
-0.00353414
-0.00124134
-0.00277195
-0.00161957
-0.00194851
-0.00178588
-0.00115756
-0.00174981
-0.00047286
-0.00153851
4.48457e-05
-0.00115826
0.000427787
-0.000644641
0.000752807
-0.000114804
0.00050657
0.000246141
0.000506467
-8.93088e-06
0.000487998
0.000434266
-0.000364113
0.000824412
-0.000772551
0.00116456
-0.000924413
0.00149806
-0.000901204
0.00177629
-0.000758854
0.00184002
-0.000369123
0.00184991
-0.000185478
0.001867
-0.000155071
0.00188643
-0.000138766
0.00189914
-9.87998e-05
0.00189616
-3.37099e-05
0.00187596
4.40155e-05
0.00184243
0.000128727
0.00176731
0.000265212
0.00152255
0.000577742
0.00111812
0.000918328
0.000617862
0.00123256
0.00102466
-0.0013846
0.00642382
-0.00220655
0.00289573
-0.00287016
0.00219295
-0.00331162
0.00148862
-0.00352454
0.000728745
-0.00346146
-0.000132796
-0.00310245
-0.00104732
-0.00252033
-0.00182351
-0.00183532
-0.00230462
-0.00114108
-0.00248017
-0.000506764
-0.00238416
2.63339e-05
-0.00207164
0.000440232
-0.0015722
0.000760143
-0.000964588
0.000971086
-0.000325786
0.000881499
0.000335686
0.00138792
0.000843581
-0.000360246
0.00132905
-0.000849671
0.00160835
-0.00105191
0.00176352
-0.00107964
0.001901
-0.00103873
0.0021848
-0.0010427
0.00181577
0.00163036
0.00147528
0.00133643
0.00123748
0.0012036
0.00124748
0.00137611
0.00164127
0.00143346
0.00078538
0.00114465
0.001207
0.000734249
0.00164287
0.00174655
-0.000967371
0.00763293
-0.00158407
0.0035124
-0.0020141
0.00262293
-0.00229022
0.0017647
-0.00238242
0.000820905
-0.00220641
-0.000308843
-0.00177793
-0.00147584
-0.00121516
-0.00238632
-0.000641422
-0.00287839
-0.000113576
-0.00300805
0.000334028
-0.0028318
0.000688642
-0.00242629
0.000983427
-0.00186702
0.00124478
-0.00122598
0.00149021
-0.00057125
0.00179755
2.83105e-05
0.0027371
0.000448327
0.00269252
4.19015e-05
0.00270775
-0.000375525
0.00252471
-0.000666665
0.00231101
-0.000838246
0.00211878
-0.000887441
0.00192815
-0.000848115
0.00158214
-0.00069671
0.00186447
-0.000282497
0.00196697
-0.000102677
0.0020125
-4.57069e-05
0.00202401
-1.17082e-05
0.00199641
2.73697e-05
0.00192007
7.6058e-05
0.00177836
0.000141365
0.00154483
0.000233085
0.00117134
0.000372963
0.00113612
0.000820319
0.00102874
0.00131421
0.000872072
0.00179945
0.00260212
-0.000679089
0.00860244
-0.00111373
0.003947
-0.00118606
0.00269522
-0.00120316
0.00178176
-0.00104378
0.000661484
-0.000637644
-0.000715021
-0.000124919
-0.00198861
0.000352321
-0.0028636
0.000740409
-0.00326652
0.00103047
-0.00329815
0.00123837
-0.00303973
0.00138735
-0.00257531
0.00150846
-0.00198816
0.00163653
-0.00135408
0.00181118
-0.000745932
0.00208121
-0.000241753
0.0024683
6.12097e-05
0.00256755
-5.73765e-05
0.00249223
-0.000300241
0.00232145
-0.000495898
0.00210003
-0.000616843
0.00186799
-0.000655414
0.00163629
-0.000616433
0.00142972
-0.000490142
0.001408
-0.00026079
0.00139358
-8.828e-05
0.00134245
5.3876e-06
0.0012638
6.68808e-05
0.00116592
0.000125154
0.00104922
0.000192603
0.000919944
0.000270432
0.000792829
0.000359944
0.000693136
0.00047239
0.000740214
0.000773029
0.000909143
0.00114514
0.00137029
0.00133822
0.00234759
0.00162477
0.00137885
0.000968506
0.000776601
0.000602017
0.000789466
-0.000583629
0.00951791
-0.000842165
0.0042055
-0.000409902
0.00226291
1.03578e-05
0.00136146
0.000596426
7.53747e-05
0.00126078
-0.00137941
0.00175375
-0.00248163
0.0020421
-0.003152
0.00217573
-0.00340019
0.00218511
-0.00330757
0.00210895
-0.00296361
0.00199074
-0.00245713
0.00187312
-0.00187058
0.00179351
-0.00127451
0.0017823
-0.00073474
0.00185436
-0.000313844
0.00198644
-7.08934e-05
0.00200377
-7.47299e-05
0.00190043
-0.000196922
0.00172776
-0.000323234
0.001517
-0.00040609
0.00129166
-0.000430087
0.00106807
-0.000392838
0.000870681
-0.000292763
0.000742434
-0.000132555
0.000641554
1.25721e-05
0.000540712
0.000106183
0.000439281
0.000168238
0.000342021
0.000222305
0.000261925
0.000272556
0.000212782
0.000319413
0.000201128
0.000371436
0.000225293
0.000448082
0.000355979
0.000642226
0.000597271
0.000903761
0.000923563
0.00101186
0.00131061
0.00123767
0.00124871
0.00103037
0.000810313
0.00104038
0.00161375
-0.000582985
0.0104706
-0.000374919
0.00399739
0.000823167
0.00106479
0.00187366
0.000310922
0.00280511
-0.000856119
0.00343675
-0.00201109
0.00374445
-0.00278937
0.00375527
-0.00316287
0.0035424
-0.00318737
0.00318284
-0.00294804
0.00274941
-0.00253022
0.00230811
-0.00201586
0.00191275
-0.00147524
0.00159896
-0.000960746
0.0013878
-0.000523602
0.00128126
-0.000207322
0.00124616
-3.5808e-05
0.00119003
-1.86141e-05
0.00107935
-8.62485e-05
0.000922181
-0.000166068
0.000732585
-0.000216497
0.000524271
-0.000221775
0.000310918
-0.000179487
0.000108762
-9.06147e-05
-5.41872e-05
3.03696e-05
-0.000172207
0.000130558
-0.000258608
0.000192535
-0.000325298
0.000234861
-0.000367193
0.000264118
-0.00037805
0.000283324
-0.000358096
0.000299372
-0.000312707
0.000325968
-0.000248318
0.000383627
-0.000119942
0.000513794
8.53e-05
0.00069847
0.000313441
0.00078368
0.000669396
0.000881682
0.000939913
0.000759827
0.000805258
0.00117501
0.00243378
0.00242585
0.00845911
0.0031838
0.00323941
0.00394831
0.000300234
0.0050561
-0.000796913
0.00579163
-0.00159168
0.00600961
-0.00222912
0.00580127
-0.00258107
0.00527019
-0.00263183
0.00453071
-0.00244794
0.00369332
-0.00211069
0.00285066
-0.00168759
0.00207932
-0.00124454
0.00143348
-0.000829422
0.000937467
-0.000464746
0.000598576
-0.000184723
0.000400334
-9.08909e-06
0.000299497
6.50199e-05
0.000226815
5.40616e-05
0.000132299
8.26306e-06
-1.4633e-06
-3.23065e-05
-0.000169049
-4.8911e-05
-0.00035708
-3.37451e-05
-0.000548609
1.20329e-05
-0.000716472
7.72349e-05
-0.000831532
0.000145413
-0.000899715
0.000198718
-0.000940171
0.00023296
-0.000957444
0.000252097
-0.000953011
0.000259643
-0.000930627
0.000260898
-0.000896663
0.000265369
-0.000857625
0.000286896
-0.000817425
0.000343395
-0.000760303
0.000456643
-0.000681759
0.000619898
-0.000673152
0.000775044
-0.000740313
0.000948813
-0.00104881
0.0010683
-0.00120986
0.00133603
0.0012802
0.00889659
0.0121147
0.0112551
0.0011598
0.0105914
-0.000133325
0.00970563
-0.000705928
0.00856835
-0.00109188
0.00722754
-0.00124031
0.00580056
-0.00120489
0.00439204
-0.00103945
0.00308501
-0.000803682
0.00193564
-0.000538235
0.000992881
-0.000301798
0.000274155
-0.000110705
-0.000220588
2.99908e-05
-0.000512841
0.000107524
-0.000657917
0.000135985
-0.000728111
0.000135215
-0.000788749
0.000114701
-0.000870118
8.96352e-05
-0.000978027
7.56038e-05
-0.00110569
7.87547e-05
-0.00123644
9.70069e-05
-0.00134968
0.000125276
-0.00143097
0.000158522
-0.00147643
0.00019087
-0.0014933
0.000215582
-0.00149099
0.000230641
-0.00147632
0.000237413
-0.0014559
0.000239213
-0.0014372
0.000242177
-0.00142761
0.000255769
-0.0014336
0.000292868
-0.00146049
0.000370271
-0.00151053
0.000506661
-0.0016019
0.000711247
-0.00181688
0.000990007
-0.00223109
0.00136299
-0.00282016
0.00165736
-0.00285993
0.00137579
-0.0015236
0.00398434
0.00190622
0.00328418
0.000566825
0.00342526
-0.00084702
0.00318912
-0.000855754
0.00257813
-0.000629322
0.00179444
-0.000421207
0.00096198
-0.000206998
0.000149681
8.60976e-06
-0.000543848
0.000155289
-0.0010418
0.000196152
-0.00135965
0.000207141
-0.00153672
0.000207062
-0.00162466
0.000195466
-0.00166951
0.000180838
-0.00169896
0.000164674
-0.00173255
0.000148298
-0.00177768
0.000134772
-0.00182995
0.000127884
-0.0018801
0.000128913
-0.0019195
0.000136419
-0.00194246
0.00014825
-0.00194634
0.000162411
-0.00193195
0.000176479
-0.00190394
0.000187583
-0.00186766
0.000194364
-0.00182758
0.000197338
-0.00178729
0.000198919
-0.0017489
0.000203784
-0.00171232
0.000219186
-0.00167483
0.000255371
-0.0016304
0.000325825
-0.00156887
0.000445124
-0.00148198
0.000624333
-0.00136799
0.000876002
-0.00121883
0.00121382
-0.000874905
0.00131342
-0.000142044
0.000642918
-0.00165311
0.000485007
0.00144458
0.000810353
0.000241473
0.000102631
-0.000139299
-0.000599749
-0.000153371
-0.00118251
-4.65592e-05
-0.00166736
6.36438e-05
-0.00203106
0.000156693
-0.00224401
0.000221565
-0.00234916
0.000260435
-0.00240835
0.000255347
-0.00243283
0.000231622
-0.00243022
0.000204455
-0.00241374
0.000178998
-0.00239203
0.000159134
-0.002372
0.000144651
-0.00235758
0.000133891
-0.00234865
0.00012585
-0.00234133
0.000120577
-0.00233046
0.000118055
-0.00231189
0.000117855
-0.00228312
0.000119496
-0.00224317
0.000122475
-0.00219264
0.000125952
-0.00213391
0.000128866
-0.00207029
0.000130755
-0.002005
0.000132055
-0.00194024
0.000134164
-0.00187595
0.000139498
-0.00180824
0.000151482
-0.00172743
0.00017456
-0.00161573
0.000214128
-0.00144637
0.000275753
-0.00118414
0.000362095
-0.000769549
0.000461404
-6.59061e-05
0.000510162
0.000841279
0.000406228
0.00143385
5.0338e-05
-0.000207059
-0.00390037
-0.00564312
-0.00420886
-0.0039883
-0.00415276
-0.00433366
-0.00440979
-0.00437758
-0.00425432
-0.0040684
-0.00384587
-0.00363051
-0.0034406
-0.00327916
-0.0031441
-0.00302959
-0.00293011
-0.00284186
-0.0027621
-0.00268802
-0.00261683
-0.00254615
-0.00247407
-0.00239918
-0.00232091
-0.0022398
-0.00215683
-0.00207262
-0.0019864
-0.00189506
-0.00179208
-0.00166656
-0.00150219
-0.00127711
-0.000966773
-0.000558335
-0.000102449
0.000249085
0.000245861
)
;

boundaryField
{
    floor
    {
        type            calculated;
        value           nonuniform List<scalar> 
29
(
0
0
0
0
0
0
0
0
0
0
0
0
0
0
0
0
0
0
0
0
2.64241e-06
7.59025e-06
1.23107e-05
1.6456e-05
5.83684e-07
1.54011e-06
4.2398e-06
4.51826e-06
2.64195e-06
)
;
    }
    ceiling
    {
        type            calculated;
        value           nonuniform List<scalar> 
43
(
1.31122e-05
1.09379e-05
1.03165e-05
2.09176e-05
2.51574e-05
2.75368e-05
2.95687e-05
3.14319e-05
3.34377e-05
3.56549e-05
3.79001e-05
3.99947e-05
4.17223e-05
4.30191e-05
4.39518e-05
4.46349e-05
4.51771e-05
4.56529e-05
4.60962e-05
4.65088e-05
4.68775e-05
4.71873e-05
4.7428e-05
4.75975e-05
4.77032e-05
4.77624e-05
4.78012e-05
4.78532e-05
4.79592e-05
4.81639e-05
4.85114e-05
4.9038e-05
4.97624e-05
5.06792e-05
5.1759e-05
5.29669e-05
5.42761e-05
5.46977e-05
5.35648e-05
5.54515e-05
2.60017e-05
2.12946e-05
-2.33729e-05
)
;
    }
    sWall
    {
        type            calculated;
        value           uniform -0.000229082;
    }
    nWall
    {
        type            calculated;
        value           nonuniform List<scalar> 6(-1.30846e-05 -1.39954e-05 -1.47898e-05 -1.25392e-05 -1.22007e-05 -1.66463e-05);
    }
    sideWalls
    {
        type            empty;
        value           nonuniform 0();
    }
    glass1
    {
        type            calculated;
        value           nonuniform List<scalar> 9(-4.40542e-05 -0.000120027 -0.000185251 -0.000241782 -0.000290452 -0.000331884 -0.000369745 -0.000414393 -0.000463517);
    }
    glass2
    {
        type            calculated;
        value           nonuniform List<scalar> 2(-5.62951e-05 -5.61473e-05);
    }
    sun
    {
        type            calculated;
        value           uniform 0;
    }
    heatsource1
    {
        type            calculated;
        value           nonuniform List<scalar> 3(1.9953e-07 1.9994e-07 2.00207e-07);
    }
    heatsource2
    {
        type            calculated;
        value           nonuniform List<scalar> 4(5.02009e-08 5.0281e-08 0 0);
    }
    Table_master
    {
        type            calculated;
        value           nonuniform List<scalar> 9(-1.50046e-07 -1.5021e-07 -1.50256e-07 -1.5027e-07 -1.50259e-07 -1.50225e-07 -1.50162e-07 -1.50076e-07 -1.4996e-07);
    }
    Table_slave
    {
        type            calculated;
        value           nonuniform List<scalar> 9(1.50052e-07 1.50083e-07 1.5007e-07 1.50064e-07 1.50058e-07 1.50053e-07 1.50051e-07 1.50052e-07 1.50063e-07);
    }
    inlet
    {
        type            calculated;
        value           uniform -0.00473077;
    }
    outlet
    {
        type            calculated;
        value           nonuniform List<scalar> 2(0.00411634 0.00173183);
    }
}


// ************************************************************************* //
