// -*- C++ -*-
// File generated by PyFoam - sorry for the ugliness

FoamFile
{
 version 2.0;
 format ascii;
 class volScalarField;
 location "100";
 object T;
}

dimensions [ 0 0 0 1 0 0 0 ];

internalField nonuniform List<scalar> 459
(
  306.08
  305.889
  305.878
  305.874
  305.87
  305.866
  305.86
  305.852
  305.842
  305.832
  305.824
  305.821
  305.824
  305.839
  305.851
  306.256
  306.18
  306.119
  306.08
  306.076
  306.081
  306.096
  306.117
  306.143
  306.175
  306.211
  306.25
  306.291
  306.331
  306.369
  306.403
  306.43
  306.448
  306.44
  306.207
  305.929
  305.911
  305.912
  305.912
  305.908
  305.901
  305.885
  305.861
  305.838
  305.819
  305.811
  305.813
  305.823
  305.836
  305.846
  305.867
  306.265
  306.128
  306.063
  306.036
  306.031
  306.036
  306.049
  306.068
  306.096
  306.135
  306.183
  306.236
  306.29
  306.341
  306.385
  306.419
  306.445
  306.459
  306.459
  306.339
  305.971
  305.946
  305.954
  305.962
  305.965
  305.957
  305.929
  305.887
  305.845
  305.814
  305.8
  305.8
  305.81
  305.821
  305.833
  305.849
  306.105
  306.017
  305.988
  305.986
  305.997
  306.013
  306.023
  306.041
  306.073
  306.123
  306.193
  306.27
  306.337
  306.388
  306.423
  306.444
  306.461
  306.469
  306.47
  306.475
  306.022
  305.982
  305.999
  306.023
  306.039
  306.029
  305.982
  305.914
  305.851
  305.805
  305.787
  305.787
  305.798
  305.812
  305.825
  305.839
  305.845
  305.869
  305.895
  305.925
  305.958
  305.991
  306.021
  306.044
  306.062
  306.079
  306.096
  306.118
  306.148
  306.189
  306.248
  306.327
  306.418
  306.462
  306.476
  306.476
  306.609
  306.084
  306.023
  306.043
  306.082
  306.117
  306.099
  306.021
  305.926
  305.846
  305.793
  305.772
  305.775
  305.791
  305.811
  305.828
  305.844
  305.861
  305.886
  305.917
  305.954
  305.993
  306.033
  306.069
  306.1
  306.127
  306.152
  306.183
  306.218
  306.261
  306.312
  306.369
  306.423
  306.462
  306.481
  306.486
  306.483
  306.487
  306.493
  306.505
  306.733
  306.164
  306.084
  306.095
  306.145
  306.179
  306.129
  306.028
  305.914
  305.821
  305.766
  305.75
  305.763
  305.792
  305.824
  305.852
  305.877
  305.905
  305.937
  305.975
  306.017
  306.061
  306.103
  306.141
  306.176
  306.209
  306.244
  306.282
  306.325
  306.371
  306.417
  306.457
  306.485
  306.498
  306.501
  306.499
  306.494
  306.495
  306.499
  306.508
  306.852
  306.288
  306.211
  306.218
  306.26
  306.228
  306.121
  305.98
  305.848
  305.756
  305.716
  305.722
  305.759
  305.81
  305.861
  305.905
  305.942
  305.979
  306.018
  306.061
  306.105
  306.149
  306.192
  306.231
  306.269
  306.308
  306.344
  306.382
  306.42
  306.454
  306.483
  306.503
  306.515
  306.518
  306.515
  306.51
  306.504
  306.504
  306.505
  306.511
  307.017
  306.593
  306.507
  306.483
  306.394
  306.221
  306.014
  305.827
  305.699
  305.641
  305.65
  305.704
  305.782
  305.865
  305.938
  305.994
  306.042
  306.083
  306.124
  306.166
  306.211
  306.253
  306.293
  306.331
  306.366
  306.397
  306.427
  306.456
  306.481
  306.501
  306.515
  306.523
  306.527
  306.525
  306.522
  306.518
  306.515
  306.517
  306.519
  306.528
  307.252
  307.049
  306.887
  306.655
  306.25
  305.863
  305.591
  305.455
  305.437
  305.502
  305.619
  305.748
  305.872
  305.981
  306.063
  306.119
  306.161
  306.201
  306.242
  306.281
  306.32
  306.356
  306.388
  306.416
  306.44
  306.462
  306.482
  306.499
  306.512
  306.522
  306.528
  306.531
  306.531
  306.53
  306.528
  306.528
  306.529
  306.534
  306.54
  306.55
  300.969
  301.587
  302.621
  303.55
  304.274
  304.829
  305.241
  305.548
  305.797
  305.955
  306.061
  306.137
  306.194
  306.238
  306.276
  306.312
  306.346
  306.377
  306.405
  306.429
  306.45
  306.467
  306.482
  306.495
  306.506
  306.515
  306.522
  306.527
  306.53
  306.532
  306.532
  306.532
  306.532
  306.532
  306.533
  306.536
  306.54
  306.54
  301.405
  302.454
  303.504
  304.493
  305.067
  305.444
  305.711
  305.9
  306.034
  306.132
  306.202
  306.256
  306.297
  306.331
  306.361
  306.388
  306.411
  306.432
  306.45
  306.465
  306.477
  306.488
  306.497
  306.505
  306.511
  306.517
  306.521
  306.524
  306.527
  306.529
  306.53
  306.532
  306.532
  306.533
  306.534
  306.535
  306.535
  306.534
  304.11
  304.016
  304.013
  304.979
  305.417
  305.678
  305.858
  305.987
  306.086
  306.165
  306.227
  306.276
  306.314
  306.345
  306.369
  306.39
  306.408
  306.423
  306.436
  306.447
  306.457
  306.465
  306.472
  306.478
  306.484
  306.488
  306.492
  306.496
  306.499
  306.502
  306.505
  306.507
  306.51
  306.512
  306.514
  306.516
  306.516
  306.512
  306.498
  306.487
)
;

boundaryField
{
  floor
  {
    type wallHeatTransfer;
    Tinf uniform 305.2;
    alphaWall uniform 0.24;
    value nonuniform List<scalar> 29
(
  305.772
  306.047
  306.014
  305.98
  305.956
  305.953
  305.957
  305.963
  305.974
  305.988
  306.007
  306.028
  306.051
  306.073
  306.094
  306.109
  306.117
  306.114
  306.094
  306.081
  306.081
  306.115
  306.134
  306.155
  305.772
  306.047
  306.074
  305.982
  305.789
)
;
  }
  ceiling
  {
    type wallHeatTransfer;
    Tinf uniform 303.2;
    alphaWall uniform 0.24;
    value nonuniform List<scalar> 43
(
  304.033
  303.951
  303.952
  304.857
  305.27
  305.518
  305.686
  305.804
  305.891
  305.958
  306.007
  306.044
  306.073
  306.096
  306.115
  306.132
  306.146
  306.159
  306.17
  306.179
  306.186
  306.193
  306.199
  306.204
  306.208
  306.213
  306.217
  306.22
  306.223
  306.225
  306.225
  306.225
  306.223
  306.221
  306.217
  306.212
  306.205
  306.199
  306.191
  306.17
  307.047
  306.879
  301.552
)
;
  }
  sWall
  {
    type wallHeatTransfer;
    Tinf uniform 315.2;
    alphaWall uniform 0.36;
    value uniform 305.469;
  }
  nWall
  {
    type wallHeatTransfer;
    Tinf uniform 307.2;
    alphaWall uniform 0.36;
    value nonuniform List<scalar> 6
(
  306.703
  306.681
  306.666
  306.631
  306.613
  306.586
)
;
  }
  sideWalls
  {
    type empty;
  }
  glass1
  {
    type wallHeatTransfer;
    Tinf uniform 315.2;
    alphaWall uniform 4.3;
    value nonuniform List<scalar> 9
(
  312.342
  311.907
  311.629
  311.414
  311.23
  311.059
  310.936
  310.988
  311.155
)
;
  }
  glass2
  {
    type wallHeatTransfer;
    Tinf uniform 307.2;
    alphaWall uniform 4.3;
    value nonuniform List<scalar> 2
(
  307.044
  307.004
)
;
  }
  sun
  {
    type wallHeatTransfer;
    Tinf uniform 305.2;
    alphaWall uniform 0.24;
    value nonuniform List<scalar> 14
(
  305.986
  305.821
  305.812
  305.811
  305.81
  305.808
  305.805
  305.799
  305.79
  305.78
  305.772
  305.768
  305.768
  305.772
)
;
  }
  heatsource1
  {
    type fixedGradient;
    gradient uniform 0;
  }
  heatsource2
  {
    type fixedGradient;
    gradient uniform 0;
  }
  Table_master
  {
    type zeroGradient;
  }
  Table_slave
  {
    type zeroGradient;
  }
  inlet
  {
    type fixedValue;
    value uniform 291.15;
  }
  outlet
  {
    type zeroGradient;
  }
} 	// ************************************************************************* //

