// -*- C++ -*-
// File generated by PyFoam - sorry for the ugliness

FoamFile
{
 version 2.0;
 format ascii;
 class volVectorField;
 location "100";
 object U;
}

dimensions [ 0 1 -1 0 0 0 0 ];

internalField nonuniform List<vector> 459
(
  (0.0172733 0.0800571 0)
  (-0.15696 0.0263964 0)
  (-0.185394 0.0162421 0)
  (-0.21372 0.00881949 0)
  (-0.230817 0.000988024 0)
  (-0.23522 -0.00716948 0)
  (-0.225324 -0.0156066 0)
  (-0.202483 -0.0237405 0)
  (-0.169022 -0.030067 0)
  (-0.129154 -0.0336083 0)
  (-0.0876184 -0.0340245 0)
  (-0.0490504 -0.0311656 0)
  (-0.017472 -0.0243214 0)
  (0.00656046 -0.00784124 0)
  (0.0225613 0.0103557 0)
  (-0.0492182 0.0104907 0)
  (-0.0236373 -0.00274474 0)
  (-0.0144942 -0.0162568 0)
  (0.00771304 -0.0242311 0)
  (0.0309986 -0.0225143 0)
  (0.0528235 -0.0182782 0)
  (0.0695219 -0.0114898 0)
  (0.0805591 -0.00800383 0)
  (0.0875336 -0.00699275 0)
  (0.0928065 -0.00645225 0)
  (0.0971803 -0.0055159 0)
  (0.100067 -0.00413422 0)
  (0.100509 -0.00235241 0)
  (0.0979657 -0.000123379 0)
  (0.0919753 0.00282648 0)
  (0.0812461 0.0072278 0)
  (0.0643622 0.0127802 0)
  (0.0292571 0.0209165 0)
  (0.051089 0.0103382 0)
  (0.166201 0.163277 0)
  (-0.141646 0.0694121 0)
  (-0.147798 0.0508331 0)
  (-0.176443 0.0354418 0)
  (-0.193348 0.0181024 0)
  (-0.197998 -0.00119771 0)
  (-0.188563 -0.0217981 0)
  (-0.167161 -0.0406337 0)
  (-0.136854 -0.0541954 0)
  (-0.101992 -0.0608419 0)
  (-0.0667558 -0.0605758 0)
  (-0.0348547 -0.0539209 0)
  (-0.00847963 -0.0407334 0)
  (0.0119305 -0.0206037 0)
  (0.02564 0.00104492 0)
  (0.031531 0.011495 0)
  (0.0232196 0.0245582 0)
  (-0.0713746 0.0239224 0)
  (0.0187458 -0.00852492 0)
  (0.030998 -0.0272788 0)
  (0.0440986 -0.0345924 0)
  (0.0580647 -0.0340916 0)
  (0.0715732 -0.0288941 0)
  (0.0792682 -0.0143094 0)
  (0.0810537 -0.00606725 0)
  (0.0809548 -0.00391118 0)
  (0.081323 -0.00330414 0)
  (0.0821333 -0.00195956 0)
  (0.0826965 0.000564777 0)
  (0.0822599 0.00379722 0)
  (0.0810619 0.00744047 0)
  (0.0789842 0.0123983 0)
  (0.0731111 0.0223479 0)
  (0.0610483 0.0324675 0)
  (0.027054 0.0430664 0)
  (0.08432 0.0338729 0)
  (0.304114 0.243509 0)
  (-0.150019 0.107901 0)
  (-0.110337 0.0806685 0)
  (-0.137214 0.0546146 0)
  (-0.152114 0.0261493 0)
  (-0.155291 -0.00535505 0)
  (-0.143998 -0.0382173 0)
  (-0.122049 -0.0670519 0)
  (-0.0939266 -0.0860999 0)
  (-0.0638372 -0.0938257 0)
  (-0.0349197 -0.0910817 0)
  (-0.00995609 -0.0795259 0)
  (0.0111009 -0.0594112 0)
  (0.0266083 -0.0349315 0)
  (0.0380329 -0.00926504 0)
  (0.0429869 0.0143152 0)
  (0.0398191 0.0504624 0)
  (-0.0142011 -0.0082415 0)
  (0.0526898 -0.0330211 0)
  (0.0681155 -0.04391 0)
  (0.0742665 -0.0466269 0)
  (0.0799007 -0.0450213 0)
  (0.0865355 -0.0430444 0)
  (0.0901378 -0.0317645 0)
  (0.0784892 -0.0209772 0)
  (0.0671139 -0.0153865 0)
  (0.0598341 -0.0119761 0)
  (0.0550253 -0.00883811 0)
  (0.0522479 -0.0054998 0)
  (0.0527568 -0.00210101 0)
  (0.0568204 0.00124372 0)
  (0.0657133 0.00666914 0)
  (0.0686651 0.0275591 0)
  (0.0608787 0.0454135 0)
  (0.0252091 0.0624759 0)
  (0.106592 0.0625043 0)
  (0.430676 0.307623 0)
  (-0.175145 0.140444 0)
  (-0.0718028 0.105714 0)
  (-0.0957033 0.0709674 0)
  (-0.105677 0.0332989 0)
  (-0.103077 -0.00998625 0)
  (-0.0866243 -0.0555496 0)
  (-0.0633385 -0.0930203 0)
  (-0.038781 -0.115029 0)
  (-0.0153738 -0.122036 0)
  (0.0058475 -0.115744 0)
  (0.0226282 -0.0994834 0)
  (0.0363646 -0.076252 0)
  (0.0481423 -0.048734 0)
  (0.0594851 -0.0199535 0)
  (0.0724181 0.00853732 0)
  (0.0907418 0.039707 0)
  (0.121812 0.0149135 0)
  (0.122478 -0.0111086 0)
  (0.115242 -0.0303078 0)
  (0.105411 -0.0407452 0)
  (0.0959883 -0.043645 0)
  (0.0872774 -0.0422586 0)
  (0.0771714 -0.0381488 0)
  (0.0724126 -0.0217191 0)
  (0.0806893 -0.013488 0)
  (0.0868852 -0.00940548 0)
  (0.088738 -0.0071913 0)
  (0.0880432 -0.0054913 0)
  (0.085667 -0.00370835 0)
  (0.0811406 -0.00135759 0)
  (0.0731719 0.00201643 0)
  (0.0571686 0.00664943 0)
  (0.0502572 0.0338108 0)
  (0.0510311 0.0556056 0)
  (0.0212527 0.0763457 0)
  (0.124362 0.0979244 0)
  (0.541863 0.356586 0)
  (-0.2094 0.165504 0)
  (-0.0347606 0.119656 0)
  (-0.0529574 0.0798899 0)
  (-0.0548386 0.035411 0)
  (-0.0378536 -0.0195617 0)
  (-0.0141895 -0.075763 0)
  (0.00853293 -0.117205 0)
  (0.0260775 -0.136847 0)
  (0.0397755 -0.140038 0)
  (0.049909 -0.130399 0)
  (0.0570702 -0.111352 0)
  (0.0624851 -0.0862619 0)
  (0.0675491 -0.0583233 0)
  (0.0739263 -0.0306583 0)
  (0.0836732 -0.00664043 0)
  (0.098481 0.00839318 0)
  (0.110843 -0.00410149 0)
  (0.111946 -0.0167207 0)
  (0.105781 -0.0263774 0)
  (0.0964796 -0.0319799 0)
  (0.0862156 -0.0335884 0)
  (0.0758903 -0.0317822 0)
  (0.0660118 -0.0258757 0)
  (0.0605901 -0.0121346 0)
  (0.0602936 -0.00367456 0)
  (0.0598197 0.000192094 0)
  (0.0570417 0.00253923 0)
  (0.0530819 0.00485132 0)
  (0.0483421 0.00759582 0)
  (0.0429298 0.0108967 0)
  (0.0373607 0.0148663 0)
  (0.0304763 0.0202038 0)
  (0.0302899 0.0377568 0)
  (0.0407867 0.0564344 0)
  (0.0311734 0.0726573 0)
  (0.095713 0.0978461 0)
  (0.0884786 0.0721167 0)
  (0.0644091 0.0459249 0)
  (-0.0723831 0.0377143 0)
  (0.624938 0.396429 0)
  (-0.24478 0.180691 0)
  (-0.00596562 0.114653 0)
  (-0.00803569 0.0780889 0)
  (0.00514878 0.0242865 0)
  (0.0444894 -0.0446187 0)
  (0.0699013 -0.0984197 0)
  (0.08609 -0.13254 0)
  (0.0940942 -0.147448 0)
  (0.0960344 -0.146546 0)
  (0.0936428 -0.133592 0)
  (0.088714 -0.112449 0)
  (0.0831153 -0.086789 0)
  (0.0785505 -0.0598401 0)
  (0.0764962 -0.0346457 0)
  (0.0781212 -0.0143567 0)
  (0.0836613 -0.00280211 0)
  (0.0875886 -0.00477387 0)
  (0.0859082 -0.0114603 0)
  (0.079566 -0.0178872 0)
  (0.0708211 -0.0220903 0)
  (0.0610846 -0.0234188 0)
  (0.0511192 -0.0218127 0)
  (0.0416604 -0.0169337 0)
  (0.0344971 -0.0084064 0)
  (0.0299569 -0.00170736 0)
  (0.0256193 0.00245409 0)
  (0.0213711 0.00538217 0)
  (0.0169318 0.00812685 0)
  (0.0129119 0.0109578 0)
  (0.0100599 0.0138196 0)
  (0.0087747 0.0169434 0)
  (0.00782182 0.0212159 0)
  (0.0112211 0.0323829 0)
  (0.0233994 0.0463837 0)
  (0.0237644 0.0531699 0)
  (0.0575715 0.0652044 0)
  (0.0585841 0.0416163 0)
  (0.0628918 0.0338811 0)
  (-0.0624772 0.0527005 0)
  (0.681903 0.432061 0)
  (-0.26216 0.164353 0)
  (0.025664 0.0615622 0)
  (0.0582229 0.0380829 0)
  (0.105021 -0.0179316 0)
  (0.141049 -0.0764971 0)
  (0.161075 -0.118364 0)
  (0.166842 -0.141133 0)
  (0.161 -0.146964 0)
  (0.147146 -0.139612 0)
  (0.128773 -0.122862 0)
  (0.10899 -0.100413 0)
  (0.0903793 -0.0755794 0)
  (0.074816 -0.051041 0)
  (0.0635162 -0.0293372 0)
  (0.057027 -0.012882 0)
  (0.0546984 -0.00362989 0)
  (0.0533196 -0.00289295 0)
  (0.0498902 -0.00656172 0)
  (0.043963 -0.0107702 0)
  (0.0362216 -0.0135666 0)
  (0.0274094 -0.0142027 0)
  (0.0180663 -0.0124931 0)
  (0.00890638 -0.00831885 0)
  (0.000812727 -0.00186624 0)
  (-0.00548641 0.00371642 0)
  (-0.00951822 0.00706062 0)
  (-0.0128824 0.00933371 0)
  (-0.0153374 0.0111434 0)
  (-0.0164957 0.0125726 0)
  (-0.0162328 0.0137882 0)
  (-0.0148388 0.0153143 0)
  (-0.0131256 0.0180761 0)
  (-0.0092298 0.0246014 0)
  (0.000519606 0.0339629 0)
  (0.00421691 0.0362507 0)
  (0.0262206 0.0410496 0)
  (0.0363999 0.0289563 0)
  (0.0586187 0.0382516 0)
  (-0.0595686 0.0834841 0)
  (0.782337 0.428091 0)
  (-0.0462398 0.136098 0)
  (0.110025 -0.0355171 0)
  (0.205619 -0.0805524 0)
  (0.248318 -0.101402 0)
  (0.263524 -0.119963 0)
  (0.261075 -0.132397 0)
  (0.243561 -0.135182 0)
  (0.214469 -0.12843 0)
  (0.178777 -0.114216 0)
  (0.141123 -0.094948 0)
  (0.105402 -0.0733201 0)
  (0.0743536 -0.0517427 0)
  (0.0494869 -0.0319459 0)
  (0.0316235 -0.0157772 0)
  (0.0206065 -0.004728 0)
  (0.0145806 0.000693526 0)
  (0.011441 0.000722859 0)
  (0.00820768 -0.00186971 0)
  (0.00329184 -0.00453378 0)
  (-0.00349809 -0.00595825 0)
  (-0.0113348 -0.00555643 0)
  (-0.0197924 -0.00330755 0)
  (-0.0280094 0.000391385 0)
  (-0.0342569 0.00449305 0)
  (-0.0379742 0.00762488 0)
  (-0.0402467 0.00960527 0)
  (-0.0414986 0.0108201 0)
  (-0.0417504 0.0114355 0)
  (-0.0410965 0.0116283 0)
  (-0.039801 0.0117816 0)
  (-0.0382807 0.012515 0)
  (-0.0368826 0.0146405 0)
  (-0.0347366 0.0191966 0)
  (-0.031075 0.0255135 0)
  (-0.0308546 0.0300214 0)
  (-0.0257591 0.0372116 0)
  (-0.0251036 0.0480345 0)
  (-0.0448421 0.077686 0)
  (-0.223654 0.111341 0)
  (0.92218 0.400676 0)
  (0.434015 0.27126 0)
  (0.453851 0.173196 0)
  (0.480645 0.0863413 0)
  (0.45332 0.0172481 0)
  (0.401419 -0.033609 0)
  (0.343604 -0.0640603 0)
  (0.282807 -0.0759922 0)
  (0.220707 -0.0740683 0)
  (0.161041 -0.0635879 0)
  (0.106709 -0.0485819 0)
  (0.0609992 -0.0326019 0)
  (0.025111 -0.0180594 0)
  (-0.00144768 -0.00599623 0)
  (-0.0179905 0.00181474 0)
  (-0.0265584 0.00548121 0)
  (-0.0303327 0.00625264 0)
  (-0.0328084 0.00514089 0)
  (-0.0358422 0.00349304 0)
  (-0.0399382 0.00237015 0)
  (-0.0452086 0.00223199 0)
  (-0.0510734 0.00309484 0)
  (-0.0566123 0.00472017 0)
  (-0.0608849 0.00670219 0)
  (-0.0635872 0.00866728 0)
  (-0.0648304 0.0101956 0)
  (-0.0650731 0.0111607 0)
  (-0.0646405 0.0116345 0)
  (-0.063802 0.0117494 0)
  (-0.0628711 0.0117789 0)
  (-0.0622061 0.0121765 0)
  (-0.0621592 0.0135646 0)
  (-0.0629209 0.016702 0)
  (-0.0643577 0.0223327 0)
  (-0.0670901 0.030443 0)
  (-0.0737149 0.0400886 0)
  (-0.0830346 0.0504746 0)
  (-0.0986537 0.0544981 0)
  (-0.139287 0.0432611 0)
  (-0.249944 -0.000309785 0)
  (-0.0851868 -0.0800976 0)
  (0.103019 -0.0834357 0)
  (0.16586 -0.0873686 0)
  (0.151306 -0.0739909 0)
  (0.126617 -0.0560129 0)
  (0.0957818 -0.0393616 0)
  (0.0605495 -0.0244765 0)
  (0.0251088 -0.0110919 0)
  (-0.0110897 0.000231867 0)
  (-0.0367092 0.00708481 0)
  (-0.0539252 0.0113892 0)
  (-0.0642557 0.0139852 0)
  (-0.0694011 0.0151669 0)
  (-0.07194 0.0156222 0)
  (-0.0732528 0.0157293 0)
  (-0.0745091 0.0157088 0)
  (-0.0762639 0.0158611 0)
  (-0.0784792 0.0164267 0)
  (-0.0808198 0.0173988 0)
  (-0.0828625 0.018583 0)
  (-0.084267 0.019779 0)
  (-0.084838 0.0208557 0)
  (-0.0845561 0.0217264 0)
  (-0.083571 0.0223123 0)
  (-0.0821202 0.0226296 0)
  (-0.0804167 0.0227749 0)
  (-0.0786397 0.0229087 0)
  (-0.0769251 0.0232601 0)
  (-0.0753338 0.0241183 0)
  (-0.0738096 0.0258374 0)
  (-0.0721023 0.0288855 0)
  (-0.0697127 0.0338719 0)
  (-0.0661626 0.0414029 0)
  (-0.0613637 0.0521232 0)
  (-0.0546709 0.0661547 0)
  (-0.0455875 0.0752646 0)
  (-0.0401099 0.0575406 0)
  (-0.0394737 -0.107679 0)
  (0.0325743 0.0880046 0)
  (0.0495073 0.00488895 0)
  (0.0226727 -0.0437098 0)
  (-0.0126343 -0.0472771 0)
  (-0.0389754 -0.0415941 0)
  (-0.0622896 -0.0368476 0)
  (-0.0813423 -0.0334154 0)
  (-0.093968 -0.0322008 0)
  (-0.100302 -0.0337611 0)
  (-0.104014 -0.0386855 0)
  (-0.105758 -0.0448023 0)
  (-0.106078 -0.0508485 0)
  (-0.105505 -0.0563787 0)
  (-0.10457 -0.0611852 0)
  (-0.103594 -0.0653876 0)
  (-0.102837 -0.0692046 0)
  (-0.102373 -0.0726851 0)
  (-0.10208 -0.0756775 0)
  (-0.101738 -0.078023 0)
  (-0.101134 -0.0796569 0)
  (-0.100119 -0.0806063 0)
  (-0.098617 -0.0809938 0)
  (-0.0966226 -0.0810556 0)
  (-0.0942117 -0.0810907 0)
  (-0.0915187 -0.0813353 0)
  (-0.0886942 -0.0819061 0)
  (-0.0858675 -0.0827692 0)
  (-0.0830997 -0.083696 0)
  (-0.0803214 -0.0842133 0)
  (-0.0772465 -0.0835657 0)
  (-0.0732496 -0.0807535 0)
  (-0.0672152 -0.074774 0)
  (-0.0574413 -0.0651047 0)
  (-0.041973 -0.0522078 0)
  (-0.0203921 -0.0388373 0)
  (0.0144681 -0.045901 0)
  (0.0565454 -0.105947 0)
  (0.000137813 -0.170166 0)
  (0.225022 -0.176106 0)
  (-0.267102 -0.0717933 0)
  (-0.192612 0.129621 0)
  (-0.181814 0.132583 0)
  (-0.178123 0.13385 0)
  (-0.185319 0.137524 0)
  (-0.191019 0.142763 0)
  (-0.191587 0.148665 0)
  (-0.187963 0.156763 0)
  (-0.181075 0.167447 0)
  (-0.17193 0.179459 0)
  (-0.162465 0.192414 0)
  (-0.153705 0.205064 0)
  (-0.146083 0.216425 0)
  (-0.13965 0.22616 0)
  (-0.134233 0.234429 0)
  (-0.129586 0.241681 0)
  (-0.12552 0.248292 0)
  (-0.121896 0.254372 0)
  (-0.118585 0.259811 0)
  (-0.115456 0.264456 0)
  (-0.112394 0.268229 0)
  (-0.109302 0.27117 0)
  (-0.106105 0.273447 0)
  (-0.102761 0.275336 0)
  (-0.0992751 0.277157 0)
  (-0.0956901 0.279206 0)
  (-0.09205 0.28172 0)
  (-0.0883621 0.284859 0)
  (-0.0845558 0.288671 0)
  (-0.0804324 0.293043 0)
  (-0.0755997 0.297682 0)
  (-0.0694044 0.302162 0)
  (-0.0609524 0.306156 0)
  (-0.0494057 0.309841 0)
  (-0.0346492 0.314503 0)
  (-0.0175992 0.323493 0)
  (0.00814435 0.336635 0)
  (0.0576351 0.380706 0)
  (-0.16258 0.446032 0)
)
;

boundaryField
{
  floor
  {
    type noSlip;
  }
  ceiling
  {
    type noSlip;
  }
  sWall
  {
    type noSlip;
  }
  nWall
  {
    type noSlip;
  }
  sideWalls
  {
    type empty;
  }
  glass1
  {
    type noSlip;
  }
  glass2
  {
    type noSlip;
  }
  sun
  {
    type noSlip;
  }
  heatsource1
  {
    type noSlip;
  }
  heatsource2
  {
    type noSlip;
  }
  Table_master
  {
    type noSlip;
  }
  Table_slave
  {
    type noSlip;
  }
  inlet
  {
    type fixedValue;
    value uniform (0.277164 -0.114805 0);
  }
  outlet
  {
    type zeroGradient;
  }
} 	// ************************************************************************* //

