/*--------------------------------*- C++ -*----------------------------------*\
  =========                 |
  \\      /  F ield         | OpenFOAM: The Open Source CFD Toolbox
   \\    /   O peration     | Website:  https://openfoam.org
    \\  /    A nd           | Version:  6
     \\/     M anipulation  |
\*---------------------------------------------------------------------------*/
FoamFile
{
    version     2.0;
    format      ascii;
    class       volScalarField;
    location    "35399.9999982248046";
    object      nut;
}
// * * * * * * * * * * * * * * * * * * * * * * * * * * * * * * * * * * * * * //

dimensions      [0 2 -1 0 0 0 0];

internalField   nonuniform List<scalar> 
778
(
0.000894306
0.000953038
0.000949541
0.000990736
0.0010285
0.0010628
0.00109474
0.00112554
0.00115655
0.00118952
0.00122097
0.00125085
0.00128027
0.00131191
0.0013449
0.000632371
0.000905415
0.000912813
0.000890788
0.000853874
0.000804496
0.000755257
0.00070989
0.000669002
0.000632357
0.000599715
0.000570399
0.000543694
0.000518765
0.000494502
0.000469129
0.000448046
0.00040556
0.00131078
0.00258105
0.00226499
0.00261428
0.00286766
0.00313628
0.00340426
0.00365127
0.00385019
0.00396611
0.00403428
0.00400635
0.00380658
0.00331155
0.0024185
0.00147251
0.00140391
0.00134381
0.00113081
0.00192648
0.00267055
0.00311029
0.00313108
0.00247087
0.00211319
0.00186536
0.00167723
0.00152751
0.00139976
0.00128689
0.00118188
0.00107917
0.000987001
0.000907531
0.00102196
0.00051412
0.00166405
0.00360426
0.00267219
0.00382227
0.00427086
0.00465045
0.00499523
0.00529874
0.00555599
0.00575785
0.00595334
0.00615899
0.00634786
0.00646
0.00638485
0.00584533
0.00427458
0.00164821
0.00142678
0.00305216
0.00425936
0.00483081
0.00439352
0.00115948
0.00100831
0.000891668
0.000800377
0.000727703
0.000669027
0.000621159
0.000582226
0.000551874
0.000606715
0.000713624
0.00112943
0.000584811
0.00200528
0.00485822
0.0025572
0.00429818
0.00496252
0.00531799
0.0055794
0.00577285
0.00591736
0.00603464
0.00620115
0.00648231
0.00689234
0.00740758
0.00792503
0.00817906
0.00767855
0.00572565
0.00164152
0.0038035
0.00565593
0.00659653
0.00682872
0.00582983
0.00132013
0.00120079
0.00110845
0.00103167
0.000966208
0.000907404
0.000851953
0.000796876
0.000737401
0.000688945
0.00071399
0.00122213
0.000643869
0.00234202
0.00643283
0.00258015
0.00408637
0.00510797
0.00541127
0.00552154
0.00552607
0.00547151
0.00542329
0.00549317
0.00576641
0.00626745
0.00697652
0.00779843
0.00855514
0.00903502
0.00902897
0.00810337
0.00824534
0.00843352
0.00845932
0.00828717
0.00775704
0.00617342
0.00533298
0.00475735
0.00428944
0.00383069
0.00338636
0.00295164
0.00251737
0.00207108
0.00159103
0.00121437
0.00121201
0.000959118
0.000767369
0.00100718
0.000966454
0.00267366
0.00819598
0.00303775
0.00344624
0.00489458
0.00523123
0.00520474
0.00501784
0.00475047
0.0045299
0.00452519
0.00481143
0.00538237
0.00620452
0.00716641
0.00812671
0.00894455
0.0094669
0.00956179
0.00946527
0.00929653
0.00905769
0.00875132
0.00836199
0.00779401
0.0072469
0.00675019
0.0062698
0.00575134
0.00519777
0.00460644
0.00397219
0.00329098
0.00256833
0.00191471
0.00143778
0.00111589
0.00124904
0.00216467
0.00115724
0.0030122
0.00982747
0.00404842
0.00282353
0.00439824
0.00494861
0.00488802
0.00458537
0.00414606
0.00375935
0.00374818
0.00410934
0.00476267
0.00568131
0.00672673
0.0077612
0.00865155
0.00928935
0.00958262
0.00955938
0.00934865
0.00902997
0.00866547
0.00830218
0.00795099
0.00762883
0.00732627
0.00700322
0.00661329
0.00614401
0.00558826
0.00494326
0.00421157
0.00341241
0.00263245
0.00190525
0.00140313
0.00125222
0.00219289
0.00136198
0.00330355
0.0110645
0.00552079
0.00268871
0.00348438
0.00438713
0.00451333
0.0042646
0.00374538
0.00321914
0.00333848
0.00381596
0.00454616
0.00549263
0.00657786
0.00766072
0.00858463
0.00922683
0.0095186
0.0094803
0.00920855
0.00880792
0.00837725
0.00799551
0.00770133
0.00749118
0.00732739
0.00714938
0.00690192
0.00655557
0.00609647
0.00552171
0.00483704
0.00406385
0.00326229
0.00245352
0.0017254
0.00113986
0.00314114
0.00177461
0.00339335
0.0104838
0.00683697
0.00347723
0.00236281
0.0028955
0.00338807
0.00342976
0.00302867
0.00294438
0.00325046
0.00381167
0.00460043
0.00560322
0.00673993
0.00785595
0.00877686
0.00936997
0.00957864
0.00943562
0.00904194
0.00852549
0.00801328
0.00760482
0.00734559
0.00721823
0.00716046
0.00709202
0.00694985
0.00669986
0.00632833
0.00583368
0.0052227
0.00451356
0.00373843
0.00287149
0.00172151
0.00137941
0.00473141
0.00202237
0.00332468
0.00845827
0.00706641
0.00477602
0.00315325
0.00244155
0.00231259
0.00242132
0.00262518
0.0029497
0.0034092
0.00404012
0.00489679
0.00597676
0.00717452
0.00830612
0.00917936
0.0096612
0.00971236
0.00938969
0.00882067
0.00816565
0.00758132
0.00718129
0.00699798
0.00697625
0.00701562
0.00701467
0.00692252
0.00671987
0.00640003
0.00596249
0.00541176
0.00475414
0.0039577
0.00278213
0.00135197
0.00234353
0.00487582
0.00206243
0.00311441
0.00723124
0.00683524
0.00546844
0.00420716
0.00338668
0.00298131
0.00289006
0.00305863
0.00336812
0.00381662
0.00448125
0.00542573
0.00660841
0.00786641
0.00897416
0.00972755
0.0100092
0.00981365
0.00923852
0.00845629
0.00767317
0.00707897
0.00678104
0.00674624
0.00684312
0.0069411
0.00694268
0.0068454
0.0066487
0.00634812
0.00593927
0.00541898
0.00476565
0.00379755
0.00215961
0.00147558
0.0029364
0.00467728
0.00204254
0.00283606
0.00652082
0.00659522
0.00579077
0.00492483
0.00427364
0.00389067
0.0037541
0.0037892
0.00397579
0.00438644
0.00512728
0.00621761
0.00752639
0.00881083
0.00980827
0.0103244
0.0102844
0.00974072
0.00885319
0.00786257
0.00703618
0.0065699
0.00647478
0.00655395
0.00668168
0.00676745
0.00674373
0.00663132
0.00643231
0.0061389
0.00573978
0.00521902
0.00450668
0.0031431
0.00153703
0.00190141
0.003217
0.00428504
0.0019771
0.00258638
0.0058327
0.00629797
0.00591738
0.00536139
0.00489479
0.00458485
0.00443377
0.00438877
0.00454711
0.00506713
0.00603389
0.00735208
0.00876819
0.00996976
0.0106943
0.010802
0.0102961
0.00931862
0.00811715
0.0070312
0.00633649
0.00602925
0.00598458
0.00606419
0.00617874
0.00625865
0.00624105
0.00613231
0.00593289
0.00563236
0.00521619
0.00466181
0.00385819
0.00247253
0.00150596
0.00213592
0.00335825
0.00418937
0.00192144
0.00259429
0.00578848
0.00643461
0.00598935
0.00553931
0.00517102
0.00490562
0.00473319
0.00472481
0.00510902
0.00602617
0.00739539
0.00894058
0.0103082
0.0111854
0.0113853
0.0108829
0.00979128
0.00838696
0.00703031
0.00604952
0.00546901
0.00518359
0.00509729
0.00513351
0.00522564
0.00530817
0.00530703
0.00519676
0.00497417
0.00462803
0.00415776
0.003583
0.00291246
0.00211229
0.00160444
0.00219455
0.00348119
0.00466061
0.00198913
0.00234167
0.00243524
0.00359196
0.00421905
0.00441224
0.00441439
0.00437066
0.00445024
0.0049874
0.00613157
0.00773776
0.00946889
0.0109502
0.0118709
0.0120472
0.0114406
0.0101958
0.00854454
0.00696903
0.00573922
0.0049072
0.00441263
0.00416221
0.00405737
0.004034
0.00405355
0.00407534
0.0040342
0.00387543
0.00359373
0.00319968
0.00275164
0.00234476
0.00205128
0.00187841
0.00186067
0.00239323
0.00385094
0.00468069
0.00207684
0.00080791
0.001466
0.00226227
0.00290263
0.00364336
0.00490027
0.00674602
0.00878959
0.0106451
0.0120292
0.012752
0.0126917
0.0118521
0.0103185
0.00848997
0.00675364
0.00537351
0.00443566
0.00390107
0.00361683
0.00345131
0.00333868
0.00325289
0.00318094
0.00310548
0.00299349
0.00280731
0.00255397
0.00228122
0.00206745
0.00197061
0.00199689
0.00213106
0.00240211
0.00299147
0.00455077
0.00496726
0.00210406
0.00149714
0.00207727
0.00303274
0.00474085
0.00706129
0.0093851
0.0111888
0.0124876
0.0132692
0.0134842
0.0130398
0.0118431
0.0100793
0.0080928
0.00627642
0.00490752
0.00408317
0.003658
0.00342883
0.00327983
0.00316829
0.00308119
0.00301245
0.00295377
0.00289056
0.00280153
0.00267604
0.00253354
0.00241451
0.0023668
0.00241774
0.00256349
0.00279291
0.00312912
0.00367191
0.00480925
0.0053725
0.00209102
0.00275761
0.00666418
0.00612123
0.00547664
0.00697393
0.00931727
0.0113003
0.01264
0.0133442
0.0135171
0.0132439
0.0124932
0.0112314
0.00952262
0.00761723
0.00589183
0.00468364
0.00402272
0.00367869
0.00346586
0.00330885
0.00318982
0.00310955
0.00306979
0.00306614
0.00308567
0.00310722
0.00310603
0.00308
0.0030549
0.00305273
0.00309297
0.00318657
0.00332924
0.00350358
0.00369063
0.00387985
0.00406583
0.00411217
0.00200148
0.00263916
0.00509919
0.00658461
0.00840746
0.00934211
0.0103162
0.01089
0.0110351
0.0108267
0.0103198
0.00953813
0.00850023
0.00727266
0.00601812
0.0049692
0.00425718
0.00380005
0.00350255
0.00328338
0.00310917
0.00297655
0.00289357
0.00286882
0.00290517
0.00299597
0.00312282
0.00325521
0.00335426
0.00341264
0.00346417
0.00353148
0.00362769
0.00375818
0.00392208
0.00411532
0.00433209
0.00456181
0.00480399
0.00463104
0.00201189
0.00247399
0.00211936
0.00210866
0.00216962
0.0022199
0.0021527
0.00202222
0.00186966
0.00171699
0.00157316
0.00144107
0.00132316
0.00122384
0.00114861
0.00109984
0.00107424
0.00106706
0.00106798
0.00107505
0.00108837
0.00110816
0.00113383
0.0011638
0.00119601
0.00122855
0.00126018
0.0012906
0.00132059
0.00135079
0.00138251
0.00141806
0.00145923
0.0015071
0.00156192
0.00162265
0.00168643
0.00175093
0.00182893
0.00195557
0.00195539
)
;

boundaryField
{
    floor
    {
        type            nutkWallFunction;
        Cmu             0.09;
        kappa           0.41;
        E               9.8;
        value           nonuniform List<scalar> 
36
(
0.00016058
7.63822e-05
0.000109527
0.000110407
0.000107785
0.000103374
9.74374e-05
9.14747e-05
8.59402e-05
8.09157e-05
7.63814e-05
7.23155e-05
6.86409e-05
6.52733e-05
6.21113e-05
5.90156e-05
5.5758e-05
5.30343e-05
4.74952e-05
4.74951e-05
6.15197e-05
7.04499e-05
7.78093e-05
9.29457e-05
0.00012155
0.000116763
0.00016058
0.000175021
0.000167276
0.000160455
7.63821e-05
0.000160455
0.000135994
0.000194684
0.000169861
0.000193938
)
;
    }
    ceiling
    {
        type            nutkWallFunction;
        Cmu             0.09;
        kappa           0.41;
        E               9.8;
        value           nonuniform List<scalar> 
43
(
0.000284349
0.00024629
0.000245135
0.00025173
0.000257161
0.000249928
0.000235794
0.000219132
0.000202302
0.000186292
0.000171445
0.000158067
0.000146701
0.000138032
0.000132385
0.000129412
0.00012858
0.000128688
0.000129508
0.000131051
0.000133345
0.000136321
0.000139795
0.000143526
0.000147289
0.000150939
0.000154442
0.000157882
0.000161335
0.000164948
0.000168978
0.000173632
0.000179028
0.000185189
0.000191996
0.00019912
0.000206285
0.000214839
0.000228598
0.000228753
0.000270422
0.00028042
0.000177584
)
;
    }
    sWall
    {
        type            nutkWallFunction;
        Cmu             0.09;
        kappa           0.41;
        E               9.8;
        value           nonuniform List<scalar> 9(0.000373892 0.000352079 0.000322968 0.000296608 0.000297443 0.000270511 0.000314405 0.000301932 0.000284451);
    }
    nWall
    {
        type            nutkWallFunction;
        Cmu             0.09;
        kappa           0.41;
        E               9.8;
        value           nonuniform List<scalar> 
14
(
0.00011677
0.000139073
0.000162539
0.000240219
0.000238023
0.00023088
0.000224867
0.000232587
0.000241841
0.00024478
0.000243096
0.000233496
0.000235007
0.000228788
)
;
    }
    sideWalls
    {
        type            empty;
    }
    glass1
    {
        type            nutkWallFunction;
        Cmu             0.09;
        kappa           0.41;
        E               9.8;
        value           nonuniform List<scalar> 9(0.000108248 0.000156883 0.000196738 0.000234352 0.000270796 0.000306146 0.000341761 0.00037208 0.000381379);
    }
    glass2
    {
        type            nutkWallFunction;
        Cmu             0.09;
        kappa           0.41;
        E               9.8;
        value           nonuniform List<scalar> 2(0.000208807 0.000236014);
    }
    sun
    {
        type            nutkWallFunction;
        Cmu             0.09;
        kappa           0.41;
        E               9.8;
        value           nonuniform List<scalar> 
14
(
0.000108206
0.000115178
0.000114764
0.000119627
0.000124064
0.000128078
0.000131803
0.000135383
0.000138977
0.000142785
0.000146407
0.000149838
0.000153208
0.000156822
)
;
    }
    Table_master
    {
        type            nutkWallFunction;
        Cmu             0.09;
        kappa           0.41;
        E               9.8;
        value           nonuniform List<scalar> 9(0.000139307 0.000121688 0.000107887 9.69398e-05 8.81198e-05 8.09225e-05 7.4995e-05 7.01331e-05 6.63155e-05);
    }
    Table_slave
    {
        type            nutkWallFunction;
        Cmu             0.09;
        kappa           0.41;
        E               9.8;
        value           nonuniform List<scalar> 9(0.000157747 0.000144075 0.000133391 0.000124429 0.000116729 0.000109761 0.000103141 9.65171e-05 8.93027e-05);
    }
    inlet
    {
        type            calculated;
        value           uniform 0.000167705;
    }
    outlet
    {
        type            calculated;
        value           nonuniform List<scalar> 2(0.00275761 0.00666418);
    }
}


// ************************************************************************* //
