/*--------------------------------*- C++ -*----------------------------------*\
  =========                 |
  \\      /  F ield         | OpenFOAM: The Open Source CFD Toolbox
   \\    /   O peration     | Website:  https://openfoam.org
    \\  /    A nd           | Version:  6
     \\/     M anipulation  |
\*---------------------------------------------------------------------------*/
FoamFile
{
    version     2.0;
    format      ascii;
    class       surfaceScalarField;
    location    "35399.9999982248046";
    object      phi;
}
// * * * * * * * * * * * * * * * * * * * * * * * * * * * * * * * * * * * * * //

dimensions      [1 0 -1 0 0 0 0];

internalField   nonuniform List<scalar> 
1482
(
-0.00279983
0.00286387
-0.00348417
0.000684338
-0.00414503
0.000660856
-0.00475932
0.000614295
-0.00528095
0.000521622
-0.00569313
0.000412181
-0.00598461
0.000291485
-0.00614231
0.000157696
-0.00614885
6.53933e-06
-0.00597823
-0.000170621
-0.00560046
-0.000377766
-0.00498448
-0.000615977
-0.00406008
-0.000924403
-0.0025809
-0.00147918
-0.00257798
-6.53301e-05
7.01835e-05
0.000777987
-0.000843317
0.00143036
-0.000652372
0.00182973
-0.000399375
0.00205139
-0.000221659
0.00215585
-0.00010446
0.00220316
-4.7305e-05
0.00222584
-2.2683e-05
0.00223545
-9.60351e-06
0.00223623
-7.84613e-07
0.00222912
7.11286e-06
0.00221011
1.90047e-05
0.0021659
4.42131e-05
0.0020633
0.000102604
0.00184697
0.000216323
0.00149011
0.000356864
0.00101952
0.000470588
0.00102596
-0.00204044
0.00507463
-0.00290867
0.00155257
-0.00369465
0.00144684
-0.00434587
0.00126552
-0.00488337
0.00105912
-0.00531241
0.000841223
-0.00563119
0.000610268
-0.00583289
0.000359391
-0.00590679
8.04349e-05
-0.00584501
-0.000232399
-0.00564173
-0.000581043
-0.00528564
-0.000972072
-0.00477555
-0.00143449
-0.00428955
-0.00196519
-0.00470565
-0.00216188
-0.00311864
-0.00158157
-0.00163451
-0.00147844
-0.00161967
0.00131719
-0.00123679
0.00166055
-0.00118668
0.00191147
-0.000903289
0.00210206
-0.000589964
0.00220893
-0.000328532
0.00221781
-0.000113337
0.00221991
-4.94032e-05
0.0022216
-2.43718e-05
0.00222256
-1.05695e-05
0.00222252
-7.47327e-07
0.00222111
8.53071e-06
0.00221687
2.32413e-05
0.00220422
5.68605e-05
0.00214232
0.00016451
0.00189287
0.00046577
0.00146396
0.000785778
0.000901344
0.0010332
0.00194419
-0.00148833
0.00682089
-0.00235934
0.00242358
-0.00312945
0.00221695
-0.00371384
0.00184991
-0.0041847
0.00152998
-0.00455637
0.00121289
-0.00483065
0.00088454
-0.00500426
0.000533008
-0.00507079
0.000146966
-0.00502114
-0.000282051
-0.00484455
-0.000757635
-0.0045336
-0.00128302
-0.00411914
-0.00184895
-0.00372191
-0.00236242
-0.00330176
-0.00258202
-0.00237037
-0.00251297
-0.00127601
-0.00257279
-0.00288285
0.00114922
-0.00237156
0.00165212
-0.00168958
0.00194989
-0.00120107
0.00214193
-0.000782
0.00217062
-0.000357226
0.00205744
0.00200819
0.00198397
0.00197356
0.00197296
0.00198165
0.00200505
0.00206206
0.00222672
0.00186836
0.000824131
0.00142098
0.00123316
0.000802403
0.00165178
0.00277262
-0.00110615
0.00825824
-0.00192819
0.00324562
-0.00257037
0.00285913
-0.00303086
0.00231039
-0.00339854
0.00189767
-0.00368749
0.00150184
-0.00390069
0.00109774
-0.00403631
0.000668621
-0.0040868
0.000197459
-0.00403897
-0.000329886
-0.00388052
-0.000916082
-0.00360739
-0.00155615
-0.00324224
-0.0022141
-0.00282093
-0.00278373
-0.00228218
-0.00312078
-0.00156309
-0.00323205
-0.000875404
-0.00326047
-0.000697091
-0.00306116
0.00143951
-0.00212116
0.0013734
-0.00230545
0.00168963
-0.00200581
0.00200239
-0.00151383
0.00226875
-0.00104836
0.00254538
-0.000633857
0.00285874
-0.000313512
0.00302565
-0.000167061
0.00309027
-6.47775e-05
0.00307312
1.69992e-05
0.00298299
8.99789e-05
0.00282092
0.000161916
0.00257915
0.000241612
0.00223481
0.000344187
0.00173069
0.000503963
0.00159474
0.000960082
0.00126789
0.00156
0.000742468
0.00217721
0.0035494
-0.000803859
0.0094553
-0.00158015
0.0040219
-0.00204897
0.00332795
-0.00236482
0.00262625
-0.00260931
0.00214216
-0.00279495
0.00168748
-0.00292676
0.00122955
-0.00300546
0.000747319
-0.0030245
0.0002165
-0.00296727
-0.000387119
-0.00282053
-0.00106282
-0.00257743
-0.00179925
-0.00224462
-0.00254692
-0.00182921
-0.00319913
-0.00132486
-0.00362513
-0.000749116
-0.0038078
-0.000218444
-0.00379114
0.000258791
-0.0035384
0.00112036
-0.00298273
0.00148702
-0.00267211
0.00174659
-0.00226537
0.00199942
-0.00176666
0.00222951
-0.00127845
0.00244391
-0.000848258
0.00264488
-0.000514484
0.00275484
-0.00027702
0.00279102
-0.000100954
0.00276515
4.2873e-05
0.00268368
0.000171446
0.00254918
0.000296418
0.00236053
0.000430264
0.00211542
0.000589292
0.00182195
0.000797439
0.00161706
0.00116497
0.0014765
0.00170056
0.0012983
0.00235541
0.00228358
0.00256412
0.00132104
0.00099748
0.00187973
-0.000529883
0.00199888
-0.000575926
0.0104776
-0.00132497
0.00477095
-0.00158479
0.00358777
-0.00175088
0.00279234
-0.00186501
0.00225629
-0.00193661
0.00175908
-0.00197216
0.00126509
-0.00197595
0.000751105
-0.00194478
0.000185339
-0.00185699
-0.000474916
-0.00170284
-0.00121696
-0.00147252
-0.00202957
-0.001169
-0.00285045
-0.000798064
-0.00357006
-0.000379455
-0.00404373
6.01044e-05
-0.00424735
0.000465061
-0.0041961
0.000839553
-0.00391289
0.00129108
-0.00343425
0.00159058
-0.00297161
0.00179456
-0.00246935
0.00196652
-0.00193863
0.00211854
-0.00143047
0.00225325
-0.000982973
0.00235815
-0.000619385
0.0024163
-0.000335166
0.00242737
-0.000112025
0.00239659
7.36521e-05
0.00232881
0.000239228
0.00222791
0.000397316
0.00209805
0.000560126
0.00194638
0.000740962
0.00178743
0.000956384
0.0016973
0.0012551
0.00175469
0.00164317
0.00196509
0.00214501
0.00220483
0.00232438
0.00171397
0.00148834
0.000797411
0.000386675
0.00289399
-0.000543454
0.0115133
-0.00124379
0.00547128
-0.00119236
0.00353635
-0.00120095
0.00280093
-0.0011935
0.00224883
-0.00116018
0.00172577
-0.00110318
0.00120809
-0.0010282
0.000676125
-0.000929763
8.69028e-05
-0.000780866
-0.000623812
-0.000591921
-0.00140591
-0.000352584
-0.00226891
-6.99928e-05
-0.00313304
0.000233533
-0.00387358
0.000542435
-0.00435263
0.000836892
-0.00454181
0.00109957
-0.00445877
0.00133312
-0.00414643
0.00156547
-0.0036666
0.00172589
-0.00313202
0.00182654
-0.00257
0.00189721
-0.0020093
0.00195353
-0.00148679
0.00200062
-0.00103006
0.00203313
-0.000651898
0.00204533
-0.000347361
0.00203377
-0.000100472
0.00199922
0.000108201
0.00194481
0.000293647
0.00187438
0.000467745
0.00179326
0.000641242
0.00171015
0.000824071
0.00164027
0.00102627
0.00162687
0.0012685
0.00171425
0.00155578
0.00192285
0.00193641
0.00217007
0.00207716
0.00217716
0.00148126
0.00163955
0.000924288
0.00463673
-0.000483603
0.0125324
-0.00105171
0.00603939
-0.000697876
0.00318251
-0.000637326
0.00274038
-0.000569184
0.00218069
-0.000464684
0.00162127
-0.00033579
0.00107919
-0.000184667
0.000525003
4.6248e-06
-0.000102389
0.00022278
-0.000841967
0.000462204
-0.00164533
0.000719161
-0.00252586
0.000974986
-0.00338886
0.00120248
-0.00410108
0.00140083
-0.00455098
0.00156143
-0.0047024
0.0016791
-0.00457645
0.00175864
-0.00422596
0.00181241
-0.00372037
0.00182341
-0.00314301
0.00179968
-0.00254627
0.00176007
-0.00196969
0.00171936
-0.00144608
0.00168489
-0.00099559
0.00165654
-0.00062355
0.00163031
-0.000321131
0.00160135
-7.15108e-05
0.00156746
0.000142087
0.00152896
0.000332144
0.00148732
0.000509392
0.00144587
0.000682691
0.00141114
0.000858797
0.00139454
0.00104287
0.00142006
0.00124298
0.0015157
0.00146015
0.00172838
0.00172373
0.00200683
0.00179871
0.00211031
0.00137778
0.00165041
0.0013842
0.0066549
0.00297635
0.0101432
0.0020209
0.00699484
0.000868076
0.00433533
0.000369696
0.00323876
0.000212683
0.0023377
0.00026895
0.001565
0.000422779
0.000925366
0.000636655
0.000311127
0.000895928
-0.000361661
0.00116065
-0.00110669
0.00143879
-0.00192347
0.0017051
-0.00279217
0.00193021
-0.00361398
0.00209008
-0.00426094
0.00217902
-0.00463993
0.00219993
-0.00472331
0.00216175
-0.00453827
0.00207821
-0.00414242
0.00196451
-0.00360666
0.00182615
-0.00300465
0.00167515
-0.00239528
0.00152827
-0.00182281
0.00139998
-0.00131779
0.00129829
-0.000893896
0.0012242
-0.00054946
0.00117275
-0.000269683
0.00113667
-3.54327e-05
0.00111076
0.000167997
0.00109165
0.000351253
0.00107728
0.000523769
0.00106785
0.000692122
0.00106646
0.000860186
0.00107985
0.00102947
0.00112201
0.00120083
0.00121215
0.00137001
0.00139119
0.00154469
0.00163386
0.00155603
0.00173365
0.00127798
0.000394346
0.00272352
0.00743516
0.00403091
0.00625253
0.00366684
0.00735891
0.00254142
0.00546075
0.00188824
0.00389194
0.00153165
0.00269428
0.00138676
0.0017099
0.00142051
0.000891618
0.00159486
0.000136776
0.00184679
-0.000613592
0.00212367
-0.00138358
0.00240288
-0.00220268
0.00264702
-0.00303631
0.0028145
-0.00378147
0.00287854
-0.00432499
0.00283609
-0.00459748
0.00270117
-0.00458839
0.00249623
-0.00433332
0.00224565
-0.00389184
0.0019722
-0.00333321
0.00169301
-0.00272546
0.00142523
-0.00212749
0.00118665
-0.00158423
0.000991796
-0.00112293
0.000846558
-0.000748658
0.0007494
-0.000452302
0.000691222
-0.000211505
0.000661094
-5.30495e-06
0.000650364
0.000178727
0.000652271
0.000349345
0.000662065
0.000513975
0.000677262
0.000676924
0.000697081
0.000840367
0.000722124
0.00100443
0.000755345
0.00116761
0.0007975
0.00132785
0.000825764
0.00151642
0.000526142
0.00185562
-0.000673173
0.00247705
-0.00190487
0.00395513
0.00563492
0.00240955
0.0040075
0.0033045
0.00646396
0.00324846
0.00551679
0.00303763
0.00410276
0.00284654
0.00288537
0.00272323
0.0018332
0.00270931
0.000905533
0.00279823
4.78623e-05
0.00296005
-0.000775417
0.0031704
-0.00159393
0.00338725
-0.00241954
0.00355053
-0.00319959
0.00360562
-0.00383657
0.00352609
-0.00424547
0.00331756
-0.00438896
0.00300634
-0.00427717
0.00262699
-0.00395398
0.00221307
-0.00347791
0.00179425
-0.00291439
0.00139441
-0.00232562
0.00103514
-0.00176821
0.000736076
-0.00128517
0.000510718
-0.000897576
0.000356778
-0.000594719
0.000264848
-0.000360371
0.000218201
-0.000164858
0.00020309
9.80517e-06
0.000209348
0.000172469
0.000229379
0.000329314
0.000258209
0.000485144
0.000291856
0.000643277
0.000325901
0.000806322
0.000354375
0.000975951
0.00037017
0.00115181
0.000360276
0.00133775
0.000247619
0.00162908
-0.000203963
0.00230701
-0.0008412
0.00311394
-0.00104872
0.0041624
0.00470289
0.00145708
0.00274467
0.00274865
0.00517238
0.00343283
0.00483261
0.00371879
0.0038168
0.00381713
0.00278702
0.00384516
0.00180518
0.00388132
0.000869365
0.00395064
-2.14609e-05
0.0040608
-0.000885569
0.00420071
-0.00173384
0.00431876
-0.00253759
0.00434429
-0.00322513
0.00422597
-0.00371826
0.00395181
-0.00397132
0.00354441
-0.00398158
0.00304375
-0.00377652
0.00249397
-0.0034042
0.00193403
-0.00291797
0.00139833
-0.00237869
0.000914468
-0.00184175
0.000509483
-0.00136323
0.000201953
-0.000977637
-3.96896e-06
-0.000691654
-0.000126082
-0.000472606
-0.000189982
-0.00029647
-0.000216887
-0.000137953
-0.000218396
1.13141e-05
-0.000201247
0.00015532
-0.000169865
0.000297931
-0.000127756
0.000443036
-7.93542e-05
0.000594875
-3.17898e-05
0.000758757
2.67841e-06
0.000941482
2.69482e-06
0.0011518
-7.33503e-05
0.00141381
-0.000318437
0.00187422
-0.000861436
0.00285
-0.00155415
0.00380646
-0.0015596
0.00416762
0.00327392
0.00217354
0.000797102
0.00294491
0.004401
0.00359486
0.00418265
0.00416471
0.00324695
0.00449221
0.00245953
0.00466641
0.00163097
0.00478335
0.00075243
0.00488851
-0.000126625
0.00499536
-0.000992411
0.00507341
-0.00181189
0.00505686
-0.00252103
0.00488569
-0.00305397
0.00453767
-0.00337025
0.00403178
-0.00346545
0.00341308
-0.00336289
0.00273259
-0.00309604
0.00203933
-0.00271096
0.00137189
-0.00225053
0.000769932
-0.00177673
0.000261828
-0.00133364
-0.000115108
-0.00098629
-0.000357997
-0.000734747
-0.000496998
-0.000552651
-0.000570337
-0.000399264
-0.000607269
-0.000259537
-0.000620256
-0.000124965
-0.000614744
5.8024e-06
-0.000592766
0.000133341
-0.000555132
0.000260298
-0.000503375
0.000391278
-0.000441259
0.000532758
-0.000376546
0.000694043
-0.000323793
0.000888728
-0.000311016
0.00113902
-0.000389519
0.00149234
-0.000612529
0.00209742
-0.00102158
0.00325942
-0.00193395
0.00471909
-0.00230932
0.00454317
0.0011095
-0.00157756
0.00261983
0.00111947
0.00170398
0.00335142
0.0019507
0.0043538
0.00224456
0.00485759
0.00195574
0.00517229
0.00131627
0.00540087
0.000523853
0.00557965
-0.000305403
0.0056796
-0.00109234
0.00563817
-0.00177044
0.00540438
-0.00228724
0.00496662
-0.00261621
0.00435276
-0.0027564
0.00361565
-0.00272836
0.00281554
-0.00256279
0.00200275
-0.00228326
0.00122662
-0.00193483
0.000519137
-0.00154305
-6.7964e-05
-0.00118963
-0.000491353
-0.000910256
-0.000750301
-0.00072734
-0.000894442
-0.000590601
-0.000972901
-0.000474184
-0.00101279
-0.000359368
-0.00103086
-0.000241468
-0.00103413
-0.000121692
-0.00102428
-4.04936e-06
-0.000999846
0.000108904
-0.000958493
0.000218942
-0.000899015
0.000331799
-0.000822781
0.000456524
-0.000735027
0.000606288
-0.000646675
0.00080037
-0.000576149
0.00106848
-0.000545363
0.00146156
-0.00053304
0.00208526
-0.000383834
0.00311068
-0.000167514
0.00450316
2.684e-05
0.0043492
0.00129097
0.00288159
0.00457038
0.00487093
0.00165015
0.00535738
0.00175812
0.00559378
0.00171934
0.00582534
0.00108471
0.00601335
0.000335859
0.00608055
-0.00037257
0.00595518
-0.000966934
0.00560363
-0.00141886
0.00503832
-0.00172191
0.00430598
-0.00188387
0.00346457
-0.001915
0.00257252
-0.00183633
0.0016852
-0.00167548
0.000836158
-0.00143422
6.99518e-05
-0.00116863
-0.00054947
-0.000923636
-0.000978255
-0.000760849
-0.00123666
-0.000651847
-0.00138507
-0.000578916
-0.00146464
-0.000511017
-0.00150547
-0.000433339
-0.00152352
-0.000341298
-0.00152769
-0.000237294
-0.00152234
-0.000127051
-0.00150844
-1.79599e-05
-0.00148349
8.39488e-05
-0.00144287
0.00017831
-0.00138253
0.000271458
-0.0013006
0.000374601
-0.00119765
0.000503338
-0.00107586
0.000678556
-0.000934847
0.000927405
-0.000757059
0.00128367
-0.000468872
0.00179703
7.66315e-05
0.00256535
0.000846724
0.00373339
0.00129891
0.0038974
0.00275168
0.00793007
0.00536828
0.00580967
0.00387854
0.00556187
0.00196716
0.00563449
0.00101214
0.00560049
0.000369922
0.00535852
-0.000130552
0.00489688
-0.000505251
0.00425552
-0.000777487
0.00348761
-0.000954009
0.00264579
-0.00104206
0.00177068
-0.0010399
0.000898971
-0.000964637
6.65535e-05
-0.000843081
-0.000663528
-0.00070415
-0.00122912
-0.000603048
-0.00161651
-0.000536255
-0.00186488
-0.000512483
-0.0020112
-0.000505499
-0.00209643
-0.000493654
-0.0021448
-0.000462598
-0.00216989
-0.000408213
-0.00217917
-0.000331994
-0.00217759
-0.000238874
-0.00216867
-0.000135994
-0.00215456
-3.21089e-05
-0.00213468
6.40287e-05
-0.00210498
0.000148592
-0.00206034
0.000226822
-0.00199529
0.000309577
-0.00190242
0.000410489
-0.00176951
0.000545629
-0.00157613
0.000733913
-0.00128684
0.000994156
-0.000826466
0.00133635
-4.7543e-05
0.00178619
0.00110777
0.00257811
0.00164668
0.0033586
0.00456924
0.00409032
0.00152454
0.00449214
0.00347674
0.00372534
0.002734
0.00322836
0.00150918
0.0028888
0.000709549
0.00252603
0.000232264
0.00208061
-5.98129e-05
0.00154114
-0.000238021
0.000925734
-0.000338626
0.000250979
-0.00036733
-0.000446049
-0.000342889
-0.00110583
-0.000304882
-0.00167392
-0.000275019
-0.00211374
-0.000264361
-0.00242869
-0.000288125
-0.00263302
-0.00033192
-0.00276416
-0.000381313
-0.00285088
-0.000418719
-0.00291095
-0.0004335
-0.0029526
-0.000420859
-0.00297998
-0.000380764
-0.00299561
-0.000316344
-0.00300133
-0.00023319
-0.00299867
-0.000138726
-0.00298956
-4.13306e-05
-0.0029769
5.1275e-05
-0.0029605
0.000132143
-0.00293583
0.000202164
-0.00289603
0.000269859
-0.00282999
0.000344564
-0.00271939
0.00043511
-0.00253505
0.000549555
-0.00223221
0.00069113
-0.00174247
0.000846234
-0.000936421
0.00097963
0.000427579
0.00121366
0.00101234
0.00277349
0.00576288
-0.00263377
-0.00680868
-0.0074341
-0.00748003
-0.00375794
-0.00215161
-0.00168374
0.00140257
-0.000769415
0.00181973
-0.000567184
0.001307
-0.00064243
0.000784836
-0.000822667
0.000412525
-0.00105812
0.000175656
-0.00134406
4.79118e-05
-0.00168467
1.96696e-06
-0.00205862
6.59102e-06
-0.00243287
3.13315e-05
-0.00278137
4.35649e-05
-0.00307916
2.27277e-05
-0.00330506
-3.84943e-05
-0.0034554
-0.000137786
-0.00355398
-0.0002333
-0.00362667
-0.000308538
-0.00368726
-0.000358004
-0.0037409
-0.00037973
-0.00378857
-0.000373069
-0.00383014
-0.000339128
-0.00386548
-0.00028101
-0.0038947
-0.000204057
-0.00391756
-0.000116032
-0.00393157
-2.7521e-05
-0.00392993
4.9447e-05
-0.00390977
0.000111863
-0.00387325
0.000165615
-0.00382062
0.000217311
-0.00374934
0.000273467
-0.00365476
0.000340761
-0.00352949
0.000424509
-0.00335806
0.000519848
-0.00312498
0.000613158
-0.0029413
0.00079579
-0.00321582
0.00148783
-0.00299392
0.00255113
0.00296567
-0.00738015
0.00102524
-0.00814796
-0.00671217
-0.00719399
-0.00310553
-0.00566957
-0.000121785
-0.00457691
0.000727131
-0.00398637
0.000716518
-0.00372835
0.000526861
-0.00366216
0.000346348
-0.00370363
0.000217125
-0.00379681
0.000141063
-0.0039008
0.000105911
-0.00398939
9.51192e-05
-0.00404919
9.10547e-05
-0.00408417
7.84751e-05
-0.00410911
4.76186e-05
-0.0041395
-8.1144e-06
-0.00418409
-9.31544e-05
-0.0042445
-0.00017279
-0.0043206
-0.000232291
-0.00440983
-0.00026861
-0.00450726
-0.00028214
-0.00460595
-0.000274268
-0.00469773
-0.000247315
-0.00477456
-0.000204242
-0.00483013
-0.000148654
-0.00486095
-8.54661e-05
-0.00486706
-2.1694e-05
-0.00484701
2.91323e-05
-0.00479631
6.0961e-05
-0.00471628
8.54836e-05
-0.00460761
0.000108646
-0.00446793
0.000133913
-0.00429067
0.000163706
-0.00406549
0.00019959
-0.00377979
0.000234414
-0.00339754
0.000231149
-0.00272454
0.000122961
-0.0012316
-5.06108e-06
0.000116969
0.00120242
0.00328879
0.00156719
-0.00508016
-0.00812244
-0.00818481
-0.00740342
-0.00664049
-0.00607395
-0.00569271
-0.00544374
-0.00527247
-0.00513694
-0.00501199
-0.00489038
-0.00478044
-0.0047006
-0.00467603
-0.00473645
-0.00487672
-0.00507699
-0.0053143
-0.005566
-0.0058107
-0.00602924
-0.0062053
-0.00632618
-0.00638407
-0.00637828
-0.00632171
-0.00623337
-0.00612073
-0.00598532
-0.00582526
-0.00563626
-0.0054124
-0.00515492
-0.00490198
-0.00475857
-0.00474463
-0.00352486
)
;

boundaryField
{
    floor
    {
        type            calculated;
        value           nonuniform List<scalar> 
36
(
0
0
0
0
0
0
0
0
0
0
0
0
0
0
0
0
0
0
0
-6.43872e-06
-1.6884e-05
-2.60326e-05
-3.43073e-05
-3.49347e-05
-2.88117e-05
-2.87054e-05
-2.9199e-06
-5.44116e-06
-5.6874e-06
-5.90765e-06
-4.85378e-06
-8.93825e-06
-1.02121e-05
-1.2833e-05
-1.44575e-05
-1.54452e-05
)
;
    }
    ceiling
    {
        type            calculated;
        value           nonuniform List<scalar> 
43
(
-5.7933e-05
-6.47644e-05
-6.31602e-05
-5.93238e-05
-5.41722e-05
-4.63383e-05
-3.96376e-05
-3.48781e-05
-3.1876e-05
-3.02649e-05
-2.97059e-05
-2.99234e-05
-3.06388e-05
-3.15228e-05
-3.22591e-05
-3.26652e-05
-3.26746e-05
-3.23981e-05
-3.1872e-05
-3.11502e-05
-3.03248e-05
-2.95121e-05
-2.88176e-05
-2.83041e-05
-2.79805e-05
-2.78117e-05
-2.77356e-05
-2.76736e-05
-2.75414e-05
-2.72612e-05
-2.67823e-05
-2.60848e-05
-2.51744e-05
-2.4077e-05
-2.2835e-05
-2.15033e-05
-2.0134e-05
-1.87116e-05
-1.71436e-05
-1.57661e-05
1.93377e-05
1.51881e-05
-0.000246577
)
;
    }
    sWall
    {
        type            calculated;
        value           nonuniform List<scalar> 9(-0.000140236 -0.000164521 -0.000194251 -0.00022597 -0.000245166 -0.000281098 -0.000423767 -0.00045373 -0.000484009);
    }
    nWall
    {
        type            calculated;
        value           nonuniform List<scalar> 
14
(
-9.04366e-05
-9.76969e-05
-0.000103185
-0.000104565
-0.00011667
-0.000130672
-0.000144823
-0.000154076
-0.000161546
-0.000170847
-0.000181584
-0.000197068
-0.000206177
-0.00022015
)
;
    }
    sideWalls
    {
        type            empty;
        value           nonuniform 0();
    }
    glass1
    {
        type            calculated;
        value           nonuniform List<scalar> 9(-6.40346e-05 -0.000170322 -0.000257924 -0.000331208 -0.000393192 -0.000446398 -0.000492211 -0.000535493 -0.000587173);
    }
    glass2
    {
        type            calculated;
        value           nonuniform List<scalar> 2(-0.000367739 -0.000385821);
    }
    sun
    {
        type            calculated;
        value           uniform 0;
    }
    Table_master
    {
        type            calculated;
        value           nonuniform List<scalar> 9(-1.53994e-07 -1.54111e-07 -1.54143e-07 -1.54163e-07 -1.54176e-07 -1.54181e-07 -1.54179e-07 -1.54165e-07 -1.54112e-07);
    }
    Table_slave
    {
        type            calculated;
        value           nonuniform List<scalar> 9(1.53663e-07 1.53719e-07 1.53718e-07 1.53735e-07 1.53756e-07 1.538e-07 1.53867e-07 1.53961e-07 1.54088e-07);
    }
    inlet
    {
        type            calculated;
        value           uniform -0.0116482;
    }
    outlet
    {
        type            calculated;
        value           nonuniform List<scalar> 2(0.00986623 0.0122804);
    }
}


// ************************************************************************* //
