/*--------------------------------*- C++ -*----------------------------------*\
  =========                 |
  \\      /  F ield         | OpenFOAM: The Open Source CFD Toolbox
   \\    /   O peration     | Website:  https://openfoam.org
    \\  /    A nd           | Version:  6
     \\/     M anipulation  |
\*---------------------------------------------------------------------------*/
FoamFile
{
    version     2.0;
    format      ascii;
    class       surfaceScalarField;
    location    "2600";
    object      phi;
}
// * * * * * * * * * * * * * * * * * * * * * * * * * * * * * * * * * * * * * //

dimensions      [1 0 -1 0 0 0 0];

internalField   nonuniform List<scalar> 
1482
(
-0.00278813
0.00285353
-0.00343712
0.00064898
-0.00206639
0.00509437
-0.00412158
0.000684463
-0.00294945
0.00153204
-0.0015189
0.00687766
-0.00476875
0.000647174
-0.00378471
0.00151972
-0.00241053
0.00242367
-0.00113156
0.00834848
-0.00533011
0.000561359
-0.00448674
0.0013492
-0.00322518
0.00233438
-0.00196959
0.0032617
-0.000823345
0.00957385
-0.00578626
0.00045615
-0.00507748
0.0011521
-0.00385239
0.00197641
-0.00263607
0.00300086
-0.00161151
0.00404987
-0.000587781
0.010617
-0.00612393
0.000337665
-0.00556085
0.000939526
-0.0043642
0.00166391
-0.00312053
0.00246087
-0.00208061
0.00346996
-0.00134673
0.00480882
-0.000546428
0.0116643
-0.00632866
0.000204733
-0.00593344
0.000710254
-0.00477446
0.00134978
-0.00351151
0.00205488
-0.00240121
0.00278147
-0.00158574
0.00370897
-0.00125906
0.00552146
-0.000524074
0.0127315
-0.00638204
5.33818e-05
-0.00618738
0.00045867
-0.00508565
0.00102144
-0.00382136
0.00165964
-0.00265266
0.00230633
-0.00174384
0.00293957
-0.00117079
0.0036207
-0.00109716
0.00609454
0.00291789
0.010408
-0.00625755
-0.000124498
-0.00631178
0.000177776
-0.00529601
0.000669024
-0.00405459
0.00125467
-0.00284331
0.00185029
-0.00185395
0.00241643
-0.0011657
0.00293448
-0.000686679
0.00321022
0.00193955
0.00707287
0.00407553
0.00647473
-0.00592108
-0.000336465
-0.00629867
-0.000137607
-0.00540141
0.000283178
-0.00421221
0.000826646
-0.00297867
0.00139002
-0.00192079
0.00191713
-0.00114829
0.00239901
-0.000599714
0.00284751
0.000812892
0.00433688
0.00367098
0.00747742
0.00248754
0.00415332
-0.0053343
-0.000586786
-0.00614467
-0.00049047
-0.00539622
-0.000142802
-0.00429074
0.000361704
-0.00306233
0.000910305
-0.00194998
0.00141922
-0.00110737
0.00187621
-0.000512416
0.00231171
0.000362649
0.00329775
0.00251375
0.00549411
0.00336807
0.00659689
0.00154271
0.00280617
-0.00440854
-0.000925757
-0.00583357
-0.000897886
-0.00527092
-0.000615773
-0.00428157
-0.00015198
-0.00309359
0.000392963
-0.00194687
0.000907195
-0.00104443
0.00135628
-0.000398155
0.00176195
0.000243453
0.00243091
0.00187154
0.00393996
0.0032825
0.00557968
0.00285189
0.0052877
0.00224601
0.000787504
-0.00284497
-0.00156357
-0.00534798
-0.00141135
-0.00501572
-0.00115308
-0.00417608
-0.000721263
-0.00306397
-0.000181608
-0.00191473
0.000360824
-0.000963426
0.000826194
-0.000268733
0.00122685
0.000321373
0.00168403
0.0015328
0.00276964
0.00306139
0.00416106
0.00352209
0.00490948
0.00306697
0.00446673
-0.00154529
0.00258002
-0.00284176
-0.0048694
-0.00204216
-0.00465698
-0.00177009
-0.00397329
-0.00135587
-0.0029668
-0.000818433
-0.0018437
-0.000252646
-0.000864409
0.000261805
-0.000129
0.000686461
0.000478186
0.00107004
0.0014033
0.00181354
0.00286814
0.00296289
0.00379721
0.00388595
0.00372215
0.0042543
0.00119483
0.00172662
0.00284434
-0.00538885
-0.00232232
-0.00432022
-0.00237892
-0.00369346
-0.00204992
-0.00279987
-0.0015228
-0.00173217
-0.000929954
-0.000728565
-0.00038849
4.5699e-05
8.71058e-05
0.000675651
0.000488996
0.00144429
0.00102904
0.00274475
0.00193692
0.00388999
0.00287011
0.00429079
0.0033173
0.00346373
0.00198539
0.00455625
-0.00362094
-0.00176191
-0.0039394
-0.00270314
-0.00336056
-0.00271182
-0.0025612
-0.00228859
-0.00157212
-0.00168285
-0.000572419
-0.0010861
0.000252276
-0.000595067
0.000912406
-0.00014965
0.00161714
0.000316149
0.00273259
0.0010412
0.00391523
0.00191167
0.00461828
0.00254261
0.00449164
0.00228939
0.0049019
0.00163974
-0.00186251
-0.00175225
-0.00293723
-0.00276408
-0.00287493
-0.00318877
-0.00223532
-0.0030377
-0.00135152
-0.00250919
-0.000382342
-0.00187293
0.000473017
-0.00130684
0.00116256
-0.00084522
0.00186158
-0.00039409
0.00282702
0.000221714
0.00395226
0.00100417
0.00479274
0.00173722
0.00500991
0.00202434
0.00546716
0.00172414
0.00829266
0.00501543
-0.00184662
-0.00168624
-0.00300324
-0.00216644
-0.00347257
-0.00178599
-0.0036381
-0.00105415
-0.00333506
-0.000150096
-0.00274144
0.000714303
-0.00211422
0.00143595
-0.00158024
0.0021269
-0.00111054
0.0029902
-0.000557267
0.00402479
0.000149185
0.0049096
0.000887305
0.00533239
0.00141474
0.00575435
0.00173714
0.00621383
0.00380299
0.00340505
0.00176873
-0.00351882
-0.00150244
-0.00366723
-0.00124249
-0.00401607
-0.000679664
-0.00401259
0.000118443
-0.0036036
0.000967396
-0.00299453
0.00171693
-0.0023952
0.00241235
-0.00186569
0.00320138
-0.00132172
0.00413677
-0.000669253
0.00501453
4.42536e-05
0.00556676
0.000652934
0.00602032
0.00114877
0.00601209
0.00193891
0.00412718
0.00308087
-0.00406233
0.00807763
-0.00224656
-0.00156197
-0.0034593
-0.000748434
-0.00416129
-0.000266071
-0.00442966
0.000408781
-0.00430292
0.00120671
-0.00384291
0.00197974
-0.00325733
0.00269594
-0.0026788
0.00344372
-0.00210804
0.00429244
-0.00147739
0.00513537
-0.000790093
0.00576728
-0.000156267
0.00627057
0.000402692
0.00620523
0.000955679
0.00372391
0.00234223
-0.00196976
0.000988354
0.00238759
-0.00730523
-0.00722741
0.00826674
-0.00328582
0.000831462
-0.00237692
-0.000256366
-0.00395137
0.000128508
-0.00455586
0.000698823
-0.00471969
0.00141733
-0.00451354
0.00219142
-0.0040546
0.00293564
-0.00349703
0.00367562
-0.0029107
0.00446693
-0.00228253
0.00526717
-0.00160919
0.00593743
-0.000960231
0.00646833
-0.00035399
0.00633314
0.000274842
0.00339897
0.00128068
-0.001119
0.00149152
-0.00591327
-0.000325715
-0.00660525
0.00738883
-0.00642726
-0.00777179
0.00454815
0.00241605
0.000986613
-0.0025712
0.000727654
-0.00336094
0.000535132
-0.00435799
0.000964208
-0.00482124
0.00159318
-0.00489554
0.00232951
-0.00465163
0.00308616
-0.00420514
0.00383472
-0.00365614
0.0045976
-0.00304137
0.00535811
-0.00237347
0.00602404
-0.00169579
0.00651799
-0.00100985
0.00623732
-0.000258103
0.00307703
0.000596861
-0.00098357
0.00114531
-0.00497153
0.000549865
-0.00803849
0.00126512
-0.00181713
0.00157307
0.000858103
0.00174932
0.00143697
-0.00219968
0.00119156
-0.0030351
0.00106211
-0.00388792
0.0012213
-0.00461507
0.00172567
-0.00495373
0.00238789
-0.00495392
0.00312007
-0.00468554
0.00386561
-0.00423604
0.00460901
-0.00366757
0.00532898
-0.00301225
0.00594904
-0.00229846
0.0063348
-0.00151255
0.00584093
-0.000613403
0.00265324
0.00016574
-0.00110261
0.000715943
-0.00444706
0.000620905
-0.00743386
0.000583753
0.000999755
0.00117982
0.00142761
0.00126186
0.00185346
-0.00167835
0.00156314
-0.00257127
0.00143465
-0.00340764
0.00150116
-0.00416778
0.00182407
-0.00471346
0.00237228
-0.00493812
0.00303563
-0.00486949
0.00374352
-0.00456346
0.00445034
-0.00407738
0.00511455
-0.00345316
0.00565195
-0.00271516
0.00587971
-0.00184335
0.00516127
-0.000832864
0.00213133
-9.14804e-05
-0.00130134
0.000364491
-0.0042074
0.00047632
-0.006765
0.000587981
0.000669495
0.00151007
0.000866303
0.00182316
0.000846592
0.00219621
-0.00118934
0.0019094
-0.00202462
0.00171938
-0.00285601
0.00171162
-0.00361809
0.00190252
-0.00424623
0.00229948
-0.00464064
0.00285134
-0.00475383
0.00347792
-0.0046039
0.00411437
-0.00422751
0.00469528
-0.00365813
0.00511907
-0.00292029
0.00517384
-0.00200929
0.00427778
-0.000959854
0.00153098
-0.000232521
-0.00153576
0.000142962
-0.00414997
0.00030708
-0.00624653
0.00125748
0.000505744
0.00187063
0.000583764
0.00208599
0.000428506
0.0025166
-0.000748898
0.00221294
-0.00149288
0.00196248
-0.00226771
0.00186314
-0.00300753
0.0019376
-0.00365316
0.00218866
-0.0041354
0.00259632
-0.00438563
0.00310209
-0.004378
0.00363077
-0.00412032
0.00409957
-0.00363182
0.00438864
-0.00292773
0.00427926
-0.00202573
0.00328692
-0.00101845
0.00086912
-0.00029802
-0.00181415
4.58721e-05
-0.00419118
0.00018416
-0.00590122
0.00176322
0.000333584
0.00212081
0.000342003
0.00217249
0.00290619
-0.00038974
0.00248385
-0.00101981
0.00217122
-0.00170163
0.00197807
-0.00238264
0.0019353
-0.00300523
0.00204679
-0.00351129
0.00230097
-0.00384005
0.00265828
-0.00394182
0.0030496
-0.00379684
0.00338274
-0.00340351
0.00353045
-0.00277365
0.00327888
-0.00192737
0.00225706
-0.000995887
0.000151955
-0.000301317
-0.00214145
2.9279e-05
-0.00426584
0.00012049
-0.00568114
0.0020968
0.00019777
0.00226504
0.000113206
0.00205944
0.00312369
-0.000217651
0.00273692
-0.000642812
0.00234951
-0.0011981
0.00206853
-0.00179209
0.00191155
-0.00235889
0.00188723
-0.00284567
0.00198883
-0.00319913
0.00218765
-0.00336941
0.0024241
-0.00331632
0.00260928
-0.00302338
0.00261478
-0.00248786
0.00225472
-0.00174952
0.00124089
-0.000911228
-0.000580572
-0.000263381
-0.00249299
5.02006e-05
-0.00433545
9.88162e-05
-0.00552586
0.00229457
8.97111e-05
0.00228854
4.29857e-05
0.00201661
0.00322176
-9.82285e-05
0.00288604
-0.000366772
0.00248843
-0.000781732
0.00214014
-0.00126971
0.00187996
-0.0017605
0.001727
-0.00219866
0.00168213
-0.00253897
0.00172361
-0.0027351
0.00180308
-0.00274839
0.00183633
-0.00254337
0.0017105
-0.00211911
0.00125922
-0.00149237
0.000275841
-0.000784485
-0.00126414
-0.000227689
-0.00283322
7.68126e-05
-0.00438198
9.66464e-05
-0.00539256
0.00238428
3.36242e-05
0.0022979
1.80135e-05
0.00199875
0.00322466
-3.05833e-06
0.00294822
-0.000160412
0.00257209
-0.000450435
0.00218992
-0.000831513
0.00184897
-0.00123872
0.00158189
-0.00161539
0.00140115
-0.00191768
0.00129625
-0.0021116
0.00122405
-0.00215606
0.00111806
-0.00203012
0.000868397
-0.00170127
0.000345784
-0.00120568
-0.000573757
-0.000642787
-0.00184862
-0.000200047
-0.00314274
8.17779e-05
-0.00440136
9.6095e-05
-0.00526112
0.00241791
1.12312e-05
0.00230468
5.08867e-06
0.00199382
0.00314366
8.08507e-05
0.00293739
7.77447e-06
0.00259972
-0.000188036
0.00221389
-0.000474414
0.00182066
-0.000803204
0.0014622
-0.00111903
0.00116454
-0.00137878
0.000927845
-0.00154928
0.000726134
-0.00161369
0.000491787
-0.00152979
0.000143081
-0.00130481
-0.000411897
-0.000943596
-0.00123536
-0.000544098
-0.00229587
-0.000195575
-0.00339858
5.57425e-05
-0.00440412
8.44566e-05
-0.00512951
0.00242914
4.21066e-07
0.00230935
-4.31632e-06
0.00199829
0.00298088
0.000162625
0.00286095
0.000157289
0.00257707
3.04258e-05
0.00220881
-0.000182952
0.00179269
-0.000446444
0.00137148
-0.000712489
0.000982007
-0.000936492
0.000640709
-0.00109165
0.000329991
-0.00115314
4.34451e-06
-0.00112625
-0.000401205
-0.000985504
-0.00095126
-0.000765449
-0.00168704
-0.000491925
-0.00261252
-0.000227476
-0.00358836
-5.83637e-06
-0.00440299
5.45518e-05
-0.0050087
0.00242956
-6.97367e-06
0.00231201
-1.36107e-05
0.00201205
0.00272923
0.000251499
0.00272261
0.000300968
0.00250961
0.00022474
0.00217507
6.41595e-05
0.00176038
-0.000150648
0.00130629
-0.000381252
0.000854958
-0.000585441
0.000437705
-0.000733487
5.55802e-05
-0.000817236
-0.000321938
-0.000826855
-0.000745613
-0.000781836
-0.00127617
-0.000660592
-0.0019701
-0.000482388
-0.00281801
-0.000286431
-0.00371243
-0.000103415
-0.004413
4.15514e-06
-0.00491703
0.00242258
-1.42248e-05
0.00231262
-2.89222e-05
0.00204113
0.00236561
0.000363464
0.00252208
0.000452032
0.00240204
0.000408546
0.00211608
0.00028373
0.00172088
0.00010366
0.00125903
-0.000103388
0.000775199
-0.000301493
0.000311077
-0.000458813
-0.000112369
-0.000565537
-0.000511147
-0.000628025
-0.000934537
-0.000637925
-0.00146213
-0.000595863
-0.00213697
-0.000493705
-0.0029476
-0.000352765
-0.00379287
-0.000205938
-0.00443658
-7.97879e-05
-0.00487527
0.00240836
-2.62068e-05
0.0023099
-6.45667e-05
0.00210585
0.00183045
0.000535003
0.00225802
0.000627517
0.00225946
0.000594611
0.00203641
0.000488218
0.00167448
0.000330138
0.00122358
0.00013911
0.000730404
-5.85931e-05
0.000242523
-0.00023294
-0.000203983
-0.0003672
-0.000613661
-0.000463022
-0.00104138
-0.000521178
-0.00156347
-0.000536562
-0.00223465
-0.000498137
-0.00303362
-0.00040762
-0.00385213
-0.000293413
-0.0044795
-0.000162913
-0.0049173
0.00238215
-5.27253e-05
0.00229806
-0.000178244
0.00228424
-0.000858193
0.0016765
0.00101215
0.00194082
0.000852206
0.00209028
0.000796696
0.00194221
0.000688815
0.00162283
0.000539859
0.00119598
0.000357741
0.000710183
0.00015933
0.000214508
-3.0578e-05
-0.000247394
-0.000189529
-0.000669134
-0.000311725
-0.00110062
-0.000403773
-0.00162019
-0.000464441
-0.00229221
-0.000478952
-0.00309429
-0.000437371
-0.00390279
-0.000356826
-0.00454214
-0.000230611
-0.00504259
0.00232942
-0.000114661
0.00223448
-0.000494889
0.00192094
-0.00128994
0.00133065
0.00163578
0.00171459
0.00123837
0.00191092
0.00103156
0.00184305
0.000895857
0.00156949
0.000742163
0.00117332
0.00056251
0.000705888
0.000362035
0.000213904
0.000159934
-0.000258596
-1.93769e-05
-0.000695109
-0.000163553
-0.00113304
-0.000279298
-0.00165114
-0.000372807
-0.00232545
-0.000431153
-0.00313764
-0.000435503
-0.00394927
-0.000390741
-0.00462201
-0.000276772
-0.005236
0.00221476
-0.00023562
0.00197521
-0.000834247
0.00146525
-0.00174135
0.000787769
0.00228423
0.00155568
0.00179469
0.00180072
0.00134858
0.00175514
0.00111947
0.00152115
0.000944197
0.00115511
0.000760377
0.000710926
0.000557471
0.000230745
0.000345193
-0.000246443
0.00014778
-0.000698217
-1.62693e-05
-0.00114734
-0.000149256
-0.00166598
-0.000264452
-0.002342
-0.000356228
-0.00316741
-0.000401307
-0.00399219
-0.000392454
-0.00471377
-0.00029881
-0.00547623
0.00197914
-0.000387065
0.00152802
-0.00110685
0.000830744
-0.002895
0.00371834
0.00137017
0.00246974
0.00184141
0.00175399
0.0017232
0.00138052
0.00148939
0.00115122
0.00114396
0.000955349
0.000721601
0.000749701
0.000258232
0.000529983
-0.000216826
0.000315576
-0.000681002
0.000130564
-0.00114531
-1.83087e-05
-0.00166909
-0.000146151
-0.00234649
-0.000259969
-0.00318549
-0.00033813
-0.00403117
-0.000362252
-0.00480969
-0.000296402
-0.00573935
0.00159208
-0.000517519
0.000938696
-0.00203729
0.00238623
0.00270228
0.00204021
0.00227095
0.00179294
0.00168425
0.00149841
0.0013715
0.0011462
0.00114897
0.000736484
0.000940466
0.00029138
0.000716552
-0.00017413
0.000487287
-0.000644807
0.000279381
-0.00112524
0.000110498
-0.00166107
-2.63428e-05
-0.002342
-0.000150675
-0.003193
-0.000252494
-0.00406586
-0.000303445
-0.00490066
-0.000271244
-0.00600097
0.00107456
-0.00108115
0.00133461
0.00108805
0.00227724
0.00246525
0.00198385
0.00208004
0.00157662
0.00160604
0.00117532
0.00134238
0.000755698
0.00112976
0.000325321
0.000906525
-0.000123339
0.00066576
-0.000591459
0.000433938
-0.0010847
0.000238835
-0.0016388
8.82213e-05
-0.0023301
-3.82777e-05
-0.00319071
-0.000153045
-0.00409607
-0.000222384
-0.00497772
-0.00022646
-0.00623828
0.00189145
-0.000526663
0.00176002
0.00160527
0.0022188
0.0022303
0.00177086
0.0018858
0.00124992
0.00153144
0.00078155
0.00131653
0.000353899
0.00110118
-7.17805e-05
0.000854966
-0.000525031
0.00059933
-0.00102253
0.000371773
-0.00159707
0.000197101
-0.00230941
6.74922e-05
-0.00317988
-4.92204e-05
-0.00412094
-0.00012835
-0.00503389
-0.000166395
-0.00643149
0.00201385
0.000812459
0.000420901
0.00221947
0.0016046
0.00203571
0.00196544
0.00140983
0.00172588
0.00081407
0.00149892
0.000369422
0.00130101
-3.13961e-05
0.0010608
-0.00045337
0.000783304
-0.000940329
0.000517125
-0.00153166
0.000306361
-0.00227487
0.000162545
-0.00316315
5.06582e-05
-0.00413681
-3.35665e-05
-0.00506535
-9.71581e-05
-0.00656511
0.00292613
0.00166467
0.00097571
0.00213444
0.00150588
0.00163369
0.00174158
0.000832
0.00170795
0.000359283
0.00150906
-2.21099e-05
0.00129172
-0.000390522
0.000997946
-0.000843385
0.000686357
-0.00144074
0.000426202
-0.0022209
0.000252394
-0.00313975
0.000139101
-0.00413481
4.84593e-05
-0.00507199
-2.72314e-05
-0.00662978
0.00469634
0.00166667
0.00144349
0.0017423
0.00139725
0.000540652
0.00203289
0.000259556
0.00180768
-8.01833e-05
0.00156714
-0.000362063
0.00126326
-0.000742071
0.000896626
-0.00132492
0.000570537
-0.0021421
0.000347428
-0.00310414
0.000216793
-0.00411032
0.000114475
-0.00505209
2.82723e-05
-0.00662466
0.00673976
0.000388373
0.00279744
-0.00066296
0.00260061
-0.0001577
0.00244997
-0.000287005
0.00201454
-0.000415345
0.00162046
-0.000653597
0.00117478
-0.00118651
0.000758196
-0.00203184
0.000460291
-0.00304911
0.000292472
-0.00406528
0.000171724
-0.00499934
6.15063e-05
-0.00656413
0.0075234
-0.00191819
0.00405258
-0.000797199
0.00323976
-0.000784456
0.0029474
-0.00060557
0.00220495
-0.000601084
0.00156795
-0.00102628
0.00101449
-0.00187953
0.000605863
-0.00296403
0.000375325
-0.00400005
0.000227326
-0.00491454
8.68105e-05
-0.00647048
0.00571218
-0.001024
0.00427912
-0.00144731
0.00390239
-0.000986454
0.00332866
-0.000573941
0.00217797
-0.000831089
0.00137266
-0.00166728
0.000802123
-0.00283189
0.000473815
-0.00391216
0.000287624
-0.00479815
0.000110945
-0.00635177
0.00480727
-0.00146703
0.0042986
-0.00187732
0.0047935
-0.0004241
0.00317929
-0.000536491
0.00188333
-0.00136272
0.00106787
-0.00262562
0.00059583
-0.00379693
0.000358828
-0.00464773
0.00013732
-0.00620938
0.00347328
-0.00223272
0.00465417
-0.00025149
0.00462132
1.49726e-06
0.00264149
-0.000894107
0.00141441
-0.00230296
0.000745015
-0.00364676
0.000445892
-0.00445654
0.000167856
-0.00604129
0.00138782
-0.000144828
0.00454794
0.000766007
0.00385715
-0.000122858
0.00186999
-0.00179819
0.000909249
-0.00344524
0.000543647
-0.00421397
0.000203601
-0.00584358
0.00140085
0.00124059
0.00407376
0.00104739
0.00268695
-0.000982512
0.00105377
-0.00317238
0.000636392
-0.0039067
0.000236668
-0.00561126
0.00280571
0.00162822
0.00349306
0.000410624
0.00129334
-0.00292743
0.000808621
-0.00349711
0.00022706
-0.00534716
0.0046074
0.0010474
0.00285593
-0.0031221
0.00148762
-0.0027937
0.000105388
-0.00509406
0.00583879
-0.00284246
0.00257579
-0.00129286
-1.31765e-05
-0.00496408
0.00319605
2.13463e-05
0.00126144
-0.00495422
0.00342754
-0.00367158
)
;

boundaryField
{
    floor
    {
        type            calculated;
        value           nonuniform List<scalar> 
36
(
0
0
0
0
0
0
0
0
0
0
0
0
0
0
0
0
0
0
0
-6.59332e-06
-1.74406e-05
-2.69712e-05
-3.55749e-05
-3.64229e-05
-3.01806e-05
-3.00422e-05
-3.21086e-06
-6.00841e-06
-6.18842e-06
-6.3241e-06
-4.22842e-06
-9.56293e-06
-1.04358e-05
-1.40452e-05
-1.51324e-05
-1.65086e-05
)
;
    }
    ceiling
    {
        type            calculated;
        value           nonuniform List<scalar> 
43
(
-5.40205e-05
-6.19248e-05
-6.20824e-05
-5.89119e-05
-5.46527e-05
-4.7869e-05
-4.20906e-05
-3.82034e-05
-3.59449e-05
-3.48489e-05
-3.45759e-05
-3.49026e-05
-3.56088e-05
-3.64368e-05
-3.71481e-05
-3.7598e-05
-3.76935e-05
-3.75009e-05
-3.70485e-05
-3.63732e-05
-3.55568e-05
-3.47157e-05
-3.39652e-05
-3.33818e-05
-3.29872e-05
-3.27543e-05
-3.26232e-05
-3.25126e-05
-3.23354e-05
-3.20093e-05
-3.14758e-05
-3.07099e-05
-2.9715e-05
-2.8518e-05
-2.71655e-05
-2.5722e-05
-2.42487e-05
-2.27109e-05
-2.09768e-05
-1.96921e-05
1.87057e-05
1.47046e-05
-0.000158351
)
;
    }
    sWall
    {
        type            calculated;
        value           nonuniform List<scalar> 9(-0.000142216 -0.000166139 -0.000195555 -0.000227342 -0.000247227 -0.000283022 -0.000458944 -0.000481509 -0.000497989);
    }
    nWall
    {
        type            calculated;
        value           nonuniform List<scalar> 
14
(
-9.23557e-05
-9.98137e-05
-0.000105538
-0.0001069
-0.000119075
-0.00013307
-0.000147196
-0.000157287
-0.000163991
-0.000173429
-0.000184287
-0.000200107
-0.000210188
-0.000224205
)
;
    }
    sideWalls
    {
        type            empty;
        value           nonuniform 0();
    }
    glass1
    {
        type            calculated;
        value           nonuniform List<scalar> 9(-6.53972e-05 -0.00017445 -0.000264399 -0.000339264 -0.000402022 -0.000455373 -0.000500889 -0.000543154 -0.000594388);
    }
    glass2
    {
        type            calculated;
        value           nonuniform List<scalar> 2(-0.000376727 -0.000395172);
    }
    sun
    {
        type            calculated;
        value           uniform 0;
    }
    Table_master
    {
        type            calculated;
        value           nonuniform List<scalar> 9(-1.54149e-07 -1.54269e-07 -1.543e-07 -1.54318e-07 -1.54327e-07 -1.5433e-07 -1.54327e-07 -1.5431e-07 -1.54251e-07);
    }
    Table_slave
    {
        type            calculated;
        value           nonuniform List<scalar> 9(1.53822e-07 1.5386e-07 1.53847e-07 1.53862e-07 1.53877e-07 1.53918e-07 1.53985e-07 1.54081e-07 1.54214e-07);
    }
    inlet
    {
        type            calculated;
        value           uniform -0.0116684;
    }
    outlet
    {
        type            calculated;
        value           nonuniform List<scalar> 2(0.00945178 0.0129953);
    }
}


// ************************************************************************* //
