/*--------------------------------*- C++ -*----------------------------------*\
  =========                 |
  \\      /  F ield         | OpenFOAM: The Open Source CFD Toolbox
   \\    /   O peration     | Website:  https://openfoam.org
    \\  /    A nd           | Version:  6
     \\/     M anipulation  |
\*---------------------------------------------------------------------------*/
FoamFile
{
    version     2.0;
    format      ascii;
    class       volVectorField;
    location    "38699.9999988971031";
    object      U;
}
// * * * * * * * * * * * * * * * * * * * * * * * * * * * * * * * * * * * * * //

dimensions      [0 1 -1 0 0 0 0];

internalField   nonuniform List<vector> 
778
(
(0.0655973 0.0794073 0)
(-0.155178 0.0157646 0)
(-0.164303 0.0146234 0)
(-0.192418 0.0122742 0)
(-0.216853 0.00872521 0)
(-0.236913 0.00474566 0)
(-0.252043 0.000420091 0)
(-0.261818 -0.00436426 0)
(-0.265726 -0.00980621 0)
(-0.262761 -0.0161864 0)
(-0.250967 -0.0242607 0)
(-0.226275 -0.0348819 0)
(-0.186153 -0.0504072 0)
(-0.144211 -0.0751832 0)
(-0.150092 -0.108584 0)
(0.054648 0.0355148 0)
(0.0157558 -0.0268954 0)
(0.0449646 -0.0232845 0)
(0.0693961 -0.0161795 0)
(0.0844871 -0.0103678 0)
(0.0917163 -0.00641808 0)
(0.0945547 -0.00433438 0)
(0.0955809 -0.00331229 0)
(0.0960276 -0.0027275 0)
(0.0961967 -0.00231587 0)
(0.0960735 -0.00195211 0)
(0.0955485 -0.0015115 0)
(0.0942908 -0.000756703 0)
(0.0914414 0.000849048 0)
(0.0852309 0.00407508 0)
(0.073678 0.00778903 0)
(0.0599861 0.0116436 0)
(-0.00786899 0.030008 0)
(0.258396 0.167395 0)
(-0.161236 0.0483928 0)
(-0.141604 0.0459777 0)
(-0.174005 0.0416117 0)
(-0.199365 0.035666 0)
(-0.220085 0.0291299 0)
(-0.236116 0.0220627 0)
(-0.247373 0.0142369 0)
(-0.253558 0.00530831 0)
(-0.253889 -0.00513931 0)
(-0.247748 -0.0170715 0)
(-0.234055 -0.0308458 0)
(-0.214156 -0.0480811 0)
(-0.197587 -0.0699746 0)
(-0.194082 -0.0826602 0)
(-0.166474 -0.0425612 0)
(-0.105403 -0.0363863 0)
(-0.0983242 -0.0444957 0)
(0.109343 -0.0420851 0)
(0.0644519 -0.0411968 0)
(0.0719107 -0.0323178 0)
(0.085922 -0.0207745 0)
(0.0938619 -0.0105198 0)
(0.096125 -0.00365279 0)
(0.0958938 -0.000184589 0)
(0.0955012 0.00126208 0)
(0.0954592 0.00190215 0)
(0.0955363 0.00226922 0)
(0.0955418 0.00258846 0)
(0.0954414 0.00313114 0)
(0.0951507 0.00441503 0)
(0.0938933 0.00773513 0)
(0.0882941 0.0167767 0)
(0.0745282 0.0253772 0)
(0.0631472 0.0330243 0)
(-0.0518582 0.0636267 0)
(0.429973 0.253957 0)
(-0.194236 0.0847616 0)
(-0.112781 0.0784276 0)
(-0.148244 0.0669491 0)
(-0.170673 0.0554953 0)
(-0.188764 0.0437276 0)
(-0.202601 0.0313524 0)
(-0.212296 0.0180247 0)
(-0.217654 0.00342365 0)
(-0.218022 -0.0126043 0)
(-0.212776 -0.0302996 0)
(-0.201679 -0.0498945 0)
(-0.186043 -0.0715709 0)
(-0.169506 -0.0932307 0)
(-0.151132 -0.10459 0)
(-0.120286 -0.0931669 0)
(-0.0795785 -0.0949693 0)
(-0.0714573 -0.107636 0)
(0.0921519 -0.088137 0)
(0.0625807 -0.065775 0)
(0.0743838 -0.0461865 0)
(0.0880346 -0.0293342 0)
(0.0949053 -0.0150077 0)
(0.092031 -0.0120905 0)
(0.0877918 -0.00798276 0)
(0.085416 -0.00578904 0)
(0.0847267 -0.00455727 0)
(0.0847081 -0.00379444 0)
(0.0849645 -0.00322464 0)
(0.085616 -0.0025991 0)
(0.087378 -0.00143889 0)
(0.092067 0.00292485 0)
(0.0902352 0.0251219 0)
(0.073443 0.0424036 0)
(0.0701324 0.0575763 0)
(-0.0897877 0.101032 0)
(0.578535 0.325844 0)
(-0.240105 0.121815 0)
(-0.0808394 0.109217 0)
(-0.121578 0.089845 0)
(-0.13901 0.0740622 0)
(-0.153068 0.0586346 0)
(-0.163826 0.042761 0)
(-0.171421 0.0258283 0)
(-0.175634 0.00722673 0)
(-0.175706 -0.0134973 0)
(-0.171025 -0.036438 0)
(-0.161464 -0.061434 0)
(-0.147601 -0.0873677 0)
(-0.130623 -0.110313 0)
(-0.109664 -0.123221 0)
(-0.0821834 -0.124563 0)
(-0.0525723 -0.126396 0)
(-0.0334483 -0.123215 0)
(0.016287 -0.0568219 0)
(0.0607899 -0.0930171 0)
(0.0684719 -0.0792073 0)
(0.0791027 -0.0588809 0)
(0.0915986 -0.0396685 0)
(0.102936 -0.0210193 0)
(0.115693 -0.0132884 0)
(0.126902 -0.00887226 0)
(0.13255 -0.00563903 0)
(0.133564 -0.00311709 0)
(0.131053 -0.000883839 0)
(0.125596 0.00128962 0)
(0.117072 0.00367011 0)
(0.104717 0.0067217 0)
(0.085482 0.0111471 0)
(0.0716153 0.036823 0)
(0.0603627 0.0605817 0)
(0.0763788 0.0834863 0)
(-0.117202 0.13744 0)
(0.705709 0.383686 0)
(-0.287679 0.157013 0)
(-0.047705 0.133777 0)
(-0.0963003 0.106911 0)
(-0.10775 0.0875892 0)
(-0.116781 0.0691736 0)
(-0.123568 0.0504578 0)
(-0.128225 0.0306104 0)
(-0.130582 0.00875749 0)
(-0.129777 -0.0157801 0)
(-0.12528 -0.0430385 0)
(-0.11666 -0.0726544 0)
(-0.103941 -0.102812 0)
(-0.087469 -0.12909 0)
(-0.0675211 -0.145794 0)
(-0.0441786 -0.152276 0)
(-0.020318 -0.152383 0)
(0.000223136 -0.143739 0)
(0.0307599 -0.115018 0)
(0.0569481 -0.109375 0)
(0.0705511 -0.0924728 0)
(0.080702 -0.0713236 0)
(0.0907703 -0.0508894 0)
(0.100335 -0.0328556 0)
(0.109466 -0.019459 0)
(0.116526 -0.0100613 0)
(0.119985 -0.00335045 0)
(0.120209 0.00191585 0)
(0.11781 0.00647039 0)
(0.113165 0.0108259 0)
(0.106303 0.0154925 0)
(0.0971641 0.0211731 0)
(0.0852581 0.0291711 0)
(0.0737399 0.0471733 0)
(0.0633277 0.0712399 0)
(0.0949457 0.0994529 0)
(0.0173633 0.138636 0)
(0.0967971 0.182736 0)
(0.140409 0.147545 0)
(-0.223656 0.202496 0)
(0.810409 0.431982 0)
(-0.331313 0.190686 0)
(-0.0173275 0.150248 0)
(-0.0733794 0.117517 0)
(-0.0786053 0.0955077 0)
(-0.0822247 0.0749455 0)
(-0.0844753 0.0543516 0)
(-0.0855077 0.0327403 0)
(-0.085246 0.00889299 0)
(-0.0825646 -0.018367 0)
(-0.0773954 -0.0489765 0)
(-0.068767 -0.0824563 0)
(-0.0567718 -0.116473 0)
(-0.0417156 -0.146295 0)
(-0.0247324 -0.165995 0)
(-0.00634544 -0.174504 0)
(0.012043 -0.172761 0)
(0.0279645 -0.161026 0)
(0.0461379 -0.139349 0)
(0.0626012 -0.12238 0)
(0.0732868 -0.102547 0)
(0.0809764 -0.0805182 0)
(0.0877444 -0.0591952 0)
(0.0939388 -0.04033 0)
(0.0992937 -0.0251495 0)
(0.103014 -0.0137791 0)
(0.10465 -0.00506951 0)
(0.104245 0.00213902 0)
(0.102102 0.00861891 0)
(0.0984716 0.0148845 0)
(0.0935152 0.02146 0)
(0.087471 0.0289784 0)
(0.0806137 0.0383576 0)
(0.0749004 0.0527511 0)
(0.0697628 0.0727375 0)
(0.0919376 0.0985089 0)
(0.0741077 0.107486 0)
(0.090921 0.0484275 0)
(0.146305 -0.0353815 0)
(-0.324528 0.105815 0)
(0.879874 0.474695 0)
(-0.368629 0.220972 0)
(0.00370417 0.155563 0)
(-0.0526764 0.121571 0)
(-0.0522243 0.0978494 0)
(-0.0510413 0.0758206 0)
(-0.0490317 0.0540496 0)
(-0.0465083 0.0315522 0)
(-0.0433091 0.00680222 0)
(-0.0373346 -0.0222551 0)
(-0.0302507 -0.0553118 0)
(-0.0204621 -0.09188 0)
(-0.00865879 -0.12884 0)
(0.00454007 -0.161206 0)
(0.0175843 -0.181859 0)
(0.030365 -0.19021 0)
(0.0421718 -0.187236 0)
(0.0524814 -0.174437 0)
(0.0624577 -0.154092 0)
(0.0710428 -0.132446 0)
(0.0765784 -0.109443 0)
(0.08005 -0.0859622 0)
(0.0826618 -0.0638052 0)
(0.0849174 -0.0443185 0)
(0.0867758 -0.0282184 0)
(0.0878997 -0.0154107 0)
(0.0880584 -0.00512217 0)
(0.0870986 0.00355793 0)
(0.0852004 0.0113053 0)
(0.0825125 0.0186364 0)
(0.0792148 0.0260454 0)
(0.0755956 0.0340301 0)
(0.0720748 0.0431473 0)
(0.0700531 0.0546966 0)
(0.068966 0.0690991 0)
(0.082165 0.0881446 0)
(0.0855957 0.0916884 0)
(0.0912328 0.0548931 0)
(0.181151 0.0271645 0)
(-0.27802 0.155512 0)
(0.927917 0.517155 0)
(-0.383147 0.234177 0)
(0.0168821 0.132981 0)
(-0.0273387 0.116654 0)
(-0.0265671 0.0949165 0)
(-0.0227557 0.0724215 0)
(-0.0176345 0.0500998 0)
(-0.0123481 0.0272532 0)
(-0.00535647 0.00185784 0)
(0.00463189 -0.0307134 0)
(0.0143706 -0.0652798 0)
(0.0256741 -0.103262 0)
(0.0373022 -0.140773 0)
(0.0479491 -0.172055 0)
(0.057007 -0.192267 0)
(0.0644711 -0.199781 0)
(0.0701749 -0.195388 0)
(0.0741219 -0.181213 0)
(0.0768218 -0.160141 0)
(0.0781882 -0.136156 0)
(0.0778381 -0.111157 0)
(0.0763477 -0.0866528 0)
(0.0745489 -0.0641124 0)
(0.0729679 -0.0445281 0)
(0.0717405 -0.0282688 0)
(0.0707253 -0.0150498 0)
(0.0697163 -0.00417947 0)
(0.0684182 0.00510767 0)
(0.0669308 0.0133828 0)
(0.0652272 0.0211219 0)
(0.0633912 0.0287407 0)
(0.0616176 0.0365803 0)
(0.0602307 0.0449178 0)
(0.0601446 0.0542129 0)
(0.061315 0.06445 0)
(0.0704961 0.0773125 0)
(0.0810312 0.0807423 0)
(0.0820469 0.0618962 0)
(0.238687 0.0565952 0)
(-0.548628 0.234429 0)
(1.01128 0.506818 0)
(-0.137205 0.296348 0)
(0.0410859 0.161516 0)
(0.0406127 0.12207 0)
(0.0130929 0.0919476 0)
(0.0086695 0.065328 0)
(0.0141071 0.0413498 0)
(0.0207518 0.0169415 0)
(0.0325931 -0.0110527 0)
(0.044084 -0.0421565 0)
(0.0559794 -0.0768788 0)
(0.0682603 -0.11456 0)
(0.0793762 -0.150985 0)
(0.0878332 -0.180436 0)
(0.0929992 -0.198478 0)
(0.0949997 -0.203684 0)
(0.0942513 -0.197083 0)
(0.0913048 -0.181081 0)
(0.0868357 -0.158716 0)
(0.0812929 -0.133308 0)
(0.074968 -0.107298 0)
(0.0684624 -0.0825179 0)
(0.0625011 -0.0603191 0)
(0.0576043 -0.0414185 0)
(0.0539589 -0.0258887 0)
(0.0514489 -0.0132284 0)
(0.0497883 -0.00267045 0)
(0.04857 0.00646399 0)
(0.0477462 0.0146636 0)
(0.0470882 0.0223562 0)
(0.0465414 0.0298645 0)
(0.0461513 0.0373897 0)
(0.0460594 0.0450044 0)
(0.0467547 0.0527234 0)
(0.0483763 0.0601322 0)
(0.0547973 0.0675477 0)
(0.0661332 0.0658793 0)
(0.0637165 0.039715 0)
(0.290842 0.0715161 0)
(-0.747773 0.306674 0)
(0.779313 0.395694 0)
(0.000894469 0.319481 0)
(0.0934242 0.2189 0)
(0.110654 0.155142 0)
(0.0772295 0.106777 0)
(0.0598505 0.0674771 0)
(0.0582768 0.0356736 0)
(0.0624636 0.0063173 0)
(0.0739322 -0.0235217 0)
(0.0855378 -0.0550984 0)
(0.0977578 -0.0897499 0)
(0.109623 -0.126182 0)
(0.118966 -0.159899 0)
(0.124014 -0.185582 0)
(0.124179 -0.199667 0)
(0.1199 -0.201309 0)
(0.112137 -0.191851 0)
(0.101966 -0.17382 0)
(0.0904272 -0.150236 0)
(0.0783619 -0.124136 0)
(0.0664614 -0.0980688 0)
(0.0554669 -0.0739635 0)
(0.046113 -0.0530643 0)
(0.0388757 -0.0358043 0)
(0.0338507 -0.0219472 0)
(0.0307731 -0.0107029 0)
(0.029155 -0.0011721 0)
(0.0285103 0.00725365 0)
(0.0285405 0.0150038 0)
(0.0289079 0.0224334 0)
(0.029457 0.0297664 0)
(0.0300791 0.0371143 0)
(0.0306572 0.044461 0)
(0.0311119 0.0516554 0)
(0.0308594 0.0581554 0)
(0.0309106 0.0635375 0)
(0.0176156 0.0631983 0)
(0.0157478 0.089597 0)
(0.0694456 0.171612 0)
(-0.633906 0.309813 0)
(0.617245 0.220742 0)
(0.00474198 0.29807 0)
(0.113078 0.241514 0)
(0.148361 0.177509 0)
(0.13094 0.123439 0)
(0.117924 0.0777368 0)
(0.115075 0.0387689 0)
(0.117269 0.00325695 0)
(0.123674 -0.0308568 0)
(0.131941 -0.0651028 0)
(0.141653 -0.100509 0)
(0.150528 -0.135274 0)
(0.155623 -0.165056 0)
(0.155014 -0.185547 0)
(0.148398 -0.194449 0)
(0.136684 -0.191774 0)
(0.121347 -0.179237 0)
(0.103891 -0.159386 0)
(0.0856894 -0.135117 0)
(0.0678523 -0.109227 0)
(0.0513355 -0.0842073 0)
(0.0370386 -0.0619472 0)
(0.0257311 -0.043526 0)
(0.0177118 -0.0289851 0)
(0.0127503 -0.0176776 0)
(0.0101587 -0.00843262 0)
(0.00918606 -0.000295707 0)
(0.00936275 0.00720776 0)
(0.0101966 0.0143964 0)
(0.0114276 0.0215162 0)
(0.0128806 0.028719 0)
(0.0143542 0.0361246 0)
(0.0155115 0.0438082 0)
(0.0158088 0.0518314 0)
(0.0142042 0.0601375 0)
(0.0100063 0.0697442 0)
(-0.0227697 0.095456 0)
(-0.0183931 0.141377 0)
(0.0152456 0.186784 0)
(-0.545625 0.210601 0)
(0.57078 0.118334 0)
(-0.0202287 0.25857 0)
(0.113744 0.229852 0)
(0.165097 0.176009 0)
(0.166767 0.126103 0)
(0.164437 0.080981 0)
(0.165443 0.0398167 0)
(0.168428 0.00144327 0)
(0.172429 -0.0355753 0)
(0.178053 -0.0720386 0)
(0.184254 -0.10759 0)
(0.187943 -0.139496 0)
(0.186104 -0.163934 0)
(0.177368 -0.178123 0)
(0.162189 -0.181275 0)
(0.142111 -0.174267 0)
(0.119069 -0.159097 0)
(0.0948175 -0.138177 0)
(0.0709494 -0.114217 0)
(0.0487109 -0.0897282 0)
(0.0292964 -0.0671198 0)
(0.0137745 -0.0481718 0)
(0.00279505 -0.0336087 0)
(-0.00399356 -0.0226582 0)
(-0.00742882 -0.0143675 0)
(-0.00889412 -0.00713589 0)
(-0.00908591 -0.000308129 0)
(-0.00828762 0.00634528 0)
(-0.0069401 0.0129766 0)
(-0.00511895 0.0197304 0)
(-0.00294875 0.02675 0)
(-0.000590102 0.0342942 0)
(0.0015787 0.0426498 0)
(0.00283134 0.0522725 0)
(0.00210101 0.0640435 0)
(-0.00140761 0.0823181 0)
(-0.0305671 0.124465 0)
(-0.0241983 0.181473 0)
(0.00738511 0.182368 0)
(-0.518299 0.0823497 0)
(0.628516 0.0534324 0)
(0.00940304 0.197236 0)
(0.113805 0.196942 0)
(0.175102 0.1579 0)
(0.191349 0.117609 0)
(0.198009 0.0771356 0)
(0.203364 0.0370723 0)
(0.208623 -0.00176812 0)
(0.213209 -0.0399253 0)
(0.217599 -0.0767168 0)
(0.219467 -0.109983 0)
(0.215647 -0.136612 0)
(0.20426 -0.154061 0)
(0.185405 -0.161373 0)
(0.160694 -0.15911 0)
(0.132285 -0.148655 0)
(0.102405 -0.132047 0)
(0.0727639 -0.111354 0)
(0.0451328 -0.0891063 0)
(0.0207488 -0.0675236 0)
(0.00124387 -0.0489914 0)
(-0.012272 -0.0352127 0)
(-0.0200038 -0.0259469 0)
(-0.0241255 -0.0188842 0)
(-0.025962 -0.012765 0)
(-0.0264612 -0.00685729 0)
(-0.0260746 -0.000919866 0)
(-0.0249245 0.00508499 0)
(-0.0233155 0.0111833 0)
(-0.0211507 0.0174678 0)
(-0.0184568 0.0241051 0)
(-0.0152697 0.0314318 0)
(-0.0117627 0.0399971 0)
(-0.00844942 0.0507789 0)
(-0.00626068 0.065626 0)
(-0.00275868 0.0891241 0)
(-0.0131495 0.134089 0)
(-0.0128062 0.204267 0)
(0.117567 0.203428 0)
(-0.460145 0.0424372 0)
(0.472006 0.0747156 0)
(-0.132068 0.13758 0)
(0.0941524 0.133325 0)
(0.17261 0.116788 0)
(0.203708 0.0952662 0)
(0.21799 0.0642277 0)
(0.228006 0.0281209 0)
(0.237159 -0.00931995 0)
(0.24364 -0.0456774 0)
(0.245232 -0.078523 0)
(0.239309 -0.10521 0)
(0.224528 -0.123736 0)
(0.201419 -0.133312 0)
(0.171892 -0.13441 0)
(0.138504 -0.128275 0)
(0.10352 -0.11616 0)
(0.0692159 -0.0998898 0)
(0.0367807 -0.0810705 0)
(0.00859822 -0.0622369 0)
(-0.014465 -0.0454686 0)
(-0.0288066 -0.0344476 0)
(-0.0373502 -0.0270995 0)
(-0.0418801 -0.021712 0)
(-0.0440356 -0.0169528 0)
(-0.0447065 -0.0122197 0)
(-0.0444393 -0.00721888 0)
(-0.0435395 -0.00191458 0)
(-0.0420764 0.00359061 0)
(-0.0403384 0.00917698 0)
(-0.038053 0.0148823 0)
(-0.0351238 0.020892 0)
(-0.0314389 0.0275767 0)
(-0.0269423 0.0356101 0)
(-0.0218559 0.0463133 0)
(-0.0167595 0.0622027 0)
(-0.00864919 0.0867546 0)
(-0.000434628 0.126261 0)
(0.0022659 0.188883 0)
(0.16255 0.195662 0)
(-0.346093 0.105961 0)
(0.723908 0.134406 0)
(0.0818434 0.115212 0)
(0.14964 0.0992134 0)
(0.222239 0.080481 0)
(0.243871 0.0698574 0)
(0.248662 0.0474792 0)
(0.255015 0.0172231 0)
(0.261184 -0.0151407 0)
(0.260281 -0.0451639 0)
(0.249858 -0.0698932 0)
(0.229692 -0.0876494 0)
(0.201371 -0.0980216 0)
(0.16727 -0.101377 0)
(0.129902 -0.0987186 0)
(0.0917171 -0.0912868 0)
(0.0541119 -0.0797353 0)
(0.0197211 -0.065681 0)
(-0.0119016 -0.0502853 0)
(-0.0344755 -0.0384631 0)
(-0.0494837 -0.0305434 0)
(-0.0583235 -0.0257843 0)
(-0.0633101 -0.0224299 0)
(-0.0658585 -0.0194541 0)
(-0.0668334 -0.0162304 0)
(-0.0666919 -0.0125091 0)
(-0.0657551 -0.00819911 0)
(-0.0642872 -0.00333936 0)
(-0.0623859 0.00188851 0)
(-0.0605377 0.00714192 0)
(-0.0584418 0.012318 0)
(-0.0558887 0.01761 0)
(-0.0527559 0.0233889 0)
(-0.0489184 0.0304465 0)
(-0.0443009 0.0404053 0)
(-0.0387158 0.0555314 0)
(-0.0295427 0.0767399 0)
(-0.0127403 0.10329 0)
(0.00412976 0.14671 0)
(0.180574 0.168673 0)
(-0.324947 0.166769 0)
(0.191894 0.0880246 0)
(0.225689 0.0998141 0)
(0.24641 0.0701065 0)
(0.242468 0.0396278 0)
(0.239686 0.0118024 0)
(0.234664 -0.0132775 0)
(0.219959 -0.0337574 0)
(0.196313 -0.0488296 0)
(0.166089 -0.0584857 0)
(0.131723 -0.0632255 0)
(0.0949914 -0.063411 0)
(0.0577483 -0.0597505 0)
(0.0218913 -0.0530799 0)
(-0.0133204 -0.0435176 0)
(-0.0410129 -0.0344496 0)
(-0.0619141 -0.0273803 0)
(-0.0759257 -0.0233023 0)
(-0.0847984 -0.0212154 0)
(-0.0902267 -0.0201385 0)
(-0.0935099 -0.0191045 0)
(-0.0952811 -0.0176814 0)
(-0.0958498 -0.0156452 0)
(-0.0953973 -0.0128724 0)
(-0.0941092 -0.00929049 0)
(-0.0922288 -0.00489892 0)
(-0.0899689 0.000143404 0)
(-0.0876483 0.00538432 0)
(-0.0858624 0.0104655 0)
(-0.0841726 0.0155114 0)
(-0.0825808 0.0209462 0)
(-0.080883 0.0275632 0)
(-0.0785485 0.0365249 0)
(-0.0750839 0.0486932 0)
(-0.0687304 0.0628464 0)
(-0.0523821 0.0751227 0)
(-0.0217556 0.0892186 0)
(0.162495 0.140754 0)
(-0.430402 0.2321 0)
(0.451197 0.209635 0)
(0.206544 0.178782 0)
(0.15292 0.118801 0)
(0.139747 0.0638963 0)
(0.128304 0.0256007 0)
(0.114255 0.00143925 0)
(0.0988054 -0.0133255 0)
(0.0778201 -0.022487 0)
(0.0532822 -0.028062 0)
(0.0263048 -0.0304152 0)
(-0.00335786 -0.029442 0)
(-0.0325589 -0.0260352 0)
(-0.0587169 -0.0215663 0)
(-0.0808241 -0.0173586 0)
(-0.0973437 -0.0149097 0)
(-0.10889 -0.0140768 0)
(-0.116676 -0.0145536 0)
(-0.122147 -0.0154457 0)
(-0.126149 -0.0162471 0)
(-0.129038 -0.0166631 0)
(-0.130895 -0.0165253 0)
(-0.131722 -0.0156766 0)
(-0.131525 -0.0139512 0)
(-0.130369 -0.0111888 0)
(-0.128416 -0.00728267 0)
(-0.125879 -0.00228425 0)
(-0.12286 0.00336809 0)
(-0.120442 0.00888429 0)
(-0.118678 0.0142195 0)
(-0.117343 0.0199721 0)
(-0.116161 0.0269278 0)
(-0.114815 0.0358367 0)
(-0.114024 0.046996 0)
(-0.115346 0.0597345 0)
(-0.114389 0.0727777 0)
(-0.0958684 0.0919673 0)
(-0.08166 0.146076 0)
(-0.542204 0.222984 0)
(0.361772 -0.414825 0)
(-0.34615 -0.513069 0)
(-0.218719 -0.0278741 0)
(-0.0928734 0.110987 0)
(-0.0536148 0.0926272 0)
(-0.0313663 0.0545166 0)
(-0.0266236 0.0282592 0)
(-0.0316401 0.0114381 0)
(-0.0403203 0.000465909 0)
(-0.0506551 -0.00677719 0)
(-0.0641592 -0.0111274 0)
(-0.079256 -0.0134563 0)
(-0.0949694 -0.0148986 0)
(-0.110274 -0.0166806 0)
(-0.124102 -0.019168 0)
(-0.135431 -0.0220459 0)
(-0.143809 -0.0247951 0)
(-0.149918 -0.0268614 0)
(-0.154771 -0.0282865 0)
(-0.158996 -0.0291697 0)
(-0.162738 -0.0295612 0)
(-0.16589 -0.0294375 0)
(-0.168267 -0.0287445 0)
(-0.169708 -0.0274071 0)
(-0.170129 -0.0253303 0)
(-0.169555 -0.0224018 0)
(-0.168116 -0.0185035 0)
(-0.166021 -0.0135297 0)
(-0.163374 -0.00743297 0)
(-0.160308 -0.000251954 0)
(-0.157317 0.00729953 0)
(-0.153799 0.01491 0)
(-0.14926 0.0231971 0)
(-0.143089 0.0329397 0)
(-0.13534 0.044557 0)
(-0.127167 0.0583539 0)
(-0.11396 0.076212 0)
(-0.0678908 0.101491 0)
(-0.0229696 0.116439 0)
(-0.594089 0.0505609 0)
(0.124119 -0.185172 0)
(-0.387911 -0.297634 0)
(-0.343328 -0.0964919 0)
(-0.2649 0.0517883 0)
(-0.211236 0.083764 0)
(-0.179164 0.0747434 0)
(-0.162978 0.0611828 0)
(-0.157064 0.0511526 0)
(-0.157164 0.0459624 0)
(-0.160396 0.0454239 0)
(-0.164723 0.0486912 0)
(-0.168971 0.0548364 0)
(-0.172413 0.0626188 0)
(-0.17475 0.0701247 0)
(-0.176345 0.0754567 0)
(-0.177855 0.0773867 0)
(-0.179834 0.0757472 0)
(-0.182317 0.0726425 0)
(-0.185207 0.0689234 0)
(-0.188376 0.0648029 0)
(-0.191698 0.0602796 0)
(-0.195053 0.055384 0)
(-0.198329 0.0502738 0)
(-0.201419 0.0452892 0)
(-0.204197 0.0409382 0)
(-0.206479 0.0377793 0)
(-0.208007 0.0362295 0)
(-0.208493 0.0363744 0)
(-0.207622 0.0377666 0)
(-0.204935 0.038965 0)
(-0.20087 0.0386054 0)
(-0.194956 0.0379691 0)
(-0.186424 0.0379092 0)
(-0.174514 0.0389455 0)
(-0.158598 0.0409304 0)
(-0.137024 0.0429331 0)
(-0.102001 0.0461423 0)
(-0.0367009 0.0596528 0)
(0.140923 0.0911295 0)
(-0.342302 0.0695704 0)
(1.14732 -0.0112634 0)
(-0.295595 -0.323379 0)
(-0.353046 -0.234074 0)
(-0.352443 -0.149681 0)
(-0.328678 -0.108268 0)
(-0.297043 -0.0997558 0)
(-0.269834 -0.10209 0)
(-0.250197 -0.108059 0)
(-0.237235 -0.116119 0)
(-0.228953 -0.12621 0)
(-0.22349 -0.138491 0)
(-0.219406 -0.152693 0)
(-0.215759 -0.167635 0)
(-0.212234 -0.181321 0)
(-0.209094 -0.191729 0)
(-0.206943 -0.197914 0)
(-0.206375 -0.19992 0)
(-0.207737 -0.199691 0)
(-0.210922 -0.198001 0)
(-0.215794 -0.19509 0)
(-0.222271 -0.190879 0)
(-0.230275 -0.185184 0)
(-0.239651 -0.177884 0)
(-0.250094 -0.169044 0)
(-0.26108 -0.158971 0)
(-0.271839 -0.148158 0)
(-0.281385 -0.137121 0)
(-0.288623 -0.126198 0)
(-0.292524 -0.115394 0)
(-0.29235 -0.104409 0)
(-0.287963 -0.0933516 0)
(-0.280482 -0.0836838 0)
(-0.270254 -0.0750392 0)
(-0.257434 -0.0666008 0)
(-0.242488 -0.058102 0)
(-0.224189 -0.0497495 0)
(-0.193011 -0.039719 0)
(-0.136766 -0.0185532 0)
(-0.119083 0.0257316 0)
(-0.571497 0.0666042 0)
)
;

boundaryField
{
    floor
    {
        type            noSlip;
    }
    ceiling
    {
        type            noSlip;
    }
    sWall
    {
        type            noSlip;
    }
    nWall
    {
        type            noSlip;
    }
    sideWalls
    {
        type            empty;
    }
    glass1
    {
        type            noSlip;
    }
    glass2
    {
        type            noSlip;
    }
    sun
    {
        type            noSlip;
    }
    Table_master
    {
        type            noSlip;
    }
    Table_slave
    {
        type            noSlip;
    }
    inlet
    {
        type            fixedValue;
        value           uniform (0.5 0 0);
    }
    outlet
    {
        type            zeroGradient;
    }
}


// ************************************************************************* //
