/*--------------------------------*- C++ -*----------------------------------*\
  =========                 |
  \\      /  F ield         | OpenFOAM: The Open Source CFD Toolbox
   \\    /   O peration     | Website:  https://openfoam.org
    \\  /    A nd           | Version:  6
     \\/     M anipulation  |
\*---------------------------------------------------------------------------*/
FoamFile
{
    version     2.0;
    format      ascii;
    class       volVectorField;
    location    "1840";
    object      U;
}
// * * * * * * * * * * * * * * * * * * * * * * * * * * * * * * * * * * * * * //

dimensions      [0 1 -1 0 0 0 0];

internalField   nonuniform List<vector> 
458
(
(0.0348272 0.0885215 0)
(-0.172079 0.0265832 0)
(-0.199346 0.0191132 0)
(-0.233221 0.0130815 0)
(-0.258393 0.00641441 0)
(-0.273599 -0.000803796 0)
(-0.27673 -0.00877669 0)
(-0.265485 -0.0177761 0)
(-0.23943 -0.0274246 0)
(-0.199721 -0.0361091 0)
(-0.150459 -0.0420491 0)
(-0.0978435 -0.0436496 0)
(-0.0487429 -0.0390813 0)
(-0.0062856 -0.0236919 0)
(-0.010273 0.0097671 0)
(-0.0102272 0.0105054 0)
(-0.0372445 -0.0174984 0)
(-0.0144928 -0.0291179 0)
(0.0137075 -0.0251863 0)
(0.0334719 -0.0178902 0)
(0.0480896 -0.00955597 0)
(0.0568481 -0.00517771 0)
(0.0607252 -0.00363386 0)
(0.0621595 -0.00308409 0)
(0.0628081 -0.00276101 0)
(0.0631174 -0.00251041 0)
(0.0630558 -0.00224231 0)
(0.0624572 -0.00179792 0)
(0.0608643 -0.000838714 0)
(0.05726 0.00107554 0)
(0.0505366 0.00317322 0)
(0.0451235 0.00509123 0)
(-0.0141355 0.0219527 0)
(0.214276 0.181888 0)
(-0.162149 0.0709913 0)
(-0.16294 0.0577618 0)
(-0.198655 0.0457434 0)
(-0.224131 0.031989 0)
(-0.240108 0.0161773 0)
(-0.244612 -0.00240717 0)
(-0.235119 -0.0239627 0)
(-0.211873 -0.046165 0)
(-0.176494 -0.0649219 0)
(-0.133366 -0.0764231 0)
(-0.088139 -0.0781972 0)
(-0.0462724 -0.0687311 0)
(-0.0100417 -0.0460245 0)
(0.0193974 -0.0133899 0)
(0.0442293 0.0078446 0)
(0.0548388 0.0347558 0)
(-0.0118182 0.0706809 0)
(0.0670502 0.0439693 0)
(0.0103187 -0.0218345 0)
(0.0265321 -0.0379033 0)
(0.0407634 -0.0356483 0)
(0.0531535 -0.0273412 0)
(0.0595786 -0.0120914 0)
(0.061199 -0.00275142 0)
(0.0612479 0.000747384 0)
(0.061412 0.00202464 0)
(0.061737 0.00272347 0)
(0.0619621 0.00322333 0)
(0.0620194 0.00367661 0)
(0.0619153 0.00440923 0)
(0.0612037 0.00620807 0)
(0.0578058 0.0112287 0)
(0.0491121 0.0155406 0)
(0.047698 0.0187154 0)
(-0.058413 0.0475587 0)
(0.379539 0.272954 0)
(-0.180118 0.113731 0)
(-0.123511 0.0941083 0)
(-0.159196 0.0724344 0)
(-0.182598 0.049504 0)
(-0.198408 0.0236452 0)
(-0.204062 -0.00653049 0)
(-0.195375 -0.0409732 0)
(-0.173595 -0.0757731 0)
(-0.141432 -0.103641 0)
(-0.10385 -0.118947 0)
(-0.0659051 -0.119153 0)
(-0.0318333 -0.10412 0)
(-0.00228963 -0.0744037 0)
(0.022017 -0.0400797 0)
(0.037582 -0.0152249 0)
(0.0431651 0.0131562 0)
(-0.0236786 0.0623072 0)
(0.122496 -0.00756508 0)
(0.0725037 -0.0321105 0)
(0.0643058 -0.0419393 0)
(0.0672568 -0.0417625 0)
(0.0718682 -0.038047 0)
(0.0734933 -0.0282273 0)
(0.0643714 -0.0183276 0)
(0.0574172 -0.0130256 0)
(0.0548191 -0.0100775 0)
(0.0541286 -0.00818506 0)
(0.0538953 -0.0068967 0)
(0.0539665 -0.00590164 0)
(0.0547671 -0.00475212 0)
(0.0572201 -0.0013964 0)
(0.0561153 0.0149998 0)
(0.0445981 0.0258798 0)
(0.0541332 0.0332627 0)
(-0.0993581 0.0728074 0)
(0.530035 0.346651 0)
(-0.216672 0.151753 0)
(-0.0801986 0.125835 0)
(-0.115537 0.0962964 0)
(-0.133416 0.0672251 0)
(-0.146928 0.0337661 0)
(-0.152515 -0.00710566 0)
(-0.142621 -0.0550454 0)
(-0.121291 -0.102298 0)
(-0.0929833 -0.13783 0)
(-0.0625379 -0.155418 0)
(-0.0335794 -0.153423 0)
(-0.00880596 -0.133438 0)
(0.0128557 -0.0979259 0)
(0.0304199 -0.0589761 0)
(0.0443403 -0.0229007 0)
(0.059935 0.0131422 0)
(0.0587984 0.0534272 0)
(0.100308 0.0614986 0)
(0.0987898 -0.00245696 0)
(0.0851205 -0.0294023 0)
(0.0784375 -0.0376994 0)
(0.0735886 -0.0384007 0)
(0.066995 -0.0341129 0)
(0.0665772 -0.0208405 0)
(0.0772562 -0.0138314 0)
(0.0862219 -0.0101083 0)
(0.0916235 -0.00782524 0)
(0.0948653 -0.0059174 0)
(0.0962736 -0.00385617 0)
(0.0945067 -0.00119042 0)
(0.0882449 0.00248035 0)
(0.0757014 0.00774342 0)
(0.0597902 0.0251038 0)
(0.0440576 0.0405939 0)
(0.0629725 0.0533596 0)
(-0.131365 0.0942952 0)
(0.662689 0.403809 0)
(-0.262357 0.182675 0)
(-0.0350337 0.145255 0)
(-0.0687495 0.111318 0)
(-0.0779457 0.0792339 0)
(-0.0862927 0.0412528 0)
(-0.0890481 -0.00798124 0)
(-0.0740288 -0.0688041 0)
(-0.0534837 -0.125889 0)
(-0.0315811 -0.165061 0)
(-0.0112779 -0.181833 0)
(0.00615824 -0.175986 0)
(0.0193218 -0.151481 0)
(0.0303381 -0.114538 0)
(0.0401845 -0.0729572 0)
(0.0494236 -0.0337219 0)
(0.0619158 0.000673087 0)
(0.0760122 0.0197099 0)
(0.0902965 -0.000576113 0)
(0.0896497 -0.0213836 0)
(0.0825798 -0.0300444 0)
(0.0737723 -0.0325588 0)
(0.0655291 -0.0316376 0)
(0.0585875 -0.026639 0)
(0.0568097 -0.0155168 0)
(0.0603674 -0.00903114 0)
(0.0647127 -0.00637671 0)
(0.0684395 -0.00483408 0)
(0.0716853 -0.00275333 0)
(0.0741943 0.000778441 0)
(0.0750456 0.00596683 0)
(0.0731523 0.0129862 0)
(0.068243 0.0224383 0)
(0.0611961 0.0371808 0)
(0.0500458 0.0536366 0)
(0.0748523 0.0727595 0)
(-0.00684666 0.101399 0)
(0.0557819 0.150675 0)
(-0.0835271 0.0748326 0)
(-0.277796 0.0004816 0)
(0.761896 0.451324 0)
(-0.308554 0.203336 0)
(0.0024294 0.143884 0)
(-0.0205854 0.116258 0)
(-0.0197909 0.0857221 0)
(-0.0214997 0.0472974 0)
(-0.0143138 -0.00693086 0)
(0.010316 -0.0859147 0)
(0.0269257 -0.146179 0)
(0.0388281 -0.182411 0)
(0.0460484 -0.194544 0)
(0.0488967 -0.185046 0)
(0.0486319 -0.158118 0)
(0.0472259 -0.119915 0)
(0.0460485 -0.0779336 0)
(0.0464586 -0.0396993 0)
(0.0508024 -0.0099849 0)
(0.0599424 0.00482615 0)
(0.0662127 -0.00105435 0)
(0.0649554 -0.0110208 0)
(0.0585673 -0.018816 0)
(0.0503961 -0.0229219 0)
(0.0427599 -0.0236717 0)
(0.036787 -0.0211448 0)
(0.0342399 -0.0157798 0)
(0.0353937 -0.0123031 0)
(0.0383516 -0.0108714 0)
(0.0420111 -0.00978239 0)
(0.0460737 -0.00764491 0)
(0.0502583 -0.00338903 0)
(0.0544705 0.0036813 0)
(0.0569882 0.0131858 0)
(0.0581543 0.0249447 0)
(0.0592791 0.0395807 0)
(0.0583556 0.0560051 0)
(0.0797013 0.0767039 0)
(0.0654414 0.0889981 0)
(0.0997193 0.0967381 0)
(0.117478 0.0571991 0)
(-0.136901 -0.0299342 0)
(0.815619 0.494188 0)
(-0.334126 0.187369 0)
(0.032239 0.0937985 0)
(0.0390606 0.101053 0)
(0.0459294 0.0829995 0)
(0.0516227 0.0393716 0)
(0.0790973 -0.0311666 0)
(0.103111 -0.103695 0)
(0.113289 -0.157004 0)
(0.112866 -0.18632 0)
(0.104588 -0.192423 0)
(0.0907976 -0.178771 0)
(0.0741028 -0.149767 0)
(0.0575088 -0.111558 0)
(0.0429755 -0.0708994 0)
(0.032612 -0.0356792 0)
(0.0280852 -0.0107417 0)
(0.0294762 0.00100093 0)
(0.0311067 -0.000278575 0)
(0.0296028 -0.006573 0)
(0.0249495 -0.0126386 0)
(0.0188301 -0.0163811 0)
(0.0128068 -0.0177561 0)
(0.00800375 -0.0171184 0)
(0.00564657 -0.0152092 0)
(0.00599251 -0.0141144 0)
(0.00803482 -0.01398 0)
(0.0110354 -0.0137525 0)
(0.0148322 -0.0123698 0)
(0.0195112 -0.00874589 0)
(0.0256802 -0.00163918 0)
(0.0332911 0.00886789 0)
(0.0400576 0.0208909 0)
(0.0478665 0.0341622 0)
(0.0558659 0.0479634 0)
(0.0754437 0.0644627 0)
(0.0882268 0.0697787 0)
(0.119669 0.0632123 0)
(0.163391 0.0513037 0)
(-0.0203447 0.0954849 0)
(0.921875 0.497288 0)
(-0.0766835 0.167417 0)
(0.110606 0.0261595 0)
(0.163735 0.0227915 0)
(0.161397 0.015546 0)
(0.162864 -0.029362 0)
(0.196489 -0.0804074 0)
(0.211274 -0.125537 0)
(0.205365 -0.158269 0)
(0.185099 -0.173973 0)
(0.155595 -0.171668 0)
(0.121098 -0.153971 0)
(0.0853041 -0.124273 0)
(0.0523775 -0.0880692 0)
(0.0244678 -0.0510429 0)
(0.00511185 -0.0219005 0)
(-0.00464587 -0.00440441 0)
(-0.00657734 0.00177304 0)
(-0.00646106 0.00066647 0)
(-0.00766332 -0.00366598 0)
(-0.0109648 -0.0080208 0)
(-0.015463 -0.0110911 0)
(-0.0200947 -0.0128645 0)
(-0.0239559 -0.0137018 0)
(-0.0263353 -0.0141529 0)
(-0.0272249 -0.0149027 0)
(-0.0271876 -0.0158846 0)
(-0.0266053 -0.0165959 0)
(-0.0254775 -0.0165076 0)
(-0.0234979 -0.0150423 0)
(-0.0198722 -0.0114692 0)
(-0.0117195 -0.00491101 0)
(-0.000104676 0.00445929 0)
(0.0110768 0.0137628 0)
(0.0226805 0.0208688 0)
(0.0398929 0.027741 0)
(0.0554263 0.0224432 0)
(0.079569 0.00564848 0)
(0.146407 0.0479754 0)
(-0.428341 0.212664 0)
(1.06591 0.444168 0)
(0.518239 0.298303 0)
(0.529534 0.249859 0)
(0.518392 0.182905 0)
(0.469839 0.122438 0)
(0.433159 0.0601126 0)
(0.39205 -0.00742242 0)
(0.342848 -0.0669762 0)
(0.289092 -0.107855 0)
(0.232756 -0.126604 0)
(0.175375 -0.125094 0)
(0.118919 -0.108911 0)
(0.0654732 -0.0822848 0)
(0.0202512 -0.0512544 0)
(-0.0160953 -0.0208154 0)
(-0.0329505 -0.00603255 0)
(-0.0401344 0.000469682 0)
(-0.0416857 0.00222219 0)
(-0.0420642 0.00101264 0)
(-0.0432079 -0.00164042 0)
(-0.0458383 -0.00452471 0)
(-0.0494877 -0.00706259 0)
(-0.0535103 -0.00915587 0)
(-0.0573731 -0.010885 0)
(-0.0608196 -0.012386 0)
(-0.0640124 -0.0137646 0)
(-0.0673556 -0.0148599 0)
(-0.0712242 -0.0153134 0)
(-0.0759715 -0.0146403 0)
(-0.0820704 -0.0121876 0)
(-0.0902127 -0.00711809 0)
(-0.101122 0.00142685 0)
(-0.112756 0.0133221 0)
(-0.127987 0.0284149 0)
(-0.152909 0.0467854 0)
(-0.190233 0.0673937 0)
(-0.241634 0.0862239 0)
(-0.297565 0.0999142 0)
(-0.371649 0.106905 0)
(-0.650668 0.106296 0)
(0.233928 0.0528314 0)
(0.305892 0.115961 0)
(0.321219 0.0913645 0)
(0.299645 0.039575 0)
(0.275051 -0.0106042 0)
(0.244392 -0.0469389 0)
(0.203105 -0.0684091 0)
(0.154012 -0.0754099 0)
(0.100446 -0.0686968 0)
(0.0461757 -0.0529175 0)
(-0.00861855 -0.0295107 0)
(-0.0451312 -0.0114725 0)
(-0.063596 -0.00309409 0)
(-0.0709202 -0.000711918 0)
(-0.0731449 -0.000251624 0)
(-0.0734588 -0.000960427 0)
(-0.073761 -0.002567 0)
(-0.0749028 -0.00466662 0)
(-0.0771202 -0.0067623 0)
(-0.0803752 -0.0085537 0)
(-0.0841683 -0.010029 0)
(-0.0882744 -0.0111527 0)
(-0.0927044 -0.0119287 0)
(-0.0976116 -0.0123211 0)
(-0.103146 -0.0121426 0)
(-0.10934 -0.0110488 0)
(-0.116061 -0.00857011 0)
(-0.122964 -0.00416257 0)
(-0.129428 0.00273508 0)
(-0.134402 0.0123346 0)
(-0.13837 0.0256167 0)
(-0.141806 0.0431796 0)
(-0.146017 0.0642235 0)
(-0.15177 0.0850531 0)
(-0.155356 0.095549 0)
(-0.141299 0.0734017 0)
(-0.110237 -0.0250098 0)
(-0.286612 -0.213743 0)
(0.120031 0.324334 0)
(0.00839116 0.20359 0)
(0.0392647 0.118446 0)
(0.0584782 0.0604309 0)
(0.0631258 0.0216202 0)
(0.0601113 -0.00478895 0)
(0.0401989 -0.0199103 0)
(0.00542449 -0.0189505 0)
(-0.0365917 -0.00172707 0)
(-0.070111 0.0128689 0)
(-0.0912254 0.0208748 0)
(-0.100236 0.0232645 0)
(-0.102446 0.0233926 0)
(-0.102378 0.0234379 0)
(-0.101497 0.0241364 0)
(-0.100464 0.0252504 0)
(-0.0997451 0.0263855 0)
(-0.0996237 0.027133 0)
(-0.100153 0.0270665 0)
(-0.101296 0.0258528 0)
(-0.10309 0.0238302 0)
(-0.105466 0.0215971 0)
(-0.108361 0.0194263 0)
(-0.111685 0.0174663 0)
(-0.115297 0.0158226 0)
(-0.118985 0.0146065 0)
(-0.122437 0.0139558 0)
(-0.12517 0.0140282 0)
(-0.126369 0.0155199 0)
(-0.124862 0.0198886 0)
(-0.119074 0.0282956 0)
(-0.107617 0.0417407 0)
(-0.0903497 0.0602419 0)
(-0.0683149 0.0804263 0)
(-0.0434439 0.0948381 0)
(-0.00757962 0.085776 0)
(0.14694 0.00930283 0)
(-0.209929 -0.129685 0)
(-0.422116 -0.516027 0)
(-0.637316 -0.143276 0)
(-0.449397 0.177757 0)
(-0.357935 0.0560774 0)
(-0.213901 -0.00554063 0)
(-0.145616 -0.0477884 0)
(-0.117174 -0.0705334 0)
(-0.112995 -0.0713525 0)
(-0.122353 -0.0626763 0)
(-0.134867 -0.0549646 0)
(-0.140351 -0.0504932 0)
(-0.138594 -0.049046 0)
(-0.13413 -0.0499173 0)
(-0.128937 -0.0527223 0)
(-0.124456 -0.0562357 0)
(-0.120993 -0.0598719 0)
(-0.118178 -0.0635073 0)
(-0.115753 -0.0671853 0)
(-0.113671 -0.07076 0)
(-0.112008 -0.0737621 0)
(-0.110906 -0.0755592 0)
(-0.110533 -0.0757192 0)
(-0.110984 -0.0743369 0)
(-0.112211 -0.0719952 0)
(-0.114038 -0.0689244 0)
(-0.116239 -0.0652822 0)
(-0.118533 -0.0610933 0)
(-0.120555 -0.0562834 0)
(-0.121824 -0.0506368 0)
(-0.121705 -0.0438064 0)
(-0.119183 -0.0358179 0)
(-0.112351 -0.0266924 0)
(-0.0984042 -0.015885 0)
(-0.0748428 -0.00248783 0)
(-0.0415492 0.0143633 0)
(0.00931899 0.0362845 0)
(0.0618681 0.0423463 0)
(0.1096 0.0240432 0)
(0.172059 -0.0159441 0)
(-0.19629 -0.0826858 0)
)
;

boundaryField
{
    floor
    {
        type            noSlip;
    }
    ceiling
    {
        type            noSlip;
    }
    sWall
    {
        type            noSlip;
    }
    nWall
    {
        type            noSlip;
    }
    sideWalls
    {
        type            empty;
    }
    glass1
    {
        type            noSlip;
    }
    glass2
    {
        type            noSlip;
    }
    sun
    {
        type            noSlip;
    }
    Table_master
    {
        type            noSlip;
    }
    Table_slave
    {
        type            noSlip;
    }
    inlet
    {
        type            fixedValue;
        value           uniform (0.46194 -0.191342 0);
    }
    outlet
    {
        type            zeroGradient;
    }
}


// ************************************************************************* //
