/*--------------------------------*- C++ -*----------------------------------*\
  =========                 |
  \\      /  F ield         | OpenFOAM: The Open Source CFD Toolbox
   \\    /   O peration     | Website:  https://openfoam.org
    \\  /    A nd           | Version:  6
     \\/     M anipulation  |
\*---------------------------------------------------------------------------*/
FoamFile
{
    version     2.0;
    format      ascii;
    class       volScalarField;
    location    "31899.9999978275409";
    object      nut;
}
// * * * * * * * * * * * * * * * * * * * * * * * * * * * * * * * * * * * * * //

dimensions      [0 2 -1 0 0 0 0];

internalField   nonuniform List<scalar> 
778
(
0.000894313
0.000953081
0.000949623
0.000990848
0.00102863
0.00106294
0.00109487
0.00112565
0.00115663
0.00118955
0.00122093
0.00125072
0.00128006
0.00131162
0.00134456
0.000632239
0.000905231
0.000912468
0.000890321
0.000853343
0.000804005
0.000754874
0.000709615
0.000668795
0.000632178
0.00059954
0.000570223
0.000543517
0.000518594
0.000494341
0.000468983
0.000447941
0.000405494
0.00131078
0.0025812
0.00226507
0.00261441
0.00286798
0.00313682
0.00340499
0.0036521
0.00385093
0.00396659
0.0040345
0.00400625
0.00380619
0.00331104
0.00241807
0.00147203
0.00140345
0.00134343
0.00113129
0.00192668
0.00267001
0.00310871
0.00312894
0.00246969
0.00211215
0.00186427
0.00167623
0.00152676
0.00139929
0.00128654
0.0011816
0.00107893
0.000986786
0.000907331
0.00102233
0.000514094
0.00166404
0.00360451
0.00267234
0.00382229
0.0042711
0.004651
0.00499604
0.00529965
0.00555675
0.00575815
0.0059532
0.00615824
0.0063464
0.00645802
0.00638292
0.00584413
0.00427449
0.00164795
0.00142701
0.0030529
0.00426027
0.00483094
0.00439317
0.00115915
0.00100784
0.000891128
0.000799845
0.000727231
0.000668639
0.000620854
0.000581983
0.000551673
0.000606557
0.000713597
0.00113066
0.000584887
0.00200526
0.0048586
0.00255741
0.00429815
0.00496261
0.00531837
0.00558004
0.00577364
0.00591807
0.00603496
0.00620107
0.00648153
0.00689063
0.00740504
0.00792232
0.00817733
0.00767956
0.00573282
0.00164129
0.00379846
0.00565396
0.00659722
0.00682977
0.00583046
0.00132008
0.00120064
0.00110817
0.00103127
0.000965748
0.00090693
0.000851492
0.000796435
0.000736959
0.00068854
0.000713935
0.00122482
0.000643962
0.00234201
0.00643342
0.00258043
0.00408638
0.00510795
0.00541143
0.00552187
0.00552649
0.00547189
0.00542339
0.00549288
0.00576532
0.00626512
0.00697292
0.00779413
0.00855112
0.00903145
0.00902579
0.00810027
0.00824216
0.00843241
0.00845986
0.00828808
0.00775744
0.00617333
0.00533223
0.00475611
0.0042881
0.00382904
0.00338437
0.00294935
0.002515
0.00206897
0.00158911
0.00121241
0.00121229
0.000959019
0.000768297
0.00102309
0.000976381
0.00267365
0.00819679
0.00303821
0.00344628
0.00489457
0.00523123
0.00520473
0.00501776
0.00475024
0.00452956
0.00452464
0.00481015
0.00537961
0.00620015
0.0071607
0.00812114
0.00893842
0.00946123
0.00955693
0.00946187
0.00929507
0.00905775
0.008752
0.00836247
0.0077939
0.00724611
0.00674877
0.00626798
0.00574878
0.00519443
0.00460249
0.00396802
0.00328709
0.00256462
0.00191005
0.00143407
0.00111373
0.00125682
0.00219668
0.00116562
0.00301223
0.00982835
0.0040493
0.00282356
0.00439836
0.00494862
0.0048878
0.00458485
0.00414527
0.00375873
0.00374789
0.00410868
0.00476062
0.00567791
0.00672135
0.00775485
0.0086448
0.00928279
0.0095769
0.00955524
0.00934648
0.00902945
0.00866589
0.00830285
0.00795152
0.00762905
0.00732604
0.00700247
0.0066115
0.00614101
0.00558423
0.00493867
0.00420689
0.0034072
0.00262451
0.001895
0.00139528
0.00125237
0.0022396
0.00137813
0.0033036
0.0110652
0.00552211
0.00268874
0.00348461
0.00438767
0.0045135
0.0042643
0.00374517
0.00321902
0.00333881
0.00381625
0.00454567
0.00549096
0.00657495
0.00765661
0.00857943
0.00922097
0.00951291
0.00947581
0.00920593
0.00880714
0.00837775
0.00799665
0.00770274
0.00749272
0.00732883
0.00715043
0.00690187
0.00655405
0.00609353
0.00551781
0.00483251
0.00405745
0.00324975
0.00243083
0.00169197
0.00114564
0.00327518
0.0018231
0.00339332
0.0104827
0.00683789
0.00347758
0.00236194
0.00289548
0.00338923
0.00343076
0.00302966
0.00294479
0.00325094
0.00381249
0.00460167
0.00560486
0.00674147
0.00785637
0.00877524
0.00936628
0.00957392
0.00943144
0.0090396
0.00852532
0.00801473
0.00760711
0.00734831
0.00722138
0.0071639
0.00709542
0.00695238
0.00670095
0.00632791
0.00583207
0.00521987
0.00450696
0.00372208
0.00283632
0.00161707
0.00148074
0.00515882
0.00207321
0.00332457
0.00845682
0.00706648
0.0047763
0.00315262
0.00244031
0.0023117
0.0024212
0.00262476
0.00294898
0.0034089
0.00404118
0.00490032
0.00598315
0.0071825
0.00831308
0.00918283
0.00966051
0.00970901
0.00938628
0.00881947
0.00816727
0.00758478
0.00718536
0.00700231
0.00698133
0.00702154
0.0070211
0.00692854
0.00672499
0.00640433
0.00596647
0.00541485
0.00475325
0.00396342
0.00283135
0.001216
0.00280686
0.00480081
0.00210287
0.00311422
0.00723048
0.00683518
0.00546839
0.00420639
0.00338509
0.00297909
0.00288737
0.00305565
0.00336541
0.00381517
0.00448302
0.00543305
0.00662185
0.00788323
0.00898932
0.0097366
0.0100111
0.00981101
0.00923577
0.00845694
0.00767729
0.007084
0.00678574
0.00675177
0.00685101
0.00695097
0.00695283
0.00685513
0.00665819
0.00635855
0.00595215
0.005432
0.00477553
0.00389814
0.00258404
0.00132568
0.00296784
0.00525748
0.00212116
0.00283589
0.00652137
0.00659594
0.00579107
0.00492439
0.00427241
0.00388861
0.00375104
0.00378552
0.0039723
0.004385
0.00513177
0.00623188
0.00755045
0.00883914
0.00983229
0.0103376
0.0102862
0.00973674
0.00885016
0.00786449
0.0070398
0.00657063
0.00647724
0.00656282
0.00669631
0.00678267
0.00675767
0.00664352
0.00644384
0.00615303
0.00575635
0.00521899
0.00446471
0.00335475
0.00205523
0.00155774
0.00319086
0.00541482
0.00224322
0.00258649
0.00583663
0.00630141
0.00591928
0.00536212
0.00489453
0.00458361
0.00443156
0.00438577
0.00454409
0.00506778
0.00604494
0.00737837
0.00880729
0.0100113
0.0107252
0.0108142
0.0102924
0.00930988
0.00811048
0.00702581
0.00632639
0.00601887
0.00598909
0.00609064
0.0062172
0.00629124
0.00626378
0.00614492
0.00593993
0.00563934
0.00520903
0.00455425
0.00352
0.0022426
0.00159146
0.00194734
0.00370322
0.00551392
0.00228687
0.00259506
0.00579413
0.00643957
0.00599237
0.00554102
0.00517158
0.00490509
0.0047318
0.00472212
0.00510678
0.00603195
0.00741888
0.00898519
0.0103657
0.0112381
0.0114155
0.0108838
0.00977353
0.00836775
0.0070039
0.00601093
0.00542696
0.00516496
0.0051241
0.00520456
0.00531241
0.00537244
0.00533972
0.00520336
0.00497523
0.00464098
0.00413933
0.00333992
0.00227879
0.00159474
0.00172091
0.00248828
0.0038888
0.00525229
0.00214384
0.00234217
0.00243615
0.00359172
0.00421823
0.00441113
0.00441309
0.00436927
0.00444752
0.00498228
0.00613063
0.00775413
0.00951222
0.0110177
0.0119443
0.0121007
0.0114547
0.0101696
0.00849842
0.00690322
0.00565127
0.00481505
0.00434824
0.004153
0.00411592
0.00414699
0.00417667
0.00415411
0.00405603
0.00386341
0.00360524
0.00328629
0.00288125
0.00234921
0.0018048
0.00162469
0.00202008
0.00286784
0.00388246
0.00442592
0.00202033
0.000806374
0.00146221
0.0022566
0.00289755
0.00363936
0.00489176
0.00673808
0.0087964
0.0106806
0.0120968
0.0128385
0.0127677
0.0118871
0.0102978
0.00841018
0.00662659
0.00521517
0.00428041
0.00378016
0.00355139
0.00345266
0.00340176
0.00335044
0.00326678
0.00313591
0.00296456
0.00277579
0.00258802
0.00241862
0.00226176
0.00210159
0.00195604
0.00196009
0.00232725
0.00311112
0.00411066
0.00503183
0.00200891
0.00149736
0.00207497
0.00302902
0.00473412
0.00705004
0.00937853
0.0111903
0.0125105
0.0133236
0.0135659
0.0131261
0.0118922
0.0100563
0.00797829
0.00607474
0.00465994
0.00384267
0.00346451
0.00330864
0.00324411
0.00320886
0.00317045
0.00311054
0.0030234
0.0029174
0.00281064
0.00272006
0.00265265
0.00260798
0.00257972
0.00256539
0.00258025
0.00267564
0.00296423
0.00361634
0.00484381
0.00555057
0.00218729
0.0027571
0.00668123
0.00614011
0.00547935
0.00696494
0.00929765
0.0112738
0.0126187
0.0133426
0.0135402
0.0132937
0.0125509
0.011255
0.00944129
0.00737196
0.0055147
0.00427851
0.00366929
0.00343211
0.00336187
0.00335819
0.00337335
0.00338124
0.00336838
0.00333282
0.00328246
0.00322997
0.00318659
0.00315878
0.00314924
0.00315953
0.00319545
0.00326872
0.0033949
0.0036131
0.00399766
0.00469061
0.00620638
0.00631955
0.00226904
0.00263862
0.00509715
0.00656751
0.0083933
0.00932509
0.0102927
0.0108622
0.0110084
0.0108101
0.010322
0.00955974
0.00851858
0.00722752
0.00583512
0.00459569
0.00375485
0.00331019
0.00312321
0.00307905
0.00311168
0.00318063
0.00325681
0.00331971
0.00335888
0.00337431
0.00337327
0.00336469
0.00335503
0.00334882
0.00335321
0.00338282
0.00346056
0.00361408
0.00386545
0.00423814
0.00472899
0.00539691
0.00655308
0.00668813
0.0023402
0.00247391
0.0021204
0.00211033
0.0021727
0.00222483
0.00216131
0.00203564
0.00188843
0.00174007
0.00159713
0.00146019
0.00133072
0.00121598
0.00112868
0.00107915
0.00105844
0.00105643
0.0010649
0.00107856
0.00109432
0.00111038
0.00112587
0.0011406
0.00115502
0.00117008
0.00118709
0.00120769
0.00123394
0.00126853
0.00131481
0.00137608
0.00145424
0.00154837
0.00165517
0.00177159
0.00189832
0.00203117
0.00217038
0.00230626
0.00217223
)
;

boundaryField
{
    floor
    {
        type            nutkWallFunction;
        Cmu             0.09;
        kappa           0.41;
        E               9.8;
        value           nonuniform List<scalar> 
36
(
0.000160541
7.63662e-05
0.000109505
0.000110366
0.000107729
0.000103309
9.73776e-05
9.14279e-05
8.59062e-05
8.089e-05
7.63588e-05
7.22933e-05
6.86184e-05
6.52507e-05
6.20892e-05
5.89947e-05
5.5739e-05
5.30205e-05
4.74865e-05
4.74865e-05
6.1516e-05
7.04587e-05
7.78193e-05
9.3057e-05
0.000123434
0.000117932
0.000160541
0.000174968
0.000167224
0.000160412
7.63662e-05
0.000160412
0.000136049
0.000194654
0.000169887
0.000193914
)
;
    }
    ceiling
    {
        type            nutkWallFunction;
        Cmu             0.09;
        kappa           0.41;
        E               9.8;
        value           nonuniform List<scalar> 
43
(
0.000284344
0.000246404
0.000245316
0.000252063
0.000257691
0.000250858
0.000237255
0.000221199
0.000204877
0.00018901
0.000173662
0.000159004
0.000145876
0.000135785
0.000130009
0.000127581
0.000127339
0.000128325
0.000129921
0.000131763
0.00013364
0.000135446
0.000137162
0.000138837
0.000140578
0.000142538
0.0001449
0.000147896
0.000151827
0.000157064
0.000163975
0.000172764
0.000183317
0.000195241
0.000208167
0.000222127
0.000236686
0.00025184
0.00026654
0.00025205
0.000270474
0.000280517
0.00017761
)
;
    }
    sWall
    {
        type            nutkWallFunction;
        Cmu             0.09;
        kappa           0.41;
        E               9.8;
        value           nonuniform List<scalar> 9(0.000373881 0.000352059 0.000322952 0.00029662 0.000297524 0.000270564 0.00031435 0.000301876 0.000284445);
    }
    nWall
    {
        type            nutkWallFunction;
        Cmu             0.09;
        kappa           0.41;
        E               9.8;
        value           nonuniform List<scalar> 
14
(
0.000117939
0.000140033
0.000164373
0.00024462
0.000246659
0.000259875
0.000264297
0.000248789
0.000235421
0.000234524
0.000253751
0.000262509
0.000270119
0.000252088
)
;
    }
    sideWalls
    {
        type            empty;
    }
    glass1
    {
        type            nutkWallFunction;
        Cmu             0.09;
        kappa           0.41;
        E               9.8;
        value           nonuniform List<scalar> 9(0.000108248 0.000156883 0.000196737 0.00023435 0.000270794 0.000306145 0.000341763 0.000372085 0.000381376);
    }
    glass2
    {
        type            nutkWallFunction;
        Cmu             0.09;
        kappa           0.41;
        E               9.8;
        value           nonuniform List<scalar> 2(0.000214198 0.000241495);
    }
    sun
    {
        type            nutkWallFunction;
        Cmu             0.09;
        kappa           0.41;
        E               9.8;
        value           nonuniform List<scalar> 
14
(
0.000108207
0.000115183
0.000114774
0.00011964
0.000124079
0.000128095
0.000131819
0.000135397
0.000138987
0.00014279
0.000146403
0.000149824
0.000153185
0.000156789
)
;
    }
    Table_master
    {
        type            nutkWallFunction;
        Cmu             0.09;
        kappa           0.41;
        E               9.8;
        value           nonuniform List<scalar> 9(0.000139267 0.000121631 0.000107822 9.68747e-05 8.80617e-05 8.08743e-05 7.49567e-05 7.01024e-05 6.62898e-05);
    }
    Table_slave
    {
        type            nutkWallFunction;
        Cmu             0.09;
        kappa           0.41;
        E               9.8;
        value           nonuniform List<scalar> 9(0.000157742 0.000144056 0.000133357 0.000124381 0.000116674 0.000109704 0.000103086 9.64631e-05 8.92481e-05);
    }
    inlet
    {
        type            calculated;
        value           uniform 0.000167705;
    }
    outlet
    {
        type            calculated;
        value           nonuniform List<scalar> 2(0.0027571 0.00668123);
    }
}


// ************************************************************************* //
