/*--------------------------------*- C++ -*----------------------------------*\
  =========                 |
  \\      /  F ield         | OpenFOAM: The Open Source CFD Toolbox
   \\    /   O peration     | Website:  https://openfoam.org
    \\  /    A nd           | Version:  6
     \\/     M anipulation  |
\*---------------------------------------------------------------------------*/
FoamFile
{
    version     2.0;
    format      ascii;
    class       volScalarField;
    location    "660";
    object      alphat;
}
// * * * * * * * * * * * * * * * * * * * * * * * * * * * * * * * * * * * * * //

dimensions      [1 -1 -1 0 0 0 0];

internalField   nonuniform List<scalar> 
458
(
0.00124498
0.00135628
0.00138707
0.00145348
0.00151465
0.00157258
0.00163054
0.00168937
0.00173746
0.00176767
0.00177105
0.00173881
0.00165985
0.00149246
0.00113271
0.000559461
0.000655859
0.000743701
0.000775592
0.000763497
0.000714404
0.000660104
0.000611531
0.000569472
0.000532941
0.000501047
0.000473147
0.00044841
0.000425884
0.00040452
0.000383066
0.000370269
0.000340246
0.00167727
0.00377823
0.00348533
0.00399343
0.00450033
0.00502168
0.00548937
0.00585141
0.00622334
0.00657153
0.00685082
0.0070203
0.00703556
0.00678939
0.0055159
0.00149543
0.00124072
0.0010121
0.000554814
0.00131726
0.00192022
0.00238702
0.0025346
0.00184682
0.0015588
0.00136281
0.00121811
0.00110732
0.00101941
0.000943743
0.000872673
0.000801684
0.000738197
0.000684966
0.000837405
0.000447031
0.00203773
0.00507808
0.00419215
0.00510981
0.0054962
0.00576768
0.00597648
0.00616964
0.0064384
0.00676512
0.00712209
0.00747157
0.00774651
0.00784109
0.00738695
0.00602086
0.00456206
0.00119584
0.000853996
0.00147408
0.00214591
0.00281443
0.00300563
0.000960357
0.000840716
0.000741167
0.000660534
0.000595455
0.000542719
0.000499849
0.00046518
0.000438215
0.00048554
0.000562265
0.000982766
0.000528209
0.00238448
0.00648455
0.00407878
0.00529357
0.00550497
0.00548427
0.00546536
0.00555844
0.00577745
0.00610127
0.0065125
0.00697051
0.00736986
0.00761898
0.00756077
0.00716941
0.00615298
0.00337806
0.00137738
0.00175199
0.00240813
0.00321277
0.00391101
0.00394633
0.00108188
0.00099161
0.000930074
0.000884627
0.000846194
0.000808032
0.000771803
0.000733527
0.0006888
0.000648777
0.000639306
0.00117178
0.000608357
0.00273849
0.00837586
0.00427856
0.00502537
0.00532721
0.00514731
0.00500127
0.00508565
0.00531679
0.00565405
0.00609796
0.00660053
0.00699127
0.00718438
0.00717796
0.00704028
0.00663413
0.00548573
0.00496865
0.00500451
0.00529624
0.00564417
0.00585812
0.0057626
0.00491684
0.00448138
0.00424116
0.00406912
0.00389517
0.00367087
0.00329003
0.00279981
0.00224241
0.00170567
0.00127944
0.00119192
0.00103412
0.000813113
0.000860625
0.000935475
0.00311728
0.0105051
0.00585817
0.0046544
0.00507118
0.00506151
0.0048739
0.00494457
0.00517995
0.00551773
0.00596853
0.00645026
0.00681224
0.00692596
0.00681435
0.00665657
0.00658547
0.00649006
0.00668325
0.0070212
0.00725898
0.00730222
0.00714344
0.00680985
0.00634304
0.00596338
0.00566759
0.00540687
0.00515064
0.00487841
0.00452666
0.00404491
0.00343608
0.00274809
0.00211172
0.00153134
0.00125817
0.00109709
0.00138122
0.000970405
0.00348979
0.0121091
0.00873413
0.00572124
0.00498041
0.00505259
0.00511459
0.00515008
0.00528382
0.00558267
0.00602709
0.00650492
0.0068364
0.0068705
0.00665982
0.00650872
0.00675834
0.00731052
0.0078726
0.00819078
0.00819258
0.00792161
0.00746162
0.00690107
0.00634179
0.00589078
0.00554853
0.00527065
0.00502733
0.00480874
0.00460999
0.00435049
0.00392475
0.00335645
0.00276639
0.00219961
0.00182953
0.00167563
0.00159697
0.0011532
0.00357931
0.011218
0.00953192
0.00800602
0.00683915
0.00632307
0.00583276
0.00550186
0.00549911
0.00578616
0.00624675
0.00671871
0.0069964
0.00692823
0.00667067
0.00673587
0.00744851
0.00803193
0.00833658
0.00832405
0.00799546
0.00742571
0.00672361
0.00601427
0.00542338
0.00500795
0.0047271
0.00452507
0.00437528
0.00427409
0.00422867
0.00423002
0.00411687
0.00377948
0.00345043
0.00326672
0.00334585
0.00353143
0.00419399
0.00178508
0.00350506
0.00423047
0.00467539
0.00492496
0.00496262
0.0048896
0.00489458
0.00510559
0.0055297
0.0060689
0.00661827
0.00704717
0.00717989
0.00692782
0.00686043
0.00722181
0.007639
0.007782
0.00767912
0.00731811
0.00671156
0.00596101
0.00521001
0.00459206
0.00416336
0.00388974
0.00370608
0.0035666
0.00344777
0.00333635
0.00322229
0.00309728
0.00298403
0.00288602
0.00282085
0.00278385
0.00271402
0.00257092
0.00239726
0.00166658
0.00157835
0.0027586
0.00377605
0.00457511
0.00530848
0.00602308
0.00659032
0.00697176
0.00721599
0.0072431
0.0069982
0.00670346
0.00670601
0.00682803
0.00673787
0.00646796
0.0060412
0.005466
0.00480415
0.00415588
0.00363854
0.00328958
0.00307545
0.00294409
0.00285706
0.00279375
0.00274526
0.00270948
0.00268936
0.00269556
0.00271122
0.00272516
0.00272571
0.00268235
0.00254919
0.00231488
0.00202469
0.0013411
0.00238091
0.00465828
0.00596296
0.00680999
0.00746854
0.00751976
0.00713072
0.00674047
0.00639042
0.00574076
0.00528417
0.00517848
0.00510904
0.00491073
0.00460997
0.00423596
0.00379694
0.00333467
0.00291789
0.00259452
0.00237103
0.00224221
0.00218198
0.00216912
0.00219056
0.00223799
0.00230431
0.00238098
0.00247066
0.00257345
0.00268337
0.00279127
0.00287899
0.00292272
0.00288163
0.0028458
0.00262085
0.00135861
0.00249188
0.00255387
0.00260987
0.0028938
0.00272937
0.00241432
0.00203454
0.00173079
0.00154422
0.00136687
0.00121055
0.00108827
0.000984517
0.00090618
0.000851859
0.000812189
0.00078027
0.000752808
0.000730144
0.000714865
0.000709177
0.000713451
0.000726207
0.000744924
0.000768552
0.000796538
0.000828721
0.000865291
0.000906858
0.000954709
0.00100915
0.00106977
0.00113688
0.00121081
0.00129158
0.00138837
0.00143062
0.00140124
0.00130334
0.00120526
)
;

boundaryField
{
    floor
    {
        type            compressible::alphatWallFunction;
        Prt             0.85;
        value           nonuniform List<scalar> 
36
(
0.000160812
7.82547e-05
9.26638e-05
0.00010557
0.00011021
0.000108453
0.000101288
9.32931e-05
8.60733e-05
7.97648e-05
7.42389e-05
6.93757e-05
6.50895e-05
6.12627e-05
5.77546e-05
5.44054e-05
5.10193e-05
4.89881e-05
4.41863e-05
4.41857e-05
6.10493e-05
7.35208e-05
8.56009e-05
0.000115648
0.000122485
0.00013316
0.00016081
0.000210337
0.000175725
0.000143964
7.82538e-05
0.000143962
7.75521e-05
0.000169546
0.000121519
0.000194387
)
;
    }
    ceiling
    {
        type            compressible::alphatWallFunction;
        Prt             0.85;
        value           nonuniform List<scalar> 
43
(
0.000340309
0.000348185
0.000355283
0.000391107
0.000370488
0.000330565
0.000281673
0.000241853
0.000217018
0.000193095
0.000171714
0.000154769
0.000140218
0.000129112
0.000121345
0.000115636
0.000111018
0.000107027
0.00010372
0.000101484
0.00010065
0.000101277
0.000103145
0.000105879
0.000109318
0.000113375
0.00011802
0.000123273
0.000129211
0.000136007
0.000143691
0.000152191
0.000161537
0.000171757
0.000182845
0.000196027
0.000201749
0.000197774
0.000184454
0.000170998
0.000467154
0.000555344
0.000326062
)
;
    }
    sWall
    {
        type            compressible::alphatWallFunction;
        Prt             0.85;
        value           uniform 0.000339067;
    }
    nWall
    {
        type            compressible::alphatWallFunction;
        Prt             0.85;
        value           nonuniform List<scalar> 6(0.000132942 0.000137883 0.000163439 0.000189263 0.000191643 0.000170657);
    }
    sideWalls
    {
        type            empty;
    }
    glass1
    {
        type            compressible::alphatWallFunction;
        Prt             0.85;
        value           nonuniform List<scalar> 9(0.000171776 0.000229274 0.000276092 0.000320377 0.000364953 0.000412032 0.000457793 0.000468852 0.000460031);
    }
    glass2
    {
        type            compressible::alphatWallFunction;
        Prt             0.85;
        value           nonuniform List<scalar> 2(0.000247064 0.000231526);
    }
    sun
    {
        type            compressible::alphatWallFunction;
        Prt             0.85;
        value           nonuniform List<scalar> 
14
(
0.000176328
0.00019152
0.000195701
0.000204686
0.000212921
0.000220685
0.000228422
0.000236244
0.000242616
0.000246608
0.000247054
0.000242793
0.000232321
0.000209936
)
;
    }
    Table_master
    {
        type            compressible::alphatWallFunction;
        Prt             0.85;
        value           nonuniform List<scalar> 9(0.00013682 0.000119759 0.000105343 9.34953e-05 8.38041e-05 7.58551e-05 6.93222e-05 6.39873e-05 5.98032e-05);
    }
    Table_slave
    {
        type            compressible::alphatWallFunction;
        Prt             0.85;
        value           nonuniform List<scalar> 9(0.000153899 0.000141238 0.00013253 0.000126055 0.000120549 0.000115053 0.000109806 0.00010423 9.76699e-05);
    }
    inlet
    {
        type            fixedValue;
        value           uniform 1.94e-05;
    }
    outlet
    {
        type            zeroGradient;
    }
}


// ************************************************************************* //
