/*--------------------------------*- C++ -*----------------------------------*\
  =========                 |
  \\      /  F ield         | OpenFOAM: The Open Source CFD Toolbox
   \\    /   O peration     | Website:  https://openfoam.org
    \\  /    A nd           | Version:  6
     \\/     M anipulation  |
\*---------------------------------------------------------------------------*/
FoamFile
{
    version     2.0;
    format      ascii;
    class       volScalarField;
    location    "45500.0000002824454";
    object      alphat;
}
// * * * * * * * * * * * * * * * * * * * * * * * * * * * * * * * * * * * * * //

dimensions      [1 -1 -1 0 0 0 0];

internalField   nonuniform List<scalar> 
778
(
0.00104096
0.00111051
0.00110653
0.00115458
0.00119862
0.00123864
0.0012759
0.00131182
0.00134799
0.00138643
0.0014231
0.00145792
0.00149222
0.0015291
0.00156757
0.000736973
0.00105529
0.00106388
0.00103816
0.000995116
0.000937605
0.00088027
0.000827422
0.000779763
0.000737032
0.000698967
0.000664783
0.000633647
0.000604587
0.000576305
0.000546732
0.000522174
0.000472627
0.00152463
0.00300709
0.00263917
0.00304613
0.00334141
0.00365451
0.0039669
0.00425488
0.00448679
0.0046219
0.00470137
0.00466884
0.00443606
0.00385925
0.00281868
0.00171634
0.00163647
0.00156644
0.00131828
0.00224586
0.00311285
0.00362493
0.00364886
0.00288005
0.00246302
0.00217414
0.00195496
0.0017806
0.00163176
0.00150018
0.00137777
0.00125801
0.00115053
0.00105784
0.00119148
0.000599135
0.00193408
0.00419839
0.00311342
0.00445307
0.00497554
0.00541773
0.00581942
0.00617309
0.00647285
0.006708
0.00693585
0.00717558
0.00739579
0.00752667
0.00743937
0.00681093
0.00498104
0.00192133
0.00166366
0.00355965
0.00496681
0.00563188
0.00512085
0.00135136
0.00117508
0.00103914
0.000932778
0.00084813
0.000779792
0.000724036
0.000678673
0.000643299
0.000707339
0.000832036
0.00131746
0.000681495
0.002329
0.00565768
0.00297911
0.00500698
0.00578032
0.00619403
0.00649825
0.0067234
0.00689162
0.0070282
0.00722235
0.00755021
0.00802841
0.00862947
0.00923345
0.0095305
0.00894791
0.00667228
0.00191391
0.00443666
0.0065978
0.00769384
0.00796302
0.00679659
0.00153905
0.00139978
0.00129203
0.00120247
0.00112615
0.00105761
0.000992975
0.000928772
0.000859419
0.00080307
0.000832529
0.00142653
0.000750161
0.00271823
0.00748936
0.00300529
0.00475989
0.00594883
0.00630135
0.00642915
0.00643392
0.00637007
0.00631382
0.00639537
0.00671396
0.00729816
0.00812522
0.00908459
0.00996861
0.0105303
0.0105252
0.00944755
0.00961482
0.00983522
0.00986515
0.00966347
0.00904387
0.00719622
0.00621579
0.00554446
0.00499839
0.00446354
0.00394571
0.00343911
0.00293307
0.00241305
0.00185352
0.00141437
0.00141307
0.00111754
0.000894517
0.00118394
0.00112941
0.00310113
0.00953922
0.00353751
0.00401399
0.00569971
0.00609068
0.00605891
0.00584053
0.00552868
0.00527168
0.00526626
0.00559973
0.00626493
0.00722337
0.00834591
0.00946768
0.010424
0.0110356
0.011148
0.0110368
0.0108408
0.0105623
0.0102044
0.00974947
0.00908613
0.00844751
0.00786794
0.00730709
0.00670223
0.00605669
0.00536728
0.00462796
0.00383405
0.00299172
0.00222913
0.00167369
0.00129873
0.00146375
0.00254874
0.00134952
0.00349184
0.0114344
0.00471338
0.00328828
0.00512152
0.00576107
0.00568937
0.00533605
0.00482394
0.00437357
0.0043606
0.00478105
0.00554172
0.00661207
0.00783177
0.00903997
0.0100809
0.0108273
0.0111713
0.0111455
0.0109005
0.010529
0.0101037
0.00967962
0.00926961
0.0088936
0.00854055
0.00816326
0.00770808
0.00716047
0.00651213
0.00575989
0.00490685
0.0039751
0.00306452
0.00221455
0.00162993
0.00146259
0.00258736
0.00159303
0.00382757
0.0128675
0.00642546
0.00313027
0.00405763
0.00510776
0.00525321
0.00496245
0.00435819
0.0037446
0.00388343
0.00443907
0.00528906
0.00639176
0.00765767
0.00892227
0.0100022
0.0107535
0.0110955
0.0110518
0.0107355
0.0102687
0.00976665
0.00932156
0.0089785
0.00873349
0.00854253
0.00833467
0.00804573
0.00764136
0.00710546
0.00643484
0.00563638
0.00473461
0.00379778
0.00284741
0.0019922
0.00132332
0.0037993
0.00209396
0.00392889
0.0121743
0.00794887
0.00404521
0.00275024
0.00337206
0.00394488
0.00399198
0.0035245
0.00342528
0.00378098
0.00443392
0.00535231
0.00652116
0.00784761
0.00915112
0.0102273
0.0109206
0.0111647
0.0109981
0.0105393
0.00993764
0.00934106
0.00886532
0.00856336
0.00841514
0.0083481
0.0082684
0.0081026
0.00781082
0.00737715
0.00680002
0.00608759
0.00526025
0.00435318
0.003334
0.0019639
0.00161905
0.00591947
0.00235488
0.00384954
0.00981261
0.00820727
0.00555143
0.00366654
0.00283983
0.00269091
0.00281787
0.00305401
0.00343063
0.00396489
0.00469946
0.00569806
0.00695836
0.00835733
0.00967955
0.0106996
0.0112616
0.0113202
0.0109429
0.0102792
0.00951631
0.00883624
0.00837063
0.00815721
0.00813225
0.00817875
0.00817815
0.00807124
0.00783524
0.00746249
0.00695288
0.00631176
0.00554488
0.00462001
0.00330875
0.00158387
0.00263383
0.00601367
0.0024198
0.00360606
0.00838563
0.00793399
0.0063519
0.00488881
0.0039361
0.00346526
0.00335926
0.00355493
0.00391482
0.00443731
0.00521278
0.00631605
0.00769878
0.00917003
0.0104649
0.0113436
0.0116695
0.0114378
0.0107645
0.00985212
0.00894049
0.00824912
0.00790205
0.00786156
0.00797558
0.0080913
0.0080935
0.00798102
0.00775233
0.00740267
0.00692803
0.00632367
0.00555588
0.00444013
0.00270999
0.00165335
0.00324561
0.00626864
0.002429
0.00328349
0.00755966
0.00765214
0.00672259
0.0057194
0.00496403
0.00451933
0.00436004
0.00440108
0.00461918
0.00509955
0.00596669
0.00724376
0.00877729
0.0102815
0.011447
0.0120459
0.0119923
0.0113514
0.0103125
0.00915804
0.00819588
0.00765118
0.0075401
0.00763457
0.00778756
0.00788849
0.00786152
0.00773086
0.0074983
0.00715627
0.00669366
0.00608369
0.0051973
0.00361902
0.00188456
0.0020675
0.00375068
0.00602407
0.00237937
0.00299381
0.00676005
0.00730459
0.00686625
0.00622301
0.00568234
0.00532278
0.00514761
0.00509677
0.00528402
0.00589473
0.00702951
0.00857747
0.0102402
0.0116485
0.0124924
0.0126089
0.0120063
0.0108569
0.00945196
0.00818659
0.00737287
0.00700924
0.00695892
0.00706305
0.00720949
0.00730568
0.00728203
0.00715174
0.00691482
0.00656286
0.00607697
0.00538444
0.0041975
0.00242311
0.0017637
0.00257815
0.00399302
0.00521045
0.00229213
0.00300327
0.00670926
0.00746186
0.00694783
0.00642755
0.00600141
0.00569438
0.00549667
0.00549135
0.00594471
0.00702275
0.00863296
0.0104511
0.0120592
0.0130857
0.0133101
0.0127062
0.0114153
0.00976959
0.0081809
0.00702675
0.00633582
0.00600053
0.00591643
0.00598854
0.0061228
0.00622493
0.00620746
0.00606558
0.00579827
0.00540527
0.0048829
0.00418455
0.00316289
0.00205508
0.00190333
0.00283734
0.00412695
0.00511338
0.00223747
0.0027095
0.00282004
0.00416523
0.00489732
0.00512507
0.00513056
0.00508328
0.00518142
0.00581372
0.00715702
0.00904503
0.0110826
0.012827
0.013909
0.014109
0.0133811
0.0119027
0.00995831
0.00810507
0.00664888
0.00565726
0.00507427
0.00479625
0.00470723
0.00472435
0.00478297
0.0048115
0.00473056
0.00451682
0.00418372
0.00376639
0.00331812
0.00288074
0.00245149
0.00207617
0.0021162
0.00296528
0.00435783
0.0056338
0.00237274
0.000964958
0.00174055
0.0026718
0.00341951
0.00428813
0.00575824
0.00791778
0.0103097
0.0124838
0.0141083
0.0149584
0.0148863
0.0138915
0.0120737
0.00990769
0.00784834
0.0062021
0.00508283
0.00445195
0.00413025
0.00396336
0.00387039
0.00381084
0.00375212
0.00365489
0.00348351
0.00323441
0.00295027
0.002692
0.00250845
0.00241271
0.00239223
0.00245014
0.00268328
0.00339081
0.00507442
0.00581921
0.0024556
0.0017874
0.00247491
0.00360441
0.00561724
0.0083391
0.0110552
0.013148
0.0146523
0.0155608
0.0158147
0.0153002
0.0139019
0.0118291
0.00947379
0.00729574
0.00563809
0.00463496
0.0041221
0.00386263
0.00371852
0.0036319
0.00357555
0.00352865
0.00346845
0.00337273
0.00323468
0.00307902
0.00294569
0.00287029
0.00286824
0.00293405
0.00305942
0.00326045
0.00360697
0.00428384
0.00598837
0.00629511
0.00250237
0.00323798
0.00785839
0.00725611
0.00650689
0.00826306
0.0109944
0.0132871
0.0148246
0.0156272
0.0158185
0.0155012
0.0146332
0.0131669
0.0111622
0.00888748
0.00677444
0.00528163
0.00446121
0.0040505
0.00383292
0.00371482
0.00366229
0.00365716
0.00368016
0.00370782
0.00371648
0.00369215
0.0036428
0.00359909
0.00358013
0.00359704
0.00365265
0.00374374
0.00387071
0.00405301
0.00434656
0.00487477
0.0060007
0.00652585
0.00241664
0.00309546
0.00598566
0.0077464
0.00990916
0.0109971
0.012112
0.0127543
0.0129006
0.0126447
0.0120551
0.0111609
0.00997544
0.00855438
0.00706126
0.0057533
0.00479132
0.00416394
0.00377815
0.00354083
0.00340772
0.00336194
0.00339236
0.00348289
0.00360923
0.00374084
0.00384784
0.00391251
0.00394594
0.00397975
0.00402914
0.00410146
0.00419933
0.0043232
0.00447268
0.00465539
0.00487859
0.00517225
0.00586576
0.00681799
0.0023788
0.00289539
0.00248046
0.00246789
0.00253902
0.00259728
0.00251738
0.0023651
0.00218938
0.00201537
0.00185207
0.00170075
0.00156202
0.0014402
0.00134332
0.00127834
0.00124689
0.00123722
0.00124061
0.00125376
0.00127428
0.00129971
0.00132764
0.00135603
0.00138355
0.00140972
0.0014349
0.00146014
0.00148666
0.00151587
0.00154911
0.00158715
0.00163045
0.00168
0.00173899
0.00181379
0.00191422
0.00204861
0.00221453
0.00239461
0.002263
)
;

boundaryField
{
    floor
    {
        type            compressible::alphatWallFunction;
        Prt             0.85;
        value           nonuniform List<scalar> 
36
(
0.000219915
0.000104504
0.000149925
0.000151127
0.000147526
0.000141477
0.000133347
0.000125184
0.000117605
0.00011072
0.000104504
9.89313e-05
9.38951e-05
8.92806e-05
8.49488e-05
8.07085e-05
7.62471e-05
7.25197e-05
6.49327e-05
6.49318e-05
8.41342e-05
9.63618e-05
0.00010642
0.00012722
0.000167786
0.000160255
0.000219912
0.000239716
0.000229108
0.00021976
0.000104503
0.000219758
0.000186238
0.000266693
0.000232716
0.000265722
)
;
    }
    ceiling
    {
        type            compressible::alphatWallFunction;
        Prt             0.85;
        value           nonuniform List<scalar> 
43
(
0.000391259
0.000338876
0.00033728
0.000346333
0.000353735
0.000343624
0.000324229
0.000301668
0.000279127
0.000257779
0.000237815
0.000219346
0.000202986
0.000189868
0.000181009
0.000176691
0.000175359
0.000175817
0.000177613
0.000180421
0.000183904
0.000187727
0.000191609
0.000195367
0.000198934
0.000202356
0.000205778
0.000209361
0.000213293
0.000217759
0.000222855
0.000228639
0.000235225
0.000243001
0.000252775
0.00026581
0.000283181
0.000304541
0.000327608
0.000310991
0.000368223
0.000382117
0.000248617
)
;
    }
    sWall
    {
        type            compressible::alphatWallFunction;
        Prt             0.85;
        value           nonuniform List<scalar> 9(0.000507613 0.000477911 0.000438245 0.000402287 0.000403459 0.000366648 0.000431982 0.00041436 0.000389508);
    }
    nWall
    {
        type            compressible::alphatWallFunction;
        Prt             0.85;
        value           nonuniform List<scalar> 
14
(
0.000159808
0.000190035
0.000222821
0.000330573
0.000331679
0.000325267
0.000314081
0.000307226
0.000324901
0.00033516
0.000341093
0.000329788
0.000324956
0.00031031
)
;
    }
    sideWalls
    {
        type            empty;
    }
    glass1
    {
        type            compressible::alphatWallFunction;
        Prt             0.85;
        value           nonuniform List<scalar> 9(0.000143924 0.00020913 0.000262683 0.000313287 0.000362355 0.000409973 0.000457977 0.000498833 0.00051121);
    }
    glass2
    {
        type            compressible::alphatWallFunction;
        Prt             0.85;
        value           nonuniform List<scalar> 2(0.000286415 0.00031997);
    }
    sun
    {
        type            compressible::alphatWallFunction;
        Prt             0.85;
        value           nonuniform List<scalar> 
14
(
0.000147958
0.000157642
0.000157086
0.000163756
0.000169842
0.000175349
0.000180459
0.00018537
0.000190299
0.000195521
0.000200486
0.000205188
0.000209808
0.000214762
)
;
    }
    Table_master
    {
        type            compressible::alphatWallFunction;
        Prt             0.85;
        value           nonuniform List<scalar> 9(0.000191014 0.000166842 0.000147918 0.000132912 0.000120825 0.000110963 0.00010284 9.61756e-05 9.09411e-05);
    }
    Table_slave
    {
        type            compressible::alphatWallFunction;
        Prt             0.85;
        value           nonuniform List<scalar> 9(0.000216365 0.000197593 0.000182924 0.000170627 0.000160065 0.000150508 0.000141431 0.000132346 0.000122448);
    }
    inlet
    {
        type            fixedValue;
        value           uniform 1.94e-05;
    }
    outlet
    {
        type            zeroGradient;
    }
}


// ************************************************************************* //
