/*--------------------------------*- C++ -*----------------------------------*\
  =========                 |
  \\      /  F ield         | OpenFOAM: The Open Source CFD Toolbox
   \\    /   O peration     | Website:  https://openfoam.org
    \\  /    A nd           | Version:  6
     \\/     M anipulation  |
\*---------------------------------------------------------------------------*/
FoamFile
{
    version     2.0;
    format      ascii;
    class       volScalarField;
    location    "45500.0000002824454";
    object      epsilon;
}
// * * * * * * * * * * * * * * * * * * * * * * * * * * * * * * * * * * * * * //

dimensions      [0 2 -3 0 0 0 0];

internalField   nonuniform List<scalar> 
778
(
0.000253107
0.000306332
0.000302996
0.00034419
0.000385086
0.000424935
0.000464428
0.000504752
0.000547641
0.000595812
0.0006443
0.000692713
0.000742698
0.000799052
0.000860806
8.95114e-05
0.00026247
0.000268919
0.000249881
0.000220074
0.000184086
0.000152345
0.000126526
0.000105902
8.94334e-05
7.62838e-05
6.56331e-05
5.6839e-05
4.93745e-05
4.27668e-05
3.65175e-05
3.18169e-05
2.35995e-05
0.000796954
0.00144313
0.000287005
0.000259632
0.000261747
0.000267734
0.000276646
0.000290096
0.000310376
0.000340613
0.000379864
0.000431019
0.000499442
0.000600684
0.000785864
0.00112957
0.000978983
0.000858566
0.00051164
0.000369293
0.000294051
0.000242757
0.000203965
0.000186831
0.000154681
0.000125002
0.000100695
8.14827e-05
6.65185e-05
5.48138e-05
4.56238e-05
3.87011e-05
3.45103e-05
3.27491e-05
6.5761e-05
4.80671e-05
0.00163052
0.00407875
0.000407382
0.00024297
0.000229158
0.00023108
0.000238306
0.000250587
0.000268509
0.000292798
0.000324941
0.000367016
0.000421396
0.000495088
0.000601453
0.000724718
0.000829977
0.00158399
0.00102806
0.000512252
0.000367626
0.000294214
0.00026202
0.000550961
0.000362255
0.000250517
0.0001812
0.000136212
0.000105869
8.47453e-05
6.97948e-05
5.94417e-05
4.51154e-05
3.79625e-05
0.000108156
7.07353e-05
0.00285328
0.00876951
0.000709793
0.000240756
0.000202525
0.000200067
0.000203246
0.000209879
0.000220705
0.000237633
0.000263332
0.000300076
0.000349266
0.000412356
0.000487986
0.000560153
0.00061247
0.000824746
0.00156537
0.00072875
0.000459697
0.000358256
0.000301896
0.000291809
0.000813876
0.000612334
0.000481533
0.000388185
0.000318865
0.000264113
0.000218591
0.000178873
0.000141721
8.36906e-05
5.48226e-05
0.00014861
9.43424e-05
0.00454554
0.0158256
0.00134608
0.000258352
0.000175765
0.000166831
0.000165843
0.000167823
0.000173991
0.000187502
0.00021175
0.000248421
0.000297798
0.00035927
0.000427666
0.000489002
0.000528475
0.000582557
0.000627826
0.000483327
0.000393579
0.000331087
0.000282321
0.000248625
0.000247822
0.000226753
0.000202913
0.00018106
0.000162691
0.000146533
0.000131857
0.000118251
0.000105072
8.44423e-05
6.41234e-05
0.000105109
0.00013871
0.000159946
0.000370693
0.000322196
0.0067628
0.0248756
0.00255279
0.000318037
0.000155554
0.000137091
0.000132157
0.000130727
0.000134497
0.000148589
0.000176738
0.000218083
0.000270741
0.000333938
0.000401465
0.000462313
0.000502791
0.000521654
0.000504909
0.000438377
0.000373926
0.000315715
0.000264771
0.000223389
0.000193283
0.000169624
0.000150816
0.000135642
0.000123318
0.000112771
0.000103306
9.45255e-05
8.60619e-05
7.58765e-05
6.52993e-05
7.75151e-05
9.95819e-05
0.000212512
0.00108465
0.00054985
0.00967072
0.0336344
0.00458236
0.000464857
0.000150837
0.000116355
0.000107108
0.000103309
0.000107108
0.000127944
0.000166143
0.000215853
0.000273167
0.000339732
0.000408895
0.000469995
0.000509819
0.000520276
0.000494296
0.000437672
0.000371889
0.000307505
0.000250551
0.000204429
0.000169738
0.000144553
0.000126332
0.000112754
0.000102308
9.37414e-05
8.62402e-05
7.93408e-05
7.27713e-05
6.61091e-05
6.03182e-05
6.36635e-05
7.66254e-05
0.000176161
0.00162358
0.000904175
0.0127572
0.0404048
0.00748799
0.000870862
0.000194209
0.000115372
9.73988e-05
9.14854e-05
9.86698e-05
0.00013776
0.000189316
0.000246205
0.000306836
0.000373414
0.000444207
0.000507464
0.000546921
0.000550663
0.000515583
0.000451505
0.000375467
0.000300903
0.000236423
0.000185921
0.000149291
0.000123975
0.000106719
9.45887e-05
8.57697e-05
7.88479e-05
7.2937e-05
6.75519e-05
6.24654e-05
5.76527e-05
5.39848e-05
5.56232e-05
6.98349e-05
0.000360417
0.00583328
0.00205597
0.0138265
0.0414626
0.0139288
0.00316073
0.000629096
0.000207831
0.000132662
0.000116029
0.000142508
0.000193006
0.000249345
0.000306362
0.000367085
0.000436121
0.000510377
0.000575017
0.000610341
0.000602793
0.000551927
0.000470779
0.000378296
0.000290722
0.000218103
0.000163926
0.000126734
0.000102598
8.72962e-05
7.73626e-05
7.07001e-05
6.5721e-05
6.15278e-05
5.768e-05
5.40155e-05
5.06448e-05
4.84338e-05
5.17419e-05
9.26774e-05
0.00105166
0.0151994
0.00293116
0.0130046
0.0283761
0.0144143
0.0057234
0.00210225
0.000833753
0.000413457
0.000276891
0.000279088
0.000314707
0.000356159
0.00040164
0.000458258
0.000530274
0.000609168
0.000673168
0.000698041
0.000670164
0.000593447
0.000486317
0.000372241
0.000270324
0.000190889
0.000135625
0.00010063
7.98714e-05
6.79756e-05
6.12029e-05
5.7135e-05
5.42053e-05
5.16657e-05
4.92135e-05
4.6805e-05
4.47185e-05
4.43165e-05
5.3959e-05
0.000172211
0.00247744
0.0126714
0.00317977
0.0106909
0.0193618
0.012039
0.00629861
0.0031729
0.0016737
0.000986203
0.000678809
0.000559997
0.000517395
0.000510441
0.00053131
0.000583267
0.000662035
0.00074659
0.000804258
0.000806687
0.000743622
0.00062752
0.0004854
0.000346837
0.000232967
0.000152164
0.000101656
7.35321e-05
5.88006e-05
5.13322e-05
4.79322e-05
4.61427e-05
4.48313e-05
4.35285e-05
4.20959e-05
4.06492e-05
3.98818e-05
4.30399e-05
7.06163e-05
0.00029275
0.00235407
0.0105909
0.00321369
0.00807393
0.0137724
0.00969265
0.00593267
0.00356878
0.00222668
0.00149018
0.00109245
0.000869036
0.000743474
0.000685823
0.000689887
0.000750026
0.000843999
0.000931468
0.000967856
0.000925718
0.000805282
0.000634247
0.000451149
0.000291936
0.000176638
0.000106734
6.93403e-05
5.24259e-05
4.43074e-05
4.04923e-05
3.90959e-05
3.85123e-05
3.80598e-05
3.74523e-05
3.66437e-05
3.59455e-05
3.70665e-05
4.93577e-05
0.00014214
0.00062242
0.00250878
0.00832686
0.00301821
0.00612434
0.0101665
0.00779053
0.00531208
0.00356979
0.00246875
0.00178761
0.00136799
0.00109282
0.000925999
0.000859125
0.000886317
0.000982133
0.00109673
0.00116908
0.00115021
0.00102731
0.000821981
0.000585572
0.000367396
0.000207272
0.000114063
7.19418e-05
5.21993e-05
4.27567e-05
3.7962e-05
3.56209e-05
3.47956e-05
3.45103e-05
3.433e-05
3.40695e-05
3.37914e-05
3.43217e-05
4.03524e-05
7.93429e-05
0.000282988
0.000981449
0.00274176
0.00612243
0.00269836
0.00617908
0.00781083
0.0068031
0.00473884
0.00336515
0.00246199
0.00186543
0.00146215
0.00119451
0.00106455
0.0010701
0.00117964
0.00132851
0.00143709
0.00143864
0.00130184
0.00105301
0.00074296
0.000456095
0.00023772
0.00013086
8.19195e-05
6.01667e-05
4.92862e-05
4.29949e-05
3.90208e-05
3.66311e-05
3.55614e-05
3.51585e-05
3.51201e-05
3.53479e-05
3.60419e-05
3.8564e-05
4.99044e-05
0.000103622
0.000327016
0.00101497
0.00261476
0.00547847
0.00251608
0.00454404
0.00511339
0.00418507
0.00336196
0.00263993
0.00207027
0.00164916
0.00136198
0.00124497
0.00130038
0.00147751
0.00168554
0.00182319
0.00181635
0.00163911
0.00130588
0.0009134
0.000520881
0.000279449
0.000155893
0.000102939
8.00744e-05
6.83301e-05
6.04878e-05
5.43432e-05
4.94719e-05
4.6067e-05
4.44441e-05
4.42117e-05
4.5161e-05
4.73307e-05
5.10314e-05
5.76732e-05
7.35499e-05
0.000123819
0.000294589
0.000811899
0.00209625
0.00490998
0.00301213
0.00140092
0.0014314
0.00143396
0.00135505
0.00131287
0.00142416
0.00170824
0.00204272
0.00230475
0.00240307
0.00228954
0.00198005
0.00153594
0.000985971
0.000573285
0.000315498
0.000190231
0.000138003
0.000116542
0.000105297
9.69654e-05
8.93516e-05
8.2139e-05
7.58655e-05
7.1544e-05
7.028e-05
7.23155e-05
7.77884e-05
8.70694e-05
0.000100489
0.000118959
0.000146897
0.000200774
0.000331435
0.000692186
0.00204954
0.00386495
0.00332398
0.00118795
0.00171867
0.00195646
0.00231293
0.00276047
0.00316469
0.00334258
0.00330691
0.00308272
0.00269237
0.00212596
0.00151082
0.000979278
0.00057924
0.000347938
0.000238974
0.000195374
0.000177438
0.000167707
0.000160147
0.000152895
0.000145497
0.000138325
0.000132534
0.000129905
0.000132447
0.000141185
0.000157423
0.000182456
0.000217291
0.000263376
0.000325256
0.000417094
0.000578577
0.000934711
0.0023112
0.00360225
0.00351671
0.00741643
0.0080496
0.00480662
0.00340836
0.00374541
0.00415633
0.00416812
0.00395468
0.00359505
0.00313737
0.00262967
0.00208739
0.00154041
0.00105888
0.000698998
0.000476085
0.000366986
0.000320728
0.000300298
0.000289351
0.000282433
0.000277407
0.000272887
0.000267887
0.000262323
0.000257598
0.000256642
0.000262435
0.000277006
0.000303024
0.000343258
0.000401013
0.000480984
0.000591969
0.000753558
0.00101209
0.0014901
0.00267404
0.00452066
0.00315287
0.00650351
0.00512754
0.00437231
0.00462723
0.00455116
0.00428414
0.00370252
0.00305421
0.00246647
0.00197205
0.00156816
0.00124523
0.000994719
0.000812551
0.000690227
0.000608121
0.00055047
0.000511259
0.000486443
0.000473969
0.00047227
0.00047934
0.00049255
0.00050899
0.00052611
0.000542428
0.000557988
0.000574973
0.000598754
0.000634147
0.000686181
0.000761395
0.000869922
0.00103009
0.00127626
0.00166587
0.002283
0.00347749
0.00578943
0.00300832
0.0053609
0.00337059
0.00332162
0.00362036
0.00388124
0.00354583
0.0029496
0.00234508
0.00183193
0.00142311
0.00110277
0.000854816
0.000670415
0.000544328
0.000469271
0.00043545
0.000425397
0.000428848
0.000442564
0.000464618
0.000493047
0.000525635
0.000560248
0.000595257
0.00062988
0.000664406
0.000700235
0.000739184
0.000783672
0.000836459
0.000899743
0.000975593
0.00106727
0.00118294
0.00134025
0.00157199
0.001923
0.00242648
0.00306768
0.00259775
)
;

boundaryField
{
    floor
    {
        Cmu             0.09;
        kappa           0.41;
        E               9.8;
        type            epsilonWallFunction;
        value           nonuniform List<scalar> 
36
(
0.000860806
8.95114e-05
0.00026247
0.000268919
0.000249881
0.000220074
0.000184086
0.000152345
0.000126526
0.000105902
8.94334e-05
7.62838e-05
6.56331e-05
5.6839e-05
4.93745e-05
4.27668e-05
3.65175e-05
3.18169e-05
2.35995e-05
2.35995e-05
4.80671e-05
7.07353e-05
9.43424e-05
0.000159946
0.000370693
0.000322196
0.000860806
0.00112957
0.000978983
0.000858566
8.95114e-05
0.000858566
0.00051164
0.00158399
0.00102806
0.00156537
)
;
    }
    ceiling
    {
        Cmu             0.09;
        kappa           0.41;
        E               9.8;
        type            epsilonWallFunction;
        value           nonuniform List<scalar> 
43
(
0.0053609
0.00337059
0.00332162
0.00362036
0.00388124
0.00354583
0.0029496
0.00234508
0.00183193
0.00142311
0.00110277
0.000854816
0.000670415
0.000544328
0.000469271
0.00043545
0.000425397
0.000428848
0.000442564
0.000464618
0.000493047
0.000525635
0.000560248
0.000595257
0.00062988
0.000664406
0.000700235
0.000739184
0.000783672
0.000836459
0.000899743
0.000975593
0.00106727
0.00118294
0.00134025
0.00157199
0.001923
0.00242648
0.00306768
0.00259775
0.00454404
0.00511339
0.00118795
)
;
    }
    sWall
    {
        Cmu             0.09;
        kappa           0.41;
        E               9.8;
        type            epsilonWallFunction;
        value           nonuniform List<scalar> 9(0.0130046 0.0106909 0.00807393 0.00612434 0.00617908 0.00454404 0.00741643 0.00650351 0.0053609);
    }
    nWall
    {
        Cmu             0.09;
        kappa           0.41;
        E               9.8;
        type            epsilonWallFunction;
        value           nonuniform List<scalar> 
14
(
0.000322196
0.00054985
0.000904175
0.00317977
0.00321369
0.00301821
0.00269836
0.00251608
0.00301213
0.00332398
0.00351671
0.00315287
0.00300832
0.00259775
)
;
    }
    sideWalls
    {
        type            empty;
    }
    glass1
    {
        Cmu             0.09;
        kappa           0.41;
        E               9.8;
        type            epsilonWallFunction;
        value           nonuniform List<scalar> 9(0.000253107 0.000796954 0.00163052 0.00285328 0.00454554 0.0067628 0.00967072 0.0127572 0.0138265);
    }
    glass2
    {
        Cmu             0.09;
        kappa           0.41;
        E               9.8;
        type            epsilonWallFunction;
        value           nonuniform List<scalar> 2(0.00205597 0.00293116);
    }
    sun
    {
        Cmu             0.09;
        kappa           0.41;
        E               9.8;
        type            epsilonWallFunction;
        value           nonuniform List<scalar> 
14
(
0.000253107
0.000306332
0.000302996
0.00034419
0.000385086
0.000424935
0.000464428
0.000504752
0.000547641
0.000595812
0.0006443
0.000692713
0.000742698
0.000799052
)
;
    }
    Table_master
    {
        Cmu             0.09;
        kappa           0.41;
        E               9.8;
        type            epsilonWallFunction;
        value           nonuniform List<scalar> 9(0.000550961 0.000362255 0.000250517 0.0001812 0.000136212 0.000105869 8.47453e-05 6.97948e-05 5.94417e-05);
    }
    Table_slave
    {
        Cmu             0.09;
        kappa           0.41;
        E               9.8;
        type            epsilonWallFunction;
        value           nonuniform List<scalar> 9(0.000813876 0.000612334 0.000481533 0.000388185 0.000318865 0.000264113 0.000218591 0.000178873 0.000141721);
    }
    inlet
    {
        type            turbulentMixingLengthDissipationRateInlet;
        mixingLength    0.01;
        phi             phi;
        k               k;
        value           uniform 0.000471671;
    }
    outlet
    {
        type            zeroGradient;
    }
}


// ************************************************************************* //
