/*--------------------------------*- C++ -*----------------------------------*\
  =========                 |
  \\      /  F ield         | OpenFOAM: The Open Source CFD Toolbox
   \\    /   O peration     | Website:  https://openfoam.org
    \\  /    A nd           | Version:  6
     \\/     M anipulation  |
\*---------------------------------------------------------------------------*/
FoamFile
{
    version     2.0;
    format      ascii;
    class       volVectorField;
    location    "45500.0000002824454";
    object      U;
}
// * * * * * * * * * * * * * * * * * * * * * * * * * * * * * * * * * * * * * //

dimensions      [0 1 -1 0 0 0 0];

internalField   nonuniform List<vector> 
778
(
(0.065596 0.0794101 0)
(-0.15518 0.0157702 0)
(-0.164316 0.0146316 0)
(-0.192445 0.0122823 0)
(-0.216894 0.0087317 0)
(-0.236967 0.00474914 0)
(-0.252105 0.000419544 0)
(-0.261883 -0.00436933 0)
(-0.265785 -0.00981565 0)
(-0.262809 -0.0161994 0)
(-0.250999 -0.0242763 0)
(-0.226288 -0.0348979 0)
(-0.186153 -0.0504218 0)
(-0.144213 -0.0751961 0)
(-0.150121 -0.108595 0)
(0.0546153 0.0354509 0)
(0.0156863 -0.026842 0)
(0.0448294 -0.0232369 0)
(0.0691775 -0.0161351 0)
(0.0841894 -0.0103336 0)
(0.0913689 -0.00640907 0)
(0.0941969 -0.00433689 0)
(0.0952336 -0.003314 0)
(0.0956874 -0.00272609 0)
(0.0958545 -0.00231297 0)
(0.0957255 -0.00194938 0)
(0.0951974 -0.00151071 0)
(0.0939423 -0.000759457 0)
(0.0911037 0.000840516 0)
(0.0849174 0.00405605 0)
(0.073414 0.00774961 0)
(0.0598198 0.0115772 0)
(-0.00801673 0.0299399 0)
(0.258392 0.167398 0)
(-0.161238 0.0484023 0)
(-0.141617 0.045996 0)
(-0.174033 0.0416334 0)
(-0.199409 0.0356876 0)
(-0.220144 0.0291478 0)
(-0.236187 0.0220732 0)
(-0.24745 0.0142376 0)
(-0.253632 0.00529835 0)
(-0.253952 -0.00515874 0)
(-0.247796 -0.0170956 0)
(-0.234086 -0.0308678 0)
(-0.214175 -0.0480956 0)
(-0.1976 -0.0699822 0)
(-0.194085 -0.0826724 0)
(-0.166458 -0.0426007 0)
(-0.105369 -0.0364308 0)
(-0.0983446 -0.044516 0)
(0.109327 -0.0419807 0)
(0.0644224 -0.0410675 0)
(0.0718028 -0.032181 0)
(0.0857224 -0.020635 0)
(0.0935628 -0.0103978 0)
(0.0957627 -0.00362217 0)
(0.0955179 -0.000197936 0)
(0.0951344 0.00124981 0)
(0.0951011 0.00190199 0)
(0.0951826 0.00227647 0)
(0.095189 0.00259552 0)
(0.0950879 0.00313275 0)
(0.0947965 0.00440761 0)
(0.093541 0.00771357 0)
(0.0879514 0.016727 0)
(0.0742191 0.0252719 0)
(0.0629504 0.0328393 0)
(-0.0521499 0.0634379 0)
(0.429969 0.253962 0)
(-0.194233 0.0847764 0)
(-0.112792 0.0784576 0)
(-0.148268 0.0669856 0)
(-0.170712 0.0555322 0)
(-0.188818 0.0437583 0)
(-0.202668 0.0313704 0)
(-0.212369 0.0180253 0)
(-0.217727 0.00340553 0)
(-0.218088 -0.0126374 0)
(-0.212831 -0.03034 0)
(-0.201723 -0.0499311 0)
(-0.186084 -0.0715939 0)
(-0.169555 -0.0932383 0)
(-0.151193 -0.104593 0)
(-0.120355 -0.0931819 0)
(-0.0796569 -0.0950009 0)
(-0.0715949 -0.107661 0)
(0.0920447 -0.0880363 0)
(0.0624847 -0.0656149 0)
(0.074253 -0.045986 0)
(0.0878413 -0.0290997 0)
(0.0946115 -0.0147471 0)
(0.0916496 -0.0119619 0)
(0.0874267 -0.00795523 0)
(0.0850623 -0.0057994 0)
(0.0843639 -0.00457093 0)
(0.0843402 -0.00380083 0)
(0.0846006 -0.00322451 0)
(0.0852562 -0.00259791 0)
(0.0870162 -0.00144172 0)
(0.091692 0.00291185 0)
(0.089834 0.0250722 0)
(0.0730297 0.0422605 0)
(0.0698591 0.0572627 0)
(-0.0903523 0.100622 0)
(0.578535 0.325851 0)
(-0.240101 0.121833 0)
(-0.0808473 0.109257 0)
(-0.121598 0.0898941 0)
(-0.139041 0.0741133 0)
(-0.153114 0.0586791 0)
(-0.163885 0.0427903 0)
(-0.17149 0.0258354 0)
(-0.175707 0.00720902 0)
(-0.175776 -0.0135357 0)
(-0.171087 -0.0364857 0)
(-0.161521 -0.0614741 0)
(-0.14766 -0.0873847 0)
(-0.130699 -0.110304 0)
(-0.109761 -0.123206 0)
(-0.0823048 -0.124558 0)
(-0.0527183 -0.126406 0)
(-0.0336111 -0.123199 0)
(0.0160331 -0.0567984 0)
(0.0605985 -0.0929491 0)
(0.0682939 -0.0790515 0)
(0.0789366 -0.0586676 0)
(0.0914378 -0.0394109 0)
(0.102797 -0.0207386 0)
(0.115536 -0.013109 0)
(0.126623 -0.00877183 0)
(0.132166 -0.00558487 0)
(0.133112 -0.00308856 0)
(0.130563 -0.000869273 0)
(0.125081 0.00129843 0)
(0.116539 0.00367879 0)
(0.104168 0.00673216 0)
(0.0849065 0.0111572 0)
(0.0710468 0.0368126 0)
(0.0597507 0.0604473 0)
(0.0759203 0.0830764 0)
(-0.118361 0.136584 0)
(0.705716 0.383694 0)
(-0.287676 0.157033 0)
(-0.0477087 0.133824 0)
(-0.0963154 0.10697 0)
(-0.107774 0.0876532 0)
(-0.116819 0.0692322 0)
(-0.123621 0.0505003 0)
(-0.128291 0.0306273 0)
(-0.130658 0.00874425 0)
(-0.129856 -0.0158203 0)
(-0.125356 -0.0430909 0)
(-0.116733 -0.0726955 0)
(-0.104019 -0.102819 0)
(-0.0875659 -0.129058 0)
(-0.067635 -0.145752 0)
(-0.0443166 -0.152242 0)
(-0.0204739 -0.152371 0)
(4.03315e-05 -0.143739 0)
(0.0305726 -0.114977 0)
(0.0567563 -0.109295 0)
(0.070359 -0.0923264 0)
(0.0805193 -0.0711187 0)
(0.0905917 -0.0506427 0)
(0.100153 -0.0326026 0)
(0.109242 -0.01927 0)
(0.116224 -0.00992258 0)
(0.119601 -0.00324512 0)
(0.119757 0.00199231 0)
(0.117313 0.00652197 0)
(0.112637 0.0108592 0)
(0.105756 0.0155173 0)
(0.0965984 0.0211995 0)
(0.084655 0.0292034 0)
(0.0730658 0.0472099 0)
(0.0624867 0.0712077 0)
(0.0939839 0.0991717 0)
(0.0157067 0.137769 0)
(0.0949787 0.182986 0)
(0.141221 0.145586 0)
(-0.222963 0.203149 0)
(0.810431 0.43199 0)
(-0.331317 0.190706 0)
(-0.0173233 0.150302 0)
(-0.0733918 0.117584 0)
(-0.0786244 0.0955839 0)
(-0.0822588 0.075019 0)
(-0.0845266 0.0544102 0)
(-0.0855765 0.0327725 0)
(-0.0853311 0.00889254 0)
(-0.0826628 -0.0184012 0)
(-0.077497 -0.049029 0)
(-0.0688713 -0.082497 0)
(-0.0568811 -0.116473 0)
(-0.0418365 -0.146245 0)
(-0.0248516 -0.165936 0)
(-0.00647925 -0.174452 0)
(0.0119061 -0.172729 0)
(0.027809 -0.160998 0)
(0.0459709 -0.139304 0)
(0.0624257 -0.122298 0)
(0.073107 -0.102406 0)
(0.0807953 -0.0803134 0)
(0.0875538 -0.0589397 0)
(0.0937241 -0.040053 0)
(0.0990298 -0.0248934 0)
(0.102678 -0.0135607 0)
(0.104239 -0.00489484 0)
(0.103768 0.00226824 0)
(0.101582 0.00870464 0)
(0.0979297 0.0149363 0)
(0.0929679 0.0214965 0)
(0.086921 0.0290271 0)
(0.0800346 0.0384511 0)
(0.074222 0.0529206 0)
(0.0688189 0.0729606 0)
(0.0906591 0.0986452 0)
(0.0720152 0.107153 0)
(0.0883772 0.0472819 0)
(0.146175 -0.0381197 0)
(-0.330851 0.106835 0)
(0.879925 0.474701 0)
(-0.368642 0.220993 0)
(0.00372533 0.155623 0)
(-0.0526855 0.121647 0)
(-0.0522398 0.0979388 0)
(-0.0510748 0.0759112 0)
(-0.0490868 0.0541274 0)
(-0.0465852 0.0316028 0)
(-0.0434134 0.00681892 0)
(-0.037464 -0.0222755 0)
(-0.0303956 -0.0553592 0)
(-0.0206174 -0.0919203 0)
(-0.00881439 -0.128843 0)
(0.00439136 -0.161154 0)
(0.0174659 -0.181808 0)
(0.0302591 -0.190159 0)
(0.0420688 -0.187194 0)
(0.0523696 -0.174396 0)
(0.0623349 -0.154035 0)
(0.0709094 -0.132355 0)
(0.0764344 -0.109294 0)
(0.0798919 -0.0857434 0)
(0.0824776 -0.0635226 0)
(0.084689 -0.0439955 0)
(0.0864818 -0.0278922 0)
(0.087524 -0.0151142 0)
(0.0876023 -0.00487905 0)
(0.0865724 0.00373584 0)
(0.0846365 0.0114148 0)
(0.0819435 0.0186874 0)
(0.0786712 0.0260656 0)
(0.0750954 0.0340705 0)
(0.0716014 0.0432861 0)
(0.0695218 0.055037 0)
(0.0681424 0.0697236 0)
(0.0807668 0.0890085 0)
(0.0830262 0.0922694 0)
(0.0874244 0.0539315 0)
(0.180909 0.0231025 0)
(-0.283932 0.153553 0)
(0.927993 0.517153 0)
(-0.383178 0.23421 0)
(0.0169195 0.133065 0)
(-0.027349 0.116752 0)
(-0.0265815 0.095025 0)
(-0.0227917 0.0725348 0)
(-0.0177005 0.0502044 0)
(-0.0124446 0.0273349 0)
(-0.00552133 0.00193696 0)
(0.00446148 -0.0307101 0)
(0.014167 -0.0653109 0)
(0.0254572 -0.103302 0)
(0.0370964 -0.140795 0)
(0.0477801 -0.172051 0)
(0.0568849 -0.192245 0)
(0.0643857 -0.199748 0)
(0.0701118 -0.19535 0)
(0.0740659 -0.181167 0)
(0.0767629 -0.160075 0)
(0.0781203 -0.136052 0)
(0.0777554 -0.11099 0)
(0.0762397 -0.0864051 0)
(0.0743976 -0.063783 0)
(0.0727491 -0.0441371 0)
(0.0714298 -0.0278561 0)
(0.0703085 -0.0146621 0)
(0.0691996 -0.00385759 0)
(0.0678161 0.00533725 0)
(0.0662911 0.0135058 0)
(0.064602 0.0211431 0)
(0.0628391 0.0286919 0)
(0.0611951 0.036534 0)
(0.0599671 0.0450089 0)
(0.0599873 0.0546649 0)
(0.0609849 0.0655705 0)
(0.0693261 0.0793773 0)
(0.0776823 0.0832003 0)
(0.0747269 0.0615939 0)
(0.239348 0.0491251 0)
(-0.559273 0.22914 0)
(1.01134 0.506826 0)
(-0.137378 0.296357 0)
(0.04108 0.161565 0)
(0.0405561 0.12217 0)
(0.0130404 0.0920759 0)
(0.00861738 0.0654756 0)
(0.0140241 0.0414977 0)
(0.0206289 0.0170715 0)
(0.0324176 -0.0109566 0)
(0.0438665 -0.0421121 0)
(0.0557215 -0.0768871 0)
(0.0679886 -0.114605 0)
(0.0791253 -0.151043 0)
(0.0876344 -0.180485 0)
(0.0928667 -0.198511 0)
(0.0949281 -0.203695 0)
(0.0942252 -0.197071 0)
(0.0913064 -0.181045 0)
(0.0868504 -0.158649 0)
(0.0813092 -0.133194 0)
(0.0749742 -0.107109 0)
(0.0684392 -0.0822278 0)
(0.0624194 -0.0599211 0)
(0.0574271 -0.0409299 0)
(0.0536495 -0.0253572 0)
(0.0509889 -0.0127189 0)
(0.0491877 -0.0022449 0)
(0.0478495 0.00675822 0)
(0.0469755 0.0147928 0)
(0.0463456 0.0223104 0)
(0.0459267 0.0296644 0)
(0.0457899 0.0371072 0)
(0.0460939 0.0448136 0)
(0.0472934 0.0529973 0)
(0.0492889 0.0616142 0)
(0.0549402 0.0715776 0)
(0.0618076 0.0739016 0)
(0.0486723 0.0502272 0)
(0.293916 0.070787 0)
(-0.792398 0.298367 0)
(0.779366 0.395764 0)
(0.000679643 0.319513 0)
(0.0933489 0.218936 0)
(0.110556 0.155215 0)
(0.0771161 0.106889 0)
(0.0597419 0.0676299 0)
(0.0581551 0.0358523 0)
(0.0623077 0.00649673 0)
(0.0737158 -0.023369 0)
(0.0852708 -0.055002 0)
(0.0974505 -0.0897307 0)
(0.109304 -0.126237 0)
(0.118675 -0.160002 0)
(0.123786 -0.185702 0)
(0.124031 -0.199776 0)
(0.119831 -0.201386 0)
(0.112134 -0.191888 0)
(0.102014 -0.173816 0)
(0.0905145 -0.150187 0)
(0.0784766 -0.124026 0)
(0.0665889 -0.0978636 0)
(0.0555759 -0.0736241 0)
(0.0461552 -0.0525753 0)
(0.038786 -0.0351771 0)
(0.0335636 -0.021243 0)
(0.0302591 -0.0100158 0)
(0.0284256 -0.000594144 0)
(0.0276039 0.00764508 0)
(0.0275498 0.0151474 0)
(0.0279367 0.0222932 0)
(0.0286454 0.0293244 0)
(0.0296385 0.0363812 0)
(0.0309262 0.0435376 0)
(0.0326364 0.0508835 0)
(0.0344474 0.0584951 0)
(0.0366855 0.0674657 0)
(0.0282723 0.0743015 0)
(0.0173203 0.0877686 0)
(0.125291 0.159494 0)
(-0.66391 0.29213 0)
(0.617303 0.220931 0)
(0.00455471 0.298152 0)
(0.113011 0.241563 0)
(0.148276 0.17758 0)
(0.130834 0.123553 0)
(0.117807 0.0778969 0)
(0.114934 0.0389655 0)
(0.117085 0.0034751 0)
(0.123429 -0.0306456 0)
(0.131636 -0.0649533 0)
(0.141307 -0.100463 0)
(0.150173 -0.135341 0)
(0.155299 -0.16521 0)
(0.154754 -0.185746 0)
(0.148219 -0.194646 0)
(0.136589 -0.191933 0)
(0.121334 -0.179346 0)
(0.103958 -0.159444 0)
(0.0858368 -0.135121 0)
(0.0680796 -0.109156 0)
(0.0516324 -0.084015 0)
(0.037355 -0.0615661 0)
(0.02598 -0.042924 0)
(0.0177671 -0.0281561 0)
(0.0124992 -0.0167077 0)
(0.00955602 -0.00746514 0)
(0.00821675 0.000516365 0)
(0.00817008 0.007746 0)
(0.00886452 0.0145873 0)
(0.0100678 0.021297 0)
(0.0116325 0.0280131 0)
(0.0134415 0.0348063 0)
(0.015377 0.0417093 0)
(0.0173868 0.048792 0)
(0.0194151 0.0563622 0)
(0.0211652 0.0666967 0)
(0.00477833 0.0859101 0)
(-0.00472866 0.119958 0)
(0.185617 0.174073 0)
(-0.567593 0.228511 0)
(0.570769 0.118593 0)
(-0.0203536 0.258665 0)
(0.113733 0.2299 0)
(0.165075 0.176084 0)
(0.166731 0.126233 0)
(0.164381 0.0811726 0)
(0.16535 0.0400634 0)
(0.168234 0.0017262 0)
(0.172179 -0.0353002 0)
(0.177735 -0.071836 0)
(0.183889 -0.107517 0)
(0.187565 -0.139574 0)
(0.185749 -0.164136 0)
(0.177061 -0.178394 0)
(0.161944 -0.181556 0)
(0.141938 -0.174514 0)
(0.118986 -0.159301 0)
(0.0948512 -0.138341 0)
(0.0711369 -0.114337 0)
(0.0490803 -0.0897708 0)
(0.029852 -0.0670095 0)
(0.0144189 -0.0477822 0)
(0.00336454 -0.0328717 0)
(-0.00375745 -0.0214932 0)
(-0.00765309 -0.0129683 0)
(-0.00963392 -0.00573393 0)
(-0.0102935 0.000855461 0)
(-0.00986398 0.00711893 0)
(-0.00872182 0.0132948 0)
(-0.00700305 0.0195341 0)
(-0.00486227 0.0259386 0)
(-0.00249155 0.0325853 0)
(-0.000157937 0.0395488 0)
(0.00189046 0.0469065 0)
(0.00380944 0.0550567 0)
(0.0027129 0.0695879 0)
(-0.0203995 0.100444 0)
(-0.0203009 0.131027 0)
(0.161656 0.179455 0)
(-0.531014 0.209108 0)
(0.628362 0.0538282 0)
(0.00922587 0.197336 0)
(0.113868 0.19696 0)
(0.175181 0.157965 0)
(0.191426 0.117751 0)
(0.198066 0.0773639 0)
(0.203372 0.0373848 0)
(0.208548 -0.00139003 0)
(0.213025 -0.0395513 0)
(0.217318 -0.0764357 0)
(0.219121 -0.109867 0)
(0.215269 -0.136683 0)
(0.203872 -0.154284 0)
(0.185015 -0.161682 0)
(0.160314 -0.159445 0)
(0.131938 -0.148981 0)
(0.102155 -0.132371 0)
(0.0726927 -0.111692 0)
(0.0453556 -0.0894558 0)
(0.0213492 -0.0678318 0)
(0.00223917 -0.0491205 0)
(-0.0111634 -0.034809 0)
(-0.0190622 -0.024905 0)
(-0.0236507 -0.0172444 0)
(-0.0261542 -0.0107764 0)
(-0.0273927 -0.00487051 0)
(-0.0276469 0.000718201 0)
(-0.0270211 0.00617294 0)
(-0.0256502 0.0116794 0)
(-0.0236115 0.0173943 0)
(-0.0210691 0.023476 0)
(-0.0183041 0.0300997 0)
(-0.0158166 0.0374935 0)
(-0.0142712 0.0460535 0)
(-0.0142461 0.0574349 0)
(-0.0217381 0.0803035 0)
(-0.0494529 0.118585 0)
(-0.0447007 0.148248 0)
(0.0240157 0.179809 0)
(-0.534553 0.181019 0)
(0.472964 0.0748354 0)
(-0.132102 0.137581 0)
(0.0943072 0.133293 0)
(0.172803 0.11683 0)
(0.203902 0.0954129 0)
(0.218165 0.0645002 0)
(0.228116 0.0285189 0)
(0.237154 -0.00882321 0)
(0.243516 -0.045187 0)
(0.245014 -0.078151 0)
(0.23902 -0.105032 0)
(0.224171 -0.123763 0)
(0.200976 -0.133494 0)
(0.171344 -0.134683 0)
(0.137866 -0.128603 0)
(0.102852 -0.116535 0)
(0.0686734 -0.100366 0)
(0.0365497 -0.0816991 0)
(0.00895372 -0.0630448 0)
(-0.0134075 -0.0462812 0)
(-0.0272589 -0.0348294 0)
(-0.0356494 -0.0266588 0)
(-0.0404273 -0.0202817 0)
(-0.0432184 -0.0146327 0)
(-0.0448114 -0.00938121 0)
(-0.045575 -0.00439079 0)
(-0.0455693 0.0003846 0)
(-0.0448203 0.00506099 0)
(-0.0432787 0.00982873 0)
(-0.0409604 0.0149239 0)
(-0.0380111 0.0206254 0)
(-0.0347369 0.0272777 0)
(-0.0317573 0.0353895 0)
(-0.0300235 0.0459645 0)
(-0.0297297 0.0618375 0)
(-0.0335571 0.0908474 0)
(-0.0542815 0.137512 0)
(-0.0448526 0.178633 0)
(-0.0164261 0.170513 0)
(-0.561766 0.0729667 0)
(0.724197 0.134489 0)
(0.0818443 0.115273 0)
(0.149796 0.0992086 0)
(0.222456 0.080498 0)
(0.244111 0.0699978 0)
(0.248888 0.047798 0)
(0.255155 0.0177167 0)
(0.261257 -0.0145388 0)
(0.260283 -0.0445781 0)
(0.249794 -0.0694329 0)
(0.229529 -0.0873743 0)
(0.201047 -0.097929 0)
(0.166707 -0.101404 0)
(0.129059 -0.0988245 0)
(0.0906406 -0.0914959 0)
(0.052933 -0.0801139 0)
(0.0188091 -0.0663911 0)
(-0.0121671 -0.0514724 0)
(-0.0337173 -0.0400271 0)
(-0.0478311 -0.0319604 0)
(-0.0560696 -0.0264436 0)
(-0.0608794 -0.0218551 0)
(-0.0637336 -0.0174605 0)
(-0.0654884 -0.0129842 0)
(-0.0665134 -0.00852016 0)
(-0.0669368 -0.00421313 0)
(-0.066727 -0.00013622 0)
(-0.0658503 0.00378065 0)
(-0.0642038 0.00774278 0)
(-0.0616878 0.0120801 0)
(-0.0583715 0.0172046 0)
(-0.0544362 0.0236399 0)
(-0.0502784 0.0321546 0)
(-0.046463 0.0440935 0)
(-0.0420498 0.0621431 0)
(-0.0342161 0.0916921 0)
(-0.0322485 0.138984 0)
(-0.0217802 0.197318 0)
(0.117778 0.188898 0)
(-0.454666 0.0399162 0)
(0.191849 0.0879739 0)
(0.225709 0.0997553 0)
(0.246501 0.0702265 0)
(0.242567 0.0400156 0)
(0.239752 0.0123921 0)
(0.234808 -0.0126281 0)
(0.220143 -0.0331334 0)
(0.196456 -0.0482799 0)
(0.166042 -0.0580327 0)
(0.131333 -0.0628618 0)
(0.0941135 -0.06308 0)
(0.0563788 -0.0594828 0)
(0.0201783 -0.0530391 0)
(-0.0151303 -0.0440084 0)
(-0.0420028 -0.0358685 0)
(-0.0618266 -0.0296353 0)
(-0.0745903 -0.0259576 0)
(-0.0823847 -0.0235206 0)
(-0.087095 -0.0213224 0)
(-0.0901472 -0.0186009 0)
(-0.0922305 -0.0152865 0)
(-0.093655 -0.0115835 0)
(-0.0945458 -0.00778199 0)
(-0.0949404 -0.00411948 0)
(-0.0948141 -0.000708565 0)
(-0.0941002 0.00249518 0)
(-0.092744 0.00564897 0)
(-0.0905296 0.00911155 0)
(-0.0873366 0.0133797 0)
(-0.0829779 0.0190579 0)
(-0.0772496 0.026931 0)
(-0.0699168 0.0381607 0)
(-0.059619 0.0546611 0)
(-0.0424453 0.0794208 0)
(-0.0202747 0.116177 0)
(-0.000942385 0.170174 0)
(0.168432 0.168143 0)
(-0.373076 0.0963728 0)
(0.450934 0.209696 0)
(0.205923 0.178713 0)
(0.15245 0.118773 0)
(0.139503 0.0640762 0)
(0.128302 0.0259688 0)
(0.114345 0.00189643 0)
(0.0990726 -0.0127892 0)
(0.0779878 -0.0218028 0)
(0.0530856 -0.0272142 0)
(0.0255219 -0.0294361 0)
(-0.0050053 -0.0283959 0)
(-0.034714 -0.025269 0)
(-0.0610004 -0.021678 0)
(-0.0826241 -0.0190616 0)
(-0.0980325 -0.0185262 0)
(-0.108133 -0.0192031 0)
(-0.114424 -0.0201907 0)
(-0.118655 -0.020283 0)
(-0.121873 -0.0190653 0)
(-0.124547 -0.0165843 0)
(-0.126801 -0.0131577 0)
(-0.128629 -0.00920599 0)
(-0.129986 -0.00518591 0)
(-0.130838 -0.00151943 0)
(-0.13119 0.0015035 0)
(-0.131059 0.00380899 0)
(-0.130373 0.00577093 0)
(-0.128893 0.00779957 0)
(-0.126259 0.0103144 0)
(-0.121908 0.0137791 0)
(-0.11514 0.0188066 0)
(-0.105176 0.0262839 0)
(-0.0905982 0.037387 0)
(-0.0683928 0.0534171 0)
(-0.03656 0.0760729 0)
(-0.00043225 0.113249 0)
(0.186249 0.131618 0)
(-0.360461 0.156245 0)
(0.358456 -0.416938 0)
(-0.346095 -0.512495 0)
(-0.218228 -0.0272724 0)
(-0.0933991 0.110968 0)
(-0.0538715 0.0925759 0)
(-0.0314306 0.0546094 0)
(-0.0265115 0.0284863 0)
(-0.0314279 0.0118275 0)
(-0.0402853 0.00116351 0)
(-0.0509706 -0.00564838 0)
(-0.0649214 -0.00960448 0)
(-0.0807883 -0.0115809 0)
(-0.0973909 -0.0129159 0)
(-0.113217 -0.0150898 0)
(-0.127032 -0.0182904 0)
(-0.137751 -0.0215511 0)
(-0.144603 -0.0245495 0)
(-0.148658 -0.0267283 0)
(-0.151506 -0.028003 0)
(-0.154188 -0.0283767 0)
(-0.157043 -0.0279472 0)
(-0.160052 -0.0268587 0)
(-0.163083 -0.0252862 0)
(-0.165987 -0.0233719 0)
(-0.168609 -0.0211591 0)
(-0.170735 -0.0185693 0)
(-0.172109 -0.0154751 0)
(-0.172488 -0.0119529 0)
(-0.17201 -0.00859539 0)
(-0.170767 -0.00533525 0)
(-0.168568 -0.00200306 0)
(-0.164946 0.00161247 0)
(-0.159179 0.00592171 0)
(-0.150367 0.0116512 0)
(-0.137045 0.0194858 0)
(-0.115959 0.0293941 0)
(-0.0815993 0.0419039 0)
(-0.029765 0.0650025 0)
(0.160159 0.113437 0)
(-0.496548 0.220761 0)
(0.122136 -0.186313 0)
(-0.3886 -0.298062 0)
(-0.343508 -0.0963757 0)
(-0.265197 0.0515236 0)
(-0.211495 0.0833954 0)
(-0.179354 0.0744511 0)
(-0.163065 0.0610489 0)
(-0.157029 0.0512416 0)
(-0.157037 0.0463073 0)
(-0.160252 0.046002 0)
(-0.164786 0.0494411 0)
(-0.169097 0.0553759 0)
(-0.172326 0.0624159 0)
(-0.174291 0.0687373 0)
(-0.175415 0.0719376 0)
(-0.176366 0.0688995 0)
(-0.177998 0.0621301 0)
(-0.180641 0.0559228 0)
(-0.184281 0.051915 0)
(-0.188617 0.0502291 0)
(-0.19321 0.0504601 0)
(-0.19761 0.0520866 0)
(-0.201442 0.0545307 0)
(-0.204471 0.0571223 0)
(-0.206615 0.059091 0)
(-0.207895 0.0596622 0)
(-0.20831 0.0583034 0)
(-0.207707 0.0554786 0)
(-0.20617 0.0524072 0)
(-0.203823 0.049132 0)
(-0.200593 0.0455604 0)
(-0.196086 0.0415901 0)
(-0.189623 0.0371213 0)
(-0.180693 0.0318191 0)
(-0.169078 0.0243716 0)
(-0.152985 0.0108975 0)
(-0.124079 -0.0107876 0)
(-0.0621704 -0.0219493 0)
(0.184951 0.0558463 0)
(-0.592304 0.24801 0)
(1.14913 -0.0109573 0)
(-0.297739 -0.323183 0)
(-0.353408 -0.2326 0)
(-0.353164 -0.148302 0)
(-0.329522 -0.107126 0)
(-0.29804 -0.0986457 0)
(-0.27092 -0.10084 0)
(-0.251177 -0.106415 0)
(-0.237724 -0.1137 0)
(-0.22837 -0.122607 0)
(-0.221176 -0.13355 0)
(-0.214927 -0.146901 0)
(-0.209218 -0.162264 0)
(-0.204336 -0.177895 0)
(-0.201157 -0.19052 0)
(-0.201019 -0.196401 0)
(-0.204938 -0.19637 0)
(-0.21237 -0.192947 0)
(-0.221798 -0.187591 0)
(-0.231728 -0.181469 0)
(-0.241027 -0.17541 0)
(-0.248933 -0.169874 0)
(-0.254975 -0.164965 0)
(-0.258922 -0.160504 0)
(-0.260786 -0.156146 0)
(-0.260877 -0.15151 0)
(-0.259762 -0.146323 0)
(-0.258069 -0.140754 0)
(-0.25609 -0.134967 0)
(-0.253853 -0.128807 0)
(-0.251461 -0.122367 0)
(-0.249061 -0.115897 0)
(-0.247058 -0.109511 0)
(-0.246937 -0.102701 0)
(-0.251723 -0.0943476 0)
(-0.261416 -0.0821584 0)
(-0.263535 -0.0597188 0)
(-0.245182 -0.0117042 0)
(-0.261813 0.0745742 0)
(-0.678141 0.185933 0)
)
;

boundaryField
{
    floor
    {
        type            noSlip;
    }
    ceiling
    {
        type            noSlip;
    }
    sWall
    {
        type            noSlip;
    }
    nWall
    {
        type            noSlip;
    }
    sideWalls
    {
        type            empty;
    }
    glass1
    {
        type            noSlip;
    }
    glass2
    {
        type            noSlip;
    }
    sun
    {
        type            noSlip;
    }
    Table_master
    {
        type            noSlip;
    }
    Table_slave
    {
        type            noSlip;
    }
    inlet
    {
        type            fixedValue;
        value           uniform (0.5 0 0);
    }
    outlet
    {
        type            zeroGradient;
    }
}


// ************************************************************************* //
