/*--------------------------------*- C++ -*----------------------------------*\
  =========                 |
  \\      /  F ield         | OpenFOAM: The Open Source CFD Toolbox
   \\    /   O peration     | Website:  https://openfoam.org
    \\  /    A nd           | Version:  6
     \\/     M anipulation  |
\*---------------------------------------------------------------------------*/
FoamFile
{
    version     2.0;
    format      ascii;
    class       volScalarField;
    location    "3520";
    object      alphat;
}
// * * * * * * * * * * * * * * * * * * * * * * * * * * * * * * * * * * * * * //

dimensions      [1 -1 -1 0 0 0 0];

internalField   nonuniform List<scalar> 
458
(
0.00124408
0.00135521
0.00138589
0.00145221
0.00151329
0.00157113
0.00162902
0.00168776
0.0017358
0.00176601
0.00176947
0.00173738
0.00165869
0.00149207
0.00113177
0.00055911
0.000655494
0.000743184
0.000774892
0.000762746
0.000713768
0.000659575
0.000611088
0.000569081
0.0005326
0.000500746
0.000472862
0.000448143
0.00042563
0.000404276
0.000382833
0.000370089
0.000340107
0.00167645
0.0037749
0.00348186
0.00398952
0.00449566
0.00501633
0.00548325
0.00584457
0.00621585
0.00656354
0.00684257
0.00701228
0.00702813
0.00678344
0.00551341
0.00149401
0.00123944
0.00101118
0.000554583
0.00131633
0.00191864
0.00238494
0.00253226
0.00184541
0.00155791
0.00136222
0.00121785
0.00110722
0.00101949
0.000943843
0.000872705
0.000801698
0.00073827
0.000684997
0.000837924
0.000447125
0.00203693
0.00507248
0.00418646
0.00510444
0.00549022
0.00576092
0.0059692
0.00616147
0.00642922
0.00675512
0.00711126
0.00746015
0.00773529
0.00783171
0.00737932
0.00601418
0.00455799
0.00119424
0.000854348
0.00147432
0.0021455
0.00281316
0.00300374
0.000959295
0.000839852
0.000740458
0.000659957
0.000594996
0.000542352
0.000499558
0.000464953
0.000438035
0.000485435
0.00056218
0.000983089
0.000528393
0.00238386
0.00647854
0.00407213
0.00528806
0.00549888
0.00547771
0.00545816
0.00555046
0.00576834
0.00609097
0.0065009
0.00695773
0.00735738
0.00760848
0.00755137
0.00716081
0.00614561
0.00337392
0.00137577
0.00175207
0.00240866
0.00321263
0.00390905
0.00394318
0.00108038
0.000990276
0.000928901
0.000883602
0.000845298
0.000807277
0.000771143
0.000732967
0.000688348
0.000648476
0.000639018
0.00117166
0.000608548
0.00273782
0.00836908
0.00427094
0.00501929
0.00532083
0.00514065
0.0049939
0.00507757
0.00530771
0.00564383
0.00608627
0.00658732
0.00697907
0.00717358
0.00716842
0.00703146
0.00662612
0.00547914
0.00496579
0.00500183
0.00529318
0.00564019
0.00585282
0.00575646
0.00491126
0.00447653
0.00423661
0.00406487
0.0038911
0.00366726
0.00328719
0.00279773
0.00224095
0.00170476
0.00127869
0.00119126
0.00103414
0.000813336
0.000860759
0.000935587
0.00311664
0.0104979
0.00584871
0.00464675
0.00506424
0.00505354
0.00486639
0.00493559
0.00517093
0.00550755
0.00595639
0.00643716
0.00679974
0.0069147
0.00680418
0.00664701
0.00657625
0.00648189
0.00667691
0.00701502
0.00725199
0.00729357
0.00713317
0.00679854
0.00633162
0.00595219
0.00565642
0.00539604
0.00514073
0.00486991
0.00451962
0.0040396
0.00343238
0.00274553
0.00210979
0.0015298
0.00125747
0.00109686
0.00138114
0.000970513
0.00348951
0.0121018
0.00872397
0.00570951
0.00496855
0.00503981
0.00510368
0.00514053
0.00527419
0.00557156
0.00601368
0.0064903
0.0068227
0.00685874
0.00664911
0.00649808
0.00674763
0.00730057
0.00786344
0.00818107
0.00818167
0.00790887
0.00744669
0.00688454
0.00632521
0.00587498
0.0055341
0.00525775
0.0050161
0.00479911
0.00460167
0.0043436
0.00391901
0.00335236
0.00276343
0.00219743
0.00182802
0.00167466
0.00159619
0.00115309
0.003579
0.0112159
0.0095271
0.00799789
0.00682805
0.00630987
0.00582341
0.00549385
0.00549003
0.00577429
0.00623175
0.00670253
0.00698176
0.00691634
0.00665971
0.00672353
0.00743659
0.00802156
0.00832579
0.00831134
0.00798052
0.00740876
0.00670459
0.00599541
0.00540642
0.00499371
0.0047154
0.00451548
0.00436768
0.00426803
0.00422383
0.00422569
0.00411257
0.00377581
0.00344728
0.00326423
0.00334404
0.00353013
0.00419298
0.00178523
0.00350477
0.00423041
0.0046753
0.00492486
0.00496213
0.00488889
0.00489241
0.00510057
0.00552042
0.00605415
0.00659954
0.00702842
0.00716513
0.00691725
0.00684659
0.00720809
0.00762625
0.00776942
0.0076654
0.00730208
0.00669375
0.00594207
0.00519269
0.00457761
0.0041523
0.00388144
0.00369973
0.00356168
0.00344396
0.00333336
0.00321986
0.00309522
0.00298225
0.00288463
0.00281982
0.00278317
0.00271362
0.00257062
0.00239692
0.00166668
0.00157968
0.00276075
0.00377678
0.00457238
0.00530114
0.00601018
0.00657166
0.00694701
0.00719046
0.00722424
0.00698562
0.00669679
0.00669737
0.00681711
0.00672527
0.00645433
0.0060272
0.00545219
0.00479044
0.00414439
0.00363023
0.00328405
0.00307184
0.00294169
0.00285518
0.00279217
0.00274382
0.0027081
0.00268803
0.00269431
0.00271003
0.00272406
0.00272479
0.00268155
0.00254856
0.00231432
0.00202416
0.00134113
0.00238088
0.00465363
0.00595102
0.00679148
0.00744514
0.00749533
0.00710334
0.00670981
0.00637237
0.00573417
0.00528026
0.00517422
0.00510239
0.0049025
0.00460141
0.00422828
0.00379065
0.00333051
0.00291579
0.00259318
0.00237088
0.00224275
0.00218277
0.00216988
0.00219126
0.0022385
0.0023045
0.00238085
0.00247007
0.00257281
0.00268262
0.00279049
0.00287823
0.00292209
0.00288122
0.00284551
0.00261982
0.00135857
0.00249156
0.00255347
0.00260944
0.00289324
0.00272908
0.00241442
0.00203368
0.00172835
0.00154177
0.00136495
0.00120949
0.0010879
0.000984972
0.000906964
0.000852736
0.000813118
0.000781262
0.000753852
0.000731221
0.000715953
0.00071026
0.000714544
0.00072723
0.000745878
0.000769442
0.000797367
0.000829471
0.000865995
0.000907529
0.000955349
0.00100974
0.00107031
0.00113738
0.00121125
0.00129196
0.00138868
0.00143099
0.00140165
0.00130371
0.00120559
)
;

boundaryField
{
    floor
    {
        type            compressible::alphatWallFunction;
        Prt             0.85;
        value           nonuniform List<scalar> 
36
(
0.000160683
7.82016e-05
9.26097e-05
0.000105495
0.000110108
0.000108344
0.000101195
9.32147e-05
8.60071e-05
7.97059e-05
7.4187e-05
6.93294e-05
6.50456e-05
6.12213e-05
5.77149e-05
5.4367e-05
5.09824e-05
4.89594e-05
4.41639e-05
4.41633e-05
6.10639e-05
7.35487e-05
8.56293e-05
0.00011568
0.000122504
0.000133176
0.000160681
0.000210146
0.000175549
0.000143834
7.82007e-05
0.000143833
7.75171e-05
0.000169326
0.000121569
0.000194169
)
;
    }
    ceiling
    {
        type            compressible::alphatWallFunction;
        Prt             0.85;
        value           nonuniform List<scalar> 
43
(
0.000340269
0.000348133
0.000355228
0.000391035
0.000370452
0.000330576
0.00028156
0.00024153
0.000216689
0.000192834
0.000171568
0.000154717
0.000140282
0.000129224
0.000121471
0.00011577
0.000111162
0.000107179
0.000103878
0.000101643
0.000100808
0.000101437
0.000103294
0.000106018
0.000109447
0.000113495
0.000118128
0.000123373
0.000129306
0.000136098
0.000143774
0.000152267
0.000161605
0.000171819
0.000182897
0.00019607
0.000201799
0.000197829
0.000184504
0.000171043
0.000467119
0.000555337
0.000326058
)
;
    }
    sWall
    {
        type            compressible::alphatWallFunction;
        Prt             0.85;
        value           uniform 0.000339027;
    }
    nWall
    {
        type            compressible::alphatWallFunction;
        Prt             0.85;
        value           nonuniform List<scalar> 6(0.000132957 0.000137898 0.000163425 0.000189266 0.000191637 0.000170702);
    }
    sideWalls
    {
        type            empty;
    }
    glass1
    {
        type            compressible::alphatWallFunction;
        Prt             0.85;
        value           nonuniform List<scalar> 9(0.000171655 0.000229167 0.000275988 0.000320298 0.000364869 0.000411952 0.000457758 0.000468814 0.000459996);
    }
    glass2
    {
        type            compressible::alphatWallFunction;
        Prt             0.85;
        value           nonuniform List<scalar> 2(0.000247083 0.000231539);
    }
    sun
    {
        type            compressible::alphatWallFunction;
        Prt             0.85;
        value           nonuniform List<scalar> 
14
(
0.000176205
0.000191374
0.000195541
0.000204514
0.000212738
0.000220491
0.000228219
0.000236031
0.000242396
0.000246389
0.000246844
0.000242604
0.000232168
0.000209884
)
;
    }
    Table_master
    {
        type            compressible::alphatWallFunction;
        Prt             0.85;
        value           nonuniform List<scalar> 9(0.00013667 0.000119635 0.00010524 9.341e-05 8.37354e-05 7.57993e-05 6.92775e-05 6.39522e-05 5.97751e-05);
    }
    Table_slave
    {
        type            compressible::alphatWallFunction;
        Prt             0.85;
        value           nonuniform List<scalar> 9(0.00015369 0.00014105 0.000132363 0.000125909 0.000120421 0.000114944 0.00010971 0.000104148 9.76033e-05);
    }
    inlet
    {
        type            fixedValue;
        value           uniform 1.94e-05;
    }
    outlet
    {
        type            zeroGradient;
    }
}


// ************************************************************************* //
