/*--------------------------------*- C++ -*----------------------------------*\
  =========                 |
  \\      /  F ield         | OpenFOAM: The Open Source CFD Toolbox
   \\    /   O peration     | Website:  https://openfoam.org
    \\  /    A nd           | Version:  6
     \\/     M anipulation  |
\*---------------------------------------------------------------------------*/
FoamFile
{
    version     2.0;
    format      ascii;
    class       volScalarField;
    location    "3200";
    object      nut;
}
// * * * * * * * * * * * * * * * * * * * * * * * * * * * * * * * * * * * * * //

dimensions      [0 2 -1 0 0 0 0];

internalField   nonuniform List<scalar> 
778
(
0.000894382
0.00095316
0.000949707
0.000990939
0.00102873
0.00106304
0.00109499
0.00112578
0.00115677
0.0011897
0.00122109
0.00125089
0.00128023
0.00131178
0.00134472
0.000632345
0.000905157
0.000912416
0.000890271
0.000853297
0.000803971
0.000754849
0.00070959
0.000668767
0.000632148
0.000599512
0.000570197
0.000543495
0.000518576
0.000494326
0.000468972
0.000447936
0.000405493
0.00131085
0.00258151
0.00226541
0.00261477
0.00286839
0.0031373
0.00340556
0.00365275
0.00385168
0.00396739
0.00403535
0.00400711
0.00380699
0.00331168
0.00241845
0.00147218
0.00140357
0.00134351
0.00113112
0.00192631
0.00266936
0.00310791
0.00312818
0.00246935
0.00211187
0.00186407
0.0016761
0.00152667
0.0013992
0.00128647
0.00118155
0.00107889
0.000986773
0.000907333
0.00102236
0.00051409
0.0016641
0.00360487
0.00267282
0.00382282
0.00427168
0.00465164
0.00499674
0.00530045
0.00555765
0.00575913
0.00595428
0.00615941
0.0063476
0.00645916
0.0063839
0.00584487
0.00427496
0.00164802
0.00142699
0.00305229
0.00425909
0.00482949
0.00439186
0.00115903
0.00100776
0.000891094
0.000799844
0.000727253
0.000668672
0.000620891
0.00058202
0.000551707
0.000606607
0.000713642
0.00113074
0.000584859
0.00200531
0.00485891
0.00255788
0.00429876
0.00496324
0.00531901
0.00558069
0.00577432
0.00591881
0.00603579
0.00620204
0.00648265
0.00689186
0.0074063
0.00792351
0.00817832
0.00768029
0.00573324
0.00164135
0.00379846
0.00565356
0.00659634
0.00682864
0.00582946
0.00132006
0.00120061
0.00110815
0.00103126
0.000965763
0.000906957
0.000851525
0.00079647
0.000736991
0.000688598
0.000714007
0.00122495
0.000643878
0.00234204
0.00643365
0.0025808
0.00408701
0.00510857
0.00541201
0.00552242
0.00552702
0.00547243
0.00542401
0.00549366
0.00576629
0.00626626
0.00697414
0.00779533
0.00855222
0.00903241
0.00902653
0.00810072
0.00824244
0.00843237
0.00845945
0.00828738
0.0077566
0.00617262
0.00533158
0.00475553
0.00428739
0.00382839
0.00338385
0.00294899
0.00251476
0.00206879
0.00158897
0.00121228
0.00121229
0.000958918
0.000768186
0.00102346
0.000975746
0.00267367
0.00819697
0.00303847
0.0034469
0.00489516
0.00523176
0.00520519
0.00501816
0.00475062
0.00453001
0.00452525
0.00481095
0.00538058
0.00620116
0.0071617
0.00812206
0.00893931
0.00946203
0.00955756
0.00946229
0.0092952
0.00905756
0.00875156
0.00836186
0.00779325
0.00724551
0.00674825
0.00626736
0.00574819
0.00519394
0.0046021
0.0039677
0.00328679
0.00256434
0.00190976
0.0014339
0.00111347
0.00125797
0.00219924
0.00116456
0.00301223
0.00982855
0.00404944
0.00282407
0.00439893
0.0049491
0.00488818
0.00458514
0.0041455
0.00375903
0.00374838
0.00410934
0.00476135
0.00567854
0.00672192
0.00775537
0.00864534
0.00928334
0.00957738
0.00955555
0.00934653
0.00902924
0.0086655
0.00830238
0.00795106
0.00762869
0.00732579
0.00700219
0.00661126
0.00614082
0.00558406
0.00493845
0.00420662
0.00340694
0.00262428
0.00189457
0.00139481
0.00125339
0.00224159
0.00137741
0.00330359
0.0110655
0.00552218
0.00268907
0.0034852
0.00438813
0.0045138
0.00426444
0.00374519
0.00321924
0.00333929
0.00381683
0.00454615
0.00549121
0.00657497
0.00765655
0.00857944
0.00922107
0.00951302
0.00947578
0.00920568
0.00880669
0.00837722
0.00799615
0.00770237
0.00749252
0.0073288
0.00715046
0.00690197
0.00655418
0.00609363
0.0055178
0.0048324
0.00405743
0.00324997
0.00243047
0.00169157
0.00114355
0.00329781
0.00182483
0.00339333
0.0104832
0.00683792
0.00347753
0.00236234
0.00289612
0.00338963
0.00343092
0.00302979
0.00294519
0.00325152
0.00381304
0.00460192
0.00560465
0.00674089
0.00785568
0.00877468
0.0093659
0.00957356
0.00943092
0.00903883
0.0085244
0.00801386
0.00760645
0.00734793
0.00722125
0.00716399
0.0070956
0.00695266
0.00670129
0.00632821
0.00583228
0.00522007
0.00450746
0.00372311
0.00283774
0.00162067
0.00146916
0.00522309
0.00206604
0.00332461
0.0084574
0.00706667
0.00477619
0.00315259
0.00244054
0.00231215
0.0024217
0.00262531
0.00294965
0.0034096
0.00404166
0.00490027
0.00598243
0.00718132
0.00831183
0.00918182
0.00965972
0.00970818
0.00938514
0.00881798
0.00816568
0.00758344
0.00718447
0.00700184
0.00698113
0.00702152
0.00702111
0.00692867
0.00672519
0.00640454
0.00596669
0.0054153
0.00475418
0.00396437
0.00284301
0.00123346
0.00271148
0.00490566
0.00210133
0.00311429
0.00723103
0.00683548
0.00546842
0.00420637
0.00338517
0.00297934
0.00288781
0.00305624
0.00336612
0.00381583
0.00448329
0.00543257
0.00662056
0.00788152
0.00898774
0.00973543
0.0100101
0.0098098
0.00923393
0.00845461
0.007675
0.00708232
0.00678468
0.00675103
0.00685038
0.00695051
0.0069522
0.00685466
0.00665777
0.00635803
0.00595168
0.00543191
0.00477432
0.00388602
0.00256468
0.00134566
0.0028687
0.00544487
0.00212692
0.002836
0.00652172
0.0065962
0.00579117
0.00492444
0.00427248
0.00388876
0.00375127
0.00378593
0.00397284
0.00438544
0.00513162
0.0062308
0.00754858
0.00883718
0.0098309
0.0103369
0.0102855
0.00973534
0.0088477
0.00786158
0.00703733
0.00656895
0.0064757
0.00656104
0.00669468
0.00678126
0.00675626
0.00664234
0.00644248
0.0061512
0.00575533
0.00521847
0.00445679
0.00330606
0.00198485
0.00158366
0.00320757
0.00553747
0.00224945
0.00258657
0.00583658
0.0063014
0.00591926
0.00536209
0.00489452
0.00458364
0.0044317
0.00438607
0.00454447
0.00506787
0.00604417
0.00737659
0.00880513
0.0100098
0.010725
0.0108149
0.0102926
0.0093087
0.0081081
0.00702376
0.0063246
0.00601619
0.00598474
0.00608579
0.00621373
0.00628965
0.00626248
0.00614417
0.00593879
0.00563772
0.00520899
0.00455473
0.00349247
0.00216629
0.00156237
0.00199965
0.00369317
0.00567291
0.00224312
0.00259495
0.00579402
0.00643937
0.00599222
0.0055409
0.00517149
0.00490507
0.00473197
0.00472245
0.00510706
0.00603156
0.00741734
0.00898295
0.0103641
0.0112385
0.011418
0.0108871
0.00977565
0.00836814
0.00700385
0.0060104
0.0054237
0.00515754
0.00511382
0.00519501
0.00530731
0.00537236
0.00534035
0.00520471
0.00497556
0.00464268
0.0041534
0.00337659
0.00230604
0.00158791
0.00172483
0.00252031
0.00382513
0.00502633
0.00209467
0.00234209
0.00243611
0.00359172
0.00421826
0.00441125
0.00441334
0.00436971
0.00444815
0.004983
0.00613083
0.00775308
0.00951009
0.011016
0.0119453
0.0121055
0.0114621
0.0101773
0.00850461
0.00690825
0.00565416
0.00481334
0.00434067
0.00414024
0.00410103
0.00413516
0.00417251
0.00415743
0.00406009
0.00386549
0.00360262
0.00328298
0.00289316
0.00239325
0.00185308
0.00162695
0.00198814
0.00283518
0.00385537
0.00444217
0.00198605
0.000806324
0.00146235
0.00225735
0.00289904
0.00364149
0.00489391
0.0067396
0.00879638
0.0106791
0.0120953
0.0128398
0.0127744
0.0118993
0.0103127
0.00842549
0.00663987
0.0052237
0.0042821
0.00377471
0.00353971
0.00343722
0.00338683
0.00334086
0.0032651
0.00313983
0.00296813
0.00277073
0.00257562
0.00240388
0.00225526
0.00211525
0.00198814
0.00197683
0.00229762
0.0030636
0.00411007
0.00515829
0.00203222
0.00149733
0.00207598
0.00303135
0.00473794
0.00705426
0.00938198
0.0111919
0.0125104
0.0133229
0.0135674
0.0131338
0.0119093
0.0100821
0.00800747
0.00610098
0.00467721
0.00384834
0.00345877
0.00329362
0.0032236
0.00318769
0.0031532
0.00309939
0.00301655
0.00290977
0.0027974
0.00270002
0.00263027
0.00259007
0.00257223
0.00257242
0.00260194
0.00270445
0.00298024
0.00360968
0.00491439
0.00555367
0.00218367
0.0027569
0.00667996
0.00613989
0.00548204
0.00696996
0.00930332
0.011279
0.0126225
0.0133444
0.0135406
0.0132952
0.0125595
0.0112754
0.00947661
0.0074153
0.00555022
0.00429583
0.00366554
0.00340925
0.00332493
0.0033145
0.00333108
0.00334707
0.00334536
0.00331972
0.0032753
0.00322497
0.00318222
0.00315546
0.00314769
0.00315956
0.00319615
0.0032675
0.00339272
0.00360835
0.00398644
0.00467317
0.00624307
0.0063339
0.00226054
0.0026386
0.00509803
0.00657122
0.00839749
0.00933048
0.0102987
0.010868
0.0110135
0.0108143
0.0103262
0.00956687
0.00853303
0.00725652
0.0058806
0.00464882
0.00379017
0.00331784
0.00310316
0.00303661
0.00305569
0.00312187
0.00320564
0.00328339
0.0033399
0.00337097
0.0033823
0.00338421
0.00338528
0.00338989
0.00340125
0.00342747
0.0034857
0.00360233
0.00380671
0.00412768
0.00459671
0.00524141
0.00639804
0.00667385
0.00232629
0.00247406
0.0021204
0.00211032
0.00217261
0.00222465
0.00216095
0.00203519
0.00188817
0.00174045
0.00159868
0.00146335
0.00133551
0.00122163
0.00113367
0.00108218
0.00106016
0.00105703
0.001065
0.00107884
0.00109532
0.00111246
0.00112914
0.00114496
0.00116014
0.00117545
0.00119203
0.00121127
0.00123482
0.00126481
0.0013042
0.00135671
0.00142602
0.00151399
0.0016194
0.00173864
0.00186864
0.00200857
0.00215681
0.00230405
0.00216221
)
;

boundaryField
{
    floor
    {
        type            nutkWallFunction;
        Cmu             0.09;
        kappa           0.41;
        E               9.8;
        value           nonuniform List<scalar> 
36
(
0.000160559
7.63794e-05
0.000109496
0.000110359
0.000107723
0.000103304
9.73737e-05
9.14249e-05
8.59032e-05
8.08866e-05
7.63552e-05
7.22898e-05
6.86152e-05
6.52479e-05
6.2087e-05
5.8993e-05
5.57376e-05
5.302e-05
4.74864e-05
4.74863e-05
6.15155e-05
7.04552e-05
7.7809e-05
9.30435e-05
0.000123472
0.000117855
0.00016056
0.000174985
0.000167238
0.000160421
7.63793e-05
0.000160421
0.000136029
0.000194663
0.000169885
0.00019392
)
;
    }
    ceiling
    {
        type            nutkWallFunction;
        Cmu             0.09;
        kappa           0.41;
        E               9.8;
        value           nonuniform List<scalar> 
43
(
0.00028436
0.000246404
0.000245315
0.000252053
0.000257671
0.000250817
0.000237204
0.000221167
0.000204914
0.000189176
0.000174011
0.000159544
0.000146524
0.000136364
0.000130364
0.000127784
0.000127411
0.000128337
0.000129953
0.000131879
0.00013388
0.000135826
0.000137668
0.000139432
0.000141205
0.000143118
0.000145328
0.000148021
0.000151435
0.000155897
0.00016182
0.000169607
0.00017946
0.000191226
0.000204475
0.000218828
0.000234165
0.000250301
0.000266232
0.000250918
0.000270466
0.000280514
0.000177606
)
;
    }
    sWall
    {
        type            nutkWallFunction;
        Cmu             0.09;
        kappa           0.41;
        E               9.8;
        value           nonuniform List<scalar> 9(0.000373885 0.000352067 0.000322963 0.000296628 0.000297512 0.000270556 0.000314329 0.000301874 0.000284461);
    }
    nWall
    {
        type            nutkWallFunction;
        Cmu             0.09;
        kappa           0.41;
        E               9.8;
        value           nonuniform List<scalar> 
14
(
0.000117862
0.00013991
0.000164287
0.000244443
0.000247253
0.000260431
0.000259343
0.000243361
0.000231735
0.000237196
0.000253335
0.000261594
0.000268606
0.000250956
)
;
    }
    sideWalls
    {
        type            empty;
    }
    glass1
    {
        type            nutkWallFunction;
        Cmu             0.09;
        kappa           0.41;
        E               9.8;
        value           nonuniform List<scalar> 9(0.000108256 0.00015689 0.000196744 0.000234355 0.000270797 0.000306146 0.000341763 0.000372084 0.000381377);
    }
    glass2
    {
        type            nutkWallFunction;
        Cmu             0.09;
        kappa           0.41;
        E               9.8;
        value           nonuniform List<scalar> 2(0.000214371 0.000240696);
    }
    sun
    {
        type            nutkWallFunction;
        Cmu             0.09;
        kappa           0.41;
        E               9.8;
        value           nonuniform List<scalar> 
14
(
0.000108215
0.000115192
0.000114784
0.000119651
0.000124091
0.000128107
0.000131832
0.000135411
0.000139003
0.000142807
0.000146421
0.000149843
0.000153204
0.000156808
)
;
    }
    Table_master
    {
        type            nutkWallFunction;
        Cmu             0.09;
        kappa           0.41;
        E               9.8;
        value           nonuniform List<scalar> 9(0.000139254 0.000121623 0.000107818 9.68748e-05 8.80644e-05 8.08785e-05 7.49614e-05 7.01071e-05 6.62942e-05);
    }
    Table_slave
    {
        type            nutkWallFunction;
        Cmu             0.09;
        kappa           0.41;
        E               9.8;
        value           nonuniform List<scalar> 9(0.000157739 0.000144053 0.000133354 0.000124381 0.000116676 0.000109707 0.00010309 9.64674e-05 8.92522e-05);
    }
    inlet
    {
        type            calculated;
        value           uniform 0.000167705;
    }
    outlet
    {
        type            calculated;
        value           nonuniform List<scalar> 2(0.0027569 0.00667996);
    }
}


// ************************************************************************* //
