/*--------------------------------*- C++ -*----------------------------------*\
  =========                 |
  \\      /  F ield         | OpenFOAM: The Open Source CFD Toolbox
   \\    /   O peration     | Website:  https://openfoam.org
    \\  /    A nd           | Version:  6
     \\/     M anipulation  |
\*---------------------------------------------------------------------------*/
FoamFile
{
    version     2.0;
    format      ascii;
    class       volScalarField;
    location    "560";
    object      epsilon;
}
// * * * * * * * * * * * * * * * * * * * * * * * * * * * * * * * * * * * * * //

dimensions      [0 2 -3 0 0 0 0];

internalField   nonuniform List<scalar> 
458
(
0.000437499
0.000564623
0.000604372
0.000695639
0.000787505
0.000881722
0.000983354
0.00109396
0.00119015
0.00125309
0.00125975
0.00119133
0.00103497
0.00074795
0.000329322
3.9647e-05
6.38404e-05
9.32502e-05
0.000106043
0.000101252
8.29012e-05
6.53478e-05
5.19239e-05
4.19099e-05
3.4339e-05
2.85291e-05
2.40186e-05
2.04434e-05
1.75153e-05
1.50113e-05
1.27497e-05
1.15e-05
8.9152e-06
0.00106926
0.00159051
0.000524895
0.000509371
0.000525831
0.000559227
0.000615958
0.000699826
0.0007926
0.000867666
0.000895543
0.000859956
0.000767019
0.000630707
0.000507157
0.000757909
0.000433358
0.000234951
3.85701e-05
7.59123e-05
9.40661e-05
9.50195e-05
9.1389e-05
9.17247e-05
7.18171e-05
5.43842e-05
4.14438e-05
3.20008e-05
2.50876e-05
1.99856e-05
1.61714e-05
1.33282e-05
1.15344e-05
1.07942e-05
3.0341e-05
2.00685e-05
0.00191873
0.00385473
0.00061019
0.000464204
0.000472581
0.000515891
0.000589952
0.000695395
0.00081076
0.00089911
0.000932911
0.000901701
0.000813721
0.000676047
0.000525173
0.000422981
0.00035901
0.000389384
0.000139689
0.000140245
0.000127265
0.00011347
0.000105564
0.000201746
0.000135215
9.25493e-05
6.54414e-05
4.78919e-05
3.62245e-05
2.82713e-05
2.27659e-05
1.90177e-05
1.49335e-05
1.31992e-05
6.43839e-05
3.30283e-05
0.00307743
0.00800081
0.000911854
0.000444401
0.000435087
0.000488547
0.000584724
0.000731084
0.000877676
0.000974117
0.00100578
0.000968387
0.000867966
0.000713775
0.000557082
0.000439556
0.000372122
0.000385885
0.000593793
0.000381555
0.00024946
0.000181801
0.00014351
0.000125808
0.000289482
0.000222781
0.00018361
0.000157745
0.000137831
0.000119886
0.000104345
8.94577e-05
7.3957e-05
4.56883e-05
2.93926e-05
0.000113849
5.04151e-05
0.00466738
0.0144326
0.00175412
0.000476972
0.000401228
0.000458941
0.000600603
0.000850213
0.00103616
0.00113002
0.00114707
0.00108638
0.000951766
0.000764786
0.00057347
0.000427116
0.000337745
0.000307967
0.000309189
0.000258499
0.000213837
0.000179184
0.00014991
0.00012516
0.000115831
0.000106161
9.95114e-05
9.38293e-05
8.75303e-05
7.98628e-05
7.17768e-05
6.38448e-05
5.63867e-05
4.63007e-05
3.63048e-05
7.44538e-05
0.000113714
0.000120429
0.000143095
0.000183874
0.00689339
0.0217413
0.00402936
0.00080284
0.000473706
0.000484029
0.000722033
0.00114508
0.00132838
0.00138772
0.00136557
0.0012665
0.00108351
0.000836888
0.000586036
0.000395293
0.00028441
0.000243726
0.000233508
0.000223445
0.000206152
0.000181373
0.000153268
0.000126949
0.000109802
0.000102823
0.00010123
0.000100458
9.79952e-05
9.22056e-05
8.21313e-05
7.07933e-05
6.00841e-05
5.03527e-05
4.35807e-05
5.54697e-05
8.79711e-05
0.000105736
0.00020614
0.000205241
0.00967884
0.0262042
0.00883244
0.00283492
0.00148319
0.00117214
0.0015234
0.0017595
0.00181452
0.00177651
0.00167701
0.00150813
0.00124859
0.000920333
0.000596154
0.000361811
0.000239692
0.000205385
0.000207801
0.000208513
0.000195219
0.000171393
0.000145019
0.000122968
0.000111045
0.000109944
0.000114616
0.000120735
0.000125977
0.000128162
0.000123892
0.000111019
9.75775e-05
8.61307e-05
8.07089e-05
8.89713e-05
0.000120765
0.000176934
0.000327262
0.000345077
0.0104633
0.0300473
0.0160955
0.009682
0.00601889
0.0042423
0.00343266
0.00291417
0.00257207
0.00231531
0.00207356
0.00179124
0.00141798
0.00098019
0.000567659
0.000305063
0.000194944
0.000179206
0.000184657
0.000182
0.000166507
0.000145456
0.000126758
0.000115385
0.000113466
0.000119853
0.000131624
0.000147014
0.000165632
0.000187394
0.000211529
0.000232336
0.000245767
0.000273229
0.00032943
0.000480538
0.000820603
0.00137648
0.00409847
0.00128011
0.00985508
0.0172602
0.0132395
0.00999088
0.00751619
0.0058105
0.00461104
0.00381932
0.00328763
0.00286731
0.00247197
0.00204284
0.00150318
0.000921583
0.00040799
0.000218976
0.00016204
0.000150884
0.000147743
0.000139894
0.000127015
0.000114286
0.000106179
0.00010484
0.000110343
0.000121676
0.000138043
0.000159717
0.000188044
0.000225264
0.000274442
0.00033919
0.000426424
0.000550997
0.000732576
0.0009744
0.00124761
0.00149451
0.001699
0.00104348
0.00345865
0.0046992
0.00511789
0.00504768
0.00477288
0.00437487
0.00384633
0.0032228
0.00260325
0.00197971
0.0011577
0.000531789
0.000252038
0.000158936
0.000129037
0.00011819
0.000110793
0.000102726
9.4895e-05
8.92046e-05
8.75084e-05
9.02696e-05
9.70887e-05
0.000107539
0.000121607
0.000139869
0.000163564
0.000194804
0.000237033
0.000296026
0.000377381
0.000487341
0.000628426
0.000784619
0.000909368
0.000943316
0.000870611
0.000543837
0.00289482
0.00869069
0.00838322
0.00727856
0.00617686
0.0048714
0.00354011
0.00227996
0.00130244
0.000713806
0.000371354
0.000210874
0.00014673
0.000119454
0.000106249
9.73321e-05
8.94514e-05
8.25446e-05
7.76063e-05
7.53364e-05
7.58585e-05
7.92724e-05
8.55412e-05
9.48473e-05
0.000107714
0.00012505
0.00014825
0.000179391
0.000221428
0.000278103
0.000354551
0.000455967
0.000583164
0.000725557
0.000838401
0.000951841
0.000733987
0.000565481
0.00337309
0.00363124
0.0038762
0.00534105
0.00450701
0.003134
0.00189564
0.00118313
0.000843511
0.000584245
0.000403237
0.000291049
0.000213411
0.000165569
0.000137235
0.000118747
0.000105131
9.4295e-05
8.59586e-05
8.06579e-05
7.87881e-05
8.02784e-05
8.48359e-05
9.17449e-05
0.000100933
0.000112542
0.000126919
0.000144656
0.000166712
0.000194728
0.000230161
0.000274379
0.000329551
0.000398368
0.000483861
0.000601472
0.000657852
0.000617963
0.000497349
0.000393461
)
;

boundaryField
{
    floor
    {
        Cmu             0.09;
        kappa           0.41;
        E               9.8;
        type            epsilonWallFunction;
        value           nonuniform List<scalar> 
36
(
0.000329322
3.9647e-05
6.38404e-05
9.32502e-05
0.000106043
0.000101252
8.29012e-05
6.53478e-05
5.19239e-05
4.19099e-05
3.4339e-05
2.85291e-05
2.40186e-05
2.04434e-05
1.75153e-05
1.50113e-05
1.27497e-05
1.15e-05
8.9152e-06
8.9152e-06
2.00685e-05
3.30283e-05
5.04151e-05
0.000120429
0.000143095
0.000183874
0.000329322
0.000757909
0.000433358
0.000234951
3.9647e-05
0.000234951
3.85701e-05
0.000389384
0.000139689
0.000593793
)
;
    }
    ceiling
    {
        Cmu             0.09;
        kappa           0.41;
        E               9.8;
        type            epsilonWallFunction;
        value           nonuniform List<scalar> 
43
(
0.00337309
0.00363124
0.0038762
0.00534105
0.00450701
0.003134
0.00189564
0.00118313
0.000843511
0.000584245
0.000403237
0.000291049
0.000213411
0.000165569
0.000137235
0.000118747
0.000105131
9.4295e-05
8.59586e-05
8.06579e-05
7.87881e-05
8.02784e-05
8.48359e-05
9.17449e-05
0.000100933
0.000112542
0.000126919
0.000144656
0.000166712
0.000194728
0.000230161
0.000274379
0.000329551
0.000398368
0.000483861
0.000601472
0.000657852
0.000617963
0.000497349
0.000393461
0.00985508
0.0172602
0.00289482
)
;
    }
    sWall
    {
        Cmu             0.09;
        kappa           0.41;
        E               9.8;
        type            epsilonWallFunction;
        value           uniform 0.00337309;
    }
    nWall
    {
        Cmu             0.09;
        kappa           0.41;
        E               9.8;
        type            epsilonWallFunction;
        value           nonuniform List<scalar> 6(0.000183874 0.000205241 0.000345077 0.000543837 0.000565481 0.000393461);
    }
    sideWalls
    {
        type            empty;
    }
    glass1
    {
        Cmu             0.09;
        kappa           0.41;
        E               9.8;
        type            epsilonWallFunction;
        value           nonuniform List<scalar> 9(0.000437499 0.00106926 0.00191873 0.00307743 0.00466738 0.00689339 0.00967884 0.0104633 0.00985508);
    }
    glass2
    {
        Cmu             0.09;
        kappa           0.41;
        E               9.8;
        type            epsilonWallFunction;
        value           nonuniform List<scalar> 2(0.00128011 0.00104348);
    }
    sun
    {
        Cmu             0.09;
        kappa           0.41;
        E               9.8;
        type            epsilonWallFunction;
        value           nonuniform List<scalar> 
14
(
0.000437499
0.000564623
0.000604372
0.000695639
0.000787505
0.000881722
0.000983354
0.00109396
0.00119015
0.00125309
0.00125975
0.00119133
0.00103497
0.00074795
)
;
    }
    Table_master
    {
        Cmu             0.09;
        kappa           0.41;
        E               9.8;
        type            epsilonWallFunction;
        value           nonuniform List<scalar> 9(0.000201746 0.000135215 9.25493e-05 6.54414e-05 4.78919e-05 3.62245e-05 2.82713e-05 2.27659e-05 1.90177e-05);
    }
    Table_slave
    {
        Cmu             0.09;
        kappa           0.41;
        E               9.8;
        type            epsilonWallFunction;
        value           nonuniform List<scalar> 9(0.000289482 0.000222781 0.00018361 0.000157745 0.000137831 0.000119886 0.000104345 8.94577e-05 7.3957e-05);
    }
    inlet
    {
        type            turbulentMixingLengthDissipationRateInlet;
        mixingLength    0.01;
        phi             phi;
        k               k;
        value           uniform 0.000471672;
    }
    outlet
    {
        type            zeroGradient;
    }
}


// ************************************************************************* //
