/*--------------------------------*- C++ -*----------------------------------*\
  =========                 |
  \\      /  F ield         | OpenFOAM: The Open Source CFD Toolbox
   \\    /   O peration     | Website:  https://openfoam.org
    \\  /    A nd           | Version:  6
     \\/     M anipulation  |
\*---------------------------------------------------------------------------*/
FoamFile
{
    version     2.0;
    format      ascii;
    class       volScalarField;
    location    "560";
    object      nut;
}
// * * * * * * * * * * * * * * * * * * * * * * * * * * * * * * * * * * * * * //

dimensions      [0 2 -1 0 0 0 0];

internalField   nonuniform List<scalar> 
458
(
0.00107326
0.0011685
0.0011953
0.00125268
0.00130555
0.00135567
0.00140588
0.00145672
0.00149823
0.00152419
0.00152688
0.00149872
0.00143005
0.00128332
0.000976302
0.000482074
0.000565035
0.000641102
0.000669172
0.000658938
0.000616448
0.000569447
0.000527431
0.000491076
0.000459522
0.000431989
0.000407905
0.00038657
0.000367155
0.000348751
0.000330276
0.000319112
0.000293148
0.00144568
0.00325997
0.00300961
0.00344902
0.00388825
0.00433952
0.00474348
0.00505743
0.00537934
0.00567998
0.00592045
0.00606537
0.00607605
0.00585748
0.00474555
0.00128899
0.00106986
0.000872374
0.00047767
0.00113569
0.00165728
0.00206092
0.00218839
0.00159281
0.00134362
0.0011741
0.001049
0.000953252
0.000877309
0.000812255
0.000751129
0.000690009
0.000635261
0.000589525
0.00072064
0.000384194
0.00175677
0.00438329
0.0036244
0.00441484
0.00475043
0.00498655
0.00516816
0.00533698
0.00557049
0.00585362
0.00616273
0.00646481
0.00670017
0.00677565
0.00637732
0.005198
0.00393336
0.00103237
0.000733554
0.0012681
0.00184963
0.0024286
0.00259481
0.000829172
0.000725635
0.000639491
0.000569719
0.00051341
0.000467783
0.000430684
0.000400687
0.000377367
0.000418024
0.000484404
0.000846536
0.000453601
0.0020564
0.0055948
0.00352978
0.00457504
0.00475964
0.00474366
0.00472916
0.00481126
0.00500149
0.0052824
0.00563956
0.00603701
0.00637971
0.00658831
0.00653406
0.00619334
0.00531193
0.00291524
0.00118829
0.00150585
0.00207063
0.00276715
0.00337392
0.00340808
0.000935226
0.000857042
0.000803542
0.000763885
0.000730285
0.000697107
0.000665582
0.00063229
0.000593432
0.000558521
0.000550454
0.00100933
0.000522275
0.00236267
0.00722308
0.00370423
0.00434538
0.00460837
0.00445541
0.0043315
0.0044051
0.00460431
0.00489642
0.00528245
0.00571911
0.00605272
0.00621529
0.00620665
0.00608553
0.00573149
0.00473779
0.00428168
0.00431593
0.00457115
0.0048757
0.00506493
0.00498595
0.00425575
0.00387769
0.00366797
0.0035173
0.00336487
0.00316627
0.00283559
0.0024114
0.00192991
0.00146698
0.00110036
0.00102717
0.000888474
0.000698162
0.00073947
0.000803932
0.00269064
0.009057
0.00506818
0.00402995
0.00438927
0.00438599
0.00422371
0.00428671
0.00448715
0.00477929
0.00517149
0.00558896
0.00589897
0.00599272
0.00589408
0.00575777
0.00569576
0.00561094
0.00577403
0.00606768
0.0062771
0.00631983
0.00618803
0.00590402
0.00550234
0.00517359
0.00491585
0.00468757
0.00446263
0.00422311
0.00391298
0.00349188
0.00296251
0.00236684
0.00181793
0.00132007
0.00108359
0.000943906
0.00118805
0.000833937
0.00301291
0.0104398
0.00754273
0.00495759
0.00432421
0.00439132
0.00443959
0.00446419
0.00457636
0.00483588
0.00522385
0.00563841
0.00592137
0.00594523
0.00576169
0.00563397
0.00585136
0.00632561
0.00680973
0.00708913
0.00709669
0.00686928
0.00647811
0.0059984
0.00551629
0.00512349
0.00482214
0.00457576
0.00435951
0.00416527
0.00398876
0.00375899
0.00338746
0.0028946
0.00238476
0.00189669
0.00157767
0.0014444
0.00137597
0.000991632
0.0030922
0.00967434
0.00822337
0.00691723
0.0059231
0.00548726
0.00505217
0.00476097
0.00475875
0.00501219
0.00541715
0.00582695
0.00606139
0.00599471
0.00577259
0.00583607
0.00645234
0.00695296
0.00721931
0.00721666
0.00694055
0.00645522
0.00585283
0.00523932
0.0047228
0.00435521
0.00410413
0.00392243
0.0037872
0.00369513
0.00365219
0.00365015
0.00354925
0.00325768
0.00297442
0.00281648
0.00288416
0.00304268
0.00360982
0.00153507
0.00303109
0.00365365
0.00403428
0.00424623
0.00427757
0.0042136
0.00422064
0.00440755
0.00478223
0.00526092
0.00574603
0.00611599
0.00621915
0.00598928
0.00594392
0.00625737
0.00661632
0.00674189
0.00665929
0.00635601
0.00583832
0.00519187
0.00453876
0.00399569
0.00361523
0.00337072
0.00320626
0.00308169
0.00297614
0.00287779
0.00277772
0.00266866
0.00257055
0.00248596
0.00242964
0.00239734
0.00233667
0.00221309
0.00206347
0.00143397
0.00132876
0.0023375
0.00321833
0.00391806
0.00456338
0.00519714
0.00570697
0.00605891
0.00627514
0.00628343
0.0060518
0.00578057
0.00578916
0.00590266
0.00583199
0.00560471
0.00524004
0.0047441
0.00417191
0.0036055
0.00314957
0.00284063
0.00265106
0.00253531
0.00245923
0.00240442
0.00236282
0.00233237
0.00231538
0.00232114
0.00233474
0.00234689
0.0023475
0.00231025
0.00219572
0.00199431
0.00174478
0.00115399
0.0020149
0.00397639
0.00512364
0.00587598
0.00646168
0.00651711
0.00620357
0.0058894
0.00555246
0.00495572
0.00454951
0.00445421
0.0043985
0.004232
0.003974
0.00364957
0.00326672
0.00286267
0.00249886
0.00222031
0.00202716
0.00191708
0.00186692
0.00185772
0.00187788
0.00192013
0.00197836
0.0020453
0.00212367
0.00221293
0.00230816
0.00240154
0.00247747
0.00251546
0.00247998
0.0024491
0.00225874
0.0011691
0.00212025
0.00217302
0.00222082
0.00247127
0.00233529
0.00206892
0.00174969
0.00149527
0.00133579
0.00118188
0.00104447
0.000936915
0.000844861
0.000776319
0.000729237
0.0006949
0.000667253
0.000643493
0.000623942
0.000610844
0.000606087
0.000609884
0.000621213
0.000637639
0.000658251
0.000682577
0.000710487
0.00074215
0.0007781
0.000819449
0.00086641
0.000918677
0.000976533
0.00104026
0.00110991
0.00119339
0.00122957
0.0012042
0.00112012
0.00103597
)
;

boundaryField
{
    floor
    {
        type            nutkWallFunction;
        Cmu             0.09;
        kappa           0.41;
        E               9.8;
        value           nonuniform List<scalar> 
36
(
0.000117927
5.74202e-05
6.79641e-05
7.74649e-05
8.09357e-05
7.96724e-05
7.44015e-05
6.85192e-05
6.32103e-05
5.85745e-05
5.45162e-05
5.09466e-05
4.78005e-05
4.49937e-05
4.24222e-05
3.99685e-05
3.74882e-05
3.59808e-05
3.24473e-05
3.24473e-05
4.46791e-05
5.37499e-05
6.25541e-05
8.45008e-05
8.95523e-05
9.73695e-05
0.000117927
0.000154208
0.000128904
0.000105588
5.74201e-05
0.000105588
5.68542e-05
0.00012452
8.88316e-05
0.000142647
)
;
    }
    ceiling
    {
        type            nutkWallFunction;
        Cmu             0.09;
        kappa           0.41;
        E               9.8;
        value           nonuniform List<scalar> 
43
(
0.000246309
0.000252006
0.000257157
0.000284029
0.000269547
0.00024086
0.00020593
0.000177587
0.00015955
0.00014191
0.00012594
0.000113271
0.000102294
9.40301e-05
8.83041e-05
8.41004e-05
8.06978e-05
7.776e-05
7.53329e-05
7.37017e-05
7.31082e-05
7.3582e-05
7.49934e-05
7.70342e-05
7.95863e-05
8.25859e-05
8.60117e-05
8.98788e-05
9.4246e-05
9.92398e-05
0.000104876
0.000111107
0.000117956
0.000125447
0.000133574
0.000143241
0.000147407
0.000144487
0.000134762
0.000124945
0.000343318
0.000407635
0.000234808
)
;
    }
    sWall
    {
        type            nutkWallFunction;
        Cmu             0.09;
        kappa           0.41;
        E               9.8;
        value           uniform 0.000246375;
    }
    nWall
    {
        type            nutkWallFunction;
        Cmu             0.09;
        kappa           0.41;
        E               9.8;
        value           nonuniform List<scalar> 6(9.737e-05 0.000100984 0.00011974 0.000138699 0.000140447 0.000124953);
    }
    sideWalls
    {
        type            empty;
    }
    glass1
    {
        type            nutkWallFunction;
        Cmu             0.09;
        kappa           0.41;
        E               9.8;
        value           nonuniform List<scalar> 9(0.00012941 0.000172229 0.000207037 0.000239926 0.000273014 0.000307947 0.000341839 0.000350129 0.000343766);
    }
    glass2
    {
        type            nutkWallFunction;
        Cmu             0.09;
        kappa           0.41;
        E               9.8;
        value           nonuniform List<scalar> 2(0.000182153 0.000170767);
    }
    sun
    {
        type            nutkWallFunction;
        Cmu             0.09;
        kappa           0.41;
        E               9.8;
        value           nonuniform List<scalar> 
14
(
0.000129304
0.000140362
0.000143455
0.000150051
0.0001561
0.000161809
0.000167503
0.000173248
0.000177921
0.000180836
0.000181138
0.000177976
0.000170237
0.00015356
)
;
    }
    Table_master
    {
        type            nutkWallFunction;
        Cmu             0.09;
        kappa           0.41;
        E               9.8;
        value           nonuniform List<scalar> 9(0.000100409 8.7866e-05 7.72677e-05 6.85577e-05 6.14333e-05 5.55897e-05 5.07859e-05 4.68637e-05 4.37887e-05);
    }
    Table_slave
    {
        type            nutkWallFunction;
        Cmu             0.09;
        kappa           0.41;
        E               9.8;
        value           nonuniform List<scalar> 9(0.000113068 0.000103753 9.73223e-05 9.25229e-05 8.84334e-05 8.43734e-05 8.04941e-05 7.63734e-05 7.15304e-05);
    }
    inlet
    {
        type            calculated;
        value           uniform 0.000167705;
    }
    outlet
    {
        type            calculated;
        value           nonuniform List<scalar> 2(0.00212025 0.00217302);
    }
}


// ************************************************************************* //
