/*--------------------------------*- C++ -*----------------------------------*\
  =========                 |
  \\      /  F ield         | OpenFOAM: The Open Source CFD Toolbox
   \\    /   O peration     | Website:  https://openfoam.org
    \\  /    A nd           | Version:  6
     \\/     M anipulation  |
\*---------------------------------------------------------------------------*/
FoamFile
{
    version     2.0;
    format      ascii;
    class       volScalarField;
    location    "560";
    object      T;
}
// * * * * * * * * * * * * * * * * * * * * * * * * * * * * * * * * * * * * * //

dimensions      [0 0 0 1 0 0 0];

internalField   nonuniform List<scalar> 
458
(
302.743
302.465
302.452
302.449
302.445
302.442
302.438
302.434
302.427
302.418
302.41
302.406
302.41
302.424
302.466
302.611
302.588
302.581
302.587
302.593
302.599
302.605
302.61
302.616
302.621
302.626
302.632
302.637
302.642
302.648
302.654
302.662
302.686
302.929
302.498
302.473
302.474
302.476
302.476
302.474
302.468
302.454
302.432
302.408
302.393
302.394
302.409
302.43
302.44
302.449
302.471
302.617
302.567
302.563
302.57
302.581
302.584
302.587
302.589
302.591
302.593
302.595
302.597
302.599
302.603
302.608
302.616
302.628
302.668
303.126
302.543
302.503
302.513
302.526
302.535
302.54
302.535
302.51
302.465
302.417
302.386
302.384
302.403
302.425
302.436
302.445
302.464
302.574
302.554
302.556
302.571
302.59
302.59
302.591
302.591
302.592
302.593
302.593
302.594
302.595
302.597
302.602
302.608
302.619
302.663
303.326
302.601
302.535
302.554
302.583
302.611
302.63
302.63
302.589
302.512
302.43
302.378
302.373
302.4
302.429
302.446
302.453
302.461
302.471
302.489
302.518
302.552
302.587
302.618
302.642
302.659
302.673
302.685
302.695
302.702
302.708
302.712
302.714
302.686
302.657
302.639
302.665
303.523
302.677
302.569
302.586
302.629
302.679
302.723
302.733
302.671
302.555
302.439
302.369
302.364
302.398
302.44
302.468
302.478
302.484
302.498
302.524
302.559
302.599
302.638
302.673
302.703
302.724
302.741
302.754
302.763
302.767
302.767
302.762
302.753
302.731
302.697
302.666
302.667
302.758
302.837
302.839
303.701
302.775
302.624
302.615
302.656
302.715
302.79
302.814
302.723
302.573
302.434
302.357
302.354
302.401
302.461
302.505
302.527
302.538
302.559
302.59
302.629
302.669
302.708
302.741
302.768
302.788
302.802
302.812
302.817
302.818
302.812
302.802
302.787
302.764
302.732
302.697
302.682
302.72
302.75
302.792
303.857
302.938
302.768
302.717
302.726
302.771
302.851
302.849
302.728
302.55
302.399
302.326
302.341
302.414
302.499
302.563
302.599
302.62
302.645
302.677
302.713
302.75
302.783
302.81
302.831
302.845
302.855
302.859
302.86
302.857
302.848
302.833
302.815
302.792
302.763
302.731
302.71
302.718
302.732
302.762
304.088
303.402
303.204
303.062
302.989
302.977
302.985
302.873
302.663
302.447
302.306
302.271
302.335
302.45
302.568
302.647
302.69
302.714
302.738
302.767
302.798
302.827
302.851
302.869
302.882
302.889
302.892
302.892
302.889
302.883
302.874
302.861
302.842
302.822
302.8
302.778
302.765
302.772
302.792
302.943
304.418
304.1
303.853
303.612
303.421
303.286
303.071
302.724
302.395
302.191
302.14
302.212
302.369
302.539
302.686
302.75
302.782
302.802
302.824
302.846
302.868
302.887
302.902
302.911
302.916
302.918
302.917
302.915
302.911
302.906
302.902
302.9
302.901
302.906
302.919
302.943
302.978
303.015
303.044
303.11
297.629
299.332
300.38
300.819
300.986
301.176
301.411
301.693
301.988
302.266
302.548
302.722
302.803
302.839
302.859
302.876
302.892
302.907
302.92
302.93
302.936
302.939
302.941
302.941
302.94
302.94
302.939
302.939
302.94
302.941
302.945
302.953
302.967
302.988
303.015
303.043
303.068
303.091
297.987
299.402
300.249
300.696
301.026
301.379
301.752
302.144
302.469
302.67
302.794
302.858
302.889
302.906
302.919
302.93
302.94
302.948
302.953
302.957
302.959
302.96
302.96
302.961
302.961
302.961
302.961
302.962
302.963
302.965
302.968
302.974
302.983
302.998
303.016
303.038
303.038
303.072
299.477
299.436
299.434
300.47
301.114
301.648
302.125
302.454
302.644
302.774
302.855
302.9
302.929
302.947
302.958
302.966
302.972
302.977
302.981
302.983
302.984
302.984
302.984
302.983
302.983
302.982
302.982
302.981
302.981
302.98
302.98
302.98
302.982
302.984
302.989
302.998
303.009
303.018
303.021
303.062
)
;

boundaryField
{
    floor
    {
        type            wallHeatTransfer;
        Tinf            uniform 305.2;
        alphaWall       uniform 0.24;
        value           nonuniform List<scalar> 
36
(
302.777
303.096
303.028
302.985
302.978
302.988
303.011
303.039
303.067
303.094
303.119
303.144
303.168
303.19
303.212
303.235
303.259
303.278
303.327
303.327
303.217
303.157
303.115
303.113
303.167
303.149
302.777
302.694
302.741
302.809
303.096
302.809
303.103
302.762
302.943
302.738
)
;
    }
    ceiling
    {
        type            wallHeatTransfer;
        Tinf            uniform 303.2;
        alphaWall       uniform 0.24;
        value           nonuniform List<scalar> 
43
(
299.706
299.663
299.657
300.619
301.233
301.746
302.202
302.515
302.694
302.816
302.892
302.935
302.964
302.981
302.992
303
303.007
303.011
303.015
303.017
303.019
303.019
303.018
303.017
303.016
303.014
303.013
303.012
303.01
303.009
303.007
303.007
303.007
303.008
303.011
303.018
303.027
303.035
303.039
303.077
304.361
304.065
298.32
)
;
    }
    sWall
    {
        type            wallHeatTransfer;
        Tinf            uniform 315.2;
        alphaWall       uniform 0.36;
        value           uniform 300.889;
    }
    nWall
    {
        type            wallHeatTransfer;
        Tinf            uniform 307.2;
        alphaWall       uniform 0.36;
        value           nonuniform List<scalar> 6(303.646 303.587 303.472 303.681 303.659 303.704);
    }
    sideWalls
    {
        type            empty;
    }
    glass1
    {
        type            wallHeatTransfer;
        Tinf            uniform 315.2;
        alphaWall       uniform 4.3;
        value           nonuniform List<scalar> 9(311.273 310.627 310.216 309.901 309.639 309.397 309.195 309.255 309.48);
    }
    glass2
    {
        type            wallHeatTransfer;
        Tinf            uniform 307.2;
        alphaWall       uniform 4.3;
        value           nonuniform List<scalar> 2(305.548 305.669);
    }
    sun
    {
        type            wallHeatTransfer;
        Tinf            uniform 305.2;
        alphaWall       uniform 0.24;
        value           nonuniform List<scalar> 
14
(
303.004
302.737
302.72
302.707
302.696
302.686
302.676
302.665
302.654
302.643
302.635
302.635
302.646
302.681
)
;
    }
    Table_master
    {
        type            zeroGradient;
    }
    Table_slave
    {
        type            zeroGradient;
    }
    inlet
    {
        type            fixedValue;
        value           uniform 295.15;
    }
    outlet
    {
        type            zeroGradient;
    }
}


// ************************************************************************* //
