/*--------------------------------*- C++ -*----------------------------------*\
  =========                 |
  \\      /  F ield         | OpenFOAM: The Open Source CFD Toolbox
   \\    /   O peration     | Website:  https://openfoam.org
    \\  /    A nd           | Version:  6
     \\/     M anipulation  |
\*---------------------------------------------------------------------------*/
FoamFile
{
    version     2.0;
    format      ascii;
    class       volScalarField;
    location    "120";
    object      nut;
}
// * * * * * * * * * * * * * * * * * * * * * * * * * * * * * * * * * * * * * //

dimensions      [0 2 -1 0 0 0 0];

internalField   nonuniform List<scalar> 
458
(
0.00123186
0.00136083
0.00141374
0.00149034
0.00156284
0.00163494
0.00171226
0.00177879
0.00182714
0.00184735
0.00183103
0.00176802
0.00158081
0.0013619
0.00115651
0.00060039
0.000705168
0.000828539
0.000899112
0.000900697
0.000837202
0.000767834
0.000707798
0.000657526
0.000615214
0.000579362
0.000548647
0.000521939
0.000498229
0.000476038
0.000453502
0.00043014
0.000392059
0.00158294
0.00390121
0.00379492
0.00441129
0.00505931
0.00567604
0.00612382
0.00658556
0.00703229
0.00741596
0.00768898
0.00779079
0.00760695
0.00695147
0.00474068
0.00150112
0.00128577
0.00104734
0.000587358
0.00156412
0.00244217
0.00312061
0.00327166
0.00220477
0.00181256
0.00156139
0.00138483
0.00125564
0.0011578
0.00108203
0.00101783
0.000945446
0.000870703
0.000800357
0.000814895
0.000436607
0.0018725
0.00529223
0.00473147
0.00554703
0.00600542
0.00634221
0.00660027
0.00693294
0.00735915
0.00786771
0.00840779
0.00885672
0.00902649
0.00878177
0.00784281
0.00589488
0.00431569
0.00127836
0.000764108
0.00163559
0.00269518
0.00371063
0.00391581
0.0011348
0.000975348
0.00084491
0.000741292
0.000659397
0.000594502
0.000542778
0.000502015
0.000473342
0.000551429
0.00066232
0.00092521
0.000466978
0.00214877
0.00655177
0.00477707
0.00572046
0.00591134
0.00594199
0.0060402
0.00627067
0.00668197
0.00728109
0.00799851
0.00861423
0.008983
0.00904428
0.00872606
0.00786646
0.00642803
0.00342727
0.00143899
0.00171719
0.00255871
0.00381523
0.00499809
0.00511538
0.00131663
0.00119677
0.00110476
0.00102899
0.000964327
0.000904588
0.000845804
0.000784876
0.000717642
0.000661457
0.000660979
0.00101559
0.000503883
0.00243424
0.00818779
0.00506908
0.00559308
0.00578048
0.00565026
0.00565671
0.00582495
0.00624147
0.00690458
0.00766658
0.00832197
0.0087297
0.00886894
0.00878269
0.00844511
0.00769547
0.0062413
0.00543647
0.00585014
0.00657051
0.00733445
0.00786529
0.00785343
0.00659669
0.00583962
0.00531376
0.0048841
0.00440279
0.00387587
0.00330407
0.0026909
0.00206043
0.0015014
0.00111896
0.00109301
0.000775587
0.000600796
0.000652921
0.000722339
0.00274644
0.0100449
0.00668567
0.00563021
0.00587666
0.00573949
0.00567943
0.0057613
0.00613702
0.00682845
0.0076434
0.00831938
0.0087016
0.00881701
0.00881175
0.0087976
0.00874513
0.00854474
0.00872181
0.00933244
0.00982227
0.0100866
0.0100687
0.00973568
0.00904827
0.00833881
0.00767782
0.00699967
0.00629828
0.0055658
0.00479414
0.00398244
0.00315211
0.00237539
0.00177506
0.00140183
0.00106943
0.000867709
0.00107709
0.000750343
0.00303629
0.0113294
0.00913605
0.00705501
0.00670515
0.00632059
0.00593401
0.00586946
0.00626806
0.00704944
0.00794211
0.00863184
0.00897751
0.00908865
0.00924615
0.00966375
0.0101635
0.0105989
0.0111095
0.0115788
0.0117199
0.0115658
0.0111662
0.0105773
0.00985928
0.00911441
0.00836129
0.00760501
0.00685083
0.00609727
0.00534197
0.00458553
0.00383546
0.00311014
0.00249863
0.00201397
0.00163724
0.00141692
0.00128579
0.000878712
0.00310019
0.00990845
0.00885281
0.00807144
0.00729915
0.00638547
0.00584241
0.0059121
0.00657245
0.00758011
0.00857017
0.00921677
0.0094889
0.0096816
0.0102283
0.0110221
0.0115497
0.0119497
0.0122743
0.0124088
0.0122282
0.0117631
0.0110985
0.0103118
0.00946357
0.00861284
0.00778356
0.00697865
0.00620699
0.00548849
0.00484688
0.00429415
0.0038167
0.00334781
0.00298927
0.00276565
0.00267871
0.0026291
0.00301994
0.00134355
0.00302961
0.00361223
0.00393459
0.00400994
0.00403424
0.00422303
0.00483359
0.00592739
0.00730642
0.0086182
0.00954019
0.00988231
0.010024
0.010548
0.0111569
0.0115955
0.0118631
0.01202
0.0120343
0.0118218
0.0113455
0.0106481
0.00980185
0.00887492
0.00792998
0.0069987
0.00608014
0.00517282
0.00430646
0.00354849
0.00296854
0.00258334
0.00235078
0.00221644
0.00214238
0.00209987
0.00204586
0.00195677
0.00184499
0.0012861
0.000999634
0.00189564
0.00333273
0.00515504
0.00705606
0.00868697
0.00978703
0.01027
0.0103497
0.0101296
0.0100941
0.0103401
0.0105474
0.0106413
0.0106519
0.0105556
0.0102814
0.0097827
0.00907579
0.00822949
0.00732631
0.00643154
0.00557939
0.00477454
0.0040207
0.00334552
0.00279477
0.00240043
0.00215685
0.00202993
0.00198125
0.00197931
0.00199621
0.00199988
0.00195233
0.00183617
0.00166754
0.00109674
0.00225154
0.00627447
0.008999
0.0102221
0.0104464
0.0102955
0.00981248
0.00913711
0.0085343
0.00813401
0.00789306
0.00773053
0.00760997
0.00752068
0.00741912
0.00724159
0.00693559
0.00649049
0.00594346
0.00535609
0.00478228
0.00425168
0.0037732
0.00334783
0.00297908
0.00267295
0.00243201
0.00225248
0.00212714
0.00204994
0.00201677
0.00202079
0.00204506
0.00206045
0.00203637
0.00202395
0.00212616
0.00113057
0.00235592
0.00245084
0.00253534
0.00284924
0.00266423
0.00237934
0.00214472
0.00197622
0.00181398
0.00165207
0.00150618
0.00139381
0.00131901
0.00127256
0.00124226
0.00121813
0.00119298
0.00116223
0.00112422
0.00108048
0.00103446
0.000989627
0.000948226
0.000911253
0.000879086
0.000852166
0.000831287
0.000817391
0.000811255
0.00081339
0.000824156
0.000843901
0.000873027
0.000911777
0.000959285
0.0010135
0.00104785
0.00102419
0.000963495
0.000921502
)
;

boundaryField
{
    floor
    {
        type            nutkWallFunction;
        Cmu             0.09;
        kappa           0.41;
        E               9.8;
        value           nonuniform List<scalar> 
36
(
0.000138983
7.24035e-05
8.53707e-05
0.000100348
0.000108795
0.000108985
0.00010139
9.30159e-05
8.56955e-05
7.95086e-05
7.42571e-05
6.9773e-05
6.59045e-05
6.25188e-05
5.94952e-05
5.66491e-05
5.37414e-05
5.07075e-05
4.57169e-05
4.57168e-05
5.1545e-05
5.54736e-05
6.02055e-05
7.24342e-05
7.89146e-05
8.74519e-05
0.000138983
0.000178262
0.000153852
0.000126282
7.24035e-05
0.000126282
7.0771e-05
0.000153009
9.25604e-05
0.00017127
)
;
    }
    ceiling
    {
        type            nutkWallFunction;
        Cmu             0.09;
        kappa           0.41;
        E               9.8;
        value           nonuniform List<scalar> 
43
(
0.000271691
0.000281823
0.000290811
0.00032404
0.000304627
0.000274377
0.000249164
0.000230869
0.000213091
0.000195173
0.000178862
0.00016618
0.000157676
0.000152368
0.000148894
0.00014612
0.000143222
0.000139669
0.000135263
0.000130171
0.000124788
0.000119517
0.000114626
0.000110237
0.000106401
0.000103179
0.00010067
9.89965e-05
9.82554e-05
9.85112e-05
9.98061e-05
0.000102177
0.000105664
0.000110282
0.000115915
0.000122303
0.000126334
0.000123564
0.000116417
0.000111444
0.00034318
0.000403414
0.000260356
)
;
    }
    sWall
    {
        type            nutkWallFunction;
        Cmu             0.09;
        kappa           0.41;
        E               9.8;
        value           uniform 0.000271761;
    }
    nWall
    {
        type            nutkWallFunction;
        Cmu             0.09;
        kappa           0.41;
        E               9.8;
        value           nonuniform List<scalar> 6(8.74505e-05 9.0866e-05 0.000106332 0.000132057 0.000135991 0.000111448);
    }
    sideWalls
    {
        type            empty;
    }
    glass1
    {
        type            nutkWallFunction;
        Cmu             0.09;
        kappa           0.41;
        E               9.8;
        value           nonuniform List<scalar> 9(0.000147824 0.00018768 0.000219808 0.000249959 0.000280681 0.000313848 0.00034429 0.00035097 0.000343619);
    }
    glass2
    {
        type            nutkWallFunction;
        Cmu             0.09;
        kappa           0.41;
        E               9.8;
        value           nonuniform List<scalar> 2(0.000160488 0.000153936);
    }
    sun
    {
        type            nutkWallFunction;
        Cmu             0.09;
        kappa           0.41;
        E               9.8;
        value           nonuniform List<scalar> 
14
(
0.000147671
0.000162403
0.000168402
0.000177044
0.000185178
0.000193227
0.000201814
0.00020917
0.000214497
0.000216719
0.000214925
0.000207981
0.00018719
0.000162527
)
;
    }
    Table_master
    {
        type            nutkWallFunction;
        Cmu             0.09;
        kappa           0.41;
        E               9.8;
        value           nonuniform List<scalar> 9(0.000136484 0.000117834 0.000102316 8.97889e-05 7.97413e-05 7.16731e-05 6.51655e-05 5.99832e-05 5.63067e-05);
    }
    Table_slave
    {
        type            nutkWallFunction;
        Cmu             0.09;
        kappa           0.41;
        E               9.8;
        value           nonuniform List<scalar> 9(0.000157394 0.00014365 0.000132994 0.000124143 0.00011653 0.000109444 0.000102419 9.5076e-05 8.68948e-05);
    }
    inlet
    {
        type            calculated;
        value           uniform 0.000167705;
    }
    outlet
    {
        type            calculated;
        value           nonuniform List<scalar> 2(0.00235592 0.00245084);
    }
}


// ************************************************************************* //
