/*--------------------------------*- C++ -*----------------------------------*\
  =========                 |
  \\      /  F ield         | OpenFOAM: The Open Source CFD Toolbox
   \\    /   O peration     | Website:  https://openfoam.org
    \\  /    A nd           | Version:  6
     \\/     M anipulation  |
\*---------------------------------------------------------------------------*/
FoamFile
{
    version     2.0;
    format      ascii;
    class       volVectorField;
    location    "120";
    object      U;
}
// * * * * * * * * * * * * * * * * * * * * * * * * * * * * * * * * * * * * * //

dimensions      [0 1 -1 0 0 0 0];

internalField   nonuniform List<vector> 
458
(
(0.0135655 0.093439 0)
(-0.183242 0.0321616 0)
(-0.22036 0.0197616 0)
(-0.255921 0.0105196 0)
(-0.278412 0.000936646 0)
(-0.285887 -0.00927291 0)
(-0.275108 -0.0204009 0)
(-0.246193 -0.0324826 0)
(-0.200474 -0.0435223 0)
(-0.143361 -0.0511376 0)
(-0.0829088 -0.0536951 0)
(-0.0274222 -0.0495195 0)
(0.024811 -0.0268839 0)
(0.0407581 -0.00345357 0)
(0.0358908 0.0330812 0)
(-0.0267625 0.0145709 0)
(-0.0453556 -0.0128109 0)
(-0.0225293 -0.0282346 0)
(0.00478038 -0.0302457 0)
(0.0322525 -0.023471 0)
(0.0506265 -0.0130672 0)
(0.0629506 -0.00737226 0)
(0.0694695 -0.00528411 0)
(0.0726424 -0.00448973 0)
(0.0745682 -0.00398416 0)
(0.075949 -0.00357132 0)
(0.07682 -0.0031714 0)
(0.0769601 -0.00258192 0)
(0.0757106 -0.00134464 0)
(0.0717353 0.00113122 0)
(0.0634025 0.00455822 0)
(0.0503732 0.00973717 0)
(0.0106805 0.0250731 0)
(0.1826 0.190353 0)
(-0.162522 0.0846798 0)
(-0.174263 0.0633018 0)
(-0.210017 0.0451944 0)
(-0.232455 0.0249837 0)
(-0.240874 0.00181891 0)
(-0.23173 -0.024803 0)
(-0.205787 -0.0522316 0)
(-0.165187 -0.0754161 0)
(-0.115924 -0.0890226 0)
(-0.0652444 -0.090611 0)
(-0.0198353 -0.0788957 0)
(0.0205778 -0.0492193 0)
(0.0483152 -0.0156136 0)
(0.0704921 0.0227516 0)
(0.0902017 0.030266 0)
(0.0776506 0.0433339 0)
(0.0160308 0.0679337 0)
(0.0263886 0.0462405 0)
(0.00952068 -0.0166087 0)
(0.0281163 -0.0404821 0)
(0.043479 -0.0423126 0)
(0.0583307 -0.0352987 0)
(0.0656277 -0.0172862 0)
(0.0678788 -0.00557707 0)
(0.0683666 -0.00112629 0)
(0.0688292 0.000486035 0)
(0.0693642 0.00136634 0)
(0.0697445 0.0019756 0)
(0.0699515 0.0025847 0)
(0.0699954 0.00368442 0)
(0.0692766 0.00611495 0)
(0.0655514 0.0121585 0)
(0.0562116 0.0190037 0)
(0.0449455 0.0277923 0)
(-0.0218044 0.0520557 0)
(0.340247 0.283417 0)
(-0.169325 0.130661 0)
(-0.128036 0.099845 0)
(-0.161373 0.0694403 0)
(-0.181676 0.0364564 0)
(-0.189907 -0.00107263 0)
(-0.180552 -0.0432163 0)
(-0.155545 -0.0856716 0)
(-0.118604 -0.119544 0)
(-0.0767863 -0.136598 0)
(-0.0357764 -0.134842 0)
(0.00021434 -0.114217 0)
(0.0299715 -0.0787155 0)
(0.0541248 -0.0400231 0)
(0.0741042 -0.00509641 0)
(0.0839868 0.0145457 0)
(0.0778769 0.0402506 0)
(0.0279907 0.0882826 0)
(0.0898751 -0.000177919 0)
(0.0738721 -0.0364129 0)
(0.0754937 -0.0511131 0)
(0.0803324 -0.0524255 0)
(0.0861674 -0.048775 0)
(0.0855649 -0.0372731 0)
(0.0722266 -0.0239971 0)
(0.0620387 -0.0166584 0)
(0.0575401 -0.0125259 0)
(0.055519 -0.00985474 0)
(0.0541081 -0.00804371 0)
(0.0530615 -0.00671658 0)
(0.0528931 -0.00523475 0)
(0.0550004 -0.000966113 0)
(0.0545318 0.0162769 0)
(0.0453527 0.0297858 0)
(0.0425172 0.0441996 0)
(-0.0540629 0.079067 0)
(0.486827 0.357222 0)
(-0.196731 0.168489 0)
(-0.0802839 0.130465 0)
(-0.109875 0.0907974 0)
(-0.124908 0.0486105 0)
(-0.130062 -0.00147328 0)
(-0.116443 -0.0595287 0)
(-0.0908413 -0.116219 0)
(-0.0584655 -0.158458 0)
(-0.0264902 -0.176363 0)
(0.00330323 -0.17004 0)
(0.0275507 -0.142993 0)
(0.0476958 -0.103361 0)
(0.0650281 -0.0599782 0)
(0.079593 -0.0197157 0)
(0.0902952 0.0131964 0)
(0.101373 0.0456534 0)
(0.107591 0.0862712 0)
(0.147739 0.0699565 0)
(0.139576 0.0089138 0)
(0.12435 -0.0269127 0)
(0.112621 -0.0432002 0)
(0.101797 -0.0465808 0)
(0.0902492 -0.0416392 0)
(0.0867889 -0.0243714 0)
(0.0964805 -0.01477 0)
(0.103364 -0.00955556 0)
(0.104851 -0.00636389 0)
(0.103027 -0.00387475 0)
(0.0992757 -0.00162829 0)
(0.0933782 0.000770864 0)
(0.0841783 0.00392169 0)
(0.0696298 0.0085637 0)
(0.0533295 0.0254291 0)
(0.041148 0.04216 0)
(0.0473649 0.0603469 0)
(-0.0763168 0.1026 0)
(0.618036 0.412717 0)
(-0.236856 0.196377 0)
(-0.033761 0.147396 0)
(-0.0571118 0.10306 0)
(-0.0637222 0.056589 0)
(-0.0590012 -0.00272467 0)
(-0.0368169 -0.0769154 0)
(-0.0111517 -0.143508 0)
(0.0135324 -0.188416 0)
(0.0322067 -0.20218 0)
(0.0469451 -0.191102 0)
(0.0580403 -0.160548 0)
(0.0667898 -0.118097 0)
(0.074258 -0.0724056 0)
(0.0813037 -0.0301253 0)
(0.0889342 0.00546203 0)
(0.0992597 0.0343905 0)
(0.114648 0.0488423 0)
(0.129603 0.0175104 0)
(0.128003 -0.0116765 0)
(0.118887 -0.02739 0)
(0.106821 -0.0343937 0)
(0.0938265 -0.0347979 0)
(0.0816602 -0.0285789 0)
(0.0751439 -0.0138812 0)
(0.0744409 -0.0044119 0)
(0.0741038 0.000287529 0)
(0.0720476 0.0030704 0)
(0.0695066 0.00536244 0)
(0.0668241 0.00784073 0)
(0.0637531 0.0111385 0)
(0.0598156 0.0160443 0)
(0.0544941 0.0235718 0)
(0.0484754 0.0367562 0)
(0.0420837 0.0524015 0)
(0.0606833 0.0725015 0)
(0.00983148 0.107391 0)
(0.0643095 0.133896 0)
(-0.0648658 0.0540926 0)
(-0.26202 -0.00526213 0)
(0.718222 0.457095 0)
(-0.280308 0.212104 0)
(0.00260063 0.141727 0)
(-0.00408654 0.10267 0)
(0.000623363 0.0546703 0)
(0.0262062 -0.0178374 0)
(0.056169 -0.100818 0)
(0.0776445 -0.165163 0)
(0.0896589 -0.202689 0)
(0.0935799 -0.212125 0)
(0.0919605 -0.196986 0)
(0.0869661 -0.163587 0)
(0.0807406 -0.119746 0)
(0.0751997 -0.0739067 0)
(0.0718629 -0.0328177 0)
(0.0719138 3.75535e-05 0)
(0.0764464 0.0231109 0)
(0.086893 0.0304642 0)
(0.094939 0.0150713 0)
(0.0942312 -0.00179771 0)
(0.0868959 -0.0140605 0)
(0.0761901 -0.0207957 0)
(0.0646055 -0.0220344 0)
(0.0538207 -0.0179788 0)
(0.0461982 -0.00945116 0)
(0.0423008 -0.00270638 0)
(0.0398349 0.00125434 0)
(0.0382228 0.00367014 0)
(0.03724 0.00563985 0)
(0.0369896 0.00798893 0)
(0.0374381 0.0115103 0)
(0.0385158 0.0170612 0)
(0.0401557 0.0254119 0)
(0.0428918 0.0373281 0)
(0.0457446 0.051806 0)
(0.0656254 0.0710134 0)
(0.0608673 0.0886536 0)
(0.0950273 0.0915689 0)
(0.109294 0.0563231 0)
(-0.123534 -0.0156627 0)
(0.784806 0.497018 0)
(-0.303644 0.191869 0)
(0.0366486 0.083696 0)
(0.062049 0.0705863 0)
(0.0825288 0.0307946 0)
(0.127879 -0.0513179 0)
(0.158067 -0.126404 0)
(0.170625 -0.178562 0)
(0.167468 -0.204521 0)
(0.152557 -0.205228 0)
(0.130444 -0.184502 0)
(0.105544 -0.148855 0)
(0.0813885 -0.105373 0)
(0.0609736 -0.0618387 0)
(0.0463308 -0.0247059 0)
(0.0378486 0.00275935 0)
(0.0380073 0.0191181 0)
(0.0440965 0.0232325 0)
(0.0488052 0.014497 0)
(0.0479665 0.00284571 0)
(0.0430605 -0.00631427 0)
(0.0349114 -0.0113061 0)
(0.0256434 -0.012156 0)
(0.0168491 -0.00938771 0)
(0.010221 -0.00417457 0)
(0.00630138 0.000345828 0)
(0.00457969 0.00296346 0)
(0.00432125 0.00424547 0)
(0.00521542 0.00512456 0)
(0.00740131 0.00638481 0)
(0.0110523 0.00881719 0)
(0.0163533 0.0132255 0)
(0.0234007 0.020205 0)
(0.032657 0.0298304 0)
(0.0429298 0.0412605 0)
(0.0622424 0.0561564 0)
(0.0771906 0.0652874 0)
(0.107392 0.0614171 0)
(0.148682 0.0514326 0)
(-0.0356706 0.0912076 0)
(0.892948 0.4915 0)
(-0.0456481 0.16897 0)
(0.127017 0.00404043 0)
(0.197586 -0.0399823 0)
(0.238852 -0.0760006 0)
(0.269751 -0.116225 0)
(0.279908 -0.152954 0)
(0.267971 -0.177298 0)
(0.237639 -0.184719 0)
(0.195373 -0.174739 0)
(0.147589 -0.149243 0)
(0.100327 -0.113688 0)
(0.0578596 -0.0737148 0)
(0.0245103 -0.0363709 0)
(0.0024962 -0.00760177 0)
(-0.00839804 0.00993204 0)
(-0.00834855 0.0178824 0)
(-0.0040764 0.018879 0)
(-0.000659845 0.0131 0)
(-0.0010591 0.00529968 0)
(-0.00455536 -0.000839258 0)
(-0.0103207 -0.00402195 0)
(-0.0171006 -0.00442179 0)
(-0.0233415 -0.00270371 0)
(-0.027978 3.77523e-05 0)
(-0.0303165 0.00214125 0)
(-0.0308176 0.00300552 0)
(-0.0301889 0.00291223 0)
(-0.0285205 0.0023486 0)
(-0.0256445 0.00181272 0)
(-0.0212889 0.0018601 0)
(-0.0151237 0.003029 0)
(-0.00687507 0.00570132 0)
(0.00490082 0.00999795 0)
(0.0174793 0.0146437 0)
(0.0345281 0.0204878 0)
(0.0517293 0.0187914 0)
(0.0757192 0.00680271 0)
(0.141606 0.0454226 0)
(-0.392183 0.193691 0)
(1.04378 0.433688 0)
(0.503989 0.289447 0)
(0.523999 0.216315 0)
(0.547974 0.129663 0)
(0.527367 0.0535457 0)
(0.475979 -0.0177741 0)
(0.413686 -0.0740532 0)
(0.343309 -0.10805 0)
(0.266922 -0.119243 0)
(0.189715 -0.111658 0)
(0.115998 -0.0893394 0)
(0.051266 -0.0593948 0)
(-0.00252721 -0.0273519 0)
(-0.0363908 -0.00426053 0)
(-0.0522109 0.00777397 0)
(-0.0563333 0.0135422 0)
(-0.0551072 0.0158624 0)
(-0.0517561 0.0153078 0)
(-0.0492571 0.0118525 0)
(-0.0493053 0.00735697 0)
(-0.0517055 0.00362698 0)
(-0.0554289 0.00148511 0)
(-0.059576 0.000855684 0)
(-0.0632627 0.00124426 0)
(-0.0656966 0.00193158 0)
(-0.0670107 0.00221257 0)
(-0.0678336 0.00187417 0)
(-0.0688247 0.00109287 0)
(-0.0705557 0.000236299 0)
(-0.073592 -0.000117872 0)
(-0.0784627 0.000835879 0)
(-0.0856429 0.00401617 0)
(-0.0957937 0.0103313 0)
(-0.110166 0.0206538 0)
(-0.131476 0.0355267 0)
(-0.162281 0.0545328 0)
(-0.204559 0.0748547 0)
(-0.253445 0.0929602 0)
(-0.324693 0.105997 0)
(-0.592421 0.111393 0)
(0.274106 -0.0154608 0)
(0.310533 0.00789749 0)
(0.305689 -0.0278476 0)
(0.274855 -0.0539952 0)
(0.227007 -0.0636763 0)
(0.170381 -0.0628625 0)
(0.108395 -0.0543214 0)
(0.0461765 -0.0393243 0)
(-0.0175741 -0.0168846 0)
(-0.0623075 -0.000207315 0)
(-0.0878479 0.00873958 0)
(-0.0989673 0.0124145 0)
(-0.102029 0.013958 0)
(-0.101306 0.0148754 0)
(-0.0987162 0.0153174 0)
(-0.0956684 0.0149747 0)
(-0.0935896 0.0136557 0)
(-0.0932714 0.0120357 0)
(-0.0945602 0.0109366 0)
(-0.0967744 0.0108321 0)
(-0.0991785 0.0117168 0)
(-0.101225 0.0132722 0)
(-0.102695 0.0150895 0)
(-0.103776 0.0167922 0)
(-0.104857 0.0181295 0)
(-0.106313 0.018956 0)
(-0.108405 0.0192784 0)
(-0.111211 0.0194148 0)
(-0.114621 0.0201082 0)
(-0.118394 0.0224996 0)
(-0.122232 0.0279718 0)
(-0.125888 0.037824 0)
(-0.129431 0.0525301 0)
(-0.132787 0.0703919 0)
(-0.132995 0.0842489 0)
(-0.11831 0.0748699 0)
(-0.0894364 0.000916013 0)
(-0.247193 -0.18405 0)
(0.139215 0.2584 0)
(-0.027639 0.119428 0)
(-0.0398962 0.0399476 0)
(-0.0450819 0.0100323 0)
(-0.054319 -0.00184378 0)
(-0.078439 -0.00575676 0)
(-0.105679 -0.00478207 0)
(-0.128859 -0.0018478 0)
(-0.143334 -0.00023117 0)
(-0.148587 -0.00178216 0)
(-0.14948 -0.00417185 0)
(-0.147512 -0.00659624 0)
(-0.144184 -0.00865966 0)
(-0.140199 -0.0102848 0)
(-0.135911 -0.0119199 0)
(-0.131804 -0.0142216 0)
(-0.128511 -0.0176606 0)
(-0.126448 -0.0221575 0)
(-0.125608 -0.0273074 0)
(-0.125676 -0.0326263 0)
(-0.126244 -0.0377192 0)
(-0.126963 -0.0423174 0)
(-0.127614 -0.0462103 0)
(-0.128091 -0.0491561 0)
(-0.128323 -0.0507885 0)
(-0.128232 -0.0506355 0)
(-0.127721 -0.0482299 0)
(-0.126642 -0.0432142 0)
(-0.124673 -0.0353831 0)
(-0.121144 -0.0246262 0)
(-0.114936 -0.0107781 0)
(-0.104644 0.00642173 0)
(-0.0890811 0.0267226 0)
(-0.0680152 0.0476652 0)
(-0.0429607 0.0627474 0)
(-0.00809594 0.0545285 0)
(0.140714 -0.0189839 0)
(-0.185505 -0.0942191 0)
(-0.375758 -0.47417 0)
(-0.589345 -0.141196 0)
(-0.437352 0.134409 0)
(-0.382342 0.0451277 0)
(-0.28892 0.0193628 0)
(-0.258126 0.0168998 0)
(-0.248154 0.0235705 0)
(-0.243959 0.0328577 0)
(-0.239296 0.0421021 0)
(-0.231996 0.0505533 0)
(-0.22234 0.0575105 0)
(-0.212047 0.0625268 0)
(-0.202587 0.0665484 0)
(-0.194315 0.0702197 0)
(-0.187041 0.0740316 0)
(-0.180252 0.0783701 0)
(-0.173544 0.0835503 0)
(-0.166843 0.0898184 0)
(-0.160351 0.0972758 0)
(-0.154314 0.105805 0)
(-0.148837 0.115045 0)
(-0.143865 0.124479 0)
(-0.13925 0.133577 0)
(-0.134825 0.141881 0)
(-0.130464 0.148982 0)
(-0.126103 0.154443 0)
(-0.121723 0.157757 0)
(-0.117309 0.158443 0)
(-0.112786 0.156222 0)
(-0.107939 0.151176 0)
(-0.102225 0.143841 0)
(-0.0944856 0.135223 0)
(-0.0827736 0.126762 0)
(-0.0649584 0.120262 0)
(-0.0403306 0.117511 0)
(-0.00811435 0.118765 0)
(0.0340176 0.120173 0)
(0.0681828 0.114218 0)
(0.15675 0.101749 0)
(-0.293538 0.0779899 0)
)
;

boundaryField
{
    floor
    {
        type            noSlip;
    }
    ceiling
    {
        type            noSlip;
    }
    sWall
    {
        type            noSlip;
    }
    nWall
    {
        type            noSlip;
    }
    sideWalls
    {
        type            empty;
    }
    glass1
    {
        type            noSlip;
    }
    glass2
    {
        type            noSlip;
    }
    sun
    {
        type            noSlip;
    }
    Table_master
    {
        type            noSlip;
    }
    Table_slave
    {
        type            noSlip;
    }
    inlet
    {
        type            fixedValue;
        value           uniform (0.46194 -0.191342 0);
    }
    outlet
    {
        type            zeroGradient;
    }
}


// ************************************************************************* //
