/*--------------------------------*- C++ -*----------------------------------*\
  =========                 |
  \\      /  F ield         | OpenFOAM: The Open Source CFD Toolbox
   \\    /   O peration     | Website:  https://openfoam.org
    \\  /    A nd           | Version:  6
     \\/     M anipulation  |
\*---------------------------------------------------------------------------*/
FoamFile
{
    version     2.0;
    format      ascii;
    class       volScalarField;
    location    "370";
    object      T;
}
// * * * * * * * * * * * * * * * * * * * * * * * * * * * * * * * * * * * * * //

dimensions      [0 0 0 1 0 0 0];

internalField   nonuniform List<scalar> 
458
(
302.768
302.492
302.479
302.475
302.472
302.468
302.464
302.459
302.452
302.443
302.435
302.431
302.436
302.454
302.492
302.658
302.635
302.626
302.633
302.641
302.647
302.654
302.661
302.667
302.673
302.68
302.686
302.693
302.699
302.706
302.714
302.723
302.749
302.951
302.526
302.501
302.502
302.503
302.503
302.5
302.494
302.478
302.454
302.43
302.417
302.421
302.438
302.458
302.468
302.478
302.501
302.665
302.61
302.606
302.615
302.627
302.632
302.635
302.639
302.642
302.645
302.649
302.652
302.656
302.661
302.668
302.677
302.691
302.733
303.145
302.572
302.532
302.541
302.554
302.564
302.567
302.561
302.532
302.485
302.436
302.408
302.41
302.432
302.453
302.465
302.474
302.493
302.618
302.595
302.597
302.614
302.636
302.637
302.639
302.641
302.643
302.645
302.647
302.65
302.653
302.656
302.663
302.671
302.684
302.728
303.344
302.63
302.565
302.583
302.613
302.641
302.659
302.656
302.609
302.527
302.444
302.398
302.4
302.43
302.459
302.476
302.483
302.491
302.501
302.521
302.553
302.591
302.631
302.666
302.694
302.714
302.731
302.745
302.757
302.767
302.774
302.781
302.785
302.755
302.724
302.706
302.732
303.54
302.706
302.6
302.617
302.661
302.712
302.756
302.759
302.687
302.564
302.448
302.387
302.391
302.43
302.473
302.5
302.51
302.516
302.532
302.561
302.599
302.644
302.689
302.728
302.762
302.788
302.808
302.824
302.835
302.841
302.842
302.839
302.83
302.806
302.77
302.736
302.736
302.832
302.916
302.917
303.718
302.806
302.657
302.649
302.69
302.751
302.83
302.836
302.732
302.576
302.441
302.373
302.381
302.436
302.498
302.543
302.564
302.576
302.6
302.634
302.677
302.723
302.767
302.805
302.836
302.86
302.877
302.89
302.897
302.899
302.894
302.884
302.869
302.844
302.809
302.771
302.753
302.794
302.826
302.869
303.875
302.969
302.803
302.756
302.767
302.815
302.893
302.87
302.73
302.546
302.401
302.341
302.371
302.454
302.544
302.608
302.644
302.667
302.695
302.731
302.773
302.814
302.852
302.884
302.908
302.926
302.938
302.945
302.947
302.944
302.935
302.92
302.901
302.877
302.845
302.81
302.787
302.794
302.809
302.84
304.105
303.429
303.236
303.103
303.036
303.036
303.019
302.876
302.648
302.432
302.304
302.289
302.373
302.501
302.624
302.704
302.748
302.773
302.801
302.834
302.869
302.902
302.93
302.952
302.967
302.977
302.982
302.983
302.98
302.974
302.965
302.95
302.931
302.909
302.886
302.861
302.846
302.852
302.872
303.018
304.435
304.12
303.875
303.64
303.454
303.31
303.048
302.674
302.347
302.167
302.144
302.245
302.428
302.61
302.757
302.82
302.852
302.874
302.899
302.926
302.951
302.973
302.99
303.002
303.008
303.011
303.01
303.007
303.002
302.997
302.991
302.988
302.987
302.99
303.002
303.024
303.057
303.093
303.121
303.186
297.563
299.205
300.208
300.615
300.818
301.062
301.36
301.702
302.033
302.339
302.65
302.809
302.885
302.921
302.941
302.96
302.979
302.997
303.012
303.023
303.031
303.034
303.035
303.035
303.033
303.031
303.03
303.028
303.028
303.028
303.031
303.038
303.05
303.07
303.097
303.125
303.152
303.179
297.931
299.297
300.142
300.617
301.015
301.422
301.835
302.282
302.571
302.768
302.89
302.949
302.979
302.998
303.012
303.025
303.036
303.045
303.052
303.055
303.057
303.057
303.056
303.055
303.054
303.053
303.053
303.052
303.052
303.052
303.054
303.059
303.068
303.081
303.099
303.121
303.124
303.159
299.502
299.461
299.459
300.525
301.213
301.784
302.259
302.565
302.747
302.875
302.951
302.997
303.026
303.044
303.056
303.064
303.07
303.075
303.079
303.081
303.082
303.082
303.081
303.079
303.078
303.076
303.075
303.073
303.072
303.071
303.07
303.069
303.07
303.071
303.075
303.083
303.094
303.103
303.107
303.15
)
;

boundaryField
{
    floor
    {
        type            wallHeatTransfer;
        Tinf            uniform 305.2;
        alphaWall       uniform 0.24;
        value           nonuniform List<scalar> 
36
(
302.794
303.127
303.059
303.015
303.007
303.018
303.042
303.07
303.098
303.125
303.151
303.176
303.2
303.223
303.246
303.269
303.294
303.314
303.366
303.366
303.265
303.21
303.172
303.178
303.236
303.218
302.794
302.715
302.762
302.828
303.127
302.828
303.136
302.781
302.977
302.76
)
;
    }
    ceiling
    {
        type            wallHeatTransfer;
        Tinf            uniform 303.2;
        alphaWall       uniform 0.24;
        value           nonuniform List<scalar> 
43
(
299.729
299.686
299.679
300.669
301.326
301.873
302.326
302.615
302.786
302.906
302.977
303.02
303.048
303.065
303.076
303.084
303.09
303.095
303.098
303.101
303.101
303.101
303.1
303.098
303.097
303.095
303.093
303.091
303.089
303.088
303.086
303.085
303.085
303.085
303.088
303.095
303.104
303.112
303.117
303.155
304.378
304.084
298.267
)
;
    }
    sWall
    {
        type            wallHeatTransfer;
        Tinf            uniform 315.2;
        alphaWall       uniform 0.36;
        value           uniform 300.907;
    }
    nWall
    {
        type            wallHeatTransfer;
        Tinf            uniform 307.2;
        alphaWall       uniform 0.36;
        value           nonuniform List<scalar> 6(303.712 303.652 303.536 303.756 303.734 303.782);
    }
    sideWalls
    {
        type            empty;
    }
    glass1
    {
        type            wallHeatTransfer;
        Tinf            uniform 315.2;
        alphaWall       uniform 4.3;
        value           nonuniform List<scalar> 9(311.234 310.599 310.195 309.886 309.628 309.391 309.195 309.257 309.484);
    }
    glass2
    {
        type            wallHeatTransfer;
        Tinf            uniform 307.2;
        alphaWall       uniform 4.3;
        value           nonuniform List<scalar> 2(305.58 305.7);
    }
    sun
    {
        type            wallHeatTransfer;
        Tinf            uniform 305.2;
        alphaWall       uniform 0.24;
        value           nonuniform List<scalar> 
14
(
303.022
302.756
302.739
302.727
302.715
302.705
302.694
302.683
302.672
302.66
302.653
302.653
302.667
302.706
)
;
    }
    Table_master
    {
        type            zeroGradient;
    }
    Table_slave
    {
        type            zeroGradient;
    }
    inlet
    {
        type            fixedValue;
        value           uniform 295.15;
    }
    outlet
    {
        type            zeroGradient;
    }
}


// ************************************************************************* //
