/*--------------------------------*- C++ -*----------------------------------*\
  =========                 |
  \\      /  F ield         | OpenFOAM: The Open Source CFD Toolbox
   \\    /   O peration     | Website:  https://openfoam.org
    \\  /    A nd           | Version:  6
     \\/     M anipulation  |
\*---------------------------------------------------------------------------*/
FoamFile
{
    version     2.0;
    format      ascii;
    class       volScalarField;
    location    "480";
    object      epsilon;
}
// * * * * * * * * * * * * * * * * * * * * * * * * * * * * * * * * * * * * * //

dimensions      [0 2 -3 0 0 0 0];

internalField   nonuniform List<scalar> 
458
(
0.00044371
0.000573486
0.000614655
0.000707903
0.0008019
0.000898479
0.0010029
0.00111624
0.00121469
0.00127883
0.00128503
0.00121407
0.00105276
0.000753474
0.000335513
4.03557e-05
6.50465e-05
9.53896e-05
0.000108899
0.000104093
8.51709e-05
6.70846e-05
5.32691e-05
4.29742e-05
3.51985e-05
2.92363e-05
2.46077e-05
2.09421e-05
1.79416e-05
1.53764e-05
1.30591e-05
1.1744e-05
9.07918e-06
0.0010801
0.00159991
0.000533197
0.000518038
0.000535262
0.000569817
0.0006283
0.000714257
0.00080897
0.000885131
0.000912759
0.000875472
0.000780021
0.00063935
0.000513723
0.000772133
0.000442289
0.000239222
3.91368e-05
7.70592e-05
9.61255e-05
9.73892e-05
9.38267e-05
9.42696e-05
7.37612e-05
5.58096e-05
4.24963e-05
3.27916e-05
2.56942e-05
2.04581e-05
1.65463e-05
1.36292e-05
1.17854e-05
1.10126e-05
3.02232e-05
2.01526e-05
0.00193393
0.00386395
0.000618481
0.000471738
0.000480846
0.000525581
0.000601813
0.000710007
0.000827739
0.000917461
0.000951431
0.000918845
0.000828399
0.000687269
0.000534771
0.000431459
0.00036675
0.000399606
0.000141133
0.000142602
0.000130127
0.000116454
0.00010862
0.000207829
0.00013897
9.49074e-05
6.69681e-05
4.89141e-05
3.69321e-05
2.87763e-05
2.31423e-05
1.93178e-05
1.51424e-05
1.33535e-05
6.3684e-05
3.29682e-05
0.00309659
0.00800923
0.000922241
0.000451375
0.000442501
0.000497682
0.00059686
0.000747212
0.000896168
0.000993879
0.00102604
0.000987329
0.00088362
0.000726775
0.00056785
0.000448645
0.000380083
0.000393042
0.000607868
0.000389695
0.000255524
0.000186744
0.000147752
0.000129802
0.000299275
0.00022986
0.000188945
0.000161842
0.000140975
0.00012237
0.000106267
9.08797e-05
7.49193e-05
4.60746e-05
2.9514e-05
0.000112486
5.01502e-05
0.00469064
0.0144394
0.00177182
0.000484992
0.00040852
0.000468467
0.00061581
0.000871
0.0010579
0.00115237
0.00116999
0.00110732
0.000969285
0.000778456
0.000584239
0.000436039
0.000345526
0.000314887
0.000316424
0.000265228
0.000219992
0.000184756
0.00015481
0.000129356
0.00011972
0.000109514
0.00010236
9.62112e-05
8.9488e-05
8.14861e-05
7.31076e-05
6.48826e-05
5.71332e-05
4.67231e-05
3.64791e-05
7.3965e-05
0.000112266
0.000119559
0.000142513
0.00018328
0.00692181
0.0217486
0.00406433
0.000818695
0.000485081
0.000497491
0.000753795
0.00117488
0.0013556
0.00141449
0.00139242
0.00129121
0.00110323
0.000851087
0.000596423
0.0004036
0.000291638
0.000250592
0.000240615
0.000230537
0.000212943
0.000187533
0.000158521
0.000131172
0.000113123
0.000105442
0.000103294
0.000102037
9.91481e-05
9.30332e-05
8.28021e-05
7.13603e-05
6.05584e-05
5.07139e-05
4.38305e-05
5.54091e-05
8.73631e-05
0.000105126
0.00020534
0.000204663
0.00970526
0.0262156
0.00887825
0.00287826
0.00152032
0.00121237
0.00157394
0.00180076
0.00184974
0.00181004
0.00171016
0.00153796
0.00127102
0.000935063
0.000605902
0.000369373
0.000246576
0.000212346
0.00021511
0.000215867
0.000202095
0.000177374
0.000149858
0.000126625
0.000113687
0.000111828
0.000115922
0.000121546
0.000126355
0.000128206
0.000123714
0.000111022
9.77734e-05
8.64448e-05
8.10933e-05
8.93039e-05
0.00012094
0.000177039
0.000326973
0.000345181
0.0104851
0.0299868
0.0160951
0.00971751
0.00607958
0.0043208
0.00349372
0.0029612
0.00261357
0.00235701
0.00211554
0.00182776
0.00144285
0.000994348
0.00057554
0.000311234
0.000201275
0.000185816
0.000191457
0.000188574
0.000172302
0.000150177
0.00013033
0.000117909
0.000115161
0.000120943
0.000132246
0.000147233
0.000165495
0.000186957
0.000210878
0.000231543
0.000245361
0.000273164
0.000329582
0.000480644
0.000819943
0.00137401
0.00408114
0.00127698
0.00987057
0.0172662
0.0132383
0.00999137
0.00752609
0.00582943
0.00463614
0.00385352
0.00333202
0.00292064
0.00252687
0.00208645
0.00152585
0.000930344
0.000409808
0.000223393
0.000166713
0.000155729
0.000152462
0.000144162
0.00013052
0.000116908
0.000107966
0.000105941
0.000110949
0.000121936
0.000138039
0.000159488
0.000187606
0.000224619
0.000273577
0.000338073
0.000425081
0.000549321
0.000730079
0.000970582
0.00124228
0.001488
0.0016919
0.00104089
0.00343268
0.00467165
0.00511021
0.00507027
0.00482107
0.00444248
0.00392406
0.00330252
0.00267024
0.00201559
0.00114796
0.000525672
0.000249749
0.000158829
0.00012961
0.000118822
0.000111165
0.000102663
9.44971e-05
8.84969e-05
8.65203e-05
8.90856e-05
9.58002e-05
0.000106207
0.000120268
0.000138544
0.000162267
0.000193526
0.000235727
0.000294638
0.000375783
0.000485413
0.000626006
0.000781662
0.000906202
0.000940765
0.000869264
0.000542946
0.0028943
0.00877746
0.00850975
0.00741082
0.00630438
0.00497336
0.00361765
0.00231021
0.00132839
0.000720121
0.000367828
0.000206412
0.000141804
0.000114204
0.000100756
9.17029e-05
8.38462e-05
7.71451e-05
7.2595e-05
7.08403e-05
7.19085e-05
7.57758e-05
8.24173e-05
9.20222e-05
0.000105115
0.000122605
0.000145886
0.000177034
0.000218996
0.000275474
0.000351604
0.000452561
0.000579129
0.000720815
0.0008327
0.000944959
0.000734181
0.000564744
0.00337986
0.00364124
0.00388868
0.00536333
0.00452383
0.00314546
0.00192137
0.00121803
0.000871123
0.000601272
0.000410754
0.000293472
0.000212053
0.000163171
0.000134687
0.00011614
0.000102476
9.16251e-05
8.33126e-05
7.80689e-05
7.62668e-05
7.77869e-05
8.23523e-05
8.93222e-05
9.85398e-05
0.000110151
0.000124509
0.000142207
0.000164209
0.000192154
0.00022744
0.000271478
0.000326443
0.000395047
0.000480343
0.000597836
0.000653322
0.000613298
0.00049376
0.000390664
)
;

boundaryField
{
    floor
    {
        Cmu             0.09;
        kappa           0.41;
        E               9.8;
        type            epsilonWallFunction;
        value           nonuniform List<scalar> 
36
(
0.000335513
4.03557e-05
6.50465e-05
9.53896e-05
0.000108899
0.000104093
8.51709e-05
6.70846e-05
5.32691e-05
4.29742e-05
3.51985e-05
2.92363e-05
2.46077e-05
2.09421e-05
1.79416e-05
1.53764e-05
1.30591e-05
1.1744e-05
9.07918e-06
9.07918e-06
2.01526e-05
3.29682e-05
5.01502e-05
0.000119559
0.000142513
0.00018328
0.000335513
0.000772133
0.000442289
0.000239222
4.03557e-05
0.000239222
3.91368e-05
0.000399606
0.000141133
0.000607868
)
;
    }
    ceiling
    {
        Cmu             0.09;
        kappa           0.41;
        E               9.8;
        type            epsilonWallFunction;
        value           nonuniform List<scalar> 
43
(
0.00337986
0.00364124
0.00388868
0.00536333
0.00452383
0.00314546
0.00192137
0.00121803
0.000871123
0.000601272
0.000410754
0.000293472
0.000212053
0.000163171
0.000134687
0.00011614
0.000102476
9.16251e-05
8.33126e-05
7.80689e-05
7.62668e-05
7.77869e-05
8.23523e-05
8.93222e-05
9.85398e-05
0.000110151
0.000124509
0.000142207
0.000164209
0.000192154
0.00022744
0.000271478
0.000326443
0.000395047
0.000480343
0.000597836
0.000653322
0.000613298
0.00049376
0.000390664
0.00987057
0.0172662
0.0028943
)
;
    }
    sWall
    {
        Cmu             0.09;
        kappa           0.41;
        E               9.8;
        type            epsilonWallFunction;
        value           uniform 0.00337986;
    }
    nWall
    {
        Cmu             0.09;
        kappa           0.41;
        E               9.8;
        type            epsilonWallFunction;
        value           nonuniform List<scalar> 6(0.00018328 0.000204663 0.000345181 0.000542946 0.000564744 0.000390664);
    }
    sideWalls
    {
        type            empty;
    }
    glass1
    {
        Cmu             0.09;
        kappa           0.41;
        E               9.8;
        type            epsilonWallFunction;
        value           nonuniform List<scalar> 9(0.00044371 0.0010801 0.00193393 0.00309659 0.00469064 0.00692181 0.00970526 0.0104851 0.00987057);
    }
    glass2
    {
        Cmu             0.09;
        kappa           0.41;
        E               9.8;
        type            epsilonWallFunction;
        value           nonuniform List<scalar> 2(0.00127698 0.00104089);
    }
    sun
    {
        Cmu             0.09;
        kappa           0.41;
        E               9.8;
        type            epsilonWallFunction;
        value           nonuniform List<scalar> 
14
(
0.00044371
0.000573486
0.000614655
0.000707903
0.0008019
0.000898479
0.0010029
0.00111624
0.00121469
0.00127883
0.00128503
0.00121407
0.00105276
0.000753474
)
;
    }
    Table_master
    {
        Cmu             0.09;
        kappa           0.41;
        E               9.8;
        type            epsilonWallFunction;
        value           nonuniform List<scalar> 9(0.000207829 0.00013897 9.49074e-05 6.69681e-05 4.89141e-05 3.69321e-05 2.87763e-05 2.31423e-05 1.93178e-05);
    }
    Table_slave
    {
        Cmu             0.09;
        kappa           0.41;
        E               9.8;
        type            epsilonWallFunction;
        value           nonuniform List<scalar> 9(0.000299275 0.00022986 0.000188945 0.000161842 0.000140975 0.00012237 0.000106267 9.08797e-05 7.49193e-05);
    }
    inlet
    {
        type            turbulentMixingLengthDissipationRateInlet;
        mixingLength    0.01;
        phi             phi;
        k               k;
        value           uniform 0.000471672;
    }
    outlet
    {
        type            zeroGradient;
    }
}


// ************************************************************************* //
