/*--------------------------------*- C++ -*----------------------------------*\
  =========                 |
  \\      /  F ield         | OpenFOAM: The Open Source CFD Toolbox
   \\    /   O peration     | Website:  https://openfoam.org
    \\  /    A nd           | Version:  6
     \\/     M anipulation  |
\*---------------------------------------------------------------------------*/
FoamFile
{
    version     2.0;
    format      ascii;
    class       volScalarField;
    location    "480";
    object      nut;
}
// * * * * * * * * * * * * * * * * * * * * * * * * * * * * * * * * * * * * * //

dimensions      [0 2 -1 0 0 0 0];

internalField   nonuniform List<scalar> 
458
(
0.00107831
0.00117458
0.00120204
0.00125999
0.00131346
0.0013642
0.00141513
0.00146654
0.00150845
0.00153455
0.00153702
0.00150819
0.0014382
0.00128647
0.000982381
0.000484929
0.000568571
0.000645966
0.000675124
0.000665042
0.000622022
0.000574447
0.000531946
0.000495198
0.000463323
0.000435529
0.000411212
0.000389687
0.000370109
0.000351556
0.000332926
0.000321353
0.000294934
0.00145055
0.00328383
0.00303632
0.00348093
0.00392665
0.00438389
0.00479195
0.00511119
0.00543792
0.00574248
0.00598552
0.0061309
0.00613865
0.0059088
0.00476506
0.001297
0.00107716
0.000877628
0.000479997
0.00114538
0.00167711
0.00208834
0.00221711
0.00160962
0.00135638
0.00118445
0.00105774
0.000960882
0.000884154
0.000818837
0.000757395
0.000695777
0.000640381
0.000594249
0.000723954
0.000384729
0.0017614
0.0044166
0.00366275
0.00445723
0.0047989
0.00503982
0.00522528
0.00539906
0.00563787
0.00592709
0.00624282
0.00655055
0.00678683
0.00685483
0.00644326
0.00525124
0.00396491
0.00104133
0.000736072
0.0012777
0.00187148
0.00246245
0.00263065
0.000837421
0.000732289
0.000644876
0.000574115
0.000517036
0.000470809
0.000433233
0.000402883
0.000379341
0.000420472
0.000488189
0.000850237
0.000453326
0.00206066
0.00563122
0.00357167
0.00461986
0.00480889
0.00479538
0.00478354
0.00486915
0.00506389
0.0053519
0.00571868
0.0061257
0.00647053
0.0066733
0.006614
0.00626604
0.00536849
0.00294367
0.0011976
0.00151281
0.00208559
0.00279714
0.00341941
0.00345623
0.000945653
0.000866024
0.000811248
0.000770442
0.000735795
0.000701888
0.000669641
0.000635622
0.000595994
0.000560204
0.000552524
0.00101254
0.000521358
0.00236658
0.00726144
0.00374989
0.00439033
0.00465781
0.00450614
0.0043848
0.00446025
0.00466207
0.00496147
0.00535899
0.00580687
0.00613966
0.00629921
0.00628813
0.00616475
0.00580286
0.00479596
0.00432315
0.00436537
0.00463145
0.00494776
0.00514642
0.00506938
0.00432257
0.00393323
0.00371509
0.00355753
0.00339851
0.00318933
0.00285191
0.00242195
0.00193554
0.00146904
0.00110152
0.0010316
0.000886663
0.000696477
0.000738465
0.000803064
0.00269433
0.00909685
0.00512331
0.00408033
0.00443983
0.0044411
0.00427447
0.00434418
0.00454419
0.00484381
0.0052484
0.00567514
0.00598556
0.00607453
0.005974
0.00584038
0.00578107
0.00569514
0.00585813
0.00615952
0.00637782
0.00642859
0.00630187
0.00601782
0.00560827
0.00526903
0.00500036
0.00476109
0.00452509
0.00427396
0.00394975
0.00351643
0.00297685
0.00237392
0.00182181
0.00132641
0.00108637
0.000944573
0.00118847
0.000833153
0.00301565
0.0104767
0.0075973
0.0050229
0.00439546
0.00446924
0.0045062
0.00452211
0.00463299
0.00490198
0.00530499
0.0057296
0.00601102
0.00602693
0.00584178
0.0057229
0.00595238
0.00643241
0.00692184
0.00721103
0.00722659
0.00700479
0.00661575
0.00613343
0.00564217
0.00523473
0.00491644
0.00465338
0.00442188
0.00421437
0.00402648
0.00378559
0.00340552
0.00290629
0.00239289
0.00190443
0.00158419
0.00144942
0.00137998
0.000991731
0.00309435
0.00968947
0.00825006
0.00696134
0.00598561
0.00556032
0.00510527
0.00480761
0.00481183
0.0050829
0.00550822
0.00592793
0.00615578
0.00607597
0.00585574
0.00593835
0.00656834
0.00707251
0.00734745
0.00735628
0.00708703
0.00660415
0.00599789
0.00537197
0.00483521
0.00444488
0.00417322
0.00397449
0.00382568
0.00372315
0.0036724
0.0036644
0.00355886
0.00326536
0.00298192
0.00282433
0.00289163
0.00304945
0.00361345
0.00153382
0.00303267
0.00365408
0.00403438
0.00424642
0.00428016
0.00421769
0.00423374
0.00443749
0.00483761
0.00534825
0.00585805
0.00623035
0.00631325
0.00606132
0.00604168
0.00636509
0.00672893
0.00686093
0.00678726
0.00649297
0.0059777
0.00532483
0.00465423
0.0040859
0.00368031
0.003416
0.00323735
0.00310279
0.00299022
0.00288699
0.0027836
0.00267236
0.00257354
0.00248874
0.00243202
0.0023989
0.00233725
0.002213
0.00206312
0.00143278
0.0013205
0.00232563
0.00321371
0.00393306
0.00460511
0.00527176
0.00581574
0.00619998
0.00641825
0.00639535
0.00612478
0.00582479
0.00584697
0.00597547
0.005917
0.00569757
0.00533522
0.00483442
0.00425285
0.00367007
0.00319219
0.00286422
0.00266217
0.00253938
0.00245973
0.00240346
0.00236167
0.0023317
0.00231538
0.002322
0.00233601
0.00234851
0.0023493
0.00231214
0.00219778
0.00199698
0.00174804
0.00115336
0.00201477
0.00400111
0.00518732
0.00597618
0.0065901
0.00665283
0.00635882
0.00606447
0.00566077
0.00500117
0.00457049
0.0044645
0.00441465
0.00425482
0.00399793
0.00366853
0.00327589
0.00285941
0.00248475
0.00220069
0.00200735
0.00189739
0.00184892
0.00184207
0.00186457
0.00190891
0.00196895
0.00203749
0.00211785
0.0022085
0.00230483
0.00239912
0.00247573
0.00251426
0.00247856
0.00244768
0.00226334
0.00116859
0.00212167
0.00217501
0.0022232
0.0024747
0.00233819
0.00207144
0.00175757
0.00150983
0.00135021
0.00119325
0.00105092
0.000939506
0.000843064
0.000772551
0.000724694
0.000689774
0.000661589
0.000637362
0.000617473
0.000604237
0.000599552
0.000603509
0.000615092
0.000631977
0.000653007
0.00067771
0.000705961
0.000737939
0.000774187
0.000815824
0.000862982
0.000915428
0.000973453
0.00103736
0.00110721
0.00119099
0.00122675
0.00120117
0.00111742
0.00103351
)
;

boundaryField
{
    floor
    {
        type            nutkWallFunction;
        Cmu             0.09;
        kappa           0.41;
        E               9.8;
        value           nonuniform List<scalar> 
36
(
0.000118644
5.77865e-05
6.84089e-05
7.80677e-05
8.16694e-05
8.04262e-05
7.50954e-05
6.91476e-05
6.37831e-05
5.91021e-05
5.50069e-05
5.1407e-05
4.82338e-05
4.54048e-05
4.28144e-05
4.03433e-05
3.78448e-05
3.62836e-05
3.26914e-05
3.26913e-05
4.47496e-05
5.37141e-05
6.24375e-05
8.42939e-05
8.94297e-05
9.72648e-05
0.000118644
0.000155124
0.000129756
0.000106216
5.77864e-05
0.000106216
5.71532e-05
0.000125569
8.91387e-05
0.000143721
)
;
    }
    ceiling
    {
        type            nutkWallFunction;
        Cmu             0.09;
        kappa           0.41;
        E               9.8;
        value           nonuniform List<scalar> 
43
(
0.000246462
0.000252222
0.000257414
0.000284395
0.00026986
0.000241135
0.000206802
0.000179224
0.000161191
0.000143222
0.000126695
0.000113578
0.000102078
9.35735e-05
8.77494e-05
8.34708e-05
7.99986e-05
7.69997e-05
7.45276e-05
7.28771e-05
7.22918e-05
7.27861e-05
7.4231e-05
7.63312e-05
7.89378e-05
8.19866e-05
8.54571e-05
8.93656e-05
9.37718e-05
9.88031e-05
0.000104465
0.000110721
0.000117593
0.000125108
0.000133261
0.000142964
0.000147082
0.000144138
0.000134449
0.000124657
0.000343484
0.000407679
0.000234794
)
;
    }
    sWall
    {
        type            nutkWallFunction;
        Cmu             0.09;
        kappa           0.41;
        E               9.8;
        value           uniform 0.000246529;
    }
    nWall
    {
        type            nutkWallFunction;
        Cmu             0.09;
        kappa           0.41;
        E               9.8;
        value           nonuniform List<scalar> 6(9.72653e-05 0.00010089 0.000119752 0.000138627 0.000140389 0.000124664);
    }
    sideWalls
    {
        type            empty;
    }
    glass1
    {
        type            nutkWallFunction;
        Cmu             0.09;
        kappa           0.41;
        E               9.8;
        value           nonuniform List<scalar> 9(0.000130001 0.00017278 0.00020755 0.00024039 0.000273434 0.000308337 0.000342126 0.000350353 0.000343932);
    }
    glass2
    {
        type            nutkWallFunction;
        Cmu             0.09;
        kappa           0.41;
        E               9.8;
        value           nonuniform List<scalar> 2(0.000182012 0.000170633);
    }
    sun
    {
        type            nutkWallFunction;
        Cmu             0.09;
        kappa           0.41;
        E               9.8;
        value           nonuniform List<scalar> 
14
(
0.000129894
0.000141064
0.000144232
0.00015089
0.000157003
0.000162778
0.000168551
0.000174356
0.00017907
0.000181999
0.000182276
0.000179041
0.000171158
0.00015392
)
;
    }
    Table_master
    {
        type            nutkWallFunction;
        Cmu             0.09;
        kappa           0.41;
        E               9.8;
        value           nonuniform List<scalar> 9(0.0001014 8.86783e-05 7.7935e-05 6.911e-05 6.18948e-05 5.59792e-05 5.11174e-05 4.71518e-05 4.40497e-05);
    }
    Table_slave
    {
        type            nutkWallFunction;
        Cmu             0.09;
        kappa           0.41;
        E               9.8;
        value           nonuniform List<scalar> 9(0.000114304 0.000104829 9.82518e-05 9.33185e-05 8.91056e-05 8.49598e-05 8.09948e-05 7.6787e-05 7.18508e-05);
    }
    inlet
    {
        type            calculated;
        value           uniform 0.000167705;
    }
    outlet
    {
        type            calculated;
        value           nonuniform List<scalar> 2(0.00212167 0.00217501);
    }
}


// ************************************************************************* //
