/*--------------------------------*- C++ -*----------------------------------*\
  =========                 |
  \\      /  F ield         | OpenFOAM: The Open Source CFD Toolbox
   \\    /   O peration     | Website:  https://openfoam.org
    \\  /    A nd           | Version:  6
     \\/     M anipulation  |
\*---------------------------------------------------------------------------*/
FoamFile
{
    version     2.0;
    format      ascii;
    class       volScalarField;
    location    "480";
    object      T;
}
// * * * * * * * * * * * * * * * * * * * * * * * * * * * * * * * * * * * * * //

dimensions      [0 0 0 1 0 0 0];

internalField   nonuniform List<scalar> 
458
(
302.75
302.472
302.459
302.455
302.452
302.448
302.445
302.44
302.433
302.424
302.416
302.412
302.416
302.432
302.472
302.623
302.6
302.592
302.598
302.606
302.612
302.617
302.623
302.629
302.635
302.64
302.646
302.651
302.657
302.663
302.669
302.678
302.702
302.935
302.505
302.48
302.481
302.483
302.483
302.48
302.475
302.46
302.437
302.413
302.399
302.401
302.416
302.437
302.447
302.457
302.479
302.629
302.578
302.574
302.582
302.592
302.596
302.599
302.602
302.604
302.606
302.609
302.611
302.614
302.618
302.623
302.632
302.644
302.685
303.131
302.55
302.51
302.52
302.532
302.542
302.546
302.541
302.516
302.47
302.422
302.391
302.39
302.411
302.432
302.444
302.452
302.471
302.586
302.564
302.566
302.582
302.601
302.602
302.603
302.604
302.605
302.606
302.607
302.609
302.61
302.612
302.618
302.624
302.636
302.68
303.33
302.608
302.542
302.561
302.59
302.618
302.637
302.636
302.594
302.516
302.434
302.383
302.38
302.408
302.436
302.453
302.46
302.469
302.479
302.497
302.527
302.562
302.598
302.63
302.655
302.673
302.688
302.7
302.711
302.718
302.724
302.729
302.732
302.703
302.674
302.656
302.682
303.527
302.684
302.577
302.593
302.636
302.686
302.73
302.739
302.675
302.558
302.442
302.373
302.37
302.406
302.448
302.476
302.486
302.492
302.507
302.533
302.569
302.61
302.651
302.687
302.718
302.74
302.758
302.771
302.781
302.786
302.786
302.782
302.773
302.75
302.716
302.683
302.685
302.777
302.857
302.859
303.705
302.783
302.632
302.623
302.663
302.723
302.799
302.819
302.725
302.574
302.436
302.361
302.36
302.409
302.47
302.514
302.536
302.548
302.569
302.601
302.641
302.683
302.723
302.757
302.785
302.806
302.821
302.832
302.837
302.838
302.832
302.822
302.807
302.784
302.752
302.715
302.7
302.739
302.769
302.811
303.861
302.946
302.777
302.726
302.735
302.781
302.86
302.854
302.729
302.55
302.4
302.33
302.349
302.423
302.51
302.574
302.61
302.631
302.657
302.691
302.728
302.766
302.8
302.829
302.85
302.866
302.875
302.881
302.882
302.879
302.87
302.855
302.836
302.813
302.784
302.751
302.73
302.737
302.751
302.782
304.092
303.409
303.212
303.072
303
302.99
302.992
302.874
302.66
302.444
302.306
302.275
302.344
302.462
302.582
302.661
302.704
302.728
302.754
302.784
302.815
302.845
302.871
302.89
302.903
302.911
302.915
302.915
302.912
302.906
302.897
302.883
302.864
302.844
302.822
302.799
302.786
302.792
302.812
302.962
304.422
304.105
303.858
303.619
303.429
303.293
303.067
302.713
302.384
302.186
302.141
302.22
302.383
302.555
302.704
302.767
302.799
302.82
302.842
302.866
302.889
302.909
302.924
302.934
302.939
302.941
302.94
302.938
302.934
302.929
302.924
302.922
302.922
302.927
302.94
302.963
302.998
303.034
303.063
303.129
297.613
299.302
300.339
300.77
300.945
301.148
301.397
301.694
301.997
302.282
302.572
302.743
302.823
302.86
302.88
302.897
302.913
302.93
302.943
302.953
302.96
302.963
302.964
302.964
302.964
302.963
302.962
302.961
302.962
302.963
302.967
302.974
302.988
303.009
303.035
303.064
303.089
303.113
297.974
299.377
300.223
300.675
301.02
301.387
301.77
302.177
302.493
302.694
302.818
302.881
302.911
302.929
302.942
302.954
302.964
302.972
302.978
302.981
302.983
302.984
302.984
302.984
302.984
302.984
302.984
302.985
302.985
302.986
302.989
302.995
303.005
303.019
303.037
303.059
303.06
303.094
299.483
299.443
299.44
300.484
301.139
301.683
302.159
302.482
302.67
302.799
302.879
302.924
302.953
302.971
302.982
302.99
302.997
303.001
303.005
303.007
303.008
303.008
303.008
303.007
303.006
303.005
303.005
303.004
303.003
303.003
303.002
303.003
303.004
303.006
303.01
303.019
303.03
303.039
303.043
303.084
)
;

boundaryField
{
    floor
    {
        type            wallHeatTransfer;
        Tinf            uniform 305.2;
        alphaWall       uniform 0.24;
        value           nonuniform List<scalar> 
36
(
302.781
303.104
303.036
302.992
302.985
302.995
303.019
303.047
303.075
303.102
303.128
303.152
303.176
303.199
303.221
303.244
303.268
303.287
303.337
303.337
303.23
303.171
303.13
303.129
303.184
303.166
302.781
302.699
302.746
302.814
303.104
302.814
303.112
302.767
302.951
302.744
)
;
    }
    ceiling
    {
        type            wallHeatTransfer;
        Tinf            uniform 303.2;
        alphaWall       uniform 0.24;
        value           nonuniform List<scalar> 
43
(
299.711
299.669
299.662
300.631
301.256
301.778
302.234
302.54
302.717
302.838
302.913
302.956
302.985
303.002
303.013
303.021
303.027
303.032
303.036
303.038
303.039
303.039
303.038
303.037
303.036
303.034
303.033
303.031
303.03
303.028
303.027
303.026
303.026
303.027
303.03
303.037
303.047
303.054
303.059
303.097
304.365
304.07
298.308
)
;
    }
    sWall
    {
        type            wallHeatTransfer;
        Tinf            uniform 315.2;
        alphaWall       uniform 0.36;
        value           uniform 300.894;
    }
    nWall
    {
        type            wallHeatTransfer;
        Tinf            uniform 307.2;
        alphaWall       uniform 0.36;
        value           nonuniform List<scalar> 6(303.662 303.604 303.488 303.7 303.678 303.723);
    }
    sideWalls
    {
        type            empty;
    }
    glass1
    {
        type            wallHeatTransfer;
        Tinf            uniform 315.2;
        alphaWall       uniform 4.3;
        value           nonuniform List<scalar> 9(311.264 310.621 310.212 309.898 309.636 309.396 309.195 309.256 309.481);
    }
    glass2
    {
        type            wallHeatTransfer;
        Tinf            uniform 307.2;
        alphaWall       uniform 4.3;
        value           nonuniform List<scalar> 2(305.556 305.677);
    }
    sun
    {
        type            wallHeatTransfer;
        Tinf            uniform 305.2;
        alphaWall       uniform 0.24;
        value           nonuniform List<scalar> 
14
(
303.008
302.742
302.725
302.712
302.701
302.691
302.68
302.67
302.658
302.647
302.639
302.639
302.651
302.687
)
;
    }
    Table_master
    {
        type            zeroGradient;
    }
    Table_slave
    {
        type            zeroGradient;
    }
    inlet
    {
        type            fixedValue;
        value           uniform 295.15;
    }
    outlet
    {
        type            zeroGradient;
    }
}


// ************************************************************************* //
