/*--------------------------------*- C++ -*----------------------------------*\
  =========                 |
  \\      /  F ield         | OpenFOAM: The Open Source CFD Toolbox
   \\    /   O peration     | Website:  https://openfoam.org
    \\  /    A nd           | Version:  6
     \\/     M anipulation  |
\*---------------------------------------------------------------------------*/
FoamFile
{
    version     2.0;
    format      ascii;
    class       volScalarField;
    location    "11000";
    object      epsilon;
}
// * * * * * * * * * * * * * * * * * * * * * * * * * * * * * * * * * * * * * //

dimensions      [0 2 -3 0 0 0 0];

internalField   nonuniform List<scalar> 
778
(
0.000253144
0.000306376
0.000303011
0.000344171
0.000385018
0.000424804
0.000464225
0.000504474
0.000547286
0.000595382
0.00064382
0.000692217
0.000742224
0.000798632
0.000860461
8.94282e-05
0.000262849
0.000269291
0.000250225
0.000220346
0.000184245
0.000152427
0.000126584
0.000105962
8.94975e-05
7.63449e-05
6.56875e-05
5.68848e-05
4.94115e-05
4.2796e-05
3.65395e-05
3.18305e-05
2.36072e-05
0.00079707
0.00144333
0.000286988
0.000259565
0.000261653
0.000267615
0.000276503
0.000289924
0.000310171
0.000340369
0.000379591
0.000430737
0.000499182
0.000600481
0.00078576
0.00112959
0.000978938
0.000858612
0.000512198
0.000369743
0.000294491
0.00024314
0.000204272
0.000187091
0.0001548
0.000125052
0.000100722
8.1504e-05
6.65383e-05
5.4834e-05
4.56437e-05
3.87207e-05
3.45327e-05
3.27811e-05
6.58109e-05
4.81177e-05
0.00163081
0.00407959
0.000407429
0.000242902
0.000229069
0.000230978
0.000238191
0.000250457
0.000268359
0.000292631
0.000324768
0.000366866
0.000421312
0.000495109
0.000601607
0.000724945
0.000829992
0.00158464
0.00102771
0.000512479
0.000367914
0.000294495
0.000262319
0.000552203
0.000363132
0.000251064
0.000181522
0.000136395
0.000105975
8.48136e-05
6.9847e-05
5.94865e-05
4.51573e-05
3.80058e-05
0.000108142
7.08623e-05
0.00285392
0.00877168
0.000710027
0.00024071
0.000202448
0.000199981
0.000203154
0.000209781
0.000220598
0.000237516
0.000263216
0.000299993
0.000349267
0.000412487
0.000488253
0.000560471
0.000612501
0.000824277
0.00156449
0.000728953
0.000459807
0.000358301
0.000301917
0.000291828
0.000814456
0.000613072
0.000482279
0.000388797
0.000319351
0.000264495
0.000218896
0.000179129
0.00014195
8.39106e-05
5.49755e-05
0.000148478
9.46587e-05
0.00454672
0.0158296
0.00134673
0.000258353
0.00017571
0.000166763
0.000165774
0.000167753
0.000173918
0.000187424
0.000211676
0.000248387
0.000297868
0.000359508
0.000428054
0.000489461
0.000528737
0.000582489
0.000627342
0.000483098
0.000393405
0.000330966
0.000282261
0.00024862
0.000247853
0.000226805
0.00020296
0.00018106
0.00016267
0.000146508
0.000131845
0.000118263
0.000105115
8.45545e-05
6.43121e-05
0.000105224
0.000138928
0.000160302
0.000360963
0.000323062
0.00676472
0.0248812
0.00255426
0.000318132
0.000155526
0.000137045
0.000132109
0.000130681
0.000134452
0.000148541
0.000176694
0.000218093
0.000270896
0.00033434
0.000402049
0.000462981
0.000503264
0.000521827
0.000504812
0.000438233
0.000373784
0.000315615
0.000264728
0.000223395
0.000193311
0.000169648
0.000150821
0.000135617
0.000123275
0.000112726
0.000103277
9.45224e-05
8.60794e-05
7.59152e-05
6.54316e-05
7.76698e-05
9.98681e-05
0.000207743
0.00105351
0.00055558
0.00967369
0.0336393
0.0045851
0.000465166
0.000150856
0.000116336
0.00010708
0.000103277
0.000107074
0.000127894
0.000166093
0.000215881
0.000273404
0.000340342
0.000409753
0.000470928
0.000510584
0.00052073
0.000494473
0.000437711
0.000371887
0.000307509
0.000250572
0.000204459
0.000169763
0.000144561
0.000126316
0.000112718
0.000102258
9.36928e-05
8.62111e-05
7.93441e-05
7.27962e-05
6.61223e-05
6.03585e-05
6.38958e-05
7.68784e-05
0.000171831
0.00157452
0.000902606
0.0127608
0.0404071
0.00749168
0.000871829
0.000194398
0.000115417
9.74042e-05
9.14714e-05
9.86814e-05
0.000137693
0.000189238
0.000246243
0.00030718
0.0003742
0.000445379
0.000508742
0.000547995
0.000551385
0.000516005
0.000451765
0.000375662
0.000301063
0.000236542
0.000185993
0.00014932
0.000123968
0.000106684
9.45397e-05
8.57074e-05
7.87827e-05
7.28893e-05
6.75406e-05
6.24853e-05
5.76603e-05
5.39747e-05
5.60991e-05
7.06887e-05
0.000338157
0.00524175
0.00197571
0.0138288
0.0414568
0.0139341
0.00316559
0.000630897
0.00020833
0.000132832
0.000116093
0.000142588
0.000192983
0.000249281
0.00030645
0.000367584
0.00043719
0.000511897
0.000576617
0.000611662
0.000603721
0.000552574
0.000471302
0.00037876
0.000291103
0.00021836
0.000164058
0.000126775
0.000102584
8.72493e-05
7.73053e-05
7.06239e-05
6.563e-05
6.14384e-05
5.76124e-05
5.39741e-05
5.06029e-05
4.84538e-05
5.33564e-05
0.000101971
0.000971835
0.0126817
0.00300315
0.0130049
0.0283661
0.0144158
0.00572865
0.00210629
0.000836004
0.000414566
0.000277424
0.000279491
0.000314895
0.000356253
0.000401915
0.000459041
0.000531709
0.000611022
0.000674966
0.000699432
0.00067117
0.00059431
0.000487197
0.000373096
0.000271009
0.00019131
0.000135817
0.000100685
7.98652e-05
6.7941e-05
6.11545e-05
5.70601e-05
5.41017e-05
5.15374e-05
4.90644e-05
4.66226e-05
4.44599e-05
4.41799e-05
5.88812e-05
0.000254993
0.00319432
0.010173
0.00309982
0.0106884
0.019352
0.0120377
0.0063015
0.00317625
0.00167635
0.000988065
0.000680092
0.000560886
0.000517937
0.000510841
0.000531938
0.000584484
0.000663867
0.000748605
0.000805899
0.000807769
0.000744502
0.000628639
0.000486821
0.000348244
0.000234006
0.000152688
0.000101868
7.36083e-05
5.88411e-05
5.13905e-05
4.7927e-05
4.61045e-05
4.47641e-05
4.34306e-05
4.19502e-05
4.03906e-05
3.92572e-05
4.16437e-05
8.109e-05
0.000723604
0.00329017
0.00732388
0.00293854
0.00806956
0.0137651
0.00968994
0.00593331
0.00357039
0.00222834
0.00149167
0.001094
0.000870126
0.000744233
0.000686541
0.000690981
0.000751735
0.000846018
0.000933056
0.000968539
0.000925817
0.000805802
0.000635792
0.000453361
0.000293884
0.000177824
0.000107068
6.9568e-05
5.25919e-05
4.44593e-05
4.06074e-05
3.91524e-05
3.85399e-05
3.80782e-05
3.74895e-05
3.67229e-05
3.59757e-05
3.60427e-05
4.13635e-05
0.000108745
0.000755487
0.00290108
0.00616693
0.00273051
0.00612087
0.0101633
0.00778776
0.00531143
0.00357
0.00246934
0.00178838
0.00136869
0.00109344
0.000926667
0.000860131
0.000887925
0.000984099
0.00109808
0.0011688
0.00114845
0.00102551
0.000822101
0.000587851
0.000370283
0.000208779
0.000114792
7.21174e-05
5.23182e-05
4.29875e-05
3.82879e-05
3.59111e-05
3.49552e-05
3.45984e-05
3.44073e-05
3.42713e-05
3.43243e-05
3.4987e-05
3.7397e-05
4.65733e-05
0.000104125
0.000554045
0.0022536
0.00550481
0.00299288
0.00618331
0.00780473
0.00679994
0.00473726
0.00336436
0.00246172
0.00186554
0.00146221
0.00119477
0.00106533
0.00107166
0.00118166
0.00132967
0.00143552
0.0014337
0.00129563
0.0010487
0.000743211
0.00045862
0.000239302
0.000130971
8.13343e-05
5.96077e-05
4.91862e-05
4.34587e-05
3.98623e-05
3.74545e-05
3.59674e-05
3.52624e-05
3.50652e-05
3.55532e-05
3.7413e-05
4.19724e-05
5.17453e-05
7.31386e-05
0.00013498
0.000462318
0.00194613
0.00415547
0.00338296
0.00454653
0.00511196
0.0041839
0.00336094
0.00263893
0.00206935
0.0016483
0.00136143
0.00124534
0.00130202
0.0014799
0.00168674
0.00182027
0.00180736
0.00162577
0.00129458
0.000907551
0.000521129
0.000278838
0.000153805
0.000100138
7.751e-05
6.68072e-05
6.05164e-05
5.59788e-05
5.21778e-05
4.8752e-05
4.58129e-05
4.42507e-05
4.41944e-05
4.65191e-05
5.36631e-05
7.00895e-05
0.000102661
0.000162126
0.000277211
0.000581556
0.00199016
0.00356123
0.00348675
0.00140074
0.00143061
0.00143203
0.00135202
0.00130914
0.00142273
0.0017092
0.00204519
0.00230569
0.00239822
0.00227613
0.00195893
0.0015138
0.000974628
0.000564977
0.000309493
0.000183882
0.000131392
0.000110641
0.000101242
9.58399e-05
9.19338e-05
8.8504e-05
8.49036e-05
8.07132e-05
7.60826e-05
7.25827e-05
7.28846e-05
7.88582e-05
9.60825e-05
0.000134799
0.000210425
0.000344665
0.000578567
0.0010268
0.00210627
0.00423726
0.00319107
0.00118758
0.00171286
0.00194834
0.00230372
0.00275277
0.00315801
0.00333907
0.00330335
0.00307418
0.00267507
0.0021038
0.00148342
0.000953303
0.000558143
0.000330645
0.000224944
0.000184024
0.000169003
0.000162819
0.000159741
0.000158176
0.00015758
0.000157439
0.000156949
0.000155067
0.000151026
0.000145593
0.000144765
0.00015307
0.000177675
0.000232859
0.000342433
0.000543802
0.000900452
0.00152882
0.00256794
0.00400748
0.00289124
0.00742334
0.00810813
0.00481134
0.00339591
0.00372678
0.0041385
0.00415195
0.00394216
0.00358627
0.00313015
0.00261633
0.00206812
0.00151783
0.00103301
0.0006755
0.000461674
0.000362023
0.000323033
0.000307636
0.000299458
0.000293457
0.000288839
0.000286169
0.000286196
0.000289233
0.000294717
0.000300987
0.000305644
0.000307247
0.000309871
0.00032463
0.000356642
0.00041859
0.000534014
0.000741803
0.00110796
0.00176073
0.00295045
0.00520923
0.00313257
0.00650493
0.00514087
0.00436522
0.00461755
0.004533
0.00426358
0.00368272
0.00303724
0.00245311
0.00196132
0.0015571
0.00122588
0.000962057
0.000769394
0.000646876
0.000580667
0.000548594
0.00053311
0.000524225
0.000517917
0.000513407
0.000511706
0.000514809
0.000525123
0.000544885
0.000575466
0.000616648
0.000666072
0.000719119
0.000769094
0.000816794
0.000874637
0.000960426
0.00109947
0.00132912
0.00170894
0.00235024
0.00358085
0.00441351
0.00451427
0.00535536
0.0033707
0.00332035
0.00361881
0.00387914
0.00354291
0.00294068
0.00232227
0.00178847
0.00135751
0.00102134
0.000771053
0.000599399
0.000495944
0.000444402
0.000425859
0.000425318
0.000431519
0.000440554
0.000451631
0.00046583
0.000485495
0.000513747
0.000553843
0.0006083
0.000677956
0.000761518
0.000856059
0.000958478
0.00106752
0.00118557
0.00131326
0.00145872
0.00163555
0.00185842
0.00213791
0.00247473
0.00288096
0.00342298
0.00344225
)
;

boundaryField
{
    floor
    {
        Cmu             0.09;
        kappa           0.41;
        E               9.8;
        type            epsilonWallFunction;
        value           nonuniform List<scalar> 
36
(
0.000860461
8.94282e-05
0.000262849
0.000269291
0.000250225
0.000220346
0.000184245
0.000152427
0.000126584
0.000105962
8.94975e-05
7.63449e-05
6.56875e-05
5.68848e-05
4.94115e-05
4.2796e-05
3.65395e-05
3.18305e-05
2.36072e-05
2.36072e-05
4.81177e-05
7.08623e-05
9.46587e-05
0.000160302
0.000360963
0.000323062
0.000860461
0.00112959
0.000978938
0.000858612
8.94282e-05
0.000858612
0.000512198
0.00158464
0.00102771
0.00156449
)
;
    }
    ceiling
    {
        Cmu             0.09;
        kappa           0.41;
        E               9.8;
        type            epsilonWallFunction;
        value           nonuniform List<scalar> 
43
(
0.00535536
0.0033707
0.00332035
0.00361881
0.00387914
0.00354291
0.00294068
0.00232227
0.00178847
0.00135751
0.00102134
0.000771053
0.000599399
0.000495944
0.000444402
0.000425859
0.000425318
0.000431519
0.000440554
0.000451631
0.00046583
0.000485495
0.000513747
0.000553843
0.0006083
0.000677956
0.000761518
0.000856059
0.000958478
0.00106752
0.00118557
0.00131326
0.00145872
0.00163555
0.00185842
0.00213791
0.00247473
0.00288096
0.00342298
0.00344225
0.00454653
0.00511196
0.00118758
)
;
    }
    sWall
    {
        Cmu             0.09;
        kappa           0.41;
        E               9.8;
        type            epsilonWallFunction;
        value           nonuniform List<scalar> 9(0.0130049 0.0106884 0.00806956 0.00612087 0.00618331 0.00454653 0.00742334 0.00650493 0.00535536);
    }
    nWall
    {
        Cmu             0.09;
        kappa           0.41;
        E               9.8;
        type            epsilonWallFunction;
        value           nonuniform List<scalar> 
14
(
0.000323062
0.00055558
0.000902606
0.00309982
0.00293854
0.00273051
0.00299288
0.00338296
0.00348675
0.00319107
0.00289124
0.00313257
0.00451427
0.00344225
)
;
    }
    sideWalls
    {
        type            empty;
    }
    glass1
    {
        Cmu             0.09;
        kappa           0.41;
        E               9.8;
        type            epsilonWallFunction;
        value           nonuniform List<scalar> 9(0.000253144 0.00079707 0.00163081 0.00285392 0.00454672 0.00676472 0.00967369 0.0127608 0.0138288);
    }
    glass2
    {
        Cmu             0.09;
        kappa           0.41;
        E               9.8;
        type            epsilonWallFunction;
        value           nonuniform List<scalar> 2(0.00197571 0.00300315);
    }
    sun
    {
        Cmu             0.09;
        kappa           0.41;
        E               9.8;
        type            epsilonWallFunction;
        value           nonuniform List<scalar> 
14
(
0.000253144
0.000306376
0.000303011
0.000344171
0.000385018
0.000424804
0.000464225
0.000504474
0.000547286
0.000595382
0.00064382
0.000692217
0.000742224
0.000798632
)
;
    }
    Table_master
    {
        Cmu             0.09;
        kappa           0.41;
        E               9.8;
        type            epsilonWallFunction;
        value           nonuniform List<scalar> 9(0.000552203 0.000363132 0.000251064 0.000181522 0.000136395 0.000105975 8.48136e-05 6.9847e-05 5.94865e-05);
    }
    Table_slave
    {
        Cmu             0.09;
        kappa           0.41;
        E               9.8;
        type            epsilonWallFunction;
        value           nonuniform List<scalar> 9(0.000814456 0.000613072 0.000482279 0.000388797 0.000319351 0.000264495 0.000218896 0.000179129 0.00014195);
    }
    inlet
    {
        type            turbulentMixingLengthDissipationRateInlet;
        mixingLength    0.01;
        phi             phi;
        k               k;
        value           uniform 0.000471671;
    }
    outlet
    {
        type            zeroGradient;
    }
}


// ************************************************************************* //
