/*--------------------------------*- C++ -*----------------------------------*\
  =========                 |
  \\      /  F ield         | OpenFOAM: The Open Source CFD Toolbox
   \\    /   O peration     | Website:  https://openfoam.org
    \\  /    A nd           | Version:  6
     \\/     M anipulation  |
\*---------------------------------------------------------------------------*/
FoamFile
{
    version     2.0;
    format      ascii;
    class       volVectorField;
    location    "11000";
    object      U;
}
// * * * * * * * * * * * * * * * * * * * * * * * * * * * * * * * * * * * * * //

dimensions      [0 1 -1 0 0 0 0];

internalField   nonuniform List<vector> 
778
(
(0.0655975 0.0794072 0)
(-0.155177 0.0157645 0)
(-0.164303 0.0146231 0)
(-0.192417 0.0122738 0)
(-0.216851 0.00872476 0)
(-0.236911 0.0047452 0)
(-0.25204 0.000419691 0)
(-0.261814 -0.00436453 0)
(-0.265721 -0.0098063 0)
(-0.262756 -0.0161863 0)
(-0.250962 -0.0242603 0)
(-0.22627 -0.0348811 0)
(-0.186149 -0.0504061 0)
(-0.144208 -0.0751814 0)
(-0.150088 -0.108581 0)
(0.0546507 0.0355152 0)
(0.01576 -0.0268962 0)
(0.0449704 -0.0232849 0)
(0.0694038 -0.0161799 0)
(0.0844962 -0.0103682 0)
(0.0917261 -0.00641814 0)
(0.0945645 -0.00433447 0)
(0.0955908 -0.00331249 0)
(0.0960379 -0.00272771 0)
(0.0962076 -0.00231601 0)
(0.0960846 -0.00195215 0)
(0.0955597 -0.00151144 0)
(0.0943018 -0.000756562 0)
(0.091452 0.000849299 0)
(0.0852408 0.00407556 0)
(0.0736865 0.00778995 0)
(0.0599923 0.011645 0)
(-0.00786566 0.0300103 0)
(0.258396 0.167394 0)
(-0.161236 0.0483925 0)
(-0.141603 0.0459772 0)
(-0.174004 0.0416108 0)
(-0.199363 0.0356649 0)
(-0.220082 0.0291287 0)
(-0.236112 0.0220613 0)
(-0.247369 0.0142357 0)
(-0.253553 0.00530737 0)
(-0.253884 -0.00513985 0)
(-0.247742 -0.0170715 0)
(-0.234049 -0.0308452 0)
(-0.21415 -0.0480801 0)
(-0.197581 -0.069973 0)
(-0.194076 -0.0826579 0)
(-0.166469 -0.0425583 0)
(-0.105401 -0.0363829 0)
(-0.0983238 -0.0444927 0)
(0.109344 -0.0420913 0)
(0.064454 -0.0412014 0)
(0.0719156 -0.0323213 0)
(0.0859296 -0.0207774 0)
(0.093872 -0.0105221 0)
(0.0961364 -0.00365303 0)
(0.095905 -0.000184657 0)
(0.095512 0.00126144 0)
(0.0954699 0.00190129 0)
(0.0955471 0.00226857 0)
(0.0955527 0.00258818 0)
(0.0954524 0.0031312 0)
(0.0951617 0.00441533 0)
(0.0939042 0.00773572 0)
(0.0883048 0.016778 0)
(0.0745378 0.02538 0)
(0.0631546 0.0330289 0)
(-0.0518525 0.0636338 0)
(0.429974 0.253957 0)
(-0.194236 0.0847609 0)
(-0.11278 0.0784267 0)
(-0.148243 0.0669477 0)
(-0.170671 0.0554934 0)
(-0.188762 0.0437255 0)
(-0.202598 0.0313502 0)
(-0.212292 0.0180226 0)
(-0.217649 0.00342205 0)
(-0.218016 -0.0126052 0)
(-0.21277 -0.0302997 0)
(-0.201673 -0.0498939 0)
(-0.186037 -0.0715697 0)
(-0.1695 -0.0932291 0)
(-0.151125 -0.104588 0)
(-0.120279 -0.093164 0)
(-0.0795724 -0.0949651 0)
(-0.0714509 -0.107631 0)
(0.0921552 -0.0881429 0)
(0.0625834 -0.0657812 0)
(0.0743879 -0.0461924 0)
(0.0880409 -0.02934 0)
(0.0949149 -0.015014 0)
(0.0920436 -0.0120912 0)
(0.0878041 -0.0079814 0)
(0.0854282 -0.00578799 0)
(0.0847389 -0.004557 0)
(0.0847197 -0.00379465 0)
(0.0849757 -0.00322493 0)
(0.0856271 -0.00259923 0)
(0.0873892 -0.00143882 0)
(0.0920786 0.00292514 0)
(0.0902474 0.025123 0)
(0.0734548 0.0424075 0)
(0.0701425 0.0575841 0)
(-0.0897782 0.101045 0)
(0.578536 0.325844 0)
(-0.240105 0.121814 0)
(-0.0808387 0.109215 0)
(-0.121577 0.0898431 0)
(-0.139008 0.0740598 0)
(-0.153066 0.0586317 0)
(-0.163823 0.042758 0)
(-0.171417 0.0258255 0)
(-0.17563 0.00722444 0)
(-0.175701 -0.0134987 0)
(-0.17102 -0.0364385 0)
(-0.161459 -0.0614338 0)
(-0.147595 -0.0873672 0)
(-0.130616 -0.110312 0)
(-0.109655 -0.12322 0)
(-0.0821732 -0.124561 0)
(-0.052561 -0.126392 0)
(-0.0334365 -0.123212 0)
(0.0163025 -0.0568211 0)
(0.0607996 -0.0930194 0)
(0.0684787 -0.0792124 0)
(0.0791077 -0.0588869 0)
(0.0916028 -0.0396751 0)
(0.102939 -0.0210264 0)
(0.115697 -0.0132914 0)
(0.126909 -0.00887324 0)
(0.13256 -0.0056394 0)
(0.133575 -0.00311748 0)
(0.131067 -0.000884404 0)
(0.125612 0.00128897 0)
(0.117089 0.00366958 0)
(0.104735 0.00672152 0)
(0.0854995 0.0111475 0)
(0.0716314 0.0368244 0)
(0.0603775 0.0605869 0)
(0.0763937 0.083497 0)
(-0.117189 0.137464 0)
(0.70571 0.383685 0)
(-0.287679 0.157012 0)
(-0.0477041 0.133775 0)
(-0.096299 0.106909 0)
(-0.107749 0.0875863 0)
(-0.116779 0.0691702 0)
(-0.123565 0.0504542 0)
(-0.128222 0.0306069 0)
(-0.130579 0.00875459 0)
(-0.129773 -0.0157821 0)
(-0.125276 -0.0430395 0)
(-0.116655 -0.0726549 0)
(-0.103935 -0.102813 0)
(-0.0874606 -0.129091 0)
(-0.0675106 -0.145794 0)
(-0.0441662 -0.152275 0)
(-0.0203046 -0.15238 0)
(0.000237301 -0.143735 0)
(0.0307722 -0.115017 0)
(0.0569583 -0.109376 0)
(0.0705588 -0.0924755 0)
(0.0807072 -0.071328 0)
(0.0907741 -0.050895 0)
(0.100338 -0.0328616 0)
(0.10947 -0.0194637 0)
(0.116533 -0.0100655 0)
(0.119994 -0.00335447 0)
(0.120221 0.00191208 0)
(0.117825 0.00646713 0)
(0.113182 0.0108235 0)
(0.106322 0.0154912 0)
(0.0971828 0.0211729 0)
(0.0852767 0.0291721 0)
(0.0737581 0.0471754 0)
(0.0633461 0.0712445 0)
(0.0949713 0.0994622 0)
(0.0173927 0.138659 0)
(0.096841 0.182733 0)
(0.140381 0.147455 0)
(-0.223437 0.202413 0)
(0.81041 0.431981 0)
(-0.331314 0.190685 0)
(-0.0173267 0.150246 0)
(-0.073378 0.117514 0)
(-0.0786035 0.0955044 0)
(-0.0822224 0.0749417 0)
(-0.0844726 0.0543476 0)
(-0.0855048 0.0327364 0)
(-0.0852429 0.00888966 0)
(-0.0825613 -0.0183694 0)
(-0.0773919 -0.0489781 0)
(-0.0687627 -0.0824579 0)
(-0.0567657 -0.116475 0)
(-0.0417065 -0.146299 0)
(-0.0247207 -0.165998 0)
(-0.00633118 -0.174505 0)
(0.0120576 -0.172758 0)
(0.0279792 -0.161021 0)
(0.046151 -0.139345 0)
(0.0626119 -0.122377 0)
(0.0732946 -0.102547 0)
(0.0809816 -0.0805207 0)
(0.087748 -0.0591997 0)
(0.0939419 -0.040336 0)
(0.0992977 -0.0251559 0)
(0.103021 -0.0137858 0)
(0.104659 -0.00507623 0)
(0.104258 0.0021326 0)
(0.102118 0.00861334 0)
(0.09849 0.0148805 0)
(0.0935352 0.021458 0)
(0.0874914 0.0289784 0)
(0.0806335 0.0383592 0)
(0.0749197 0.0527529 0)
(0.0697828 0.0727386 0)
(0.0919676 0.0985095 0)
(0.0741535 0.107489 0)
(0.0909926 0.0484172 0)
(0.146318 -0.0353348 0)
(-0.324274 0.10588 0)
(0.879875 0.474695 0)
(-0.36863 0.220971 0)
(0.00370457 0.15556 0)
(-0.0526748 0.121568 0)
(-0.0522223 0.0978456 0)
(-0.0510388 0.0758164 0)
(-0.0490288 0.0540453 0)
(-0.0465051 0.0315482 0)
(-0.0433059 0.00679881 0)
(-0.0373317 -0.0222577 0)
(-0.0302476 -0.055314 0)
(-0.020458 -0.0918832 0)
(-0.00865238 -0.128845 0)
(0.00455002 -0.161213 0)
(0.0175967 -0.181864 0)
(0.0303796 -0.190211 0)
(0.0421873 -0.187234 0)
(0.0524967 -0.174432 0)
(0.0624714 -0.154085 0)
(0.0710538 -0.13244 0)
(0.0765862 -0.10944 0)
(0.080055 -0.0859624 0)
(0.0826648 -0.0638086 0)
(0.0849198 -0.0443246 0)
(0.086779 -0.0282265 0)
(0.0879053 -0.0154202 0)
(0.0880675 -0.00513241 0)
(0.087112 0.00354787 0)
(0.0852179 0.0112966 0)
(0.0825334 0.0186302 0)
(0.0792377 0.0260426 0)
(0.0756186 0.034031 0)
(0.0720959 0.0431507 0)
(0.0700711 0.0546995 0)
(0.0689819 0.069096 0)
(0.0821902 0.0881293 0)
(0.0856478 0.0916575 0)
(0.0913306 0.0548627 0)
(0.181194 0.027242 0)
(-0.277882 0.155642 0)
(0.927917 0.517154 0)
(-0.383147 0.234175 0)
(0.0168819 0.132976 0)
(-0.027337 0.11665 0)
(-0.0265649 0.094912 0)
(-0.0227528 0.0724168 0)
(-0.0176311 0.0500951 0)
(-0.0123444 0.0272491 0)
(-0.0053523 0.00185431 0)
(0.00463518 -0.0307156 0)
(0.0143742 -0.0652826 0)
(0.025679 -0.103267 0)
(0.0373096 -0.140781 0)
(0.0479594 -0.172065 0)
(0.0570199 -0.192275 0)
(0.0644862 -0.199784 0)
(0.070191 -0.195386 0)
(0.0741376 -0.181207 0)
(0.0768357 -0.160133 0)
(0.0781992 -0.136147 0)
(0.0778456 -0.111151 0)
(0.0763518 -0.0866505 0)
(0.0745506 -0.0641144 0)
(0.0729684 -0.0445343 0)
(0.0717419 -0.0282787 0)
(0.0707293 -0.0150628 0)
(0.0697247 -0.00419417 0)
(0.0684324 0.00509276 0)
(0.0669507 0.0133696 0)
(0.0652522 0.0211126 0)
(0.0634192 0.028737 0)
(0.0616455 0.0365833 0)
(0.060254 0.0449266 0)
(0.0601586 0.0542228 0)
(0.0613169 0.0644487 0)
(0.0704982 0.0772776 0)
(0.0810807 0.0806498 0)
(0.0822184 0.0618056 0)
(0.238722 0.0567387 0)
(-0.548022 0.234603 0)
(1.01128 0.506816 0)
(-0.137196 0.296346 0)
(0.0410866 0.161513 0)
(0.0406158 0.122065 0)
(0.0130959 0.0919424 0)
(0.00867264 0.0653227 0)
(0.0141107 0.0413448 0)
(0.020756 0.0169371 0)
(0.032597 -0.0110559 0)
(0.0440881 -0.0421589 0)
(0.0559841 -0.0768822 0)
(0.0682665 -0.114567 0)
(0.0793847 -0.150996 0)
(0.0878444 -0.180448 0)
(0.0930128 -0.198488 0)
(0.0950152 -0.203689 0)
(0.0942676 -0.197082 0)
(0.0913206 -0.181074 0)
(0.0868496 -0.158705 0)
(0.0813036 -0.133297 0)
(0.0749748 -0.107289 0)
(0.0684651 -0.0825123 0)
(0.0625002 -0.0603189 0)
(0.0576014 -0.0414244 0)
(0.0539564 -0.0259006 0)
(0.0514496 -0.0132455 0)
(0.0497949 -0.00269117 0)
(0.0485849 0.00644219 0)
(0.0477695 0.0146438 0)
(0.0471193 0.0223419 0)
(0.0465779 0.029859 0)
(0.0461887 0.0373962 0)
(0.0460899 0.0450244 0)
(0.0467658 0.052754 0)
(0.0483509 0.0601558 0)
(0.0547358 0.0675058 0)
(0.0661538 0.0656277 0)
(0.0639408 0.0391938 0)
(0.290609 0.0714356 0)
(-0.747054 0.307013 0)
(0.779312 0.395689 0)
(0.000903793 0.319479 0)
(0.0934269 0.218898 0)
(0.110657 0.155138 0)
(0.077233 0.106772 0)
(0.0598537 0.0674716 0)
(0.05828 0.0356683 0)
(0.0624674 0.00631276 0)
(0.0739361 -0.0235252 0)
(0.0855423 -0.0551013 0)
(0.0977632 -0.0897544 0)
(0.10963 -0.126191 0)
(0.118975 -0.159912 0)
(0.124026 -0.185597 0)
(0.124193 -0.199679 0)
(0.119916 -0.201315 0)
(0.112154 -0.191849 0)
(0.101982 -0.173811 0)
(0.0904411 -0.150222 0)
(0.0783723 -0.124121 0)
(0.0664671 -0.0980545 0)
(0.055467 -0.0739535 0)
(0.0461077 -0.0530608 0)
(0.0388666 -0.035809 0)
(0.0338411 -0.0219611 0)
(0.0307676 -0.0107256 0)
(0.0291577 -0.0012014 0)
(0.0285249 0.00722167 0)
(0.0285679 0.0149737 0)
(0.0289478 0.0224104 0)
(0.0295071 0.0297559 0)
(0.0301348 0.0371229 0)
(0.0307086 0.0444969 0)
(0.0311363 0.0517291 0)
(0.0308017 0.058272 0)
(0.0306815 0.0636603 0)
(0.0171213 0.063203 0)
(0.0148383 0.0904665 0)
(0.0652879 0.172298 0)
(-0.633533 0.309676 0)
(0.617243 0.220731 0)
(0.00474841 0.298066 0)
(0.11308 0.241512 0)
(0.148362 0.177506 0)
(0.130941 0.123434 0)
(0.117926 0.0777313 0)
(0.115077 0.0387633 0)
(0.117272 0.0032517 0)
(0.123677 -0.0308612 0)
(0.131945 -0.0651068 0)
(0.141658 -0.100515 0)
(0.150535 -0.135285 0)
(0.155632 -0.165072 0)
(0.155026 -0.185564 0)
(0.148412 -0.194463 0)
(0.1367 -0.191781 0)
(0.121364 -0.179236 0)
(0.103908 -0.159376 0)
(0.0857044 -0.135101 0)
(0.0678633 -0.109207 0)
(0.0513401 -0.0841871 0)
(0.0370346 -0.0619305 0)
(0.0257176 -0.0435166 0)
(0.0176911 -0.0289869 0)
(0.0127281 -0.0176936 0)
(0.0101423 -0.00846323 0)
(0.00918201 -0.000337533 0)
(0.00937621 0.00716075 0)
(0.0102288 0.0143508 0)
(0.0114787 0.0214784 0)
(0.0129496 0.0286958 0)
(0.0144397 0.0361249 0)
(0.0156111 0.0438478 0)
(0.0159118 0.0519418 0)
(0.0142538 0.0603774 0)
(0.00995456 0.0701759 0)
(-0.0227943 0.0959852 0)
(-0.0189378 0.142473 0)
(0.0117928 0.186807 0)
(-0.545157 0.208015 0)
(0.570781 0.118322 0)
(-0.0202275 0.258565 0)
(0.113743 0.229851 0)
(0.165095 0.176006 0)
(0.166766 0.126098 0)
(0.164436 0.080975 0)
(0.165443 0.0398105 0)
(0.16843 0.00143736 0)
(0.172431 -0.0355803 0)
(0.178056 -0.0720435 0)
(0.184257 -0.107598 0)
(0.187948 -0.13951 0)
(0.186112 -0.163952 0)
(0.177379 -0.178143 0)
(0.162203 -0.181292 0)
(0.142127 -0.174276 0)
(0.119088 -0.159096 0)
(0.0948373 -0.138166 0)
(0.0709681 -0.114197 0)
(0.0487245 -0.0897017 0)
(0.0293 -0.0670904 0)
(0.0137627 -0.0481435 0)
(0.00276637 -0.0335874 0)
(-0.00403335 -0.0226546 0)
(-0.0074701 -0.0143869 0)
(-0.00892597 -0.00717871 0)
(-0.00909937 -0.00036876 0)
(-0.00827603 0.00627619 0)
(-0.0069028 0.0129082 0)
(-0.00505667 0.0196699 0)
(-0.00286229 0.0267029 0)
(-0.000474085 0.0342698 0)
(0.00173683 0.0426551 0)
(0.00306416 0.0523446 0)
(0.00241562 0.0642526 0)
(-0.000766928 0.0825629 0)
(-0.029289 0.124499 0)
(-0.0228446 0.182614 0)
(0.0119712 0.183259 0)
(-0.517003 0.0781979 0)
(0.628518 0.0534245 0)
(0.00938853 0.197235 0)
(0.113798 0.196941 0)
(0.175096 0.157896 0)
(0.191345 0.117603 0)
(0.198006 0.0771284 0)
(0.203363 0.0370649 0)
(0.208623 -0.00177474 0)
(0.213209 -0.0399303 0)
(0.217599 -0.0767221 0)
(0.219467 -0.109992 0)
(0.215649 -0.136627 0)
(0.204264 -0.154082 0)
(0.185413 -0.161396 0)
(0.160707 -0.15913 0)
(0.132303 -0.148668 0)
(0.102429 -0.132049 0)
(0.0727915 -0.111344 0)
(0.0451607 -0.0890836 0)
(0.020768 -0.0674876 0)
(0.00124478 -0.0489455 0)
(-0.0122985 -0.0351628 0)
(-0.0200538 -0.0259093 0)
(-0.0241906 -0.0188734 0)
(-0.0260287 -0.0127898 0)
(-0.026514 -0.00691796 0)
(-0.0261006 -0.00100725 0)
(-0.0249143 0.00498613 0)
(-0.0232712 0.0110865 0)
(-0.0210774 0.0173814 0)
(-0.0183603 0.0240304 0)
(-0.0151477 0.0313635 0)
(-0.0115943 0.0399254 0)
(-0.00817566 0.0507018 0)
(-0.00581425 0.065566 0)
(-0.00204608 0.0890044 0)
(-0.0115938 0.133404 0)
(-0.0112138 0.204014 0)
(0.120219 0.203717 0)
(-0.448107 0.0465058 0)
(0.471998 0.074718 0)
(-0.132078 0.137577 0)
(0.0941468 0.13332 0)
(0.172603 0.116781 0)
(0.203702 0.0952578 0)
(0.217987 0.0642185 0)
(0.228004 0.0281121 0)
(0.237157 -0.00932645 0)
(0.243637 -0.0456814 0)
(0.245227 -0.0785278 0)
(0.239304 -0.10522 0)
(0.224524 -0.123754 0)
(0.201418 -0.133336 0)
(0.171897 -0.134438 0)
(0.138517 -0.128302 0)
(0.103545 -0.11618 0)
(0.0692517 -0.0998981 0)
(0.0368256 -0.0810632 0)
(0.00864418 -0.0622106 0)
(-0.0144404 -0.0454118 0)
(-0.0288121 -0.0343712 0)
(-0.0373914 -0.0270196 0)
(-0.0419533 -0.021651 0)
(-0.0441301 -0.0169316 0)
(-0.0448048 -0.0122515 0)
(-0.0445197 -0.00730498 0)
(-0.0435821 -0.00204089 0)
(-0.0420665 0.00345088 0)
(-0.0402822 0.00904645 0)
(-0.0379658 0.0147729 0)
(-0.0350255 0.0208023 0)
(-0.0313463 0.0274873 0)
(-0.0268555 0.0354832 0)
(-0.0217451 0.0461076 0)
(-0.016597 0.0619191 0)
(-0.00856727 0.0863715 0)
(-7.04956e-05 0.125153 0)
(0.0028984 0.187023 0)
(0.163859 0.194815 0)
(-0.341598 0.110304 0)
(0.723902 0.13441 0)
(0.0818495 0.115213 0)
(0.149641 0.0992118 0)
(0.222238 0.0804746 0)
(0.24387 0.0698476 0)
(0.248661 0.0474685 0)
(0.255014 0.0172141 0)
(0.261181 -0.0151453 0)
(0.260275 -0.0451652 0)
(0.249848 -0.0698961 0)
(0.229679 -0.0876595 0)
(0.201359 -0.0980419 0)
(0.167264 -0.101407 0)
(0.129907 -0.0987551 0)
(0.0917375 -0.0913247 0)
(0.0541536 -0.0797694 0)
(0.0197812 -0.0657026 0)
(-0.0118242 -0.0502835 0)
(-0.0344128 -0.0384193 0)
(-0.0494485 -0.0304585 0)
(-0.0583284 -0.0256721 0)
(-0.0633605 -0.0223144 0)
(-0.0659515 -0.0193653 0)
(-0.0669576 -0.0161968 0)
(-0.0668269 -0.0125505 0)
(-0.0658725 -0.00831952 0)
(-0.0643575 -0.00352111 0)
(-0.062385 0.00168881 0)
(-0.0604571 0.00696896 0)
(-0.0583191 0.0121955 0)
(-0.0557649 0.0175425 0)
(-0.0526851 0.023354 0)
(-0.0489594 0.0303933 0)
(-0.0445114 0.0402797 0)
(-0.039182 0.0553284 0)
(-0.0304765 0.0763874 0)
(-0.0141874 0.102141 0)
(0.00306073 0.143349 0)
(0.181007 0.166939 0)
(-0.325536 0.171491 0)
(0.191909 0.0880238 0)
(0.225701 0.0998097 0)
(0.246419 0.0700967 0)
(0.242475 0.0396158 0)
(0.239689 0.0117941 0)
(0.234661 -0.0132788 0)
(0.219949 -0.0337545 0)
(0.196296 -0.0488296 0)
(0.16607 -0.0584962 0)
(0.131707 -0.0632512 0)
(0.0949862 -0.0634527 0)
(0.057764 -0.0598065 0)
(0.0219341 -0.0531448 0)
(-0.0132379 -0.0435831 0)
(-0.0409118 -0.0344915 0)
(-0.0618084 -0.0273781 0)
(-0.0758386 -0.0232418 0)
(-0.0847478 -0.0210997 0)
(-0.0902261 -0.0199866 0)
(-0.093566 -0.018947 0)
(-0.0953931 -0.0175558 0)
(-0.0960079 -0.0155884 0)
(-0.0955806 -0.0129134 0)
(-0.0942835 -0.00944175 0)
(-0.0923495 -0.0051454 0)
(-0.0900047 -0.000143817 0)
(-0.0875334 0.00513927 0)
(-0.0856478 0.0103146 0)
(-0.0839065 0.0154826 0)
(-0.082342 0.0210428 0)
(-0.0807895 0.0277738 0)
(-0.0787559 0.0368521 0)
(-0.075847 0.0491741 0)
(-0.070573 0.0634424 0)
(-0.0557483 0.0755247 0)
(-0.0244883 0.0890741 0)
(0.151409 0.141546 0)
(-0.441044 0.235325 0)
(0.451223 0.209615 0)
(0.206594 0.178775 0)
(0.152957 0.1188 0)
(0.139768 0.0638985 0)
(0.128308 0.0256083 0)
(0.114242 0.00145169 0)
(0.0987865 -0.0133128 0)
(0.0777955 -0.0224815 0)
(0.053258 -0.028075 0)
(0.0262906 -0.0304554 0)
(-0.00334754 -0.0295154 0)
(-0.0325096 -0.0261411 0)
(-0.0586255 -0.0216925 0)
(-0.0806956 -0.0174764 0)
(-0.0971973 -0.0149728 0)
(-0.108752 -0.0140467 0)
(-0.116571 -0.0144116 0)
(-0.122092 -0.0152007 0)
(-0.126157 -0.0159311 0)
(-0.129117 -0.0163242 0)
(-0.131048 -0.0162228 0)
(-0.131941 -0.015474 0)
(-0.131788 -0.0139066 0)
(-0.130636 -0.0113402 0)
(-0.128629 -0.00763062 0)
(-0.125983 -0.00276969 0)
(-0.122791 0.00288943 0)
(-0.120125 0.00855206 0)
(-0.118186 0.0140779 0)
(-0.116737 0.0200391 0)
(-0.11551 0.0272389 0)
(-0.114171 0.0364744 0)
(-0.113486 0.0480944 0)
(-0.115287 0.0614659 0)
(-0.115365 0.0753036 0)
(-0.0991245 0.0944931 0)
(-0.094039 0.14477 0)
(-0.548753 0.215049 0)
(0.361961 -0.414662 0)
(-0.346119 -0.513066 0)
(-0.218731 -0.0279296 0)
(-0.0928317 0.110978 0)
(-0.0535883 0.0926348 0)
(-0.0313487 0.054534 0)
(-0.0266151 0.028285 0)
(-0.0316441 0.0114674 0)
(-0.0403404 0.000493392 0)
(-0.0506785 -0.00676166 0)
(-0.0641786 -0.011134 0)
(-0.0792634 -0.0134892 0)
(-0.0949502 -0.0149538 0)
(-0.110211 -0.0167466 0)
(-0.123989 -0.0192175 0)
(-0.135263 -0.0220735 0)
(-0.143608 -0.024807 0)
(-0.14973 -0.0268627 0)
(-0.154631 -0.0282793 0)
(-0.158928 -0.0291583 0)
(-0.162759 -0.029555 0)
(-0.166012 -0.0294511 0)
(-0.168494 -0.0287973 0)
(-0.170026 -0.0275216 0)
(-0.170503 -0.0255287 0)
(-0.169924 -0.022699 0)
(-0.168405 -0.0188964 0)
(-0.166156 -0.0139878 0)
(-0.163324 -0.00789742 0)
(-0.159975 -0.000660907 0)
(-0.156784 0.00711078 0)
(-0.153133 0.0149684 0)
(-0.148473 0.0235004 0)
(-0.142116 0.0335253 0)
(-0.133946 0.0455277 0)
(-0.124936 0.0599076 0)
(-0.11096 0.0786661 0)
(-0.0647766 0.104811 0)
(-0.00488281 0.118654 0)
(-0.587974 0.0401432 0)
(0.124236 -0.185092 0)
(-0.387848 -0.297594 0)
(-0.343293 -0.0965126 0)
(-0.264868 0.0517677 0)
(-0.211204 0.0837638 0)
(-0.179132 0.0747521 0)
(-0.162942 0.0611937 0)
(-0.157026 0.051159 0)
(-0.157126 0.0459549 0)
(-0.160358 0.0453906 0)
(-0.164683 0.0486176 0)
(-0.168922 0.0547069 0)
(-0.172356 0.062426 0)
(-0.174698 0.0698756 0)
(-0.17631 0.0751589 0)
(-0.177861 0.0770824 0)
(-0.179879 0.0756503 0)
(-0.182397 0.0728154 0)
(-0.18531 0.0693629 0)
(-0.188486 0.0654799 0)
(-0.191797 0.0611455 0)
(-0.195121 0.0563631 0)
(-0.198347 0.0512514 0)
(-0.201373 0.046112 0)
(-0.204085 0.0414398 0)
(-0.206319 0.0378247 0)
(-0.207837 0.0357626 0)
(-0.208353 0.0354519 0)
(-0.207549 0.0365954 0)
(-0.204911 0.0379921 0)
(-0.200787 0.0379215 0)
(-0.194887 0.0374303 0)
(-0.186347 0.0374776 0)
(-0.174327 0.0386323 0)
(-0.158058 0.0407631 0)
(-0.135768 0.0428494 0)
(-0.100102 0.0457445 0)
(-0.035022 0.0583822 0)
(0.145645 0.0902234 0)
(-0.342188 0.0723814 0)
(1.1472 -0.0112601 0)
(-0.295455 -0.323321 0)
(-0.353006 -0.234078 0)
(-0.352388 -0.149685 0)
(-0.328623 -0.108265 0)
(-0.296975 -0.0997405 0)
(-0.269744 -0.102062 0)
(-0.250077 -0.108019 0)
(-0.237084 -0.116074 0)
(-0.228782 -0.126177 0)
(-0.223327 -0.138497 0)
(-0.219297 -0.152758 0)
(-0.215755 -0.167746 0)
(-0.212374 -0.181415 0)
(-0.209393 -0.191718 0)
(-0.207379 -0.197738 0)
(-0.206886 -0.199728 0)
(-0.208211 -0.199538 0)
(-0.211244 -0.197941 0)
(-0.215868 -0.195182 0)
(-0.222024 -0.191185 0)
(-0.229674 -0.185751 0)
(-0.238715 -0.178723 0)
(-0.248913 -0.170108 0)
(-0.259817 -0.160145 0)
(-0.270715 -0.149285 0)
(-0.280645 -0.138046 0)
(-0.288489 -0.126822 0)
(-0.293141 -0.115703 0)
(-0.29375 -0.104473 0)
(-0.289894 -0.0930104 0)
(-0.28262 -0.0828565 0)
(-0.272428 -0.0739098 0)
(-0.25952 -0.0653342 0)
(-0.244357 -0.0567951 0)
(-0.225782 -0.0484934 0)
(-0.194695 -0.0386532 0)
(-0.139367 -0.017493 0)
(-0.121732 0.0275123 0)
(-0.570224 0.0697026 0)
)
;

boundaryField
{
    floor
    {
        type            noSlip;
    }
    ceiling
    {
        type            noSlip;
    }
    sWall
    {
        type            noSlip;
    }
    nWall
    {
        type            noSlip;
    }
    sideWalls
    {
        type            empty;
    }
    glass1
    {
        type            noSlip;
    }
    glass2
    {
        type            noSlip;
    }
    sun
    {
        type            noSlip;
    }
    Table_master
    {
        type            noSlip;
    }
    Table_slave
    {
        type            noSlip;
    }
    inlet
    {
        type            fixedValue;
        value           uniform (0.5 0 0);
    }
    outlet
    {
        type            zeroGradient;
    }
}


// ************************************************************************* //
