/*--------------------------------*- C++ -*----------------------------------*\
  =========                 |
  \\      /  F ield         | OpenFOAM: The Open Source CFD Toolbox
   \\    /   O peration     | Website:  https://openfoam.org
    \\  /    A nd           | Version:  6
     \\/     M anipulation  |
\*---------------------------------------------------------------------------*/
FoamFile
{
    version     2.0;
    format      ascii;
    class       volScalarField;
    location    "7000";
    object      alphat;
}
// * * * * * * * * * * * * * * * * * * * * * * * * * * * * * * * * * * * * * //

dimensions      [1 -1 -1 0 0 0 0];

internalField   nonuniform List<scalar> 
778
(
0.00104102
0.00111058
0.00110657
0.0011546
0.0011986
0.00123856
0.00127575
0.00131161
0.00134772
0.0013861
0.00142271
0.00145751
0.00149181
0.00152871
0.00156722
0.000736685
0.00105576
0.00106429
0.00103851
0.000995369
0.000937725
0.000880311
0.000827469
0.000779854
0.000737163
0.000699109
0.00066492
0.000633769
0.00060469
0.000576391
0.000546801
0.000522219
0.00047266
0.0015247
0.00300743
0.00263941
0.00304654
0.00334195
0.00365507
0.00396736
0.00425511
0.00448671
0.00462155
0.00470089
0.00466843
0.00443595
0.00385953
0.00281904
0.00171619
0.00163631
0.00156636
0.00131896
0.00224678
0.00311448
0.00362699
0.00365093
0.00288076
0.00246379
0.00217463
0.00195508
0.00178049
0.00163174
0.00150025
0.00137787
0.00125814
0.00115068
0.00105802
0.00119152
0.000599354
0.0019342
0.004199
0.00311342
0.00445344
0.00497619
0.00541841
0.00581991
0.00617315
0.00647234
0.00670697
0.00693447
0.00717419
0.00739499
0.00752727
0.00744214
0.00681584
0.00498584
0.00192154
0.00166355
0.0035582
0.00496669
0.00563396
0.00512507
0.00135233
0.00117593
0.00103976
0.000933184
0.000848375
0.000779939
0.000724142
0.000678774
0.000643406
0.000707237
0.000831886
0.00131691
0.000681961
0.00232918
0.00565876
0.00297909
0.00500688
0.00578072
0.00619452
0.00649857
0.0067233
0.00689087
0.00702668
0.00722011
0.00754748
0.00802575
0.00862781
0.00923382
0.00953405
0.00895581
0.00668607
0.00191346
0.00442654
0.00658781
0.00768837
0.00796184
0.00679914
0.00153942
0.00140032
0.00129264
0.00120301
0.0011266
0.00105799
0.000993312
0.000929099
0.00085977
0.000803091
0.000832252
0.00142528
0.000751094
0.00271847
0.00749099
0.00300571
0.00475912
0.00594883
0.00630157
0.00642929
0.00643373
0.00636929
0.0063122
0.00639288
0.00671069
0.00729462
0.00812224
0.00908258
0.00996785
0.0105295
0.0105236
0.00944403
0.00960776
0.00982836
0.00986063
0.00966181
0.00904523
0.0071998
0.00621998
0.00554864
0.00500373
0.00446858
0.00394984
0.00344222
0.0029353
0.00241471
0.00185492
0.00141563
0.00141328
0.00111858
0.000895535
0.00117851
0.00113392
0.00310143
0.00954126
0.00353877
0.00401288
0.00569923
0.00609064
0.00605889
0.00584028
0.005528
0.00527044
0.00526442
0.00559737
0.00626267
0.00722231
0.00834551
0.00946802
0.0104222
0.0110316
0.0111424
0.0110303
0.0108349
0.0105581
0.0102024
0.00974957
0.00908816
0.00845054
0.00787137
0.00731196
0.00670728
0.00606117
0.00537095
0.00463094
0.00383653
0.00299383
0.00223137
0.00167552
0.00130144
0.00145334
0.00251949
0.00135753
0.00349222
0.0114364
0.0047158
0.00328757
0.00512042
0.00576077
0.00568935
0.00533599
0.00482366
0.00437312
0.00435993
0.00478037
0.0055421
0.00661542
0.00783599
0.00904409
0.010083
0.0108264
0.0111678
0.0111409
0.0108962
0.0105259
0.010102
0.00967931
0.0092704
0.00889499
0.00854217
0.00816591
0.00771097
0.00716317
0.00651464
0.00576237
0.00490919
0.00397677
0.00306585
0.00221869
0.00163509
0.00145521
0.002564
0.0015975
0.00382796
0.0128689
0.00642869
0.00313097
0.00405549
0.00510636
0.00525302
0.00496287
0.00435707
0.00374499
0.00388348
0.00443979
0.00529229
0.00639878
0.00766758
0.00893245
0.01001
0.0107575
0.0110962
0.0110509
0.0107345
0.0102682
0.00976676
0.00932214
0.00897948
0.00873466
0.00854363
0.00833617
0.00804706
0.0076424
0.00710652
0.0064362
0.00563756
0.00473413
0.00379531
0.00285223
0.00200081
0.00134321
0.00362532
0.00207806
0.00392911
0.012173
0.0079513
0.00404873
0.00274973
0.00336778
0.00394208
0.00399123
0.00352393
0.00342484
0.00378045
0.00443513
0.00535795
0.00653259
0.00786329
0.00916726
0.0102404
0.0109292
0.0111698
0.0110018
0.010543
0.00994149
0.00934459
0.00886832
0.00856616
0.00841793
0.00835064
0.00827076
0.00810407
0.00781137
0.00737723
0.00679987
0.00608616
0.0052552
0.00434447
0.00332531
0.00194537
0.00170111
0.00544976
0.00238813
0.00384954
0.00980963
0.00820772
0.00555494
0.00366998
0.00284105
0.00268978
0.00281595
0.00305255
0.00342899
0.00396379
0.00470152
0.0057066
0.00697446
0.00837823
0.00970015
0.0107158
0.0112729
0.0113287
0.0109514
0.0102888
0.00952604
0.00884456
0.00837754
0.00816387
0.00813926
0.0081855
0.00818445
0.00807566
0.00783776
0.00746363
0.00695237
0.00630751
0.0055355
0.00460955
0.00318103
0.0014277
0.0033596
0.00515969
0.00241078
0.00360571
0.00838226
0.00793313
0.00635389
0.00489191
0.00393881
0.00346686
0.00335964
0.00355434
0.00391347
0.00443692
0.00521708
0.0063287
0.00771976
0.00919463
0.0104867
0.0113591
0.0116801
0.0114479
0.0107777
0.00986828
0.00895653
0.00826234
0.00791437
0.00787543
0.00799034
0.00810475
0.00810681
0.00799125
0.00776032
0.00740968
0.00693258
0.00632329
0.00556665
0.00455202
0.002713
0.00163053
0.00376567
0.00491005
0.0023738
0.00328281
0.00755721
0.00765108
0.00672361
0.00572154
0.00496647
0.00452158
0.00436252
0.00440197
0.00461919
0.00510142
0.0059751
0.00726176
0.00880226
0.010306
0.0114639
0.0120539
0.011997
0.0113604
0.0103294
0.00917845
0.00821479
0.00766924
0.00756201
0.00766105
0.00781197
0.00790904
0.00788079
0.00774621
0.00751351
0.00717396
0.00670514
0.00608729
0.00528323
0.00418591
0.00251123
0.0017792
0.00387293
0.00535322
0.00234713
0.00299325
0.00676001
0.00730502
0.00686778
0.00622518
0.00568489
0.00532541
0.00514954
0.00509775
0.00528527
0.00590015
0.00704382
0.00860074
0.010265
0.0116643
0.0124934
0.0125993
0.0119983
0.0108604
0.00946611
0.00819962
0.00738988
0.00704213
0.0070111
0.00711843
0.00724758
0.0073235
0.00729664
0.00716004
0.0069261
0.00657825
0.00607773
0.00537264
0.00443094
0.00331241
0.00223691
0.0020004
0.00398763
0.0054968
0.00249215
0.00300429
0.00670948
0.00746413
0.0069502
0.00643
0.0060039
0.00569664
0.00549742
0.00549167
0.00594775
0.00703365
0.00865386
0.0104754
0.0120728
0.0130768
0.0132788
0.0126664
0.0113859
0.00975485
0.00817346
0.00703092
0.00637531
0.00608515
0.00602665
0.00608405
0.00616725
0.00621721
0.00619593
0.00605054
0.00579476
0.00539063
0.00476545
0.00388116
0.00289672
0.00218998
0.00200052
0.00246034
0.00445337
0.00552825
0.00254646
0.00271022
0.00282015
0.00416558
0.00489766
0.00512494
0.00512954
0.00508093
0.00517864
0.00581325
0.0071641
0.00906305
0.0111056
0.0128382
0.013889
0.0140508
0.013298
0.0118184
0.00988861
0.00804974
0.00662191
0.00568467
0.00516488
0.00493509
0.00485734
0.00483334
0.0048077
0.00475576
0.00466565
0.00449282
0.0042084
0.0037835
0.00317403
0.00248379
0.00201957
0.00198437
0.00235111
0.00316407
0.0049503
0.00594132
0.00253817
0.000964457
0.00173863
0.00266625
0.00340903
0.0042732
0.00574732
0.00791587
0.010321
0.0125021
0.0141148
0.0149274
0.0147994
0.0137546
0.0119169
0.00975235
0.00771854
0.00612676
0.00508285
0.00452612
0.00426319
0.00412529
0.00401904
0.0039034
0.00376642
0.00361228
0.00345073
0.00328463
0.00307714
0.00281979
0.00250375
0.00221076
0.00212922
0.00238352
0.00294772
0.00375411
0.00469544
0.00520835
0.00241612
0.00178741
0.00246703
0.00358636
0.00558834
0.00830948
0.0110324
0.0131413
0.0146562
0.0155564
0.0157728
0.0151897
0.0137057
0.0115632
0.00918497
0.00704605
0.0054873
0.00460662
0.00420907
0.0040389
0.0039439
0.00385965
0.00376443
0.00365637
0.00354247
0.00343152
0.00332856
0.0032308
0.00312464
0.00300381
0.00287497
0.00277218
0.00279096
0.00304816
0.0035759
0.00427772
0.00488834
0.00500558
0.00235358
0.00323889
0.00786707
0.00725487
0.00648244
0.00822091
0.010949
0.0132478
0.0147977
0.015612
0.0158031
0.0154513
0.0145126
0.0129482
0.0108327
0.00849764
0.00646679
0.00516322
0.00455314
0.00432367
0.00423286
0.00417008
0.00409595
0.00400215
0.00389389
0.0037826
0.00368218
0.00360625
0.00356517
0.00356231
0.00358845
0.00362036
0.00365366
0.00371696
0.00385774
0.00414317
0.00463977
0.00537543
0.00628569
0.00657717
0.00257446
0.00309554
0.00597835
0.00771481
0.00987325
0.0109501
0.01206
0.0127039
0.0128569
0.012608
0.0120132
0.0110822
0.00980338
0.00824003
0.00662713
0.00531635
0.00452377
0.00416746
0.00404391
0.0040088
0.00398999
0.00395673
0.00389962
0.00382067
0.00372845
0.00363637
0.0035626
0.00352915
0.00355822
0.00366591
0.00385363
0.00409356
0.00431905
0.00452073
0.00476764
0.00512982
0.00566737
0.00642536
0.00755162
0.00719254
0.00277544
0.00289432
0.00248091
0.00246832
0.00253994
0.00259878
0.00251993
0.0023676
0.00218895
0.00200743
0.00183142
0.00166397
0.00151078
0.00138345
0.00129457
0.00124754
0.00123197
0.00123322
0.00124175
0.00125283
0.00126466
0.00127714
0.00129136
0.00130925
0.00133335
0.00136629
0.00141005
0.00146509
0.00152982
0.00160106
0.00167541
0.00175077
0.00182759
0.00190599
0.00198783
0.00207787
0.00217926
0.00229102
0.00241503
0.00255855
0.00252555
)
;

boundaryField
{
    floor
    {
        type            compressible::alphatWallFunction;
        Prt             0.85;
        value           nonuniform List<scalar> 
36
(
0.000219869
0.000104462
0.000149991
0.000151182
0.000147573
0.000141511
0.000133363
0.000125189
0.000117611
0.000110732
0.000104523
9.89516e-05
9.39148e-05
8.92982e-05
8.49638e-05
8.07209e-05
7.62572e-05
7.25263e-05
6.49376e-05
6.49368e-05
8.41667e-05
9.64304e-05
0.000106555
0.000127367
0.000167079
0.000160904
0.000219866
0.000239696
0.000229085
0.000219749
0.000104461
0.000219746
0.000186332
0.00026672
0.000232702
0.000265663
)
;
    }
    ceiling
    {
        type            compressible::alphatWallFunction;
        Prt             0.85;
        value           nonuniform List<scalar> 
43
(
0.000391125
0.000338933
0.000337337
0.000346455
0.000353933
0.000343965
0.000324578
0.000301657
0.000278153
0.000255135
0.000233001
0.000212525
0.000195318
0.000183199
0.000176753
0.000174611
0.000174784
0.000175963
0.000177492
0.000179121
0.000180833
0.000182774
0.000185205
0.000188465
0.000192911
0.00019881
0.00020622
0.00021492
0.000224474
0.000234417
0.000244454
0.000254637
0.000264988
0.000275728
0.000287467
0.000300606
0.000315012
0.000330916
0.000349187
0.000344858
0.000368314
0.000382132
0.000248621
)
;
    }
    sWall
    {
        type            compressible::alphatWallFunction;
        Prt             0.85;
        value           nonuniform List<scalar> 9(0.000507612 0.000477867 0.000438161 0.000402219 0.000403587 0.000366739 0.000432094 0.000414369 0.000389374);
    }
    nWall
    {
        type            compressible::alphatWallFunction;
        Prt             0.85;
        value           nonuniform List<scalar> 
14
(
0.000160456
0.00019114
0.000223453
0.00032951
0.000324821
0.000321518
0.00034013
0.000346966
0.000345634
0.00033005
0.000322206
0.00035086
0.000375768
0.000344164
)
;
    }
    sideWalls
    {
        type            empty;
    }
    glass1
    {
        type            compressible::alphatWallFunction;
        Prt             0.85;
        value           nonuniform List<scalar> 9(0.000143932 0.00020914 0.000262699 0.00031331 0.000362385 0.000410011 0.000458023 0.00049888 0.000511237);
    }
    glass2
    {
        type            compressible::alphatWallFunction;
        Prt             0.85;
        value           nonuniform List<scalar> 2(0.000284474 0.000324258);
    }
    sun
    {
        type            compressible::alphatWallFunction;
        Prt             0.85;
        value           nonuniform List<scalar> 
14
(
0.000147966
0.000157652
0.000157093
0.000163759
0.000169839
0.000175338
0.00018044
0.000185342
0.000190262
0.000195475
0.000200434
0.000205133
0.000209753
0.00021471
)
;
    }
    Table_master
    {
        type            compressible::alphatWallFunction;
        Prt             0.85;
        value           nonuniform List<scalar> 9(0.000191144 0.000166957 0.000148003 0.000132968 0.000120859 0.000110983 0.000102855 9.61898e-05 9.09563e-05);
    }
    Table_slave
    {
        type            compressible::alphatWallFunction;
        Prt             0.85;
        value           nonuniform List<scalar> 9(0.000216415 0.000197665 0.000183006 0.000170699 0.000160126 0.00015056 0.000141477 0.000132391 0.000122497);
    }
    inlet
    {
        type            fixedValue;
        value           uniform 1.94e-05;
    }
    outlet
    {
        type            zeroGradient;
    }
}


// ************************************************************************* //
