/*--------------------------------*- C++ -*----------------------------------*\
  =========                 |
  \\      /  F ield         | OpenFOAM: The Open Source CFD Toolbox
   \\    /   O peration     | Website:  https://openfoam.org
    \\  /    A nd           | Version:  6
     \\/     M anipulation  |
\*---------------------------------------------------------------------------*/
FoamFile
{
    version     2.0;
    format      ascii;
    class       volScalarField;
    location    "7000";
    object      k;
}
// * * * * * * * * * * * * * * * * * * * * * * * * * * * * * * * * * * * * * //

dimensions      [0 2 -2 0 0 0 0];

internalField   nonuniform List<scalar> 
778
(
0.00158605
0.00180129
0.00178813
0.00194662
0.00209776
0.0022399
0.00237639
0.00251179
0.0026519
0.002805
0.00295502
0.00310118
0.00324867
0.00341114
0.00358492
0.000792463
0.00162621
0.00165248
0.00157338
0.00144541
0.00128287
0.00113062
0.000998995
0.000887363
0.000792897
0.000713171
0.000645144
0.00058613
0.000533596
0.000484838
0.000436355
0.000398026
0.000326134
0.00340722
0.00643403
0.00268766
0.00274612
0.00288772
0.00305418
0.00323435
0.00342986
0.00364278
0.00387278
0.00412459
0.00437824
0.00459412
0.0046997
0.0045944
0.00429801
0.00390683
0.00357989
0.00253804
0.00281404
0.00295655
0.00289876
0.00266549
0.00226575
0.00190596
0.00160947
0.00136965
0.00117583
0.00101709
0.000885345
0.000774113
0.000681314
0.00061533
0.000574879
0.000864609
0.000524341
0.00549126
0.0127828
0.00347823
0.00321206
0.0032973
0.00345503
0.00363625
0.00384017
0.00407018
0.00432649
0.00463433
0.00500966
0.00545014
0.00596038
0.00653254
0.00686222
0.00627955
0.00538678
0.00403668
0.00416904
0.00417328
0.00397641
0.00357913
0.00266745
0.00201695
0.00157689
0.0012702
0.00104983
0.000887291
0.000764887
0.000672056
0.000603855
0.00055162
0.000548866
0.00116545
0.000678815
0.00797438
0.0217619
0.00449181
0.00339064
0.00334129
0.00343775
0.003549
0.00366829
0.00380826
0.00399029
0.0042579
0.00464725
0.00517037
0.0058252
0.00655584
0.0071367
0.00723012
0.00724647
0.00534084
0.00554575
0.00537313
0.00512387
0.00478625
0.00434831
0.0034566
0.00286017
0.00243719
0.00211092
0.0018513
0.00163266
0.00143915
0.0012591
0.0010782
0.000801218
0.000660191
0.00142118
0.000823409
0.0108776
0.0336402
0.00621425
0.00342493
0.00315803
0.00316662
0.00318917
0.00320936
0.00325146
0.00336022
0.00359366
0.00398813
0.00455283
0.0052771
0.00608827
0.00681944
0.00728391
0.00764248
0.00751281
0.00665016
0.00606988
0.00557668
0.0050979
0.00462929
0.00412374
0.00366646
0.00327576
0.002938
0.00263159
0.00234798
0.00207936
0.00181863
0.00155519
0.0012225
0.000931251
0.00119103
0.0012173
0.00117054
0.00202781
0.00187825
0.0141765
0.0476057
0.00928688
0.00349013
0.00290833
0.00282243
0.00276404
0.00269915
0.00266376
0.00273397
0.00298013
0.00341374
0.00402376
0.00479947
0.00565632
0.00646412
0.00706986
0.00740596
0.00732035
0.00678633
0.00621196
0.00563502
0.00507323
0.00455583
0.00409172
0.00369621
0.00336352
0.00307401
0.00280693
0.00255154
0.00229899
0.00204234
0.00177413
0.00147184
0.00117934
0.00111376
0.00111327
0.00170244
0.00505179
0.00269228
0.0179943
0.0606122
0.0143651
0.00382014
0.00271513
0.00252918
0.00241154
0.00229373
0.00222073
0.00231116
0.00262994
0.0031394
0.00380342
0.00463516
0.00553371
0.00637197
0.00700446
0.00732912
0.00725341
0.00681628
0.00621375
0.00555377
0.00491147
0.0043428
0.00387274
0.00350067
0.0032068
0.00296182
0.00274127
0.00252892
0.00231336
0.0020873
0.00184557
0.00158323
0.0013277
0.00116198
0.00109503
0.00155243
0.0062464
0.00372819
0.0216434
0.0704849
0.0214427
0.00510425
0.0027431
0.00237179
0.00221002
0.00208176
0.00202609
0.00221914
0.00264952
0.00323158
0.00394007
0.00478054
0.00570759
0.00658242
0.00723058
0.00751795
0.00738602
0.006897
0.00619894
0.00542786
0.00469242
0.00406516
0.00357485
0.00321263
0.00294756
0.00274086
0.00256395
0.00239541
0.00222166
0.00203518
0.00183218
0.00161292
0.00139656
0.00123345
0.00116363
0.00210821
0.0135196
0.00631739
0.0228345
0.0694879
0.0325406
0.0110639
0.00407
0.00258799
0.0022356
0.00210297
0.00218999
0.00251211
0.00300018
0.00360316
0.00433694
0.00522146
0.00619717
0.00709984
0.00772685
0.00792937
0.00766872
0.00702911
0.00616908
0.00525227
0.00441054
0.00372438
0.0032177
0.00286936
0.00263568
0.00246909
0.00233598
0.00221063
0.00207833
0.00193199
0.00176901
0.00159133
0.00141422
0.00129587
0.00139039
0.00408506
0.0260369
0.0083515
0.0219179
0.0516238
0.0336444
0.0174405
0.00859331
0.00476241
0.00326262
0.00273058
0.00285368
0.0032109
0.00367248
0.00424841
0.00500174
0.0059501
0.00698924
0.00790197
0.00845247
0.00849101
0.00800942
0.00713047
0.00604911
0.00496164
0.00401737
0.00329451
0.00280014
0.00249009
0.00230324
0.00218509
0.00209654
0.00201101
0.00191512
0.00180321
0.00167389
0.00153021
0.00138753
0.00132239
0.0019253
0.0106682
0.022207
0.00851154
0.0192305
0.0394245
0.0302349
0.0195697
0.0121873
0.00794295
0.00572022
0.00467136
0.00436349
0.00440007
0.00465298
0.00514841
0.00594344
0.00699482
0.00810451
0.0089777
0.00935192
0.00910246
0.00828034
0.00707113
0.00572444
0.004472
0.0034704
0.00277436
0.00235226
0.00211826
0.0019938
0.00192578
0.00187533
0.00182094
0.00175261
0.00166617
0.0015615
0.00144331
0.0013325
0.00136368
0.00317303
0.011154
0.0187225
0.0082556
0.0159446
0.0315768
0.0266465
0.0195398
0.0139788
0.010287
0.00802987
0.00675431
0.00605058
0.00573159
0.00578415
0.00627918
0.00721968
0.00843149
0.00957893
0.0102897
0.0103125
0.00959603
0.00829462
0.0066806
0.00507331
0.00373548
0.00280099
0.00224142
0.0019611
0.00182083
0.00175133
0.0017168
0.00168877
0.00165319
0.00160298
0.0015344
0.00144901
0.00135376
0.00127513
0.00136553
0.00305225
0.0101807
0.018622
0.00807801
0.0132622
0.0256699
0.0233491
0.0186905
0.0145853
0.0115901
0.00954558
0.00821111
0.00730091
0.00684126
0.00696138
0.0077268
0.00898855
0.0103723
0.0114045
0.0116952
0.0110937
0.00969045
0.00779725
0.00578053
0.00404441
0.00284693
0.00220174
0.00186974
0.00170722
0.00162643
0.00158472
0.00156141
0.00153898
0.00150901
0.00146721
0.00141227
0.00134619
0.00127707
0.00123778
0.0013878
0.00284477
0.00913791
0.0168468
0.00911051
0.0133551
0.022414
0.0220584
0.017761
0.0143936
0.0118954
0.0100854
0.00876927
0.0079187
0.00777681
0.00847884
0.00987594
0.0115281
0.0128593
0.0133716
0.0128027
0.011243
0.00897173
0.00652818
0.00431816
0.00296426
0.00222244
0.00185556
0.00167493
0.00158159
0.00152731
0.00149021
0.00146039
0.00142952
0.00139351
0.00135051
0.00130292
0.0012598
0.00124922
0.00135415
0.0017661
0.00325472
0.0092604
0.0148795
0.00950666
0.0108791
0.0117646
0.0129244
0.0125533
0.0113746
0.0100741
0.00894531
0.00820197
0.00830381
0.00942077
0.0112983
0.0133593
0.0149285
0.0154741
0.0147557
0.0127994
0.0100945
0.00700051
0.00462105
0.00311326
0.00232438
0.00194333
0.00175775
0.00165623
0.00158955
0.00153585
0.00148541
0.0014347
0.00138426
0.0013349
0.00128861
0.00125952
0.0012886
0.00146799
0.00194258
0.0028933
0.00481157
0.00994076
0.0155466
0.00943017
0.00354338
0.00482275
0.00599215
0.00659346
0.00726815
0.0087884
0.0113105
0.0141425
0.0165489
0.017955
0.0180018
0.0166294
0.0140821
0.010507
0.00723026
0.00476124
0.00326858
0.00251124
0.00216604
0.0020019
0.00190874
0.00184189
0.00178381
0.00172656
0.00166579
0.00159958
0.00153073
0.00147813
0.00144765
0.00146861
0.00161426
0.00202232
0.00287925
0.00438001
0.00679533
0.0104397
0.0146437
0.00854522
0.00444576
0.00627773
0.00808519
0.01099
0.014667
0.0181265
0.0203722
0.0214319
0.0213324
0.0200625
0.0174716
0.0139392
0.0102582
0.00698802
0.00470238
0.00341333
0.00281848
0.00257199
0.00246405
0.00240444
0.00236248
0.00232931
0.00230281
0.00228134
0.0022609
0.00223428
0.00219288
0.00213899
0.00212113
0.00216831
0.00235455
0.00281505
0.00374755
0.00538556
0.00797323
0.0115004
0.0149738
0.00811909
0.0150818
0.0245431
0.0181073
0.0143581
0.0169537
0.0206483
0.0227802
0.0234878
0.0230381
0.0216789
0.0196197
0.0169104
0.0136726
0.0102946
0.00734752
0.00528279
0.0041748
0.00370477
0.00352779
0.00344874
0.00339154
0.00333458
0.00327787
0.00322921
0.00319811
0.00319238
0.00321544
0.00326369
0.00332495
0.00338077
0.00343996
0.00357714
0.00383547
0.00431743
0.00519887
0.00673444
0.00928375
0.0133191
0.0178373
0.00974402
0.0138097
0.0170629
0.0178287
0.0207286
0.0216437
0.022056
0.021062
0.0192583
0.0171505
0.0149784
0.0128275
0.0107125
0.00869341
0.00694347
0.00566051
0.0049171
0.00458092
0.00445911
0.00442323
0.00440988
0.00439303
0.00436724
0.00433889
0.00432127
0.0043319
0.0043909
0.0045191
0.0047341
0.00504367
0.0054363
0.00586536
0.00627408
0.00671473
0.00732056
0.00827223
0.00979764
0.0122292
0.0166861
0.0182433
0.0112907
0.0121314
0.00891264
0.00882557
0.0093506
0.00979885
0.00923447
0.00816956
0.00699501
0.00589014
0.00490671
0.00405272
0.00334179
0.00280232
0.00245368
0.00227862
0.00222201
0.0022265
0.00225753
0.00229814
0.00234186
0.00238838
0.00244176
0.00250959
0.00260223
0.00273156
0.00290852
0.0031395
0.00342319
0.00375044
0.00410853
0.0044884
0.00489276
0.0053237
0.00579236
0.00632998
0.00696358
0.00769729
0.00855505
0.00960265
0.0093509
)
;

boundaryField
{
    floor
    {
        type            kqRWallFunction;
        value           nonuniform List<scalar> 
36
(
0.00358492
0.000792463
0.00162621
0.00165248
0.00157338
0.00144541
0.00128287
0.00113062
0.000998995
0.000887363
0.000792897
0.000713171
0.000645144
0.00058613
0.000533596
0.000484838
0.000436355
0.000398026
0.000326134
0.000326134
0.000524341
0.000678815
0.000823409
0.00117054
0.00202781
0.00187825
0.00358492
0.00429801
0.00390683
0.00357989
0.000792463
0.00357989
0.00253804
0.00538678
0.00403668
0.00534084
)
;
    }
    ceiling
    {
        type            kqRWallFunction;
        value           nonuniform List<scalar> 
43
(
0.0121314
0.00891264
0.00882557
0.0093506
0.00979885
0.00923447
0.00816956
0.00699501
0.00589014
0.00490671
0.00405272
0.00334179
0.00280232
0.00245368
0.00227862
0.00222201
0.0022265
0.00225753
0.00229814
0.00234186
0.00238838
0.00244176
0.00250959
0.00260223
0.00273156
0.00290852
0.0031395
0.00342319
0.00375044
0.00410853
0.0044884
0.00489276
0.0053237
0.00579236
0.00632998
0.00696358
0.00769729
0.00855505
0.00960265
0.0093509
0.0108791
0.0117646
0.00444576
)
;
    }
    sWall
    {
        type            kqRWallFunction;
        value           nonuniform List<scalar> 9(0.0219179 0.0192305 0.0159446 0.0132622 0.0133551 0.0108791 0.0150818 0.0138097 0.0121314);
    }
    nWall
    {
        type            kqRWallFunction;
        value           nonuniform List<scalar> 
14
(
0.00187825
0.00269228
0.00372819
0.00851154
0.0082556
0.00807801
0.00911051
0.00950666
0.00943017
0.00854522
0.00811909
0.00974402
0.0112907
0.0093509
)
;
    }
    sideWalls
    {
        type            empty;
    }
    glass1
    {
        type            kqRWallFunction;
        value           nonuniform List<scalar> 9(0.00158605 0.00340722 0.00549126 0.00797438 0.0108776 0.0141765 0.0179943 0.0216434 0.0228345);
    }
    glass2
    {
        type            kqRWallFunction;
        value           nonuniform List<scalar> 2(0.00631739 0.0083515);
    }
    sun
    {
        type            kqRWallFunction;
        value           nonuniform List<scalar> 
14
(
0.00158605
0.00180129
0.00178813
0.00194662
0.00209776
0.0022399
0.00237639
0.00251179
0.0026519
0.002805
0.00295502
0.00310118
0.00324867
0.00341114
)
;
    }
    Table_master
    {
        type            kqRWallFunction;
        value           nonuniform List<scalar> 9(0.00266745 0.00201695 0.00157689 0.0012702 0.00104983 0.000887291 0.000764887 0.000672056 0.000603855);
    }
    Table_slave
    {
        type            kqRWallFunction;
        value           nonuniform List<scalar> 9(0.0034566 0.00286017 0.00243719 0.00211092 0.0018513 0.00163266 0.00143915 0.0012591 0.0010782);
    }
    inlet
    {
        type            turbulentIntensityKineticEnergyInlet;
        intensity       0.05;
        value           uniform 0.0009375;
    }
    outlet
    {
        type            zeroGradient;
    }
}


// ************************************************************************* //
