/*--------------------------------*- C++ -*----------------------------------*\
  =========                 |
  \\      /  F ield         | OpenFOAM: The Open Source CFD Toolbox
   \\    /   O peration     | Website:  https://openfoam.org
    \\  /    A nd           | Version:  6
     \\/     M anipulation  |
\*---------------------------------------------------------------------------*/
FoamFile
{
    version     2.0;
    format      ascii;
    class       volVectorField;
    location    "32399.9999977475054";
    object      U;
}
// * * * * * * * * * * * * * * * * * * * * * * * * * * * * * * * * * * * * * //

dimensions      [0 1 -1 0 0 0 0];

internalField   nonuniform List<vector> 
778
(
(0.0655958 0.0794086 0)
(-0.15518 0.0157672 0)
(-0.16431 0.0146273 0)
(-0.192432 0.0122788 0)
(-0.216875 0.00872991 0)
(-0.236944 0.00474982 0)
(-0.252082 0.000423047 0)
(-0.261864 -0.00436309 0)
(-0.265775 -0.00980724 0)
(-0.262811 -0.0161898 0)
(-0.251015 -0.0242665 0)
(-0.226316 -0.0348901 0)
(-0.186185 -0.0504181 0)
(-0.144237 -0.0751982 0)
(-0.150127 -0.108606 0)
(0.0546229 0.0355023 0)
(0.0157136 -0.02688 0)
(0.0448983 -0.023273 0)
(0.0693016 -0.016169 0)
(0.0843686 -0.0103599 0)
(0.0915849 -0.00641655 0)
(0.0944217 -0.0043346 0)
(0.0954496 -0.00331138 0)
(0.0958945 -0.00272577 0)
(0.0960596 -0.00231429 0)
(0.0959331 -0.00195125 0)
(0.0954073 -0.00151177 0)
(0.0941515 -0.000758351 0)
(0.0913071 0.000845386 0)
(0.0851068 0.00406766 0)
(0.0735737 0.00777533 0)
(0.0599151 0.0116227 0)
(-0.00791657 0.0299809 0)
(0.258393 0.167397 0)
(-0.161238 0.0483978 0)
(-0.141611 0.0459861 0)
(-0.174019 0.0416227 0)
(-0.199387 0.0356788 0)
(-0.220116 0.0291433 0)
(-0.236157 0.0220749 0)
(-0.247423 0.0142463 0)
(-0.253614 0.00531348 0)
(-0.253948 -0.00513909 0)
(-0.247805 -0.0170761 0)
(-0.234108 -0.0308538 0)
(-0.214206 -0.0480914 0)
(-0.197635 -0.0699882 0)
(-0.194129 -0.0826808 0)
(-0.166509 -0.0425892 0)
(-0.105415 -0.0364186 0)
(-0.0983339 -0.0445209 0)
(0.109335 -0.0420231 0)
(0.0644315 -0.0411408 0)
(0.0718563 -0.0322682 0)
(0.0858327 -0.0207291 0)
(0.0937373 -0.0104825 0)
(0.0959804 -0.00364606 0)
(0.0957472 -0.000187067 0)
(0.0953592 0.00126388 0)
(0.0953201 0.00190813 0)
(0.095398 0.00227549 0)
(0.0954027 0.00259203 0)
(0.0953013 0.00313114 0)
(0.0950101 0.0044113 0)
(0.0937536 0.0077262 0)
(0.0881598 0.0167564 0)
(0.0744096 0.0253381 0)
(0.0630635 0.0329607 0)
(-0.051946 0.0635462 0)
(0.429969 0.253961 0)
(-0.194236 0.08477 0)
(-0.112789 0.0784416 0)
(-0.148257 0.0669676 0)
(-0.170694 0.055517 0)
(-0.188794 0.0437504 0)
(-0.20264 0.0313733 0)
(-0.212343 0.0180405 0)
(-0.217706 0.00343195 0)
(-0.218077 -0.0126044 0)
(-0.212832 -0.0303069 0)
(-0.201734 -0.0499061 0)
(-0.186099 -0.0715838 0)
(-0.169568 -0.093244 0)
(-0.1512 -0.104607 0)
(-0.120355 -0.0931909 0)
(-0.0796425 -0.0950064 0)
(-0.0715293 -0.10768 0)
(0.0921085 -0.0880753 0)
(0.0625421 -0.0657034 0)
(0.0743295 -0.0461099 0)
(0.0879547 -0.0292521 0)
(0.0947848 -0.0149195 0)
(0.0918759 -0.0120633 0)
(0.0876406 -0.00798764 0)
(0.0852666 -0.00579891 0)
(0.0845761 -0.00456216 0)
(0.0845599 -0.00379434 0)
(0.0848206 -0.0032225 0)
(0.085474 -0.00259784 0)
(0.0872345 -0.00143997 0)
(0.0919173 0.00291998 0)
(0.0900796 0.0250978 0)
(0.0732936 0.0423475 0)
(0.0700194 0.057469 0)
(-0.0899458 0.100871 0)
(0.578529 0.325851 0)
(-0.240104 0.121826 0)
(-0.0808475 0.109236 0)
(-0.121592 0.0898697 0)
(-0.13903 0.0740914 0)
(-0.153095 0.0586654 0)
(-0.163861 0.0427899 0)
(-0.171463 0.0258512 0)
(-0.175682 0.00724019 0)
(-0.175758 -0.0134945 0)
(-0.171078 -0.036444 0)
(-0.161519 -0.0614435 0)
(-0.147662 -0.0873748 0)
(-0.130697 -0.110316 0)
(-0.109753 -0.123227 0)
(-0.0822861 -0.12458 0)
(-0.0526871 -0.126428 0)
(-0.0335733 -0.123242 0)
(0.016122 -0.056829 0)
(0.0606787 -0.0929858 0)
(0.0683878 -0.0791443 0)
(0.0790343 -0.0588018 0)
(0.0915364 -0.039577 0)
(0.102884 -0.0209202 0)
(0.115634 -0.0132358 0)
(0.126798 -0.0088469 0)
(0.132408 -0.00562668 0)
(0.133395 -0.00311025 0)
(0.130865 -0.000879185 0)
(0.125395 0.00129324 0)
(0.116862 0.00367247 0)
(0.104505 0.00672171 0)
(0.0852723 0.0111427 0)
(0.0714177 0.0368013 0)
(0.0601649 0.060518 0)
(0.0762059 0.0833433 0)
(-0.117479 0.137134 0)
(0.705703 0.383694 0)
(-0.287677 0.157028 0)
(-0.0477132 0.133801 0)
(-0.0963142 0.106941 0)
(-0.107769 0.0876248 0)
(-0.116807 0.0692115 0)
(-0.1236 0.050494 0)
(-0.128263 0.03064 0)
(-0.130627 0.00877636 0)
(-0.129825 -0.015774 0)
(-0.12533 -0.043042 0)
(-0.116714 -0.0726589 0)
(-0.104005 -0.102808 0)
(-0.0875528 -0.129075 0)
(-0.0676241 -0.145781 0)
(-0.0443005 -0.152277 0)
(-0.02045 -0.152406 0)
(8.02108e-05 -0.143775 0)
(0.0306293 -0.115027 0)
(0.0568341 -0.109362 0)
(0.0704574 -0.0924301 0)
(0.0806276 -0.0712573 0)
(0.0907064 -0.0508064 0)
(0.100273 -0.0327678 0)
(0.10939 -0.0193911 0)
(0.116419 -0.0100066 0)
(0.119843 -0.003304 0)
(0.120035 0.00195352 0)
(0.117612 0.00649809 0)
(0.11295 0.0108427 0)
(0.10608 0.0154987 0)
(0.0969396 0.0211702 0)
(0.0850345 0.0291611 0)
(0.0735109 0.0471559 0)
(0.0630715 0.0711975 0)
(0.0946206 0.0993423 0)
(0.0168934 0.138336 0)
(0.0962026 0.182791 0)
(0.140836 0.147816 0)
(-0.22498 0.203247 0)
(0.810405 0.431992 0)
(-0.331312 0.190703 0)
(-0.0173342 0.150277 0)
(-0.0733941 0.117552 0)
(-0.0786246 0.0955492 0)
(-0.0822504 0.0749896 0)
(-0.0845073 0.0543941 0)
(-0.0855456 0.0327761 0)
(-0.0852889 0.00891762 0)
(-0.0826112 -0.0183564 0)
(-0.0774444 -0.0489757 0)
(-0.0688224 -0.0824524 0)
(-0.0568415 -0.116453 0)
(-0.0418093 -0.146256 0)
(-0.0248444 -0.165962 0)
(-0.00647881 -0.174491 0)
(0.0119062 -0.172776 0)
(0.0278241 -0.161056 0)
(0.0460071 -0.139375 0)
(0.0624874 -0.122388 0)
(0.0731936 -0.102526 0)
(0.0809018 -0.0804658 0)
(0.0876796 -0.059117 0)
(0.0938721 -0.0402367 0)
(0.0992102 -0.025056 0)
(0.102901 -0.0136916 0)
(0.104501 -0.00499162 0)
(0.104061 0.00220356 0)
(0.10189 0.00866623 0)
(0.0982408 0.0149119 0)
(0.0932774 0.0214677 0)
(0.0872365 0.0289714 0)
(0.0803859 0.0383473 0)
(0.0746671 0.0527539 0)
(0.069484 0.0727603 0)
(0.0915333 0.098529 0)
(0.0734545 0.107415 0)
(0.0899913 0.0482843 0)
(0.146263 -0.0362261 0)
(-0.327523 0.105632 0)
(0.87988 0.474706 0)
(-0.368629 0.220993 0)
(0.00370332 0.1556 0)
(-0.0526914 0.121613 0)
(-0.0522444 0.0978973 0)
(-0.051069 0.0758712 0)
(-0.0490669 0.0540982 0)
(-0.0465498 0.0315931 0)
(-0.0433568 0.00683131 0)
(-0.0373858 -0.02224 0)
(-0.0303057 -0.0553057 0)
(-0.0205268 -0.091865 0)
(-0.00874015 -0.128802 0)
(0.00443495 -0.161142 0)
(0.0174674 -0.18181 0)
(0.0302355 -0.190187 0)
(0.042036 -0.187247 0)
(0.0523457 -0.174472 0)
(0.0623324 -0.154132 0)
(0.0709357 -0.132473 0)
(0.0764923 -0.109442 0)
(0.0799821 -0.0859229 0)
(0.0826025 -0.0637292 0)
(0.0848532 -0.0442139 0)
(0.0866912 -0.0280983 0)
(0.0877812 -0.0152873 0)
(0.0878993 -0.00500682 0)
(0.0868963 0.00365577 0)
(0.0849642 0.0113767 0)
(0.0822549 0.0186746 0)
(0.0789533 0.0260492 0)
(0.0753492 0.0340079 0)
(0.0718574 0.0431226 0)
(0.0698594 0.0547134 0)
(0.0687456 0.0692152 0)
(0.0817822 0.0884001 0)
(0.0848146 0.0920168 0)
(0.0898884 0.0549434 0)
(0.180878 0.0259056 0)
(-0.280156 0.15431 0)
(0.927934 0.517164 0)
(-0.383154 0.234207 0)
(0.0168887 0.133034 0)
(-0.0273548 0.116709 0)
(-0.0265882 0.0949734 0)
(-0.0227862 0.0724808 0)
(-0.0176755 0.0501569 0)
(-0.012398 0.027302 0)
(-0.00542346 0.00190005 0)
(0.00456889 -0.0306958 0)
(0.0142983 -0.0652665 0)
(0.0255896 -0.103234 0)
(0.0372027 -0.140718 0)
(0.0478371 -0.171984 0)
(0.0568858 -0.192205 0)
(0.0643427 -0.19975 0)
(0.0700442 -0.195396 0)
(0.0739958 -0.181255 0)
(0.0767087 -0.160197 0)
(0.078095 -0.136204 0)
(0.0777673 -0.111175 0)
(0.0762958 -0.0866263 0)
(0.0745058 -0.0640368 0)
(0.0729179 -0.0444083 0)
(0.0716652 -0.0281173 0)
(0.0706076 -0.0148835 0)
(0.0695468 -0.00401712 0)
(0.0681909 0.00524854 0)
(0.0666573 0.013485 0)
(0.064925 0.0211716 0)
(0.063087 0.0287309 0)
(0.0613473 0.0365178 0)
(0.0600339 0.0448349 0)
(0.0600496 0.0541876 0)
(0.0612934 0.0646308 0)
(0.070334 0.0779169 0)
(0.0801412 0.0818455 0)
(0.0795701 0.062507 0)
(0.238616 0.054312 0)
(-0.555092 0.232323 0)
(1.01129 0.506837 0)
(-0.137296 0.296366 0)
(0.041078 0.161554 0)
(0.0405788 0.122128 0)
(0.0130592 0.0920143 0)
(0.0086338 0.0653989 0)
(0.0140608 0.0414188 0)
(0.0206932 0.0170021 0)
(0.032524 -0.0110083 0)
(0.0440046 -0.042129 0)
(0.0558863 -0.0768555 0)
(0.0681538 -0.114521 0)
(0.079258 -0.150921 0)
(0.0877077 -0.180357 0)
(0.0928708 -0.198411 0)
(0.0948713 -0.203652 0)
(0.0941271 -0.197096 0)
(0.0911907 -0.181134 0)
(0.0867389 -0.158791 0)
(0.0812198 -0.13338 0)
(0.0749217 -0.107339 0)
(0.0684396 -0.0825058 0)
(0.0624908 -0.0602437 0)
(0.0575873 -0.0412795 0)
(0.0539098 -0.0256974 0)
(0.0513431 -0.0130056 0)
(0.0496104 -0.0024439 0)
(0.048309 0.00666541 0)
(0.0474167 0.0148109 0)
(0.0467124 0.0224235 0)
(0.0461575 0.0298316 0)
(0.0458177 0.0372483 0)
(0.0458619 0.0447757 0)
(0.0468085 0.0524995 0)
(0.0487879 0.0601848 0)
(0.0553462 0.0685513 0)
(0.0653057 0.0690918 0)
(0.0595881 0.0454685 0)
(0.293192 0.0723063 0)
(-0.760443 0.302812 0)
(0.779329 0.395749 0)
(0.000791807 0.319512 0)
(0.09339 0.21893 0)
(0.110609 0.155189 0)
(0.0771806 0.10684 0)
(0.0598046 0.0675517 0)
(0.0582262 0.0357521 0)
(0.0624013 0.00639025 0)
(0.0738544 -0.0234622 0)
(0.0854449 -0.0550549 0)
(0.0976485 -0.0897125 0)
(0.109498 -0.126132 0)
(0.118831 -0.159828 0)
(0.123876 -0.185502 0)
(0.124043 -0.199603 0)
(0.11977 -0.201283 0)
(0.112017 -0.191875 0)
(0.101861 -0.17389 0)
(0.0903453 -0.150335 0)
(0.0783117 -0.124237 0)
(0.0664491 -0.0981386 0)
(0.0554911 -0.0739725 0)
(0.0461624 -0.052993 0)
(0.0389235 -0.0356425 0)
(0.0338568 -0.0217024 0)
(0.030698 -0.0104003 0)
(0.0289733 -0.000851825 0)
(0.0282052 0.007546 0)
(0.0281296 0.0152238 0)
(0.0284165 0.0225391 0)
(0.028929 0.0297165 0)
(0.02959 0.036863 0)
(0.0303441 0.0439656 0)
(0.0312493 0.0509015 0)
(0.0320058 0.0572979 0)
(0.0337103 0.063362 0)
(0.023616 0.0653085 0)
(0.0223327 0.0820931 0)
(0.113041 0.164205 0)
(-0.641711 0.308874 0)
(0.617266 0.220855 0)
(0.0046616 0.298122 0)
(0.113054 0.241546 0)
(0.14833 0.177552 0)
(0.130903 0.123501 0)
(0.117885 0.0778141 0)
(0.115029 0.0388546 0)
(0.117209 0.00334446 0)
(0.123596 -0.0307768 0)
(0.131844 -0.0650391 0)
(0.141537 -0.100454 0)
(0.150396 -0.135211 0)
(0.15548 -0.164979 0)
(0.154868 -0.185468 0)
(0.148254 -0.194391 0)
(0.136546 -0.191758 0)
(0.12122 -0.179277 0)
(0.103783 -0.15948 0)
(0.0856118 -0.13525 0)
(0.0678219 -0.109371 0)
(0.0513681 -0.0843243 0)
(0.0371392 -0.0619954 0)
(0.0258863 -0.0434718 0)
(0.0178759 -0.0287983 0)
(0.0128543 -0.0173569 0)
(0.0101388 -0.00801081 0)
(0.00900211 0.000164796 0)
(0.00899888 0.00763664 0)
(0.00967382 0.0147331 0)
(0.0107714 0.0217055 0)
(0.0121249 0.0287028 0)
(0.0135484 0.0358137 0)
(0.0147559 0.0430527 0)
(0.0153742 0.0503439 0)
(0.0148904 0.0574973 0)
(0.0126187 0.0657747 0)
(-0.0169004 0.0888013 0)
(-0.00819582 0.127588 0)
(0.0708587 0.182813 0)
(-0.551898 0.233949 0)
(0.570772 0.118477 0)
(-0.0202664 0.258629 0)
(0.11375 0.229881 0)
(0.1651 0.176052 0)
(0.166764 0.12617 0)
(0.164425 0.0810676 0)
(0.165417 0.0399171 0)
(0.168373 0.00154984 0)
(0.17236 -0.0354762 0)
(0.177965 -0.0719555 0)
(0.184147 -0.107516 0)
(0.187817 -0.139418 0)
(0.185965 -0.163848 0)
(0.17722 -0.178042 0)
(0.162035 -0.181219 0)
(0.141952 -0.174257 0)
(0.118912 -0.159152 0)
(0.0946785 -0.138301 0)
(0.0708515 -0.114397 0)
(0.0486913 -0.0899431 0)
(0.029394 -0.0673223 0)
(0.0140057 -0.0483041 0)
(0.00313386 -0.0336108 0)
(-0.00365079 -0.0224329 0)
(-0.00718364 -0.0139224 0)
(-0.00884019 -0.00652633 0)
(-0.00926988 0.000365734 0)
(-0.00873321 0.00697908 0)
(-0.00760268 0.0134939 0)
(-0.00596667 0.0200761 0)
(-0.00396391 0.0268776 0)
(-0.00181431 0.034093 0)
(5.55096e-05 0.0419645 0)
(0.000868043 0.0506579 0)
(-2.02508e-05 0.060834 0)
(-0.00595544 0.0779714 0)
(-0.0390578 0.118676 0)
(-0.0323035 0.162908 0)
(0.00810884 0.181367 0)
(-0.523443 0.142742 0)
(0.628471 0.0535735 0)
(0.00946151 0.197276 0)
(0.113863 0.196966 0)
(0.175155 0.157947 0)
(0.191393 0.117684 0)
(0.198037 0.0772366 0)
(0.203371 0.0371939 0)
(0.208606 -0.00163642 0)
(0.213169 -0.0398033 0)
(0.217539 -0.0766122 0)
(0.219388 -0.109887 0)
(0.215547 -0.136513 0)
(0.204138 -0.153958 0)
(0.185257 -0.161276 0)
(0.160515 -0.159039 0)
(0.132072 -0.148636 0)
(0.102173 -0.132108 0)
(0.0725423 -0.111512 0)
(0.0449731 -0.0893598 0)
(0.0207376 -0.0678684 0)
(0.00145875 -0.0493717 0)
(-0.0118278 -0.0355021 0)
(-0.0194233 -0.0259987 0)
(-0.0235438 -0.0185987 0)
(-0.0255293 -0.0121381 0)
(-0.0263109 -0.00597827 0)
(-0.0262734 5.201e-05 0)
(-0.0254919 0.0059886 0)
(-0.024156 0.0119204 0)
(-0.0221932 0.0180016 0)
(-0.0196669 0.0244544 0)
(-0.0167358 0.031627 0)
(-0.013786 0.04003 0)
(-0.011676 0.0504495 0)
(-0.011163 0.0645651 0)
(-0.0121657 0.0887605 0)
(-0.0340617 0.137533 0)
(-0.0255923 0.195015 0)
(0.0338391 0.183307 0)
(-0.531955 0.042212 0)
(0.472248 0.0747326 0)
(-0.132006 0.137606 0)
(0.0942196 0.133363 0)
(0.172688 0.116851 0)
(0.203778 0.0953572 0)
(0.218047 0.0643497 0)
(0.228041 0.0282683 0)
(0.237171 -0.00916401 0)
(0.243638 -0.0455361 0)
(0.245218 -0.0783994 0)
(0.239281 -0.105092 0)
(0.224474 -0.123611 0)
(0.201323 -0.133175 0)
(0.171732 -0.134269 0)
(0.138262 -0.128157 0)
(0.10319 -0.116098 0)
(0.0688303 -0.0999369 0)
(0.0363936 -0.0812679 0)
(0.00833096 -0.0626194 0)
(-0.014418 -0.046082 0)
(-0.0284231 -0.0351138 0)
(-0.0366617 -0.0276051 0)
(-0.0410085 -0.0218455 0)
(-0.0431573 -0.0165782 0)
(-0.0440282 -0.0113288 0)
(-0.0441534 -0.00594474 0)
(-0.0437535 -0.000512123 0)
(-0.0428173 0.00484848 0)
(-0.0414117 0.0101481 0)
(-0.0392808 0.0155586 0)
(-0.0363666 0.0213877 0)
(-0.0326871 0.0281226 0)
(-0.0284421 0.0365082 0)
(-0.024237 0.0477869 0)
(-0.0205193 0.0642157 0)
(-0.0134456 0.0903707 0)
(-0.0128365 0.136411 0)
(-0.0073826 0.204228 0)
(0.135266 0.198861 0)
(-0.403465 0.0611919 0)
(0.72401 0.134401 0)
(0.0818178 0.115219 0)
(0.149667 0.0992482 0)
(0.222284 0.0805378 0)
(0.24392 0.0699517 0)
(0.248707 0.0476161 0)
(0.255048 0.0173881 0)
(0.261222 -0.0149773 0)
(0.260328 -0.0450204 0)
(0.249912 -0.0697617 0)
(0.229738 -0.0875091 0)
(0.201375 -0.0978542 0)
(0.167186 -0.10117 0)
(0.12968 -0.0984795 0)
(0.0913297 -0.0910571 0)
(0.0535464 -0.0795702 0)
(0.0190736 -0.0656783 0)
(-0.0125431 -0.0505619 0)
(-0.0347876 -0.0391411 0)
(-0.0493906 -0.0315042 0)
(-0.0577874 -0.0267837 0)
(-0.0623809 -0.0231728 0)
(-0.0646738 -0.0196614 0)
(-0.065603 -0.0157194 0)
(-0.06568 -0.011255 0)
(-0.0652349 -0.00637325 0)
(-0.0644444 -0.00131809 0)
(-0.0633178 0.00362476 0)
(-0.061979 0.00832723 0)
(-0.0599885 0.0129503 0)
(-0.0571771 0.0178683 0)
(-0.0534388 0.023671 0)
(-0.0487385 0.0313035 0)
(-0.0431434 0.0422551 0)
(-0.036303 0.058457 0)
(-0.0243676 0.0820372 0)
(-0.00639563 0.11781 0)
(0.00634195 0.174153 0)
(0.171773 0.180124 0)
(-0.342269 0.120038 0)
(0.191817 0.0880531 0)
(0.225628 0.0998498 0)
(0.24637 0.0701973 0)
(0.242444 0.039783 0)
(0.239689 0.0119781 0)
(0.234721 -0.0131277 0)
(0.220069 -0.0336329 0)
(0.196457 -0.048696 0)
(0.166213 -0.058301 0)
(0.13175 -0.0629613 0)
(0.0948364 -0.0630462 0)
(0.0573395 -0.0592932 0)
(0.0212063 -0.0525999 0)
(-0.0143225 -0.043143 0)
(-0.0419844 -0.0344392 0)
(-0.0627002 -0.027879 0)
(-0.0763081 -0.024339 0)
(-0.0846613 -0.0226135 0)
(-0.0895294 -0.0215823 0)
(-0.0923041 -0.0202134 0)
(-0.0937103 -0.018094 0)
(-0.0941458 -0.0151068 0)
(-0.0938729 -0.0113134 0)
(-0.0931292 -0.00689064 0)
(-0.0921024 -0.00213222 0)
(-0.0908465 0.00256669 0)
(-0.0897171 0.00690267 0)
(-0.0883533 0.0109075 0)
(-0.0865186 0.0149753 0)
(-0.083992 0.0197388 0)
(-0.0803251 0.0260872 0)
(-0.0748176 0.0351133 0)
(-0.0664785 0.0477724 0)
(-0.0524905 0.0642321 0)
(-0.0282374 0.0844056 0)
(0.00245803 0.117568 0)
(0.185666 0.147432 0)
(-0.344886 0.183031 0)
(0.451001 0.209811 0)
(0.206091 0.178835 0)
(0.152576 0.118812 0)
(0.139557 0.0639186 0)
(0.128271 0.025627 0)
(0.114363 0.00145648 0)
(0.0989981 -0.0132861 0)
(0.0780305 -0.0223574 0)
(0.0534086 -0.0277682 0)
(0.0262342 -0.0299183 0)
(-0.00378516 -0.0287191 0)
(-0.0333795 -0.0251364 0)
(-0.0598788 -0.0206901 0)
(-0.082157 -0.0168618 0)
(-0.0985833 -0.0152074 0)
(-0.109788 -0.015408 0)
(-0.117026 -0.0168756 0)
(-0.12183 -0.0184121 0)
(-0.125124 -0.0193198 0)
(-0.127357 -0.0192245 0)
(-0.128716 -0.0179788 0)
(-0.129317 -0.0155513 0)
(-0.129274 -0.0120153 0)
(-0.128728 -0.00756411 0)
(-0.12782 -0.00255699 0)
(-0.126581 0.0024123 0)
(-0.125458 0.00667015 0)
(-0.124538 0.0103208 0)
(-0.12355 0.0138457 0)
(-0.122224 0.0178158 0)
(-0.120037 0.0228024 0)
(-0.116321 0.0292928 0)
(-0.11062 0.037374 0)
(-0.101353 0.0459516 0)
(-0.0810306 0.0536061 0)
(-0.0348715 0.0694095 0)
(0.105167 0.134287 0)
(-0.476899 0.241364 0)
(0.359827 -0.416443 0)
(-0.346431 -0.513059 0)
(-0.218645 -0.0273925 0)
(-0.0932967 0.111046 0)
(-0.0538736 0.0925649 0)
(-0.0315189 0.0544126 0)
(-0.0266689 0.0281234 0)
(-0.0315684 0.0113121 0)
(-0.0401631 0.000419992 0)
(-0.0505436 -0.00664413 0)
(-0.0641514 -0.0107594 0)
(-0.0795264 -0.012807 0)
(-0.0957126 -0.0139814 0)
(-0.111511 -0.0156683 0)
(-0.125641 -0.0184311 0)
(-0.137155 -0.0216894 0)
(-0.1455 -0.0245889 0)
(-0.151132 -0.0267642 0)
(-0.155183 -0.0282696 0)
(-0.15845 -0.0291444 0)
(-0.161203 -0.0293718 0)
(-0.163465 -0.0288843 0)
(-0.165207 -0.0276265 0)
(-0.166424 -0.0255775 0)
(-0.167152 -0.0227627 0)
(-0.167472 -0.0192455 0)
(-0.167476 -0.0150822 0)
(-0.16711 -0.0102399 0)
(-0.166221 -0.0045628 0)
(-0.164837 0.00100999 0)
(-0.162836 0.00631924 0)
(-0.160119 0.011737 0)
(-0.156429 0.0177051 0)
(-0.151776 0.0245089 0)
(-0.147282 0.0320138 0)
(-0.143587 0.0398108 0)
(-0.133009 0.0500955 0)
(-0.103126 0.0745963 0)
(-0.114863 0.126453 0)
(-0.581907 0.180654 0)
(0.122949 -0.185972 0)
(-0.388505 -0.29802 0)
(-0.343654 -0.0963488 0)
(-0.265229 0.0518541 0)
(-0.211549 0.0836832 0)
(-0.179468 0.0746206 0)
(-0.163278 0.0610805 0)
(-0.157353 0.0511378 0)
(-0.157435 0.0461146 0)
(-0.160661 0.0458295 0)
(-0.165078 0.0494489 0)
(-0.169411 0.0559148 0)
(-0.172804 0.0638101 0)
(-0.174954 0.0712405 0)
(-0.176342 0.0764545 0)
(-0.177551 0.0776564 0)
(-0.179172 0.0737217 0)
(-0.181384 0.0678549 0)
(-0.184182 0.0618208 0)
(-0.187491 0.0561627 0)
(-0.191193 0.0511377 0)
(-0.195128 0.0470159 0)
(-0.199081 0.0440852 0)
(-0.202775 0.0425767 0)
(-0.205887 0.0425644 0)
(-0.208108 0.0438542 0)
(-0.209227 0.0458688 0)
(-0.209133 0.0474947 0)
(-0.207726 0.0469498 0)
(-0.205057 0.045129 0)
(-0.200925 0.0431572 0)
(-0.195149 0.0414095 0)
(-0.187406 0.0401774 0)
(-0.17764 0.0396877 0)
(-0.166513 0.0397607 0)
(-0.152698 0.0398936 0)
(-0.124525 0.0415381 0)
(-0.0598302 0.0519615 0)
(0.093387 0.0865577 0)
(-0.441329 0.0733472 0)
(1.14839 -0.0112507 0)
(-0.29697 -0.323724 0)
(-0.353447 -0.233747 0)
(-0.353018 -0.149363 0)
(-0.329289 -0.108054 0)
(-0.297779 -0.0996341 0)
(-0.270752 -0.102033 0)
(-0.251309 -0.108013 0)
(-0.238466 -0.115949 0)
(-0.230088 -0.125685 0)
(-0.224159 -0.137365 0)
(-0.219173 -0.150876 0)
(-0.214305 -0.165428 0)
(-0.209484 -0.179482 0)
(-0.205228 -0.191038 0)
(-0.202462 -0.198488 0)
(-0.202205 -0.200626 0)
(-0.205069 -0.199576 0)
(-0.21079 -0.196432 0)
(-0.218835 -0.191496 0)
(-0.228599 -0.184927 0)
(-0.239393 -0.177 0)
(-0.250435 -0.168197 0)
(-0.260888 -0.159113 0)
(-0.269912 -0.150264 0)
(-0.27672 -0.141897 0)
(-0.280666 -0.133908 0)
(-0.281415 -0.125889 0)
(-0.279106 -0.117343 0)
(-0.27469 -0.109279 0)
(-0.268792 -0.101977 0)
(-0.261403 -0.0947674 0)
(-0.252287 -0.0870903 0)
(-0.241642 -0.0787558 0)
(-0.230476 -0.0700164 0)
(-0.217229 -0.0611677 0)
(-0.188898 -0.0505816 0)
(-0.128659 -0.030456 0)
(-0.109467 0.0119986 0)
(-0.605601 0.0469289 0)
)
;

boundaryField
{
    floor
    {
        type            noSlip;
    }
    ceiling
    {
        type            noSlip;
    }
    sWall
    {
        type            noSlip;
    }
    nWall
    {
        type            noSlip;
    }
    sideWalls
    {
        type            empty;
    }
    glass1
    {
        type            noSlip;
    }
    glass2
    {
        type            noSlip;
    }
    sun
    {
        type            noSlip;
    }
    Table_master
    {
        type            noSlip;
    }
    Table_slave
    {
        type            noSlip;
    }
    inlet
    {
        type            fixedValue;
        value           uniform (0.5 0 0);
    }
    outlet
    {
        type            zeroGradient;
    }
}


// ************************************************************************* //
