/*--------------------------------*- C++ -*----------------------------------*\
  =========                 |
  \\      /  F ield         | OpenFOAM: The Open Source CFD Toolbox
   \\    /   O peration     | Website:  https://openfoam.org
    \\  /    A nd           | Version:  6
     \\/     M anipulation  |
\*---------------------------------------------------------------------------*/
FoamFile
{
    version     2.0;
    format      ascii;
    class       volScalarField;
    location    "110";
    object      epsilon;
}
// * * * * * * * * * * * * * * * * * * * * * * * * * * * * * * * * * * * * * //

dimensions      [0 2 -3 0 0 0 0];

internalField   nonuniform List<scalar> 
458
(
0.000655992
0.000885356
0.000994999
0.00116664
0.001346
0.00154149
0.0017718
0.00198828
0.00215724
0.00223301
0.00218052
0.00197858
0.00141755
0.000912837
0.000557432
8.78489e-05
0.000143105
0.000231714
0.000296499
0.000298914
0.00024321
0.000190067
0.000150623
0.000121995
0.00010082
8.48533e-05
7.25451e-05
6.27978e-05
5.48803e-05
4.80651e-05
4.16944e-05
3.53856e-05
2.68836e-05
0.0013857
0.00183912
0.000824672
0.000831252
0.000883542
0.000977792
0.00113031
0.00131138
0.00147237
0.00155458
0.00152441
0.00138715
0.00113314
0.00091459
0.000715584
0.00123735
0.0007794
0.000420865
7.99314e-05
0.000144377
0.000214097
0.000241831
0.000250513
0.000265915
0.00020743
0.000155785
0.000118262
9.15542e-05
7.24597e-05
5.85604e-05
4.81427e-05
4.02164e-05
3.49449e-05
3.2418e-05
3.92142e-05
3.47072e-05
0.0022899
0.00389408
0.000871541
0.000734503
0.000785055
0.000907919
0.00110047
0.00132237
0.00150694
0.0016036
0.0015911
0.0014603
0.00125378
0.00103745
0.000832439
0.000724749
0.000648956
0.000783895
0.000187111
0.000257464
0.000284557
0.000287049
0.000292861
0.000593638
0.000382201
0.000251838
0.000172238
0.000122583
9.06362e-05
6.9364e-05
5.48758e-05
4.58651e-05
3.50488e-05
2.9935e-05
4.61411e-05
3.99306e-05
0.00346025
0.00771146
0.00118488
0.000688689
0.000722606
0.000883846
0.00116046
0.00143018
0.00162204
0.00172042
0.00170925
0.00157384
0.00135656
0.00111338
0.000892534
0.000731247
0.000643342
0.000665045
0.00113748
0.000730904
0.00053169
0.000432651
0.00037736
0.000362335
0.000903965
0.000677604
0.000531178
0.000427823
0.000350882
0.000288748
0.000235549
0.000188064
0.000143854
8.19314e-05
4.83205e-05
6.23667e-05
4.74642e-05
0.00503682
0.0137744
0.00217597
0.000757556
0.000714057
0.000966751
0.0014222
0.00171603
0.00188589
0.0019658
0.00193139
0.00175726
0.00147329
0.00116229
0.000898742
0.000713211
0.000603998
0.000586368
0.000644829
0.000585626
0.000529897
0.000482652
0.000432713
0.000381258
0.000363717
0.000327185
0.000293524
0.000262173
0.000231938
0.000201266
0.000170136
0.000139359
0.000110002
7.87607e-05
5.3614e-05
5.54852e-05
5.86609e-05
6.95585e-05
9.02047e-05
0.000122396
0.00724863
0.0209076
0.00491545
0.00137086
0.00104813
0.00158276
0.00206382
0.00225
0.00233731
0.00237427
0.00228991
0.00203141
0.0016357
0.00121991
0.000886441
0.000670412
0.000565778
0.000556603
0.000592594
0.000604697
0.000588813
0.000544318
0.000477728
0.000401853
0.000337733
0.000292117
0.000258984
0.000230324
0.000202197
0.000173599
0.000144929
0.000117489
9.29146e-05
7.15023e-05
5.55563e-05
5.1099e-05
5.5714e-05
6.20406e-05
0.000141543
0.00013564
0.00981524
0.0253674
0.010087
0.00440198
0.00319959
0.00335599
0.0032582
0.00311102
0.00303964
0.00298621
0.00280041
0.00239956
0.00183718
0.0012823
0.00087123
0.000638197
0.000556531
0.000575181
0.000625864
0.000647593
0.000620536
0.000556223
0.000471904
0.000385212
0.000313951
0.000265397
0.000232396
0.000205898
0.000181049
0.000156809
0.000133542
0.000112192
9.38001e-05
7.88065e-05
6.94833e-05
6.7781e-05
7.66343e-05
9.89406e-05
0.000186206
0.000192586
0.0104564
0.0270495
0.0154523
0.0104569
0.00794215
0.00605538
0.00484841
0.00423604
0.00399549
0.00383014
0.00346519
0.0028208
0.00200047
0.00127243
0.000806889
0.000601052
0.000564413
0.00059636
0.000633762
0.000629885
0.00057895
0.00049788
0.000409547
0.000330423
0.000270619
0.000230989
0.000204662
0.000184829
0.000168845
0.000156619
0.000148791
0.000145934
0.000148302
0.000157173
0.000177978
0.000237455
0.000372257
0.000634374
0.00227916
0.000708688
0.00976459
0.0165653
0.0125954
0.00955043
0.00742924
0.0060519
0.00538612
0.00521587
0.00518478
0.00491519
0.00415809
0.00305392
0.00182896
0.00101964
0.00068935
0.00057636
0.000557129
0.000567794
0.000568192
0.000536698
0.000477316
0.000405155
0.000334328
0.000274842
0.000230887
0.000200583
0.000179344
0.000164171
0.000154817
0.000152911
0.000161364
0.000184172
0.000226483
0.000295304
0.000399453
0.000547234
0.000733724
0.000928961
0.00109278
0.000648837
0.00239355
0.00355495
0.00496449
0.00629589
0.00718304
0.00742412
0.00688444
0.00558074
0.00351466
0.00193798
0.00110433
0.00073037
0.000585916
0.000534316
0.000517643
0.000505404
0.000480098
0.000437264
0.000384109
0.000330707
0.000283672
0.000245328
0.000214664
0.000189324
0.000167838
0.000150639
0.000139504
0.000136637
0.000144223
0.000164737
0.000201758
0.00026029
0.000344961
0.000453799
0.000567366
0.000645443
0.000658696
0.000440221
0.00401283
0.0156791
0.0152239
0.0124247
0.00947521
0.00695449
0.00475263
0.00301124
0.00178694
0.00111276
0.000777432
0.000626301
0.000562752
0.000535679
0.000521918
0.000509754
0.000493236
0.00047064
0.00044332
0.000413352
0.000382268
0.000350893
0.000319655
0.000289166
0.000260625
0.000235804
0.000216534
0.000204346
0.000200626
0.000207169
0.000226728
0.000262868
0.00031779
0.000387036
0.000459512
0.000533419
0.000634749
0.00048551
0.00459764
0.00518955
0.00575635
0.00818654
0.00670698
0.00479744
0.0035489
0.00279481
0.00217035
0.00164454
0.00124985
0.000994189
0.000845316
0.000760358
0.00070744
0.000666289
0.000624456
0.000575553
0.000518994
0.00045918
0.000402087
0.000351863
0.000309799
0.000275339
0.000247416
0.000225248
0.000208507
0.000197103
0.00019097
0.000190051
0.000194442
0.000204578
0.000221408
0.000246441
0.000281156
0.000324704
0.000369261
0.000352964
0.00029888
0.000267004
)
;

boundaryField
{
    floor
    {
        Cmu             0.09;
        kappa           0.41;
        E               9.8;
        type            epsilonWallFunction;
        value           nonuniform List<scalar> 
36
(
0.000557432
8.78489e-05
0.000143105
0.000231714
0.000296499
0.000298914
0.00024321
0.000190067
0.000150623
0.000121995
0.00010082
8.48533e-05
7.25451e-05
6.27978e-05
5.48803e-05
4.80651e-05
4.16944e-05
3.53856e-05
2.68836e-05
2.68836e-05
3.47072e-05
3.99306e-05
4.74642e-05
6.95585e-05
9.02047e-05
0.000122396
0.000557432
0.00123735
0.0007794
0.000420865
8.78489e-05
0.000420865
7.99314e-05
0.000783895
0.000187111
0.00113748
)
;
    }
    ceiling
    {
        Cmu             0.09;
        kappa           0.41;
        E               9.8;
        type            epsilonWallFunction;
        value           nonuniform List<scalar> 
43
(
0.00459764
0.00518955
0.00575635
0.00818654
0.00670698
0.00479744
0.0035489
0.00279481
0.00217035
0.00164454
0.00124985
0.000994189
0.000845316
0.000760358
0.00070744
0.000666289
0.000624456
0.000575553
0.000518994
0.00045918
0.000402087
0.000351863
0.000309799
0.000275339
0.000247416
0.000225248
0.000208507
0.000197103
0.00019097
0.000190051
0.000194442
0.000204578
0.000221408
0.000246441
0.000281156
0.000324704
0.000369261
0.000352964
0.00029888
0.000267004
0.00976459
0.0165653
0.00401283
)
;
    }
    sWall
    {
        Cmu             0.09;
        kappa           0.41;
        E               9.8;
        type            epsilonWallFunction;
        value           uniform 0.00459764;
    }
    nWall
    {
        Cmu             0.09;
        kappa           0.41;
        E               9.8;
        type            epsilonWallFunction;
        value           nonuniform List<scalar> 6(0.000122396 0.00013564 0.000192586 0.000440221 0.00048551 0.000267004);
    }
    sideWalls
    {
        type            empty;
    }
    glass1
    {
        Cmu             0.09;
        kappa           0.41;
        E               9.8;
        type            epsilonWallFunction;
        value           nonuniform List<scalar> 9(0.000655992 0.0013857 0.0022899 0.00346025 0.00503682 0.00724863 0.00981524 0.0104564 0.00976459);
    }
    glass2
    {
        Cmu             0.09;
        kappa           0.41;
        E               9.8;
        type            epsilonWallFunction;
        value           nonuniform List<scalar> 2(0.000708688 0.000648837);
    }
    sun
    {
        Cmu             0.09;
        kappa           0.41;
        E               9.8;
        type            epsilonWallFunction;
        value           nonuniform List<scalar> 
14
(
0.000655992
0.000885356
0.000994999
0.00116664
0.001346
0.00154149
0.0017718
0.00198828
0.00215724
0.00223301
0.00218052
0.00197858
0.00141755
0.000912837
)
;
    }
    Table_master
    {
        Cmu             0.09;
        kappa           0.41;
        E               9.8;
        type            epsilonWallFunction;
        value           nonuniform List<scalar> 9(0.000593638 0.000382201 0.000251838 0.000172238 0.000122583 9.06362e-05 6.9364e-05 5.48758e-05 4.58651e-05);
    }
    Table_slave
    {
        Cmu             0.09;
        kappa           0.41;
        E               9.8;
        type            epsilonWallFunction;
        value           nonuniform List<scalar> 9(0.000903965 0.000677604 0.000531178 0.000427823 0.000350882 0.000288748 0.000235549 0.000188064 0.000143854);
    }
    inlet
    {
        type            turbulentMixingLengthDissipationRateInlet;
        mixingLength    0.01;
        phi             phi;
        k               k;
        value           uniform 0.000471672;
    }
    outlet
    {
        type            zeroGradient;
    }
}


// ************************************************************************* //
