/*--------------------------------*- C++ -*----------------------------------*\
  =========                 |
  \\      /  F ield         | OpenFOAM: The Open Source CFD Toolbox
   \\    /   O peration     | Website:  https://openfoam.org
    \\  /    A nd           | Version:  6
     \\/     M anipulation  |
\*---------------------------------------------------------------------------*/
FoamFile
{
    version     2.0;
    format      ascii;
    class       volScalarField;
    location    "110";
    object      nut;
}
// * * * * * * * * * * * * * * * * * * * * * * * * * * * * * * * * * * * * * //

dimensions      [0 2 -1 0 0 0 0];

internalField   nonuniform List<scalar> 
458
(
0.00122844
0.00135757
0.00141144
0.00148834
0.001561
0.00163318
0.00171078
0.00177779
0.00182678
0.00184792
0.00183331
0.00177484
0.00158813
0.0013714
0.00116351
0.000628372
0.000739348
0.000868191
0.00094255
0.000945099
0.000882293
0.000812665
0.000752025
0.000700986
0.000657817
0.000621072
0.000589456
0.000561773
0.000537093
0.000513869
0.00049008
0.000464002
0.000423387
0.00157621
0.00387351
0.0037703
0.00438663
0.00503573
0.00565563
0.006104
0.00656683
0.00701525
0.0074012
0.0076785
0.00778858
0.0076251
0.00699428
0.00480495
0.00151773
0.00130102
0.00105944
0.000608929
0.00166848
0.00256778
0.00327137
0.00343449
0.0023285
0.00192374
0.00166478
0.00148233
0.00134804
0.00124509
0.00116387
0.00109652
0.00101898
0.000936435
0.000856204
0.000835172
0.000461058
0.00186349
0.00525277
0.0046965
0.00550911
0.00597065
0.00631014
0.00657081
0.00690442
0.0073312
0.00783974
0.00838308
0.00883597
0.00902029
0.00880605
0.007916
0.0059988
0.00441734
0.00130347
0.0008084
0.00174148
0.00285456
0.00390162
0.00410564
0.00118797
0.00102578
0.000892593
0.000786407
0.000702115
0.000634884
0.000580725
0.000537102
0.000505937
0.000586648
0.000699704
0.000913948
0.000483155
0.00213841
0.00650652
0.00473888
0.00567873
0.0058751
0.0059091
0.00600886
0.00624094
0.00665304
0.00725002
0.00797125
0.00858404
0.00896382
0.00904767
0.00876668
0.00795874
0.00655689
0.00352146
0.00147565
0.00178736
0.00268665
0.00400522
0.00522737
0.00533696
0.0013668
0.0012416
0.00114482
0.00106516
0.000997047
0.000934335
0.000873018
0.000809898
0.000740686
0.000684874
0.000683837
0.000973949
0.000511846
0.00242348
0.0081424
0.00503045
0.00554753
0.00574336
0.00561759
0.00562727
0.00579941
0.00622013
0.00688071
0.00764255
0.00830092
0.0087169
0.00887055
0.00880863
0.00851269
0.00781871
0.00641484
0.00566187
0.00611657
0.0068701
0.00764702
0.0081683
0.00812612
0.00679833
0.00599015
0.00543029
0.00496836
0.00446361
0.00392096
0.00333956
0.00271972
0.00208073
0.00150655
0.00111107
0.00106071
0.000729819
0.000581505
0.000634113
0.000702018
0.00273613
0.0100033
0.00665511
0.00558387
0.00583196
0.00570521
0.00565503
0.0057418
0.0061223
0.00681823
0.00763799
0.00832133
0.00871438
0.00884337
0.00885584
0.00887448
0.00888508
0.00877301
0.00903551
0.00967579
0.0101807
0.0104302
0.0103758
0.00999429
0.00925485
0.00850179
0.00780373
0.0070897
0.00635503
0.00559152
0.00479042
0.00395001
0.00309186
0.00229101
0.00167591
0.0013177
0.000980887
0.000797201
0.00100511
0.000726488
0.00302703
0.0112927
0.00911479
0.00703261
0.0066842
0.00629662
0.00591305
0.00585579
0.00626585
0.00706014
0.00796556
0.00866942
0.00903242
0.00916385
0.00934238
0.00979239
0.0103631
0.0108863
0.0114622
0.0119455
0.0120686
0.0118773
0.0114269
0.0107848
0.0100227
0.00924557
0.00846317
0.00767751
0.00689138
0.00610132
0.00530315
0.00449726
0.00369558
0.00293066
0.00229386
0.00182025
0.00144789
0.00124428
0.00113819
0.000816697
0.00309156
0.00987954
0.00882827
0.00805402
0.00726725
0.00635222
0.00581927
0.00590742
0.00659195
0.00762377
0.0086354
0.00930327
0.00960103
0.00982455
0.0103867
0.0112294
0.0118045
0.0122531
0.0126053
0.0127313
0.0125149
0.0120019
0.0112869
0.0104564
0.00957993
0.00871333
0.00787739
0.00706701
0.00628182
0.00553171
0.00483409
0.00420483
0.00364456
0.00311328
0.00267287
0.00240193
0.00226308
0.00220251
0.00259748
0.00126082
0.00302181
0.00360397
0.00392033
0.00398675
0.00400993
0.00420612
0.00483567
0.00595954
0.00737269
0.00871277
0.00965843
0.010026
0.0102029
0.0107465
0.0113542
0.0118065
0.01209
0.0122616
0.0122754
0.0120408
0.011529
0.0107934
0.00991081
0.00895842
0.0080074
0.00709486
0.00620915
0.00533109
0.00446336
0.00364553
0.00294975
0.00243933
0.00211938
0.00194536
0.00186724
0.00184595
0.00182996
0.00178467
0.00170324
0.00122419
0.000985589
0.00187266
0.00331739
0.00516885
0.00710565
0.00877343
0.00990324
0.0104056
0.0105172
0.01032
0.0102955
0.0105301
0.0107108
0.0107905
0.0107921
0.0106813
0.0103808
0.00984542
0.0091019
0.00823066
0.00731972
0.00643569
0.00560797
0.00483081
0.00409162
0.00340228
0.00280184
0.00233361
0.00201547
0.00183119
0.00174726
0.00173043
0.00175049
0.00177404
0.00176095
0.00168567
0.00155977
0.00107554
0.0022467
0.00632272
0.00907215
0.0102918
0.0105417
0.0104222
0.00996853
0.00931538
0.00872584
0.00831754
0.00805716
0.00787403
0.00773786
0.00763502
0.00751569
0.00731309
0.00697641
0.00650162
0.00593448
0.00534078
0.00477126
0.00424825
0.00377286
0.00334054
0.00295238
0.00261621
0.00233988
0.00212577
0.00197059
0.001869
0.00181617
0.00180593
0.00182403
0.00184344
0.001844
0.00185196
0.00203419
0.00111122
0.0023509
0.00244774
0.00253379
0.0028494
0.00266619
0.00238442
0.00215645
0.00199138
0.0018304
0.00166872
0.00152284
0.001411
0.00133674
0.00129037
0.00125972
0.00123481
0.00120841
0.00117602
0.00113616
0.00109073
0.00104351
0.00099811
0.00095663
0.000919748
0.000887531
0.000860182
0.000838315
0.000822743
0.000814122
0.000812823
0.000819049
0.00083306
0.00085533
0.00088645
0.000926286
0.000971863
0.00101439
0.000999203
0.000945286
0.000910387
)
;

boundaryField
{
    floor
    {
        type            nutkWallFunction;
        Cmu             0.09;
        kappa           0.41;
        E               9.8;
        value           nonuniform List<scalar> 
36
(
0.000139791
7.58905e-05
8.95495e-05
0.000105105
0.000113957
0.00011426
0.000106792
9.84406e-05
9.1098e-05
8.48632e-05
7.95472e-05
7.49891e-05
7.10411e-05
6.75627e-05
6.44439e-05
6.14928e-05
5.84526e-05
5.50981e-05
4.98264e-05
4.98263e-05
5.47133e-05
5.75547e-05
6.12211e-05
7.0017e-05
7.65834e-05
8.49632e-05
0.000139791
0.000180127
0.000155594
0.000127695
7.58905e-05
0.000127696
7.34658e-05
0.000155879
9.7929e-05
0.000175406
)
;
    }
    ceiling
    {
        type            nutkWallFunction;
        Cmu             0.09;
        kappa           0.41;
        E               9.8;
        value           nonuniform List<scalar> 
43
(
0.000271149
0.000281488
0.000290641
0.000324053
0.000304833
0.000274921
0.000250431
0.000232523
0.000214897
0.000197023
0.00018073
0.000168122
0.000159689
0.000154398
0.000150888
0.000148028
0.000144991
0.000141253
0.000136639
0.000131355
0.000125838
0.000120508
0.000115613
0.000111241
0.000107405
0.000104136
0.000101513
9.96406e-05
9.86017e-05
9.84443e-05
9.91933e-05
0.000100878
0.000103549
0.000107268
0.000112007
0.000117401
0.000122414
0.000120631
0.000114267
0.000110126
0.00034237
0.000402573
0.000259825
)
;
    }
    sWall
    {
        type            nutkWallFunction;
        Cmu             0.09;
        kappa           0.41;
        E               9.8;
        value           uniform 0.000271219;
    }
    nWall
    {
        type            nutkWallFunction;
        Cmu             0.09;
        kappa           0.41;
        E               9.8;
        value           nonuniform List<scalar> 6(8.49614e-05 8.79568e-05 9.88868e-05 0.000129589 0.000133747 0.00011013);
    }
    sideWalls
    {
        type            empty;
    }
    glass1
    {
        type            nutkWallFunction;
        Cmu             0.09;
        kappa           0.41;
        E               9.8;
        value           nonuniform List<scalar> 9(0.000147428 0.000186925 0.000218817 0.000248836 0.000279531 0.000312762 0.000343325 0.000350072 0.000342807);
    }
    glass2
    {
        type            nutkWallFunction;
        Cmu             0.09;
        kappa           0.41;
        E               9.8;
        value           nonuniform List<scalar> 2(0.000151025 0.000146826);
    }
    sun
    {
        type            nutkWallFunction;
        Cmu             0.09;
        kappa           0.41;
        E               9.8;
        value           nonuniform List<scalar> 
14
(
0.000147277
0.00016203
0.000168139
0.000176816
0.000184969
0.000193027
0.000201646
0.000209056
0.000214454
0.000216778
0.000215173
0.000208734
0.000188007
0.000163607
)
;
    }
    Table_master
    {
        type            nutkWallFunction;
        Cmu             0.09;
        kappa           0.41;
        E               9.8;
        value           nonuniform List<scalar> 9(0.000142637 0.00012377 0.000108021 9.52696e-05 8.50023e-05 7.67074e-05 6.99479e-05 6.44468e-05 6.04828e-05);
    }
    Table_slave
    {
        type            nutkWallFunction;
        Cmu             0.09;
        kappa           0.41;
        E               9.8;
        value           nonuniform List<scalar> 9(0.000163104 0.000148806 0.000137644 0.000128375 0.000120387 0.000112977 0.000105676 9.80981e-05 8.9708e-05);
    }
    inlet
    {
        type            calculated;
        value           uniform 0.000167705;
    }
    outlet
    {
        type            calculated;
        value           nonuniform List<scalar> 2(0.0023509 0.00244774);
    }
}


// ************************************************************************* //
