/*--------------------------------*- C++ -*----------------------------------*\
  =========                 |
  \\      /  F ield         | OpenFOAM: The Open Source CFD Toolbox
   \\    /   O peration     | Website:  https://openfoam.org
    \\  /    A nd           | Version:  6
     \\/     M anipulation  |
\*---------------------------------------------------------------------------*/
FoamFile
{
    version     2.0;
    format      ascii;
    class       volScalarField;
    location    "110";
    object      T;
}
// * * * * * * * * * * * * * * * * * * * * * * * * * * * * * * * * * * * * * //

dimensions      [0 0 0 1 0 0 0];

internalField   nonuniform List<scalar> 
458
(
303.069
302.811
302.793
302.784
302.777
302.769
302.761
302.75
302.737
302.725
302.722
302.731
302.765
302.79
302.82
303.262
303.215
303.185
303.187
303.203
303.219
303.235
303.25
303.266
303.281
303.297
303.313
303.329
303.346
303.364
303.386
303.415
303.47
303.236
302.85
302.823
302.819
302.815
302.809
302.798
302.776
302.742
302.711
302.697
302.71
302.744
302.77
302.796
302.809
302.825
302.855
303.277
303.165
303.138
303.149
303.173
303.189
303.206
303.222
303.237
303.253
303.269
303.285
303.302
303.321
303.342
303.368
303.404
303.468
303.417
302.902
302.864
302.871
302.88
302.883
302.875
302.835
302.768
302.705
302.676
302.694
302.734
302.768
302.793
302.809
302.824
302.847
303.193
303.107
303.097
303.129
303.172
303.184
303.199
303.216
303.233
303.251
303.269
303.288
303.309
303.331
303.357
303.383
303.416
303.476
303.606
302.966
302.909
302.93
302.962
302.987
302.985
302.92
302.801
302.698
302.655
302.678
302.73
302.781
302.814
302.831
302.843
302.853
302.87
302.91
302.973
303.054
303.139
303.214
303.275
303.319
303.355
303.386
303.416
303.443
303.468
303.491
303.511
303.484
303.459
303.453
303.49
303.796
303.047
302.957
302.982
303.038
303.097
303.101
302.997
302.819
302.684
302.633
302.664
302.738
302.812
302.863
302.886
302.897
302.909
302.939
302.993
303.071
303.162
303.253
303.335
303.406
303.459
303.5
303.536
303.563
303.584
303.597
303.603
303.599
303.572
303.53
303.498
303.508
303.694
303.938
303.905
303.972
303.153
303.03
303.037
303.102
303.187
303.167
303.016
302.811
302.652
302.602
302.655
302.764
302.874
302.951
302.99
303.01
303.032
303.079
303.149
303.236
303.328
303.416
303.493
303.555
303.603
303.641
303.668
303.688
303.699
303.703
303.698
303.682
303.648
303.6
303.554
303.541
303.637
303.737
303.811
304.136
303.32
303.19
303.182
303.226
303.283
303.191
302.97
302.726
302.568
302.553
302.66
302.826
302.982
303.091
303.154
303.184
303.217
303.276
303.355
303.44
303.524
303.6
303.663
303.711
303.748
303.773
303.789
303.799
303.802
303.797
303.783
303.76
303.722
303.673
303.623
303.596
303.632
303.684
303.741
304.363
303.757
303.608
303.536
303.53
303.409
303.129
302.786
302.519
302.419
302.505
302.712
302.958
303.163
303.293
303.364
303.396
303.436
303.5
303.577
303.653
303.721
303.779
303.823
303.855
303.876
303.887
303.893
303.894
303.889
303.878
303.86
303.835
303.799
303.754
303.71
303.685
303.702
303.74
303.883
304.689
304.398
304.177
303.981
303.742
303.21
302.64
302.24
302.108
302.232
302.542
302.895
303.222
303.43
303.531
303.58
303.617
303.663
303.722
303.787
303.846
303.894
303.931
303.957
303.973
303.981
303.983
303.981
303.974
303.964
303.949
303.933
303.917
303.905
303.903
303.916
303.946
303.984
304.014
304.082
297.002
297.956
298.441
299.112
299.931
300.79
301.6
302.319
302.981
303.369
303.576
303.685
303.743
303.784
303.823
303.867
303.915
303.962
304.002
304.032
304.052
304.063
304.067
304.067
304.062
304.055
304.044
304.032
304.019
304.006
303.995
303.989
303.991
304.004
304.033
304.076
304.138
304.252
297.575
298.745
300.044
301.107
301.813
302.406
302.907
303.298
303.575
303.735
303.829
303.887
303.928
303.963
303.996
304.031
304.064
304.093
304.116
304.13
304.138
304.14
304.139
304.134
304.127
304.118
304.108
304.096
304.084
304.072
304.061
304.054
304.051
304.056
304.071
304.106
304.162
304.231
300.054
300.017
300.014
301.39
302.349
302.987
303.352
303.578
303.743
303.865
303.95
304.008
304.048
304.077
304.101
304.122
304.14
304.157
304.17
304.18
304.186
304.188
304.188
304.186
304.183
304.178
304.173
304.166
304.159
304.151
304.142
304.133
304.123
304.114
304.107
304.103
304.114
304.138
304.168
304.244
)
;

boundaryField
{
    floor
    {
        type            wallHeatTransfer;
        Tinf            uniform 305.2;
        alphaWall       uniform 0.24;
        value           nonuniform List<scalar> 
36
(
303.057
303.565
303.492
303.435
303.422
303.436
303.462
303.491
303.519
303.546
303.572
303.597
303.622
303.645
303.669
303.694
303.722
303.758
303.823
303.823
303.802
303.799
303.798
303.944
304.135
304.093
303.057
303.003
303.042
303.106
303.565
303.106
303.585
303.062
303.456
303.063
)
;
    }
    ceiling
    {
        type            wallHeatTransfer;
        Tinf            uniform 303.2;
        alphaWall       uniform 0.24;
        value           nonuniform List<scalar> 
43
(
300.232
300.191
300.184
301.478
302.392
302.999
303.343
303.554
303.705
303.815
303.89
303.938
303.972
303.996
304.017
304.034
304.049
304.062
304.071
304.077
304.079
304.078
304.074
304.069
304.063
304.056
304.049
304.041
304.034
304.027
304.02
304.013
304.007
304.002
303.999
304
304.013
304.033
304.055
304.119
304.62
304.35
297.903
)
;
    }
    sWall
    {
        type            wallHeatTransfer;
        Tinf            uniform 315.2;
        alphaWall       uniform 0.36;
        value           uniform 301.309;
    }
    nWall
    {
        type            wallHeatTransfer;
        Tinf            uniform 307.2;
        alphaWall       uniform 0.36;
        value           nonuniform List<scalar> 6(304.575 304.484 304.376 304.698 304.67 304.748);
    }
    sideWalls
    {
        type            empty;
    }
    glass1
    {
        type            wallHeatTransfer;
        Tinf            uniform 315.2;
        alphaWall       uniform 4.3;
        value           nonuniform List<scalar> 9(311.068 310.532 310.191 309.93 309.707 309.494 309.333 309.404 309.632);
    }
    glass2
    {
        type            wallHeatTransfer;
        Tinf            uniform 307.2;
        alphaWall       uniform 4.3;
        value           nonuniform List<scalar> 2(306.044 306.131);
    }
    sun
    {
        type            wallHeatTransfer;
        Tinf            uniform 305.2;
        alphaWall       uniform 0.24;
        value           nonuniform List<scalar> 
14
(
303.273
303.022
302.999
302.983
302.969
302.955
302.941
302.925
302.909
302.897
302.895
302.908
302.956
303.001
)
;
    }
    Table_master
    {
        type            zeroGradient;
    }
    Table_slave
    {
        type            zeroGradient;
    }
    inlet
    {
        type            fixedValue;
        value           uniform 295.15;
    }
    outlet
    {
        type            zeroGradient;
    }
}


// ************************************************************************* //
