/*--------------------------------*- C++ -*----------------------------------*\
  =========                 |
  \\      /  F ield         | OpenFOAM: The Open Source CFD Toolbox
   \\    /   O peration     | Website:  https://openfoam.org
    \\  /    A nd           | Version:  6
     \\/     M anipulation  |
\*---------------------------------------------------------------------------*/
FoamFile
{
    version     2.0;
    format      ascii;
    class       volScalarField;
    location    "50000.0000011992161";
    object      alphat;
}
// * * * * * * * * * * * * * * * * * * * * * * * * * * * * * * * * * * * * * //

dimensions      [1 -1 -1 0 0 0 0];

internalField   nonuniform List<scalar> 
778
(
0.00104101
0.00111056
0.00110654
0.00115455
0.00119855
0.00123851
0.00127571
0.00131158
0.0013477
0.0013861
0.00142275
0.00145758
0.00149191
0.00152884
0.00156737
0.00073675
0.0010558
0.00106438
0.00103865
0.000995543
0.00093789
0.000880441
0.000827557
0.000779915
0.000737213
0.000699159
0.000664972
0.000633822
0.000604743
0.00057644
0.000546846
0.000522251
0.00047268
0.0015247
0.00300736
0.00263937
0.00304647
0.0033418
0.00365484
0.00396707
0.00425479
0.00448642
0.00462137
0.00470082
0.00466847
0.00443609
0.00385971
0.00281918
0.00171636
0.00163646
0.00156648
0.00131874
0.00224663
0.00311454
0.0036274
0.00365155
0.00288114
0.00246412
0.00217499
0.00195542
0.00178075
0.0016319
0.00150035
0.00137796
0.00125821
0.00115074
0.00105807
0.00119139
0.000599345
0.0019342
0.0041989
0.00311337
0.00445341
0.00497606
0.00541817
0.00581958
0.0061728
0.00647208
0.00670689
0.00693456
0.0071745
0.00739551
0.0075279
0.00744264
0.00681598
0.00498563
0.0019216
0.00166346
0.00355798
0.00496633
0.00563373
0.0051249
0.00135238
0.00117604
0.00103991
0.000933344
0.000848524
0.000780064
0.00072424
0.00067885
0.000643467
0.000707299
0.000831907
0.00131652
0.000681897
0.00232918
0.00565861
0.00297902
0.00500689
0.00578066
0.00619435
0.00649831
0.00672301
0.00689063
0.00702662
0.00722023
0.00754788
0.00802648
0.00862879
0.00923476
0.0095345
0.00895515
0.00668313
0.00191356
0.00442871
0.00658898
0.0076884
0.00796148
0.00679873
0.00153941
0.00140035
0.0012927
0.00120312
0.00112674
0.00105813
0.00099345
0.000929228
0.000859894
0.000803219
0.000832286
0.00142442
0.00075099
0.00271846
0.00749075
0.0030056
0.00475915
0.00594884
0.0063015
0.00642916
0.00643358
0.00636918
0.00631224
0.0063931
0.00671125
0.00729566
0.00812375
0.00908432
0.00996945
0.010531
0.0105249
0.00944538
0.00960924
0.00982908
0.00986063
0.00966151
0.00904495
0.00719962
0.00621998
0.0055488
0.00500381
0.00446875
0.00395018
0.00344275
0.00293594
0.0024153
0.00185544
0.00141619
0.00141314
0.00111857
0.000895142
0.00117299
0.00113006
0.00310142
0.00954095
0.00353856
0.00401291
0.00569926
0.00609064
0.00605889
0.00584032
0.00552812
0.00527063
0.00526472
0.00559798
0.00626385
0.00722408
0.00834778
0.00947023
0.0104247
0.011034
0.0111446
0.0110319
0.0108357
0.0105582
0.0102022
0.00974935
0.00908805
0.00845061
0.00787163
0.00731224
0.00670776
0.00606197
0.00537203
0.00463215
0.00383766
0.00299489
0.00223277
0.00167666
0.00130202
0.00145125
0.00250978
0.00135386
0.00349219
0.0114361
0.00471541
0.00328759
0.00512043
0.00576079
0.00568944
0.00533619
0.00482398
0.00437338
0.00436008
0.00478067
0.00554291
0.00661667
0.00783797
0.00904645
0.0100856
0.010829
0.0111702
0.0111428
0.0108972
0.0105262
0.010102
0.00967907
0.00927016
0.00889482
0.00854213
0.00816596
0.00771135
0.00716398
0.00651583
0.00576375
0.00491056
0.00397833
0.00306841
0.002222
0.00163757
0.00145584
0.00254863
0.00159157
0.00382793
0.0128687
0.00642815
0.00313092
0.00405552
0.00510624
0.00525297
0.00496298
0.00435721
0.00374504
0.00388336
0.00443966
0.00529238
0.0063992
0.00766838
0.00893371
0.0100117
0.0107596
0.0110984
0.0110527
0.0107356
0.0102686
0.00976661
0.00932172
0.00897893
0.00873403
0.00854302
0.00833564
0.00804691
0.00764279
0.0071074
0.00643737
0.00563891
0.00473621
0.00379977
0.00286002
0.00201209
0.0013408
0.00359118
0.00206503
0.00392911
0.0121735
0.00795093
0.00404841
0.00275004
0.00336799
0.00394179
0.0039909
0.00352359
0.00342472
0.00378029
0.00443477
0.00535726
0.00653155
0.00786214
0.00916652
0.0102405
0.0109303
0.0111714
0.0110033
0.0105438
0.00994148
0.00934396
0.00886738
0.00856505
0.00841663
0.00834919
0.00826928
0.00810293
0.00781079
0.00737722
0.00680027
0.00608704
0.00525767
0.00435079
0.0033382
0.0019835
0.00166406
0.00534308
0.00237294
0.00384957
0.0098103
0.00820771
0.00555465
0.00367001
0.00284144
0.00269017
0.00281609
0.00305278
0.00342934
0.00396394
0.00470101
0.00570489
0.00697137
0.00837437
0.00969671
0.0107139
0.0112727
0.0113297
0.0109524
0.010289
0.00952514
0.00884299
0.00837578
0.00816199
0.00813702
0.00818286
0.00818154
0.00807297
0.00783552
0.00746178
0.00695073
0.00630642
0.00553625
0.00460806
0.00318035
0.00148712
0.00317889
0.00522412
0.00239843
0.00360579
0.00838279
0.00793325
0.00635379
0.00489201
0.00393927
0.00346761
0.00336063
0.00355549
0.00391456
0.00443748
0.00521619
0.00632532
0.00771372
0.00918719
0.01048
0.0113551
0.011679
0.0114485
0.0107784
0.00986756
0.00895447
0.00826001
0.00791219
0.00787282
0.00798666
0.00810033
0.00810201
0.0079867
0.00775602
0.00740517
0.00692745
0.00631833
0.00556267
0.00450941
0.00255684
0.00175915
0.00367088
0.00483548
0.0023559
0.0032829
0.00755724
0.00765091
0.00672344
0.00572158
0.00496681
0.00452225
0.00436356
0.00440331
0.00462053
0.00510189
0.005973
0.00725546
0.00879194
0.0102941
0.011454
0.0120486
0.0119961
0.0113617
0.01033
0.00917712
0.00821284
0.00766849
0.00756047
0.00765676
0.00780517
0.00790201
0.00787395
0.00774016
0.00750781
0.00716745
0.00669931
0.00608571
0.00529901
0.004147
0.00212849
0.00199466
0.00384945
0.00489837
0.00229684
0.00299324
0.00675849
0.00730365
0.00686695
0.00622478
0.00568484
0.00532573
0.00515024
0.00509883
0.00528641
0.00589972
0.00703894
0.00858954
0.0102489
0.0116477
0.0124816
0.012595
0.0120001
0.0108637
0.00946824
0.00820131
0.00739335
0.00704548
0.00700815
0.00710647
0.00723077
0.0073091
0.00728611
0.00715373
0.00692211
0.00657452
0.00607915
0.00540468
0.00453717
0.00345111
0.0021303
0.00206625
0.00394376
0.0053897
0.00235983
0.00300393
0.00670727
0.00746209
0.00694894
0.00642925
0.00600357
0.00569671
0.0054979
0.00549278
0.00594868
0.00703113
0.00864388
0.010457
0.01205
0.0130571
0.0132687
0.0126677
0.0113937
0.0097626
0.00818357
0.00704561
0.006391
0.0060909
0.00601362
0.00605317
0.00613042
0.00619005
0.00618161
0.00604714
0.00579449
0.00538785
0.00477954
0.00397438
0.00310778
0.00241921
0.00205342
0.00235369
0.00423638
0.00533333
0.0024651
0.00270998
0.00281975
0.00416559
0.00489788
0.00512529
0.00513006
0.00508164
0.00518006
0.00581574
0.00716474
0.00905619
0.0110876
0.0128113
0.0138615
0.0140329
0.0132963
0.0118315
0.00990819
0.00807589
0.00665604
0.00572016
0.00518864
0.0049357
0.00483036
0.00478531
0.00475647
0.0047237
0.0046647
0.00449724
0.00420434
0.00375026
0.00313624
0.00251166
0.00211269
0.00204494
0.00228489
0.00296593
0.00488414
0.00557356
0.00249045
0.000964905
0.00173971
0.00266816
0.00341135
0.00427581
0.00575187
0.00792004
0.0103185
0.0124871
0.0140871
0.0148943
0.0147737
0.0137474
0.0119312
0.0097876
0.00776971
0.00618845
0.00514266
0.00457181
0.00428626
0.00412186
0.00399249
0.00386498
0.00373197
0.00359599
0.00345718
0.00329451
0.00306171
0.00275583
0.00241594
0.00217872
0.00218089
0.00244528
0.00293642
0.00370796
0.00504703
0.00593377
0.00242683
0.0017872
0.00246815
0.00358859
0.00559241
0.00831543
0.0110364
0.0131413
0.0146464
0.0155329
0.0157399
0.0151599
0.0136963
0.0115837
0.009238
0.00712851
0.00558426
0.00469903
0.00428261
0.00408439
0.00395755
0.00384425
0.00372875
0.0036123
0.00350103
0.00339911
0.00330414
0.00320252
0.00307471
0.0029241
0.00277844
0.00271089
0.00281505
0.00312767
0.00360496
0.00416198
0.00463652
0.00472476
0.00234359
0.00323899
0.00786081
0.00724823
0.00648228
0.00822583
0.0109581
0.0132596
0.0148069
0.0156125
0.0157924
0.0154304
0.014496
0.0129588
0.0108935
0.00861552
0.00662082
0.0053197
0.00468496
0.00441209
0.00426679
0.00414656
0.00402031
0.00388708
0.00375808
0.00364848
0.00357209
0.0035367
0.00354033
0.00356741
0.00358613
0.00359116
0.00360911
0.0036774
0.00384435
0.00415137
0.00460252
0.00515074
0.00564278
0.00581288
0.00239829
0.00309576
0.00597943
0.00772197
0.00987976
0.0109582
0.012071
0.0127166
0.0128686
0.0126151
0.0120122
0.0110743
0.00979992
0.00826843
0.00671872
0.00548104
0.00472649
0.00435284
0.00418022
0.00407618
0.00397988
0.0038712
0.0037502
0.00362754
0.00352041
0.00344953
0.00343535
0.00349268
0.00362459
0.00381506
0.00401759
0.00416976
0.00430355
0.00446986
0.004713
0.0050692
0.00556067
0.00619331
0.00701169
0.00645206
0.00271177
0.00289441
0.00248056
0.00246769
0.00253873
0.00259682
0.00251654
0.00236234
0.00218164
0.00199851
0.00182237
0.00165727
0.00150919
0.00138798
0.00130323
0.00125634
0.00123831
0.00123761
0.0012434
0.00125187
0.00126223
0.00127546
0.00129351
0.00131865
0.00135266
0.001396
0.00144739
0.00150411
0.00156311
0.00162207
0.0016804
0.00173923
0.00179872
0.00186234
0.00193453
0.00201857
0.00211489
0.00222026
0.00233492
0.00247174
0.00247893
)
;

boundaryField
{
    floor
    {
        type            compressible::alphatWallFunction;
        Prt             0.85;
        value           nonuniform List<scalar> 
36
(
0.000219888
0.000104471
0.000149996
0.000151196
0.000147594
0.000141536
0.000133387
0.000125208
0.000117623
0.000110741
0.00010453
9.8959e-05
9.39225e-05
8.93062e-05
8.49717e-05
8.07285e-05
7.62641e-05
7.25313e-05
6.49407e-05
6.49399e-05
8.41655e-05
9.64213e-05
0.00010654
0.000127311
0.000166308
0.000160369
0.000219885
0.000239718
0.000229106
0.000219765
0.00010447
0.000219762
0.000186301
0.000266728
0.000232691
0.000265675
)
;
    }
    ceiling
    {
        type            compressible::alphatWallFunction;
        Prt             0.85;
        value           nonuniform List<scalar> 
43
(
0.000391136
0.000338889
0.000337255
0.000346301
0.000353686
0.000343535
0.000323904
0.00030071
0.000276982
0.000253925
0.000232081
0.000212274
0.000195894
0.000184349
0.000177936
0.000175474
0.000175386
0.000176191
0.00017736
0.000178783
0.000180589
0.000183043
0.000186452
0.000191058
0.000196924
0.000203871
0.000211529
0.000219477
0.000227397
0.000235201
0.000243042
0.000250936
0.00025933
0.000268803
0.000279776
0.000292293
0.000305921
0.000320686
0.000338225
0.000339024
0.000368283
0.000382082
0.000248592
)
;
    }
    sWall
    {
        type            compressible::alphatWallFunction;
        Prt             0.85;
        value           nonuniform List<scalar> 9(0.000507616 0.000477877 0.000438172 0.000402217 0.000403543 0.000366708 0.000432107 0.000414395 0.000389385);
    }
    nWall
    {
        type            compressible::alphatWallFunction;
        Prt             0.85;
        value           nonuniform List<scalar> 
14
(
0.000159921
0.000190645
0.00022266
0.00032791
0.000322474
0.000314985
0.000323412
0.000336586
0.000339798
0.000331306
0.00032086
0.000328208
0.000367922
0.000338333
)
;
    }
    sideWalls
    {
        type            empty;
    }
    glass1
    {
        type            compressible::alphatWallFunction;
        Prt             0.85;
        value           nonuniform List<scalar> 9(0.000143931 0.000209139 0.000262698 0.000313309 0.000362385 0.000410009 0.00045802 0.000498877 0.000511236);
    }
    glass2
    {
        type            compressible::alphatWallFunction;
        Prt             0.85;
        value           nonuniform List<scalar> 2(0.000282776 0.000322321);
    }
    sun
    {
        type            compressible::alphatWallFunction;
        Prt             0.85;
        value           nonuniform List<scalar> 
14
(
0.000147965
0.000157649
0.000157088
0.000163753
0.000169832
0.000175331
0.000180433
0.000185337
0.000190259
0.000195475
0.000200438
0.000205142
0.000209766
0.000214726
)
;
    }
    Table_master
    {
        type            compressible::alphatWallFunction;
        Prt             0.85;
        value           nonuniform List<scalar> 9(0.000191152 0.000166973 0.000148024 0.000132991 0.000120881 0.000111002 0.000102869 9.62011e-05 9.09655e-05);
    }
    Table_slave
    {
        type            compressible::alphatWallFunction;
        Prt             0.85;
        value           nonuniform List<scalar> 9(0.000216414 0.000197669 0.000183015 0.000170715 0.000160145 0.00015058 0.000141497 0.000132409 0.000122515);
    }
    inlet
    {
        type            fixedValue;
        value           uniform 1.94e-05;
    }
    outlet
    {
        type            zeroGradient;
    }
}


// ************************************************************************* //
