/*--------------------------------*- C++ -*----------------------------------*\
  =========                 |
  \\      /  F ield         | OpenFOAM: The Open Source CFD Toolbox
   \\    /   O peration     | Website:  https://openfoam.org
    \\  /    A nd           | Version:  6
     \\/     M anipulation  |
\*---------------------------------------------------------------------------*/
FoamFile
{
    version     2.0;
    format      ascii;
    class       volScalarField;
    location    "50000.0000011992161";
    object      nut;
}
// * * * * * * * * * * * * * * * * * * * * * * * * * * * * * * * * * * * * * //

dimensions      [0 2 -1 0 0 0 0];

internalField   nonuniform List<scalar> 
778
(
0.000894336
0.00095308
0.000949578
0.000990761
0.0010285
0.00106277
0.00109468
0.00112545
0.00115642
0.00118935
0.00122077
0.00125063
0.00128005
0.00131169
0.0013447
0.000632227
0.000905621
0.000912964
0.000890891
0.00085392
0.000804479
0.000755212
0.000709862
0.000669007
0.000632387
0.000599754
0.000570437
0.000543724
0.000518787
0.000494517
0.000469139
0.000448051
0.000405565
0.00131082
0.00258122
0.00226513
0.0026145
0.00286797
0.00313663
0.00340458
0.00365148
0.00385023
0.00396597
0.00403404
0.00400609
0.00380643
0.00331158
0.0024186
0.00147239
0.00140378
0.00134373
0.00113115
0.00192692
0.00267126
0.00311109
0.0031318
0.00247106
0.00211341
0.00186544
0.00167713
0.00152733
0.00139967
0.00128685
0.00118188
0.00107919
0.000987036
0.000907583
0.00102199
0.000514216
0.0016641
0.00360457
0.00267223
0.00382247
0.00427123
0.00465087
0.00499557
0.00529888
0.00555583
0.00575736
0.00595261
0.00615818
0.00634724
0.00645998
0.00638585
0.00584739
0.0042767
0.00164825
0.0014267
0.00305151
0.00425935
0.00483174
0.00439536
0.00115987
0.00100863
0.000891884
0.000800493
0.000727749
0.000669036
0.00062116
0.000582233
0.000551891
0.000606648
0.000713547
0.00112928
0.000585032
0.00200536
0.00485875
0.00255723
0.00429815
0.00496275
0.0053183
0.00557964
0.00577289
0.00591705
0.0060339
0.00620001
0.00648083
0.00689077
0.00740636
0.00792474
0.0081803
0.00768199
0.00573233
0.00164124
0.00379831
0.00565101
0.00659392
0.00682815
0.00583094
0.00132028
0.00120101
0.00110869
0.00103186
0.000966354
0.000907514
0.000852041
0.00079696
0.000737495
0.000688902
0.000713855
0.00122181
0.000644305
0.00234213
0.00643364
0.00258038
0.00408603
0.00510799
0.00541141
0.00552165
0.00552602
0.00547115
0.00542248
0.00549187
0.00576462
0.00626538
0.00697457
0.00779686
0.00855416
0.00903403
0.00902755
0.00810106
0.00824139
0.0084299
0.00845701
0.00828631
0.00775758
0.00617493
0.00533475
0.0047591
0.00429169
0.00383277
0.00338801
0.00295279
0.0025181
0.00207156
0.00159138
0.00121467
0.00121212
0.000959613
0.000767969
0.00100638
0.000969862
0.0026738
0.008197
0.00303838
0.00344574
0.00489436
0.00523122
0.00520472
0.0050177
0.00475009
0.00452923
0.00452421
0.00481011
0.00538094
0.00620352
0.00716561
0.00812626
0.00894294
0.00946424
0.00955836
0.00946154
0.0092933
0.00905547
0.00875025
0.00836198
0.00779487
0.00724818
0.00675161
0.00627181
0.00575335
0.00519943
0.00460765
0.00397303
0.00329158
0.00256872
0.00191507
0.00143814
0.00111692
0.00124498
0.00215317
0.00116201
0.00301237
0.00982849
0.00404962
0.00282322
0.00439773
0.00494846
0.00488797
0.00458525
0.0041458
0.00375905
0.00374783
0.00410897
0.00476271
0.00568272
0.00672842
0.00776273
0.00865196
0.0092882
0.00958025
0.0095566
0.0093462
0.00902827
0.0086646
0.00830204
0.00795141
0.00762952
0.00732702
0.00700435
0.0066144
0.00614487
0.00558889
0.00494377
0.00421194
0.00341231
0.00263186
0.00190591
0.00140471
0.00124887
0.00218643
0.00136597
0.00330373
0.0110652
0.00552241
0.00268905
0.0034834
0.00438651
0.00451323
0.00426475
0.00374483
0.00321932
0.00333856
0.00381643
0.00454788
0.00549623
0.00658285
0.0076657
0.00858818
0.00922831
0.0095184
0.00947938
0.00920774
0.00880758
0.00837736
0.00799595
0.00770202
0.00749198
0.00732813
0.00715021
0.0069025
0.00655581
0.00609651
0.00552173
0.0048368
0.00406248
0.00325923
0.0024532
0.00172594
0.00115017
0.00308099
0.00177341
0.00339344
0.0104832
0.00683817
0.00347889
0.00236251
0.0028935
0.00338686
0.00342952
0.00302852
0.0029442
0.00325026
0.00381246
0.00460362
0.00560953
0.00674846
0.00786456
0.00878358
0.00937408
0.0095808
0.00943708
0.00904361
0.00852751
0.00801532
0.0076067
0.00734742
0.0072201
0.00716221
0.0070936
0.00695082
0.00670014
0.00632815
0.00583318
0.00522133
0.00450988
0.00373196
0.00286341
0.00170143
0.00142755
0.00458482
0.00203887
0.00332466
0.00845678
0.00706662
0.00477767
0.00315482
0.00244201
0.00231193
0.00242034
0.00262438
0.00294877
0.00340861
0.00404137
0.00490176
0.00598606
0.00718652
0.00831782
0.00918835
0.00966705
0.00971642
0.00939375
0.00882557
0.00817099
0.00758615
0.00718547
0.00700207
0.00698058
0.00701981
0.00701858
0.00692534
0.00672155
0.00640086
0.0059624
0.00540964
0.00474894
0.00395273
0.00272807
0.00127574
0.00272853
0.00448573
0.00206086
0.00311422
0.00722959
0.0068348
0.00546935
0.00420855
0.0033878
0.0029818
0.00288989
0.00305795
0.00336709
0.00381626
0.00448374
0.00543327
0.00662107
0.00788136
0.00898744
0.00973675
0.0100149
0.00981857
0.00924513
0.00846488
0.00768216
0.0070866
0.0067882
0.00675433
0.00685186
0.00694924
0.00695055
0.00685151
0.00665351
0.00635244
0.00594257
0.00541998
0.00477171
0.0038682
0.00219331
0.00150942
0.00315168
0.00415318
0.00202447
0.00283572
0.00651963
0.00659471
0.00579124
0.00492578
0.00427466
0.0038915
0.00375494
0.00378919
0.00397538
0.00438725
0.00513222
0.00622873
0.00754234
0.00882703
0.00981997
0.0103302
0.010287
0.00974489
0.00886165
0.00787356
0.00704664
0.00657962
0.00648679
0.00656922
0.00669636
0.00677928
0.00675506
0.00664016
0.00644073
0.00614866
0.00574699
0.00522055
0.00454566
0.00355743
0.00182595
0.00171164
0.00330531
0.00420778
0.00197391
0.00258613
0.00583297
0.00629844
0.00591826
0.00536249
0.00489596
0.00458597
0.00443445
0.00438891
0.0045474
0.00507003
0.00604265
0.00736731
0.00878579
0.00998302
0.0106986
0.0107985
0.0102914
0.00931931
0.00812376
0.00703736
0.00634414
0.00604547
0.00601319
0.00609732
0.00620376
0.00627079
0.00625092
0.00613723
0.00593843
0.00564016
0.00521513
0.00463648
0.00389227
0.00296059
0.00182759
0.00177305
0.00338609
0.0046295
0.00202791
0.00259487
0.00578913
0.00643622
0.00599081
0.00554067
0.00517228
0.00490666
0.00473337
0.00472464
0.00511035
0.00603254
0.00740901
0.00895841
0.0103221
0.0111872
0.0113729
0.0108625
0.00977381
0.00837683
0.00702291
0.00604648
0.00548452
0.00522673
0.00516015
0.00519386
0.00525995
0.00531094
0.00530357
0.00518809
0.00497125
0.00462233
0.00410041
0.00340965
0.00266623
0.00207556
0.00176185
0.00201985
0.00363717
0.00458059
0.00211805
0.00234208
0.0024354
0.00359224
0.00421927
0.00441221
0.0044139
0.00436946
0.00444859
0.00498668
0.00613532
0.00774918
0.00948589
0.0109638
0.0118692
0.0120238
0.0113999
0.0101493
0.00850263
0.00693141
0.00571301
0.00490959
0.00445316
0.00423583
0.00414522
0.00410637
0.00408146
0.0040532
0.00400245
0.00385868
0.00360731
0.00321767
0.00269086
0.00215502
0.00181281
0.00175483
0.00196095
0.00254583
0.00419364
0.00478691
0.00213982
0.000807519
0.00146485
0.00225946
0.00289754
0.00363595
0.00489417
0.00674468
0.00879687
0.010659
0.01204
0.0127451
0.0126551
0.011786
0.010236
0.00840032
0.00666973
0.00531263
0.00441477
0.00392455
0.00367924
0.00353795
0.00342676
0.0033172
0.00320294
0.00308614
0.00296691
0.00282722
0.0026274
0.00236488
0.00207324
0.00186976
0.00187181
0.00209904
0.00252106
0.00318403
0.00433475
0.00509734
0.00208548
0.00149715
0.00207336
0.00302371
0.00472574
0.00704499
0.00937297
0.0111862
0.012493
0.0132724
0.0134688
0.0129886
0.0117455
0.00994002
0.00793026
0.00612057
0.00479497
0.00403484
0.00367716
0.00350684
0.00339782
0.00330047
0.00320126
0.00310124
0.00300568
0.00291814
0.00283653
0.00274918
0.00263937
0.00251003
0.00238499
0.00232709
0.00241674
0.00268556
0.00309602
0.00357523
0.00398373
0.00406018
0.00201435
0.0027579
0.00666919
0.00612112
0.00546402
0.00695127
0.00929143
0.0112768
0.0126237
0.013336
0.0135095
0.0132156
0.0124273
0.0111178
0.0093508
0.00739785
0.00568601
0.00456886
0.00402371
0.00378928
0.0036644
0.00356108
0.00345263
0.00333823
0.00322749
0.00313342
0.00306786
0.00303748
0.00304055
0.0030637
0.00307961
0.00308378
0.00309909
0.00315772
0.00330123
0.00356523
0.00395328
0.00442496
0.00484859
0.00499569
0.00206168
0.00263913
0.00509524
0.00656723
0.00838769
0.00931582
0.0102865
0.0108606
0.0110095
0.0108065
0.0102996
0.00950198
0.00841274
0.00710049
0.0057709
0.00470832
0.00406029
0.00373931
0.00359097
0.00350154
0.00341879
0.00332544
0.00322155
0.00311627
0.00302434
0.00296357
0.00295148
0.00300079
0.0031141
0.00327766
0.00345149
0.003582
0.00369674
0.00383948
0.00404833
0.00435444
0.00477695
0.00532094
0.00602474
0.00554473
0.0023309
0.00247349
0.00211973
0.00210911
0.00217047
0.00222128
0.00215507
0.0020252
0.00187182
0.00171568
0.00156508
0.00142366
0.00129666
0.00119263
0.00111985
0.00107958
0.00106408
0.00106346
0.00106842
0.00107569
0.0010846
0.00109599
0.00111153
0.00113318
0.00116245
0.00119975
0.00124394
0.00129271
0.0013434
0.00139405
0.00144413
0.00149463
0.0015457
0.00160034
0.00166237
0.00173462
0.00181747
0.00190814
0.00200684
0.00212459
0.00213108
)
;

boundaryField
{
    floor
    {
        type            nutkWallFunction;
        Cmu             0.09;
        kappa           0.41;
        E               9.8;
        value           nonuniform List<scalar> 
36
(
0.000160557
7.63643e-05
0.000109552
0.000110425
0.000107797
0.000103379
9.74346e-05
9.14689e-05
8.59364e-05
8.09161e-05
7.63849e-05
7.23201e-05
6.86453e-05
6.52769e-05
6.21139e-05
5.90173e-05
5.57591e-05
5.30348e-05
4.74958e-05
4.74958e-05
6.15318e-05
7.04775e-05
7.78632e-05
9.30191e-05
0.000121476
0.000117174
0.000160557
0.000175008
0.000167261
0.000160446
7.63643e-05
0.000160446
0.000136033
0.000194688
0.000169853
0.000193907
)
;
    }
    ceiling
    {
        type            nutkWallFunction;
        Cmu             0.09;
        kappa           0.41;
        E               9.8;
        value           nonuniform List<scalar> 
43
(
0.000284297
0.000246331
0.000245185
0.000251825
0.000257313
0.000250192
0.000236132
0.00021939
0.000202188
0.000185426
0.000169517
0.000155075
0.000143123
0.000134695
0.000130011
0.000128213
0.000128147
0.000128733
0.000129587
0.000130627
0.000131948
0.000133744
0.000136239
0.000139609
0.000143899
0.000148977
0.000154574
0.000160379
0.000166163
0.000171859
0.000177581
0.000183342
0.00018947
0.000196389
0.000204408
0.00021356
0.000223527
0.00023433
0.00024716
0.000247777
0.000270466
0.000280439
0.000177586
)
;
    }
    sWall
    {
        type            nutkWallFunction;
        Cmu             0.09;
        kappa           0.41;
        E               9.8;
        value           nonuniform List<scalar> 9(0.00037389 0.000352059 0.000322933 0.000296581 0.000297505 0.000270556 0.000314435 0.000301929 0.000284398);
    }
    nWall
    {
        type            nutkWallFunction;
        Cmu             0.09;
        kappa           0.41;
        E               9.8;
        value           nonuniform List<scalar> 
14
(
0.000117182
0.000139631
0.000163008
0.000240085
0.00023613
0.000230678
0.000236823
0.000246419
0.000248765
0.000242594
0.000235001
0.000240405
0.000269409
0.000247815
)
;
    }
    sideWalls
    {
        type            empty;
    }
    glass1
    {
        type            nutkWallFunction;
        Cmu             0.09;
        kappa           0.41;
        E               9.8;
        value           nonuniform List<scalar> 9(0.000108251 0.000156887 0.000196744 0.00023436 0.000270807 0.00030616 0.000341778 0.000372099 0.000381388);
    }
    glass2
    {
        type            nutkWallFunction;
        Cmu             0.09;
        kappa           0.41;
        E               9.8;
        value           nonuniform List<scalar> 2(0.000208719 0.000237831);
    }
    sun
    {
        type            nutkWallFunction;
        Cmu             0.09;
        kappa           0.41;
        E               9.8;
        value           nonuniform List<scalar> 
14
(
0.00010821
0.000115183
0.000114768
0.00011963
0.000124065
0.000128076
0.000131797
0.000135373
0.000138962
0.000142766
0.000146385
0.000149813
0.000153182
0.000156796
)
;
    }
    Table_master
    {
        type            nutkWallFunction;
        Cmu             0.09;
        kappa           0.41;
        E               9.8;
        value           nonuniform List<scalar> 9(0.000139352 0.000121726 0.000107912 9.69531e-05 8.81249e-05 8.09231e-05 7.49947e-05 7.01337e-05 6.63174e-05);
    }
    Table_slave
    {
        type            nutkWallFunction;
        Cmu             0.09;
        kappa           0.41;
        E               9.8;
        value           nonuniform List<scalar> 9(0.000157765 0.0001441 0.000133418 0.000124451 0.000116746 0.000109773 0.000103151 9.65266e-05 8.93136e-05);
    }
    inlet
    {
        type            calculated;
        value           uniform 0.000167705;
    }
    outlet
    {
        type            calculated;
        value           nonuniform List<scalar> 2(0.0027579 0.00666919);
    }
}


// ************************************************************************* //
