/*--------------------------------*- C++ -*----------------------------------*\
  =========                 |
  \\      /  F ield         | OpenFOAM: The Open Source CFD Toolbox
   \\    /   O peration     | Website:  https://openfoam.org
    \\  /    A nd           | Version:  6
     \\/     M anipulation  |
\*---------------------------------------------------------------------------*/
FoamFile
{
    version     2.0;
    format      ascii;
    class       volScalarField;
    location    "900";
    object      alphat;
}
// * * * * * * * * * * * * * * * * * * * * * * * * * * * * * * * * * * * * * //

dimensions      [1 -1 -1 0 0 0 0];

internalField   nonuniform List<scalar> 
778
(
0.000866421
0.000883919
0.000667562
0.000685145
0.000713601
0.00074211
0.000769985
0.000797606
0.000825816
0.00085597
0.000886507
0.000915595
0.000944627
0.000976576
0.00101124
0.000499908
0.000519363
0.000524672
0.000501523
0.000473068
0.000431625
0.000372667
0.000313461
0.000288975
0.000291417
0.000329383
0.00036628
0.000424775
0.000500511
0.000579772
0.000602838
0.000596891
0.000541539
0.00150016
0.00234866
0.00128902
0.00181447
0.00191451
0.00200791
0.00210378
0.00219176
0.00226214
0.00230398
0.00231875
0.00228868
0.0021839
0.00195254
0.00156662
0.00116741
0.00117045
0.00093254
0.000887675
0.00129614
0.00169241
0.00208363
0.0022348
0.00165102
0.00103484
0.000584359
0.000397461
0.000365443
0.000442694
0.000592995
0.000850204
0.00119671
0.00177574
0.00194249
0.00185275
0.000694783
0.00210232
0.00427079
0.00136256
0.00242017
0.00273054
0.00283044
0.00292337
0.00300831
0.00307849
0.00312739
0.00315653
0.00314683
0.00307807
0.00292686
0.0026937
0.00240383
0.00198928
0.00142463
0.001445
0.00379673
0.00402417
0.00379408
0.00318822
0.000792918
0.000634371
0.000520931
0.000429041
0.000390378
0.000490857
0.00058303
0.000668612
0.000750871
0.00119283
0.00116066
0.00109557
0.000868124
0.00264406
0.00646278
0.00171341
0.0025312
0.00331046
0.00345706
0.00356497
0.00367072
0.00376868
0.00385015
0.00390362
0.00393763
0.00393324
0.00386833
0.00371591
0.00343261
0.00296086
0.00234687
0.00173702
0.00619622
0.0070536
0.00696127
0.00613884
0.00467014
0.001148
0.00101189
0.000912459
0.000831871
0.000764291
0.000706471
0.00065381
0.000603203
0.000572378
0.00138139
0.00179735
0.0024175
0.00118317
0.00312865
0.0087266
0.00234362
0.00229656
0.00364608
0.00389991
0.00402146
0.00413649
0.00424847
0.00435234
0.00443995
0.00453296
0.00464614
0.00478539
0.00495568
0.00516143
0.00542374
0.00581608
0.00641923
0.00748956
0.00795088
0.00798951
0.00760861
0.00679165
0.00545195
0.00471344
0.00420541
0.00380867
0.00343983
0.00308071
0.00272455
0.00235685
0.00193857
0.00177405
0.0017627
0.00171701
0.00211289
0.00120379
0.0012564
0.00120248
0.00355809
0.0107884
0.00319794
0.00197702
0.00370774
0.00412641
0.00423179
0.00429991
0.00435413
0.00440058
0.0044467
0.00451004
0.0046176
0.00477692
0.00499021
0.00525803
0.00558914
0.00600212
0.00649316
0.00698213
0.00736073
0.0075694
0.00751972
0.00709942
0.00651238
0.00599933
0.00557056
0.00520212
0.00486049
0.00450807
0.00414843
0.003774
0.00337332
0.0030234
0.00282481
0.00276867
0.00224649
0.00181567
0.00271247
0.00140544
0.00396103
0.0123024
0.00422036
0.00177561
0.00352357
0.00417286
0.00425207
0.00424602
0.0042159
0.00418418
0.00417258
0.00419656
0.00428258
0.00443484
0.00464642
0.00490176
0.00518401
0.00548288
0.00579585
0.0061259
0.00647754
0.0067729
0.00688848
0.00668643
0.00638131
0.00607431
0.005796
0.0055465
0.00531514
0.00507973
0.00483488
0.00458649
0.00434927
0.00416408
0.00406082
0.00380051
0.00275335
0.00142408
0.00321646
0.00174586
0.0042714
0.0133334
0.00550472
0.0018558
0.00308484
0.00408614
0.00417812
0.00409865
0.00398533
0.00388086
0.00381725
0.00381514
0.00389448
0.00406151
0.00430158
0.00458228
0.00486038
0.00509705
0.00528803
0.0054956
0.00580545
0.00612913
0.00628121
0.00616447
0.00596901
0.00576506
0.00557926
0.00541588
0.00527052
0.00513544
0.00500292
0.00487676
0.00477648
0.00471343
0.00457472
0.00387983
0.00215369
0.00152898
0.00503733
0.00239351
0.00432153
0.0127075
0.00771831
0.00264972
0.00219109
0.00366917
0.00404085
0.00394016
0.00375046
0.00357035
0.00344771
0.00341879
0.00349747
0.00369712
0.00399562
0.00434506
0.00467723
0.00491696
0.00503206
0.00511766
0.0053836
0.00572602
0.00586416
0.00576666
0.00559563
0.00541935
0.00526384
0.0051344
0.0050283
0.004941
0.00486988
0.00481877
0.00479495
0.00476839
0.0044769
0.00323958
0.00172247
0.00228333
0.00728012
0.00270756
0.00418059
0.0103459
0.00820316
0.00459857
0.00214779
0.00247867
0.00354892
0.00374843
0.00355686
0.00330448
0.00310092
0.00301938
0.00309239
0.00333423
0.00370741
0.00415118
0.0045786
0.0048741
0.00495058
0.00490686
0.00512797
0.00549541
0.00561859
0.005515
0.00532984
0.00514155
0.0049796
0.00484985
0.00474959
0.00467469
0.00462345
0.00459925
0.00460337
0.00455865
0.00400827
0.00250579
0.00187728
0.00410609
0.00675206
0.00274786
0.00386953
0.00901102
0.00804868
0.00566561
0.00343272
0.00213555
0.00222758
0.00310167
0.00325797
0.00308851
0.00282734
0.002652
0.002714
0.00300497
0.00345083
0.00398901
0.00452702
0.00491285
0.00498306
0.0048014
0.00497858
0.00538009
0.00550566
0.00538369
0.00516383
0.00494225
0.00475544
0.00460949
0.00449987
0.00442079
0.00436944
0.00434774
0.00435058
0.00424961
0.00341535
0.00219891
0.0027475
0.00456287
0.00664215
0.00271488
0.00350942
0.00828679
0.00790077
0.00625794
0.00451753
0.0031179
0.00228367
0.00208481
0.00232543
0.00256601
0.00255152
0.00235584
0.00245449
0.00279452
0.00328411
0.00388514
0.00451623
0.00499995
0.00508606
0.0047625
0.00490257
0.00535401
0.00550294
0.00535169
0.00508051
0.00481208
0.0045917
0.00442397
0.00430042
0.0042115
0.00415075
0.00411538
0.00409398
0.00392947
0.00296756
0.00234454
0.00343365
0.00474949
0.00635678
0.00262589
0.00322083
0.00785204
0.00793218
0.00673427
0.00539676
0.00417032
0.00319584
0.00255297
0.0022205
0.00211311
0.00213806
0.00223872
0.002445
0.00279223
0.00327886
0.00389257
0.00456466
0.00511806
0.00522255
0.00476097
0.0048721
0.00541844
0.00559542
0.00539622
0.0050595
0.00474212
0.00449207
0.00430632
0.00416993
0.00406816
0.00398746
0.0039136
0.00382731
0.00357879
0.00272594
0.00260536
0.00376981
0.00472589
0.00555816
0.00250969
0.0032084
0.00801332
0.00832356
0.0072097
0.00610814
0.00506377
0.0041444
0.00341397
0.00289724
0.00258662
0.0024664
0.00249826
0.00267689
0.0029868
0.00344859
0.00405444
0.00474084
0.00532454
0.0053991
0.00474952
0.00487258
0.00557021
0.0057618
0.00547977
0.00507123
0.00472094
0.00446108
0.00427248
0.00413144
0.00401503
0.00389386
0.00372922
0.00350408
0.00313135
0.00253005
0.00277923
0.00392318
0.00480725
0.00560272
0.00244496
0.00291726
0.00320398
0.00472056
0.00550482
0.00557458
0.0052019
0.0046409
0.00406664
0.00358171
0.00323731
0.00305208
0.0030154
0.00309979
0.00335093
0.00378712
0.00437788
0.00506044
0.00563775
0.00561003
0.00468272
0.00488977
0.00580975
0.00596334
0.00554869
0.00508121
0.00473236
0.00449499
0.00432761
0.00419436
0.00405585
0.00385491
0.00353988
0.00314836
0.00283533
0.0027426
0.0030413
0.00405324
0.00510859
0.00616533
0.00264141
0.00151851
0.0029306
0.00415154
0.00461499
0.00458507
0.00432805
0.00401687
0.00375305
0.00358741
0.00353872
0.00360718
0.00386644
0.00430472
0.00487713
0.0055385
0.00606101
0.00582171
0.00450796
0.00491833
0.00614022
0.00615445
0.00558112
0.00508245
0.00478665
0.00461952
0.0045048
0.00439006
0.00422205
0.00395823
0.00364072
0.00339879
0.00330203
0.00337593
0.00371192
0.00453501
0.0059083
0.00652087
0.00270228
0.00201112
0.00298823
0.00391249
0.00447042
0.00464603
0.00458791
0.00443364
0.00427929
0.00418844
0.00420433
0.00434994
0.00466606
0.00509834
0.00563027
0.00622012
0.00658051
0.00594693
0.00417263
0.00495833
0.00656278
0.00632207
0.0055688
0.00512402
0.00499867
0.00498916
0.00496807
0.00488399
0.00472505
0.00451847
0.00432956
0.0042194
0.00419596
0.00430481
0.00462321
0.00531944
0.00684338
0.00714037
0.0027545
0.00299448
0.00526207
0.00400001
0.00398776
0.00474183
0.00515862
0.00527484
0.00525313
0.0051888
0.00513548
0.00516016
0.00532715
0.00566881
0.00606917
0.00646418
0.00683055
0.00714831
0.00709647
0.00580425
0.00366574
0.00496559
0.00702721
0.00637294
0.00548063
0.00532239
0.00564476
0.00601514
0.00617299
0.00608877
0.00587774
0.00566537
0.00550375
0.00538615
0.00529332
0.00525463
0.0053459
0.00568739
0.00651025
0.00703661
0.0026339
0.00296974
0.00482398
0.00615396
0.00640691
0.00657245
0.00668767
0.00663524
0.00650151
0.00646463
0.00648185
0.00656424
0.00673514
0.00697709
0.00716182
0.0071727
0.00707875
0.00693967
0.00655813
0.0050786
0.00304005
0.00459558
0.00631264
0.00557062
0.00489789
0.00510885
0.00578726
0.00642746
0.00676445
0.00680212
0.00669401
0.00658265
0.00651916
0.00649745
0.00650262
0.00652674
0.0065723
0.00665544
0.00709759
0.00735907
0.00260018
0.00290505
0.00249972
0.00250243
0.00257649
0.0025874
0.00252826
0.00243825
0.00231871
0.00221952
0.00214458
0.00208178
0.00202864
0.00198709
0.00195637
0.00193873
0.00192362
0.00190609
0.00187727
0.0018061
0.00167251
0.0017055
0.00175717
0.00172723
0.00172197
0.00176234
0.00181311
0.00185474
0.00188267
0.00190115
0.00191821
0.00194022
0.00196959
0.00200683
0.00205323
0.00211251
0.00219126
0.00229695
0.00243412
0.00259666
0.00246915
)
;

boundaryField
{
    floor
    {
        type            compressible::alphatWallFunction;
        Prt             0.85;
        value           nonuniform List<scalar> 
36
(
0.00014365
6.90077e-05
7.19727e-05
7.27795e-05
6.9243e-05
6.48736e-05
5.84523e-05
4.91808e-05
3.9672e-05
3.56701e-05
3.60663e-05
4.22341e-05
4.81466e-05
5.73643e-05
6.90659e-05
8.10779e-05
8.45347e-05
8.36471e-05
7.53188e-05
7.53179e-05
9.81712e-05
0.000123277
0.000167544
0.000170412
0.000177643
0.000170241
0.000143649
0.00016542
0.000165841
0.000132543
6.90068e-05
0.000132541
0.000126141
0.000200578
0.000203327
0.000242339
)
;
    }
    ceiling
    {
        type            compressible::alphatWallFunction;
        Prt             0.85;
        value           nonuniform List<scalar> 
43
(
0.000392411
0.000341227
0.000341565
0.000350973
0.000352376
0.000344899
0.000333463
0.000318196
0.000305457
0.000295789
0.000287659
0.00028076
0.000275352
0.000271345
0.000269041
0.000267066
0.000264772
0.000260999
0.00025165
0.000233998
0.000238418
0.000245304
0.000241334
0.00024054
0.000245823
0.000252515
0.000258018
0.000261722
0.000264176
0.000266431
0.000269324
0.00027317
0.00027803
0.000284049
0.000291684
0.000301759
0.000315217
0.000332639
0.000353236
0.000337292
0.000394217
0.0004299
0.000277959
)
;
    }
    sWall
    {
        type            compressible::alphatWallFunction;
        Prt             0.85;
        value           nonuniform List<scalar> 9(0.000547536 0.000509881 0.000465906 0.000430338 0.000428793 0.000392573 0.000401624 0.000398585 0.00039063);
    }
    nWall
    {
        type            compressible::alphatWallFunction;
        Prt             0.85;
        value           nonuniform List<scalar> 
14
(
0.000169733
0.000197438
0.000242933
0.00037197
0.000367771
0.000356472
0.000341722
0.000333657
0.000358805
0.000366279
0.000372823
0.000357512
0.000353053
0.000336546
)
;
    }
    sideWalls
    {
        type            empty;
    }
    glass1
    {
        type            compressible::alphatWallFunction;
        Prt             0.85;
        value           nonuniform List<scalar> 9(0.000119329 0.000205403 0.000283724 0.000352314 0.000412542 0.000465189 0.000514036 0.000551369 0.000557527);
    }
    glass2
    {
        type            compressible::alphatWallFunction;
        Prt             0.85;
        value           nonuniform List<scalar> 2(0.000323983 0.000363744);
    }
    sun
    {
        type            compressible::alphatWallFunction;
        Prt             0.85;
        value           nonuniform List<scalar> 
14
(
0.000123147
0.000125614
9.42134e-05
9.68057e-05
0.000100985
0.000105152
0.000109207
0.000113209
0.000117279
0.000121611
0.00012598
0.000130125
0.000134247
0.000138766
)
;
    }
    Table_master
    {
        type            compressible::alphatWallFunction;
        Prt             0.85;
        value           nonuniform List<scalar> 9(0.000112874 8.9624e-05 7.25534e-05 5.83816e-05 5.22888e-05 6.79261e-05 8.19226e-05 9.46725e-05 0.00010674);
    }
    Table_slave
    {
        type            compressible::alphatWallFunction;
        Prt             0.85;
        value           nonuniform List<scalar> 9(0.000163095 0.000144093 0.000130023 0.000118488 0.000108712 0.000100265 9.24995e-05 8.49641e-05 8.03342e-05);
    }
    inlet
    {
        type            fixedValue;
        value           uniform 1.94e-05;
    }
    outlet
    {
        type            zeroGradient;
    }
}


// ************************************************************************* //
