/*--------------------------------*- C++ -*----------------------------------*\
  =========                 |
  \\      /  F ield         | OpenFOAM: The Open Source CFD Toolbox
   \\    /   O peration     | Website:  https://openfoam.org
    \\  /    A nd           | Version:  6
     \\/     M anipulation  |
\*---------------------------------------------------------------------------*/
FoamFile
{
    version     2.0;
    format      ascii;
    class       volScalarField;
    location    "900";
    object      k;
}
// * * * * * * * * * * * * * * * * * * * * * * * * * * * * * * * * * * * * * //

dimensions      [0 2 -2 0 0 0 0];

internalField   nonuniform List<scalar> 
662
(
0.00208634
0.00244148
0.00252867
0.00277274
0.00301114
0.00324695
0.00349059
0.00375754
0.00403295
0.00429355
0.00449557
0.00455024
0.00433405
0.00373693
0.0024404
0.000531853
0.000738967
0.000951514
0.00102586
0.000984673
0.00085651
0.000727753
0.000621905
0.000537279
0.000469131
0.000413742
0.000368244
0.000330448
0.000298157
0.00026943
0.000242544
0.00022874
0.000194558
0.0038585
0.00712451
0.00361494
0.00378463
0.00406611
0.00438272
0.00474078
0.00515801
0.00568462
0.00632644
0.00698843
0.00747007
0.00751867
0.00701868
0.00598385
0.00363459
0.00246136
0.00162505
0.000533352
0.00116538
0.0015462
0.00172648
0.0017293
0.00146846
0.00119131
0.000967919
0.000797302
0.00066655
0.000565024
0.000484795
0.000419331
0.000364964
0.000324972
0.000302623
0.000569049
0.000335171
0.00591234
0.0138585
0.0043643
0.00398084
0.00411184
0.00428613
0.00448676
0.00477647
0.00522703
0.00585761
0.00662271
0.00738797
0.00781409
0.00759404
0.00672879
0.00555647
0.00452332
0.00234511
0.00134191
0.00171378
0.00194567
0.00208664
0.0020618
0.00158582
0.00120034
0.000925928
0.000732048
0.000593082
0.000491441
0.000415601
0.000358635
0.00031699
0.000293885
0.000300913
0.000918696
0.000469519
0.00845442
0.0238372
0.00592006
0.00400166
0.00390219
0.00392536
0.00395503
0.00412552
0.0045209
0.00509063
0.00587553
0.00686696
0.0075713
0.00751274
0.00690324
0.00613285
0.00532784
0.00411982
0.00321745
0.00296984
0.00285174
0.00282321
0.00276373
0.00258937
0.00202495
0.00167655
0.00145723
0.00130465
0.00118286
0.00107003
0.000967858
0.000865762
0.000754608
0.000569751
0.000464332
0.0013736
0.000618781
0.0114385
0.034143
0.0102275
0.00461968
0.00399396
0.00385089
0.00376425
0.00394026
0.00437329
0.00484825
0.00560293
0.00674306
0.00751262
0.00739662
0.00673077
0.00593117
0.00520629
0.00461045
0.00445686
0.0041412
0.00390373
0.00369239
0.00343753
0.00311549
0.0027639
0.00251056
0.00234201
0.00220436
0.00206284
0.00189526
0.00168448
0.0014501
0.00120587
0.000944125
0.00073177
0.00107866
0.00128553
0.00110681
0.00119494
0.00140851
0.0152824
0.0463401
0.0198637
0.00852326
0.00583883
0.00487578
0.00449323
0.00465629
0.00495926
0.00523284
0.00591161
0.00706477
0.00785049
0.00752342
0.0065905
0.00557096
0.00483811
0.0045401
0.0045779
0.00460369
0.00447857
0.00419752
0.00381485
0.00339715
0.00304619
0.00283289
0.00270289
0.00259317
0.00247047
0.00231313
0.00209339
0.00183077
0.00155177
0.00127122
0.00105154
0.00103581
0.00122505
0.00124059
0.00184211
0.00152941
0.0134625
0.0267779
0.0260732
0.0175956
0.011531
0.0082687
0.00676922
0.00629251
0.00606918
0.00588085
0.00630015
0.00750281
0.00863128
0.00786067
0.00657799
0.0053516
0.0046543
0.00456456
0.00474202
0.0047987
0.00461584
0.00424766
0.00379927
0.00336894
0.00305178
0.0028822
0.00279969
0.0027479
0.00270139
0.00264347
0.00255074
0.00236233
0.00212433
0.0018664
0.00166883
0.00158791
0.0016985
0.00193554
0.00256323
0.00220264
0.00833907
0.0142966
0.0160236
0.0161681
0.0148616
0.0125232
0.0102876
0.00856567
0.0072466
0.00677727
0.00760603
0.00904219
0.00940911
0.00806636
0.00640309
0.00508746
0.0045444
0.00453995
0.00463575
0.00456099
0.00427247
0.00385862
0.00343042
0.00307476
0.00284415
0.00273694
0.00271238
0.00274124
0.00281572
0.00293716
0.00310655
0.00330605
0.00342483
0.00350311
0.0037242
0.00437812
0.00565539
0.00738503
0.0147574
0.00490354
0.00163205
0.00663863
0.00871153
0.00913834
0.0085939
0.00775529
0.00739742
0.00833023
0.0101065
0.0110269
0.00952252
0.00748913
0.00562443
0.0046723
0.00432514
0.00424264
0.00416438
0.00395783
0.00362476
0.00324201
0.00289377
0.00263638
0.00248762
0.00243234
0.00244637
0.00251705
0.0026434
0.00282945
0.0030792
0.00339232
0.0037796
0.00425431
0.00486584
0.00557747
0.00623981
0.00668433
0.0069037
0.0042854
0.00306934
0.00311392
0.00501569
0.00659071
0.0076186
0.00873323
0.0105297
0.0123262
0.0127203
0.0112021
0.00767028
0.00601371
0.00488228
0.00429686
0.00402106
0.00386232
0.00369138
0.00345242
0.00315576
0.00285113
0.00259291
0.00240894
0.0022998
0.00225224
0.00225374
0.00229951
0.0023925
0.00254227
0.00276564
0.00308232
0.0035001
0.00401666
0.00462095
0.00524743
0.00578297
0.00613578
0.00560929
0.00296945
0.00929879
0.0154107
0.00556612
0.00571529
0.00789171
0.0100704
0.0120497
0.0135939
0.0138574
0.0126273
0.0101613
0.00715468
0.00459562
0.00423341
0.00398032
0.00383769
0.00374356
0.00363865
0.00349124
0.00330045
0.00308426
0.00286922
0.00268329
0.0025361
0.00242832
0.00235983
0.00233355
0.00235503
0.00243086
0.00256736
0.00278071
0.00308546
0.00349064
0.00399691
0.00458228
0.00519343
0.00580681
0.00683718
0.00402087
0.00321033
0.00547849
0.00914095
0.0104281
0.0127528
0.0139829
0.0140103
0.0130101
0.0110627
0.00862465
0.0063662
0.00443769
0.00295646
0.00175627
0.00168687
0.00162067
0.00155761
0.0014934
0.00142225
0.00134537
0.00127098
0.00120968
0.00116787
0.00114496
0.00114056
0.00115365
0.00118387
0.00123194
0.00129976
0.00139094
0.00151204
0.00166555
0.00185462
0.00208388
0.00235736
0.00267573
0.00303757
0.00325198
0.00270655
0.002346
0.00294324
0.0178314
0.0321119
0.0223809
0.0142487
0.00960846
0.00732496
0.00641636
0.00619951
0.00595325
0.00598115
0.00684599
0.00811821
0.0131087
0.0157402
0.016195
0.015723
0.013739
0.0113426
0.00938901
0.00783588
0.00686498
0.00703536
0.00834483
0.00949088
0.00488958
0.00791941
0.00908982
0.00894398
0.00816885
0.00745641
0.00768441
0.00921282
0.0107677
0.010844
0.00235923
0.00405336
0.00588137
0.00714863
0.00810638
0.00954098
0.011527
0.0127611
0.0121703
0.0101053
0.0270772
0.0106949
0.00491361
0.00685542
0.00894191
0.0110777
0.0129249
0.0139268
0.0133963
0.0115362
0.00864164
0.00599192
0.0144224
0.00964439
0.0116837
0.0135521
0.0141234
0.0136361
0.0121394
0.00985652
0.0074523
0.00535798
0.00363256
0.00240413
0.0146843
0.0187558
0.0211422
0.0190861
0.0151864
0.0115299
0.00910538
0.00772981
0.0068027
0.00633187
0.0068448
0.00817009
0.00935336
0.0112091
0.0118074
0.0121562
0.0122333
0.0112855
0.00981927
0.00838902
0.00731157
0.00733231
0.00867201
0.0100529
0.0030549
0.00374079
0.00607153
0.00733164
0.00762054
0.0075848
0.0082752
0.0101097
0.0116956
0.0115714
0.0018975
0.00363649
0.0055485
0.00738722
0.00922718
0.0113834
0.0131914
0.0135458
0.0122956
0.00959295
0.00946897
0.013181
0.00833556
0.00927048
0.0113519
0.0128328
0.013611
0.0133828
0.0119531
0.00984879
0.00726734
0.00489407
0.00788403
0.00656904
0.00739462
0.00797772
0.00784427
0.0070793
0.00589463
0.00453729
0.00332671
0.00239613
0.00171514
0.00150281
0.0159768
0.0213556
0.0205057
0.017241
0.0132232
0.0101483
0.00833832
0.00722745
0.00647972
0.00644311
0.00747451
0.00873564
0.00967231
0.0115596
0.0119077
0.0123245
0.0118665
0.0105749
0.00908169
0.0077658
0.00713867
0.00788615
0.00947008
0.0102363
0.00250471
0.00500752
0.00684835
0.00756451
0.00759002
0.00776248
0.00910744
0.0110505
0.0118801
0.0108338
0.0023534
0.00460726
0.00647607
0.00828835
0.010262
0.0124647
0.0135543
0.013134
0.0110676
0.00828368
0.0238159
0.0107282
0.0083742
0.0104204
0.0121469
0.0133183
0.0136497
0.0127963
0.0109561
0.0086069
0.00595736
0.00433493
0.00623063
0.00702918
0.00772025
0.00801
0.00752487
0.00652709
0.00521703
0.00389759
0.00283026
0.00201761
0.00153143
0.00159142
)
;

boundaryField
{
    floor
    {
        type            kqRWallFunction;
        value           nonuniform List<scalar> 
36
(
0.0024404
0.000531853
0.000738967
0.000951514
0.00102586
0.000984673
0.00085651
0.000727753
0.000621905
0.000537279
0.000469131
0.000413742
0.000368244
0.000330448
0.000298157
0.00026943
0.000242544
0.00022874
0.000194558
0.000194558
0.000335171
0.000469519
0.000618781
0.00110681
0.00119494
0.00140851
0.0024404
0.00363459
0.00246136
0.00162505
0.000531853
0.00162505
0.000533352
0.00234511
0.00134191
0.00321745
)
;
    }
    ceiling
    {
        type            kqRWallFunction;
        value           nonuniform List<scalar> 
58
(
0.00623063
0.00702918
0.00772025
0.00801
0.00752487
0.00652709
0.00521703
0.00389759
0.00283026
0.00201761
0.00153143
0.00159142
0.00175627
0.00168687
0.00162067
0.00155761
0.0014934
0.00142225
0.00134537
0.00127098
0.00120968
0.00116787
0.00114496
0.00114056
0.00115365
0.00118387
0.00123194
0.00129976
0.00139094
0.00151204
0.00166555
0.00185462
0.00208388
0.00235736
0.00267573
0.00303757
0.00325198
0.00270655
0.002346
0.00294324
0.00967231
0.0115596
0.0018975
0.00547849
0.00656904
0.00739462
0.00797772
0.00784427
0.0070793
0.00589463
0.00453729
0.00332671
0.00239613
0.00171514
0.00150281
0.00833907
0.0112091
0.00306934
)
;
    }
    sWall
    {
        type            kqRWallFunction;
        value           nonuniform List<scalar> 4(0.00946897 0.00788403 0.00929879 0.00547849);
    }
    nWall
    {
        type            kqRWallFunction;
        value           nonuniform List<scalar> 6(0.00140851 0.00152941 0.00220264 0.00296945 0.00321033 0.00294324);
    }
    sideWalls
    {
        type            empty;
    }
    glass1
    {
        type            kqRWallFunction;
        value           nonuniform List<scalar> 10(0.00208634 0.0038585 0.00591234 0.00845442 0.0114385 0.0152824 0.0146843 0.00935336 0.0134625 0.00833907);
    }
    glass2
    {
        type            kqRWallFunction;
        value           nonuniform List<scalar> 2(0.00490354 0.0042854);
    }
    sun
    {
        type            kqRWallFunction;
        value           nonuniform List<scalar> 
14
(
0.00208634
0.00244148
0.00252867
0.00277274
0.00301114
0.00324695
0.00349059
0.00375754
0.00403295
0.00429355
0.00449557
0.00455024
0.00433405
0.00373693
)
;
    }
    Table_master
    {
        type            kqRWallFunction;
        value           nonuniform List<scalar> 9(0.00158582 0.00120034 0.000925928 0.000732048 0.000593082 0.000491441 0.000415601 0.000358635 0.00031699);
    }
    Table_slave
    {
        type            kqRWallFunction;
        value           nonuniform List<scalar> 9(0.00202495 0.00167655 0.00145723 0.00130465 0.00118286 0.00107003 0.000967858 0.000865762 0.000754608);
    }
    inlet
    {
        type            turbulentIntensityKineticEnergyInlet;
        intensity       0.05;
        value           uniform 0.0009375;
    }
    outlet
    {
        type            zeroGradient;
    }
}


// ************************************************************************* //
