/*--------------------------------*- C++ -*----------------------------------*\
  =========                 |
  \\      /  F ield         | OpenFOAM: The Open Source CFD Toolbox
   \\    /   O peration     | Website:  https://openfoam.org
    \\  /    A nd           | Version:  6
     \\/     M anipulation  |
\*---------------------------------------------------------------------------*/
FoamFile
{
    version     2.0;
    format      ascii;
    class       volScalarField;
    location    "900";
    object      T;
}
// * * * * * * * * * * * * * * * * * * * * * * * * * * * * * * * * * * * * * //

dimensions      [0 0 0 1 0 0 0];

internalField   nonuniform List<scalar> 
778
(
310.446
310.31
310.553
310.196
310.476
310.662
309.949
310.48
310.579
310.731
309.556
310.414
310.533
310.585
310.495
309.23
310.254
310.496
310.517
310.409
310.406
309.081
309.933
310.442
310.487
310.376
310.288
310.342
309.048
309.543
310.293
310.459
310.365
310.261
310.199
310.281
309.04
309.286
310.043
310.397
310.37
310.267
310.183
310.138
310.212
309.036
309.184
309.75
310.254
310.364
310.298
310.209
310.143
310.104
310.132
309.033
309.151
309.383
310.019
310.292
310.32
310.256
310.183
310.128
310.086
310.126
309.031
309.134
309.239
309.706
310.111
310.28
310.29
310.236
310.173
310.115
310.077
310.121
309.033
309.126
309.194
309.343
309.812
310.117
310.252
310.258
310.21
310.151
310.09
310.075
310.117
309.039
309.12
309.181
309.243
309.458
309.812
310.072
310.192
310.204
310.167
310.116
310.065
310.077
310.113
309.047
309.116
309.175
309.223
309.285
309.456
309.742
309.983
310.104
310.129
310.108
310.073
310.042
310.087
310.112
309.109
309.168
309.219
309.26
309.307
309.427
309.663
309.879
310.001
310.042
310.041
310.026
310.03
310.106
309.091
309.158
309.213
309.265
309.287
309.317
309.403
309.585
309.772
309.893
309.95
309.969
309.974
310.112
309.068
309.141
309.198
309.273
309.298
309.306
309.321
309.382
309.517
309.674
309.791
309.859
309.893
309.912
310.458
308.914
309.113
309.17
309.277
309.313
309.318
309.315
309.322
309.363
309.462
309.591
309.701
309.774
309.813
309.851
310.182
309.031
309.124
309.278
309.328
309.335
309.327
309.319
309.321
309.349
309.421
309.526
309.626
309.697
309.733
309.816
310.132
309.074
309.274
309.341
309.351
309.343
309.332
309.322
309.321
309.341
309.395
309.48
309.571
309.64
309.71
309.918
310.129
310.128
309.03
309.272
309.353
309.366
309.359
309.346
309.333
309.323
309.322
309.338
309.383
309.459
309.549
309.647
309.813
310.094
310.148
310.133
310.15
309.002
309.275
309.365
309.38
309.374
309.361
309.346
309.334
309.326
309.327
309.344
309.39
309.472
309.591
309.763
310.034
310.146
310.16
310.159
308.616
309.151
309.293
309.376
309.393
309.388
309.375
309.36
309.346
309.336
309.332
309.339
309.367
309.431
309.548
309.732
309.99
310.138
310.187
308.319
308.608
309.221
309.354
309.392
309.406
309.401
309.388
309.373
309.359
309.348
309.343
309.348
309.369
309.424
309.537
309.716
309.957
310.129
308.156
308.316
308.602
309.29
309.388
309.416
309.42
309.414
309.401
309.386
309.371
309.361
309.356
309.361
309.381
309.435
309.543
309.711
309.932
310.118
308.126
308.302
308.607
309.359
309.418
309.435
309.435
309.427
309.413
309.398
309.383
309.373
309.37
309.376
309.398
309.452
309.555
309.712
309.913
310.107
308.073
308.293
308.608
309.422
309.444
309.452
309.449
309.439
309.425
309.409
309.395
309.385
309.383
309.391
309.416
309.47
309.57
309.717
309.899
310.095
308.043
308.297
308.6
309.43
309.462
309.466
309.461
309.45
309.436
309.42
309.406
309.397
309.397
309.407
309.434
309.488
309.585
309.722
309.888
310.081
308.039
308.317
308.629
309.437
309.473
309.478
309.473
309.461
309.446
309.431
309.417
309.409
309.41
309.422
309.451
309.506
309.599
309.728
309.88
310.068
308.042
308.332
308.662
309.443
309.483
309.489
309.483
309.471
309.456
309.441
309.428
309.421
309.423
309.437
309.468
309.523
309.613
309.734
309.874
310.054
308.044
308.346
308.701
309.448
309.492
309.498
309.492
309.481
309.466
309.451
309.439
309.432
309.436
309.452
309.485
309.54
309.626
309.74
309.869
310.041
308.046
308.365
308.746
309.453
309.501
309.507
309.501
309.49
309.475
309.461
309.449
309.444
309.449
309.467
309.501
309.556
309.638
309.745
309.865
310.028
308.05
308.389
308.8
309.456
309.509
309.516
309.51
309.498
309.484
309.471
309.46
309.456
309.463
309.482
309.518
309.572
309.651
309.751
309.861
310.015
308.056
308.42
308.863
309.458
309.517
309.524
309.518
309.507
309.494
309.481
309.471
309.468
309.477
309.498
309.534
309.588
309.663
309.757
309.859
310.004
308.062
308.458
308.939
309.458
309.526
309.532
309.526
309.515
309.503
309.491
309.482
309.481
309.491
309.514
309.551
309.604
309.676
309.763
309.858
309.993
308.067
308.503
309.027
309.454
309.534
309.54
309.534
309.523
309.512
309.501
309.493
309.493
309.504
309.529
309.567
309.619
309.688
309.769
309.857
309.983
308.078
308.551
309.126
309.481
309.544
309.548
309.541
309.532
309.521
309.511
309.504
309.505
309.517
309.542
309.581
309.633
309.698
309.774
309.857
309.974
308.1
308.598
309.184
309.509
309.558
309.556
309.549
309.54
309.529
309.521
309.516
309.518
309.53
309.555
309.594
309.645
309.708
309.78
309.857
309.967
308.129
308.598
309.243
309.537
309.57
309.565
309.557
309.548
309.538
309.53
309.527
309.529
309.542
309.567
309.605
309.656
309.717
309.785
309.857
309.96
308.173
308.629
309.246
309.579
309.573
309.564
309.555
309.547
309.54
309.537
309.541
309.554
309.579
309.616
309.666
309.725
309.79
309.858
309.953
308.31
308.828
309.583
309.579
309.571
309.563
309.555
309.549
309.547
309.552
309.565
309.589
309.626
309.674
309.732
309.795
309.858
309.948
308.49
309.585
309.584
309.578
309.57
309.563
309.558
309.556
309.561
309.575
309.599
309.635
309.682
309.738
309.798
309.859
309.943
309.587
309.589
309.584
309.577
309.571
309.566
309.565
309.57
309.584
309.608
309.643
309.689
309.743
309.801
309.859
309.938
309.592
309.589
309.583
309.577
309.573
309.572
309.577
309.592
309.615
309.65
309.694
309.747
309.803
309.859
309.934
309.597
309.589
309.583
309.58
309.578
309.583
309.597
309.621
309.655
309.698
309.749
309.804
309.858
309.929
309.603
309.589
309.585
309.584
309.588
309.601
309.624
309.657
309.7
309.75
309.803
309.856
309.925
309.603
309.589
309.589
309.592
309.602
309.625
309.658
309.7
309.749
309.802
309.853
309.919
309.59
309.593
309.595
309.603
309.623
309.655
309.697
309.746
309.798
309.849
309.913
309.594
309.599
309.605
309.62
309.649
309.691
309.74
309.792
309.842
309.906
309.601
309.607
309.617
309.642
309.681
309.73
309.782
309.834
309.897
309.609
309.617
309.634
309.668
309.717
309.77
309.822
309.885
309.619
309.63
309.655
309.699
309.753
309.807
309.871
309.63
309.646
309.68
309.732
309.787
309.852
309.643
309.665
309.709
309.763
309.828
309.658
309.688
309.737
309.799
309.674
309.712
309.763
309.692
309.726
309.701
)
;

boundaryField
{
    floor
    {
        type            wallHeatTransfer;
        Tinf            uniform 305.2;
        alphaWall       uniform 0.36;
        value           nonuniform List<scalar> 
36
(
308.2
307.464
307.424
307.243
307.092
307.033
307.022
307.033
307.052
307.071
307.089
307.105
307.121
307.151
307.213
307.297
307.414
307.647
307.755
307.755
308.195
308.623
308.93
309.051
309.045
308.996
308.2
308.39
308.436
308.232
307.464
308.232
307.711
308.389
307.976
308.267
)
;
    }
    ceiling
    {
        type            wallHeatTransfer;
        Tinf            uniform 301.2;
        alphaWall       uniform 0.36;
        value           nonuniform List<scalar> 
43
(
309.545
309.584
309.582
309.552
309.525
309.501
309.481
309.464
309.451
309.441
309.432
309.425
309.416
309.408
309.399
309.389
309.38
309.37
309.362
309.354
309.346
309.34
309.334
309.329
309.325
309.321
309.317
309.313
309.308
309.303
309.297
309.289
309.279
309.266
309.248
309.225
309.193
309.154
309.105
309.016
309.645
309.707
309.828
)
;
    }
    sWall
    {
        type            wallHeatTransfer;
        Tinf            uniform 315.2;
        alphaWall       uniform 0.54;
        value           nonuniform List<scalar> 9(310.686 310.659 310.628 310.592 310.55 310.502 310.581 310.639 310.707);
    }
    nWall
    {
        type            wallHeatTransfer;
        Tinf            uniform 308.2;
        alphaWall       uniform 0.54;
        value           nonuniform List<scalar> 
14
(
309.324
309.361
309.39
309.344
309.353
309.367
309.382
309.4
309.423
309.45
309.482
309.518
309.556
309.526
)
;
    }
    sideWalls
    {
        type            empty;
    }
    glass1
    {
        type            wallHeatTransfer;
        Tinf            uniform 315.2;
        alphaWall       uniform 4.3;
        value           nonuniform List<scalar> 9(313.691 313.636 313.679 313.531 312.968 312.859 312.794 312.748 312.7);
    }
    glass2
    {
        type            wallHeatTransfer;
        Tinf            uniform 308.2;
        alphaWall       uniform 4.3;
        value           nonuniform List<scalar> 2(308.818 308.782);
    }
    sun
    {
        type            wallHeatTransfer;
        Tinf            uniform 305.2;
        alphaWall       uniform 0.36;
        value           nonuniform List<scalar> 
14
(
309.654
309.587
309.511
309.264
308.803
308.421
308.208
308.136
308.093
308.066
308.05
308.053
308.079
308.128
)
;
    }
    Table_master
    {
        type            zeroGradient;
    }
    Table_slave
    {
        type            zeroGradient;
    }
    inlet
    {
        type            fixedValue;
        value           uniform 298.15;
    }
    outlet
    {
        type            zeroGradient;
    }
}


// ************************************************************************* //
