/*--------------------------------*- C++ -*----------------------------------*\
  =========                 |
  \\      /  F ield         | OpenFOAM: The Open Source CFD Toolbox
   \\    /   O peration     | Website:  https://openfoam.org
    \\  /    A nd           | Version:  6
     \\/     M anipulation  |
\*---------------------------------------------------------------------------*/
FoamFile
{
    version     2.0;
    format      ascii;
    class       volScalarField;
    location    "900";
    object      T;
}
// * * * * * * * * * * * * * * * * * * * * * * * * * * * * * * * * * * * * * //

dimensions      [0 0 0 1 0 0 0];

internalField   nonuniform List<scalar> 
775
(
301
300.995
300.999
301.001
301.003
301.005
301.006
301.007
301.008
301.009
301.01
301.01
301.01
301.01
301.009
300.769
300.773
300.777
300.779
300.781
300.782
300.784
300.786
300.789
300.793
300.796
300.795
300.787
300.856
300.877
300.883
300.888
300.936
301.002
300.996
301
301.004
301.007
301.01
301.012
301.014
301.016
301.017
301.017
301.017
301.016
301.014
301.011
301.007
301.004
301.001
300.803
300.808
300.813
300.813
300.809
300.805
300.802
300.801
300.802
300.804
300.808
300.81
300.807
300.871
300.884
300.892
300.902
300.956
301.004
300.997
301.002
301.007
301.011
301.014
301.018
301.02
301.022
301.024
301.025
301.024
301.023
301.021
301.018
301.014
301.01
301.006
300.956
300.92
300.892
300.87
300.853
300.84
300.831
300.825
300.821
300.821
300.825
300.833
300.843
300.884
300.893
300.902
300.915
300.974
301.006
300.997
301.002
301.008
301.013
301.018
301.022
301.026
301.028
301.03
301.031
301.031
301.03
301.027
301.023
301.019
301.014
301.008
301.001
300.988
300.97
300.947
300.924
300.902
300.883
300.868
300.856
300.847
300.842
300.841
300.842
300.851
300.889
300.899
300.91
300.926
300.989
301.007
300.997
301.003
301.009
301.015
301.021
301.026
301.03
301.033
301.036
301.037
301.037
301.035
301.032
301.028
301.023
301.018
301.012
301.005
300.997
300.987
300.974
300.957
300.939
300.92
300.903
300.889
300.877
300.868
300.862
300.859
300.86
300.89
300.902
300.918
300.935
301
301.009
300.997
301.002
301.01
301.016
301.022
301.028
301.032
301.036
301.039
301.041
301.041
301.039
301.035
301.031
301.025
301.02
301.014
301.008
301.002
300.994
300.986
300.975
300.961
300.947
300.932
300.917
300.904
300.893
300.885
300.881
300.879
300.879
300.879
300.882
300.89
300.907
300.932
300.949
301.011
301.01
300.997
301.002
301.009
301.016
301.022
301.028
301.033
301.037
301.041
301.044
301.044
301.042
301.038
301.032
301.027
301.021
301.015
301.009
301.004
300.998
300.991
300.984
300.974
300.963
300.951
300.938
300.926
300.915
300.907
300.9
300.896
300.895
300.894
300.894
300.899
300.919
300.958
300.987
301.032
301.011
300.996
301.001
301.008
301.015
301.021
301.026
301.031
301.036
301.041
301.046
301.047
301.044
301.039
301.033
301.027
301.021
301.015
301.009
301.004
300.998
300.992
300.986
300.98
300.971
300.962
300.952
300.941
300.932
300.923
300.916
300.91
300.906
300.903
300.902
300.904
300.931
300.98
301.004
301.034
301.013
300.997
301
301.006
301.012
301.018
301.022
301.027
301.032
301.04
301.047
301.048
301.045
301.039
301.033
301.026
301.02
301.014
301.008
301.002
300.996
300.991
300.985
300.98
300.974
300.966
300.958
300.95
300.941
300.933
300.926
300.92
300.915
300.91
300.907
300.906
300.921
300.965
300.993
301.027
301.118
301.005
300.999
301.004
301.009
301.013
301.017
301.021
301.029
301.041
301.048
301.049
301.045
301.038
301.031
301.024
301.018
301.012
301.006
300.999
300.993
300.987
300.982
300.977
300.971
300.966
300.959
300.953
300.945
300.938
300.932
300.925
300.919
300.914
300.91
300.907
300.916
300.949
300.983
301.048
301.187
301.025
301.003
301.001
301.005
301.009
301.012
301.017
301.031
301.044
301.05
301.049
301.044
301.036
301.028
301.021
301.015
301.009
301.002
300.995
300.988
300.982
300.976
300.97
300.966
300.961
300.956
300.951
300.945
300.939
300.932
300.926
300.921
300.915
300.91
300.907
300.914
300.942
300.979
301.062
301.235
301.052
301.018
301.006
301.005
301.007
301.011
301.023
301.04
301.052
301.054
301.05
301.041
301.032
301.024
301.017
301.011
301.005
300.998
300.99
300.983
300.975
300.968
300.963
300.958
300.954
300.95
300.945
300.94
300.935
300.93
300.925
300.919
300.914
300.91
300.907
300.913
300.941
300.981
301.073
301.269
301.091
301.057
301.037
301.028
301.025
301.03
301.048
301.06
301.063
301.057
301.047
301.036
301.026
301.018
301.012
301.007
301.001
300.994
300.985
300.976
300.968
300.961
300.954
300.95
300.946
300.942
300.939
300.935
300.93
300.926
300.921
300.917
300.912
300.908
300.906
300.915
300.944
300.986
301.082
301.314
301.187
301.151
301.119
301.095
301.084
301.085
301.086
301.081
301.069
301.053
301.038
301.025
301.016
301.011
301.008
301.003
300.997
300.989
300.98
300.971
300.962
300.955
300.948
300.943
300.939
300.936
300.933
300.93
300.926
300.922
300.919
300.915
300.911
300.908
300.908
300.92
300.95
300.994
301.092
301.383
301.319
301.25
301.201
301.167
301.143
301.126
301.104
301.078
301.052
301.031
301.017
301.009
301.006
301.005
301.004
301
300.994
300.986
300.977
300.968
300.961
300.953
300.947
300.942
300.938
300.934
300.931
300.928
300.926
300.923
300.919
300.916
300.914
300.912
300.915
300.93
300.962
301.007
301.102
300.102
300.702
300.891
300.949
300.966
300.973
300.976
300.978
300.982
300.987
300.993
300.999
301.003
301.003
300.999
300.993
300.986
300.979
300.972
300.966
300.96
300.954
300.949
300.945
300.941
300.939
300.936
300.934
300.932
300.93
300.928
300.926
300.926
300.931
300.946
300.977
301.021
301.113
300.245
300.679
300.806
300.869
300.902
300.922
300.94
300.956
300.972
300.986
300.997
301.005
301.008
301.006
301.002
300.998
300.993
300.988
300.983
300.979
300.975
300.971
300.967
300.964
300.962
300.96
300.958
300.957
300.955
300.954
300.953
300.953
300.954
300.958
300.969
300.993
301.032
301.122
301.32
300.989
300.54
300.795
300.892
300.922
300.936
300.949
300.962
300.976
300.991
301.003
301.01
301.014
301.015
301.013
301.011
301.009
301.007
301.004
301.002
301
300.998
300.997
300.996
300.995
300.995
300.994
300.995
300.995
300.995
300.995
300.994
300.993
300.994
300.996
301.002
301.015
301.044
301.127
301.161
301.036
300.983
301.083
301.025
300.987
300.982
300.986
300.994
301.003
301.012
301.019
301.022
301.025
301.026
301.026
301.027
301.027
301.027
301.027
301.028
301.028
301.029
301.03
301.031
301.032
301.034
301.036
301.038
301.04
301.043
301.044
301.046
301.046
301.046
301.048
301.052
301.057
301.07
301.141
301.356
301.329
301.302
301.268
301.105
301.012
301.01
301.015
301.02
301.025
301.029
301.032
301.035
301.038
301.041
301.043
301.046
301.049
301.051
301.054
301.056
301.059
301.062
301.065
301.068
301.072
301.076
301.08
301.084
301.088
301.092
301.096
301.1
301.104
301.109
301.114
301.12
301.126
301.134
301.166
)
;

boundaryField
{
    floor
    {
        type            wallHeatTransfer;
        Tinf            uniform 301;
        alphaWall       uniform 0.36;
        value           nonuniform List<scalar> 
42
(
301.007
300.871
300.868
300.867
300.865
300.864
300.864
300.864
300.866
300.868
300.87
300.872
300.872
300.875
300.908
300.911
300.91
300.912
300.95
300.875
300.908
300.877
300.911
300.891
300.916
300.894
300.917
300.898
300.91
300.912
300.917
300.914
301.007
301.006
301.003
301
300.871
301
300.875
301.005
300.966
301.001
)
;
    }
    ceiling
    {
        type            wallHeatTransfer;
        Tinf            uniform 301;
        alphaWall       uniform 0.36;
        value           nonuniform List<scalar> 
43
(
301.325
301.298
301.269
301.233
301.085
301.009
301.008
301.011
301.015
301.019
301.022
301.025
301.027
301.03
301.032
301.034
301.037
301.039
301.041
301.044
301.046
301.049
301.051
301.054
301.057
301.061
301.064
301.068
301.072
301.076
301.081
301.085
301.089
301.093
301.098
301.103
301.109
301.116
301.124
301.151
301.352
301.297
300.308
)
;
    }
    sWall
    {
        type            wallHeatTransfer;
        Tinf            uniform 313.2;
        alphaWall       uniform 0.54;
        value           nonuniform List<scalar> 9(303.27 303.016 302.817 302.679 302.687 302.78 302.712 302.577 302.828);
    }
    nWall
    {
        type            wallHeatTransfer;
        Tinf            uniform 305.6;
        alphaWall       uniform 0.54;
        value           nonuniform List<scalar> 
18
(
302.361
302.111
301.972
301.883
301.824
301.794
301.818
301.77
301.733
301.703
301.681
301.668
301.663
301.659
301.656
301.644
301.665
301.72
)
;
    }
    sideWalls
    {
        type            empty;
    }
    glass1
    {
        type            wallHeatTransfer;
        Tinf            uniform 301.5;
        alphaWall       uniform 4.3;
        value           nonuniform List<scalar> 9(301.414 301.4 301.389 301.381 301.374 301.368 301.363 301.356 301.346);
    }
    glass2
    {
        type            wallHeatTransfer;
        Tinf            uniform 301.5;
        alphaWall       uniform 4.3;
        value           nonuniform List<scalar> 2(301.329 301.322);
    }
    sun
    {
        type            wallHeatTransfer;
        Tinf            uniform 301;
        alphaWall       uniform 0.36;
        value           nonuniform List<scalar> 
14
(
301
300.997
300.999
301.001
301.002
301.004
301.005
301.006
301.007
301.007
301.008
301.008
301.008
301.008
)
;
    }
    inlet
    {
        type            fixedValue;
        value           uniform 298.15;
    }
    outlet
    {
        type            zeroGradient;
    }
}


// ************************************************************************* //
