/*--------------------------------*- C++ -*----------------------------------*\
  =========                 |
  \\      /  F ield         | OpenFOAM: The Open Source CFD Toolbox
   \\    /   O peration     | Website:  https://openfoam.org
    \\  /    A nd           | Version:  6
     \\/     M anipulation  |
\*---------------------------------------------------------------------------*/
FoamFile
{
    version     2.0;
    format      ascii;
    class       volScalarField;
    location    "900";
    object      T;
}
// * * * * * * * * * * * * * * * * * * * * * * * * * * * * * * * * * * * * * //

dimensions      [0 0 0 1 0 0 0];

internalField   nonuniform List<scalar> 
778
(
301.381
300.956
300.941
300.942
300.945
300.947
300.948
300.95
300.951
300.952
300.954
300.955
300.958
300.962
300.97
300.449
300.394
300.369
300.331
300.298
300.268
300.236
300.21
300.193
300.175
300.168
300.176
300.186
300.198
300.21
300.216
300.219
300.249
301.641
300.95
300.898
300.901
300.906
300.911
300.915
300.919
300.923
300.927
300.932
300.936
300.94
300.944
300.949
300.956
300.96
301.064
300.615
300.598
300.589
300.558
300.504
300.416
300.305
300.252
300.221
300.176
300.164
300.183
300.205
300.229
300.246
300.25
300.231
300.263
301.881
301.006
300.899
300.897
300.904
300.911
300.917
300.924
300.93
300.936
300.941
300.945
300.947
300.948
300.948
300.947
300.947
300.954
300.851
300.75
300.689
300.638
300.587
300.51
300.457
300.402
300.333
300.217
300.21
300.248
300.28
300.307
300.33
300.341
300.355
300.381
302.1
301.079
300.913
300.901
300.91
300.919
300.928
300.937
300.945
300.952
300.957
300.962
300.964
300.964
300.96
300.955
300.946
300.933
300.919
300.886
300.848
300.8
300.739
300.698
300.715
300.726
300.728
300.725
300.717
300.708
300.696
300.68
300.649
300.521
300.425
300.455
300.57
302.303
301.161
300.936
300.908
300.917
300.929
300.941
300.951
300.961
300.97
300.977
300.983
300.986
300.985
300.982
300.976
300.968
300.959
300.948
300.933
300.915
300.889
300.852
300.826
300.821
300.813
300.802
300.789
300.775
300.758
300.74
300.718
300.688
300.627
300.566
300.556
300.577
300.608
300.625
300.712
302.488
301.246
300.965
300.915
300.924
300.938
300.952
300.965
300.978
300.988
300.997
301.004
301.008
301.009
301.005
300.997
300.988
300.979
300.971
300.964
300.955
300.94
300.914
300.893
300.876
300.861
300.845
300.828
300.81
300.791
300.771
300.75
300.725
300.693
300.666
300.656
300.65
300.646
300.647
300.739
302.638
301.33
301.004
300.923
300.93
300.945
300.961
300.976
300.992
301.005
301.017
301.026
301.032
301.033
301.029
301.019
301.006
300.993
300.985
300.981
300.978
300.969
300.949
300.929
300.91
300.891
300.872
300.853
300.834
300.814
300.794
300.773
300.753
300.732
300.716
300.704
300.694
300.685
300.685
300.762
302.783
301.474
301.098
300.941
300.933
300.948
300.965
300.983
301.001
301.018
301.033
301.045
301.055
301.059
301.055
301.042
301.024
301.005
300.993
300.989
300.991
300.986
300.97
300.95
300.93
300.909
300.888
300.868
300.848
300.828
300.808
300.789
300.77
300.752
300.737
300.725
300.716
300.712
300.737
301.004
303.012
302.008
301.517
301.054
300.945
300.948
300.964
300.983
301.002
301.022
301.041
301.058
301.074
301.084
301.082
301.067
301.043
301.017
300.998
300.994
300.999
300.998
300.984
300.964
300.942
300.92
300.897
300.875
300.854
300.833
300.813
300.794
300.775
300.757
300.741
300.729
300.728
300.75
300.814
301.197
302.989
302.338
301.866
301.388
301.056
300.958
300.961
300.976
300.994
301.013
301.035
301.059
301.084
301.105
301.109
301.093
301.062
301.028
301.002
300.996
301.005
301.006
300.994
300.974
300.951
300.926
300.901
300.877
300.853
300.831
300.81
300.79
300.77
300.751
300.735
300.726
300.751
300.893
300.993
301.2
302.982
302.466
302.055
301.64
301.289
301.07
300.98
300.971
300.981
300.996
301.015
301.045
301.086
301.121
301.132
301.117
301.081
301.038
301.005
300.996
301.009
301.013
301.002
300.982
300.956
300.929
300.902
300.875
300.849
300.825
300.802
300.78
300.759
300.739
300.723
300.726
300.821
300.947
301.039
301.209
303
302.538
302.184
301.837
301.522
301.273
301.106
301.021
300.991
300.986
300.994
301.029
301.089
301.136
301.152
301.136
301.095
301.046
301.006
300.996
301.013
301.019
301.008
300.987
300.96
300.931
300.902
300.873
300.845
300.818
300.792
300.767
300.744
300.724
300.71
300.74
300.891
300.995
301.079
301.23
303.042
302.618
302.304
302.015
301.744
301.504
301.31
301.173
301.089
301.047
301.034
301.058
301.112
301.155
301.167
301.147
301.104
301.05
301.006
300.995
301.016
301.024
301.014
300.991
300.964
300.935
300.905
300.874
300.843
300.813
300.783
300.756
300.731
300.711
300.704
300.779
300.939
301.058
301.147
301.264
303.008
302.638
302.381
302.16
301.936
301.72
301.528
301.374
301.263
301.193
301.161
301.159
301.179
301.194
301.186
301.154
301.104
301.047
301.001
300.994
301.02
301.03
301.019
300.998
300.973
300.945
300.915
300.883
300.85
300.817
300.784
300.753
300.728
300.713
300.719
300.788
300.937
301.072
301.176
301.291
303.126
302.89
302.455
302.152
301.956
301.794
301.646
301.516
301.411
301.337
301.294
301.276
301.257
301.233
301.197
301.148
301.092
301.034
300.991
300.992
301.026
301.037
301.027
301.009
300.989
300.964
300.935
300.903
300.868
300.833
300.801
300.774
300.757
300.756
300.765
300.803
300.908
301.038
301.128
301.218
295.146
297.76
299.795
300.753
301.147
301.286
301.317
301.308
301.291
301.273
301.249
301.212
301.167
301.115
301.061
301.01
300.975
300.991
301.036
301.047
301.04
301.029
301.015
300.993
300.964
300.931
300.897
300.867
300.846
300.837
300.838
300.843
300.845
300.857
300.91
301.011
301.081
301.181
295.296
297.13
298.809
299.978
300.623
300.94
301.085
301.145
301.163
301.16
301.146
301.121
301.088
301.052
301.014
300.978
300.957
300.994
301.051
301.061
301.06
301.059
301.049
301.028
300.999
300.968
300.94
300.922
300.916
300.923
300.937
300.948
300.954
300.958
300.975
301.027
301.077
301.181
298.998
297.907
296.469
297.48
298.835
299.859
300.418
300.73
300.894
300.975
301.01
301.019
301.015
301.007
300.994
300.978
300.961
300.945
300.94
301.003
301.074
301.08
301.09
301.096
301.086
301.064
301.036
301.01
300.992
300.984
300.988
301.001
301.021
301.042
301.061
301.076
301.092
301.112
301.138
301.227
299.333
299.203
298.792
298.576
299.283
299.945
300.39
300.66
300.791
300.859
300.894
300.91
300.916
300.919
300.921
300.92
300.919
300.919
300.929
301.016
301.111
301.111
301.128
301.135
301.122
301.099
301.075
301.057
301.048
301.047
301.054
301.067
301.085
301.107
301.129
301.153
301.175
301.188
301.193
301.283
300.239
299.785
299.7
299.738
299.954
300.239
300.471
300.659
300.751
300.796
300.825
300.845
300.861
300.874
300.885
300.896
300.906
300.916
300.932
301.048
301.167
301.179
301.188
301.187
301.176
301.165
301.155
301.15
301.15
301.155
301.165
301.18
301.197
301.218
301.242
301.266
301.289
301.308
301.318
301.35
)
;

boundaryField
{
    floor
    {
        type            wallHeatTransfer;
        Tinf            uniform 305.2;
        alphaWall       uniform 0.36;
        value           nonuniform List<scalar> 
36
(
301.712
301.757
301.688
301.662
301.67
301.692
301.746
301.847
301.982
302.044
302.025
301.911
301.822
301.702
301.575
301.468
301.443
301.453
301.549
301.549
301.374
301.319
301.297
301.32
301.313
301.408
301.712
301.629
301.63
301.831
301.757
301.831
301.493
301.537
301.441
301.426
)
;
    }
    ceiling
    {
        type            wallHeatTransfer;
        Tinf            uniform 303.2;
        alphaWall       uniform 0.36;
        value           nonuniform List<scalar> 
43
(
300.474
300.09
300.013
300.04
300.236
300.501
300.719
300.899
300.991
301.038
301.07
301.093
301.11
301.125
301.137
301.148
301.159
301.171
301.192
301.31
301.411
301.416
301.427
301.427
301.413
301.398
301.385
301.378
301.376
301.38
301.386
301.397
301.409
301.424
301.441
301.457
301.472
301.48
301.482
301.518
303.132
302.912
296.134
)
;
    }
    sWall
    {
        type            wallHeatTransfer;
        Tinf            uniform 315.2;
        alphaWall       uniform 0.54;
        value           nonuniform List<scalar> 9(304.04 304.101 304.207 304.33 304.303 304.506 300.815 301.124 301.956);
    }
    nWall
    {
        type            wallHeatTransfer;
        Tinf            uniform 308.2;
        alphaWall       uniform 0.54;
        value           nonuniform List<scalar> 
14
(
302.333
302.193
302.007
302.036
302.053
302.093
302.152
302.194
302.078
302.03
302.019
302.088
302.146
302.239
)
;
    }
    sideWalls
    {
        type            empty;
    }
    glass1
    {
        type            wallHeatTransfer;
        Tinf            uniform 315.2;
        alphaWall       uniform 4.3;
        value           nonuniform List<scalar> 9(311.715 310.46 309.626 309.071 308.69 308.424 308.208 308.085 308.184);
    }
    glass2
    {
        type            wallHeatTransfer;
        Tinf            uniform 308.2;
        alphaWall       uniform 4.3;
        value           nonuniform List<scalar> 2(304.972 304.872);
    }
    sun
    {
        type            wallHeatTransfer;
        Tinf            uniform 305.2;
        alphaWall       uniform 0.36;
        value           nonuniform List<scalar> 
14
(
302.125
301.772
301.924
301.909
301.886
301.864
301.844
301.824
301.806
301.786
301.768
301.752
301.737
301.723
)
;
    }
    Table_master
    {
        type            zeroGradient;
    }
    Table_slave
    {
        type            zeroGradient;
    }
    inlet
    {
        type            fixedValue;
        value           uniform 293.15;
    }
    outlet
    {
        type            zeroGradient;
    }
}


// ************************************************************************* //
