/*--------------------------------*- C++ -*----------------------------------*\
  =========                 |
  \\      /  F ield         | OpenFOAM: The Open Source CFD Toolbox
   \\    /   O peration     | Website:  https://openfoam.org
    \\  /    A nd           | Version:  6
     \\/     M anipulation  |
\*---------------------------------------------------------------------------*/
FoamFile
{
    version     2.0;
    format      ascii;
    class       volVectorField;
    location    "900";
    object      U;
}
// * * * * * * * * * * * * * * * * * * * * * * * * * * * * * * * * * * * * * //

dimensions      [0 1 -1 0 0 0 0];

internalField   nonuniform List<vector> 
778
(
(0.112928 0.0663169 0)
(-0.136369 -0.00184208 0)
(0.32321 0.148709 0)
(-0.112976 0.00550256 0)
(-0.170713 0.0144121 0)
(0.499403 0.23088 0)
(-0.129245 0.00671417 0)
(-0.113434 0.0249172 0)
(-0.223022 0.0441456 0)
(0.643507 0.301467 0)
(-0.145496 0.00571679 0)
(-0.138421 0.0268009 0)
(-0.098843 0.04919 0)
(-0.275709 0.0807964 0)
(0.761169 0.360437 0)
(-0.160482 0.00368735 0)
(-0.157347 0.0259618 0)
(-0.134143 0.0459627 0)
(-0.0756474 0.0761214 0)
(-0.322172 0.119718 0)
(0.855298 0.411211 0)
(-0.173025 0.00100374 0)
(-0.174171 0.0234703 0)
(-0.153402 0.0420122 0)
(-0.122626 0.0666936 0)
(-0.04898 0.101013 0)
(-0.36135 0.159595 0)
(0.913604 0.457328 0)
(-0.182328 -0.00225047 0)
(-0.188316 0.0197734 0)
(-0.170208 0.036189 0)
(-0.140144 0.0600794 0)
(-0.108034 0.0850649 0)
(-0.0236562 0.121767 0)
(-0.394206 0.197448 0)
(0.948029 0.50342 0)
(-0.187744 -0.00612107 0)
(-0.199311 0.0149612 0)
(-0.184179 0.0286407 0)
(-0.155673 0.051957 0)
(-0.122213 0.0757554 0)
(-0.0922086 0.0998808 0)
(-0.00656988 0.134312 0)
(-0.406657 0.218674 0)
(1.03276 0.501295 0)
(-0.188468 -0.0107534 0)
(-0.206669 0.00895766 0)
(-0.195164 0.0194611 0)
(-0.168671 0.042113 0)
(-0.135336 0.0652333 0)
(-0.101719 0.0883695 0)
(-0.0758776 0.109804 0)
(0.00219103 0.119578 0)
(-0.170487 0.28983 0)
(0.795946 0.400181 0)
(-0.182483 -0.0165957 0)
(-0.209735 0.00156943 0)
(-0.202885 0.00872075 0)
(-0.179105 0.030476 0)
(-0.146555 0.0529902 0)
(-0.111431 0.0761246 0)
(-0.0798715 0.0969064 0)
(-0.0549375 0.112046 0)
(0.0248372 0.155907 0)
(-0.0277005 0.321555 0)
(0.630227 0.236687 0)
(-0.166037 -0.0245546 0)
(-0.207551 -0.0073476 0)
(-0.206922 -0.00345574 0)
(-0.186797 0.0169765 0)
(-0.155766 0.0387995 0)
(-0.120077 0.0622678 0)
(-0.0856966 0.0838134 0)
(-0.0565362 0.101013 0)
(0.00726629 0.121136 0)
(0.0730527 0.224058 0)
(-0.0215877 0.309985 0)
(0.578009 0.1407 0)
(-0.137637 -0.0367085 0)
(-0.199225 -0.0179893 0)
(-0.206448 -0.0169994 0)
(-0.191446 0.00159574 0)
(-0.162835 0.0225493 0)
(-0.127394 0.0464008 0)
(-0.0913515 0.0690923 0)
(-0.0591348 0.0881153 0)
(-0.0258449 0.102995 0)
(0.0783856 0.164343 0)
(0.0952648 0.257319 0)
(-0.0393106 0.275985 0)
(0.617293 0.0965668 0)
(-0.11112 -0.0569437 0)
(-0.186027 -0.031871 0)
(-0.20181 -0.0327096 0)
(-0.192574 -0.0157116 0)
(-0.167582 0.00428273 0)
(-0.133233 0.0283321 0)
(-0.0963857 0.0522052 0)
(-0.0621466 0.0733134 0)
(-0.0314106 0.0896074 0)
(0.0275886 0.12128 0)
(0.118894 0.199239 0)
(0.104396 0.255311 0)
(-0.0433117 0.221841 0)
(0.585093 0.105948 0)
(-0.13061 -0.0846123 0)
(-0.175063 -0.0498962 0)
(-0.194255 -0.0512887 0)
(-0.190549 -0.0350643 0)
(-0.169762 -0.0158843 0)
(-0.137481 0.00807056 0)
(-0.100507 0.032951 0)
(-0.0651975 0.0560333 0)
(-0.0332449 0.075463 0)
(0.00330207 0.094195 0)
(0.0826138 0.150552 0)
(0.144129 0.211328 0)
(0.111491 0.225288 0)
(-0.145236 0.150617 0)
(0.740595 0.147641 0)
(-0.1693 -0.0594416 0)
(-0.18563 -0.0715981 0)
(-0.186247 -0.0563125 0)
(-0.169479 -0.0380169 0)
(-0.140106 -0.0142321 0)
(-0.103617 0.0113923 0)
(-0.067744 0.0361646 0)
(-0.0353854 0.0583542 0)
(-0.0026217 0.0771301 0)
(0.0544531 0.112919 0)
(0.128391 0.170474 0)
(0.166757 0.202604 0)
(0.114509 0.158751 0)
(0.105072 0.125689 0)
(-0.136991 -0.0247895 0)
(-0.171702 -0.0860284 0)
(-0.179633 -0.0773354 0)
(-0.167235 -0.0618094 0)
(-0.140926 -0.0383923 0)
(-0.105975 -0.0122196 0)
(-0.0695302 0.013969 0)
(-0.0373516 0.0381418 0)
(-0.00611459 0.0597783 0)
(0.0389906 0.0861331 0)
(0.108478 0.134315 0)
(0.169045 0.177884 0)
(0.189304 0.168397 0)
(0.193611 0.128369 0)
(-0.0812414 -0.0232101 0)
(-0.143039 -0.0867354 0)
(-0.167917 -0.0939196 0)
(-0.162289 -0.0855984 0)
(-0.140335 -0.0642754 0)
(-0.107322 -0.0375969 0)
(-0.0710497 -0.0101872 0)
(-0.0385405 0.0154434 0)
(-0.00899048 0.0392065 0)
(0.0290994 0.0642301 0)
(0.09159 0.103281 0)
(0.158836 0.149975 0)
(0.206207 0.170511 0)
(0.262703 0.143726 0)
(0.14885 0.101689 0)
(-0.122064 -0.0179365 0)
(-0.111998 -0.100328 0)
(-0.149409 -0.105407 0)
(-0.153034 -0.106935 0)
(-0.137335 -0.0909912 0)
(-0.1079 -0.0650027 0)
(-0.0723331 -0.0360526 0)
(-0.0392475 -0.0090272 0)
(-0.0109689 0.0154018 0)
(0.0226127 0.0416948 0)
(0.0771022 0.075762 0)
(0.145115 0.12038 0)
(0.202502 0.156501 0)
(0.268049 0.164672 0)
(0.227155 0.150591 0)
(0.294568 0.246607 0)
(-0.139137 -0.119053 0)
(-0.132668 -0.11596 0)
(-0.13932 -0.124569 0)
(-0.130659 -0.116675 0)
(-0.106616 -0.094376 0)
(-0.0731864 -0.0643764 0)
(-0.0398325 -0.0349771 0)
(-0.0117488 -0.0101061 0)
(0.0184802 0.0157336 0)
(0.066032 0.0489235 0)
(0.130638 0.0907089 0)
(0.192162 0.132156 0)
(0.251727 0.162808 0)
(0.261251 0.167939 0)
(0.160363 0.229311 0)
(-0.20295 0.0503686 0)
(-0.128251 -0.107361 0)
(-0.124035 -0.136112 0)
(-0.119887 -0.13844 0)
(-0.102242 -0.124069 0)
(-0.0726102 -0.0958379 0)
(-0.03971 -0.0638873 0)
(-0.0108674 -0.0360243 0)
(0.0165937 -0.0126935 0)
(0.0587402 0.0200651 0)
(0.117873 0.0606773 0)
(0.17974 0.103316 0)
(0.235984 0.144036 0)
(0.249056 0.167812 0)
(0.156459 0.195617 0)
(-0.0679651 0.156535 0)
(-0.41383 -0.621479 0)
(-0.371287 -0.104444 0)
(-0.0994312 -0.0362335 0)
(-0.10641 -0.131714 0)
(-0.105751 -0.151012 0)
(-0.0939182 -0.150229 0)
(-0.0696281 -0.128829 0)
(-0.0382949 -0.0968759 0)
(-0.00875963 -0.06545 0)
(0.0186853 -0.0400565 0)
(0.0538939 -0.0111007 0)
(0.10824 0.0291366 0)
(0.167462 0.0720293 0)
(0.222488 0.116719 0)
(0.237779 0.153296 0)
(0.166681 0.176168 0)
(-0.00834845 0.153901 0)
(-0.22491 0.15447 0)
(0.727531 -0.360987 0)
(-0.428899 -0.317242 0)
(-0.397924 -0.418908 0)
(-0.038766 -0.0574855 0)
(-0.0796727 -0.102084 0)
(-0.087813 -0.147934 0)
(-0.0817057 -0.166381 0)
(-0.0633261 -0.159017 0)
(-0.0353514 -0.132187 0)
(-0.0054044 -0.0993323 0)
(0.0221435 -0.0703081 0)
(0.0539802 -0.0419465 0)
(0.10006 -0.00489409 0)
(0.156682 0.0386795 0)
(0.209881 0.0848776 0)
(0.229888 0.128139 0)
(0.175939 0.15774 0)
(0.0394344 0.147979 0)
(-0.160918 0.175404 0)
(-0.368677 -0.318584 0)
(0.23416 -0.180283 0)
(-0.233339 -0.413485 0)
(0.0538655 -0.0513365 0)
(-0.0227743 -0.0379189 0)
(-0.0478139 -0.0850121 0)
(-0.0650729 -0.130118 0)
(-0.0659352 -0.16699 0)
(-0.0537682 -0.178928 0)
(-0.0303751 -0.165458 0)
(-0.00150737 -0.135585 0)
(0.0266142 -0.10425 0)
(0.056168 -0.0741691 0)
(0.0959214 -0.0397038 0)
(0.147876 0.00323796 0)
(0.1981 0.0504243 0)
(0.221782 0.0967202 0)
(0.182798 0.132827 0)
(0.0721468 0.135929 0)
(-0.100961 0.171036 0)
(-0.317925 -0.242016 0)
(1.23677 -0.00570168 0)
(0.0976051 -0.0470768 0)
(-0.00405917 -0.0209664 0)
(-0.00209699 -0.0159546 0)
(-0.0250551 -0.0614826 0)
(-0.0407881 -0.109004 0)
(-0.0473282 -0.152961 0)
(-0.0415633 -0.182663 0)
(-0.0236761 -0.188193 0)
(0.00270579 -0.170266 0)
(0.0308928 -0.139762 0)
(0.0594226 -0.108395 0)
(0.0941974 -0.0747108 0)
(0.139283 -0.0335702 0)
(0.187533 0.0145873 0)
(0.212633 0.0623639 0)
(0.185832 0.102789 0)
(0.0969461 0.116341 0)
(-0.0488306 0.157098 0)
(-0.251248 -0.215824 0)
(0.0912384 -0.0327723 0)
(0.0269204 -0.0155325 0)
(0.00918851 0.00255602 0)
(0.0174061 0.00490699 0)
(-0.00389467 -0.03675 0)
(-0.0197979 -0.0831455 0)
(-0.0281747 -0.129973 0)
(-0.0276655 -0.170269 0)
(-0.0157084 -0.193971 0)
(0.00670606 -0.193955 0)
(0.0341122 -0.172902 0)
(0.0622162 -0.142897 0)
(0.0936361 -0.109734 0)
(0.132389 -0.0702796 0)
(0.175494 -0.0224724 0)
(0.202453 0.0273475 0)
(0.184456 0.0706229 0)
(0.11412 0.0912659 0)
(-0.00174833 0.138477 0)
(-0.179923 -0.208064 0)
(0.0354058 -0.0167799 0)
(0.0268197 0.00503209 0)
(0.0197679 0.018161 0)
(0.0334705 0.019623 0)
(0.0158426 -0.0155798 0)
(-0.000490986 -0.0557315 0)
(-0.0109501 -0.101906 0)
(-0.0135278 -0.146292 0)
(-0.00700534 -0.182365 0)
(0.0103855 -0.200306 0)
(0.0356774 -0.195733 0)
(0.0634585 -0.174222 0)
(0.0926023 -0.143244 0)
(0.126069 -0.10583 0)
(0.162906 -0.059483 0)
(0.190166 -0.00792191 0)
(0.178394 0.0387806 0)
(0.123531 0.0634138 0)
(0.0319348 0.121648 0)
(-0.111486 -0.208704 0)
(0.0362504 -0.00535141 0)
(0.0299185 0.0176976 0)
(0.0229525 0.0304756 0)
(0.0475964 0.0104593 0)
(0.0329385 -0.00306551 0)
(0.0168761 -0.0328575 0)
(0.00524401 -0.0722155 0)
(-0.000414699 -0.116257 0)
(0.00201743 -0.157448 0)
(0.0138378 -0.18876 0)
(0.035352 -0.201712 0)
(0.062262 -0.194728 0)
(0.0901016 -0.172446 0)
(0.119125 -0.138498 0)
(0.149575 -0.0950566 0)
(0.173041 -0.042989 0)
(0.166808 0.00869467 0)
(0.124949 0.0355672 0)
(0.0540515 0.11068 0)
(-0.0510999 -0.213256 0)
(0.0368223 0.0044336 0)
(0.0267288 0.026977 0)
(0.0260172 0.0187721 0)
(0.0488951 0.00435761 0)
(0.0447125 -0.00337872 0)
(0.0319065 -0.017577 0)
(0.0194717 -0.0478537 0)
(0.0117469 -0.0858107 0)
(0.0104948 -0.126639 0)
(0.0173857 -0.163972 0)
(0.0336411 -0.190052 0)
(0.0578266 -0.198669 0)
(0.0850704 -0.189685 0)
(0.111342 -0.166011 0)
(0.135542 -0.127593 0)
(0.152752 -0.0780981 0)
(0.148675 -0.0230726 0)
(0.11555 0.0113684 0)
(0.0694494 0.106542 0)
(0.0105139 -0.23117 0)
(0.0247981 0.0151091 0)
(0.0195411 0.0177579 0)
(0.0382677 0.0107278 0)
(0.0454285 0.00278047 0)
(0.0494872 -0.00157404 0)
(0.0427383 -0.00968272 0)
(0.0318183 -0.0295761 0)
(0.0227355 -0.059831 0)
(0.0184593 -0.0956846 0)
(0.0209347 -0.132812 0)
(0.031631 -0.165124 0)
(0.0507282 -0.185829 0)
(0.0758193 -0.190436 0)
(0.101692 -0.179492 0)
(0.122283 -0.154949 0)
(0.132685 -0.112549 0)
(0.123576 -0.0579623 0)
(0.0936189 -0.0113461 0)
(0.0761851 0.110112 0)
(0.0489155 -0.257449 0)
(-0.00857959 0.00876167 0)
(0.0220606 0.00752243 0)
(0.045212 0.00598413 0)
(0.0407825 0.00353474 0)
(0.0497285 0.00244775 0)
(0.0484742 -0.00359732 0)
(0.0410653 -0.0171018 0)
(0.0321972 -0.0392547 0)
(0.0258157 -0.0684007 0)
(0.0243924 -0.101292 0)
(0.0297653 -0.133838 0)
(0.0428612 -0.160528 0)
(0.062813 -0.175712 0)
(0.0869322 -0.176242 0)
(0.108662 -0.1642 0)
(0.116988 -0.142689 0)
(0.103876 -0.0958466 0)
(0.069193 -0.0307942 0)
(0.0698824 0.112895 0)
(0.0821019 -0.251502 0)
(-0.0169636 -0.00096555 0)
(0.0224034 0.00274792 0)
(0.0473312 0.00291978 0)
(0.0335033 0.00608559 0)
(0.047763 0.00743178 0)
(0.0507309 0.00254613 0)
(0.0468921 -0.00773906 0)
(0.0395845 -0.0239475 0)
(0.032257 -0.0463516 0)
(0.0278014 -0.073422 0)
(0.0283298 -0.102411 0)
(0.0353241 -0.129519 0)
(0.0489141 -0.149982 0)
(0.067426 -0.159334 0)
(0.0883562 -0.15605 0)
(0.102787 -0.145951 0)
(0.0934752 -0.131277 0)
(0.0655986 -0.0650486 0)
(0.0649987 0.0579475 0)
(0.111446 -0.283618 0)
(-0.018009 -0.00206151 0)
(0.020889 0.000457388 0)
(0.047398 0.000587367 0)
(0.0230205 0.0115418 0)
(0.0441931 0.0132452 0)
(0.0512457 0.00887726 0)
(0.0503748 0.000279094 0)
(0.0449145 -0.0123817 0)
(0.0376631 -0.0295048 0)
(0.0312071 -0.0508648 0)
(0.0277264 -0.0748976 0)
(0.028923 -0.0990105 0)
(0.0357765 -0.11982 0)
(0.0475793 -0.133473 0)
(0.0619831 -0.137048 0)
(0.0778934 -0.131154 0)
(0.0839535 -0.123744 0)
(0.0609349 -0.11014 0)
(0.068025 -0.0362229 0)
(0.121385 -0.328491 0)
(-0.0183768 -0.00283539 0)
(0.0183478 -0.00124678 0)
(0.0460174 -0.00142161 0)
(0.000617549 0.0156163 0)
(0.0398439 0.0202602 0)
(0.0511188 0.0155415 0)
(0.0527025 0.00752883 0)
(0.0488771 -0.00315561 0)
(0.0421533 -0.0167912 0)
(0.0346677 -0.0336018 0)
(0.0282553 -0.0529318 0)
(0.0245037 -0.0730048 0)
(0.0246996 -0.0913021 0)
(0.0293187 -0.105009 0)
(0.0368954 -0.111723 0)
(0.0445136 -0.110668 0)
(0.0555902 -0.100702 0)
(0.0527857 -0.0815853 0)
(0.0259781 -0.106403 0)
(0.0955764 -0.348491 0)
(-0.0165131 -0.00352269 0)
(0.0168262 -0.00278421 0)
(0.0430954 -0.00343815 0)
(-0.021663 0.00977377 0)
(0.0331347 0.0244611 0)
(0.0513753 0.0223704 0)
(0.0548665 0.0141906 0)
(0.0522888 0.00454017 0)
(0.0461103 -0.00702038 0)
(0.038237 -0.0206718 0)
(0.0299972 -0.036339 0)
(0.022538 -0.0528662 0)
(0.017012 -0.0681678 0)
(0.0143236 -0.0797896 0)
(0.0145856 -0.0859447 0)
(0.0160733 -0.0869443 0)
(0.014659 -0.0813456 0)
(0.0208123 -0.0522796 0)
(-0.00778946 -0.010898 0)
(-0.0321323 -0.321497 0)
(-0.0141244 -0.00436744 0)
(0.0160069 -0.00475328 0)
(0.0378885 -0.00622272 0)
(-0.0354182 0.00901042 0)
(0.0264932 0.0216846 0)
(0.0520821 0.0264259 0)
(0.057768 0.0199614 0)
(0.0557521 0.0108397 0)
(0.0500292 0.000688831 0)
(0.0419959 -0.0109454 0)
(0.0328066 -0.0240287 0)
(0.0229623 -0.0380202 0)
(0.0131815 -0.0511501 0)
(0.00439426 -0.0610273 0)
(-0.00294384 -0.0653003 0)
(-0.00840355 -0.064726 0)
(-0.0133743 -0.0616187 0)
(-0.0270266 -0.0407419 0)
(-0.0403303 0.0666196 0)
(-0.100105 -0.276764 0)
(-0.0105819 -0.00576495 0)
(0.0159403 -0.00814452 0)
(0.0308675 -0.0130984 0)
(-0.0477085 0.00989667 0)
(0.0198473 0.0180602 0)
(0.0532542 0.0249845 0)
(0.0617723 0.0230305 0)
(0.0599015 0.0155209 0)
(0.0541709 0.00660207 0)
(0.0460429 -0.00355239 0)
(0.0364199 -0.014815 0)
(0.0252902 -0.0270746 0)
(0.01275 -0.0390082 0)
(-0.000497148 -0.0482446 0)
(-0.0135078 -0.0524739 0)
(-0.0252738 -0.0515719 0)
(-0.0339459 -0.0481589 0)
(-0.0439662 -0.0338944 0)
(-0.0727015 0.0365458 0)
(-0.0984544 -0.262352 0)
(-0.00593867 -0.00814875 0)
(0.0210012 -0.014891 0)
(0.0067811 -0.0202547 0)
(-0.0581394 0.0112571 0)
(0.0160487 0.0160355 0)
(0.0547295 0.0205901 0)
(0.0665593 0.0215612 0)
(0.0650032 0.0175013 0)
(0.0587756 0.0105333 0)
(0.0505224 0.00203773 0)
(0.0405616 -0.00784048 0)
(0.0288854 -0.018744 0)
(0.0147598 -0.029991 0)
(-0.00149783 -0.0394331 0)
(-0.0187449 -0.0446787 0)
(-0.035891 -0.0447877 0)
(-0.0506406 -0.0417186 0)
(-0.0612604 -0.0304194 0)
(-0.0859858 0.0518842 0)
(-0.111478 -0.268004 0)
(0.00819175 -0.0135649 0)
(0.0233912 -0.0254616 0)
(-0.00591589 -0.000100211 0)
(-0.082978 0.00601392 0)
(0.0154143 0.0179465 0)
(0.0581877 0.0144274 0)
(0.071793 0.0161812 0)
(0.0707184 0.0155736 0)
(0.0639107 0.0118586 0)
(0.0552147 0.00562724 0)
(0.0450153 -0.0026376 0)
(0.0331532 -0.0122172 0)
(0.0182836 -0.0227836 0)
(-4.8321e-06 -0.0325945 0)
(-0.0205397 -0.0390117 0)
(-0.0420898 -0.0409323 0)
(-0.0624199 -0.0399214 0)
(-0.078582 -0.0302435 0)
(-0.097233 0.0711979 0)
(-0.12817 -0.260504 0)
(0.0221529 -0.0191623 0)
(0.0321612 -0.0260515 0)
(-0.0503516 0.0406514 0)
(-0.175891 -0.0148008 0)
(0.0367217 0.00281451 0)
(0.0654715 0.00505181 0)
(0.0779876 0.00746125 0)
(0.076568 0.00969382 0)
(0.0692038 0.00984449 0)
(0.059974 0.0068437 0)
(0.0496378 0.000922227 0)
(0.0376185 -0.00711045 0)
(0.0225335 -0.0167145 0)
(0.00305469 -0.0265589 0)
(-0.020052 -0.034115 0)
(-0.0451561 -0.0379938 0)
(-0.069932 -0.0398527 0)
(-0.0915288 -0.031293 0)
(-0.108701 0.071158 0)
(-0.133787 -0.254193 0)
(0.0369239 -0.0174887 0)
(0.0545563 -0.00926911 0)
(-0.185164 0.072275 0)
(0.0505508 -0.0369325 0)
(0.0758535 -0.0125495 0)
(0.0854771 -0.00460853 0)
(0.0824624 0.000336934 0)
(0.0740507 0.00435478 0)
(0.0643573 0.00532498 0)
(0.0539935 0.00250404 0)
(0.041915 -0.00339697 0)
(0.0268953 -0.0115147 0)
(0.00684872 -0.0209495 0)
(-0.0181245 -0.0292762 0)
(-0.0460433 -0.0349198 0)
(-0.0742568 -0.0396046 0)
(-0.0997369 -0.0325427 0)
(-0.11856 0.0592527 0)
(-0.135754 -0.250724 0)
(0.0523569 -0.00538657 0)
(-0.0765346 0.0530106 0)
(0.0680269 0.0897958 0)
(0.0748649 -0.0342844 0)
(0.0913792 -0.0175282 0)
(0.0881365 -0.0114079 0)
(0.0777909 -0.00428842 0)
(0.0675572 0.00114088 0)
(0.0575762 0.00194972 0)
(0.045735 -0.00128069 0)
(0.0308588 -0.00728435 0)
(0.0107008 -0.0155712 0)
(-0.0154771 -0.0241147 0)
(-0.0455381 -0.0311083 0)
(-0.0763873 -0.038246 0)
(-0.104713 -0.033183 0)
(-0.126911 0.0468867 0)
(-0.142391 -0.248196 0)
(-0.0213397 0.0256503 0)
(0.140528 0.135556 0)
(0.0624399 -0.0429515 0)
(0.0933422 -0.0262045 0)
(0.0943363 -0.0237361 0)
(0.0806295 -0.0155522 0)
(0.0684237 -0.00525706 0)
(0.0595863 -0.000295939 0)
(0.048748 -0.00083408 0)
(0.0340521 -0.00442389 0)
(0.0139782 -0.0106325 0)
(-0.0128253 -0.0184876 0)
(-0.0443616 -0.0261798 0)
(-0.0771159 -0.0352776 0)
(-0.107762 -0.0326998 0)
(-0.134615 0.038161 0)
(-0.156123 -0.243886 0)
(-0.158155 0.208411 0)
(0.126764 -0.0459536 0)
(0.0840773 -0.0189222 0)
(0.0990085 -0.0304821 0)
(0.0853494 -0.0297575 0)
(0.0660314 -0.0136244 0)
(0.0589354 -0.00311586 0)
(0.0505364 -0.00133876 0)
(0.0363103 -0.00320588 0)
(0.0161624 -0.00678676 0)
(-0.0109261 -0.0125396 0)
(-0.0432467 -0.0199173 0)
(-0.0771182 -0.0303507 0)
(-0.109651 -0.0307765 0)
(-0.14206 0.0328504 0)
(-0.17514 -0.236293 0)
(-0.283746 0.137596 0)
(0.173265 0.010328 0)
(0.0950808 -0.0167772 0)
(0.0849451 -0.0434187 0)
(0.0587798 -0.0249107 0)
(0.0532957 -0.00460894 0)
(0.0504554 -0.000676504 0)
(0.0377294 -0.00279946 0)
(0.0169817 -0.00461627 0)
(-0.0105021 -0.00672568 0)
(-0.0429357 -0.0123047 0)
(-0.0770142 -0.0232699 0)
(-0.110888 -0.0271542 0)
(-0.149187 0.0305271 0)
(-0.196865 -0.225337 0)
(-0.284154 0.185499 0)
(0.237837 0.0353211 0)
(0.0889537 -0.0503413 0)
(0.0211557 -0.0240078 0)
(0.0357372 0.00162369 0)
(0.0453279 0.00626597 0)
(0.038109 -8.80405e-05 0)
(0.0162113 -0.00296161 0)
(-0.0127654 -0.00116077 0)
(-0.0441184 -0.00357325 0)
(-0.0772775 -0.0140877 0)
(-0.111869 -0.021696 0)
(-0.155573 0.0313625 0)
(-0.21905 -0.211851 0)
(-0.538537 0.25696 0)
(0.278549 0.0409735 0)
(-0.0205793 0.0903749 0)
(-0.0236806 0.0557055 0)
(0.0310212 0.0291545 0)
(0.0327 0.0136833 0)
(0.00998633 0.00321205 0)
(-0.0207606 0.00567978 0)
(-0.0481349 0.00584605 0)
(-0.0780532 -0.00323154 0)
(-0.112839 -0.0144424 0)
(-0.160522 0.0352823 0)
(-0.239516 -0.197096 0)
(-0.739445 0.332386 0)
(-0.0320004 0.178081 0)
(-0.038115 0.1301 0)
(-0.00467313 0.0848483 0)
(0.0234 0.0468807 0)
(-0.000310837 0.0247613 0)
(-0.0315924 0.0163702 0)
(-0.0548798 0.0158194 0)
(-0.0795663 0.00847635 0)
(-0.113626 -0.00547853 0)
(-0.163326 0.0413998 0)
(-0.256149 -0.18217 0)
(-0.630986 0.320409 0)
(-0.0590262 0.166033 0)
(-0.00929171 0.171435 0)
(0.0134645 0.100041 0)
(-0.00443982 0.055057 0)
(-0.0425098 0.0334146 0)
(-0.0641932 0.028097 0)
(-0.0818426 0.0208024 0)
(-0.113512 0.00563933 0)
(-0.163369 0.0477597 0)
(-0.267188 -0.16749 0)
(-0.539398 0.15998 0)
(0.0577031 0.17253 0)
(0.0162974 0.176528 0)
(0.00168834 0.0914718 0)
(-0.0496315 0.0533974 0)
(-0.0764176 0.0443207 0)
(-0.0839317 0.0349373 0)
(-0.111281 0.0181004 0)
(-0.159944 0.0503864 0)
(-0.271512 -0.152657 0)
(-0.496792 0.00110886 0)
(0.147568 0.182463 0)
(0.0211424 0.14222 0)
(-0.0432234 0.070984 0)
(-0.0933397 0.0628683 0)
(-0.0851941 0.0523194 0)
(-0.105298 0.0317078 0)
(-0.152962 0.0492645 0)
(-0.268873 -0.136802 0)
(-0.324985 0.069556 0)
(0.175748 0.1588 0)
(-0.0126759 0.0886822 0)
(-0.109132 0.0800115 0)
(-0.0881153 0.073795 0)
(-0.0938241 0.0469906 0)
(-0.140668 0.0478707 0)
(-0.261014 -0.121672 0)
(-0.294467 0.142601 0)
(0.149479 0.133962 0)
(-0.108968 0.0967307 0)
(-0.0902386 0.10001 0)
(-0.0760637 0.0640917 0)
(-0.121668 0.0464086 0)
(-0.250239 -0.108842 0)
(-0.420125 0.213474 0)
(-0.1245 0.136506 0)
(-0.0620396 0.123866 0)
(-0.0506442 0.0852267 0)
(-0.0941645 0.0423635 0)
(-0.237689 -0.0970469 0)
(-0.547016 0.194908 0)
(-0.0371793 0.107433 0)
(0.00241212 0.115131 0)
(-0.0542339 0.0323101 0)
(-0.223476 -0.0852601 0)
(-0.586386 -0.0200292 0)
(0.138837 0.115236 0)
(0.014401 0.0218552 0)
(-0.201482 -0.0695702 0)
(-0.341218 0.0348922 0)
(0.168742 0.0477557 0)
(-0.164104 -0.0359725 0)
(-0.343323 0.102399 0)
(-0.171827 0.0244771 0)
(-0.564396 0.094745 0)
)
;

boundaryField
{
    floor
    {
        type            noSlip;
    }
    ceiling
    {
        type            noSlip;
    }
    sWall
    {
        type            noSlip;
    }
    nWall
    {
        type            noSlip;
    }
    sideWalls
    {
        type            empty;
    }
    glass1
    {
        type            noSlip;
    }
    glass2
    {
        type            noSlip;
    }
    sun
    {
        type            noSlip;
    }
    Table_master
    {
        type            noSlip;
    }
    Table_slave
    {
        type            noSlip;
    }
    inlet
    {
        type            fixedValue;
        value           uniform (0.5 0 0);
    }
    outlet
    {
        type            zeroGradient;
    }
}


// ************************************************************************* //
