/*--------------------------------*- C++ -*----------------------------------*\
  =========                 |
  \\      /  F ield         | OpenFOAM: The Open Source CFD Toolbox
   \\    /   O peration     | Website:  https://openfoam.org
    \\  /    A nd           | Version:  6
     \\/     M anipulation  |
\*---------------------------------------------------------------------------*/
FoamFile
{
    version     2.0;
    format      ascii;
    class       volScalarField;
    location    "30";
    object      k;
}
// * * * * * * * * * * * * * * * * * * * * * * * * * * * * * * * * * * * * * //

dimensions      [0 2 -2 0 0 0 0];

internalField   nonuniform List<scalar> 
458
(
0.00442743
0.00556155
0.00626141
0.00709112
0.00800455
0.00903291
0.0100102
0.0108058
0.0111124
0.0104488
0.00955408
0.008497
0.00732989
0.0062767
0.0051793
0.000524093
0.000888826
0.00108089
0.00112966
0.000970661
0.000640875
0.000463884
0.000390311
0.000365434
0.000358583
0.000358833
0.000366433
0.000392691
0.000466843
0.00062427
0.000689419
0.000622895
0.000477745
0.00630266
0.0109254
0.00894537
0.00994031
0.0113638
0.013136
0.0149928
0.016618
0.0174992
0.0168292
0.0153832
0.013662
0.0118493
0.00988127
0.00743728
0.00641785
0.00517038
0.00365352
0.00111049
0.00211671
0.00247216
0.00249606
0.0021506
0.00136045
0.000885053
0.000682071
0.000609917
0.000589253
0.000589973
0.000612542
0.00068899
0.000905055
0.00133756
0.00153277
0.00149359
0.000815844
0.00807075
0.016601
0.00986517
0.0101821
0.0114254
0.0130865
0.0144653
0.0158469
0.0171576
0.0172087
0.0161991
0.0146972
0.0131231
0.0113549
0.0093184
0.00778116
0.00636592
0.00431012
0.00158166
0.00289375
0.00331051
0.00332786
0.00290366
0.00134943
0.000600183
0.000414085
0.000371087
0.000362003
0.000362619
0.00037504
0.000440323
0.000800513
0.0018752
0.00219607
0.00216343
0.00124148
0.009995
0.0245
0.0114381
0.0105435
0.0117002
0.0131263
0.013822
0.0151483
0.0166793
0.0171302
0.0162456
0.0147034
0.0130952
0.0115166
0.00985448
0.00830661
0.00677346
0.00482667
0.00396338
0.00319072
0.00349062
0.00400393
0.00411726
0.00376073
0.00230674
0.00180666
0.00169836
0.00167098
0.00167604
0.0016985
0.00173652
0.00179649
0.00197678
0.00275642
0.00304134
0.00298658
0.00191608
0.0122414
0.0353635
0.0155582
0.0122652
0.0136295
0.0141608
0.0142768
0.0156652
0.0174031
0.0178914
0.0167349
0.0147741
0.0128357
0.0111731
0.00970619
0.00832271
0.00689241
0.00539766
0.00462176
0.0041735
0.00454425
0.00497636
0.00502069
0.00476604
0.00431716
0.00398455
0.00382488
0.00375361
0.00373017
0.00373514
0.00376162
0.00380883
0.00388526
0.00398748
0.00400932
0.00387799
0.00323411
0.0024671
0.00194219
0.00138452
0.0149874
0.0473779
0.0247519
0.0171155
0.0171536
0.0157851
0.0155898
0.0172085
0.0191623
0.019478
0.017688
0.0149799
0.0124912
0.0105962
0.00925136
0.00809885
0.00691449
0.00582675
0.00534259
0.00530732
0.0056722
0.00585966
0.00575145
0.00549252
0.00519882
0.00497089
0.0048325
0.00475556
0.00471809
0.00470597
0.00471061
0.0047249
0.00474002
0.00473677
0.00468632
0.00455739
0.00426766
0.00372414
0.00364433
0.00207583
0.0171911
0.0545869
0.0370751
0.0266122
0.0209376
0.0176219
0.0174533
0.0196051
0.0217822
0.0215766
0.0186424
0.0148762
0.0116842
0.00984476
0.00875936
0.00789312
0.00704244
0.00637197
0.00628527
0.00646845
0.00663939
0.00655444
0.00630628
0.00602858
0.00578833
0.00561236
0.00549663
0.00542357
0.0053781
0.00535083
0.00533201
0.0053113
0.0052757
0.00520697
0.0050789
0.00485379
0.00449852
0.00404426
0.00396913
0.00233178
0.0177042
0.0480219
0.037154
0.0280186
0.0212531
0.0185839
0.0198079
0.0229716
0.0250605
0.023446
0.0183687
0.0136367
0.0107435
0.00929855
0.00852484
0.00799049
0.00755435
0.00731943
0.00737923
0.00745796
0.00735351
0.00706552
0.00674224
0.00647013
0.00626942
0.00613111
0.0060379
0.00597389
0.0059266
0.00588833
0.00584654
0.00578692
0.00569255
0.005539
0.00526765
0.00476178
0.0040392
0.0035789
0.00358749
0.00228145
0.0168086
0.0233683
0.0210906
0.0182488
0.0168769
0.0189756
0.0235224
0.0275768
0.0279775
0.0225739
0.0159334
0.0119133
0.00997187
0.0090886
0.00868866
0.008494
0.00839353
0.0083759
0.00836065
0.00820969
0.00790274
0.00753591
0.0072224
0.00700192
0.00686149
0.00677347
0.00671532
0.00667209
0.00663195
0.00658806
0.00652061
0.00640581
0.0062188
0.00593197
0.00543465
0.00454244
0.00350672
0.0030433
0.00305384
0.00312942
0.00419864
0.0081914
0.0173561
0.0264215
0.0317993
0.0311482
0.0237202
0.0165053
0.0123221
0.0103533
0.00948039
0.00915775
0.00910724
0.00916734
0.00924201
0.00926253
0.00914248
0.00888531
0.00858047
0.00833195
0.00819217
0.00814725
0.00815542
0.00818145
0.00820659
0.00822198
0.00821804
0.00818053
0.00809277
0.00791746
0.00763286
0.00721338
0.00668294
0.00608833
0.0054705
0.0048853
0.00435246
0.0038536
0.00876568
0.0489551
0.0484377
0.0405402
0.0317146
0.0229637
0.0161516
0.0121999
0.0101111
0.00906595
0.008558
0.0083413
0.00828739
0.00831728
0.00838078
0.00845774
0.00856847
0.00878353
0.00916937
0.00971465
0.0103285
0.0109021
0.0113713
0.0117265
0.0119867
0.0121756
0.0123062
0.0123706
0.0123329
0.0121305
0.0116643
0.0108804
0.00977617
0.00852939
0.00758228
0.00728616
0.00769099
0.00523418
0.0110955
0.0122432
0.0133111
0.0177792
0.0138797
0.0107276
0.00895233
0.0075179
0.00638783
0.0056741
0.00529549
0.00512025
0.00505702
0.00504909
0.0050608
0.00506691
0.00504908
0.00499652
0.00491316
0.00483134
0.00478007
0.00476606
0.00477766
0.0047993
0.00482033
0.00483614
0.00484609
0.00485094
0.00485116
0.00484637
0.00483469
0.00481003
0.00476417
0.00467445
0.00450109
0.00421929
0.00384015
0.0033778
0.00319544
0.00315303
)
;

boundaryField
{
    floor
    {
        type            kqRWallFunction;
        value           nonuniform List<scalar> 
36
(
0.0051793
0.000524093
0.000888826
0.00108089
0.00112966
0.000970661
0.000640875
0.000463884
0.000390311
0.000365434
0.000358583
0.000358833
0.000366433
0.000392691
0.000466843
0.00062427
0.000689419
0.000622895
0.000477745
0.000477745
0.000815844
0.00124148
0.00191608
0.0024671
0.00194219
0.00138452
0.0051793
0.00641785
0.00517038
0.00365352
0.000524093
0.00365352
0.00111049
0.00431012
0.00158166
0.00396338
)
;
    }
    ceiling
    {
        type            kqRWallFunction;
        value           nonuniform List<scalar> 
43
(
0.0110955
0.0122432
0.0133111
0.0177792
0.0138797
0.0107276
0.00895233
0.0075179
0.00638783
0.0056741
0.00529549
0.00512025
0.00505702
0.00504909
0.0050608
0.00506691
0.00504908
0.00499652
0.00491316
0.00483134
0.00478007
0.00476606
0.00477766
0.0047993
0.00482033
0.00483614
0.00484609
0.00485094
0.00485116
0.00484637
0.00483469
0.00481003
0.00476417
0.00467445
0.00450109
0.00421929
0.00384015
0.0033778
0.00319544
0.00315303
0.0168086
0.0233683
0.00876568
)
;
    }
    sWall
    {
        type            kqRWallFunction;
        value           uniform 0.0110955;
    }
    nWall
    {
        type            kqRWallFunction;
        value           nonuniform List<scalar> 6(0.00138452 0.00207583 0.00233178 0.0038536 0.00523418 0.00315303);
    }
    sideWalls
    {
        type            empty;
    }
    glass1
    {
        type            kqRWallFunction;
        value           nonuniform List<scalar> 9(0.00442743 0.00630266 0.00807075 0.009995 0.0122414 0.0149874 0.0171911 0.0177042 0.0168086);
    }
    glass2
    {
        type            kqRWallFunction;
        value           nonuniform List<scalar> 2(0.00228145 0.00312942);
    }
    sun
    {
        type            kqRWallFunction;
        value           nonuniform List<scalar> 
14
(
0.00442743
0.00556155
0.00626141
0.00709112
0.00800455
0.00903291
0.0100102
0.0108058
0.0111124
0.0104488
0.00955408
0.008497
0.00732989
0.0062767
)
;
    }
    Table_master
    {
        type            kqRWallFunction;
        value           nonuniform List<scalar> 9(0.00134943 0.000600183 0.000414085 0.000371087 0.000362003 0.000362619 0.00037504 0.000440323 0.000800513);
    }
    Table_slave
    {
        type            kqRWallFunction;
        value           nonuniform List<scalar> 9(0.00230674 0.00180666 0.00169836 0.00167098 0.00167604 0.0016985 0.00173652 0.00179649 0.00197678);
    }
    inlet
    {
        type            turbulentIntensityKineticEnergyInlet;
        intensity       0.05;
        value           uniform 0.0009375;
    }
    outlet
    {
        type            zeroGradient;
    }
}


// ************************************************************************* //
