/*--------------------------------*- C++ -*----------------------------------*\
  =========                 |
  \\      /  F ield         | OpenFOAM: The Open Source CFD Toolbox
   \\    /   O peration     | Website:  https://openfoam.org
    \\  /    A nd           | Version:  6
     \\/     M anipulation  |
\*---------------------------------------------------------------------------*/
FoamFile
{
    version     2.0;
    format      ascii;
    class       volScalarField;
    location    "30";
    object      nut;
}
// * * * * * * * * * * * * * * * * * * * * * * * * * * * * * * * * * * * * * //

dimensions      [0 2 -1 0 0 0 0];

internalField   nonuniform List<scalar> 
458
(
0.00149416
0.00167466
0.00177694
0.00189103
0.00200914
0.00213431
0.00224678
0.00233428
0.002367
0.00229511
0.00219457
0.00206956
0.00192218
0.00177875
0.00161584
0.000513793
0.000669001
0.000737777
0.000754285
0.0006992
0.000568099
0.000483293
0.000443281
0.000428902
0.000424854
0.000425
0.000429477
0.000444599
0.00048476
0.000560574
0.000589121
0.000560017
0.000490542
0.00178271
0.00460716
0.00490993
0.00583036
0.00669021
0.0073248
0.00793447
0.00858422
0.00927962
0.00950963
0.00930473
0.0087802
0.00777553
0.00597412
0.00382916
0.00179896
0.00161485
0.00135782
0.000747884
0.00302207
0.00399321
0.00413561
0.00345239
0.00190511
0.00143239
0.0012131
0.00112036
0.00108993
0.00109075
0.00112206
0.00121439
0.00146241
0.0022471
0.00260155
0.00234047
0.000641032
0.00201732
0.00645067
0.00629897
0.00703017
0.00744927
0.00770052
0.00797973
0.00864078
0.00976571
0.0105761
0.0109429
0.0108993
0.0104352
0.00904913
0.00688214
0.00454031
0.00333244
0.00147478
0.000892471
0.00375259
0.00540716
0.00582227
0.0045546
0.000824418
0.000549789
0.000456605
0.000432214
0.000426879
0.00042724
0.000434497
0.000470797
0.00063477
0.00285645
0.00376568
0.00333702
0.000790797
0.00224499
0.00794444
0.00690217
0.00742442
0.00737965
0.00718707
0.00716033
0.00789695
0.00915926
0.0103136
0.0110345
0.0113237
0.0112168
0.0104476
0.00880495
0.00660746
0.00473174
0.00247035
0.00141443
0.00161522
0.00312496
0.00565013
0.00692644
0.00564544
0.00107784
0.000953816
0.000924755
0.000917265
0.000918677
0.000924841
0.000935161
0.000951192
0.000997742
0.00348984
0.00493772
0.00437168
0.000982395
0.00248455
0.0096466
0.00772059
0.00798988
0.00758962
0.00690017
0.00673387
0.00753548
0.00893015
0.0102599
0.0111396
0.0115648
0.011609
0.0111362
0.00986584
0.00791662
0.00587799
0.00371594
0.00261605
0.00286594
0.00453403
0.00698027
0.00857842
0.00845032
0.00672816
0.00627038
0.00612487
0.00606949
0.00605216
0.00605703
0.00607679
0.00611164
0.00621417
0.00699174
0.00719068
0.00634544
0.00367773
0.00111475
0.00098916
0.000835229
0.00274923
0.0114701
0.00955721
0.00889576
0.00778519
0.00674743
0.00659877
0.00755699
0.00913254
0.0106006
0.011556
0.0120402
0.0121532
0.0117516
0.0105633
0.00874384
0.00676142
0.00482362
0.00397423
0.00470165
0.00668114
0.00889507
0.0102907
0.0105283
0.00995415
0.0095645
0.00936171
0.0092538
0.00918826
0.00914627
0.0091127
0.00907177
0.00901249
0.00894445
0.00852477
0.00761618
0.0061909
0.00446871
0.0035104
0.00102275
0.0029446
0.0124705
0.0114382
0.00954837
0.00763518
0.00644651
0.00655655
0.0078532
0.00967676
0.0112453
0.0122165
0.01277
0.0130463
0.012404
0.0111145
0.00943606
0.00769322
0.00613302
0.00586903
0.00712354
0.0090671
0.0107477
0.0116542
0.0117875
0.0114798
0.0111628
0.0109381
0.0107849
0.0106598
0.0105492
0.0104341
0.0102804
0.0100209
0.00953447
0.0086438
0.00733852
0.00584528
0.00459894
0.00382947
0.00108401
0.00298825
0.00996011
0.00941067
0.00778343
0.00623016
0.00575261
0.00661694
0.00847327
0.0105243
0.0120325
0.0129251
0.0134904
0.0135498
0.012842
0.0116703
0.0103368
0.00908543
0.00819152
0.00835898
0.00961618
0.011045
0.0119591
0.0122336
0.0120597
0.0117084
0.0113814
0.0111318
0.010944
0.01078
0.0106209
0.0104547
0.0102414
0.00987354
0.00913659
0.00781488
0.00594091
0.00397547
0.00268579
0.00216334
0.00107228
0.00291171
0.00343326
0.00369232
0.00366677
0.00390278
0.00509921
0.00722482
0.00965627
0.0115549
0.0126276
0.0132031
0.0136902
0.0136229
0.0130267
0.0122235
0.0114188
0.0107501
0.0103931
0.0106335
0.0113299
0.0118659
0.0119237
0.0115985
0.0111305
0.0106951
0.0103565
0.0101074
0.00991905
0.00976214
0.00960654
0.00945189
0.00927413
0.00896628
0.00823346
0.00675435
0.00461664
0.00275025
0.00187658
0.00153621
0.00125617
0.000827232
0.00180785
0.00430817
0.00734352
0.00988297
0.0115101
0.0122083
0.0122619
0.0125908
0.0127319
0.0125595
0.0122515
0.0119384
0.0116559
0.0114292
0.0113014
0.0112982
0.0112742
0.0109826
0.0104293
0.00981904
0.00931485
0.00895599
0.00871273
0.00854395
0.00841765
0.0083126
0.00821274
0.00810027
0.00796999
0.00778151
0.00748093
0.00691323
0.00592647
0.0047186
0.00373221
0.00310988
0.00139393
0.0021033
0.00841952
0.0109445
0.0114844
0.0112866
0.0106575
0.0100736
0.00965704
0.00932447
0.00904003
0.00885295
0.00876189
0.00873065
0.00871872
0.0086976
0.00865011
0.0085569
0.00839218
0.00815998
0.00793497
0.00778216
0.00770473
0.0076735
0.00766225
0.00765649
0.00764909
0.00763472
0.00760646
0.00755321
0.0074572
0.00729794
0.00705132
0.00668364
0.00615024
0.00552893
0.00503013
0.00430614
0.00162456
0.00236588
0.00248525
0.00259138
0.00299471
0.00264574
0.00232577
0.00212439
0.00194656
0.00179415
0.00169086
0.00163343
0.00160616
0.00159621
0.00159498
0.00159686
0.00159788
0.00159515
0.00158692
0.00157372
0.00156063
0.00155237
0.00155011
0.00155202
0.00155556
0.00155899
0.00156156
0.00156318
0.00156398
0.00156402
0.00156325
0.00156136
0.00155737
0.00154991
0.00153522
0.00150643
0.00145846
0.00139138
0.00130496
0.0012693
0.00126096
)
;

boundaryField
{
    floor
    {
        type            nutkWallFunction;
        Cmu             0.09;
        kappa           0.41;
        E               9.8;
        value           nonuniform List<scalar> 
36
(
0.000191169
6.14789e-05
8.09608e-05
8.94047e-05
9.14121e-05
8.46723e-05
6.83707e-05
5.75845e-05
5.24175e-05
5.05476e-05
5.00201e-05
5.00395e-05
5.06241e-05
5.25929e-05
5.77824e-05
6.74364e-05
7.10266e-05
6.73585e-05
5.85053e-05
5.85052e-05
7.74857e-05
9.58388e-05
0.000118744
0.000134258
0.000119532
0.000101188
0.000191169
0.000211452
0.000191024
0.000162052
6.14789e-05
0.000162052
9.06287e-05
0.00017529
0.000108077
0.000168458
)
;
    }
    ceiling
    {
        type            nutkWallFunction;
        Cmu             0.09;
        kappa           0.41;
        E               9.8;
        value           nonuniform List<scalar> 
43
(
0.000272747
0.000285477
0.000296743
0.000339363
0.000302809
0.000268779
0.000247107
0.000227777
0.000211052
0.000199626
0.00019324
0.000190198
0.000189087
0.000188947
0.000189155
0.000189263
0.000188949
0.000188018
0.000186531
0.000185057
0.000184127
0.000183872
0.000184083
0.000184477
0.000184858
0.000185144
0.000185324
0.000185412
0.000185416
0.000185329
0.000185118
0.000184671
0.000183837
0.000182192
0.000178963
0.000173563
0.000165971
0.000156126
0.000152037
0.000151068
0.000330898
0.000385079
0.000244197
)
;
    }
    sWall
    {
        type            nutkWallFunction;
        Cmu             0.09;
        kappa           0.41;
        E               9.8;
        value           uniform 0.000272816;
    }
    nWall
    {
        type            nutkWallFunction;
        Cmu             0.09;
        kappa           0.41;
        E               9.8;
        value           nonuniform List<scalar> 6(0.000101189 0.000123476 0.000130648 0.000166259 0.000192201 0.000151077);
    }
    sideWalls
    {
        type            empty;
    }
    glass1
    {
        type            nutkWallFunction;
        Cmu             0.09;
        kappa           0.41;
        E               9.8;
        value           nonuniform List<scalar> 9(0.000177723 0.000209934 0.000235701 0.000260396 0.000286093 0.000314178 0.000334719 0.000339299 0.00033129);
    }
    glass2
    {
        type            nutkWallFunction;
        Cmu             0.09;
        kappa           0.41;
        E               9.8;
        value           nonuniform List<scalar> 2(0.000129282 0.000150547);
    }
    sun
    {
        type            nutkWallFunction;
        Cmu             0.09;
        kappa           0.41;
        E               9.8;
        value           nonuniform List<scalar> 
14
(
0.000177514
0.00019768
0.000209
0.000221547
0.000234453
0.000248041
0.000260181
0.000269587
0.000273111
0.00026542
0.000254607
0.000241081
0.000225014
0.000209248
)
;
    }
    Table_master
    {
        type            nutkWallFunction;
        Cmu             0.09;
        kappa           0.41;
        E               9.8;
        value           nonuniform List<scalar> 9(9.99061e-05 6.60542e-05 5.41399e-05 5.09754e-05 5.02807e-05 5.03282e-05 5.12746e-05 5.59807e-05 7.67328e-05);
    }
    Table_slave
    {
        type            nutkWallFunction;
        Cmu             0.09;
        kappa           0.41;
        E               9.8;
        value           nonuniform List<scalar> 9(0.000129963 0.000115378 0.000111932 0.000111041 0.000111207 0.000111937 0.00011316 0.00011506 0.000120567);
    }
    inlet
    {
        type            calculated;
        value           uniform 0.000167705;
    }
    outlet
    {
        type            calculated;
        value           nonuniform List<scalar> 2(0.00236588 0.00248525);
    }
}


// ************************************************************************* //
