/*--------------------------------*- C++ -*----------------------------------*=========                 |
  \      /  F ield         | OpenFOAM: The Open Source CFD Toolbox
   \    /   O peration     | Website:  https://openfoam.org
    \  /    A nd           | Version:  6
     \/     M anipulation  |
\*---------------------------------------------------------------------------*/
FoamFile
{
    version     2.0;
    format      ascii;
    class       volScalarField;
    location    "30";
    object      PMV;
}
// * * * * * * * * * * * * * * * * * * * * * * * * * * * * * * * * * * * * * //

dimensions      [0 0 0 0 0 0 0];

internalField   nonuniform List<scalar> 
458
(
1.7855819854300696
1.5542704356425987
1.4929246794808892
1.45503228215958
1.4351844802921814
1.430862879785431
1.4412458129666876
1.4728613815707656
1.5348511344907674
1.5489766040861872
1.5435926661840231
1.5535847299838634
1.5819966280519124
1.642165593328119
1.71108942429361
2.8306080759105896
2.8371599534340195
2.839002557801995
2.8394631312810668
2.8394631312810668
2.839002557801995
2.8385419532047877
2.8385419532047877
2.8385419532047877
2.8385419532047877
2.8385419532047877
2.8385419532047877
2.8385419532047877
2.8385419532047877
2.8385419532047877
2.8380813175626045
2.8362384659947337
2.832444690923281
1.7731544200947795
1.6024774020176331
1.563349501850166
1.5301796548354494
1.5082201638795376
1.4879603386172515
1.4520767523292253
1.4159345129665108
1.4439797656525952
1.5105475012058114
1.5588547021868624
1.5952255756149136
1.625778778871625
1.6562595464402787
1.6868148276874033
1.7380850587714096
1.8736391474264036
2.1117749365604377
2.831416141725103
2.8380813175626045
2.839923673568638
2.8413051125434214
2.84222591454198
2.8426862681207665
2.843146589985006
2.843146589985006
2.843146589985006
2.843146589985006
2.843146589985006
2.843146589985006
2.843146589985006
2.8426862681207665
2.84222591454198
2.84222591454198
2.8413051125434214
2.831467304387503
1.8100729635173507
1.6414431156817682
1.6456091084156603
1.6391936594364591
1.6233487351775948
1.5702534642255899
1.4457381621022598
1.3355588608758708
1.3617932708018063
1.4666349678667592
1.572924299757812
1.6513349131123203
1.7006507623335914
1.7286984461198187
1.7526347062230558
1.8076464618373371
1.9114367726776977
2.081325317182641
2.8147196962976104
2.8237865990200133
2.8339342116634736
2.8394631312810668
2.84222591454198
2.8436068800587684
2.8445273645288
2.8445273645288
2.8449875587712627
2.8449875587712627
2.8449875587712627
2.8449875587712627
2.8445273645288
2.8440671382655798
2.8440671382655798
2.8436068800587684
2.843146589985006
2.8315404842592566
1.8838260231081294
1.687629578170671
1.7278137002049263
1.7714699828981986
1.7806177593625274
1.6554955219114253
1.4214004017182231
1.2626203313280036
1.2979684451841773
1.443598544168399
1.6046292300190146
1.730812762225634
1.8076176886103905
1.8429796192084
1.86030086260263
1.8949279639120953
1.9596586642277305
2.0748589070858623
2.2202021276777018
2.564177808912975
2.7406703330710225
2.8122382948789015
2.833473269522857
2.8403841845910023
2.843146589985006
2.8440671382655798
2.8445273645288
2.8445273645288
2.8445273645288
2.8445273645288
2.8449875587712627
2.8449875587712627
2.84544772091563
2.84544772091563
2.84544772091563
2.8449875587712627
2.831739437927872
1.97740836321614
1.747846144307042
1.8071999183881888
1.9049670083063337
1.9508619101987745
1.68403485029535
1.3683913084351482
1.200939517052936
1.2512839799590512
1.4471073413850652
1.6681009325052902
1.8438316509567925
1.9520043271451273
1.9954855848606083
2.00059929255335
2.0161222264446845
2.061290372339403
2.153921375055353
2.31137212310448
2.5379992505073927
2.7062671179530025
2.7929062998078975
2.828862195100284
2.8385419532047877
2.84222591454198
2.8436068800587684
2.8440671382655798
2.8440671382655798
2.8445273645288
2.8445273645288
2.8449875587712627
2.8449875587712627
2.8459078508841604
2.846367948598697
2.846828013980815
2.8442560844278924
2.8369358745271023
2.8352814823776398
2.8338903115522767
2.8356998598939867
2.0776015276599886
1.824895179688255
1.8997538641909446
2.0293039472836214
1.9496556592983827
1.6363876570818987
1.290767248275913
1.1238259862677107
1.2189870592398209
1.4859029186465416
1.7755599364909147
1.9986184965585274
2.142966319602433
2.1827954518654797
2.162892123497257
2.164149433650767
2.1993958205936437
2.2816700581638334
2.4315108015626143
2.608234901413086
2.733426410229853
2.7989286687900314
2.8289791693014537
2.8385419532047877
2.841765529324413
2.843146589985006
2.8436068800587684
2.8440671382655798
2.8440671382655798
2.8445273645288
2.8445273645288
2.84544772091563
2.8459078508841604
2.8472880469516726
2.848667950603298
2.8481756518284547
2.8447371928357246
2.8414510632233165
2.8370178717629893
2.837626326490826
2.188680171313794
1.9408872615859334
2.054342562179244
2.068916616530754
1.88319479528638
1.50309970791007
1.1354646048215422
1.0219292417539156
1.2137341795211787
1.581623190050977
1.9419751998679862
2.19903112845718
2.3091133358412295
2.327217365602426
2.309758882620824
2.3132256495810473
2.346865346166221
2.4262185882372203
2.5573501939480234
2.6850377883623313
2.766719648248918
2.8098326986272024
2.831275815836908
2.839002557801995
2.8413051125434214
2.8426862681207665
2.843146589985006
2.8436068800587684
2.8436068800587684
2.8440671382655798
2.8445273645288
2.84544772091563
2.846367948598697
2.848208015342665
2.850507363536686
2.85372506035939
2.8545422844089505
2.853185002412694
2.845166801464028
2.8350550087459774
2.3259988126413185
2.20535732899172
2.188364491988402
2.0806727897805004
1.7181541515577896
1.210758997282466
0.8730369314520235
0.912855600309821
1.2784077484579328
1.773871610255947
2.1815748961871866
2.3632631115144958
2.415709090706469
2.426865142318961
2.43310473821481
2.4505312068264407
2.4892164402621564
2.55779578142766
2.6553973865121336
2.738990720886578
2.790786244973361
2.8186910637826266
2.833963009266491
2.8394631312810668
2.8413051125434214
2.84222591454198
2.8426862681207665
2.8426862681207665
2.843146589985006
2.8436068800587684
2.8440671382655798
2.8449875587712627
2.846828013980815
2.8491278531338575
2.8528470939816937
2.8532575224936467
2.8536775632646014
2.851176057647606
2.84389664841436
2.8349407690324804
2.5270620951303964
2.429029100160228
2.305692937864359
1.925994786966347
1.1317735563293312
0.5585248409896097
0.48432999886358585
0.8929797626702382
1.5229180166011504
2.11939390726845
2.371506221874484
2.4706619763104536
2.509081540898098
2.527397380389846
2.543844778940825
2.568065595500669
2.6060093828261177
2.6588723967212107
2.7221502837280083
2.773268743213977
2.805641248889941
2.8244298269667913
2.835628942371428
2.8394631312810668
2.8408446642740453
2.8413051125434214
2.841765529324413
2.84222591454198
2.84222591454198
2.8426862681207665
2.843146589985006
2.8445273645288
2.846367948598697
2.849587722853661
2.848852673638569
2.848590120198739
2.8488661719519355
2.8485057927414976
2.8454043406247593
2.8398861674243654
-2.867610052142522
-2.642425924222545
-1.9486388353311113
-0.8570167247265821
0.2875271974353725
1.3998174518416837
2.0923317974555067
2.3785901359478454
2.5111992541973978
2.5670234677211865
2.59515537619723
2.6146685651026145
2.6335697230573487
2.6574179618617326
2.6881130218330123
2.725498207366554
2.7642548289076143
2.7949132113389425
2.8160378747334796
2.8292755153439937
2.8376206509481863
2.839002557801995
2.839923673568638
2.8403841845910023
2.8403841845910023
2.8408446642740453
2.8408446642740453
2.8413051125434214
2.841765529324413
2.8426862681207665
2.8445273645288
2.8472880469516726
2.850664645167556
2.8517353306765862
2.852973272124359
2.8550503690017606
2.862909295749806
2.835970353775798
-2.5454470579858293
-0.8889876087180181
0.47490943834170435
1.2418793647854707
1.7699870256935302
2.176259965571336
2.431558582143398
2.5536267999808904
2.614511152278547
2.646467657285882
2.667322869121554
2.684034830958065
2.700905763746669
2.7205799927311007
2.7429979676514953
2.7675387848855624
2.79144236992289
2.810915308385595
2.824868074721012
2.832509756665183
2.834265804687786
2.833656033648443
2.832690709206218
2.831628164865315
2.8308495283399076
2.830259350108265
2.8297969263295983
2.8299256500314725
2.830235318240133
2.8308547854021056
2.833026377808232
2.837109293257902
2.843106307541085
2.8481726457093286
2.846566647787144
2.839621173794992
2.8284067950545273
2.827268942106188
-0.2659444958494794
-0.28395750984099666
-0.1913642418559773
1.1320330449323328
1.9143405117662022
2.277608351193088
2.4539661095999254
2.5632814013640806
2.631807366461873
2.6707717811542673
2.6943060840195123
2.7101616031333124
2.7228344276280114
2.7335139590964186
2.744402310496848
2.7554168424527075
2.7668654836481683
2.777858687366635
2.7864634183544785
2.7920902543831625
2.793967350817545
2.7946011608702146
2.793755258498588
2.79312125596507
2.792684189691725
2.7918543960129223
2.7916520617277674
2.7915087099654032
2.7908666580220927
2.7913240540073625
2.7912704276878846
2.7917640480008457
2.7933480657583423
2.794884806820744
2.798010717894004
2.8010420594477936
2.802443757398837
2.798986805031359
2.796090517871342
2.7869539065921964
)
;

boundaryField
{
    ".*"
    {
        type            zeroGradient;
    }
}


// ************************************************************************* //
