/*--------------------------------*- C++ -*----------------------------------*=========                 |
  \      /  F ield         | OpenFOAM: The Open Source CFD Toolbox
   \    /   O peration     | Website:  https://openfoam.org
    \  /    A nd           | Version:  6
     \/     M anipulation  |
\*---------------------------------------------------------------------------*/
FoamFile
{
    version     2.0;
    format      ascii;
    class       volScalarField;
    location    "30";
    object      PPD;
}
// * * * * * * * * * * * * * * * * * * * * * * * * * * * * * * * * * * * * * //

dimensions      [0 0 0 0 0 0 0];

internalField   nonuniform List<scalar> 
458
(
66.26253605272966
53.84609581872709
50.508565429558
48.45767980866791
47.388766024387756
47.15660536114952
47.714749788210575
49.421199429504064
52.78828757695068
53.557677517476655
53.26438252549058
53.80873595340286
55.3566246838305
58.626340120438655
62.334835288925575
98.07029508975435
98.1237136528005
98.13852132264903
98.14220794524279
98.14220794524279
98.13852132264903
98.13482858899093
98.13482858899093
98.13482858899093
98.13482858899093
98.13482858899093
98.13482858899093
98.13482858899093
98.13482858899093
98.13482858899093
98.13112973738707
98.11627301378266
98.08539052704246
65.61474599960955
56.47151317980513
54.3407734705461
52.533935739420244
51.33930321124026
50.23924532400222
48.29824579197291
46.356400972974455
47.86191824572936
51.465817557077756
54.0958701325221
56.07690610047889
57.73781222244177
59.3888383707665
61.035112753885265
63.76988878995244
70.74392395474503
81.53486437303746
98.07694839765333
98.13112973738707
98.14588846365203
98.15689346252765
98.1641997335265
98.16784377114928
98.1714817526692
98.1714817526692
98.1714817526692
98.1714817526692
98.1714817526692
98.1714817526692
98.1714817526692
98.16784377114928
98.1641997335265
98.1641997335265
98.15689346252765
98.0773690332076
67.5289370423892
58.5872080048035
58.81279573717462
58.465342576717546
57.605893458477546
54.71692900847784
47.95661542238353
42.10565877746318
43.48106758220239
49.084388024969485
54.862436702332566
59.12260877821101
61.77691489139432
63.272260020972205
64.53814886097501
67.40409856055089
72.59906145230977
80.28640023420824
97.93569647206631
98.01339317374466
98.09756362859737
98.14220794524279
98.1641997335265
98.17511368494529
98.18235942918326
98.18235942918326
98.18597325484754
98.18597325484754
98.18597325484754
98.18597325484754
98.18235942918326
98.1787395748322
98.1787395748322
98.17511368494529
98.1714817526692
98.07797055607281
71.24836106060704
61.078863636751684
63.22527863863165
65.52669086242105
66.00417491226796
59.34754927097283
46.64906129603419
38.357099506652474
40.15886597095393
47.841392231673005
56.58856495706921
63.384480651039055
67.40261737756362
69.2071191672215
70.07869432747559
71.79442118754426
74.89570984628887
80.01581797740111
85.62053928276673
94.6721206158951
97.20697305430501
97.9140163666059
98.09380321846754
98.14956288475375
98.1714817526692
98.1787395748322
98.18235942918326
98.18235942918326
98.18235942918326
98.18235942918326
98.18597325484754
98.18597325484754
98.18958105867272
98.18958105867272
98.18958105867272
98.18597325484754
98.07960515166248
75.71964665897787
64.2857288492272
67.38110921460697
72.28479322709322
74.4829755643625
60.88577015592747
43.82895829468098
35.28933881040466
37.78571317050736
48.03037444111143
60.028035098508866
69.25018913885984
74.53673816165981
76.54625210088783
76.7777298263802
77.47389208337387
79.4419627788167
83.19109920650959
88.60000628092257
94.18581868307001
96.80659286652033
97.73884491649339
98.05585731620205
98.13482858899093
98.1641997335265
98.17511368494529
98.1787395748322
98.1787395748322
98.18235942918326
98.18235942918326
98.18597325484754
98.18597325484754
98.19318284750324
98.19677862818021
98.20036840754261
98.18022640762605
98.12190647631564
98.10852076102802
98.09720574330973
98.1119130554566
80.1308112466956
68.28832748085398
72.0305591845936
78.05723563038899
74.42615691760734
58.31327134448839
39.7894266325666
31.60938455840126
36.176253570573905
50.12767732197654
65.74039276019352
76.68819156338157
82.76877003594124
84.27620189612948
83.53259615448735
83.58014571135908
84.88142405831513
87.67601281578825
91.87765934328573
95.42241911401523
97.12610025132052
97.79461982700026
98.0568273394035
98.13482858899093
98.16054963294053
98.1714817526692
98.17511368494529
98.1787395748322
98.1787395748322
98.18235942918326
98.18235942918326
98.18958105867272
98.19318284750324
98.20395219242606
98.21466764851903
98.21085067892596
98.18400789062758
98.15805308751642
98.12256793843403
98.12747044308571
84.49231617476303
74.01154197669706
79.14496095719315
79.76551019894985
71.2171968464963
51.06105138113736
32.152829593067906
27.04967403571503
35.91716315130873
55.33628563356065
74.06313648627057
84.8682754068935
88.53132898501063
89.07441185225795
88.5509832405066
88.65616619817519
89.64479325643356
91.74861097406503
94.548253375765
96.5383285927982
97.48322882302885
97.89282601008934
98.07579432580728
98.13852132264903
98.15689346252765
98.16784377114928
98.1714817526692
98.17511368494529
98.17511368494529
98.1787395748322
98.18235942918326
98.18958105867272
98.19677862818021
98.2111018060859
98.22887141480757
98.25349958166062
98.25971050746074
98.24938534683486
98.18737925485682
98.10668242951893
89.03838567877119
85.09541819068502
84.48076655949626
80.2591813456568
62.71151409777276
35.770759232614054
21.087986537997395
22.596087366400013
39.158147524483795
65.65221958128879
84.23116262736056
90.10570396881434
91.4882093254505
91.76445150975172
91.9162545517334
92.33003119518496
93.1956378035118
94.55640062636469
96.1353757016338
97.18838121313057
97.71894697882112
97.97002076253891
98.09779836498915
98.14220794524279
98.15689346252765
98.1641997335265
98.16784377114928
98.16784377114928
98.1714817526692
98.17511368494529
98.1787395748322
98.18597325484754
98.20036840754261
98.2182275237881
98.2468071511861
98.24993826747357
98.25313805467268
98.23401243166477
98.17739713960519
98.10575458040245
93.97343940445262
91.81731724868158
88.42683493236086
73.30104759279709
31.980004510216006
11.53181390848738
9.900058151840724
21.835226694187554
52.13868558602695
81.84051749477807
90.33222335274547
92.78950206810735
93.61227937033614
93.98003165436296
94.29708734912681
94.74172856078664
95.38651302519918
96.18437416466217
96.99660427742778
97.54918881775265
97.85549588030479
98.01881524600029
98.11133838418692
98.14220794524279
98.15323121542167
98.15689346252765
98.16054963294053
98.1641997335265
98.1641997335265
98.16784377114928
98.1714817526692
98.18235942918326
98.19677862818021
98.22178143871403
98.21609818323971
98.21406463724676
98.21620268094166
98.2134111036542
98.18924119083768
98.14558894440742
98.35663301058857
95.94826238453086
74.37821955320912
20.499573712413763
6.7173877647803835
45.495799629259814
80.74259698408405
90.52412739460091
93.65559861821585
94.72313561639066
95.2083939227252
95.52505027080535
95.81664635275271
96.16392388448308
96.57822161473844
97.03551481828292
97.45804614495896
97.75755415576099
97.94714026805661
98.05928309453354
98.12742476095256
98.13852132264903
98.14588846365203
98.14956288475375
98.14956288475375
98.15323121542167
98.15323121542167
98.15689346252765
98.16054963294053
98.16784377114928
98.18235942918326
98.20395219242606
98.23008169959512
98.23830298241228
98.24777023047196
98.26356299452065
98.32228277470462
98.11410368329521
94.32731560218852
21.684341097956562
9.709894863001892
37.31419163254564
65.44911933857182
84.03418022290393
91.87881812174945
94.47982656599154
95.52255982975194
96.00728148775177
96.30156280667128
96.52524125929163
96.7404067663148
96.97821821499177
97.23257947714413
97.4915543095733
97.72511982916478
97.90238355871735
98.02250267180882
98.08592357501612
98.1002651222911
98.09529493680246
98.08740539575474
98.0786910736212
98.07228504316335
98.06741813327764
98.06359789052753
98.06466192745314
98.06721974627754
98.07232835148479
98.09015175588951
98.12330520490192
98.17116362705832
98.2108273512774
98.19832973494364
98.1434716339708
98.05207716710696
98.04260648828628
6.468524325141146
6.674870958483822
5.759275366075087
31.992140033654266
72.73965518571805
87.54614118942203
92.40982875487687
94.65597612489681
95.79007667857378
96.34859740294557
96.65749117565748
96.85401777457726
97.00458757050856
97.1270884115795
97.24793998826306
97.36612114837476
97.48471264046438
97.59460077141911
97.6779458771667
97.73120218102278
97.74875179035429
97.75465316936244
97.74677426851947
97.74085471111968
97.73676674797595
97.72898942903343
97.72708982981975
97.72574322281201
97.7197042194838
97.72400768570662
97.72350346855504
97.72814135920751
97.7429738018144
97.75729021514326
97.78618957186693
97.81393200937009
97.82666658487393
97.79515287919301
97.768472312914
97.6826271214487
)
;

boundaryField
{
    ".*"
    {
        type            zeroGradient;
    }
}


// ************************************************************************* //
