/*--------------------------------*- C++ -*----------------------------------*\
  =========                 |
  \\      /  F ield         | OpenFOAM: The Open Source CFD Toolbox
   \\    /   O peration     | Website:  https://openfoam.org
    \\  /    A nd           | Version:  6
     \\/     M anipulation  |
\*---------------------------------------------------------------------------*/
FoamFile
{
    version     2.0;
    format      ascii;
    class       volScalarField;
    location    "1430";
    object      k;
}
// * * * * * * * * * * * * * * * * * * * * * * * * * * * * * * * * * * * * * //

dimensions      [0 2 -2 0 0 0 0];

internalField   nonuniform List<scalar> 
458
(
0.00226785
0.00268615
0.00280894
0.00308414
0.003349
0.00360981
0.00388051
0.00416534
0.00440567
0.00456008
0.00457761
0.00441283
0.00402206
0.0032546
0.00187342
0.000457619
0.00062888
0.000808348
0.000878855
0.000851571
0.000745731
0.000636813
0.000546641
0.000474094
0.000415271
0.000367093
0.000327372
0.000294051
0.000265258
0.000239318
0.000214614
0.00020057
0.000169414
0.00412312
0.00755203
0.00415057
0.00437456
0.00471647
0.0051358
0.00563292
0.00619727
0.00680128
0.00731368
0.007589
0.00753159
0.00712419
0.00635495
0.00513866
0.00326425
0.00224676
0.00149563
0.000450289
0.000973138
0.00130328
0.00145839
0.00147276
0.00125941
0.00102438
0.000834049
0.000688771
0.000577349
0.000490683
0.000421526
0.000364708
0.000317445
0.000283513
0.000264386
0.000493867
0.000292754
0.0060952
0.0136489
0.00491181
0.00472546
0.00494213
0.00528664
0.00575151
0.00634161
0.0069947
0.00755136
0.00789334
0.00795059
0.00769407
0.00706109
0.00603748
0.00488862
0.00391878
0.0020864
0.00106813
0.00139968
0.00160359
0.00173042
0.00172288
0.0013472
0.00103258
0.000802651
0.00063762
0.000518273
0.00043062
0.000365348
0.000316484
0.000280902
0.000262147
0.000265446
0.000780334
0.000408859
0.008359
0.0222355
0.00592735
0.00470745
0.00474706
0.00501711
0.00547436
0.00616878
0.00689332
0.00746388
0.00783468
0.00795452
0.00774913
0.00714639
0.00628749
0.00543598
0.00463259
0.0035004
0.00276911
0.00250703
0.00237421
0.00233829
0.00228974
0.00215203
0.00170955
0.00143648
0.00126409
0.00114391
0.00104697
0.00095485
0.000871305
0.00078718
0.000694255
0.000530227
0.000422772
0.0011325
0.000542378
0.0110413
0.0339559
0.00842407
0.00475031
0.00448349
0.00470873
0.00530024
0.00635586
0.0071857
0.00774022
0.00809586
0.00819806
0.0079012
0.00718318
0.00621652
0.00530958
0.00457999
0.00397865
0.00379474
0.00347964
0.00325268
0.00307085
0.00285944
0.00259051
0.00230288
0.0021068
0.00198675
0.00189205
0.00178999
0.00166124
0.00149199
0.00129921
0.00109394
0.000865722
0.000664783
0.000922204
0.00106382
0.000969428
0.00108637
0.00128348
0.0143256
0.0466868
0.0149498
0.00592368
0.00474305
0.00478391
0.00570833
0.00726781
0.0080326
0.00847501
0.00873938
0.00874845
0.00832099
0.0073794
0.00612504
0.0049665
0.00418392
0.00384186
0.0038142
0.00382324
0.00373207
0.00350898
0.00318949
0.00283511
0.00254804
0.00239555
0.00232191
0.00226329
0.00218518
0.00206528
0.00187848
0.00164895
0.00140039
0.00114683
0.000935625
0.000900719
0.00103003
0.00105444
0.00165139
0.00138073
0.0179758
0.0550455
0.0270766
0.012361
0.0083094
0.00741345
0.00850633
0.00921075
0.00948679
0.0096464
0.00973052
0.00958435
0.00894785
0.00770987
0.00611057
0.00469916
0.00388717
0.00373615
0.00389847
0.00398292
0.00385381
0.00355066
0.00317127
0.00281218
0.00256768
0.00246876
0.00245186
0.00245717
0.00245506
0.00242463
0.00233615
0.00214735
0.00191074
0.00165902
0.00145727
0.00136463
0.00145099
0.00168152
0.00223394
0.00194886
0.0189406
0.0568432
0.0383012
0.0271719
0.0197433
0.0158825
0.0137267
0.0122895
0.0115372
0.011213
0.0110106
0.0106107
0.00964716
0.00799528
0.00597455
0.00439267
0.00367751
0.00365548
0.00377997
0.00375036
0.00351704
0.00317032
0.00282035
0.00255077
0.00240824
0.00238387
0.00243144
0.00251755
0.00263032
0.00276719
0.00292548
0.00306704
0.00310934
0.00313897
0.00329211
0.00386912
0.00511953
0.0068158
0.0128316
0.00467705
0.018204
0.0264659
0.0243619
0.0217105
0.0188864
0.0164647
0.0146545
0.0135913
0.0130876
0.0127689
0.0123581
0.011597
0.0100719
0.00776947
0.00515946
0.00385778
0.00340273
0.00330972
0.00325317
0.00309152
0.00282362
0.00252794
0.00228276
0.00213446
0.00208906
0.00212334
0.00220965
0.00233309
0.00249003
0.00268165
0.00290931
0.00317116
0.00348972
0.00390091
0.00444784
0.00509761
0.00569695
0.00606924
0.00624836
0.00408125
0.00718473
0.0110947
0.0135429
0.0147738
0.0154382
0.0157091
0.0153788
0.0144535
0.0132142
0.0115868
0.00880987
0.00585875
0.00403618
0.00322549
0.0028814
0.00270031
0.00252801
0.00231818
0.00209092
0.00188813
0.00175205
0.00169312
0.00169786
0.00174769
0.00182977
0.00193924
0.00207748
0.00225113
0.00247287
0.00276576
0.00313122
0.003567
0.0040509
0.00449043
0.00471262
0.00457286
0.00410681
0.00264226
0.00805089
0.01947
0.021612
0.0215022
0.0207296
0.018478
0.015339
0.0120154
0.00883344
0.00623595
0.00435117
0.00326395
0.00271623
0.00241238
0.00221064
0.00203261
0.00184787
0.00166491
0.00150921
0.00139889
0.00133817
0.00132621
0.00135496
0.00141874
0.00151592
0.00164792
0.00181801
0.00203051
0.00229593
0.00262435
0.00302439
0.00349684
0.00401537
0.00451217
0.00481681
0.00510145
0.00428741
0.00271137
0.00890515
0.00935063
0.00976455
0.0120866
0.010799
0.00848056
0.00603584
0.00437028
0.00348221
0.00273171
0.00214598
0.0017365
0.0014236
0.00120713
0.00106718
0.000970384
0.000895868
0.000834126
0.000784806
0.000752375
0.000740448
0.00074939
0.000776236
0.000816562
0.000868975
0.000933197
0.00100991
0.0011008
0.00120888
0.0013396
0.00149652
0.0016815
0.00189889
0.00215366
0.00245041
0.00283126
0.00300663
0.00288476
0.00249575
0.00213485
)
;

boundaryField
{
    floor
    {
        type            kqRWallFunction;
        value           nonuniform List<scalar> 
36
(
0.00187342
0.000457619
0.00062888
0.000808348
0.000878855
0.000851571
0.000745731
0.000636813
0.000546641
0.000474094
0.000415271
0.000367093
0.000327372
0.000294051
0.000265258
0.000239318
0.000214614
0.00020057
0.000169414
0.000169414
0.000292754
0.000408859
0.000542378
0.000969428
0.00108637
0.00128348
0.00187342
0.00326425
0.00224676
0.00149563
0.000457619
0.00149563
0.000450289
0.0020864
0.00106813
0.00276911
)
;
    }
    ceiling
    {
        type            kqRWallFunction;
        value           nonuniform List<scalar> 
43
(
0.00890515
0.00935063
0.00976455
0.0120866
0.010799
0.00848056
0.00603584
0.00437028
0.00348221
0.00273171
0.00214598
0.0017365
0.0014236
0.00120713
0.00106718
0.000970384
0.000895868
0.000834126
0.000784806
0.000752375
0.000740448
0.00074939
0.000776236
0.000816562
0.000868975
0.000933197
0.00100991
0.0011008
0.00120888
0.0013396
0.00149652
0.0016815
0.00189889
0.00215366
0.00245041
0.00283126
0.00300663
0.00288476
0.00249575
0.00213485
0.018204
0.0264659
0.00805089
)
;
    }
    sWall
    {
        type            kqRWallFunction;
        value           uniform 0.00890515;
    }
    nWall
    {
        type            kqRWallFunction;
        value           nonuniform List<scalar> 6(0.00128348 0.00138073 0.00194886 0.00264226 0.00271137 0.00213485);
    }
    sideWalls
    {
        type            empty;
    }
    glass1
    {
        type            kqRWallFunction;
        value           nonuniform List<scalar> 9(0.00226785 0.00412312 0.0060952 0.008359 0.0110413 0.0143256 0.0179758 0.0189406 0.018204);
    }
    glass2
    {
        type            kqRWallFunction;
        value           nonuniform List<scalar> 2(0.00467705 0.00408125);
    }
    sun
    {
        type            kqRWallFunction;
        value           nonuniform List<scalar> 
14
(
0.00226785
0.00268615
0.00280894
0.00308414
0.003349
0.00360981
0.00388051
0.00416534
0.00440567
0.00456008
0.00457761
0.00441283
0.00402206
0.0032546
)
;
    }
    Table_master
    {
        type            kqRWallFunction;
        value           nonuniform List<scalar> 9(0.0013472 0.00103258 0.000802651 0.00063762 0.000518273 0.00043062 0.000365348 0.000316484 0.000280902);
    }
    Table_slave
    {
        type            kqRWallFunction;
        value           nonuniform List<scalar> 9(0.00170955 0.00143648 0.00126409 0.00114391 0.00104697 0.00095485 0.000871305 0.00078718 0.000694255);
    }
    inlet
    {
        type            turbulentIntensityKineticEnergyInlet;
        intensity       0.05;
        value           uniform 0.000937501;
    }
    outlet
    {
        type            zeroGradient;
    }
}


// ************************************************************************* //
