/*--------------------------------*- C++ -*----------------------------------*\
  =========                 |
  \\      /  F ield         | OpenFOAM: The Open Source CFD Toolbox
   \\    /   O peration     | Website:  https://openfoam.org
    \\  /    A nd           | Version:  6
     \\/     M anipulation  |
\*---------------------------------------------------------------------------*/
FoamFile
{
    version     2.0;
    format      ascii;
    class       volVectorField;
    location    "1430";
    object      U;
}
// * * * * * * * * * * * * * * * * * * * * * * * * * * * * * * * * * * * * * //

dimensions      [0 1 -1 0 0 0 0];

internalField   nonuniform List<vector> 
458
(
(0.0348212 0.0885237 0)
(-0.172083 0.0265853 0)
(-0.199354 0.0191144 0)
(-0.233231 0.0130817 0)
(-0.258405 0.00641394 0)
(-0.27361 -0.000804908 0)
(-0.276739 -0.00877849 0)
(-0.265492 -0.0177786 0)
(-0.239433 -0.0274276 0)
(-0.199721 -0.0361124 0)
(-0.150454 -0.042052 0)
(-0.0978367 -0.0436517 0)
(-0.0487355 -0.0390817 0)
(-0.00627722 -0.0236874 0)
(-0.0102694 0.0097699 0)
(-0.0102216 0.0105021 0)
(-0.0372389 -0.0175027 0)
(-0.0144866 -0.0291239 0)
(0.0137241 -0.025192 0)
(0.0334901 -0.017896 0)
(0.0481119 -0.00955942 0)
(0.056872 -0.00517994 0)
(0.0607485 -0.00363552 0)
(0.062182 -0.00308555 0)
(0.0628299 -0.00276207 0)
(0.0631382 -0.00251123 0)
(0.0630757 -0.00224306 0)
(0.0624761 -0.0017984 0)
(0.060882 -0.0008388 0)
(0.0572759 0.00107588 0)
(0.0505499 0.00317459 0)
(0.0451309 0.00509454 0)
(-0.0141248 0.0219565 0)
(0.21427 0.181892 0)
(-0.16215 0.0709962 0)
(-0.162945 0.0577655 0)
(-0.198662 0.0457455 0)
(-0.224138 0.0319896 0)
(-0.240115 0.0161763 0)
(-0.244617 -0.00241004 0)
(-0.235121 -0.0239674 0)
(-0.211871 -0.0461709 0)
(-0.176489 -0.0649279 0)
(-0.133359 -0.0764282 0)
(-0.0881294 -0.0782004 0)
(-0.0462625 -0.0687313 0)
(-0.010031 -0.0460203 0)
(0.0194053 -0.0133851 0)
(0.0442368 0.00784823 0)
(0.054842 0.034757 0)
(-0.0118147 0.0706801 0)
(0.0670579 0.0439642 0)
(0.0103141 -0.0218377 0)
(0.0265282 -0.0379089 0)
(0.0407626 -0.0356566 0)
(0.0531565 -0.0273505 0)
(0.0595868 -0.0120941 0)
(0.0612081 -0.00275077 0)
(0.0612561 0.000749068 0)
(0.0614195 0.00202622 0)
(0.0617444 0.00272554 0)
(0.0619695 0.00322549 0)
(0.0620267 0.00367856 0)
(0.0619222 0.00441124 0)
(0.0612103 0.0062104 0)
(0.057812 0.0112312 0)
(0.0491175 0.0155445 0)
(0.0476992 0.0187219 0)
(-0.0584029 0.0475652 0)
(0.379532 0.27296 0)
(-0.180118 0.113738 0)
(-0.123513 0.0941131 0)
(-0.159198 0.0724368 0)
(-0.1826 0.0495041 0)
(-0.19841 0.023643 0)
(-0.204062 -0.0065357 0)
(-0.195372 -0.0409815 0)
(-0.173588 -0.0757827 0)
(-0.141421 -0.10365 0)
(-0.103837 -0.118954 0)
(-0.0658918 -0.119157 0)
(-0.0318206 -0.104119 0)
(-0.00227693 -0.0743987 0)
(0.0220276 -0.0400748 0)
(0.0375905 -0.0152196 0)
(0.0431705 0.0131612 0)
(-0.0236721 0.062309 0)
(0.122497 -0.00756011 0)
(0.0724879 -0.0321076 0)
(0.0642851 -0.0419417 0)
(0.0672359 -0.0417717 0)
(0.0718485 -0.0380627 0)
(0.0734843 -0.0282352 0)
(0.064361 -0.0183306 0)
(0.0574043 -0.0130265 0)
(0.0548064 -0.010078 0)
(0.0541169 -0.00818497 0)
(0.0538848 -0.00689651 0)
(0.0539572 -0.00590114 0)
(0.0547589 -0.00475117 0)
(0.0572134 -0.00139447 0)
(0.0561112 0.0150027 0)
(0.0445964 0.0258853 0)
(0.0541301 0.0332699 0)
(-0.0993511 0.0728154 0)
(0.530029 0.346657 0)
(-0.21667 0.151759 0)
(-0.0801982 0.125839 0)
(-0.115536 0.0962985 0)
(-0.133414 0.0672244 0)
(-0.146925 0.0337624 0)
(-0.152509 -0.00711334 0)
(-0.142611 -0.0550579 0)
(-0.121276 -0.102312 0)
(-0.0929667 -0.137841 0)
(-0.0625204 -0.155426 0)
(-0.0335622 -0.153427 0)
(-0.00878956 -0.133435 0)
(0.0128701 -0.0979203 0)
(0.0304326 -0.0589685 0)
(0.0443497 -0.0228916 0)
(0.059939 0.013151 0)
(0.0587955 0.053435 0)
(0.100293 0.0615088 0)
(0.0987621 -0.00244793 0)
(0.0850852 -0.029397 0)
(0.0783991 -0.0376995 0)
(0.0735464 -0.0384078 0)
(0.0669459 -0.0341276 0)
(0.0665212 -0.0208466 0)
(0.0772049 -0.0138351 0)
(0.086177 -0.0101121 0)
(0.0915861 -0.00782972 0)
(0.0948368 -0.00592266 0)
(0.0962561 -0.00386186 0)
(0.0944985 -0.00119553 0)
(0.0882437 0.00247624 0)
(0.0757053 0.00774034 0)
(0.059796 0.025102 0)
(0.044062 0.0405995 0)
(0.0629704 0.0533666 0)
(-0.131359 0.0943029 0)
(0.662683 0.403815 0)
(-0.262355 0.182681 0)
(-0.0350311 0.145259 0)
(-0.0687451 0.111319 0)
(-0.0779393 0.0792317 0)
(-0.086285 0.0412473 0)
(-0.0890374 -0.00799145 0)
(-0.0740099 -0.0688221 0)
(-0.0534632 -0.125905 0)
(-0.031559 -0.165074 0)
(-0.0112565 -0.181841 0)
(0.00617855 -0.175988 0)
(0.0193398 -0.151478 0)
(0.0303548 -0.114531 0)
(0.040199 -0.0729465 0)
(0.049434 -0.0337077 0)
(0.0619201 0.000690883 0)
(0.0760051 0.0197308 0)
(0.0902796 -0.000550223 0)
(0.0896237 -0.0213637 0)
(0.0825456 -0.0300312 0)
(0.0737326 -0.0325527 0)
(0.0654844 -0.0316383 0)
(0.058537 -0.0266447 0)
(0.0567566 -0.0155214 0)
(0.0603171 -0.00903762 0)
(0.0646681 -0.00638684 0)
(0.0684025 -0.00484738 0)
(0.0716575 -0.00276889 0)
(0.0741748 0.000762977 0)
(0.0750369 0.00595449 0)
(0.0731508 0.0129779 0)
(0.0682456 0.0224335 0)
(0.0612007 0.0371787 0)
(0.0500493 0.0536457 0)
(0.0748507 0.072769 0)
(-0.00684854 0.101407 0)
(0.0557738 0.150674 0)
(-0.0835344 0.0748255 0)
(-0.277794 0.000475652 0)
(0.761891 0.451329 0)
(-0.308552 0.203341 0)
(0.00243289 0.143885 0)
(-0.0205794 0.116256 0)
(-0.0197815 0.0857181 0)
(-0.0214886 0.0472912 0)
(-0.0142955 -0.00694196 0)
(0.0103439 -0.0859416 0)
(0.0269506 -0.146197 0)
(0.0388533 -0.182423 0)
(0.046072 -0.19455 0)
(0.0489179 -0.185046 0)
(0.048651 -0.158113 0)
(0.0472432 -0.119906 0)
(0.0460636 -0.0779199 0)
(0.0464697 -0.0396802 0)
(0.0508074 -0.00995938 0)
(0.0599353 0.00485766 0)
(0.0661957 -0.00102301 0)
(0.0649309 -0.0109954 0)
(0.0585358 -0.0187986 0)
(0.05036 -0.0229118 0)
(0.0427198 -0.0236679 0)
(0.0367426 -0.0211464 0)
(0.0341935 -0.0157849 0)
(0.0353493 -0.0123133 0)
(0.038312 -0.0108873 0)
(0.041978 -0.00980299 0)
(0.0460481 -0.00766863 0)
(0.0502403 -0.00341345 0)
(0.0544618 0.00366097 0)
(0.0569858 0.0131725 0)
(0.058154 0.0249378 0)
(0.0592784 0.0395789 0)
(0.0583539 0.0560158 0)
(0.0796994 0.0767159 0)
(0.065438 0.0890081 0)
(0.0997161 0.0967416 0)
(0.117479 0.0571981 0)
(-0.136906 -0.0299405 0)
(0.815616 0.494194 0)
(-0.334124 0.18737 0)
(0.0322431 0.0937966 0)
(0.0390676 0.101047 0)
(0.0459413 0.08299 0)
(0.0516394 0.0393581 0)
(0.0791261 -0.0311882 0)
(0.103141 -0.103718 0)
(0.113317 -0.157022 0)
(0.112893 -0.18633 0)
(0.104611 -0.192426 0)
(0.0908174 -0.178769 0)
(0.0741196 -0.14976 0)
(0.0575236 -0.111547 0)
(0.0429884 -0.0708834 0)
(0.0326216 -0.0356558 0)
(0.028089 -0.0107078 0)
(0.0294686 0.00104375 0)
(0.0310899 -0.000236657 0)
(0.0295795 -0.00653994 0)
(0.0249216 -0.012617 0)
(0.0188007 -0.0163678 0)
(0.0127755 -0.0177485 0)
(0.00796934 -0.0171169 0)
(0.00561049 -0.0152146 0)
(0.00595755 -0.0141278 0)
(0.00800276 -0.0140011 0)
(0.0110072 -0.0137794 0)
(0.0148079 -0.0124002 0)
(0.0194905 -0.00877733 0)
(0.0256582 -0.00166863 0)
(0.0332801 0.00884946 0)
(0.0400501 0.0208829 0)
(0.0478582 0.0341616 0)
(0.0558573 0.0479732 0)
(0.0754381 0.0644745 0)
(0.0882228 0.0697873 0)
(0.119668 0.0632145 0)
(0.163391 0.0513013 0)
(-0.0203377 0.0954816 0)
(0.921872 0.497291 0)
(-0.0766769 0.167419 0)
(0.110611 0.0261541 0)
(0.163745 0.022777 0)
(0.161415 0.015524 0)
(0.162889 -0.0293921 0)
(0.196523 -0.0804336 0)
(0.211306 -0.12556 0)
(0.205393 -0.158285 0)
(0.185123 -0.17398 0)
(0.155613 -0.171666 0)
(0.121111 -0.153964 0)
(0.085313 -0.124263 0)
(0.0523843 -0.0880563 0)
(0.024473 -0.0510249 0)
(0.00511387 -0.0218723 0)
(-0.00465014 -0.00436083 0)
(-0.00658771 0.00182491 0)
(-0.00647672 0.000715385 0)
(-0.0076822 -0.00362996 0)
(-0.0109834 -0.00800015 0)
(-0.0154796 -0.0110777 0)
(-0.0201116 -0.0128551 0)
(-0.023975 -0.0136984 0)
(-0.0263561 -0.0141583 0)
(-0.0272462 -0.0149173 0)
(-0.0272088 -0.0159082 0)
(-0.0266256 -0.0166249 0)
(-0.0254978 -0.0165387 0)
(-0.0235189 -0.015073 0)
(-0.0198955 -0.0114974 0)
(-0.0117515 -0.00493501 0)
(-0.000122011 0.00444501 0)
(0.0110611 0.0137621 0)
(0.022667 0.0208771 0)
(0.0398848 0.0277509 0)
(0.0554226 0.0224495 0)
(0.0795684 0.00564899 0)
(0.146406 0.0479725 0)
(-0.428344 0.212662 0)
(1.06591 0.444169 0)
(0.51824 0.298304 0)
(0.529538 0.249853 0)
(0.518405 0.182893 0)
(0.469864 0.12242 0)
(0.433196 0.0600946 0)
(0.39208 -0.00744245 0)
(0.342873 -0.0669938 0)
(0.289112 -0.107867 0)
(0.232769 -0.126605 0)
(0.175381 -0.125087 0)
(0.118917 -0.1089 0)
(0.0654658 -0.0822709 0)
(0.0202426 -0.0512385 0)
(-0.0161073 -0.0207905 0)
(-0.0329636 -0.00599683 0)
(-0.0401541 0.000517644 0)
(-0.0416974 0.00227543 0)
(-0.0420721 0.00106105 0)
(-0.0432117 -0.00160663 0)
(-0.0458368 -0.00450696 0)
(-0.0494834 -0.00704887 0)
(-0.0535065 -0.00914441 0)
(-0.0573709 -0.0108794 0)
(-0.0608191 -0.0123906 0)
(-0.0640133 -0.0137791 0)
(-0.067358 -0.0148842 0)
(-0.0712277 -0.0153423 0)
(-0.0759766 -0.0146702 0)
(-0.0820772 -0.012216 0)
(-0.0902211 -0.00714271 0)
(-0.101132 0.00140774 0)
(-0.112772 0.0133114 0)
(-0.127997 0.0284112 0)
(-0.152914 0.0467853 0)
(-0.190234 0.0673939 0)
(-0.241635 0.0862223 0)
(-0.297568 0.0999099 0)
(-0.371652 0.106898 0)
(-0.650666 0.106286 0)
(0.233935 0.0528139 0)
(0.305894 0.115932 0)
(0.321221 0.0913287 0)
(0.299646 0.0395383 0)
(0.275054 -0.0106336 0)
(0.244388 -0.0469574 0)
(0.203095 -0.0684174 0)
(0.153994 -0.0754055 0)
(0.100421 -0.068683 0)
(0.046144 -0.052901 0)
(-0.00865589 -0.0294896 0)
(-0.0451586 -0.0114523 0)
(-0.0636234 -0.00306559 0)
(-0.0709433 -0.000673021 0)
(-0.073158 -0.000202702 0)
(-0.0734615 -0.000907426 0)
(-0.0737502 -0.00252043 0)
(-0.0748825 -0.00463366 0)
(-0.0770915 -0.0067428 0)
(-0.0803464 -0.00853451 0)
(-0.0841407 -0.0100113 0)
(-0.0882452 -0.0111402 0)
(-0.0926737 -0.0119252 0)
(-0.0975808 -0.0123268 0)
(-0.103117 -0.012158 0)
(-0.109314 -0.0110699 0)
(-0.116039 -0.00859404 0)
(-0.122949 -0.00418716 0)
(-0.129419 0.0027134 0)
(-0.134401 0.0123184 0)
(-0.138371 0.0256051 0)
(-0.141808 0.0431735 0)
(-0.146017 0.0642224 0)
(-0.151769 0.0850546 0)
(-0.155353 0.0955505 0)
(-0.141294 0.0734017 0)
(-0.110225 -0.025012 0)
(-0.286614 -0.213745 0)
(0.120038 0.324321 0)
(0.0083829 0.203569 0)
(0.0392456 0.118418 0)
(0.0584477 0.0604025 0)
(0.063085 0.0216009 0)
(0.0600664 -0.00480043 0)
(0.0401478 -0.0199098 0)
(0.00535746 -0.0189282 0)
(-0.0366465 -0.00170535 0)
(-0.0701577 0.0128733 0)
(-0.0912599 0.0208687 0)
(-0.100262 0.0232532 0)
(-0.102465 0.0233814 0)
(-0.10239 0.0234309 0)
(-0.101497 0.0241343 0)
(-0.100445 0.0252485 0)
(-0.0997073 0.0263759 0)
(-0.0995736 0.0271171 0)
(-0.1001 0.027047 0)
(-0.101243 0.0258383 0)
(-0.103037 0.023808 0)
(-0.105412 0.021568 0)
(-0.108306 0.0193936 0)
(-0.111631 0.0174332 0)
(-0.115248 0.0157906 0)
(-0.118941 0.0145789 0)
(-0.122399 0.0139339 0)
(-0.12514 0.0140135 0)
(-0.126346 0.0155084 0)
(-0.124848 0.0198782 0)
(-0.119065 0.0282869 0)
(-0.107612 0.041735 0)
(-0.0903459 0.0602397 0)
(-0.0683117 0.0804264 0)
(-0.0434411 0.0948383 0)
(-0.0075742 0.0857739 0)
(0.14694 0.00930077 0)
(-0.20993 -0.129687 0)
(-0.422105 -0.516019 0)
(-0.637309 -0.143279 0)
(-0.449399 0.177737 0)
(-0.357948 0.0560569 0)
(-0.213932 -0.00555708 0)
(-0.145667 -0.0477907 0)
(-0.117241 -0.070515 0)
(-0.113068 -0.0713275 0)
(-0.122425 -0.0626508 0)
(-0.134926 -0.0549391 0)
(-0.140397 -0.0504682 0)
(-0.138633 -0.0490186 0)
(-0.134166 -0.0498808 0)
(-0.128968 -0.0526695 0)
(-0.124478 -0.0561617 0)
(-0.120998 -0.0597783 0)
(-0.118162 -0.0634068 0)
(-0.115716 -0.0671021 0)
(-0.113619 -0.0707032 0)
(-0.111945 -0.0737007 0)
(-0.110831 -0.075491 0)
(-0.110443 -0.0756386 0)
(-0.110881 -0.0742454 0)
(-0.112102 -0.0719106 0)
(-0.11393 -0.06886 0)
(-0.116138 -0.0652324 0)
(-0.118446 -0.0610707 0)
(-0.120485 -0.0562813 0)
(-0.121771 -0.0506569 0)
(-0.121667 -0.0438288 0)
(-0.119156 -0.0358343 0)
(-0.112333 -0.0267047 0)
(-0.0983924 -0.015894 0)
(-0.0748355 -0.0024946 0)
(-0.0415449 0.014359 0)
(0.00932331 0.0362838 0)
(0.061871 0.0423451 0)
(0.109603 0.0240417 0)
(0.17206 -0.0159455 0)
(-0.19629 -0.0826877 0)
)
;

boundaryField
{
    floor
    {
        type            noSlip;
    }
    ceiling
    {
        type            noSlip;
    }
    sWall
    {
        type            noSlip;
    }
    nWall
    {
        type            noSlip;
    }
    sideWalls
    {
        type            empty;
    }
    glass1
    {
        type            noSlip;
    }
    glass2
    {
        type            noSlip;
    }
    sun
    {
        type            noSlip;
    }
    Table_master
    {
        type            noSlip;
    }
    Table_slave
    {
        type            noSlip;
    }
    inlet
    {
        type            fixedValue;
        value           uniform (0.46194 -0.191342 0);
    }
    outlet
    {
        type            zeroGradient;
    }
}


// ************************************************************************* //
