/*--------------------------------*- C++ -*----------------------------------*\
  =========                 |
  \\      /  F ield         | OpenFOAM: The Open Source CFD Toolbox
   \\    /   O peration     | Website:  https://openfoam.org
    \\  /    A nd           | Version:  6
     \\/     M anipulation  |
\*---------------------------------------------------------------------------*/
FoamFile
{
    version     2.0;
    format      ascii;
    class       surfaceScalarField;
    location    "43399.9999998546191";
    object      phi;
}
// * * * * * * * * * * * * * * * * * * * * * * * * * * * * * * * * * * * * * //

dimensions      [1 0 -1 0 0 0 0];

internalField   nonuniform List<scalar> 
1482
(
-0.00279979
0.00286382
-0.0034841
0.000684315
-0.00414498
0.000660882
-0.00475929
0.000614307
-0.00528088
0.000521587
-0.00569295
0.000412077
-0.00598426
0.000291303
-0.0061417
0.000157444
-0.00614795
6.24479e-06
-0.00597702
-0.000170924
-0.00559902
-0.000378009
-0.00498294
-0.000616074
-0.00405867
-0.000924271
-0.00257994
-0.00147873
-0.00257702
-6.46758e-05
6.95294e-05
0.000778176
-0.000842851
0.00142989
-0.000651716
0.00182846
-0.000398567
0.00204936
-0.000220902
0.00215349
-0.00010413
0.00220091
-4.74185e-05
0.00222381
-2.28953e-05
0.00223354
-9.73791e-06
0.00223436
-8.19654e-07
0.00222722
7.13937e-06
0.00220819
1.90385e-05
0.00216398
4.4208e-05
0.00206145
0.00010253
0.0018453
0.000216147
0.00148891
0.000356389
0.00101926
0.000469655
0.0010257
-0.0020404
0.00507455
-0.0029086
0.00155252
-0.00369461
0.0014469
-0.00434587
0.00126557
-0.00488336
0.00105908
-0.00531233
0.000841044
-0.00563095
0.000609923
-0.00583239
0.000358885
-0.00590597
7.98163e-05
-0.00584385
-0.00023304
-0.00564027
-0.000581588
-0.00528395
-0.000972392
-0.00477374
-0.00143448
-0.00428767
-0.00196481
-0.00470336
-0.00216132
-0.0031168
-0.00158112
-0.00163328
-0.00147783
-0.00161843
0.00131756
-0.00123782
0.00166091
-0.0011862
0.00191127
-0.000902072
0.00210103
-0.000588335
0.00220709
-0.00032696
0.00221567
-0.000112712
0.00221772
-4.94606e-05
0.00221942
-2.4598e-05
0.00222045
-1.0765e-05
0.00222047
-8.48351e-07
0.00221909
8.52e-06
0.00221487
2.32659e-05
0.00220222
5.68561e-05
0.00214032
0.000164425
0.00189085
0.000465621
0.00146221
0.000785031
0.000900601
0.00103126
0.00194318
-0.00148827
0.00682075
-0.00235922
0.00242347
-0.00312935
0.00221702
-0.00371376
0.00184998
-0.00418463
0.00152994
-0.00455626
0.00121267
-0.00483041
0.000884079
-0.00500384
0.000532308
-0.00507011
0.00014609
-0.00502017
-0.000282978
-0.00484332
-0.000758444
-0.00453217
-0.00128354
-0.0041176
-0.00184904
-0.00372033
-0.00236208
-0.00330022
-0.00258143
-0.00236915
-0.00251219
-0.00127531
-0.00257167
-0.00288091
0.00114893
-0.00237229
0.00165181
-0.00168908
0.00194937
-0.00119963
0.0021409
-0.00077987
0.00216851
-0.000354569
0.00205595
0.00200665
0.0019822
0.00197159
0.0019709
0.00197957
0.00200299
0.00206
0.00222458
0.00186556
0.000824643
0.00141789
0.0012327
0.000800406
0.00164875
0.00276963
-0.00110607
0.00825803
-0.00192801
0.00324541
-0.00257017
0.00285917
-0.00303065
0.00231046
-0.00339835
0.00189764
-0.0036873
0.00150161
-0.00390046
0.00109724
-0.00403597
0.000667818
-0.00408629
0.000196409
-0.00403823
-0.000331042
-0.00387953
-0.000917136
-0.00360618
-0.00155689
-0.00324085
-0.00221437
-0.00281942
-0.00278351
-0.00228061
-0.00312024
-0.00156156
-0.00323123
-0.000873899
-0.00325933
-0.000695015
-0.00305979
0.00144084
-0.00212041
0.00137353
-0.00230498
0.00168923
-0.00200479
0.00200176
-0.00151215
0.00226808
-0.00104619
0.00254518
-0.000631673
0.00285719
-0.00031216
0.00302331
-0.000166275
0.00308747
-6.43164e-05
0.00307011
1.72133e-05
0.00297991
9.00399e-05
0.00281779
0.000161965
0.00257583
0.000241808
0.00223104
0.000344643
0.0017262
0.000504682
0.00158966
0.000961182
0.00126187
0.0015605
0.00073622
0.00217439
0.00354016
-0.000803762
0.00945499
-0.00157993
0.00402158
-0.00204867
0.00332792
-0.00236449
0.00262628
-0.002609
0.00214215
-0.00279468
0.0016873
-0.00292654
0.0012291
-0.00300526
0.000746535
-0.00302426
0.000215409
-0.0029669
-0.0003884
-0.00281996
-0.00106408
-0.00257658
-0.00180027
-0.00224342
-0.00254752
-0.00182768
-0.00319925
-0.00132304
-0.00362488
-0.000747175
-0.0038071
-0.000216513
-0.00378999
0.00026063
-0.00353693
0.00112154
-0.00298132
0.00148728
-0.00267072
0.00174618
-0.00226368
0.0019986
-0.00176457
0.00222846
-0.00127605
0.00244265
-0.000845864
0.00264304
-0.000512545
0.00275246
-0.0002757
0.00278833
-0.000100178
0.00276232
4.32224e-05
0.00268082
0.000171536
0.00254628
0.00029651
0.0023574
0.000430687
0.00211167
0.000590372
0.00181698
0.000799366
0.00161033
0.00116783
0.00146722
0.00170361
0.00128503
0.00235658
0.00226623
0.00255896
0.00131561
0.000985547
0.00190422
-0.000560017
0.00202302
-0.000575812
0.0104772
-0.00132471
0.00477048
-0.0015844
0.0035876
-0.00175042
0.00279231
-0.00186457
0.0022563
-0.00193626
0.001759
-0.00197195
0.00126478
-0.00197589
0.000750475
-0.0019449
0.000184423
-0.00185717
-0.000476132
-0.00170291
-0.00121833
-0.00147225
-0.00203093
-0.00116814
-0.00285163
-0.000796504
-0.00357088
-0.000377274
-0.00404411
6.2606e-05
-0.00424698
0.000467526
-0.00419491
0.000841687
-0.00391109
0.00129251
-0.00343214
0.00159113
-0.00296933
0.0017943
-0.00246686
0.00196562
-0.00193589
0.00211713
-0.00142756
0.0022514
-0.00098013
0.00235582
-0.000616966
0.00241356
-0.000333437
0.00242443
-0.000111054
0.0023937
7.39582e-05
0.00232613
0.0002391
0.00222549
0.000397155
0.00209568
0.000560498
0.0019435
0.000742544
0.00178305
0.000959823
0.00169003
0.00126085
0.00174287
0.00165076
0.00194728
0.00215218
0.0021824
0.00232384
0.00169774
0.00147021
0.000781851
0.000355873
0.00290243
-0.000543311
0.0115127
-0.00124348
0.00547065
-0.00119185
0.00353597
-0.00120036
0.00280082
-0.00119294
0.00224887
-0.00115976
0.00172582
-0.00110297
0.00120799
-0.00102824
0.00067575
-0.000930278
8.64581e-05
-0.000781683
-0.000624727
-0.000592771
-0.00140725
-0.00035302
-0.00227068
-6.95507e-05
-0.0031351
0.00023509
-0.00387553
0.000544946
-0.00435397
0.000839979
-0.00454201
0.00110277
-0.0044577
0.00133596
-0.00414428
0.00156757
-0.00366375
0.00172701
-0.00312878
0.00182667
-0.00256652
0.00189643
-0.00200564
0.00195192
-0.00148305
0.00199826
-0.00102647
0.00203015
-0.000648852
0.00204193
-0.000345224
0.00203031
-9.94326e-05
0.00199608
0.000108192
0.00194231
0.000292869
0.00187271
0.000466751
0.00179232
0.000640891
0.00170933
0.000825537
0.00163816
0.00103099
0.00162109
0.00127793
0.00170144
0.00157041
0.0018997
0.00195392
0.00213818
0.00208536
0.00215137
0.00145703
0.00162375
0.000883489
0.00462896
-0.000483461
0.0125317
-0.0010514
0.00603859
-0.000697313
0.00318188
-0.000636664
0.00274017
-0.000568544
0.00218075
-0.000464231
0.0016215
-0.000335687
0.00107944
-0.000185085
0.000525148
3.64166e-06
-0.000102269
0.00022137
-0.000842455
0.000460696
-0.00164657
0.00071816
-0.00252815
0.000975076
-0.00339202
0.00120397
-0.00410442
0.00140358
-0.00455359
0.00156507
-0.0047035
0.00168307
-0.00457571
0.00176237
-0.00422358
0.00181542
-0.00371681
0.00182539
-0.00313874
0.00180048
-0.00254161
0.00175962
-0.00196478
0.00171766
-0.00144109
0.00168202
-0.000990834
0.00165272
-0.000619549
0.00162594
-0.000318449
0.001597
-7.04852e-05
0.00156375
0.000141438
0.00152651
0.000330111
0.00148661
0.000506648
0.00144712
0.000680377
0.00141399
0.000858672
0.00139743
0.00104754
0.00141934
0.00125602
0.00150451
0.00148524
0.00169672
0.00176171
0.00194908
0.001833
0.0020604
0.00134571
0.00167029
0.00127361
0.00666459
0.00297661
0.0101423
0.0020211
0.0069941
0.000868208
0.00433477
0.00036998
0.0032384
0.000213097
0.00233764
0.000269254
0.00156535
0.000422689
0.000926008
0.000635983
0.000311855
0.00089469
-0.000360976
0.00115884
-0.0011066
0.00143687
-0.0019246
0.00170374
-0.00279502
0.00193006
-0.00361835
0.00209149
-0.00426586
0.00218196
-0.00464407
0.00220401
-0.00472556
0.00216642
-0.00453813
0.00208286
-0.00414002
0.00196858
-0.00360253
0.00182921
-0.00299937
0.00167689
-0.00238929
0.00152841
-0.00181629
0.00139832
-0.00131101
0.00129481
-0.000887316
0.00121918
-0.000543926
0.00116686
-0.000266126
0.00113078
-3.44029e-05
0.00110584
0.000166376
0.00108873
0.000347215
0.00107737
0.000518013
0.00107186
0.000685884
0.00107494
0.000855591
0.00109211
0.00103038
0.00113397
0.00121416
0.00121215
0.00140706
0.00135252
0.00162134
0.00151352
0.00167199
0.00154822
0.00131102
0.000198824
0.00262307
0.00724818
0.00403061
0.00625191
0.0036664
0.00735831
0.00254092
0.00546025
0.00188776
0.00389156
0.0015312
0.00269419
0.00138626
0.00171029
0.00141976
0.000892504
0.0015936
0.000138016
0.00184493
-0.000612302
0.00212131
-0.00138299
0.00240051
-0.0022038
0.00264533
-0.00303985
0.00281414
-0.00378716
0.00287986
-0.00433159
0.00283908
-0.0046033
0.00270553
-0.00459202
0.00250145
-0.00433406
0.00225117
-0.00388974
0.00197746
-0.00332882
0.00169746
-0.00271937
0.0014283
-0.00212012
0.00118767
-0.00157566
0.000990213
-0.00111355
0.000842075
-0.000739178
0.000742391
-0.000444242
0.000682725
-0.00020646
0.00065245
-4.12806e-06
0.00064302
0.000175805
0.000647744
0.000342492
0.00066197
0.000503787
0.000683603
0.00066425
0.000712487
0.000826707
0.000749471
0.000993393
0.000795561
0.00116807
0.000843449
0.00135917
0.000850471
0.00161432
0.0005195
0.00200294
-0.000986587
0.0028172
-0.00237534
0.00401204
0.00497644
0.00240905
0.00400738
0.00330369
0.00646367
0.00324763
0.00551632
0.00303685
0.00410233
0.00284572
0.00288532
0.00272222
0.00183379
0.00270796
0.000906762
0.00279633
4.96401e-05
0.00295748
-0.000773454
0.00316736
-0.00159287
0.0033843
-0.00242074
0.00354837
-0.00320392
0.00360485
-0.00384365
0.00352703
-0.00425377
0.00332025
-0.00439653
0.0030106
-0.00428238
0.00263251
-0.00395598
0.00221943
-0.00347667
0.00180098
-0.00291038
0.00140077
-0.00231916
0.0010402
-0.00175955
0.000738347
-0.00127381
0.00050898
-0.000884182
0.000350359
-0.000580557
0.000254341
-0.000348224
0.000205118
-0.000157237
0.000189681
1.13084e-05
0.000197795
0.000167691
0.000221359
0.000318927
0.000255584
0.000469561
0.000297466
0.000622368
0.000344855
0.000779319
0.000395598
0.000942649
0.000447277
0.0011164
0.000490927
0.00131552
0.000471592
0.00163364
0.000228726
0.00224567
-6.06473e-05
0.00310628
-0.000233881
0.0041852
0.00485684
0.00145649
0.00274514
0.00274777
0.00517238
0.00343209
0.004832
0.00371831
0.00381611
0.00381675
0.00278688
0.00384455
0.00180599
0.00388005
0.000871258
0.00394844
-1.87505e-05
0.00405768
-0.000882697
0.00419698
-0.00173216
0.00431506
-0.00253882
0.00434135
-0.00323021
0.00422433
-0.00372663
0.00395176
-0.00398121
0.00354612
-0.00399091
0.00304733
-0.00378359
0.00249945
-0.00340811
0.00194138
-0.0029186
0.00140729
-0.0023763
0.000923842
-0.00183572
0.000517553
-0.00135326
0.000205647
-0.000961907
-6.84699e-06
-0.000671688
-0.000136025
-0.000451379
-0.000205627
-0.000278623
-0.000235716
-0.000127149
-0.000237568
1.31607e-05
-0.000218395
0.000148517
-0.000183307
0.00028384
-0.000136178
0.000422431
-8.07302e-05
0.00056692
-2.11718e-05
0.00071976
3.73267e-05
0.000884151
8.94385e-05
0.00106429
0.000120886
0.00128408
4.88228e-05
0.00170563
-0.000136622
0.00243076
3.69495e-05
0.00293214
0.000167419
0.00405433
0.00515019
0.00216927
0.000801827
0.00294231
0.00439933
0.00359405
0.00418025
0.00416494
0.00324522
0.00449292
0.0024589
0.00466706
0.00163185
0.00478334
0.000754969
0.00488713
-0.000122537
0.00499232
-0.000987885
0.00506923
-0.00180905
0.00505236
-0.00252194
0.0048816
-0.00305945
0.00453442
-0.00337944
0.00402975
-0.00347654
0.00341279
-0.00337395
0.00273473
-0.00310554
0.0020447
-0.00271808
0.00138106
-0.00225496
0.000782958
-0.0017782
0.000276424
-0.00132919
-0.000103199
-0.000973636
-0.000353238
-0.000711866
-0.000501908
-0.000523017
-0.000584998
-0.000368288
-0.000629726
-0.000233896
-0.000646899
-0.000109978
-0.000641626
7.88644e-06
-0.000616933
0.000123823
-0.000575277
0.000242184
-0.000519952
0.000367105
-0.000455936
0.000502904
-0.000390824
0.000654648
-0.000336594
0.000829922
-0.000315599
0.0010433
-0.000375842
0.00134435
-0.000589072
0.00191888
-0.000966554
0.00280805
-0.00145311
0.00341828
-0.00143513
0.0040359
0.00385524
-0.00157411
0.00262109
0.00112038
0.00170485
0.0033522
0.00194843
0.00435557
0.00224185
0.00486006
0.0019544
0.00517459
0.00131733
0.00540188
0.000527675
0.00557847
-0.000299118
0.00567635
-0.00108574
0.00563352
-0.00176619
0.00539897
-0.00228736
0.00496082
-0.00262128
0.00434686
-0.00276547
0.0036103
-0.00273998
0.00281203
-0.00257568
0.00200303
-0.00229654
0.00123286
-0.0019479
0.0005332
-0.00155531
-4.74998e-05
-0.0011975
-0.00046945
-0.000907232
-0.00073336
-0.000709719
-0.000887342
-0.000557878
-0.00097901
-0.000431347
-0.00103242
-0.000314883
-0.00106125
-0.00020507
-0.00107007
-0.000101158
-0.00106007
-2.12193e-06
-0.00103126
9.50154e-05
-0.000984074
0.000194994
-0.000921185
0.000304216
-0.00084827
0.000429989
-0.000775246
0.000581622
-0.000718921
0.000773598
-0.000709994
0.00103439
-0.000798593
0.00143306
-0.00100818
0.00212876
-0.00145338
0.00325359
-0.00251727
0.00448238
-0.00286269
0.00438143
0.00114767
0.00288283
0.00457249
0.00487338
0.00164755
0.00536102
0.00175421
0.00559814
0.00171727
0.00582907
0.0010864
0.00601507
0.000341683
0.00608009
-0.000364106
0.00595281
-0.00095842
0.00559948
-0.00141282
0.00503228
-0.00172013
0.00429794
-0.00188693
0.00345482
-0.00192233
0.00256258
-0.00184774
0.00167793
-0.00169103
0.000835889
-0.00145449
8.14052e-05
-0.00119342
-0.000525515
-0.000948384
-0.000946535
-0.000776467
-0.00120407
-0.000649679
-0.00135952
-0.00055425
-0.0014524
-0.000464997
-0.00151045
-0.000373295
-0.00154632
-0.000279018
-0.00156519
-0.000186214
-0.00156804
-9.833e-05
-0.00155397
-1.62044e-05
-0.00152152
6.25594e-05
-0.0014697
0.000143173
-0.0013994
0.000233922
-0.00131434
0.000344928
-0.00122138
0.00048865
-0.00113052
0.000682724
-0.00105416
0.000958014
-0.000999227
0.00137821
-0.000925443
0.00205529
-0.000741817
0.00307049
-0.000579026
0.00432005
-0.000362741
0.00416559
0.000950629
0.00793322
0.0053628
0.00581422
0.00387316
0.00556646
0.00196499
0.00563764
0.0010152
0.0056022
0.00037713
0.00535936
-0.000121229
0.00489618
-0.000495202
0.0042521
-0.00076871
0.00348036
-0.000948366
0.00263433
-0.00104089
0.0017559
-0.00104388
0.000884533
-0.000976363
5.87685e-05
-0.00086526
-0.000657588
-0.000738132
-0.00120558
-0.000645413
-0.00157776
-0.000576183
-0.00181768
-0.000536513
-0.00196464
-0.000502684
-0.00205948
-0.000459377
-0.00212459
-0.000399879
-0.00217074
-0.000327156
-0.00220205
-0.000247749
-0.00221981
-0.0001685
-0.00222388
-9.43061e-05
-0.00221307
-2.70365e-05
-0.00218539
3.48653e-05
-0.00213835
9.61411e-05
-0.00206925
0.000164843
-0.00197517
0.000250854
-0.00185251
0.000365962
-0.00169669
0.000526835
-0.00149875
0.000759968
-0.00123003
0.00110939
-0.000816081
0.0016414
-0.000160364
0.00241509
0.000669499
0.00349055
0.00125741
0.00357812
0.0023786
0.00409516
0.00151419
0.00449641
0.00347189
0.00372793
0.00273345
0.00322961
0.00151352
0.00288893
0.000717837
0.00252554
0.000242188
0.0020787
-4.83417e-05
0.0015351
-0.000225105
0.000913761
-0.000327028
0.000233117
-0.000360245
-0.000465646
-0.000345121
-0.00111943
-0.000322579
-0.00167338
-0.000311306
-0.0020927
-0.000318791
-0.00238635
-0.000351731
-0.00257442
-0.000388057
-0.00269876
-0.000412104
-0.00278996
-0.000411431
-0.00286492
-0.000384395
-0.00292905
-0.000335758
-0.00298275
-0.000273511
-0.00302473
-0.000205853
-0.00305385
-0.00013948
-0.00306962
-7.86295e-05
-0.00307205
-2.46529e-05
-0.0030596
2.24166e-05
-0.0030276
6.41845e-05
-0.00296917
0.000106484
-0.00287397
0.000155702
-0.00272796
0.000219957
-0.00251406
0.000312851
-0.00220991
0.00045563
-0.00177415
0.000673371
-0.0011289
0.00099589
-0.000198874
0.00148491
0.0009758
0.00231597
0.00162271
0.00293139
0.00417971
-0.00262638
-0.00679648
-0.00741927
-0.0074716
-0.00375211
-0.0021529
-0.00167874
0.00139853
-0.000764772
0.00181949
-0.00056263
0.00131138
-0.00063878
0.000793989
-0.000822999
0.000426399
-0.00106494
0.000193592
-0.00135787
6.78002e-05
-0.00170498
2.00616e-05
-0.00208231
1.70622e-05
-0.00245479
2.7335e-05
-0.0027967
1.93279e-05
-0.00308032
-2.76629e-05
-0.00327421
-0.000124845
-0.00339339
-0.000232472
-0.00347178
-0.000309566
-0.00353986
-0.000343941
-0.00361107
-0.000340166
-0.00368751
-0.000307957
-0.00376624
-0.000257098
-0.00384306
-0.000196817
-0.00391339
-0.000135677
-0.00397216
-8.08731e-05
-0.0040139
-3.70303e-05
-0.00403346
-5.15988e-06
-0.00403103
2.00028e-05
-0.00400815
4.13875e-05
-0.00396168
6.01559e-05
-0.00388225
7.64335e-05
-0.00375252
9.0354e-05
-0.00354621
0.000106577
-0.00322725
0.000136588
-0.00273909
0.000184995
-0.00198234
0.000238777
-0.000880488
0.000382621
0.000439715
0.000995412
0.00102173
0.00234914
0.00538981
-0.00737287
0.00102995
-0.00813747
-0.00670695
-0.00718517
-0.00310515
-0.00566224
-0.000124377
-0.00456928
0.000726527
-0.00397721
0.000719285
-0.00371703
0.000533769
-0.00364896
0.000358271
-0.00368958
0.000234146
-0.00378315
0.000161306
-0.00388815
0.000125003
-0.00397661
0.000105478
-0.00403398
8.46974e-05
-0.00406425
4.96246e-05
-0.00408649
-5.35823e-06
-0.00411918
-9.2058e-05
-0.00417384
-0.000177687
-0.00425189
-0.000231407
-0.0043482
-0.000247557
-0.00445312
-0.000235233
-0.00455609
-0.00020504
-0.00464835
-0.000164976
-0.0047243
-0.00012106
-0.00478148
-7.87223e-05
-0.00481928
-4.32744e-05
-0.00483768
-1.87946e-05
-0.00483662
-6.30352e-06
-0.00481366
-2.96013e-06
-0.00477169
-4.90358e-07
-0.00470947
-1.90058e-06
-0.00462051
-1.22977e-05
-0.00449197
-3.79287e-05
-0.00430301
-8.21158e-05
-0.00402778
-0.000138387
-0.0036424
-0.000200182
-0.00309359
-0.0003099
-0.00213741
-0.000573558
-0.000382324
-0.000759852
0.000456988
0.00150953
0.00604582
0.00157163
-0.0050708
-0.00811307
-0.00817838
-0.00739789
-0.00663241
-0.00605907
-0.0056659
-0.00539979
-0.00520809
-0.00505327
-0.00491777
-0.00480237
-0.00472119
-0.00469437
-0.00475411
-0.00489972
-0.00509954
-0.00531608
-0.00552085
-0.00569583
-0.00583101
-0.00592238
-0.00597144
-0.00598504
-0.00597418
-0.00595095
-0.00592467
-0.00589639
-0.0058702
-0.0058553
-0.00586711
-0.00592439
-0.00603941
-0.00621786
-0.00650775
-0.00706297
-0.00780589
-0.00628043
)
;

boundaryField
{
    floor
    {
        type            calculated;
        value           nonuniform List<scalar> 
36
(
0
0
0
0
0
0
0
0
0
0
0
0
0
0
0
0
0
0
0
-6.43914e-06
-1.68858e-05
-2.60359e-05
-3.43165e-05
-3.49283e-05
-2.85836e-05
-2.86207e-05
-2.92012e-06
-5.44191e-06
-5.68818e-06
-5.90843e-06
-4.85367e-06
-8.93943e-06
-1.02125e-05
-1.28345e-05
-1.44571e-05
-1.5445e-05
)
;
    }
    ceiling
    {
        type            calculated;
        value           nonuniform List<scalar> 
43
(
-5.78353e-05
-6.44922e-05
-6.28538e-05
-5.90697e-05
-5.39918e-05
-4.62502e-05
-3.96542e-05
-3.49958e-05
-3.20665e-05
-3.04794e-05
-2.98914e-05
-3.00477e-05
-3.06961e-05
-3.15051e-05
-3.20968e-05
-3.22102e-05
-3.19628e-05
-3.15034e-05
-3.09788e-05
-3.05088e-05
-3.01636e-05
-2.99598e-05
-2.98725e-05
-2.9852e-05
-2.98376e-05
-2.97655e-05
-2.95749e-05
-2.92164e-05
-2.86607e-05
-2.79002e-05
-2.69413e-05
-2.5796e-05
-2.44774e-05
-2.30037e-05
-2.14176e-05
-1.98151e-05
-1.83484e-05
-1.71634e-05
-1.63185e-05
-1.68038e-05
1.93416e-05
1.51862e-05
-0.000246549
)
;
    }
    sWall
    {
        type            calculated;
        value           nonuniform List<scalar> 9(-0.000140238 -0.00016452 -0.000194244 -0.000225954 -0.000245152 -0.000281086 -0.000423661 -0.000453508 -0.000483817);
    }
    nWall
    {
        type            calculated;
        value           nonuniform List<scalar> 
14
(
-9.01853e-05
-9.75649e-05
-0.000102765
-0.000103553
-0.000114245
-0.000126042
-0.000140275
-0.000155047
-0.000165077
-0.000170249
-0.000178288
-0.000188539
-0.000199366
-0.000218263
)
;
    }
    sideWalls
    {
        type            empty;
        value           nonuniform 0();
    }
    glass1
    {
        type            calculated;
        value           nonuniform List<scalar> 9(-6.40348e-05 -0.000170323 -0.000257926 -0.000331212 -0.000393199 -0.000446407 -0.000492221 -0.000535502 -0.00058718);
    }
    glass2
    {
        type            calculated;
        value           nonuniform List<scalar> 2(-0.000365359 -0.000384744);
    }
    sun
    {
        type            calculated;
        value           uniform 0;
    }
    Table_master
    {
        type            calculated;
        value           nonuniform List<scalar> 9(-1.53995e-07 -1.54111e-07 -1.54144e-07 -1.54164e-07 -1.54177e-07 -1.54182e-07 -1.5418e-07 -1.54166e-07 -1.54113e-07);
    }
    Table_slave
    {
        type            calculated;
        value           nonuniform List<scalar> 9(1.53663e-07 1.5372e-07 1.53719e-07 1.53736e-07 1.53757e-07 1.53801e-07 1.53868e-07 1.53962e-07 1.54089e-07);
    }
    inlet
    {
        type            calculated;
        value           uniform -0.0116485;
    }
    outlet
    {
        type            calculated;
        value           nonuniform List<scalar> 2(0.00984659 0.0122646);
    }
}


// ************************************************************************* //
