/*--------------------------------*- C++ -*----------------------------------*\
  =========                 |
  \\      /  F ield         | OpenFOAM: The Open Source CFD Toolbox
   \\    /   O peration     | Website:  https://openfoam.org
    \\  /    A nd           | Version:  6
     \\/     M anipulation  |
\*---------------------------------------------------------------------------*/
FoamFile
{
    version     2.0;
    format      ascii;
    class       volVectorField;
    location    "21500";
    object      U;
}
// * * * * * * * * * * * * * * * * * * * * * * * * * * * * * * * * * * * * * //

dimensions      [0 1 -1 0 0 0 0];

internalField   nonuniform List<vector> 
778
(
(0.0656015 0.0794064 0)
(-0.155174 0.0157632 0)
(-0.164297 0.0146215 0)
(-0.192408 0.0122705 0)
(-0.216837 0.00871958 0)
(-0.236889 0.00473836 0)
(-0.252006 0.000411838 0)
(-0.261768 -0.00437241 0)
(-0.26566 -0.00981299 0)
(-0.262681 -0.0161905 0)
(-0.250878 -0.024261 0)
(-0.226184 -0.0348762 0)
(-0.186073 -0.0503929 0)
(-0.144147 -0.0751558 0)
(-0.150026 -0.108538 0)
(0.0546886 0.0354825 0)
(0.0158242 -0.0268909 0)
(0.0450415 -0.0232753 0)
(0.0694774 -0.016171 0)
(0.0845647 -0.0103621 0)
(0.0917879 -0.00641759 0)
(0.0946254 -0.00433859 0)
(0.0956605 -0.00331727 0)
(0.0961196 -0.00273063 0)
(0.0962965 -0.00231679 0)
(0.0961749 -0.00195131 0)
(0.0956479 -0.00150977 0)
(0.0943872 -0.000754777 0)
(0.091534 0.000851212 0)
(0.0853173 0.00407855 0)
(0.0737524 0.0077932 0)
(0.0600513 0.0116453 0)
(-0.00786926 0.0300284 0)
(0.258403 0.167392 0)
(-0.161234 0.0483884 0)
(-0.141598 0.045974 0)
(-0.173997 0.0416054 0)
(-0.199352 0.0356555 0)
(-0.220063 0.0291147 0)
(-0.236082 0.022043 0)
(-0.247324 0.0142144 0)
(-0.253491 0.00528533 0)
(-0.253803 -0.00515983 0)
(-0.247648 -0.017085 0)
(-0.233946 -0.0308483 0)
(-0.214044 -0.0480699 0)
(-0.197471 -0.069948 0)
(-0.19396 -0.0826216 0)
(-0.166365 -0.0425265 0)
(-0.105338 -0.0363412 0)
(-0.0983218 -0.0444411 0)
(0.109358 -0.0421764 0)
(0.0645027 -0.0412387 0)
(0.0719897 -0.0323311 0)
(0.0860148 -0.020773 0)
(0.0939613 -0.0105144 0)
(0.0962209 -0.00364774 0)
(0.0959825 -0.000195881 0)
(0.0955875 0.00124272 0)
(0.0955475 0.00188672 0)
(0.0956279 0.00226198 0)
(0.0956362 0.00258799 0)
(0.0955373 0.00313394 0)
(0.0952468 0.00441852 0)
(0.0939884 0.00773955 0)
(0.0883844 0.0167871 0)
(0.0746043 0.0253958 0)
(0.0632249 0.0330446 0)
(-0.0518824 0.0637014 0)
(0.429986 0.253952 0)
(-0.194235 0.0847533 0)
(-0.112772 0.0784211 0)
(-0.148232 0.0669387 0)
(-0.170657 0.0554779 0)
(-0.188741 0.0437018 0)
(-0.202568 0.0313185 0)
(-0.21225 0.0179851 0)
(-0.217593 0.00338316 0)
(-0.217944 -0.0126396 0)
(-0.212685 -0.0303245 0)
(-0.201579 -0.0499042 0)
(-0.185936 -0.0715623 0)
(-0.169393 -0.0932037 0)
(-0.151015 -0.104549 0)
(-0.120176 -0.0931162 0)
(-0.0794903 -0.0948986 0)
(-0.0713958 -0.107541 0)
(0.092178 -0.0882513 0)
(0.0626175 -0.0658487 0)
(0.0744412 -0.0462246 0)
(0.0881109 -0.0293502 0)
(0.0950071 -0.0150197 0)
(0.0921497 -0.0120451 0)
(0.0879086 -0.00794479 0)
(0.0855348 -0.00577643 0)
(0.0848383 -0.00456042 0)
(0.0848081 -0.00380159 0)
(0.0850585 -0.00322934 0)
(0.0857104 -0.00260014 0)
(0.0874755 -0.00143785 0)
(0.0921693 0.00292642 0)
(0.0903356 0.025136 0)
(0.0735187 0.0424392 0)
(0.0702328 0.0576123 0)
(-0.0898746 0.101148 0)
(0.578555 0.325836 0)
(-0.240107 0.121801 0)
(-0.0808257 0.109206 0)
(-0.121562 0.0898308 0)
(-0.138989 0.0740401 0)
(-0.153042 0.0586021 0)
(-0.163793 0.042718 0)
(-0.171379 0.0257772 0)
(-0.175581 0.00717281 0)
(-0.175639 -0.0135466 0)
(-0.170946 -0.0364752 0)
(-0.161373 -0.0614538 0)
(-0.147498 -0.0873681 0)
(-0.130504 -0.110296 0)
(-0.109529 -0.123189 0)
(-0.0820354 -0.124514 0)
(-0.0524103 -0.126326 0)
(-0.0332673 -0.123149 0)
(0.016524 -0.0568087 0)
(0.0609405 -0.0930739 0)
(0.0685645 -0.0792666 0)
(0.0791656 -0.0589188 0)
(0.0916506 -0.0396915 0)
(0.102976 -0.0210412 0)
(0.115729 -0.0132639 0)
(0.126946 -0.00884361 0)
(0.1326 -0.00562251 0)
(0.133629 -0.00311479 0)
(0.131146 -0.000892047 0)
(0.125719 0.00127777 0)
(0.117217 0.00366229 0)
(0.10487 0.00672422 0)
(0.0856148 0.011165 0)
(0.071718 0.0368687 0)
(0.0604113 0.060658 0)
(0.0764948 0.0835513 0)
(-0.117518 0.137573 0)
(0.705737 0.383673 0)
(-0.287686 0.156994 0)
(-0.0476872 0.13376 0)
(-0.0962785 0.106892 0)
(-0.107724 0.0875628 0)
(-0.116751 0.0691368 0)
(-0.123535 0.0504093 0)
(-0.128189 0.0305514 0)
(-0.130541 0.00869343 0)
(-0.129727 -0.0158411 0)
(-0.12522 -0.0430883 0)
(-0.116586 -0.0726887 0)
(-0.103847 -0.10283 0)
(-0.0873458 -0.129095 0)
(-0.0673673 -0.145783 0)
(-0.0439983 -0.152243 0)
(-0.0201227 -0.152327 0)
(0.00043238 -0.143669 0)
(0.0309461 -0.114992 0)
(0.0570962 -0.10938 0)
(0.0706512 -0.0924897 0)
(0.0807628 -0.0713372 0)
(0.0908085 -0.0508985 0)
(0.10036 -0.0328649 0)
(0.109489 -0.0194667 0)
(0.116558 -0.0100807 0)
(0.120035 -0.0033842 0)
(0.120287 0.00187212 0)
(0.117921 0.00642377 0)
(0.113307 0.0107865 0)
(0.106469 0.015472 0)
(0.0973359 0.0211816 0)
(0.085411 0.0292143 0)
(0.0738504 0.047259 0)
(0.0633535 0.0713637 0)
(0.0950504 0.099565 0)
(0.0172019 0.138741 0)
(0.0968399 0.182808 0)
(0.14052 0.145044 0)
(-0.21938 0.201435 0)
(0.810444 0.431966 0)
(-0.331327 0.190661 0)
(-0.0173071 0.150222 0)
(-0.0733533 0.117491 0)
(-0.0785734 0.0954773 0)
(-0.0821903 0.0749069 0)
(-0.084441 0.0543024 0)
(-0.0854754 0.0326805 0)
(-0.0852163 0.00882617 0)
(-0.0825365 -0.0184346 0)
(-0.0773626 -0.0490386 0)
(-0.0687197 -0.0825115 0)
(-0.0566948 -0.116522 0)
(-0.0415915 -0.146339 0)
(-0.0245617 -0.16602 0)
(-0.00613256 -0.174495 0)
(0.012267 -0.172711 0)
(0.0281892 -0.160956 0)
(0.0463376 -0.139286 0)
(0.0627581 -0.122334 0)
(0.0733933 -0.102518 0)
(0.0810377 -0.0804991 0)
(0.087774 -0.0591836 0)
(0.0939502 -0.0403278 0)
(0.0993004 -0.0251606 0)
(0.103031 -0.0138109 0)
(0.104689 -0.00512437 0)
(0.104321 0.00206541 0)
(0.102222 0.00853799 0)
(0.0986369 0.0148144 0)
(0.0937183 0.0214226 0)
(0.0876915 0.0289944 0)
(0.0808183 0.0384397 0)
(0.0750495 0.0528992 0)
(0.0697927 0.0729271 0)
(0.0919802 0.0986685 0)
(0.0740357 0.107453 0)
(0.0910593 0.0477183 0)
(0.146625 -0.0358045 0)
(-0.323545 0.107591 0)
(0.879906 0.474677 0)
(-0.368648 0.22094 0)
(0.00372363 0.155524 0)
(-0.0526467 0.121536 0)
(-0.052187 0.0978143 0)
(-0.0510015 0.0757813 0)
(-0.0489938 0.0540032 0)
(-0.0464761 0.0314975 0)
(-0.0432879 0.00674091 0)
(-0.0373273 -0.0223217 0)
(-0.030247 -0.0553837 0)
(-0.0204437 -0.0919631 0)
(-0.00859992 -0.128937 0)
(0.00466452 -0.161311 0)
(0.0177676 -0.181932 0)
(0.030595 -0.190229 0)
(0.0424255 -0.187196 0)
(0.0527342 -0.174353 0)
(0.0626828 -0.153991 0)
(0.0712205 -0.132348 0)
(0.0767 -0.109362 0)
(0.0801175 -0.0859001 0)
(0.0826853 -0.0637632 0)
(0.0849109 -0.0442999 0)
(0.086756 -0.0282299 0)
(0.087886 -0.0154604 0)
(0.0880716 -0.00521235 0)
(0.0871609 0.0034349 0)
(0.0853271 0.0111679 0)
(0.0827115 0.018513 0)
(0.0794803 0.0259717 0)
(0.0759029 0.0340438 0)
(0.072376 0.0432775 0)
(0.0702779 0.0549471 0)
(0.0690079 0.0694173 0)
(0.0820744 0.0883886 0)
(0.0853904 0.091507 0)
(0.0912604 0.0539171 0)
(0.181848 0.0269623 0)
(-0.278945 0.156916 0)
(0.927941 0.517137 0)
(-0.383161 0.234131 0)
(0.0168957 0.132916 0)
(-0.0273065 0.116606 0)
(-0.0265257 0.0948758 0)
(-0.0227112 0.0723821 0)
(-0.0175936 0.0500585 0)
(-0.0123164 0.0272097 0)
(-0.00534752 0.00182189 0)
(0.00462385 -0.0307644 0)
(0.0143542 -0.0653552 0)
(0.0256752 -0.10338 0)
(0.0373524 -0.140931 0)
(0.0480681 -0.172225 0)
(0.0571972 -0.192402 0)
(0.0647191 -0.199843 0)
(0.0704553 -0.195363 0)
(0.0744048 -0.181115 0)
(0.077078 -0.16 0)
(0.0783948 -0.136003 0)
(0.0779824 -0.111015 0)
(0.0764264 -0.0865349 0)
(0.074567 -0.0640253 0)
(0.0729372 -0.04448 0)
(0.0716801 -0.0282722 0)
(0.0706623 -0.0151175 0)
(0.0696834 -0.00431509 0)
(0.0684517 0.00491472 0)
(0.067059 0.0131591 0)
(0.0654697 0.0209091 0)
(0.0637495 0.0285941 0)
(0.0620672 0.0365661 0)
(0.0607059 0.0451027 0)
(0.060523 0.0546381 0)
(0.0613885 0.0650625 0)
(0.0701194 0.0778415 0)
(0.0803435 0.0804 0)
(0.0819591 0.0599646 0)
(0.239315 0.0563488 0)
(-0.542087 0.234944 0)
(1.0113 0.506783 0)
(-0.1371 0.296315 0)
(0.0411001 0.161468 0)
(0.0406526 0.122014 0)
(0.0131338 0.0919017 0)
(0.00871331 0.0652942 0)
(0.0141453 0.0413227 0)
(0.020779 0.0169172 0)
(0.0325918 -0.0110732 0)
(0.0440646 -0.0421905 0)
(0.0559529 -0.0769569 0)
(0.0682541 -0.114711 0)
(0.0794223 -0.151205 0)
(0.0879529 -0.180681 0)
(0.0931965 -0.198683 0)
(0.0952617 -0.203796 0)
(0.0945528 -0.197079 0)
(0.0916149 -0.180972 0)
(0.0871241 -0.158537 0)
(0.0815333 -0.133097 0)
(0.0751417 -0.107088 0)
(0.0685573 -0.082328 0)
(0.0625123 -0.0601655 0)
(0.0575375 -0.041319 0)
(0.0538342 -0.0258677 0)
(0.0513042 -0.0133097 0)
(0.0496743 -0.00286343 0)
(0.0485437 0.00617232 0)
(0.0478569 0.0143088 0)
(0.0473748 0.0219948 0)
(0.0470242 0.0295761 0)
(0.0468212 0.0372817 0)
(0.0468504 0.0452166 0)
(0.0474869 0.0534173 0)
(0.0486463 0.0614065 0)
(0.0539462 0.069079 0)
(0.0641955 0.0655677 0)
(0.061408 0.0343906 0)
(0.286639 0.070005 0)
(-0.749367 0.308799 0)
(0.779319 0.395608 0)
(0.000986093 0.319435 0)
(0.0934449 0.218864 0)
(0.110682 0.155094 0)
(0.0772515 0.106728 0)
(0.0598676 0.0674413 0)
(0.0582903 0.0356564 0)
(0.0624688 0.00631475 0)
(0.0739108 -0.0235198 0)
(0.0854989 -0.0551177 0)
(0.0977162 -0.0898353 0)
(0.109607 -0.126372 0)
(0.119008 -0.160186 0)
(0.124132 -0.185907 0)
(0.124378 -0.199947 0)
(0.120168 -0.201476 0)
(0.112452 -0.191874 0)
(0.102299 -0.173707 0)
(0.0907496 -0.150023 0)
(0.0786439 -0.123866 0)
(0.0666756 -0.0977799 0)
(0.0555851 -0.0736803 0)
(0.046112 -0.0528129 0)
(0.0387479 -0.0356178 0)
(0.0336169 -0.0218729 0)
(0.0304885 -0.0107868 0)
(0.0288978 -0.00143578 0)
(0.0283678 0.00682477 0)
(0.0285913 0.0144546 0)
(0.0292175 0.0218339 0)
(0.0300792 0.0292151 0)
(0.0310552 0.0367562 0)
(0.0319915 0.0445273 0)
(0.032678 0.0525347 0)
(0.0320681 0.0604768 0)
(0.0300109 0.06814 0)
(0.0141349 0.0700143 0)
(0.00170696 0.102749 0)
(0.0128136 0.178621 0)
(-0.637207 0.299608 0)
(0.617236 0.220603 0)
(0.00477335 0.298013 0)
(0.11307 0.241486 0)
(0.148354 0.177468 0)
(0.130932 0.123392 0)
(0.117915 0.077701 0)
(0.115062 0.0387537 0)
(0.117244 0.00326227 0)
(0.123626 -0.0308403 0)
(0.131873 -0.0651135 0)
(0.141583 -0.100609 0)
(0.15049 -0.135511 0)
(0.155646 -0.165415 0)
(0.155115 -0.185955 0)
(0.148581 -0.194808 0)
(0.136942 -0.192003 0)
(0.121663 -0.179298 0)
(0.104245 -0.159283 0)
(0.0860558 -0.134886 0)
(0.0681961 -0.108903 0)
(0.0516136 -0.083831 0)
(0.0371912 -0.0615393 0)
(0.0257006 -0.0431255 0)
(0.0174684 -0.0286497 0)
(0.0123264 -0.0175001 0)
(0.00964125 -0.00849882 0)
(0.00869336 -0.000645429 0)
(0.00902112 0.00659319 0)
(0.0101172 0.0135755 0)
(0.0117001 0.020568 0)
(0.0135959 0.0277366 0)
(0.0156323 0.0352342 0)
(0.0175468 0.043249 0)
(0.0188963 0.0521079 0)
(0.0184743 0.0623592 0)
(0.0153857 0.0757355 0)
(-0.00977181 0.0994671 0)
(-0.00946304 0.154765 0)
(0.0224891 0.185304 0)
(-0.54183 0.16315 0)
(0.570784 0.118205 0)
(-0.0202945 0.258511 0)
(0.113699 0.229827 0)
(0.165054 0.175966 0)
(0.166738 0.126053 0)
(0.164422 0.0809463 0)
(0.165432 0.0398124 0)
(0.168392 0.00147036 0)
(0.172363 -0.0355332 0)
(0.177954 -0.0720348 0)
(0.184144 -0.107705 0)
(0.187862 -0.139783 0)
(0.186082 -0.164368 0)
(0.177421 -0.178615 0)
(0.162325 -0.181717 0)
(0.142334 -0.17457 0)
(0.119376 -0.159217 0)
(0.0952001 -0.138113 0)
(0.071393 -0.113996 0)
(0.049164 -0.0893654 0)
(0.029683 -0.0666429 0)
(0.0139644 -0.0475769 0)
(0.00268269 -0.0329536 0)
(-0.00445208 -0.0220634 0)
(-0.00815183 -0.0140163 0)
(-0.0097503 -0.00716175 0)
(-0.00991034 -0.000765669 0)
(-0.00891728 0.00548792 0)
(-0.00723426 0.0118033 0)
(-0.00498354 0.0183317 0)
(-0.00230181 0.0251861 0)
(0.000719079 0.0326114 0)
(0.00388261 0.0408679 0)
(0.00691957 0.050597 0)
(0.00919186 0.0632368 0)
(0.011242 0.0821878 0)
(-0.00166025 0.11631 0)
(-0.0100226 0.183825 0)
(0.138556 0.202427 0)
(-0.469696 0.0839895 0)
(0.628478 0.0534895 0)
(0.0090253 0.197239 0)
(0.113698 0.196893 0)
(0.17503 0.157824 0)
(0.191316 0.117533 0)
(0.198014 0.0770881 0)
(0.203386 0.0370754 0)
(0.208624 -0.00170351 0)
(0.213148 -0.0398283 0)
(0.217473 -0.0766736 0)
(0.21931 -0.110099 0)
(0.215502 -0.136938 0)
(0.204157 -0.15456 0)
(0.185367 -0.161946 0)
(0.160744 -0.159643 0)
(0.132449 -0.14906 0)
(0.102708 -0.13227 0)
(0.0732187 -0.111384 0)
(0.0457386 -0.0889516 0)
(0.0214013 -0.0671436 0)
(0.00180414 -0.0483754 0)
(-0.0120889 -0.0342717 0)
(-0.0202698 -0.0248811 0)
(-0.0248614 -0.0179314 0)
(-0.0270735 -0.0121791 0)
(-0.02777 -0.00682659 0)
(-0.0273534 -0.00151829 0)
(-0.0259438 0.00391636 0)
(-0.0238995 0.00958549 0)
(-0.0212326 0.0155826 0)
(-0.0180539 0.0219908 0)
(-0.0144151 0.0289896 0)
(-0.0103211 0.0369168 0)
(-0.00575414 0.0464849 0)
(-0.00101986 0.0597405 0)
(0.00442982 0.0820513 0)
(0.00404977 0.116998 0)
(-0.0050155 0.174636 0)
(0.180713 0.198379 0)
(-0.356261 0.134903 0)
(0.472365 0.0748212 0)
(-0.132293 0.137508 0)
(0.094121 0.133176 0)
(0.17259 0.116633 0)
(0.203724 0.0951335 0)
(0.21805 0.0641523 0)
(0.228075 0.0281384 0)
(0.237173 -0.00918815 0)
(0.243559 -0.0454937 0)
(0.245065 -0.0784167 0)
(0.239092 -0.105305 0)
(0.224292 -0.124078 0)
(0.201192 -0.133853 0)
(0.171713 -0.135053 0)
(0.138431 -0.128915 0)
(0.103626 -0.116711 0)
(0.0695695 -0.100293 0)
(0.0374374 -0.0812966 0)
(0.00955874 -0.0622515 0)
(-0.0135098 -0.0450069 0)
(-0.0280885 -0.0334759 0)
(-0.0371133 -0.0256769 0)
(-0.042252 -0.0200957 0)
(-0.045045 -0.0154911 0)
(-0.0462527 -0.0112753 0)
(-0.0462974 -0.00707316 0)
(-0.0453957 -0.00268706 0)
(-0.043582 0.00201141 0)
(-0.041246 0.00705994 0)
(-0.0383297 0.0125217 0)
(-0.0349729 0.0184787 0)
(-0.0313048 0.0250497 0)
(-0.0273991 0.0324922 0)
(-0.0233405 0.0416438 0)
(-0.0199511 0.0555816 0)
(-0.0177383 0.0786592 0)
(-0.0146016 0.10537 0)
(-0.0123292 0.134614 0)
(0.191166 0.173045 0)
(-0.360132 0.199512 0)
(0.723968 0.134523 0)
(0.0819537 0.115258 0)
(0.149728 0.0991326 0)
(0.222327 0.0803099 0)
(0.243992 0.0696732 0)
(0.248814 0.047374 0)
(0.255136 0.0172712 0)
(0.261227 -0.014922 0)
(0.260218 -0.0448761 0)
(0.24969 -0.0696989 0)
(0.229427 -0.0876856 0)
(0.201028 -0.098337 0)
(0.166887 -0.101928 0)
(0.12956 -0.0994279 0)
(0.0915339 -0.0920711 0)
(0.0542465 -0.0805282 0)
(0.0203 -0.0664198 0)
(-0.0107263 -0.0508722 0)
(-0.0330574 -0.038558 0)
(-0.0480877 -0.0299244 0)
(-0.0572741 -0.0243891 0)
(-0.0628711 -0.0203981 0)
(-0.0661917 -0.0171405 0)
(-0.0679932 -0.0141095 0)
(-0.0685991 -0.0110781 0)
(-0.0681699 -0.00787149 0)
(-0.0668045 -0.00432816 0)
(-0.0645556 -0.000289635 0)
(-0.0617364 0.00427457 0)
(-0.058604 0.00937834 0)
(-0.055268 0.0151567 0)
(-0.0521377 0.021789 0)
(-0.0497228 0.0297117 0)
(-0.0484376 0.0402305 0)
(-0.0491715 0.0563233 0)
(-0.0543118 0.0791739 0)
(-0.0599319 0.0996997 0)
(-0.0425308 0.113298 0)
(0.0661168 0.163196 0)
(-0.469345 0.238702 0)
(0.19215 0.0879373 0)
(0.225939 0.0996363 0)
(0.24667 0.069889 0)
(0.242717 0.0395178 0)
(0.239831 0.0119124 0)
(0.234737 -0.0129689 0)
(0.219935 -0.0333701 0)
(0.196155 -0.0485286 0)
(0.16577 -0.0584207 0)
(0.13126 -0.0634716 0)
(0.0944454 -0.0639638 0)
(0.0573035 -0.0606053 0)
(0.0217619 -0.0542193 0)
(-0.0127951 -0.0449067 0)
(-0.0397707 -0.0358683 0)
(-0.0600982 -0.0284498 0)
(-0.0738549 -0.0236062 0)
(-0.0828348 -0.0204909 0)
(-0.0887134 -0.0183645 0)
(-0.0927168 -0.0165136 0)
(-0.0953987 -0.0147198 0)
(-0.0969881 -0.0128872 0)
(-0.0975569 -0.0109343 0)
(-0.0971178 -0.00873792 0)
(-0.0956643 -0.00612502 0)
(-0.0931876 -0.00287548 0)
(-0.0896369 0.0012085 0)
(-0.0857833 0.00615255 0)
(-0.0818132 0.0120996 0)
(-0.0782144 0.0194507 0)
(-0.0756881 0.0288927 0)
(-0.0743984 0.041806 0)
(-0.0746212 0.0605086 0)
(-0.0808314 0.0862865 0)
(-0.092862 0.113725 0)
(-0.0849996 0.131857 0)
(-0.0987467 0.14564 0)
(-0.564416 0.1543 0)
(0.451638 0.209179 0)
(0.207329 0.178519 0)
(0.153473 0.118681 0)
(0.140061 0.0639703 0)
(0.128441 0.0259003 0)
(0.114143 0.00188997 0)
(0.0986859 -0.0128227 0)
(0.0775629 -0.0220188 0)
(0.0528366 -0.0278025 0)
(0.0256904 -0.0305348 0)
(-0.0040407 -0.0301215 0)
(-0.0328439 -0.0274858 0)
(-0.0582929 -0.0238411 0)
(-0.0794631 -0.0202111 0)
(-0.0951398 -0.0177287 0)
(-0.106195 -0.0160674 0)
(-0.113912 -0.014993 0)
(-0.1197 -0.013941 0)
(-0.124331 -0.0128004 0)
(-0.128093 -0.0116174 0)
(-0.131032 -0.010489 0)
(-0.133124 -0.00946199 0)
(-0.134307 -0.0085281 0)
(-0.134481 -0.00761623 0)
(-0.133493 -0.0065607 0)
(-0.131164 -0.00504915 0)
(-0.127321 -0.00261096 0)
(-0.121791 0.0012668 0)
(-0.11551 0.00688092 0)
(-0.10939 0.0145176 0)
(-0.103625 0.024911 0)
(-0.097853 0.0391749 0)
(-0.0904054 0.0589158 0)
(-0.0819639 0.0859546 0)
(-0.0756715 0.1212 0)
(-0.0477481 0.157712 0)
(0.0577842 0.150982 0)
(-0.544014 0.0120438 0)
(0.363623 -0.412735 0)
(-0.345437 -0.512554 0)
(-0.218668 -0.0287783 0)
(-0.0922834 0.110714 0)
(-0.0532266 0.0926799 0)
(-0.0310482 0.0548367 0)
(-0.0263648 0.0287948 0)
(-0.0315189 0.0121081 0)
(-0.040527 0.00125172 0)
(-0.0510708 -0.00598125 0)
(-0.0646715 -0.0105324 0)
(-0.0799784 -0.0131363 0)
(-0.0957077 -0.0149502 0)
(-0.11063 -0.0170246 0)
(-0.123562 -0.0195379 0)
(-0.133573 -0.0222352 0)
(-0.140765 -0.0247573 0)
(-0.146271 -0.0265843 0)
(-0.151138 -0.0277698 0)
(-0.155871 -0.0284542 0)
(-0.160487 -0.0287464 0)
(-0.164814 -0.0286859 0)
(-0.168652 -0.028283 0)
(-0.171824 -0.027531 0)
(-0.174157 -0.0264124 0)
(-0.175432 -0.0248925 0)
(-0.175362 -0.0228964 0)
(-0.173618 -0.0202609 0)
(-0.169926 -0.016663 0)
(-0.164161 -0.0115737 0)
(-0.156272 -0.00434226 0)
(-0.146671 0.00546489 0)
(-0.136807 0.0177917 0)
(-0.125697 0.0323693 0)
(-0.110583 0.0496792 0)
(-0.0884449 0.0701457 0)
(-0.0592034 0.0949343 0)
(-0.0180796 0.128309 0)
(0.158617 0.135848 0)
(-0.407339 0.0639307 0)
(0.125382 -0.184177 0)
(-0.386997 -0.29707 0)
(-0.342687 -0.0968525 0)
(-0.264424 0.0512139 0)
(-0.21077 0.0835348 0)
(-0.178656 0.0747164 0)
(-0.162375 0.0612763 0)
(-0.15637 0.0512929 0)
(-0.156429 0.0460388 0)
(-0.159689 0.0452772 0)
(-0.164169 0.0481214 0)
(-0.168319 0.0533359 0)
(-0.171552 0.0596012 0)
(-0.173738 0.0648342 0)
(-0.17545 0.0672601 0)
(-0.177326 0.0677407 0)
(-0.179863 0.0675888 0)
(-0.183032 0.0677777 0)
(-0.186548 0.0682789 0)
(-0.190148 0.0686418 0)
(-0.193642 0.0684535 0)
(-0.196901 0.0674736 0)
(-0.199835 0.0655869 0)
(-0.202368 0.0627205 0)
(-0.204424 0.0587737 0)
(-0.205911 0.0536265 0)
(-0.206712 0.0472691 0)
(-0.206696 0.0399995 0)
(-0.205718 0.0325363 0)
(-0.203585 0.0259105 0)
(-0.199956 0.0211835 0)
(-0.194098 0.0191119 0)
(-0.184366 0.0197496 0)
(-0.171417 0.0220923 0)
(-0.154136 0.0254566 0)
(-0.128436 0.0281616 0)
(-0.0893831 0.0271729 0)
(-0.0319928 0.0287879 0)
(0.174492 0.0706028 0)
(-0.39321 0.121538 0)
(1.1462 -0.0110708 0)
(-0.29402 -0.32224 0)
(-0.352437 -0.233414 0)
(-0.351777 -0.149066 0)
(-0.328116 -0.107637 0)
(-0.296364 -0.0989304 0)
(-0.268846 -0.100997 0)
(-0.248677 -0.10659 0)
(-0.234963 -0.114212 0)
(-0.225793 -0.123981 0)
(-0.219534 -0.136328 0)
(-0.215147 -0.151173 0)
(-0.212095 -0.166956 0)
(-0.210287 -0.180627 0)
(-0.210005 -0.189362 0)
(-0.211461 -0.193566 0)
(-0.214222 -0.194503 0)
(-0.21761 -0.193787 0)
(-0.221061 -0.192414 0)
(-0.224332 -0.190741 0)
(-0.227459 -0.188772 0)
(-0.230634 -0.186347 0)
(-0.234104 -0.183247 0)
(-0.238122 -0.179232 0)
(-0.242949 -0.17408 0)
(-0.248888 -0.167588 0)
(-0.256274 -0.159559 0)
(-0.265353 -0.149773 0)
(-0.276028 -0.138012 0)
(-0.287574 -0.124137 0)
(-0.298499 -0.108182 0)
(-0.306707 -0.0903944 0)
(-0.30984 -0.0712759 0)
(-0.305347 -0.0517534 0)
(-0.293952 -0.0340893 0)
(-0.276751 -0.0190364 0)
(-0.248368 -0.00436352 0)
(-0.199476 0.0200271 0)
(-0.177007 0.0684934 0)
(-0.570479 0.12845 0)
)
;

boundaryField
{
    floor
    {
        type            noSlip;
    }
    ceiling
    {
        type            noSlip;
    }
    sWall
    {
        type            noSlip;
    }
    nWall
    {
        type            noSlip;
    }
    sideWalls
    {
        type            empty;
    }
    glass1
    {
        type            noSlip;
    }
    glass2
    {
        type            noSlip;
    }
    sun
    {
        type            noSlip;
    }
    Table_master
    {
        type            noSlip;
    }
    Table_slave
    {
        type            noSlip;
    }
    inlet
    {
        type            fixedValue;
        value           uniform (0.5 0 0);
    }
    outlet
    {
        type            zeroGradient;
    }
}


// ************************************************************************* //
