/*--------------------------------*- C++ -*----------------------------------*\
  =========                 |
  \\      /  F ield         | OpenFOAM: The Open Source CFD Toolbox
   \\    /   O peration     | Website:  https://openfoam.org
    \\  /    A nd           | Version:  6
     \\/     M anipulation  |
\*---------------------------------------------------------------------------*/
FoamFile
{
    version     2.0;
    format      ascii;
    class       volScalarField;
    location    "36399.9999984285314";
    object      epsilon;
}
// * * * * * * * * * * * * * * * * * * * * * * * * * * * * * * * * * * * * * //

dimensions      [0 2 -3 0 0 0 0];

internalField   nonuniform List<scalar> 
778
(
0.000253116
0.000306332
0.000302975
0.000344147
0.000385018
0.000424842
0.000464313
0.000504621
0.000547499
0.000595666
0.000644172
0.000692621
0.000742656
0.00079907
0.000860884
8.94963e-05
0.00026264
0.000269128
0.00025011
0.000220289
0.000184245
0.000152447
0.000126594
0.000105955
8.94794e-05
7.63253e-05
6.56703e-05
5.68716e-05
4.94021e-05
4.27897e-05
3.65355e-05
3.18284e-05
2.36056e-05
0.000796993
0.00144318
0.00028698
0.000259588
0.000261695
0.000267678
0.000276587
0.000290034
0.000310312
0.00034055
0.000379814
0.000430996
0.000499464
0.000600769
0.000786036
0.00112987
0.000979219
0.000858759
0.000511691
0.000369404
0.000294208
0.000242932
0.00020414
0.000187018
0.000154805
0.000125078
0.000100743
8.15156e-05
6.65428e-05
5.48333e-05
4.56405e-05
3.87164e-05
3.45261e-05
3.27693e-05
6.5773e-05
4.80868e-05
0.00163063
0.00407899
0.000407378
0.000242929
0.000229112
0.000231034
0.000238261
0.000250543
0.000268467
0.000292764
0.000324923
0.000367027
0.000421453
0.000495204
0.000601632
0.000724944
0.000830189
0.00158448
0.00102789
0.000512282
0.000367704
0.000294316
0.000262161
0.000551538
0.00036271
0.000250838
0.000181417
0.000136354
0.000105962
8.4808e-05
6.98403e-05
5.94775e-05
4.51441e-05
3.79885e-05
0.000108092
7.07718e-05
0.00285353
0.00877009
0.00070984
0.000240723
0.000202485
0.00020003
0.000203212
0.00020985
0.000220681
0.000237616
0.000263328
0.000300101
0.00034934
0.000412491
0.000488172
0.000560354
0.000612601
0.000824775
0.00156537
0.000728779
0.000459713
0.000358262
0.000301902
0.000291824
0.00081412
0.000612674
0.000481906
0.00038853
0.000319167
0.000264369
0.000218804
0.000179053
0.000141877
8.38164e-05
5.49088e-05
0.000148387
9.44404e-05
0.00454601
0.0158265
0.00134623
0.000258335
0.000175734
0.0001668
0.000165819
0.000167805
0.000173977
0.000187493
0.000211751
0.000248451
0.000297883
0.000359431
0.000427889
0.000489249
0.000528671
0.000582652
0.000627844
0.000483331
0.000393561
0.000331066
0.000282312
0.000248634
0.000247845
0.000226789
0.000202956
0.000181096
0.000162725
0.000146565
0.00013189
0.000118282
0.000105103
8.45026e-05
6.42313e-05
0.000105077
0.000138734
0.000159896
0.000362582
0.000319584
0.00676355
0.0248766
0.0025531
0.000318048
0.000155533
0.000137069
0.00013214
0.000130715
0.000134489
0.000148578
0.000176731
0.000218103
0.000270826
0.000334125
0.000401734
0.000462614
0.000503053
0.000521829
0.000505005
0.00043842
0.000373934
0.000315715
0.000264778
0.000223409
0.000193306
0.000169643
0.000150828
0.000135645
0.000123318
0.000112773
0.000103313
9.45337e-05
8.60644e-05
7.58872e-05
6.53823e-05
7.75645e-05
9.96421e-05
0.000209409
0.00106637
0.000548288
0.00967181
0.0336349
0.00458286
0.000464928
0.000150834
0.000116344
0.000107099
0.000103303
0.000107103
0.000127926
0.000166118
0.000215851
0.000273238
0.000339931
0.000409201
0.000470346
0.000510138
0.000520514
0.000494451
0.000437762
0.000371938
0.000307536
0.000250579
0.000204457
0.000169759
0.000144563
0.00012633
0.000112744
0.000102296
9.37358e-05
8.62442e-05
7.93512e-05
7.27759e-05
6.6104e-05
6.03643e-05
6.3783e-05
7.66489e-05
0.000172757
0.00158622
0.000894755
0.0127585
0.0404044
0.00748852
0.000871118
0.000194269
0.00011539
9.74082e-05
9.1494e-05
9.86958e-05
0.000137757
0.000189293
0.000246195
0.000306902
0.000373607
0.000444519
0.00050783
0.000547266
0.000550941
0.000515785
0.000451644
0.000375558
0.000300963
0.000236463
0.000185947
0.000149302
0.00012397
0.0001067
9.4563e-05
8.57447e-05
7.8831e-05
7.29345e-05
6.75637e-05
6.24801e-05
5.76591e-05
5.40313e-05
5.58938e-05
6.98194e-05
0.000342597
0.00554112
0.00198541
0.0138275
0.0414611
0.0139292
0.00316179
0.000629606
0.000208013
0.000132754
0.000116094
0.000142609
0.00019308
0.000249376
0.000306386
0.000367165
0.000436302
0.000510653
0.000575339
0.00061066
0.000603083
0.000552177
0.00047098
0.000378438
0.000290808
0.000218143
0.000163934
0.000126721
0.00010257
8.7256e-05
7.73186e-05
7.06563e-05
6.56836e-05
6.15039e-05
5.76739e-05
5.40242e-05
5.06689e-05
4.85642e-05
5.25683e-05
9.39244e-05
0.000962365
0.0137067
0.00292373
0.013005
0.0283739
0.0144144
0.0057247
0.0021035
0.000834604
0.000413981
0.000277231
0.000279419
0.00031496
0.000356322
0.000401749
0.000458364
0.000530405
0.000609323
0.000673348
0.000698262
0.000670447
0.000593772
0.000486624
0.000372459
0.000270431
0.000190906
0.000135594
0.000100583
7.98195e-05
6.79201e-05
6.11439e-05
5.70726e-05
5.41426e-05
5.16059e-05
4.91591e-05
4.67567e-05
4.46966e-05
4.45661e-05
5.67001e-05
0.000194266
0.00238205
0.011734
0.00311303
0.0106905
0.0193594
0.0120386
0.00629948
0.00317407
0.00167478
0.000987096
0.000679554
0.000560623
0.000517868
0.000510766
0.000531513
0.000583354
0.000661992
0.000746445
0.000804126
0.000806719
0.000743914
0.000628004
0.000485891
0.000347151
0.000233074
0.000152122
0.000101581
7.34691e-05
5.87515e-05
5.13006e-05
4.78742e-05
4.60743e-05
4.47564e-05
4.34441e-05
4.19915e-05
4.04999e-05
3.96621e-05
4.33018e-05
8.1855e-05
0.000470708
0.00270551
0.0090152
0.00303853
0.00807282
0.0137703
0.00969181
0.00593292
0.00356945
0.00222744
0.00149094
0.00109328
0.000869734
0.000744024
0.000686225
0.000690085
0.000749901
0.000843477
0.000930673
0.000967154
0.000925489
0.000805692
0.000635047
0.000451906
0.000292279
0.000176675
0.000106621
6.92971e-05
5.24132e-05
4.42968e-05
4.04601e-05
3.90428e-05
3.84526e-05
3.80007e-05
3.73952e-05
3.65697e-05
3.57552e-05
3.64083e-05
4.94592e-05
0.000175232
0.000841006
0.00277218
0.00667132
0.00276394
0.00612298
0.0101642
0.0077888
0.00531159
0.00356982
0.002469
0.00178799
0.00136839
0.00109323
0.000926413
0.000859444
0.000886246
0.000981329
0.0010951
0.00116705
0.00114864
0.0010269
0.000822792
0.000586822
0.000368312
0.000207316
0.000114062
7.19196e-05
5.22542e-05
4.2863e-05
3.80578e-05
3.56474e-05
3.47645e-05
3.44608e-05
3.43016e-05
3.41065e-05
3.38892e-05
3.41035e-05
3.75829e-05
6.42001e-05
0.000240568
0.000955661
0.00267331
0.00549736
0.0025157
0.00617883
0.00780624
0.00680016
0.00473742
0.00336441
0.00246164
0.00186535
0.00146214
0.00119469
0.00106489
0.00107019
0.00117875
0.00132607
0.00143328
0.00143464
0.00129938
0.00105288
0.000744528
0.000457279
0.000238264
0.000130816
8.18334e-05
6.02662e-05
4.96108e-05
4.34432e-05
3.94241e-05
3.68401e-05
3.55637e-05
3.50704e-05
3.50735e-05
3.55323e-05
3.66107e-05
3.89677e-05
4.58741e-05
7.55206e-05
0.000220591
0.000776957
0.00215591
0.00527382
0.00268301
0.00454392
0.00511107
0.00418359
0.00336097
0.00263915
0.00206966
0.00164868
0.0013618
0.00124534
0.00130087
0.00147688
0.0016825
0.00181743
0.00180907
0.00163289
0.00130348
0.000914353
0.000522301
0.00027992
0.000155585
0.000102585
8.01569e-05
6.90353e-05
6.17537e-05
5.58748e-05
5.08195e-05
4.6821e-05
4.4491e-05
4.38515e-05
4.47894e-05
4.76404e-05
5.30114e-05
6.18653e-05
7.70858e-05
0.000111392
0.000219086
0.000601616
0.00190497
0.00406081
0.00315783
0.00140161
0.00143175
0.00143379
0.00135436
0.00131194
0.00142455
0.00170935
0.00204267
0.00230133
0.00239525
0.00227869
0.00196916
0.00152884
0.000984822
0.000573276
0.000315075
0.000189325
0.000137366
0.000116821
0.000106843
9.98657e-05
9.33654e-05
8.66067e-05
7.97419e-05
7.37312e-05
7.02911e-05
7.06687e-05
7.54497e-05
8.60488e-05
0.000104179
0.000131476
0.000170751
0.000232245
0.000352656
0.000660339
0.00204379
0.00341756
0.00328947
0.00118762
0.00171766
0.00195475
0.00231144
0.00276029
0.00316403
0.00334092
0.00330215
0.00307335
0.00267908
0.00211302
0.00149846
0.000969698
0.000572902
0.000344012
0.000237033
0.000195302
0.000179274
0.00017149
0.000165942
0.000160704
0.000154931
0.000148235
0.000140924
0.000134477
0.000131772
0.000135625
0.00014811
0.000172645
0.000213296
0.000274452
0.000362211
0.000490253
0.0006954
0.00108472
0.00224148
0.00401465
0.00332498
0.00742057
0.00805901
0.0048054
0.00340518
0.00374252
0.00415575
0.00416931
0.0039569
0.00359658
0.00313757
0.00262758
0.00208405
0.00153692
0.00105604
0.000699296
0.000480201
0.000373267
0.000328405
0.00030858
0.000297403
0.000289909
0.000284812
0.000281401
0.000278622
0.000275239
0.000270687
0.000266325
0.000266338
0.000274161
0.000293324
0.000328612
0.00038662
0.000476199
0.000610005
0.000808802
0.00111205
0.00160502
0.00247208
0.00388632
0.00288529
0.00650508
0.00512975
0.00437394
0.00462754
0.00454875
0.00428066
0.00369879
0.00305087
0.00246357
0.00196887
0.00156362
0.00123862
0.000986504
0.000804881
0.000688001
0.000617829
0.000570209
0.000536189
0.00051128
0.000494434
0.000486199
0.000487155
0.00049698
0.000514146
0.000536087
0.000559785
0.000582626
0.000603095
0.000624876
0.000654933
0.000700293
0.000768169
0.000867548
0.00101197
0.0012249
0.00154757
0.00205309
0.0029232
0.00413268
0.00280576
0.00535907
0.0033689
0.00331835
0.0036147
0.00387216
0.00353151
0.00292846
0.00231613
0.00179611
0.00138397
0.00106588
0.000826101
0.000653504
0.000539126
0.000471872
0.000438851
0.000429633
0.000430744
0.000439959
0.000457512
0.000483859
0.00051859
0.00056016
0.000606283
0.000654652
0.000703687
0.000753142
0.000804554
0.00085896
0.000919836
0.000992176
0.00108067
0.00118937
0.00132127
0.00147685
0.00165216
0.00184849
0.00213609
0.00264973
0.00258286
)
;

boundaryField
{
    floor
    {
        Cmu             0.09;
        kappa           0.41;
        E               9.8;
        type            epsilonWallFunction;
        value           nonuniform List<scalar> 
36
(
0.000860884
8.94963e-05
0.00026264
0.000269128
0.00025011
0.000220289
0.000184245
0.000152447
0.000126594
0.000105955
8.94794e-05
7.63253e-05
6.56703e-05
5.68716e-05
4.94021e-05
4.27897e-05
3.65355e-05
3.18284e-05
2.36056e-05
2.36056e-05
4.80868e-05
7.07718e-05
9.44404e-05
0.000159896
0.000362582
0.000319584
0.000860884
0.00112987
0.000979219
0.000858759
8.94963e-05
0.000858759
0.000511691
0.00158448
0.00102789
0.00156537
)
;
    }
    ceiling
    {
        Cmu             0.09;
        kappa           0.41;
        E               9.8;
        type            epsilonWallFunction;
        value           nonuniform List<scalar> 
43
(
0.00535907
0.0033689
0.00331835
0.0036147
0.00387216
0.00353151
0.00292846
0.00231613
0.00179611
0.00138397
0.00106588
0.000826101
0.000653504
0.000539126
0.000471872
0.000438851
0.000429633
0.000430744
0.000439959
0.000457512
0.000483859
0.00051859
0.00056016
0.000606283
0.000654652
0.000703687
0.000753142
0.000804554
0.00085896
0.000919836
0.000992176
0.00108067
0.00118937
0.00132127
0.00147685
0.00165216
0.00184849
0.00213609
0.00264973
0.00258286
0.00454392
0.00511107
0.00118762
)
;
    }
    sWall
    {
        Cmu             0.09;
        kappa           0.41;
        E               9.8;
        type            epsilonWallFunction;
        value           nonuniform List<scalar> 9(0.013005 0.0106905 0.00807282 0.00612298 0.00617883 0.00454392 0.00742057 0.00650508 0.00535907);
    }
    nWall
    {
        Cmu             0.09;
        kappa           0.41;
        E               9.8;
        type            epsilonWallFunction;
        value           nonuniform List<scalar> 
14
(
0.000319584
0.000548288
0.000894755
0.00311303
0.00303853
0.00276394
0.0025157
0.00268301
0.00315783
0.00328947
0.00332498
0.00288529
0.00280576
0.00258286
)
;
    }
    sideWalls
    {
        type            empty;
    }
    glass1
    {
        Cmu             0.09;
        kappa           0.41;
        E               9.8;
        type            epsilonWallFunction;
        value           nonuniform List<scalar> 9(0.000253116 0.000796993 0.00163063 0.00285353 0.00454601 0.00676355 0.00967181 0.0127585 0.0138275);
    }
    glass2
    {
        Cmu             0.09;
        kappa           0.41;
        E               9.8;
        type            epsilonWallFunction;
        value           nonuniform List<scalar> 2(0.00198541 0.00292373);
    }
    sun
    {
        Cmu             0.09;
        kappa           0.41;
        E               9.8;
        type            epsilonWallFunction;
        value           nonuniform List<scalar> 
14
(
0.000253116
0.000306332
0.000302975
0.000344147
0.000385018
0.000424842
0.000464313
0.000504621
0.000547499
0.000595666
0.000644172
0.000692621
0.000742656
0.00079907
)
;
    }
    Table_master
    {
        Cmu             0.09;
        kappa           0.41;
        E               9.8;
        type            epsilonWallFunction;
        value           nonuniform List<scalar> 9(0.000551538 0.00036271 0.000250838 0.000181417 0.000136354 0.000105962 8.4808e-05 6.98403e-05 5.94775e-05);
    }
    Table_slave
    {
        Cmu             0.09;
        kappa           0.41;
        E               9.8;
        type            epsilonWallFunction;
        value           nonuniform List<scalar> 9(0.00081412 0.000612674 0.000481906 0.00038853 0.000319167 0.000264369 0.000218804 0.000179053 0.000141877);
    }
    inlet
    {
        type            turbulentMixingLengthDissipationRateInlet;
        mixingLength    0.01;
        phi             phi;
        k               k;
        value           uniform 0.000471671;
    }
    outlet
    {
        type            zeroGradient;
    }
}


// ************************************************************************* //
