/*--------------------------------*- C++ -*----------------------------------*\
  =========                 |
  \\      /  F ield         | OpenFOAM: The Open Source CFD Toolbox
   \\    /   O peration     | Website:  https://openfoam.org
    \\  /    A nd           | Version:  6
     \\/     M anipulation  |
\*---------------------------------------------------------------------------*/
FoamFile
{
    version     2.0;
    format      ascii;
    class       volScalarField;
    location    "100";
    object      alphat;
}
// * * * * * * * * * * * * * * * * * * * * * * * * * * * * * * * * * * * * * //

dimensions      [1 -1 -1 0 0 0 0];

internalField   nonuniform List<scalar> 
459
(
0.000804005
0.000833458
0.000806866
0.000837296
0.000865406
0.000890263
0.000912526
0.000933072
0.000952916
0.000973232
0.000990076
0.00100223
0.0010088
0.00100977
0.00100329
0.000553996
0.000677992
0.000694105
0.000709315
0.000708623
0.000681953
0.000635882
0.000595421
0.000561224
0.000530922
0.000503689
0.000479028
0.000456479
0.000435531
0.000415549
0.000395836
0.000375925
0.000364692
0.000334755
0.00127991
0.0020291
0.00159949
0.00191422
0.00205453
0.00220838
0.00236681
0.00251661
0.00263898
0.00271107
0.00274736
0.0027181
0.00257953
0.00226505
0.00171247
0.00106454
0.000714104
0.000706061
0.00286561
0.00294039
0.00284708
0.0025093
0.00198674
0.0015221
0.00138963
0.00128847
0.00119652
0.00111198
0.00103639
0.000966651
0.00089673
0.000819913
0.000744875
0.000689607
0.000853709
0.000419001
0.001713
0.00317529
0.00170451
0.00269919
0.00291634
0.00306374
0.00318629
0.00328527
0.00336119
0.00340938
0.0034306
0.00339483
0.00326092
0.00297079
0.00247138
0.00180183
0.00112935
0.000909969
0.00342753
0.00345062
0.00304465
0.00244031
0.00162946
0.000625766
0.000510754
0.000462814
0.000434754
0.000412768
0.000393203
0.000375497
0.000360193
0.000351236
0.000491226
0.000613674
0.00114823
0.000504591
0.00214578
0.00480649
0.00172764
0.00302593
0.00342008
0.00354486
0.00362311
0.00367868
0.00372217
0.00375638
0.00378589
0.00379849
0.00377028
0.00365021
0.0033469
0.00275712
0.00190646
0.00118723
0.0024058
0.00342674
0.00322419
0.00268356
0.00211485
0.00138776
0.00071545
0.000694901
0.00069641
0.000704604
0.000712818
0.000714714
0.00070367
0.000674397
0.000643483
0.000680685
0.000743679
0.00137361
0.000604472
0.00256974
0.00681382
0.00214205
0.00289583
0.00365317
0.00379529
0.00384956
0.00387642
0.00389382
0.00391249
0.00393985
0.00399486
0.00408072
0.00418933
0.00429367
0.00434446
0.00428641
0.00405093
0.00373241
0.00333428
0.00287873
0.00256393
0.00244119
0.00246866
0.00256172
0.00269661
0.00282079
0.00290287
0.00295778
0.00296307
0.00290071
0.00274803
0.00235787
0.00193309
0.00156331
0.00141608
0.0010575
0.000721115
0.000837315
0.000956359
0.00298396
0.0088281
0.00337918
0.00251998
0.00355178
0.00385848
0.00396386
0.00399858
0.00398573
0.00395277
0.00393007
0.00396462
0.00404955
0.00418142
0.00434074
0.0044652
0.0044436
0.00417506
0.00368509
0.00312766
0.00270245
0.00248528
0.00241845
0.00247907
0.00264103
0.00281143
0.00298933
0.00314945
0.00326553
0.00333308
0.00334582
0.00329981
0.00312192
0.00277562
0.00234488
0.00181504
0.00146403
0.00116976
0.0015228
0.00101737
0.00339771
0.0104276
0.00595932
0.00291458
0.00267337
0.00322207
0.00370143
0.00400146
0.00412683
0.00397993
0.00388005
0.0038663
0.0039008
0.00397838
0.00408927
0.00418925
0.00418533
0.00398639
0.00358784
0.00311066
0.0027383
0.00252642
0.00241373
0.00239048
0.00249053
0.00263676
0.00280142
0.00296773
0.00311867
0.00324746
0.00334119
0.00341058
0.00344594
0.00327841
0.00292405
0.00247817
0.00211119
0.00195392
0.00192702
0.00121397
0.00351623
0.0109177
0.00818087
0.00571919
0.00394503
0.00320312
0.00328354
0.00366998
0.00401878
0.00391323
0.00379223
0.00372557
0.00370523
0.00371722
0.00374903
0.00378032
0.00376558
0.00364437
0.00339541
0.00308024
0.00280685
0.0026223
0.00248724
0.00238401
0.00241591
0.00253363
0.0026799
0.00282678
0.00296749
0.00310544
0.00324618
0.00341153
0.00363263
0.00387656
0.00376611
0.00370414
0.00390153
0.0042263
0.00471283
0.00175915
0.00344339
0.00420129
0.0045854
0.00460768
0.00427444
0.00384013
0.00352569
0.00338097
0.0033502
0.00334894
0.00336286
0.00338067
0.00339363
0.00339584
0.00338389
0.00335425
0.00329785
0.00320019
0.00305608
0.00288784
0.00274177
0.00265244
0.00257548
0.00243481
0.00238426
0.00246642
0.0025968
0.00271789
0.002818
0.00290028
0.00296486
0.00300838
0.00302681
0.00302299
0.00300674
0.00297287
0.00286928
0.00266968
0.00245619
0.0016429
0.00229564
0.00342672
0.00381598
0.00379365
0.00365628
0.00352349
0.003421
0.00333972
0.00327633
0.00322113
0.00316477
0.00310047
0.00302501
0.00293865
0.0028442
0.00274645
0.00265416
0.00258335
0.00255599
0.00258141
0.00261483
0.00253412
0.0023696
0.0023787
0.00249218
0.00260498
0.00269455
0.00276868
0.00283515
0.00289855
0.00295819
0.00300413
0.00300559
0.00294576
0.00279401
0.00256153
0.0022692
0.00135479
0.00241949
0.00380041
0.00405545
0.00398605
0.00383618
0.00367117
0.0035189
0.00338593
0.00323408
0.0030733
0.0029152
0.00276611
0.00262975
0.00250942
0.00241055
0.00234371
0.00232808
0.00239118
0.0025524
0.00277682
0.00293525
0.00284803
0.00247766
0.00229105
0.00236911
0.00247586
0.00255999
0.00264705
0.00274856
0.00285822
0.00294176
0.00303614
0.00310636
0.0031337
0.00304048
0.00297204
0.00292869
0.00138176
0.00213338
0.00224065
0.00233503
0.00248963
0.00237258
0.00218718
0.00204265
0.00191202
0.00179177
0.00167898
0.00157957
0.00148875
0.00140233
0.00131789
0.00123421
0.00115102
0.00106916
0.000990831
0.000919863
0.000861674
0.000822219
0.000803865
0.000796822
0.000773242
0.000707969
0.000659617
0.00068303
0.000719871
0.000761193
0.000809178
0.000865946
0.000936056
0.00103164
0.00113306
0.00123589
0.00135305
0.00137419
0.00132986
0.001248
0.00115593
)
;

boundaryField
{
    floor
    {
        type            compressible::alphatWallFunction;
        Prt             0.85;
        value           nonuniform List<scalar> 
29
(
0.000142794
7.74828e-05
9.60056e-05
9.83766e-05
0.00010061
0.000100507
9.65853e-05
8.97673e-05
8.37284e-05
7.85848e-05
7.39943e-05
6.98405e-05
6.60544e-05
6.25705e-05
5.93138e-05
5.61886e-05
5.30863e-05
4.99321e-05
4.81397e-05
4.33375e-05
4.33369e-05
5.67098e-05
6.99441e-05
8.50376e-05
0.000142792
7.74819e-05
0.000100101
0.000129576
0.000168439
)
;
    }
    ceiling
    {
        type            compressible::alphatWallFunction;
        Prt             0.85;
        value           nonuniform List<scalar> 
43
(
0.00029453
0.00030837
0.000320489
0.00034027
0.000325352
0.000301542
0.000282828
0.000265788
0.000249989
0.000235063
0.000221817
0.000209635
0.000197963
0.000186482
0.000175021
0.000163538
0.000152145
0.000141148
0.000131096
0.000122785
0.000117112
0.000114459
0.000113433
0.000109995
0.000100449
9.33589e-05
9.68409e-05
0.000102254
0.000108287
0.000115243
0.000123408
0.000133405
0.000146893
0.000161042
0.000175241
0.000191263
0.000194137
0.000188105
0.000176907
0.000164213
0.000459647
0.000551901
0.000331258
)
;
    }
    sWall
    {
        type            compressible::alphatWallFunction;
        Prt             0.85;
        value           uniform 0.000293412;
    }
    nWall
    {
        type            compressible::alphatWallFunction;
        Prt             0.85;
        value           nonuniform List<scalar> 6(0.000135947 0.000144544 0.000171881 0.000191169 0.00019483 0.000163888);
    }
    sideWalls
    {
        type            empty;
    }
    glass1
    {
        type            compressible::alphatWallFunction;
        Prt             0.85;
        value           nonuniform List<scalar> 9(0.00011128 0.000177027 0.000234603 0.000290672 0.000344517 0.000396287 0.000447289 0.0004619 0.000453192);
    }
    glass2
    {
        type            compressible::alphatWallFunction;
        Prt             0.85;
        value           nonuniform List<scalar> 2(0.000243931 0.000228636);
    }
    sun
    {
        type            compressible::alphatWallFunction;
        Prt             0.85;
        value           nonuniform List<scalar> 
14
(
0.0001144
0.00011863
0.000114796
0.000119181
0.000123216
0.00012677
0.000129944
0.000132865
0.000135679
0.000138553
0.00014093
0.000142642
0.000143567
0.000143705
)
;
    }
    heatsource1
    {
        type            compressible::alphatWallFunction;
        Prt             0.85;
        value           nonuniform List<scalar> 3(0.000102407 0.000119274 0.000136257);
    }
    heatsource2
    {
        type            compressible::alphatWallFunction;
        Prt             0.85;
        value           nonuniform List<scalar> 4(0.000151481 0.000101382 0.000101381 0.000160515);
    }
    Table_master
    {
        type            compressible::alphatWallFunction;
        Prt             0.85;
        value           nonuniform List<scalar> 9(8.83664e-05 7.10261e-05 6.36495e-05 5.92872e-05 5.58453e-05 5.27631e-05 4.9957e-05 4.75177e-05 4.60828e-05);
    }
    Table_slave
    {
        type            compressible::alphatWallFunction;
        Prt             0.85;
        value           nonuniform List<scalar> 9(0.00010159 9.85703e-05 9.87917e-05 9.99947e-05 0.000101198 0.000101474 9.98515e-05 9.55407e-05 9.09656e-05);
    }
    inlet
    {
        type            fixedValue;
        value           uniform 1.94e-05;
    }
    outlet
    {
        type            zeroGradient;
    }
}


// ************************************************************************* //
