/*--------------------------------*- C++ -*----------------------------------*\
  =========                 |
  \\      /  F ield         | OpenFOAM: The Open Source CFD Toolbox
   \\    /   O peration     | Website:  https://openfoam.org
    \\  /    A nd           | Version:  6
     \\/     M anipulation  |
\*---------------------------------------------------------------------------*/
FoamFile
{
    version     2.0;
    format      ascii;
    class       volScalarField;
    location    "100";
    object      epsilon;
}
// * * * * * * * * * * * * * * * * * * * * * * * * * * * * * * * * * * * * * //

dimensions      [0 2 -3 0 0 0 0];

internalField   nonuniform List<scalar> 
459
(
0.000118181
0.000131268
0.000119093
0.000133088
0.000146953
0.000159988
0.000172297
0.000184203
0.000196209
0.00020903
0.00022007
0.000228266
0.000232776
0.00023344
0.000228962
3.84782e-05
7.05625e-05
7.57148e-05
8.08094e-05
8.0571e-05
7.18124e-05
5.82201e-05
4.77965e-05
4.00227e-05
3.38814e-05
2.89284e-05
2.48818e-05
2.15288e-05
1.86968e-05
1.62379e-05
1.40333e-05
1.20186e-05
1.09697e-05
8.48343e-06
0.000477824
0.00108754
0.000123414
0.000101548
0.000102611
0.000105557
0.000109842
0.000116411
0.000126292
0.00014034
0.00015653
0.000173541
0.000189196
0.000201025
0.000213784
0.000273462
8.24494e-05
7.95941e-05
0.000111058
6.78649e-05
5.9168e-05
5.45163e-05
5.18099e-05
4.27632e-05
3.41424e-05
2.95141e-05
2.55176e-05
2.1847e-05
1.86218e-05
1.58441e-05
1.34461e-05
1.13785e-05
9.76576e-06
9.0889e-06
2.44101e-05
1.6627e-05
0.00114792
0.00357264
0.000230112
0.000105705
0.000100568
0.000104023
0.000110106
0.000119094
0.000131298
0.000146625
0.00016332
0.000178922
0.000191627
0.000201726
0.000214409
0.000244885
0.000326459
0.000170533
0.000142458
7.77279e-05
5.5877e-05
4.7988e-05
4.83321e-05
5.55234e-05
3.01882e-05
2.24472e-05
1.85993e-05
1.5914e-05
1.37544e-05
1.19775e-05
1.0571e-05
9.80082e-06
9.92229e-06
1.14381e-05
6.99552e-05
2.90287e-05
0.00226068
0.00819046
0.000515156
0.00012269
0.000105986
0.000111741
0.000120907
0.000132899
0.000148004
0.000166367
0.000185826
0.000201349
0.000211141
0.000217539
0.000226256
0.000246737
0.000294466
0.000379164
0.000194727
0.00010537
6.2731e-05
4.4131e-05
4.02238e-05
4.93683e-05
8.2917e-05
7.59617e-05
7.6452e-05
7.91762e-05
8.19691e-05
8.26147e-05
7.88327e-05
6.939e-05
6.02753e-05
4.47333e-05
3.50515e-05
0.000144809
4.98918e-05
0.00388983
0.0148802
0.00117379
0.00015885
0.00011182
0.000119555
0.00013411
0.000153225
0.000177295
0.00020633
0.000235922
0.000255543
0.000263397
0.000263566
0.000260119
0.000253938
0.000241895
0.000206891
0.000131071
7.57306e-05
4.93773e-05
4.03904e-05
3.86083e-05
4.0463e-05
4.56494e-05
4.85222e-05
5.30764e-05
5.76796e-05
6.23716e-05
6.51381e-05
6.35798e-05
5.6575e-05
4.91321e-05
4.30352e-05
3.87007e-05
8.34551e-05
7.51852e-05
8.47863e-05
0.000132837
0.000197948
0.00609994
0.0216561
0.00262464
0.000276328
0.000130872
0.000130794
0.000148654
0.000175987
0.000214292
0.000266926
0.000314643
0.000337437
0.000339389
0.000330517
0.000317043
0.00029706
0.000260653
0.000201089
0.000131529
7.90307e-05
5.40066e-05
4.63761e-05
4.47707e-05
4.37204e-05
4.4085e-05
4.69933e-05
5.36511e-05
6.3691e-05
7.48461e-05
8.57594e-05
9.18599e-05
8.81505e-05
7.16978e-05
5.73568e-05
4.86969e-05
5.97574e-05
6.80902e-05
7.25025e-05
0.00024656
0.000238216
0.00901622
0.0251494
0.00602326
0.00104564
0.000344149
0.000229096
0.000220064
0.000243914
0.000291854
0.000387571
0.00044335
0.000451232
0.000431765
0.000401811
0.000369864
0.000335106
0.000288599
0.000225298
0.000155828
0.000100404
6.98871e-05
5.88513e-05
5.62906e-05
5.2798e-05
4.95471e-05
5.18423e-05
5.98247e-05
7.32624e-05
9.16857e-05
0.000114907
0.000137128
0.000152072
0.000144279
0.000117174
0.000102132
0.000108361
0.00013692
0.000197845
0.000395499
0.000404749
0.0100136
0.0337615
0.0148665
0.00691118
0.00299149
0.0013841
0.000849723
0.000686522
0.000664382
0.000691406
0.000660384
0.00060258
0.000537105
0.000473583
0.000415461
0.00036135
0.000305536
0.000243609
0.000180503
0.000127825
9.30005e-05
7.70776e-05
7.42018e-05
6.90974e-05
6.12945e-05
6.2349e-05
7.17866e-05
8.91075e-05
0.000115103
0.000150388
0.0001945
0.000246284
0.000303032
0.000336524
0.000387144
0.000575017
0.000997957
0.00161099
0.00404361
0.0012336
0.00943048
0.0170782
0.0130838
0.00936545
0.00633453
0.00414359
0.00275247
0.00193552
0.001474
0.00115048
0.000919998
0.000751229
0.000623268
0.000522697
0.000440687
0.000370833
0.000308026
0.000249254
0.0001953
0.000149923
0.000117056
0.000100285
9.9074e-05
9.54842e-05
8.03255e-05
7.77242e-05
8.67758e-05
0.000105307
0.000135327
0.000179491
0.000240614
0.00032149
0.000424735
0.000554019
0.000716877
0.000935722
0.00117998
0.00138788
0.00156846
0.00100616
0.00486214
0.00568973
0.00480979
0.00363693
0.00267707
0.00199118
0.00151812
0.00118315
0.000939927
0.00076026
0.000624539
0.000518959
0.000433804
0.00036248
0.000300944
0.000247386
0.000201898
0.000165872
0.000141534
0.000132016
0.00013801
0.000141922
0.000114016
0.000101597
0.000106308
0.00011878
0.000140202
0.0001733
0.000221116
0.000287576
0.000376944
0.000492525
0.000628327
0.000773501
0.00089096
0.000936747
0.000880278
0.000564003
0.00316348
0.00495519
0.00418275
0.00321041
0.00243606
0.00185897
0.00144105
0.00113957
0.000920314
0.000757952
0.000634322
0.000536724
0.00045673
0.000389294
0.000332124
0.000285206
0.000250328
0.000230434
0.000228502
0.000244586
0.00026834
0.00026824
0.000199932
0.000155353
0.000154804
0.000162265
0.00017378
0.000193158
0.000223955
0.000270481
0.000337168
0.000430533
0.000545122
0.000672581
0.000750512
0.000820705
0.000817374
0.000598287
0.0021821
0.00252701
0.00285994
0.00348728
0.003026
0.00237385
0.00193467
0.00158713
0.00130625
0.00107479
0.000894977
0.000749314
0.000626241
0.000519786
0.000426906
0.000346249
0.000277482
0.000220828
0.000176668
0.000145188
0.000126115
0.000117823
0.000114694
0.000104695
8.02571e-05
6.49779e-05
7.2217e-05
8.45507e-05
9.99716e-05
0.000120104
0.000147206
0.000185938
0.000248908
0.000329735
0.000427875
0.00056155
0.000588314
0.000533212
0.00044068
0.000350289
)
;

boundaryField
{
    floor
    {
        Cmu             0.09;
        kappa           0.41;
        E               9.8;
        type            epsilonWallFunction;
        value           nonuniform List<scalar> 
29
(
0.000228962
3.84782e-05
7.05625e-05
7.57148e-05
8.08094e-05
8.0571e-05
7.18124e-05
5.82201e-05
4.77965e-05
4.00227e-05
3.38814e-05
2.89284e-05
2.48818e-05
2.15288e-05
1.86968e-05
1.62379e-05
1.40333e-05
1.20186e-05
1.09697e-05
8.48343e-06
8.48343e-06
1.6627e-05
2.90287e-05
4.98918e-05
0.000228962
3.84782e-05
7.95941e-05
0.000170533
0.000379164
)
;
    }
    ceiling
    {
        Cmu             0.09;
        kappa           0.41;
        E               9.8;
        type            epsilonWallFunction;
        value           nonuniform List<scalar> 
43
(
0.0021821
0.00252701
0.00285994
0.00348728
0.003026
0.00237385
0.00193467
0.00158713
0.00130625
0.00107479
0.000894977
0.000749314
0.000626241
0.000519786
0.000426906
0.000346249
0.000277482
0.000220828
0.000176668
0.000145188
0.000126115
0.000117823
0.000114694
0.000104695
8.02571e-05
6.49779e-05
7.2217e-05
8.45507e-05
9.99716e-05
0.000120104
0.000147206
0.000185938
0.000248908
0.000329735
0.000427875
0.00056155
0.000588314
0.000533212
0.00044068
0.000350289
0.00943048
0.0170782
0.00316348
)
;
    }
    sWall
    {
        Cmu             0.09;
        kappa           0.41;
        E               9.8;
        type            epsilonWallFunction;
        value           uniform 0.0021821;
    }
    nWall
    {
        Cmu             0.09;
        kappa           0.41;
        E               9.8;
        type            epsilonWallFunction;
        value           nonuniform List<scalar> 6(0.000197948 0.000238216 0.000404749 0.000564003 0.000598287 0.000350289);
    }
    sideWalls
    {
        type            empty;
    }
    glass1
    {
        Cmu             0.09;
        kappa           0.41;
        E               9.8;
        type            epsilonWallFunction;
        value           nonuniform List<scalar> 9(0.000118181 0.000477824 0.00114792 0.00226068 0.00388983 0.00609994 0.00901622 0.0100136 0.00943048);
    }
    glass2
    {
        Cmu             0.09;
        kappa           0.41;
        E               9.8;
        type            epsilonWallFunction;
        value           nonuniform List<scalar> 2(0.0012336 0.00100616);
    }
    sun
    {
        Cmu             0.09;
        kappa           0.41;
        E               9.8;
        type            epsilonWallFunction;
        value           nonuniform List<scalar> 
14
(
0.000118181
0.000131268
0.000119093
0.000133088
0.000146953
0.000159988
0.000172297
0.000184203
0.000196209
0.00020903
0.00022007
0.000228266
0.000232776
0.00023344
)
;
    }
    heatsource1
    {
        Cmu             0.09;
        kappa           0.41;
        E               9.8;
        type            epsilonWallFunction;
        value           nonuniform List<scalar> 3(8.47863e-05 0.000132837 0.000197948);
    }
    heatsource2
    {
        Cmu             0.09;
        kappa           0.41;
        E               9.8;
        type            epsilonWallFunction;
        value           nonuniform List<scalar> 4(0.000273462 8.24494e-05 8.24494e-05 0.000326459);
    }
    Table_master
    {
        Cmu             0.09;
        kappa           0.41;
        E               9.8;
        type            epsilonWallFunction;
        value           nonuniform List<scalar> 9(5.55234e-05 3.01882e-05 2.24472e-05 1.85993e-05 1.5914e-05 1.37544e-05 1.19775e-05 1.0571e-05 9.80082e-06);
    }
    Table_slave
    {
        Cmu             0.09;
        kappa           0.41;
        E               9.8;
        type            epsilonWallFunction;
        value           nonuniform List<scalar> 9(8.2917e-05 7.59617e-05 7.6452e-05 7.91762e-05 8.19691e-05 8.26147e-05 7.88327e-05 6.939e-05 6.02753e-05);
    }
    inlet
    {
        type            turbulentMixingLengthDissipationRateInlet;
        mixingLength    0.01;
        phi             phi;
        k               k;
        value           uniform 0.000101881;
    }
    outlet
    {
        type            zeroGradient;
    }
}


// ************************************************************************* //
