/*--------------------------------*- C++ -*----------------------------------*\
  =========                 |
  \\      /  F ield         | OpenFOAM: The Open Source CFD Toolbox
   \\    /   O peration     | Website:  https://openfoam.org
    \\  /    A nd           | Version:  6
     \\/     M anipulation  |
\*---------------------------------------------------------------------------*/
FoamFile
{
    version     2.0;
    format      ascii;
    class       volScalarField;
    location    "100";
    object      nut;
}
// * * * * * * * * * * * * * * * * * * * * * * * * * * * * * * * * * * * * * //

dimensions      [0 2 -1 0 0 0 0];

internalField   nonuniform List<scalar> 
459
(
0.000693773
0.000718495
0.000695565
0.00072181
0.000746054
0.000767492
0.000786692
0.000804411
0.000821523
0.000839041
0.00085356
0.000864026
0.000869677
0.000870497
0.000864883
0.000477184
0.000583989
0.000597898
0.000611031
0.000610448
0.000587466
0.000547759
0.000512886
0.00048341
0.000457291
0.000433818
0.000412564
0.000393132
0.000375081
0.000357866
0.000340886
0.000323736
0.000314062
0.000288295
0.00110523
0.00174947
0.00137899
0.00165039
0.00177141
0.00190412
0.00204077
0.00216997
0.00227552
0.0023377
0.00236897
0.00234368
0.00222409
0.00195279
0.00147625
0.000917616
0.00061537
0.000608182
0.0024685
0.00253309
0.00245285
0.00216187
0.00171162
0.00131123
0.00119702
0.0011098
0.00103052
0.000957658
0.000892518
0.000832429
0.000772194
0.000706033
0.000641411
0.00059382
0.00073514
0.000360841
0.00148025
0.00273821
0.00146969
0.00232747
0.00251487
0.00264212
0.00274793
0.0028334
0.00289896
0.00294055
0.00295883
0.00292786
0.00281216
0.00256167
0.00213072
0.00155321
0.000973391
0.000783915
0.00295297
0.00297307
0.00262335
0.00210261
0.00140393
0.000539094
0.000439939
0.000398602
0.000374408
0.000355455
0.000338593
0.000323337
0.000310153
0.000302438
0.000422987
0.000528432
0.00098876
0.000434554
0.00185543
0.00414578
0.00148981
0.00260954
0.00294971
0.00305758
0.00312531
0.00317345
0.00321112
0.00324072
0.00326617
0.0032769
0.00325227
0.00314827
0.00288614
0.00237704
0.00164325
0.00102312
0.00207294
0.00295285
0.00277841
0.00231248
0.00182233
0.00119575
0.000616448
0.000598726
0.000600016
0.000607068
0.000614137
0.000615762
0.000606236
0.000581002
0.000554353
0.000586353
0.000640546
0.001183
0.00052059
0.00222336
0.00587869
0.00184738
0.00249759
0.00315112
0.00327406
0.00332122
0.00334472
0.00336
0.00337628
0.00339995
0.00344731
0.0035211
0.00361434
0.00370373
0.00374682
0.00369605
0.0034924
0.00321738
0.00287397
0.00248115
0.00220965
0.0021037
0.00212726
0.00220739
0.00232359
0.00243056
0.00250127
0.00254856
0.00255308
0.00249929
0.00236767
0.00203144
0.00166535
0.00134666
0.0012197
0.000910791
0.00062115
0.000721355
0.000823945
0.00258311
0.00761883
0.00291477
0.0021736
0.00306389
0.00332886
0.00342019
0.00345055
0.00343983
0.00341168
0.00339225
0.00342204
0.00349509
0.00360845
0.00374536
0.00385207
0.00383277
0.00360056
0.00317756
0.00269656
0.00232966
0.00214216
0.00208428
0.00213635
0.00227585
0.00242267
0.00257596
0.00271392
0.00281392
0.00287209
0.00288301
0.00284328
0.00268987
0.00239135
0.00202008
0.00156348
0.00126102
0.00100758
0.00131171
0.000876419
0.00294246
0.00900353
0.00514234
0.00251441
0.00230635
0.00277998
0.0031939
0.00345319
0.00356179
0.00343547
0.00334958
0.00333773
0.00336731
0.00343388
0.00352908
0.00361479
0.00361085
0.0034387
0.00309446
0.00268251
0.00236103
0.00217794
0.00208042
0.00206012
0.00214625
0.00227225
0.00241415
0.00255747
0.00268753
0.00279849
0.00287921
0.00293891
0.00296923
0.00282469
0.00251919
0.00213487
0.00181861
0.0016831
0.00165994
0.0010458
0.0030472
0.0094395
0.00706827
0.00493837
0.00340522
0.00276447
0.00283388
0.00316759
0.00346896
0.00337836
0.00327415
0.00321657
0.00319878
0.00320878
0.00323581
0.00326234
0.00324916
0.00314414
0.00292897
0.00265674
0.00242057
0.00226096
0.00214403
0.00205466
0.00208201
0.00218346
0.00230954
0.00243612
0.00255738
0.00267625
0.00279751
0.00293995
0.00313037
0.00334034
0.00324495
0.00319138
0.00336134
0.00364119
0.00406049
0.00151621
0.00298687
0.00364072
0.0039708
0.00398694
0.00369606
0.00331887
0.00304611
0.00292053
0.00289368
0.00289232
0.00290401
0.00291902
0.00292983
0.00293134
0.00292064
0.00289468
0.00284566
0.00276107
0.00263644
0.00249102
0.00236471
0.00228728
0.00222041
0.0020986
0.00205481
0.00212561
0.002238
0.00234239
0.00242868
0.0024996
0.00255526
0.00259277
0.00260868
0.00260543
0.00259148
0.00256242
0.00247333
0.00230147
0.00211757
0.00141664
0.00196853
0.00295027
0.00329143
0.00327434
0.00315649
0.00304206
0.00295357
0.00288331
0.00282842
0.00278054
0.00273164
0.00267588
0.0026105
0.00253574
0.00245402
0.00236948
0.00228966
0.00222838
0.00220455
0.00222617
0.00225456
0.00218442
0.00204224
0.00205005
0.0021479
0.00224516
0.0023224
0.00238633
0.00244366
0.00249834
0.00254979
0.00258944
0.00259077
0.00253931
0.00240864
0.00220834
0.0019564
0.00116809
0.00207536
0.00327149
0.00349542
0.00343777
0.00330952
0.0031676
0.00303636
0.00292163
0.00279057
0.00265177
0.00251528
0.00238656
0.00226881
0.0021649
0.0020795
0.00202175
0.00200816
0.00206247
0.00220137
0.00239469
0.00253093
0.00245521
0.00213548
0.00197454
0.00204186
0.00213391
0.00220648
0.00228156
0.0023691
0.00246366
0.00253571
0.00261712
0.00267771
0.00270138
0.00262112
0.00256222
0.0025248
0.0011913
0.00183371
0.00192564
0.00200674
0.00214388
0.00204485
0.00188592
0.00176161
0.00164909
0.00154543
0.00144816
0.00136243
0.0012841
0.00120955
0.00113672
0.00106453
0.000992767
0.000922148
0.000854571
0.000793338
0.000743124
0.000709061
0.000693187
0.000687047
0.000666619
0.000610235
0.000568487
0.000588671
0.00062044
0.00065607
0.000697443
0.000746386
0.000806832
0.000889241
0.000976673
0.00106533
0.00116637
0.00118462
0.00114641
0.00107585
0.000996595
)
;

boundaryField
{
    floor
    {
        type            nutkWallFunction;
        Cmu             0.09;
        kappa           0.41;
        E               9.8;
        value           nonuniform List<scalar> 
29
(
0.000104698
5.67931e-05
7.03598e-05
7.20993e-05
7.37385e-05
7.3664e-05
7.07909e-05
6.5795e-05
6.13698e-05
5.76003e-05
5.42361e-05
5.11921e-05
4.84175e-05
4.58645e-05
4.34783e-05
4.11885e-05
3.89157e-05
3.6605e-05
3.5292e-05
3.17749e-05
3.17749e-05
4.15711e-05
5.12652e-05
6.23211e-05
0.000104698
5.6793e-05
7.33617e-05
9.4958e-05
0.000123457
)
;
    }
    ceiling
    {
        type            nutkWallFunction;
        Cmu             0.09;
        kappa           0.41;
        E               9.8;
        value           nonuniform List<scalar> 
43
(
0.000215215
0.000225296
0.000234149
0.000249065
0.000238339
0.00022099
0.000207307
0.000194831
0.000183255
0.000172314
0.000162604
0.000153672
0.000145116
0.000136698
0.000128294
0.000119875
0.000111521
0.000103457
9.60859e-05
8.99906e-05
8.58279e-05
8.3879e-05
8.31198e-05
8.05902e-05
7.35843e-05
6.83827e-05
7.09339e-05
7.49011e-05
7.93221e-05
8.44195e-05
9.04031e-05
9.77285e-05
0.000107612
0.000117981
0.000128386
0.00014013
0.000142238
0.00013782
0.000129615
0.000120326
0.000338787
0.000406424
0.00024158
)
;
    }
    sWall
    {
        type            nutkWallFunction;
        Cmu             0.09;
        kappa           0.41;
        E               9.8;
        value           uniform 0.00021527;
    }
    nWall
    {
        type            nutkWallFunction;
        Cmu             0.09;
        kappa           0.41;
        E               9.8;
        value           nonuniform List<scalar> 6(9.97827e-05 0.000106075 0.000126105 0.000140338 0.000143018 0.000120332);
    }
    sideWalls
    {
        type            empty;
    }
    glass1
    {
        type            nutkWallFunction;
        Cmu             0.09;
        kappa           0.41;
        E               9.8;
        value           nonuniform List<scalar> 9(8.39208e-05 0.000133155 0.000176154 0.000217959 0.000258063 0.000296593 0.000334519 0.000345488 0.000339192);
    }
    glass2
    {
        type            nutkWallFunction;
        Cmu             0.09;
        kappa           0.41;
        E               9.8;
        value           nonuniform List<scalar> 2(0.000180045 0.000168813);
    }
    sun
    {
        type            nutkWallFunction;
        Cmu             0.09;
        kappa           0.41;
        E               9.8;
        value           nonuniform List<scalar> 
14
(
8.39597e-05
8.69909e-05
8.41798e-05
8.73954e-05
9.03535e-05
9.29597e-05
9.52865e-05
9.7428e-05
9.94908e-05
0.000101597
0.000103339
0.000104593
0.00010527
0.000105368
)
;
    }
    heatsource1
    {
        type            nutkWallFunction;
        Cmu             0.09;
        kappa           0.41;
        E               9.8;
        value           nonuniform List<scalar> 3(7.49781e-05 8.73411e-05 9.97813e-05);
    }
    heatsource2
    {
        type            nutkWallFunction;
        Cmu             0.09;
        kappa           0.41;
        E               9.8;
        value           nonuniform List<scalar> 4(0.000110987 7.42592e-05 7.42592e-05 0.000117597);
    }
    Table_master
    {
        type            nutkWallFunction;
        Cmu             0.09;
        kappa           0.41;
        E               9.8;
        value           nonuniform List<scalar> 9(6.47088e-05 5.20023e-05 4.65963e-05 4.33996e-05 4.08779e-05 3.86203e-05 3.65653e-05 3.47792e-05 3.37287e-05);
    }
    Table_slave
    {
        type            nutkWallFunction;
        Cmu             0.09;
        kappa           0.41;
        E               9.8;
        value           nonuniform List<scalar> 9(7.44016e-05 7.21881e-05 7.2349e-05 7.3229e-05 7.41094e-05 7.43104e-05 7.31209e-05 6.99624e-05 6.66101e-05);
    }
    inlet
    {
        type            calculated;
        value           uniform 0.000100623;
    }
    outlet
    {
        type            calculated;
        value           nonuniform List<scalar> 2(0.00183371 0.00192564);
    }
}


// ************************************************************************* //
