/*--------------------------------*- C++ -*----------------------------------*\
  =========                 |
  \\      /  F ield         | OpenFOAM: The Open Source CFD Toolbox
   \\    /   O peration     | Website:  https://openfoam.org
    \\  /    A nd           | Version:  6
     \\/     M anipulation  |
\*---------------------------------------------------------------------------*/
FoamFile
{
    version     2.0;
    format      ascii;
    class       surfaceScalarField;
    location    "100";
    object      phi;
}
// * * * * * * * * * * * * * * * * * * * * * * * * * * * * * * * * * * * * * //

dimensions      [1 0 -1 0 0 0 0];

internalField   nonuniform List<scalar> 
852
(
-0.0024756
0.00253597
-0.00280104
0.000325527
-0.00324529
0.000444344
-0.0037023
0.000457092
-0.004115
0.000412786
-0.00445608
0.000341164
-0.00470418
0.000248176
-0.00483749
0.000133381
-0.00483215
-5.26307e-06
-0.00466019
-0.000171887
-0.00429698
-0.000363144
-0.00372673
-0.00057019
-0.00291718
-0.000809479
-0.00174131
-0.00117582
-0.00173977
-0.00045909
0.000461741
-0.000421552
-3.74754e-05
-0.00021065
-0.000210833
0.000177497
-0.000388076
0.000720077
-0.000542506
0.00119591
-0.000475758
0.00132561
-0.00012963
0.00130299
2.26961e-05
0.00124876
5.43048e-05
0.0011897
5.91253e-05
0.00113525
5.45113e-05
0.00109022
4.50814e-05
0.00105382
3.64518e-05
0.00102008
3.37828e-05
0.000975637
4.44752e-05
0.000905746
6.99198e-05
0.000808218
9.7551e-05
0.000666067
0.000142168
0.000669727
-0.00182251
0.0045176
-0.00245589
0.000958999
-0.00304548
0.00103402
-0.00354455
0.000956241
-0.00397524
0.000843559
-0.00433043
0.000696431
-0.00459528
0.000513105
-0.00475141
0.000289575
-0.00477855
2.19491e-05
-0.00465926
-0.000291112
-0.00437697
-0.000645368
-0.00391893
-0.00102817
-0.00328874
-0.00143961
-0.00258178
-0.00188272
-0.00206777
-0.00225373
0.000120503
-0.00218827
0.000120525
-0.00020576
0.000674166
-0.000405174
0.000162005
-0.000366231
-0.000249709
-0.000106025
-0.000648217
0.000308343
-0.00095681
0.000736281
-0.000903633
0.000828139
-0.000221427
0.00081729
3.36067e-05
0.00080207
6.9585e-05
0.000791933
6.93175e-05
0.000787911
5.85831e-05
0.000787476
4.55608e-05
0.000788347
3.56175e-05
0.000789109
3.30502e-05
0.000771639
6.19695e-05
0.000705971
0.000135607
0.000594005
0.000209531
0.000454182
0.000282003
0.00113354
-0.00136638
0.00612245
-0.00211448
0.00170718
-0.0027273
0.00164693
-0.00321504
0.00144407
-0.00363896
0.00126755
-0.0039983
0.00105585
-0.0042808
0.000795677
-0.00446956
0.000478399
-0.00454644
9.88996e-05
-0.00449674
-0.000340748
-0.00431559
-0.000826451
-0.00401401
-0.0013297
-0.00363168
-0.00182189
-0.00324852
-0.00226582
-0.00293717
-0.00256504
-0.00253447
-0.00259092
-0.00241391
-0.000660379
0.00134365
-0.000794444
0.00029613
-0.000734279
-0.000309816
-0.000554897
-0.000827541
-0.000281486
-0.00123017
0.000364895
-0.00154996
0.00014367
0.000177468
0.000247245
0.000316752
0.000375522
0.000421263
0.000457056
0.000490277
0.000552414
0.000519506
0.000168533
0.000408738
0.000320316
0.000272494
0.000418263
0.00142033
-0.00103706
0.00746267
-0.00180395
0.00247415
-0.0023116
0.00215466
-0.00272669
0.00185924
-0.00310043
0.00164136
-0.00342928
0.00138478
-0.00370303
0.0010695
-0.00390644
0.000681881
-0.00401994
0.000212472
-0.00402622
-0.000334401
-0.00393129
-0.000921323
-0.00377288
-0.00148804
-0.00361231
-0.0019824
-0.0035177
-0.00236037
-0.00351779
-0.00256491
-0.00359302
-0.00251564
-0.00406096
-0.00194593
-0.00314282
-0.000909862
-0.00181863
1.94974e-05
-0.00142495
-9.75047e-05
-0.00116804
-0.000566677
-0.000985973
-0.00100955
-0.000903888
-0.0013122
-0.00115384
-0.00129997
-0.000317774
-0.00083617
0.000265369
-0.000583246
0.000724323
-0.000459056
0.00112725
-0.000403029
0.00148238
-0.000355223
0.00177201
-0.000289731
0.00195331
-0.000181392
0.00196229
-9.0688e-06
0.00174379
0.000218404
0.00141126
0.000501138
0.000930214
0.000801425
0.000266631
0.0010819
0.00170469
-0.000775182
0.00859509
-0.0015133
0.00321235
-0.00181275
0.0024542
-0.00210967
0.00215624
-0.00238739
0.00191916
-0.00263414
0.0016316
-0.00284473
0.00128016
-0.00300999
0.000847212
-0.00311293
0.000315488
-0.00312658
-0.000320682
-0.00305809
-0.000989744
-0.00296225
-0.00158382
-0.0028964
-0.00204818
-0.00289846
-0.00235824
-0.0029757
-0.00248761
-0.00311645
-0.00237484
-0.00315278
-0.00190955
-0.00282394
-0.00123866
-0.00209149
-0.000712912
-0.00153376
-0.000655185
-0.00121223
-0.000888158
-0.00102768
-0.00119405
-0.000918921
-0.0014209
-0.000797462
-0.00142138
-0.000426837
-0.00120676
-1.62489e-06
-0.00100842
0.000394884
-0.000855524
0.000748849
-0.000756952
0.00107437
-0.000680697
0.00136291
-0.000578227
0.00158933
-0.00040776
0.00170881
-0.000128497
0.001685
0.000242265
0.00154124
0.000644958
0.0012874
0.00105533
0.000841571
0.00152779
0.000658918
0.00188738
-0.000737148
0.00139589
-0.00125243
0.000515101
-0.00120621
-0.000680311
0.00967907
-0.00133618
0.0038683
-0.00126776
0.00238587
-0.00139989
0.00228845
-0.00156074
0.00208009
-0.00168821
0.00175915
-0.00178432
0.00137634
-0.00185308
0.000916047
-0.00188912
0.000351601
-0.00185865
-0.000351072
-0.00177976
-0.00106857
-0.00171496
-0.00164854
-0.00170411
-0.00205897
-0.00176141
-0.00230088
-0.00187774
-0.00237121
-0.00200844
-0.00224408
-0.00201651
-0.00190141
-0.00180932
-0.00144579
-0.0014359
-0.00108627
-0.00112279
-0.000968239
-0.000948536
-0.00106235
-0.000866569
-0.00127595
-0.000808205
-0.0014792
-0.000694145
-0.00153539
-0.000484564
-0.0014163
-0.000233014
-0.00125994
4.03974e-05
-0.0011289
0.000314146
-0.00103066
0.000582265
-0.000948778
0.000848365
-0.000844285
0.00110881
-0.000668157
0.00133903
-0.000358671
0.00148196
9.93784e-05
0.00154423
0.000582749
0.00159185
0.00100776
0.00169782
0.00142188
0.00199749
0.00158774
0.00222621
0.0011672
0.00183059
0.00091075
0.000679204
-0.000954208
0.0110775
-0.00111976
0.00403394
-0.000521857
0.00178805
-0.000495661
0.00226233
-0.000590258
0.00217476
-0.000614658
0.00178363
-0.000573272
0.00133503
-0.00049329
0.000836139
-0.000374831
0.000233216
-0.000249625
-0.000476203
-0.000161183
-0.00115693
-0.000147262
-0.00166239
-0.000214966
-0.00199119
-0.000352637
-0.00216313
-0.000533083
-0.00219069
-0.00070258
-0.00207451
-0.000780163
-0.00182376
-0.000725532
-0.00150035
-0.000594238
-0.0012175
-0.000498063
-0.00106434
-0.000495896
-0.00106443
-0.000560068
-0.00121169
-0.000621464
-0.00141772
-0.00061722
-0.00153958
-0.000549008
-0.00148448
-0.000448388
-0.00136053
-0.000327347
-0.00124991
-0.000190205
-0.00116777
-3.57572e-05
-0.00110319
0.000145125
-0.00102513
0.000369111
-0.000892102
0.000653231
-0.000642748
0.00095672
-0.000204062
0.0012306
0.000308918
0.0015095
0.000728913
0.00190171
0.00102973
0.00245167
0.00103783
0.00295026
0.000668652
0.00288609
0.000974957
0.00362237
0.00179456
0.00977669
0.0021616
0.00366698
0.0018166
0.00213313
0.00146047
0.00261855
0.001171
0.00246431
0.00106873
0.00188599
0.00114123
0.0012626
0.00131035
0.000667088
0.00155898
-1.53349e-05
0.00175886
-0.000676014
0.00178701
-0.001185
0.00167623
-0.00155153
0.00147137
-0.00178625
0.00120799
-0.00189967
0.00091894
-0.00190156
0.000645967
-0.00180147
0.000437766
-0.00161548
0.000318125
-0.00138064
0.000256099
-0.0011554
0.000186041
-0.000994206
5.36146e-05
-0.000931922
-0.000149472
-0.0010085
-0.00036237
-0.00120472
-0.000508603
-0.00139327
-0.000596753
-0.00139629
-0.000654198
-0.00130306
-0.000694003
-0.00121008
-0.000723834
-0.00113791
-0.000747341
-0.00107965
-0.00075522
-0.00101721
-0.000722045
-0.000925238
-0.000595086
-0.000769666
-0.000282668
-0.000516435
0.000131764
-0.000105462
0.000525823
0.0003349
0.000925813
0.000629782
0.00130262
0.000661072
0.00150732
0.000463994
0.000912373
0.00156994
0.00478351
0.0103141
0.0139715
0.0108284
0.00527641
0.00878755
0.00465944
0.00722439
0.00402755
0.00616018
0.00295027
0.00551465
0.00190822
0.00514898
0.00103283
0.00482829
0.000305439
0.00445005
-0.000297698
0.00404276
-0.000777632
0.0036145
-0.00112319
0.00317136
-0.00134304
0.00272412
-0.00145235
0.00228861
-0.00146597
0.00188597
-0.00139875
0.00153912
-0.00126855
0.00125956
-0.001101
0.00103399
-0.000929747
0.000828617
-0.000788753
0.00060527
-0.000708486
0.000322206
-0.00072533
-1.89955e-05
-0.000863386
-0.00033885
-0.00107331
-0.00059314
-0.00114196
-0.000809317
-0.00108686
-0.00101062
-0.00100875
-0.00121983
-0.000928683
-0.00145663
-0.00084282
-0.0017378
-0.000736011
-0.00207804
-0.000584964
-0.00248664
-0.000361018
-0.00296406
-3.89775e-05
-0.00346921
0.000399721
-0.00407745
0.000943188
-0.00497091
0.00152327
-0.00629759
0.00198779
-0.00790051
0.00206694
-0.00734651
0.00101596
-0.00228618
0.00621452
0.00518748
0.0056532
0.00522081
0.00592122
0.0037596
0.00610545
0.00276611
0.00613683
0.00187692
0.00608481
0.00108493
0.00593944
0.000450886
0.00567474
-3.29259e-05
0.00529321
-0.000396024
0.00482799
-0.00065789
0.00431472
-0.000829688
0.00378405
-0.000921601
0.00326275
-0.000944597
0.00277402
-0.000909939
0.00233564
-0.000830096
0.00195545
-0.00072074
0.00162754
-0.000601755
0.00133452
-0.000495656
0.00105158
-0.000425458
0.000741826
-0.000415471
0.000363417
-0.000484853
-7.99312e-05
-0.000629819
-0.000479512
-0.000742315
-0.000806213
-0.000760137
-0.00110865
-0.000706299
-0.00141271
-0.000624597
-0.00172205
-0.000533455
-0.0020317
-0.000426331
-0.00232921
-0.000287428
-0.0025964
-9.37959e-05
-0.00282788
0.000192541
-0.00301217
0.000584038
-0.00314589
0.00107694
-0.00319631
0.00157372
-0.00312131
0.00191282
-0.00272953
0.00167519
-0.0014695
-0.000244051
-0.00368347
0.000112647
0.00508644
0.00222758
0.00310593
0.0035005
0.00248675
0.00444013
0.00182654
0.00511511
0.00120201
0.0054988
0.000701305
0.00562842
0.000321342
0.00555542
4.01418e-05
0.00531358
-0.00015411
0.00494687
-0.000291105
0.00449809
-0.000380843
0.00400652
-0.000429958
0.00350661
-0.000444609
0.00302719
-0.000430453
0.00258984
-0.000392672
0.00220566
-0.000336481
0.00187213
-0.000268149
0.00157351
-0.000196959
0.00128571
-0.000137582
0.000979834
-0.000109496
0.000626423
-0.000131326
0.00021349
-0.00021675
-0.000183217
-0.000345508
-0.00051597
-0.000427359
-0.000844469
-0.000377789
-0.00117226
-0.000296787
-0.00146902
-0.000236686
-0.0017176
-0.000177723
-0.00189895
-0.000106062
-0.00198407
-8.64567e-06
-0.00194967
0.000158166
-0.00177924
0.000413641
-0.00144519
0.000742908
-0.000924488
0.00105305
-3.9842e-05
0.0010282
0.00116168
0.000473689
0.00152822
-0.000610575
-0.00207618
-0.00798838
-0.00990252
-0.00480854
-0.001702
0.000782367
0.00260464
0.00380143
0.00449687
0.00481184
0.0048452
0.00468392
0.00438527
0.0039965
0.0035582
0.00310482
0.00266515
0.00226279
0.00191617
0.00163749
0.00142975
0.0012814
0.00116148
0.00102045
0.000794966
0.000441721
7.26575e-06
-0.000377556
-0.000681349
-0.000924944
-0.00110942
-0.00122202
-0.00123695
-0.00108472
-0.000676689
6.08797e-05
0.00110879
0.00213182
0.00260014
0.0019839
)
;

boundaryField
{
    floor
    {
        type            calculated;
        value           nonuniform List<scalar> 
29
(
0
0
0
0
0
0
0
0
0
0
0
0
0
0
0
0
0
0
0
0
-3.64487e-06
-9.61935e-06
-1.42818e-05
-1.77137e-05
-1.48448e-06
-2.60036e-06
-6.61256e-06
-9.04953e-06
-8.24322e-06
)
;
    }
    ceiling
    {
        type            calculated;
        value           nonuniform List<scalar> 
43
(
-7.4987e-06
-7.72627e-06
-7.49235e-06
-5.57047e-07
2.43599e-06
4.33677e-06
5.27866e-06
5.93682e-06
6.43981e-06
6.85084e-06
7.23385e-06
7.614e-06
8.00316e-06
8.40938e-06
8.83757e-06
9.28794e-06
9.75213e-06
1.0206e-05
1.05999e-05
1.08511e-05
1.08499e-05
1.05024e-05
9.80228e-06
8.8567e-06
7.86518e-06
7.15116e-06
7.03864e-06
7.0154e-06
6.92072e-06
6.76615e-06
6.56095e-06
6.30095e-06
5.95411e-06
5.63272e-06
5.36296e-06
5.16095e-06
5.19662e-06
5.391e-06
5.68216e-06
6.76864e-06
1.33048e-05
9.58161e-06
-1.15739e-05
)
;
    }
    sWall
    {
        type            calculated;
        value           uniform -0.000214967;
    }
    nWall
    {
        type            calculated;
        value           nonuniform List<scalar> 6(-4.6396e-05 -5.47946e-05 -5.70386e-05 -7.2191e-05 -7.9042e-05 -9.90278e-05);
    }
    sideWalls
    {
        type            empty;
        value           nonuniform 0();
    }
    glass1
    {
        type            calculated;
        value           nonuniform List<scalar> 9(-6.02734e-05 -0.000159037 -0.00023838 -0.000303066 -0.000357154 -0.000403588 -0.000444173 -0.000493639 -0.0005506);
    }
    glass2
    {
        type            calculated;
        value           nonuniform List<scalar> 2(-0.000248743 -0.000276787);
    }
    sun
    {
        type            calculated;
        value           uniform 0;
    }
    heatsource1
    {
        type            calculated;
        value           nonuniform List<scalar> 3(2.04077e-07 2.04064e-07 2.04078e-07);
    }
    heatsource2
    {
        type            calculated;
        value           nonuniform List<scalar> 4(5.08478e-08 5.1123e-08 0 0);
    }
    Table_master
    {
        type            calculated;
        value           nonuniform List<scalar> 9(-1.53343e-07 -1.53482e-07 -1.53499e-07 -1.53504e-07 -1.53504e-07 -1.53504e-07 -1.53503e-07 -1.535e-07 -1.53482e-07);
    }
    Table_slave
    {
        type            calculated;
        value           nonuniform List<scalar> 9(1.53023e-07 1.53229e-07 1.53186e-07 1.53056e-07 1.52941e-07 1.52851e-07 1.52799e-07 1.52808e-07 1.52826e-07);
    }
    inlet
    {
        type            calculated;
        value           uniform -0.00612556;
    }
    outlet
    {
        type            calculated;
        value           nonuniform List<scalar> 2(0.00821089 0.00192192);
    }
}


// ************************************************************************* //
