/*--------------------------------*- C++ -*----------------------------------*\
  =========                 |
  \\      /  F ield         | OpenFOAM: The Open Source CFD Toolbox
   \\    /   O peration     | Website:  https://openfoam.org
    \\  /    A nd           | Version:  6
     \\/     M anipulation  |
\*---------------------------------------------------------------------------*/
FoamFile
{
    version     2.0;
    format      ascii;
    class       volScalarField;
    location    "100";
    object      T;
}
// * * * * * * * * * * * * * * * * * * * * * * * * * * * * * * * * * * * * * //

dimensions      [0 0 0 1 0 0 0];

internalField   nonuniform List<scalar> 
459
(
303.903
303.61
303.607
303.613
303.617
303.621
303.624
303.626
303.627
303.629
303.628
303.625
303.62
303.612
303.602
303.358
303.359
303.374
303.39
303.396
303.392
303.382
303.37
303.358
303.346
303.334
303.324
303.315
303.307
303.302
303.298
303.296
303.296
303.309
304.117
303.648
303.631
303.641
303.651
303.659
303.667
303.672
303.676
303.678
303.676
303.668
303.653
303.631
303.602
303.574
303.488
303.36
303.377
303.399
303.415
303.419
303.412
303.389
303.366
303.343
303.323
303.306
303.292
303.28
303.272
303.266
303.263
303.263
303.268
303.296
304.322
303.696
303.658
303.675
303.692
303.708
303.723
303.734
303.742
303.746
303.743
303.731
303.708
303.674
303.629
303.58
303.54
303.388
303.413
303.434
303.442
303.439
303.431
303.395
303.345
303.312
303.29
303.273
303.262
303.253
303.248
303.245
303.251
303.255
303.262
303.293
304.513
303.756
303.686
303.706
303.731
303.757
303.78
303.799
303.814
303.822
303.821
303.809
303.781
303.739
303.684
303.618
303.546
303.485
303.441
303.464
303.475
303.469
303.455
303.442
303.434
303.426
303.42
303.417
303.413
303.408
303.403
303.395
303.386
303.361
303.328
303.296
303.296
304.69
303.827
303.713
303.729
303.761
303.794
303.825
303.854
303.878
303.894
303.899
303.89
303.864
303.824
303.772
303.714
303.655
303.603
303.564
303.541
303.522
303.498
303.473
303.456
303.448
303.444
303.441
303.438
303.435
303.43
303.424
303.415
303.403
303.384
303.356
303.321
303.302
303.34
303.387
303.399
304.843
303.913
303.753
303.746
303.777
303.813
303.85
303.885
303.918
303.944
303.959
303.956
303.934
303.896
303.848
303.795
303.742
303.693
303.649
303.611
303.572
303.531
303.492
303.466
303.457
303.455
303.454
303.452
303.449
303.445
303.439
303.43
303.415
303.397
303.373
303.342
303.318
303.324
303.335
303.363
304.959
304.051
303.866
303.793
303.797
303.825
303.858
303.892
303.927
303.969
303.997
304
303.981
303.946
303.902
303.854
303.806
303.761
303.717
303.674
303.625
303.569
303.515
303.476
303.463
303.462
303.462
303.462
303.46
303.457
303.452
303.442
303.427
303.407
303.385
303.36
303.339
303.335
303.337
303.359
305.162
304.456
304.244
304.058
303.951
303.911
303.911
303.929
303.958
304.003
304.026
304.024
304.003
303.969
303.928
303.885
303.842
303.8
303.76
303.72
303.674
303.612
303.543
303.487
303.467
303.466
303.469
303.47
303.47
303.468
303.464
303.458
303.447
303.426
303.405
303.388
303.379
303.383
303.393
303.505
305.44
305.143
304.929
304.688
304.479
304.328
304.229
304.171
304.143
304.114
304.08
304.041
304.001
303.961
303.92
303.881
303.844
303.809
303.775
303.74
303.7
303.649
303.58
303.503
303.47
303.469
303.473
303.477
303.479
303.48
303.48
303.48
303.482
303.487
303.494
303.51
303.534
303.56
303.58
303.63
301.944
303.159
303.715
303.917
303.986
304.007
304.006
303.998
303.979
303.955
303.927
303.898
303.869
303.84
303.813
303.787
303.761
303.734
303.703
303.662
303.604
303.527
303.474
303.468
303.475
303.481
303.486
303.491
303.496
303.5
303.506
303.512
303.52
303.534
303.551
303.568
303.58
303.593
302.029
303.105
303.486
303.677
303.77
303.811
303.826
303.826
303.823
303.816
303.806
303.795
303.782
303.769
303.754
303.74
303.724
303.706
303.685
303.654
303.609
303.544
303.481
303.465
303.472
303.48
303.487
303.493
303.499
303.504
303.509
303.515
303.523
303.533
303.545
303.557
303.551
303.576
302.643
302.599
302.599
303.204
303.466
303.605
303.657
303.683
303.695
303.698
303.699
303.699
303.699
303.698
303.696
303.692
303.688
303.681
303.672
303.66
303.644
303.624
303.594
303.551
303.495
303.457
303.46
303.469
303.476
303.483
303.488
303.494
303.5
303.506
303.512
303.523
303.53
303.533
303.532
303.567
)
;

boundaryField
{
    floor
    {
        type            wallHeatTransfer;
        Tinf            uniform 305.2;
        alphaWall       uniform 0.24;
        value           nonuniform List<scalar> 
29
(
303.801
303.705
303.662
303.67
303.679
303.684
303.689
303.695
303.699
303.703
303.706
303.709
303.713
303.718
303.724
303.732
303.742
303.754
303.763
303.797
303.797
303.726
303.675
303.635
303.801
303.705
303.654
303.631
303.674
)
;
    }
    ceiling
    {
        type            wallHeatTransfer;
        Tinf            uniform 303.2;
        alphaWall       uniform 0.24;
        value           nonuniform List<scalar> 
43
(
302.682
302.639
302.638
303.204
303.449
303.577
303.624
303.646
303.655
303.656
303.655
303.653
303.651
303.647
303.643
303.637
303.63
303.62
303.609
303.596
303.58
303.562
303.536
303.498
303.448
303.414
303.417
303.426
303.434
303.441
303.448
303.455
303.463
303.471
303.479
303.491
303.497
303.499
303.497
303.526
305.335
305.065
302.102
)
;
    }
    sWall
    {
        type            wallHeatTransfer;
        Tinf            uniform 315.2;
        alphaWall       uniform 0.36;
        value           uniform 303.916;
    }
    nWall
    {
        type            wallHeatTransfer;
        Tinf            uniform 307.2;
        alphaWall       uniform 0.36;
        value           nonuniform List<scalar> 6(304.091 304.032 303.951 304.107 304.085 304.147);
    }
    sideWalls
    {
        type            empty;
    }
    glass1
    {
        type            wallHeatTransfer;
        Tinf            uniform 315.2;
        alphaWall       uniform 4.3;
        value           nonuniform List<scalar> 9(312.47 311.649 311.098 310.67 310.337 310.07 309.835 309.866 310.057);
    }
    glass2
    {
        type            wallHeatTransfer;
        Tinf            uniform 307.2;
        alphaWall       uniform 4.3;
        value           nonuniform List<scalar> 2(305.776 305.873);
    }
    sun
    {
        type            wallHeatTransfer;
        Tinf            uniform 305.2;
        alphaWall       uniform 0.24;
        value           nonuniform List<scalar> 
14
(
304.092
303.837
303.84
303.838
303.837
303.836
303.834
303.833
303.831
303.829
303.826
303.821
303.816
303.809
)
;
    }
    heatsource1
    {
        type            fixedGradient;
        gradient        uniform 0;
    }
    heatsource2
    {
        type            fixedGradient;
        gradient        uniform 0;
    }
    Table_master
    {
        type            zeroGradient;
    }
    Table_slave
    {
        type            zeroGradient;
    }
    inlet
    {
        type            fixedValue;
        value           uniform 299.15;
    }
    outlet
    {
        type            zeroGradient;
    }
}


// ************************************************************************* //
