/*--------------------------------*- C++ -*----------------------------------*\
  =========                 |
  \\      /  F ield         | OpenFOAM: The Open Source CFD Toolbox
   \\    /   O peration     | Website:  https://openfoam.org
    \\  /    A nd           | Version:  6
     \\/     M anipulation  |
\*---------------------------------------------------------------------------*/
FoamFile
{
    version     2.0;
    format      ascii;
    class       volVectorField;
    location    "100";
    object      U;
}
// * * * * * * * * * * * * * * * * * * * * * * * * * * * * * * * * * * * * * //

dimensions      [0 1 -1 0 0 0 0];

internalField   nonuniform List<vector> 
459
(
(0.0861453 0.0688536 0)
(-0.137138 0.00647077 0)
(-0.129922 0.0100038 0)
(-0.150503 0.00965761 0)
(-0.169536 0.00778184 0)
(-0.186004 0.0052239 0)
(-0.1989 0.00215698 0)
(-0.207327 -0.00143235 0)
(-0.210312 -0.00563274 0)
(-0.206681 -0.0106202 0)
(-0.194941 -0.0168007 0)
(-0.172944 -0.0244621 0)
(-0.139605 -0.034782 0)
(-0.102135 -0.0501224 0)
(-0.0878014 -0.069996 0)
(0.0175498 0.00990949 0)
(-0.0249333 -0.00185748 0)
(-0.0144805 -0.00876548 0)
(-0.00137347 -0.0155179 0)
(0.0201855 -0.0207213 0)
(0.0400479 -0.0171053 0)
(0.0553592 -0.00812274 0)
(0.0591517 -0.00360774 0)
(0.0563943 -0.00169221 0)
(0.0527166 -0.000852854 0)
(0.0498804 -0.000492879 0)
(0.0477704 -0.000392959 0)
(0.0460894 -0.000391823 0)
(0.044637 -0.000331981 0)
(0.0430676 -8.40846e-07 0)
(0.0408101 0.000733401 0)
(0.037399 0.00158788 0)
(0.0363175 0.00297076 0)
(-0.0122425 0.018383 0)
(0.28342 0.148955 0)
(-0.157263 0.0271129 0)
(-0.116828 0.0320817 0)
(-0.142945 0.031095 0)
(-0.16309 0.0280149 0)
(-0.180231 0.0236206 0)
(-0.19377 0.0179856 0)
(-0.203033 0.0109657 0)
(-0.20716 0.00233015 0)
(-0.205104 -0.00818891 0)
(-0.196142 -0.02033 0)
(-0.179285 -0.0339008 0)
(-0.15467 -0.0496851 0)
(-0.125723 -0.0695407 0)
(-0.0996502 -0.0909523 0)
(-0.0806285 -0.0986039 0)
(0.0566471 0.024275 0)
(0.0591646 0.0287798 0)
(-0.0245551 0.00671503 0)
(-0.0184707 -0.0084471 0)
(-0.0112282 -0.0223136 0)
(0.0041989 -0.0339993 0)
(0.0185671 -0.0324704 0)
(0.0374366 -0.00850304 0)
(0.0386622 0.00164225 0)
(0.0356988 0.004705 0)
(0.0340957 0.00530342 0)
(0.0337904 0.00499495 0)
(0.0338501 0.00438951 0)
(0.0339176 0.00384098 0)
(0.0339662 0.00358776 0)
(0.0336853 0.00394643 0)
(0.032257 0.00541456 0)
(0.0285178 0.00682062 0)
(0.0349853 0.00894292 0)
(-0.0591689 0.0375046 0)
(0.452747 0.2281 0)
(-0.201808 0.0567692 0)
(-0.0959114 0.0574945 0)
(-0.128979 0.0515652 0)
(-0.148588 0.0450912 0)
(-0.165686 0.0370189 0)
(-0.179693 0.0270532 0)
(-0.190074 0.0149749 0)
(-0.196006 0.000653579 0)
(-0.196344 -0.015786 0)
(-0.19084 -0.0342002 0)
(-0.179759 -0.0537338 0)
(-0.164295 -0.0735753 0)
(-0.147004 -0.092684 0)
(-0.130988 -0.106944 0)
(-0.120514 -0.108913 0)
(-0.124561 -0.0985016 0)
(0.0351593 0.0516136 0)
(-0.041454 0.0126139 0)
(-0.0344568 -0.010119 0)
(-0.0273091 -0.0315572 0)
(-0.0171527 -0.0483549 0)
(-0.0116004 -0.0578049 0)
(0.0253567 -0.0247855 0)
(0.0136585 -0.00661948 0)
(0.00881334 -0.00258343 0)
(0.0111569 -0.00197873 0)
(0.0146222 -0.00215388 0)
(0.0172064 -0.00253233 0)
(0.0189626 -0.00285333 0)
(0.0203609 -0.00285446 0)
(0.0216272 -0.000623573 0)
(0.0240737 0.00783789 0)
(0.0200053 0.0119528 0)
(0.0416805 0.0150625 0)
(-0.104944 0.0545793 0)
(0.593587 0.294698 0)
(-0.251448 0.0906306 0)
(-0.0684318 0.0823248 0)
(-0.10956 0.0715536 0)
(-0.126306 0.0629262 0)
(-0.141615 0.0526541 0)
(-0.154786 0.0400002 0)
(-0.165352 0.0245 0)
(-0.172476 0.00586079 0)
(-0.174784 -0.0157013 0)
(-0.171996 -0.0390903 0)
(-0.165838 -0.0624498 0)
(-0.158281 -0.0838013 0)
(-0.151954 -0.101017 0)
(-0.149765 -0.110149 0)
(-0.156204 -0.103996 0)
(-0.171583 -0.0690371 0)
(-0.158935 0.00995912 0)
(-0.090364 0.0357068 0)
(-0.0788368 0.00698791 0)
(-0.0558812 -0.0188739 0)
(-0.0452433 -0.0403777 0)
(-0.0411296 -0.0552091 0)
(-0.043909 -0.0578545 0)
(-0.0370408 -0.03557 0)
(-0.0017683 -0.0243259 0)
(0.0220299 -0.0191001 0)
(0.0400109 -0.01616 0)
(0.0562668 -0.013912 0)
(0.0702655 -0.0115055 0)
(0.0807542 -0.00827553 0)
(0.0858448 -0.00382611 0)
(0.0831553 0.00206729 0)
(0.0699657 0.0125679 0)
(0.0494574 0.0239086 0)
(0.0587846 0.0337738 0)
(-0.130747 0.0687175 0)
(0.708692 0.349747 0)
(-0.297078 0.12514 0)
(-0.0374296 0.101284 0)
(-0.0855187 0.0873756 0)
(-0.097615 0.0774085 0)
(-0.108938 0.0655627 0)
(-0.118968 0.0509321 0)
(-0.127427 0.0328371 0)
(-0.133619 0.010817 0)
(-0.135837 -0.0148021 0)
(-0.133329 -0.0418178 0)
(-0.129113 -0.0669269 0)
(-0.125227 -0.0876727 0)
(-0.123717 -0.102633 0)
(-0.126077 -0.110368 0)
(-0.132468 -0.108411 0)
(-0.137559 -0.0911746 0)
(-0.130468 -0.0532751 0)
(-0.106814 -0.0219281 0)
(-0.0781494 -0.0189304 0)
(-0.0577992 -0.0330125 0)
(-0.0474184 -0.048599 0)
(-0.0421766 -0.0592587 0)
(-0.037661 -0.0592344 0)
(-0.027354 -0.0456821 0)
(-0.010204 -0.036951 0)
(0.00906105 -0.0299238 0)
(0.0247654 -0.0258401 0)
(0.0392844 -0.0225784 0)
(0.0525262 -0.018397 0)
(0.0637807 -0.0117171 0)
(0.0719487 -0.00125852 0)
(0.0750072 0.0118742 0)
(0.0714883 0.0265677 0)
(0.0600379 0.041321 0)
(0.0712234 0.0575156 0)
(-0.0104065 0.0789759 0)
(0.0525593 0.0369937 0)
(-0.047698 -0.0252816 0)
(-0.269471 -0.0494292 0)
(0.788932 0.398705 0)
(-0.335852 0.155604 0)
(-0.010682 0.108874 0)
(-0.0572518 0.0982762 0)
(-0.0646559 0.0873054 0)
(-0.0707335 0.0740511 0)
(-0.0756261 0.0581641 0)
(-0.0796645 0.0386159 0)
(-0.082631 0.0144551 0)
(-0.0817554 -0.0145286 0)
(-0.0775205 -0.0447172 0)
(-0.0739961 -0.0703376 0)
(-0.0723682 -0.0892182 0)
(-0.0736139 -0.100907 0)
(-0.0780348 -0.104904 0)
(-0.0844079 -0.0998183 0)
(-0.0882628 -0.084001 0)
(-0.0840981 -0.0606556 0)
(-0.0709915 -0.0415405 0)
(-0.0549196 -0.037192 0)
(-0.0437195 -0.0439114 0)
(-0.0385633 -0.0548265 0)
(-0.0362202 -0.0638227 0)
(-0.0330121 -0.0651488 0)
(-0.0260576 -0.0579006 0)
(-0.0159142 -0.0503199 0)
(-0.00442278 -0.0443126 0)
(0.00777589 -0.0398095 0)
(0.0191292 -0.0362578 0)
(0.03051 -0.0315926 0)
(0.04168 -0.0237154 0)
(0.0524968 -0.0103031 0)
(0.0623275 0.00853307 0)
(0.066833 0.0281098 0)
(0.0665754 0.0465081 0)
(0.0804327 0.0660476 0)
(0.0645238 0.0777193 0)
(0.0958693 0.0616168 0)
(0.113716 0.0443008 0)
(-0.111542 0.00420768 0)
(0.810704 0.442586 0)
(-0.356684 0.156128 0)
(0.00858564 0.0842265 0)
(-0.0161805 0.105121 0)
(-0.024481 0.0960764 0)
(-0.0273453 0.0781398 0)
(-0.0266718 0.0600685 0)
(-0.0247086 0.0397211 0)
(-0.0224898 0.0143328 0)
(-0.0125588 -0.0182504 0)
(-0.00599954 -0.0498174 0)
(-0.00420397 -0.0734479 0)
(-0.00601722 -0.0891539 0)
(-0.01104 -0.0977881 0)
(-0.0185913 -0.0997508 0)
(-0.0269868 -0.094654 0)
(-0.0330623 -0.0822634 0)
(-0.0338211 -0.0657396 0)
(-0.0293441 -0.0514837 0)
(-0.0235042 -0.0451448 0)
(-0.0208321 -0.0470215 0)
(-0.022373 -0.0549768 0)
(-0.0255272 -0.0639325 0)
(-0.0272992 -0.067765 0)
(-0.0257247 -0.064038 0)
(-0.0218466 -0.0580468 0)
(-0.0169146 -0.0529798 0)
(-0.0112591 -0.0492711 0)
(-0.00518234 -0.046295 0)
(0.00188691 -0.042542 0)
(0.00994065 -0.036069 0)
(0.0199232 -0.0239312 0)
(0.034671 -0.00329094 0)
(0.0490675 0.0199741 0)
(0.0586428 0.0392962 0)
(0.0761341 0.0564822 0)
(0.0893135 0.0614318 0)
(0.11606 0.046872 0)
(0.15269 0.0457309 0)
(-0.0343946 0.0972158 0)
(0.90875 0.464851 0)
(-0.154603 0.13492 0)
(0.0664405 0.0251644 0)
(0.0889841 0.0547405 0)
(0.0596645 0.0679714 0)
(0.0445079 0.0553064 0)
(0.0448529 0.0373368 0)
(0.050729 0.0177689 0)
(0.0580421 -0.00834445 0)
(0.0751792 -0.0339114 0)
(0.0799014 -0.0555554 0)
(0.0769272 -0.0721652 0)
(0.0693316 -0.0832862 0)
(0.0586994 -0.0889868 0)
(0.0462798 -0.0895059 0)
(0.0335454 -0.0850033 0)
(0.0224932 -0.0758072 0)
(0.015061 -0.0637213 0)
(0.0114287 -0.0523218 0)
(0.00927256 -0.0449037 0)
(0.00559845 -0.0429808 0)
(-0.00164742 -0.0479765 0)
(-0.010786 -0.0571595 0)
(-0.0193188 -0.0638615 0)
(-0.0244885 -0.0627762 0)
(-0.0272926 -0.0582249 0)
(-0.0291896 -0.0540907 0)
(-0.0305788 -0.0511013 0)
(-0.0317456 -0.0488598 0)
(-0.0325795 -0.0464598 0)
(-0.0325581 -0.0426799 0)
(-0.0305804 -0.0360521 0)
(-0.0240989 -0.0251332 0)
(-0.000852472 -0.0080099 0)
(0.0161148 0.00963567 0)
(0.0331595 0.0194971 0)
(0.0486798 0.0136642 0)
(0.0661069 -0.00524746 0)
(0.12585 0.0459238 0)
(-0.407043 0.207929 0)
(1.03592 0.439426 0)
(0.500029 0.298732 0)
(0.48846 0.256142 0)
(0.433896 0.205641 0)
(0.34919 0.164478 0)
(0.283728 0.120546 0)
(0.246384 0.0789493 0)
(0.226725 0.0431636 0)
(0.217022 0.0115729 0)
(0.201471 -0.0173873 0)
(0.184257 -0.0406967 0)
(0.166023 -0.0573355 0)
(0.147016 -0.0677242 0)
(0.127543 -0.0727079 0)
(0.108171 -0.0730639 0)
(0.0897066 -0.0694707 0)
(0.073149 -0.0627226 0)
(0.059406 -0.0540842 0)
(0.048621 -0.0453447 0)
(0.0397344 -0.038321 0)
(0.0309876 -0.0345677 0)
(0.0205784 -0.0359553 0)
(0.00758747 -0.0434761 0)
(-0.00821316 -0.0533141 0)
(-0.0209768 -0.0551889 0)
(-0.030549 -0.0520262 0)
(-0.0392202 -0.0481881 0)
(-0.0478787 -0.0448135 0)
(-0.0573313 -0.0417107 0)
(-0.0683035 -0.0380172 0)
(-0.0815286 -0.0323834 0)
(-0.0978705 -0.0230286 0)
(-0.117675 -0.0082869 0)
(-0.138892 0.0121314 0)
(-0.159393 0.0341687 0)
(-0.190827 0.0556169 0)
(-0.236772 0.073629 0)
(-0.288163 0.0863859 0)
(-0.352598 0.0938801 0)
(-0.60922 0.0970847 0)
(0.0451408 0.145483 0)
(0.219721 0.194254 0)
(0.264052 0.172379 0)
(0.261298 0.132032 0)
(0.261407 0.090648 0)
(0.262857 0.0538445 0)
(0.260961 0.023324 0)
(0.252778 -0.0010604 0)
(0.238244 -0.0203639 0)
(0.219516 -0.0347178 0)
(0.198024 -0.044444 0)
(0.175102 -0.0499635 0)
(0.152009 -0.0517692 0)
(0.129857 -0.0504205 0)
(0.109564 -0.046586 0)
(0.0917513 -0.0411189 0)
(0.0765264 -0.0350498 0)
(0.0633797 -0.029487 0)
(0.0513316 -0.0257295 0)
(0.0390161 -0.0256727 0)
(0.0248548 -0.0310703 0)
(0.00671216 -0.0409557 0)
(-0.0133776 -0.0462461 0)
(-0.0280928 -0.0446171 0)
(-0.0412862 -0.0403083 0)
(-0.0543428 -0.0351838 0)
(-0.0676248 -0.0297353 0)
(-0.0810568 -0.0234925 0)
(-0.0943034 -0.0157357 0)
(-0.106753 -0.00562659 0)
(-0.11726 0.007838 0)
(-0.125404 0.0255695 0)
(-0.131653 0.0476541 0)
(-0.137218 0.068951 0)
(-0.139181 0.0796975 0)
(-0.120903 0.0607702 0)
(-0.0743638 -0.0270903 0)
(-0.274933 -0.200682 0)
(-0.00578432 0.253542 0)
(0.0852384 0.201723 0)
(0.126484 0.149646 0)
(0.16815 0.107427 0)
(0.204604 0.0695339 0)
(0.229734 0.0373797 0)
(0.242129 0.0116794 0)
(0.24367 -0.00809826 0)
(0.236576 -0.0219931 0)
(0.222962 -0.0313853 0)
(0.204867 -0.0373226 0)
(0.184092 -0.0405267 0)
(0.162237 -0.0415994 0)
(0.140695 -0.0411051 0)
(0.12059 -0.0396376 0)
(0.102678 -0.0378823 0)
(0.087199 -0.036594 0)
(0.0737603 -0.0363778 0)
(0.0614121 -0.0372668 0)
(0.048908 -0.038535 0)
(0.0351195 -0.0393337 0)
(0.0194745 -0.0392859 0)
(0.000828352 -0.0378147 0)
(-0.0157266 -0.0360499 0)
(-0.0298987 -0.0348186 0)
(-0.043942 -0.0333022 0)
(-0.0575621 -0.0309823 0)
(-0.0695872 -0.0275634 0)
(-0.0790736 -0.0223393 0)
(-0.0846412 -0.0140247 0)
(-0.0850623 -0.000334625 0)
(-0.079951 0.0176069 0)
(-0.068575 0.0389786 0)
(-0.0513663 0.0589127 0)
(-0.0316326 0.0707213 0)
(0.0074018 0.0571197 0)
(0.139812 -0.00905656 0)
(-0.205062 -0.111136 0)
(-0.161548 -0.348111 0)
(-0.419861 -0.0771844 0)
(-0.281827 0.197164 0)
(-0.156041 0.139109 0)
(-0.0303164 0.10625 0)
(0.0734478 0.080268 0)
(0.136181 0.0613519 0)
(0.17957 0.0478759 0)
(0.203507 0.0397122 0)
(0.211293 0.0360312 0)
(0.20812 0.0343656 0)
(0.197536 0.0339578 0)
(0.182098 0.0348305 0)
(0.163735 0.0371735 0)
(0.144026 0.0412242 0)
(0.124326 0.0472296 0)
(0.10578 0.0554011 0)
(0.0893178 0.0658017 0)
(0.0756369 0.0780998 0)
(0.0651224 0.0911414 0)
(0.0576472 0.102531 0)
(0.0522833 0.109083 0)
(0.0472707 0.10862 0)
(0.0404481 0.100902 0)
(0.029139 0.0869002 0)
(0.00927969 0.0742218 0)
(-0.0104094 0.0717605 0)
(-0.0237016 0.0703948 0)
(-0.0355218 0.0678237 0)
(-0.045072 0.0648526 0)
(-0.0517851 0.0616936 0)
(-0.0539537 0.0581481 0)
(-0.0497693 0.0536274 0)
(-0.0364775 0.0539651 0)
(-0.015572 0.0599143 0)
(0.0272821 0.0702726 0)
(0.0635155 0.0707993 0)
(0.101393 0.0591784 0)
(0.160972 0.0334479 0)
(-0.220961 -0.0182103 0)
)
;

boundaryField
{
    floor
    {
        type            noSlip;
    }
    ceiling
    {
        type            noSlip;
    }
    sWall
    {
        type            noSlip;
    }
    nWall
    {
        type            noSlip;
    }
    sideWalls
    {
        type            empty;
    }
    glass1
    {
        type            noSlip;
    }
    glass2
    {
        type            noSlip;
    }
    sun
    {
        type            noSlip;
    }
    heatsource1
    {
        type            noSlip;
    }
    heatsource2
    {
        type            noSlip;
    }
    Table_master
    {
        type            noSlip;
    }
    Table_slave
    {
        type            noSlip;
    }
    inlet
    {
        type            fixedValue;
        value           uniform (0.277164 -0.114805 0);
    }
    outlet
    {
        type            zeroGradient;
    }
}


// ************************************************************************* //
