/*--------------------------------*- C++ -*----------------------------------*\
  =========                 |
  \\      /  F ield         | OpenFOAM: The Open Source CFD Toolbox
   \\    /   O peration     | Website:  https://openfoam.org
    \\  /    A nd           | Version:  6
     \\/     M anipulation  |
\*---------------------------------------------------------------------------*/
FoamFile
{
    version     2.0;
    format      ascii;
    class       volScalarField;
    location    "46800.0000005472903";
    object      k;
}
// * * * * * * * * * * * * * * * * * * * * * * * * * * * * * * * * * * * * * //

dimensions      [0 2 -2 0 0 0 0];

internalField   nonuniform List<scalar> 
778
(
0.00158598
0.00180114
0.00178792
0.00194637
0.0020975
0.00223967
0.00237624
0.00251176
0.00265203
0.00280532
0.0029556
0.00310201
0.00324973
0.00341238
0.00358628
0.000792796
0.00162606
0.0016527
0.00157388
0.00144608
0.00128355
0.00113116
0.000999342
0.000887565
0.000793026
0.000713283
0.000645257
0.000586247
0.000533713
0.000484948
0.000436453
0.000398093
0.00032617
0.00340712
0.00643363
0.00268745
0.00274589
0.00288747
0.00305394
0.00323418
0.00342982
0.00364296
0.00387327
0.00412546
0.00437948
0.00459565
0.00470132
0.00459586
0.00429947
0.00390816
0.00358077
0.00253629
0.0028128
0.00295575
0.00289866
0.00266599
0.00226661
0.00190687
0.00161026
0.00137026
0.00117626
0.00101736
0.000885522
0.000774244
0.000681422
0.00061542
0.000574954
0.00086433
0.000524244
0.00549109
0.0127818
0.00347794
0.00321189
0.00329712
0.00345487
0.00363616
0.00384023
0.00407049
0.00432716
0.00463537
0.00501107
0.0054518
0.00596203
0.00653378
0.00686287
0.00628011
0.00538714
0.00403635
0.00416812
0.00417213
0.00397555
0.00357863
0.00266707
0.002017
0.00157724
0.00127069
0.00105031
0.000887698
0.000765189
0.000672269
0.000604009
0.000551742
0.00054893
0.00116455
0.000678437
0.00797409
0.0217598
0.0044913
0.00339049
0.00334116
0.00343768
0.00354901
0.00366845
0.00380864
0.00399098
0.00425892
0.00464864
0.00517205
0.00582692
0.00655718
0.00713733
0.00723044
0.00724484
0.00534239
0.00554817
0.00537394
0.00512382
0.00478597
0.00434803
0.00345627
0.00285993
0.00243714
0.00211117
0.00185173
0.00163316
0.00143962
0.00125951
0.00107855
0.000801389
0.0006603
0.00141903
0.000822652
0.0108772
0.0336365
0.00621319
0.00342476
0.00315793
0.0031666
0.00318925
0.00320958
0.00325185
0.00336082
0.00359454
0.00398938
0.00455446
0.00527892
0.00609005
0.00682091
0.00728584
0.00764509
0.00751691
0.00665289
0.00607151
0.00557741
0.00509811
0.00462924
0.00412355
0.00366637
0.0032759
0.00293833
0.00263211
0.00234862
0.00208002
0.00181917
0.0015555
0.00122267
0.000931586
0.00118984
0.00121652
0.00116836
0.00200193
0.00185483
0.0141758
0.0476005
0.00928467
0.00348985
0.00290822
0.00282241
0.00276415
0.00269939
0.00266411
0.00273436
0.00298064
0.00341449
0.00402482
0.00480064
0.00565773
0.00646537
0.00707211
0.00740899
0.00732398
0.00678922
0.00621387
0.00563603
0.00507367
0.00455597
0.00409172
0.00369622
0.00336363
0.00307422
0.00280735
0.00255215
0.00229966
0.00204284
0.00177428
0.0014719
0.00118003
0.00111382
0.00111257
0.00169528
0.00502367
0.00266294
0.0179931
0.0606069
0.0143608
0.00381957
0.00271497
0.00252914
0.00241165
0.00229401
0.00222109
0.0023114
0.00263004
0.00313941
0.00380338
0.00463463
0.00553347
0.00637211
0.00700546
0.00733117
0.00725607
0.00681863
0.0062153
0.00555454
0.00491178
0.00434292
0.00387277
0.00350065
0.0032068
0.00296186
0.00274157
0.00252952
0.0023141
0.00208786
0.00184571
0.00158333
0.00132902
0.00116329
0.00109463
0.00154224
0.00616841
0.00368023
0.021642
0.0704814
0.0214367
0.00510276
0.00274279
0.00237174
0.00221017
0.00208212
0.00202659
0.00221955
0.0026496
0.00323108
0.00393872
0.00477817
0.0057045
0.00657964
0.00722918
0.00751825
0.00738737
0.00689832
0.00619953
0.00542774
0.00469199
0.00406474
0.0035745
0.00321227
0.00294721
0.00274054
0.00256396
0.00239589
0.00222247
0.00203597
0.00183266
0.00161357
0.0013993
0.00123711
0.00116157
0.00206512
0.013515
0.00620706
0.0228339
0.0694931
0.0325337
0.0110577
0.004068
0.0025877
0.00223582
0.0021035
0.00219082
0.00251313
0.00300081
0.00360258
0.00433421
0.00521614
0.00619008
0.00709305
0.00772233
0.00792763
0.00766866
0.0070291
0.00616811
0.00525042
0.0044085
0.00372268
0.00321638
0.00286821
0.0026346
0.00246804
0.00233535
0.00221062
0.00207892
0.00193297
0.00177021
0.00159355
0.00142005
0.00130305
0.00136906
0.00381976
0.025593
0.00815602
0.0219184
0.0516331
0.0336427
0.0174347
0.00858955
0.00476135
0.0032631
0.00273177
0.00285546
0.00321299
0.00367388
0.00424758
0.00499688
0.00594055
0.00697682
0.00789037
0.00844479
0.00848771
0.00800839
0.00712905
0.00604584
0.00495699
0.00401271
0.00329075
0.00279729
0.00248769
0.002301
0.00218288
0.00209475
0.00200986
0.00191467
0.00180343
0.00167514
0.00153424
0.00139827
0.00133883
0.00182891
0.0087577
0.0235753
0.00839282
0.0192326
0.039433
0.0302362
0.0195671
0.0121849
0.0079422
0.00572099
0.00467336
0.00436631
0.00440307
0.00465472
0.00514631
0.00593465
0.00697892
0.00808525
0.00896119
0.00934237
0.00909939
0.00827953
0.00706833
0.00571786
0.00446343
0.00346264
0.00276854
0.00234796
0.00211449
0.00199009
0.00192211
0.00187198
0.00181799
0.00174989
0.00166357
0.00155944
0.00144475
0.00134587
0.0014299
0.00335449
0.0101228
0.0193577
0.00813697
0.0159473
0.0315813
0.0266477
0.0195389
0.0139779
0.0102869
0.00803067
0.00675579
0.00605315
0.00573434
0.00578484
0.00627348
0.00720371
0.00840629
0.00955185
0.0102701
0.0103048
0.00959692
0.00829585
0.00667631
0.00506244
0.00372352
0.00279302
0.00223557
0.00195613
0.00181565
0.00174586
0.00171147
0.00168387
0.00164857
0.00159796
0.00152841
0.00144055
0.00134668
0.00129362
0.00166127
0.00429869
0.0101944
0.0164473
0.00761237
0.013263
0.0256631
0.0233441
0.0186877
0.0145837
0.0115894
0.00954554
0.00821195
0.00730258
0.00684288
0.00695891
0.00771342
0.00896051
0.0103349
0.0113711
0.0116784
0.0110957
0.00970098
0.00780182
0.00577494
0.00403228
0.00283918
0.00219813
0.00186732
0.00170344
0.00162047
0.00157742
0.00155438
0.00153317
0.00150459
0.00146315
0.00140624
0.00133548
0.00126496
0.00125705
0.00168177
0.00410001
0.00954856
0.0168649
0.00744721
0.0133482
0.0224026
0.0220482
0.0177554
0.0143902
0.0118932
0.0100842
0.00876934
0.00792011
0.00777705
0.00846976
0.00984847
0.0114826
0.0128104
0.0133402
0.0128019
0.0112671
0.00899658
0.0065343
0.0043201
0.00296675
0.00222937
0.00186385
0.00168033
0.0015812
0.00152087
0.00148007
0.00145057
0.00142288
0.00139126
0.00135229
0.00130568
0.00125631
0.00122369
0.00127539
0.0016751
0.00359502
0.00885172
0.0152859
0.00850274
0.0108748
0.011759
0.012921
0.0125515
0.0113739
0.0100744
0.00894654
0.00820493
0.00830837
0.00941873
0.0112756
0.0133099
0.0148652
0.015425
0.0147469
0.0128343
0.0101513
0.00703474
0.00464884
0.00313958
0.00235387
0.00197486
0.0017863
0.00167632
0.00159721
0.0015302
0.00146993
0.00141759
0.00137265
0.0013317
0.00129568
0.00127449
0.0012909
0.00138281
0.00161039
0.0021434
0.00375408
0.00919309
0.0136175
0.00872359
0.00354587
0.00482722
0.00599979
0.00660338
0.00728004
0.00880371
0.0113216
0.0141309
0.0165025
0.0178832
0.0179363
0.0166072
0.0141209
0.0105769
0.00731262
0.00483053
0.00333254
0.00257602
0.00223226
0.00206574
0.00196444
0.00188311
0.00180422
0.00172103
0.00163373
0.00155071
0.00148853
0.001451
0.0014523
0.00152468
0.00171379
0.00206206
0.00261291
0.00350042
0.00521607
0.010262
0.0140498
0.0089265
0.00444411
0.00628874
0.00810262
0.0110162
0.0146994
0.0181505
0.0203743
0.0214004
0.0212695
0.0199924
0.0174312
0.0139525
0.0103238
0.0070871
0.00481976
0.00353573
0.00293857
0.00268331
0.00256116
0.00248337
0.0024202
0.00236175
0.0023027
0.00223801
0.00216457
0.00208689
0.00202927
0.00201712
0.00207767
0.00225815
0.00261827
0.00321326
0.00409182
0.00534756
0.00722732
0.0102956
0.0143213
0.00822604
0.0150801
0.0244669
0.0180791
0.0143729
0.0169962
0.0207083
0.0228499
0.0235506
0.0230748
0.0216879
0.019619
0.0169439
0.0137743
0.0104757
0.0075949
0.00553704
0.00438711
0.00385762
0.00361452
0.00347039
0.00335841
0.00326447
0.00319151
0.00314407
0.00312157
0.00311628
0.00311589
0.00311245
0.00311777
0.00316612
0.0032883
0.00353081
0.003955
0.00462955
0.00562466
0.0070259
0.00895426
0.011352
0.0137728
0.00792154
0.0138111
0.0170537
0.0178705
0.0207696
0.0216954
0.0221131
0.0211184
0.0193081
0.0171878
0.015
0.0128388
0.0107441
0.00880616
0.0071865
0.00602107
0.00531965
0.0049169
0.0046687
0.00448539
0.00433031
0.00419983
0.00410576
0.00406487
0.00409186
0.00419394
0.00436666
0.00459117
0.00483338
0.00504464
0.00522159
0.00542559
0.00571936
0.00616288
0.00681994
0.00776822
0.00910963
0.0109578
0.0133969
0.01398
0.00937976
0.0121342
0.00890761
0.00881715
0.00933463
0.00977267
0.00919064
0.00810769
0.00692106
0.00581806
0.00485702
0.0040458
0.00338755
0.00288984
0.0025546
0.0023632
0.00227551
0.00225589
0.00226541
0.00229104
0.00233383
0.00239976
0.00249528
0.00262376
0.00278329
0.00296681
0.00316452
0.00336749
0.00357098
0.00377708
0.00398927
0.00421389
0.00446879
0.00477323
0.00514415
0.00559253
0.00611469
0.00668254
0.00727452
0.00805188
0.0083463
)
;

boundaryField
{
    floor
    {
        type            kqRWallFunction;
        value           nonuniform List<scalar> 
36
(
0.00358628
0.000792796
0.00162606
0.0016527
0.00157388
0.00144608
0.00128355
0.00113116
0.000999342
0.000887565
0.000793026
0.000713283
0.000645257
0.000586247
0.000533713
0.000484948
0.000436453
0.000398093
0.00032617
0.00032617
0.000524244
0.000678437
0.000822652
0.00116836
0.00200193
0.00185483
0.00358628
0.00429947
0.00390816
0.00358077
0.000792796
0.00358077
0.00253629
0.00538714
0.00403635
0.00534239
)
;
    }
    ceiling
    {
        type            kqRWallFunction;
        value           nonuniform List<scalar> 
43
(
0.0121342
0.00890761
0.00881715
0.00933463
0.00977267
0.00919064
0.00810769
0.00692106
0.00581806
0.00485702
0.0040458
0.00338755
0.00288984
0.0025546
0.0023632
0.00227551
0.00225589
0.00226541
0.00229104
0.00233383
0.00239976
0.00249528
0.00262376
0.00278329
0.00296681
0.00316452
0.00336749
0.00357098
0.00377708
0.00398927
0.00421389
0.00446879
0.00477323
0.00514415
0.00559253
0.00611469
0.00668254
0.00727452
0.00805188
0.0083463
0.0108748
0.011759
0.00444411
)
;
    }
    sWall
    {
        type            kqRWallFunction;
        value           nonuniform List<scalar> 9(0.0219184 0.0192326 0.0159473 0.013263 0.0133482 0.0108748 0.0150801 0.0138111 0.0121342);
    }
    nWall
    {
        type            kqRWallFunction;
        value           nonuniform List<scalar> 
14
(
0.00185483
0.00266294
0.00368023
0.00839282
0.00813697
0.00761237
0.00744721
0.00850274
0.00872359
0.0089265
0.00822604
0.00792154
0.00937976
0.0083463
)
;
    }
    sideWalls
    {
        type            empty;
    }
    glass1
    {
        type            kqRWallFunction;
        value           nonuniform List<scalar> 9(0.00158598 0.00340712 0.00549109 0.00797409 0.0108772 0.0141758 0.0179931 0.021642 0.0228339);
    }
    glass2
    {
        type            kqRWallFunction;
        value           nonuniform List<scalar> 2(0.00620706 0.00815602);
    }
    sun
    {
        type            kqRWallFunction;
        value           nonuniform List<scalar> 
14
(
0.00158598
0.00180114
0.00178792
0.00194637
0.0020975
0.00223967
0.00237624
0.00251176
0.00265203
0.00280532
0.0029556
0.00310201
0.00324973
0.00341238
)
;
    }
    Table_master
    {
        type            kqRWallFunction;
        value           nonuniform List<scalar> 9(0.00266707 0.002017 0.00157724 0.00127069 0.00105031 0.000887698 0.000765189 0.000672269 0.000604009);
    }
    Table_slave
    {
        type            kqRWallFunction;
        value           nonuniform List<scalar> 9(0.00345627 0.00285993 0.00243714 0.00211117 0.00185173 0.00163316 0.00143962 0.00125951 0.00107855);
    }
    inlet
    {
        type            turbulentIntensityKineticEnergyInlet;
        intensity       0.05;
        value           uniform 0.0009375;
    }
    outlet
    {
        type            zeroGradient;
    }
}


// ************************************************************************* //
