/*--------------------------------*- C++ -*----------------------------------*\
  =========                 |
  \\      /  F ield         | OpenFOAM: The Open Source CFD Toolbox
   \\    /   O peration     | Website:  https://openfoam.org
    \\  /    A nd           | Version:  6
     \\/     M anipulation  |
\*---------------------------------------------------------------------------*/
FoamFile
{
    version     2.0;
    format      ascii;
    class       volScalarField;
    location    "46800.0000005472903";
    object      T;
}
// * * * * * * * * * * * * * * * * * * * * * * * * * * * * * * * * * * * * * //

dimensions      [0 0 0 1 0 0 0];

internalField   nonuniform List<scalar> 
778
(
302.565
302.246
302.23
302.225
302.22
302.216
302.212
302.207
302.203
302.198
302.192
302.184
302.175
302.164
302.154
302.223
302.094
302.086
302.085
302.087
302.091
302.095
302.1
302.105
302.11
302.115
302.12
302.125
302.13
302.135
302.142
302.15
302.182
302.778
302.277
302.245
302.244
302.245
302.245
302.245
302.243
302.239
302.234
302.226
302.212
302.192
302.166
302.138
302.119
302.105
302.101
302.082
302.063
302.056
302.053
302.053
302.054
302.056
302.057
302.059
302.061
302.063
302.065
302.068
302.072
302.079
302.09
302.106
302.158
302.994
302.324
302.272
302.278
302.289
302.299
302.307
302.313
302.315
302.313
302.304
302.285
302.254
302.212
302.167
302.127
302.095
302.075
302.048
302.041
302.039
302.039
302.04
302.041
302.042
302.044
302.045
302.046
302.047
302.048
302.05
302.052
302.057
302.067
302.084
302.145
303.204
302.385
302.303
302.315
302.336
302.358
302.379
302.395
302.407
302.411
302.403
302.378
302.334
302.274
302.207
302.146
302.097
302.062
302.047
302.036
302.032
302.032
302.033
302.034
302.035
302.035
302.036
302.036
302.036
302.037
302.037
302.037
302.037
302.043
302.053
302.071
302.136
303.405
302.459
302.335
302.349
302.38
302.414
302.448
302.479
302.503
302.517
302.513
302.484
302.425
302.341
302.248
302.164
302.099
302.057
302.035
302.028
302.026
302.028
302.031
302.034
302.036
302.037
302.038
302.039
302.039
302.039
302.039
302.038
302.038
302.039
302.045
302.061
302.113
302.125
302.138
302.236
303.594
302.544
302.372
302.377
302.415
302.458
302.503
302.547
302.587
302.613
302.617
302.587
302.512
302.4
302.279
302.173
302.095
302.049
302.027
302.021
302.022
302.027
302.032
302.037
302.04
302.042
302.043
302.043
302.043
302.043
302.042
302.041
302.04
302.039
302.042
302.052
302.085
302.097
302.112
302.246
303.757
302.639
302.42
302.401
302.439
302.485
302.535
302.585
302.635
302.675
302.692
302.664
302.575
302.436
302.292
302.171
302.086
302.037
302.016
302.013
302.019
302.028
302.036
302.042
302.046
302.048
302.049
302.049
302.048
302.047
302.045
302.044
302.042
302.04
302.04
302.047
302.066
302.079
302.096
302.227
303.91
302.783
302.516
302.436
302.457
302.499
302.544
302.592
302.642
302.701
302.731
302.7
302.597
302.445
302.285
302.153
302.064
302.018
302.002
302.006
302.019
302.033
302.044
302.051
302.055
302.057
302.057
302.055
302.053
302.051
302.049
302.046
302.043
302.041
302.04
302.043
302.055
302.067
302.105
302.407
304.118
303.232
302.844
302.589
302.504
302.516
302.552
302.593
302.65
302.719
302.754
302.712
302.589
302.418
302.246
302.112
302.028
301.991
301.988
302.003
302.023
302.042
302.055
302.063
302.066
302.066
302.064
302.061
302.058
302.055
302.051
302.048
302.045
302.042
302.041
302.042
302.05
302.076
302.152
302.556
304.103
303.535
303.163
302.863
302.687
302.618
302.609
302.634
302.703
302.773
302.786
302.708
302.547
302.35
302.172
302.046
301.98
301.963
301.978
302.006
302.035
302.058
302.071
302.076
302.076
302.074
302.07
302.065
302.061
302.057
302.053
302.049
302.045
302.042
302.041
302.043
302.065
302.207
302.333
302.559
304.107
303.67
303.355
303.096
302.915
302.816
302.779
302.787
302.836
302.865
302.815
302.666
302.451
302.233
302.062
301.961
301.927
301.94
301.978
302.021
302.057
302.079
302.088
302.089
302.085
302.079
302.073
302.067
302.062
302.057
302.053
302.049
302.045
302.043
302.041
302.048
302.127
302.294
302.411
302.572
304.139
303.758
303.494
303.282
303.128
303.034
302.991
302.991
302.994
302.938
302.78
302.537
302.274
302.057
301.921
301.87
301.884
301.935
301.997
302.051
302.087
302.103
302.105
302.098
302.09
302.081
302.074
302.067
302.062
302.057
302.053
302.049
302.046
302.043
302.043
302.061
302.172
302.347
302.468
302.598
304.205
303.877
303.634
303.451
303.319
303.233
303.186
303.158
303.07
302.872
302.576
302.256
301.992
301.829
301.771
301.797
301.871
301.96
302.04
302.096
302.123
302.126
302.118
302.106
302.094
302.084
302.076
302.069
302.063
302.058
302.054
302.05
302.048
302.046
302.049
302.069
302.169
302.344
302.469
302.604
304.139
303.889
303.681
303.54
303.424
303.333
303.256
303.124
302.847
302.465
302.079
301.784
301.626
301.597
301.663
301.781
301.911
302.027
302.108
302.149
302.155
302.146
302.132
302.117
302.104
302.092
302.082
302.074
302.068
302.063
302.059
302.057
302.056
302.059
302.066
302.085
302.158
302.317
302.427
302.538
304.28
304.088
303.617
303.297
303.093
302.928
302.735
302.361
301.887
301.49
301.263
301.214
301.302
301.47
301.668
301.862
302.018
302.131
302.181
302.193
302.185
302.171
302.155
302.14
302.126
302.113
302.102
302.092
302.085
302.08
302.078
302.078
302.085
302.097
302.114
302.136
302.184
302.304
302.393
302.505
294.643
296.447
298.143
299.045
299.387
299.572
299.822
300.15
300.524
300.904
301.265
301.579
301.837
302.046
302.166
302.223
302.24
302.236
302.224
302.211
302.198
302.187
302.175
302.164
302.151
302.139
302.13
302.125
302.125
302.132
302.149
302.174
302.204
302.234
302.27
302.339
302.403
302.513
294.923
295.75
296.646
297.506
298.276
298.999
299.684
300.3
300.824
301.262
301.637
301.915
302.102
302.219
302.277
302.296
302.295
302.288
302.281
302.275
302.27
302.265
302.26
302.253
302.242
302.228
302.215
302.207
302.205
302.213
302.234
302.268
302.309
302.354
302.399
302.445
302.482
302.559
299.757
298.682
297.305
296.753
297.508
298.511
299.413
300.147
300.721
301.163
301.523
301.812
302.037
302.194
302.29
302.339
302.357
302.359
302.356
302.353
302.353
302.356
302.359
302.363
302.364
302.361
302.353
302.339
302.323
302.309
302.3
302.302
302.315
302.34
302.377
302.422
302.471
302.521
302.564
302.619
300.115
299.987
299.401
298.88
299.285
300.007
300.669
301.19
301.577
301.859
302.064
302.212
302.314
302.375
302.405
302.416
302.418
302.418
302.418
302.422
302.429
302.438
302.447
302.456
302.46
302.459
302.452
302.44
302.423
302.407
302.396
302.39
302.393
302.406
302.427
302.454
302.485
302.517
302.561
302.625
300.839
300.83
300.887
300.978
301.135
301.481
301.806
302.053
302.224
302.339
302.413
302.458
302.483
302.494
302.498
302.497
302.496
302.497
302.501
302.508
302.518
302.529
302.539
302.547
302.55
302.548
302.541
302.532
302.521
302.51
302.503
302.5
302.502
302.509
302.522
302.54
302.563
302.589
302.616
302.664
)
;

boundaryField
{
    floor
    {
        type            wallHeatTransfer;
        Tinf            uniform 305.2;
        alphaWall       uniform 0.36;
        value           nonuniform List<scalar> 
36
(
302.544
302.868
302.622
302.613
302.621
302.638
302.665
302.693
302.722
302.751
302.779
302.806
302.832
302.858
302.883
302.91
302.94
302.968
303.04
303.04
302.909
302.841
302.792
302.711
302.622
302.717
302.544
302.487
302.488
302.498
302.868
302.498
302.535
302.417
302.434
302.394
)
;
    }
    ceiling
    {
        type            wallHeatTransfer;
        Tinf            uniform 303.2;
        alphaWall       uniform 0.36;
        value           nonuniform List<scalar> 
43
(
301.027
301.043
301.096
301.174
301.314
301.634
301.936
302.167
302.328
302.437
302.509
302.555
302.582
302.597
302.602
302.603
302.603
302.603
302.606
302.611
302.619
302.627
302.634
302.638
302.639
302.635
302.628
302.618
302.606
302.595
302.587
302.582
302.582
302.586
302.595
302.609
302.627
302.648
302.67
302.713
304.19
304.016
295.883
)
;
    }
    sWall
    {
        type            wallHeatTransfer;
        Tinf            uniform 315.2;
        alphaWall       uniform 0.54;
        value           nonuniform List<scalar> 9(305.123 305.181 305.292 305.437 305.375 305.601 301.386 301.764 302.492);
    }
    nWall
    {
        type            wallHeatTransfer;
        Tinf            uniform 308.2;
        alphaWall       uniform 0.54;
        value           nonuniform List<scalar> 
14
(
303.582
303.438
303.296
303.307
303.328
303.369
303.38
303.285
303.25
303.25
303.313
303.376
303.334
303.4
)
;
    }
    sideWalls
    {
        type            empty;
    }
    glass1
    {
        type            wallHeatTransfer;
        Tinf            uniform 315.2;
        alphaWall       uniform 4.3;
        value           nonuniform List<scalar> 9(311.625 310.812 310.3 309.912 309.605 309.358 309.142 308.996 309.046);
    }
    glass2
    {
        type            wallHeatTransfer;
        Tinf            uniform 308.2;
        alphaWall       uniform 4.3;
        value           nonuniform List<scalar> 2(305.783 305.682);
    }
    sun
    {
        type            wallHeatTransfer;
        Tinf            uniform 305.2;
        alphaWall       uniform 0.36;
        value           nonuniform List<scalar> 
14
(
303.017
302.731
302.719
302.7
302.684
302.669
302.656
302.643
302.631
302.618
302.605
302.591
302.576
302.56
)
;
    }
    Table_master
    {
        type            zeroGradient;
    }
    Table_slave
    {
        type            zeroGradient;
    }
    inlet
    {
        type            fixedValue;
        value           uniform 293.15;
    }
    outlet
    {
        type            zeroGradient;
    }
}


// ************************************************************************* //
