/*--------------------------------*- C++ -*----------------------------------*\
  =========                 |
  \\      /  F ield         | OpenFOAM: The Open Source CFD Toolbox
   \\    /   O peration     | Website:  https://openfoam.org
    \\  /    A nd           | Version:  6
     \\/     M anipulation  |
\*---------------------------------------------------------------------------*/
FoamFile
{
    version     2.0;
    format      ascii;
    class       volVectorField;
    location    "46800.0000005472903";
    object      U;
}
// * * * * * * * * * * * * * * * * * * * * * * * * * * * * * * * * * * * * * //

dimensions      [0 1 -1 0 0 0 0];

internalField   nonuniform List<vector> 
778
(
(0.0655963 0.0794082 0)
(-0.155179 0.0157665 0)
(-0.164308 0.0146263 0)
(-0.192428 0.0122777 0)
(-0.216869 0.00872889 0)
(-0.236936 0.00474901 0)
(-0.252072 0.000422578 0)
(-0.261853 -0.00436312 0)
(-0.265764 -0.00980677 0)
(-0.262801 -0.0161889 0)
(-0.251005 -0.0242651 0)
(-0.226308 -0.0348883 0)
(-0.186179 -0.0504159 0)
(-0.144232 -0.0751954 0)
(-0.15012 -0.108601 0)
(0.0546281 0.0355058 0)
(0.0157235 -0.0268847 0)
(0.044915 -0.0232768 0)
(0.069326 -0.0161724 0)
(0.0843999 -0.0103625 0)
(0.0916202 -0.00641717 0)
(0.0944578 -0.00433447 0)
(0.095485 -0.00331141 0)
(0.0959298 -0.00272605 0)
(0.0960956 -0.00231462 0)
(0.0959697 -0.00195148 0)
(0.0954441 -0.00151175 0)
(0.0941879 -0.000757964 0)
(0.0913422 0.000846359 0)
(0.0851392 0.00406971 0)
(0.0736007 0.00777915 0)
(0.0599328 0.0116286 0)
(-0.00790399 0.0299878 0)
(0.258394 0.167396 0)
(-0.161237 0.0483963 0)
(-0.141609 0.0459838 0)
(-0.174015 0.0416199 0)
(-0.199381 0.0356758 0)
(-0.220108 0.0291404 0)
(-0.236147 0.0220725 0)
(-0.247411 0.0142448 0)
(-0.253602 0.00531305 0)
(-0.253935 -0.0051384 0)
(-0.247793 -0.0170745 0)
(-0.234098 -0.0308518 0)
(-0.214196 -0.0480892 0)
(-0.197626 -0.0699855 0)
(-0.19412 -0.0826767 0)
(-0.166502 -0.0425837 0)
(-0.105413 -0.0364121 0)
(-0.0983309 -0.044516 0)
(0.109337 -0.0420372 0)
(0.0644373 -0.0411547 0)
(0.0718704 -0.0322814 0)
(0.0858557 -0.0207416 0)
(0.0937695 -0.010493 0)
(0.0960181 -0.00364845 0)
(0.0957858 -0.000186264 0)
(0.0953968 0.00126419 0)
(0.0953571 0.00190738 0)
(0.0954346 0.00227435 0)
(0.0954394 0.00259124 0)
(0.0953381 0.00313108 0)
(0.095047 0.0044122 0)
(0.0937903 0.00772859 0)
(0.0881949 0.016762 0)
(0.0744406 0.0253488 0)
(0.0630842 0.032978 0)
(-0.0519227 0.0635662 0)
(0.42997 0.25396 0)
(-0.194236 0.0847675 0)
(-0.112786 0.0784377 0)
(-0.148254 0.0669629 0)
(-0.170688 0.0555119 0)
(-0.188786 0.0437455 0)
(-0.20263 0.0313693 0)
(-0.212331 0.018038 0)
(-0.217694 0.00343135 0)
(-0.218065 -0.0126032 0)
(-0.21282 -0.0303043 0)
(-0.201722 -0.049903 0)
(-0.186087 -0.071581 0)
(-0.169555 -0.0932416 0)
(-0.151186 -0.104604 0)
(-0.12034 -0.0931865 0)
(-0.0796282 -0.0949988 0)
(-0.0715128 -0.10767 0)
(0.0921199 -0.0880914 0)
(0.0625537 -0.0657215 0)
(0.0743452 -0.0461296 0)
(0.0879767 -0.0292736 0)
(0.0948168 -0.0149428 0)
(0.0919161 -0.0120721 0)
(0.0876794 -0.00798817 0)
(0.0853048 -0.00579719 0)
(0.0846148 -0.0045609 0)
(0.0845985 -0.00379405 0)
(0.0848584 -0.00322277 0)
(0.0855115 -0.00259805 0)
(0.0872723 -0.00143966 0)
(0.0919567 0.00292135 0)
(0.0901206 0.0251047 0)
(0.0733331 0.042363 0)
(0.0700474 0.0574984 0)
(-0.0899026 0.100912 0)
(0.578531 0.325849 0)
(-0.240104 0.121823 0)
(-0.0808454 0.109231 0)
(-0.121588 0.0898634 0)
(-0.139024 0.0740844 0)
(-0.153088 0.0586586 0)
(-0.163852 0.0427841 0)
(-0.171452 0.0258473 0)
(-0.175671 0.00723876 0)
(-0.175746 -0.0134935 0)
(-0.171066 -0.0364414 0)
(-0.161507 -0.0614406 0)
(-0.147649 -0.0873733 0)
(-0.130681 -0.110316 0)
(-0.109734 -0.123227 0)
(-0.0822639 -0.124578 0)
(-0.0526617 -0.126422 0)
(-0.0335443 -0.123236 0)
(0.0161618 -0.0568286 0)
(0.0607073 -0.0929959 0)
(0.0684106 -0.0791612 0)
(0.079054 -0.0588225 0)
(0.0915551 -0.039601 0)
(0.1029 -0.0209462 0)
(0.115652 -0.0132502 0)
(0.126828 -0.00885456 0)
(0.132448 -0.00563071 0)
(0.133441 -0.00311237 0)
(0.130915 -0.00088028 0)
(0.125447 0.00129264 0)
(0.116916 0.00367213 0)
(0.104559 0.00672167 0)
(0.0853265 0.0111434 0)
(0.0714698 0.0368069 0)
(0.0602188 0.0605347 0)
(0.07625 0.0833823 0)
(-0.117396 0.137214 0)
(0.705704 0.383691 0)
(-0.287677 0.157024 0)
(-0.0477112 0.133794 0)
(-0.0963107 0.106934 0)
(-0.107764 0.0876161 0)
(-0.1168 0.0692028 0)
(-0.123591 0.0504864 0)
(-0.128253 0.0306346 0)
(-0.130615 0.00877386 0)
(-0.129813 -0.0157735 0)
(-0.125318 -0.0430396 0)
(-0.116701 -0.0726568 0)
(-0.103991 -0.102808 0)
(-0.0875345 -0.129079 0)
(-0.0676023 -0.145785 0)
(-0.0442749 -0.152278 0)
(-0.0204218 -0.152403 0)
(0.000111873 -0.14377 0)
(0.0306599 -0.115028 0)
(0.0568624 -0.109368 0)
(0.0704823 -0.0924432 0)
(0.0806492 -0.0712759 0)
(0.0907265 -0.0508288 0)
(0.100293 -0.032791 0)
(0.109414 -0.0194088 0)
(0.116451 -0.0100202 0)
(0.119883 -0.0033148 0)
(0.120082 0.00194538 0)
(0.117664 0.00649257 0)
(0.113005 0.0108396 0)
(0.106137 0.0154976 0)
(0.0969966 0.0211704 0)
(0.0850922 0.0291623 0)
(0.0735719 0.0471588 0)
(0.0631431 0.071207 0)
(0.094707 0.0993716 0)
(0.0170288 0.138415 0)
(0.0963616 0.182778 0)
(0.140749 0.147869 0)
(-0.224858 0.203123 0)
(0.810406 0.431989 0)
(-0.331312 0.190699 0)
(-0.0173327 0.15027 0)
(-0.0733906 0.117543 0)
(-0.0786198 0.0955389 0)
(-0.0822438 0.0749792 0)
(-0.0844989 0.0543847 0)
(-0.0855354 0.0327689 0)
(-0.0852772 0.0089136 0)
(-0.0825982 -0.0183569 0)
(-0.0774308 -0.048974 0)
(-0.0688077 -0.0824516 0)
(-0.0568245 -0.116456 0)
(-0.0417886 -0.146264 0)
(-0.0248212 -0.165969 0)
(-0.00645193 -0.174495 0)
(0.011934 -0.172775 0)
(0.0278536 -0.161053 0)
(0.0460361 -0.139374 0)
(0.0625144 -0.122391 0)
(0.0732178 -0.102536 0)
(0.0809236 -0.0804824 0)
(0.0877005 -0.0591392 0)
(0.0938944 -0.0402618 0)
(0.0992371 -0.0250801 0)
(0.102935 -0.013713 0)
(0.104543 -0.0050096 0)
(0.10411 0.00218969 0)
(0.101945 0.00865687 0)
(0.0982989 0.014907 0)
(0.0933362 0.0214664 0)
(0.0872946 0.0289718 0)
(0.0804437 0.0383466 0)
(0.0747293 0.0527487 0)
(0.069563 0.0727506 0)
(0.0916433 0.0985233 0)
(0.0736308 0.107441 0)
(0.0902237 0.0483559 0)
(0.146277 -0.0359948 0)
(-0.326875 0.105611 0)
(0.879879 0.474703 0)
(-0.368628 0.220987 0)
(0.00370346 0.15559 0)
(-0.0526878 0.121602 0)
(-0.0522396 0.0978854 0)
(-0.0510621 0.075859 0)
(-0.0490578 0.054087 0)
(-0.0465386 0.0315843 0)
(-0.0433433 0.00682572 0)
(-0.0373705 -0.0222419 0)
(-0.0302891 -0.0553051 0)
(-0.0205083 -0.0918657 0)
(-0.00871941 -0.128807 0)
(0.00445852 -0.161153 0)
(0.0174912 -0.181819 0)
(0.0302604 -0.190192 0)
(0.0420618 -0.187247 0)
(0.0523721 -0.174469 0)
(0.0623582 -0.154129 0)
(0.0709596 -0.132474 0)
(0.0765139 -0.109449 0)
(0.0800019 -0.0859384 0)
(0.0826225 -0.0637525 0)
(0.0848761 -0.0442427 0)
(0.0867199 -0.0281291 0)
(0.0878181 -0.015317 0)
(0.0879452 -0.00503271 0)
(0.0869508 0.00363551 0)
(0.0850246 0.0113633 0)
(0.0823181 0.0186686 0)
(0.0790155 0.0260494 0)
(0.0754071 0.0340111 0)
(0.0719098 0.0431223 0)
(0.0699105 0.0546996 0)
(0.068812 0.0691766 0)
(0.0818943 0.0883331 0)
(0.0850278 0.0919514 0)
(0.0902301 0.0549785 0)
(0.180933 0.0262431 0)
(-0.27962 0.154557 0)
(0.92793 0.51716 0)
(-0.383151 0.234199 0)
(0.0168873 0.133021 0)
(-0.0273509 0.116695 0)
(-0.0265832 0.0949592 0)
(-0.0227788 0.0724661 0)
(-0.017665 0.050143 0)
(-0.0123847 0.0272904 0)
(-0.00540458 0.00188968 0)
(0.00458783 -0.0306993 0)
(0.0143201 -0.0652677 0)
(0.0256138 -0.103236 0)
(0.0372284 -0.140724 0)
(0.0478625 -0.171994 0)
(0.0569103 -0.192214 0)
(0.0643665 -0.199756 0)
(0.0700674 -0.195397 0)
(0.0740182 -0.181252 0)
(0.0767296 -0.160193 0)
(0.0781138 -0.136203 0)
(0.0777839 -0.111181 0)
(0.0763112 -0.0866417 0)
(0.0745223 -0.0640623 0)
(0.0729386 -0.0444424 0)
(0.0716937 -0.0281564 0)
(0.0706467 -0.0149231 0)
(0.0695972 -0.00405264 0)
(0.0682526 0.00522053 0)
(0.0667265 0.0134673 0)
(0.064997 0.0211657 0)
(0.0631557 0.0287363 0)
(0.0614055 0.0365305 0)
(0.0600751 0.0448449 0)
(0.0600722 0.0541752 0)
(0.0613127 0.0645633 0)
(0.070407 0.0777538 0)
(0.0804003 0.0816002 0)
(0.0802053 0.0624333 0)
(0.238626 0.0549159 0)
(-0.553758 0.232843 0)
(1.01129 0.506831 0)
(-0.137276 0.296361 0)
(0.04108 0.161544 0)
(0.040587 0.122114 0)
(0.0130675 0.0919976 0)
(0.00864276 0.0653809 0)
(0.0140729 0.0414011 0)
(0.020709 0.0169865 0)
(0.0325439 -0.01102 0)
(0.0440281 -0.042136 0)
(0.0559137 -0.0768592 0)
(0.0681837 -0.114524 0)
(0.0792884 -0.150927 0)
(0.0877365 -0.180365 0)
(0.0928967 -0.198419 0)
(0.0948944 -0.203656 0)
(0.0941476 -0.197095 0)
(0.0912087 -0.181129 0)
(0.086754 -0.158785 0)
(0.0812319 -0.133376 0)
(0.0749309 -0.107343 0)
(0.0684472 -0.0825215 0)
(0.0624998 -0.0602727 0)
(0.057602 -0.0413209 0)
(0.0539352 -0.0257474 0)
(0.0513831 -0.0130582 0)
(0.0496663 -0.00249245 0)
(0.0483811 0.00662684 0)
(0.0474996 0.0147874 0)
(0.0467997 0.0224186 0)
(0.0462398 0.0298469 0)
(0.0458822 0.0372818 0)
(0.0458911 0.0448174 0)
(0.0467824 0.0525214 0)
(0.0486976 0.0601191 0)
(0.0552703 0.0682538 0)
(0.0655885 0.0683481 0)
(0.0607463 0.0442415 0)
(0.292791 0.072187 0)
(-0.757027 0.303728 0)
(0.779325 0.395736 0)
(0.000814326 0.319504 0)
(0.0933981 0.218921 0)
(0.11062 0.155176 0)
(0.0771936 0.106824 0)
(0.0598174 0.0675325 0)
(0.0582407 0.0357314 0)
(0.0624193 0.00637041 0)
(0.0738775 -0.0234789 0)
(0.0854727 -0.0550666 0)
(0.0976805 -0.0897194 0)
(0.109533 -0.126137 0)
(0.118866 -0.159833 0)
(0.123908 -0.185507 0)
(0.124071 -0.199606 0)
(0.119794 -0.201283 0)
(0.112036 -0.19187 0)
(0.101876 -0.173882 0)
(0.090355 -0.150325 0)
(0.078316 -0.12423 0)
(0.066448 -0.0981396 0)
(0.0554863 -0.0739879 0)
(0.0461577 -0.0530261 0)
(0.0389258 -0.0356938 0)
(0.0338742 -0.0217678 0)
(0.0307371 -0.0104717 0)
(0.0290362 -0.000919452 0)
(0.0282922 0.0074916 0)
(0.0282335 0.0151907 0)
(0.0285294 0.0225338 0)
(0.0290392 0.0297448 0)
(0.0296789 0.0369305 0)
(0.0303791 0.0440743 0)
(0.0311705 0.0510387 0)
(0.0317061 0.0573998 0)
(0.0331068 0.0632106 0)
(0.0223255 0.064544 0)
(0.0215767 0.0832577 0)
(0.104295 0.165757 0)
(-0.639482 0.309613 0)
(0.617261 0.220829 0)
(0.00468006 0.298109 0)
(0.11306 0.241536 0)
(0.148339 0.17754 0)
(0.130914 0.123484 0)
(0.117898 0.0777938 0)
(0.115044 0.0388317 0)
(0.117228 0.00332055 0)
(0.123621 -0.0307992 0)
(0.131874 -0.0650562 0)
(0.141572 -0.100465 0)
(0.150434 -0.135217 0)
(0.155517 -0.164982 0)
(0.154903 -0.185469 0)
(0.148285 -0.194389 0)
(0.136572 -0.191753 0)
(0.12124 -0.179267 0)
(0.103797 -0.159465 0)
(0.0856181 -0.135232 0)
(0.0678182 -0.109356 0)
(0.0513529 -0.0843187 0)
(0.0371144 -0.062008 0)
(0.025858 -0.0435084 0)
(0.0178563 -0.028863 0)
(0.012858 -0.0174453 0)
(0.0101757 -0.00811114 0)
(0.00907761 6.84698e-05 0)
(0.00910733 0.00755865 0)
(0.00980812 0.0146837 0)
(0.010923 0.0216936 0)
(0.0122838 0.0287385 0)
(0.0136999 0.0359143 0)
(0.0148678 0.0432463 0)
(0.0153681 0.0506788 0)
(0.0145754 0.0580232 0)
(0.011782 0.0664432 0)
(-0.0189061 0.0902277 0)
(-0.010627 0.130646 0)
(0.0565244 0.18414 0)
(-0.550196 0.230003 0)
(0.570774 0.118444 0)
(-0.0202554 0.258614 0)
(0.11375 0.229871 0)
(0.165102 0.176039 0)
(0.166769 0.126151 0)
(0.164432 0.0810443 0)
(0.165428 0.0398898 0)
(0.168392 0.00152017 0)
(0.172384 -0.0355044 0)
(0.177995 -0.071978 0)
(0.184182 -0.107531 0)
(0.187855 -0.139425 0)
(0.186003 -0.16385 0)
(0.177258 -0.17804 0)
(0.16207 -0.181213 0)
(0.141984 -0.174247 0)
(0.11894 -0.159135 0)
(0.0946984 -0.138277 0)
(0.0708586 -0.114368 0)
(0.0486793 -0.0899133 0)
(0.0293577 -0.0673017 0)
(0.0139479 -0.0483064 0)
(0.00306619 -0.0336473 0)
(-0.00370185 -0.0225197 0)
(-0.0071986 -0.0140483 0)
(-0.00880447 -0.00667182 0)
(-0.00918278 0.000225888 0)
(-0.00859489 0.00686507 0)
(-0.00742956 0.0134172 0)
(-0.00576747 0.0200443 0)
(-0.00374277 0.0268995 0)
(-0.00156568 0.0341919 0)
(0.000342731 0.0421907 0)
(0.0011855 0.0511032 0)
(0.000211989 0.0616413 0)
(-0.00544069 0.0791244 0)
(-0.0382167 0.120719 0)
(-0.0320614 0.16744 0)
(0.000683975 0.180587 0)
(-0.523142 0.129071 0)
(0.628484 0.0535345 0)
(0.00946367 0.197262 0)
(0.113854 0.196957 0)
(0.175147 0.157933 0)
(0.191387 0.117664 0)
(0.198034 0.0772095 0)
(0.203374 0.0371607 0)
(0.208615 -0.0016739 0)
(0.213186 -0.0398394 0)
(0.217564 -0.0766416 0)
(0.219419 -0.109907 0)
(0.215582 -0.136523 0)
(0.204177 -0.153961 0)
(0.185299 -0.161274 0)
(0.160561 -0.159033 0)
(0.13212 -0.148623 0)
(0.102219 -0.132085 0)
(0.0725782 -0.111476 0)
(0.0449866 -0.08931 0)
(0.0207133 -0.0678086 0)
(0.0013856 -0.0493162 0)
(-0.0119363 -0.0354851 0)
(-0.0195405 -0.0260446 0)
(-0.0236368 -0.018718 0)
(-0.0255683 -0.0123177 0)
(-0.0262754 -0.00618716 0)
(-0.0261625 -0.000147348 0)
(-0.0253115 0.00582825 0)
(-0.0239347 0.011811 0)
(-0.0219454 0.0179431 0)
(-0.0193937 0.0244398 0)
(-0.01641 0.0316559 0)
(-0.0133347 0.0401243 0)
(-0.0109702 0.0506827 0)
(-0.0101346 0.0650292 0)
(-0.00991104 0.0891016 0)
(-0.0293813 0.137605 0)
(-0.0224656 0.198918 0)
(0.0555645 0.188652 0)
(-0.524543 0.0347887 0)
(0.472175 0.0747216 0)
(-0.132013 0.137599 0)
(0.0942037 0.133353 0)
(0.172671 0.116834 0)
(0.203764 0.0953338 0)
(0.218035 0.0643179 0)
(0.228035 0.0282278 0)
(0.237174 -0.00921026 0)
(0.243648 -0.0455805 0)
(0.245234 -0.0784359 0)
(0.239303 -0.105118 0)
(0.224503 -0.123627 0)
(0.201361 -0.133184 0)
(0.171783 -0.134275 0)
(0.138328 -0.128157 0)
(0.103269 -0.116088 0)
(0.0689105 -0.0999082 0)
(0.0364592 -0.081212 0)
(0.00835254 -0.0625303 0)
(-0.0144719 -0.0459622 0)
(-0.0285454 -0.0350085 0)
(-0.0368315 -0.0275623 0)
(-0.0411892 -0.0219014 0)
(-0.0433052 -0.0167453 0)
(-0.0441009 -0.0115874 0)
(-0.044121 -0.00624721 0)
(-0.0436121 -0.00079581 0)
(-0.0425805 0.00463105 0)
(-0.0411327 0.0100089 0)
(-0.0389937 0.015483 0)
(-0.036086 0.0213406 0)
(-0.0323892 0.0280575 0)
(-0.0280406 0.0363822 0)
(-0.0235583 0.0475855 0)
(-0.019445 0.0639436 0)
(-0.0118204 0.0896675 0)
(-0.00889815 0.134506 0)
(-0.00461665 0.202157 0)
(0.144279 0.199499 0)
(-0.387605 0.0704518 0)
(0.723986 0.134396 0)
(0.0818145 0.115213 0)
(0.149653 0.0992329 0)
(0.22227 0.0805196 0)
(0.243907 0.0699271 0)
(0.248695 0.0475806 0)
(0.255042 0.0173415 0)
(0.261218 -0.0150293 0)
(0.260326 -0.0450698 0)
(0.249913 -0.0698038 0)
(0.229745 -0.0875425 0)
(0.201395 -0.0978811 0)
(0.167228 -0.101196 0)
(0.129753 -0.0985055 0)
(0.091435 -0.0910775 0)
(0.0536802 -0.0795743 0)
(0.019206 -0.0656454 0)
(-0.0124416 -0.0504689 0)
(-0.0347786 -0.0389764 0)
(-0.049479 -0.031309 0)
(-0.057965 -0.0266209 0)
(-0.06262 -0.023106 0)
(-0.0649306 -0.0197375 0)
(-0.0658234 -0.0159538 0)
(-0.0658073 -0.0116226 0)
(-0.0652238 -0.00680734 0)
(-0.0642811 -0.00172113 0)
(-0.0630112 0.00333806 0)
(-0.0616186 0.00817651 0)
(-0.0596521 0.0129041 0)
(-0.0569229 0.0178616 0)
(-0.0533023 0.0236076 0)
(-0.0487198 0.0310788 0)
(-0.0431948 0.0418082 0)
(-0.0364087 0.0577527 0)
(-0.024776 0.0807043 0)
(-0.00627041 0.114522 0)
(0.00706106 0.168819 0)
(0.174978 0.178761 0)
(-0.335843 0.130044 0)
(0.191841 0.0880395 0)
(0.225638 0.0998349 0)
(0.246375 0.0701732 0)
(0.242447 0.0397425 0)
(0.239689 0.0119264 0)
(0.234711 -0.01318 0)
(0.22005 -0.0336821 0)
(0.196437 -0.0487433 0)
(0.166205 -0.0583487 0)
(0.13177 -0.0630124 0)
(0.0949018 -0.0631079 0)
(0.0574604 -0.0593638 0)
(0.0213795 -0.0526642 0)
(-0.0141014 -0.0431701 0)
(-0.0418048 -0.0343751 0)
(-0.0625947 -0.0277071 0)
(-0.0763158 -0.0240741 0)
(-0.0847925 -0.0223144 0)
(-0.0897739 -0.0213302 0)
(-0.0926302 -0.0200908 0)
(-0.0940682 -0.0181632 0)
(-0.0944717 -0.0153918 0)
(-0.0940959 -0.011787 0)
(-0.0931839 -0.00746933 0)
(-0.0919556 -0.00268191 0)
(-0.0904826 0.00218785 0)
(-0.0892064 0.00675172 0)
(-0.087842 0.0109622 0)
(-0.0861239 0.0151668 0)
(-0.0838604 0.0199643 0)
(-0.0806292 0.0262333 0)
(-0.0757274 0.0350722 0)
(-0.0682032 0.0473752 0)
(-0.0553667 0.0629675 0)
(-0.0320728 0.080834 0)
(-0.000737109 0.108874 0)
(0.186305 0.144798 0)
(-0.352971 0.194833 0)
(0.451044 0.209767 0)
(0.20618 0.17882 0)
(0.152644 0.118805 0)
(0.139597 0.0639032 0)
(0.12828 0.025603 0)
(0.114351 0.00142882 0)
(0.0989664 -0.0133213 0)
(0.0780018 -0.0224117 0)
(0.053408 -0.0278491 0)
(0.0262853 -0.0300256 0)
(-0.00364751 -0.0288562 0)
(-0.0331681 -0.025284 0)
(-0.0596178 -0.0207973 0)
(-0.0818945 -0.0168483 0)
(-0.0983813 -0.0149984 0)
(-0.109695 -0.0149871 0)
(-0.117077 -0.0162931 0)
(-0.122036 -0.0177787 0)
(-0.125473 -0.0187731 0)
(-0.127811 -0.0188983 0)
(-0.129214 -0.0179771 0)
(-0.12978 -0.0159259 0)
(-0.129615 -0.012747 0)
(-0.128865 -0.00854897 0)
(-0.127705 -0.0035968 0)
(-0.126202 0.00159448 0)
(-0.124735 0.00626346 0)
(-0.123652 0.0102917 0)
(-0.122645 0.0141419 0)
(-0.121483 0.0184066 0)
(-0.119723 0.0236944 0)
(-0.116806 0.0305124 0)
(-0.112565 0.0389597 0)
(-0.106115 0.0479684 0)
(-0.0902768 0.0560756 0)
(-0.0463035 0.0729961 0)
(0.0607614 0.139907 0)
(-0.48406 0.244091 0)
(0.360251 -0.416091 0)
(-0.346369 -0.513061 0)
(-0.218653 -0.0274922 0)
(-0.0932061 0.111031 0)
(-0.0538195 0.0925696 0)
(-0.0314881 0.0544177 0)
(-0.0266609 0.028127 0)
(-0.0315813 0.011307 0)
(-0.0401793 0.00039012 0)
(-0.0505379 -0.00671707 0)
(-0.0641156 -0.0108788 0)
(-0.0794125 -0.0129846 0)
(-0.0954711 -0.0142205 0)
(-0.111196 -0.0158935 0)
(-0.125292 -0.0185902 0)
(-0.136816 -0.0217643 0)
(-0.145227 -0.0246355 0)
(-0.151016 -0.0267886 0)
(-0.155277 -0.0282807 0)
(-0.158762 -0.0291697 0)
(-0.161707 -0.0294535 0)
(-0.164098 -0.0290678 0)
(-0.165876 -0.0279453 0)
(-0.16702 -0.0260367 0)
(-0.167566 -0.0233271 0)
(-0.167604 -0.019841 0)
(-0.167259 -0.0156205 0)
(-0.166571 -0.0106672 0)
(-0.165387 -0.00483752 0)
(-0.163853 0.00116662 0)
(-0.161738 0.0068988 0)
(-0.158918 0.0127155 0)
(-0.155115 0.0191348 0)
(-0.150249 0.0265254 0)
(-0.145418 0.0348081 0)
(-0.141707 0.0435995 0)
(-0.131228 0.0548489 0)
(-0.0983605 0.0783992 0)
(-0.115606 0.121437 0)
(-0.589593 0.156692 0)
(0.123198 -0.185794 0)
(-0.38838 -0.297941 0)
(-0.343583 -0.0963743 0)
(-0.265155 0.051855 0)
(-0.211483 0.0837072 0)
(-0.179409 0.0746469 0)
(-0.163225 0.0610968 0)
(-0.157308 0.0511319 0)
(-0.157398 0.046074 0)
(-0.160625 0.0457438 0)
(-0.165014 0.049308 0)
(-0.169334 0.0557578 0)
(-0.172771 0.0637186 0)
(-0.174955 0.0712214 0)
(-0.176389 0.0765395 0)
(-0.177655 0.0779779 0)
(-0.179337 0.0746081 0)
(-0.181586 0.0692768 0)
(-0.184373 0.0636075 0)
(-0.187612 0.0580684 0)
(-0.191191 0.0528702 0)
(-0.194973 0.0482695 0)
(-0.198783 0.044595 0)
(-0.202394 0.042179 0)
(-0.205517 0.0412469 0)
(-0.207836 0.0417908 0)
(-0.209094 0.0434425 0)
(-0.209121 0.0453077 0)
(-0.20775 0.0456729 0)
(-0.205138 0.0442344 0)
(-0.201019 0.0424785 0)
(-0.195142 0.0409392 0)
(-0.187132 0.039978 0)
(-0.176813 0.0398567 0)
(-0.164669 0.0404033 0)
(-0.149428 0.04121 0)
(-0.119848 0.0442673 0)
(-0.0547867 0.0569108 0)
(0.0984598 0.0890063 0)
(-0.404516 0.064265 0)
(1.14817 -0.0112549 0)
(-0.296665 -0.323684 0)
(-0.353362 -0.233861 0)
(-0.352891 -0.149472 0)
(-0.329155 -0.108138 0)
(-0.297624 -0.0997037 0)
(-0.270571 -0.1021 0)
(-0.25111 -0.108096 0)
(-0.238276 -0.116086 0)
(-0.229965 -0.125927 0)
(-0.224186 -0.137755 0)
(-0.219424 -0.15141 0)
(-0.214805 -0.166015 0)
(-0.210205 -0.179947 0)
(-0.20609 -0.191243 0)
(-0.203319 -0.198466 0)
(-0.202834 -0.200684 0)
(-0.205216 -0.199873 0)
(-0.210283 -0.197105 0)
(-0.217628 -0.192634 0)
(-0.226791 -0.186523 0)
(-0.237225 -0.178907 0)
(-0.248258 -0.17014 0)
(-0.259105 -0.160765 0)
(-0.268911 -0.151355 0)
(-0.276815 -0.142301 0)
(-0.282033 -0.133667 0)
(-0.284008 -0.125161 0)
(-0.282604 -0.116265 0)
(-0.278452 -0.107463 0)
(-0.272497 -0.0996555 0)
(-0.264858 -0.0922635 0)
(-0.255343 -0.0845954 0)
(-0.244078 -0.07632 0)
(-0.231889 -0.0675964 0)
(-0.217106 -0.0586534 0)
(-0.18713 -0.0477764 0)
(-0.126407 -0.0275248 0)
(-0.108165 0.0137732 0)
(-0.594234 0.0481672 0)
)
;

boundaryField
{
    floor
    {
        type            noSlip;
    }
    ceiling
    {
        type            noSlip;
    }
    sWall
    {
        type            noSlip;
    }
    nWall
    {
        type            noSlip;
    }
    sideWalls
    {
        type            empty;
    }
    glass1
    {
        type            noSlip;
    }
    glass2
    {
        type            noSlip;
    }
    sun
    {
        type            noSlip;
    }
    Table_master
    {
        type            noSlip;
    }
    Table_slave
    {
        type            noSlip;
    }
    inlet
    {
        type            fixedValue;
        value           uniform (0.5 0 0);
    }
    outlet
    {
        type            zeroGradient;
    }
}


// ************************************************************************* //
