/*--------------------------------*- C++ -*----------------------------------*\
  =========                 |
  \\      /  F ield         | OpenFOAM: The Open Source CFD Toolbox
   \\    /   O peration     | Website:  https://openfoam.org
    \\  /    A nd           | Version:  6
     \\/     M anipulation  |
\*---------------------------------------------------------------------------*/
FoamFile
{
    version     2.0;
    format      ascii;
    class       volScalarField;
    location    "4300";
    object      nut;
}
// * * * * * * * * * * * * * * * * * * * * * * * * * * * * * * * * * * * * * //

dimensions      [0 2 -1 0 0 0 0];

internalField   nonuniform List<scalar> 
778
(
0.000894298
0.000953058
0.000949602
0.000990831
0.00102862
0.00106294
0.00109489
0.00112569
0.00115669
0.00118963
0.00122103
0.00125084
0.0012802
0.00131176
0.0013447
0.000632344
0.000905119
0.000912399
0.00089028
0.000853331
0.000804021
0.000754896
0.000709622
0.000668784
0.000632155
0.000599516
0.000570201
0.0005435
0.000518581
0.000494331
0.000468977
0.000447937
0.000405491
0.00131076
0.00258108
0.00226501
0.00261429
0.0028678
0.0031366
0.00340477
0.00365193
0.00385085
0.0039666
0.00403457
0.00400634
0.00380623
0.00331101
0.00241803
0.00147214
0.00140356
0.0013435
0.001131
0.00192637
0.00266961
0.00310833
0.00312862
0.00246964
0.00211204
0.00186425
0.0016763
0.00152686
0.00139933
0.00128655
0.00118159
0.00107891
0.000986763
0.000907297
0.00102225
0.00051403
0.001664
0.00360429
0.00267234
0.00382221
0.00427092
0.00465076
0.0049958
0.00529951
0.00555678
0.00575838
0.00595357
0.00615869
0.00634677
0.00645806
0.0063823
0.00584275
0.00427301
0.00164788
0.00142698
0.00305318
0.00426012
0.00483026
0.00439191
0.0011589
0.00100764
0.000891008
0.000799788
0.000727212
0.000668636
0.000620852
0.000581976
0.000551661
0.000606609
0.000713643
0.00113062
0.000584734
0.00200521
0.00485821
0.0025574
0.00429821
0.00496252
0.0053182
0.00557987
0.00577356
0.00591816
0.00603531
0.00620166
0.00648234
0.00689153
0.00740575
0.00792244
0.00817634
0.00767686
0.00572773
0.00164141
0.00380199
0.0056571
0.00659862
0.00682986
0.00582953
0.00131997
0.00120049
0.00110802
0.00103116
0.00096567
0.000906873
0.000851442
0.000796384
0.0007369
0.000688579
0.000714024
0.00122479
0.000643664
0.00234192
0.00643284
0.00258027
0.00408662
0.00510798
0.00541136
0.0055218
0.00552648
0.00547203
0.00542379
0.00549356
0.00576632
0.00626636
0.00697417
0.00779519
0.00855177
0.00903197
0.00902642
0.00810148
0.00824438
0.00843431
0.00846089
0.00828828
0.00775688
0.00617222
0.00533105
0.00475501
0.00428664
0.00382771
0.00338337
0.0029487
0.00251462
0.0020687
0.00158888
0.00121223
0.00121216
0.000958713
0.000767885
0.00102249
0.000973853
0.00267354
0.00819606
0.00303778
0.00344663
0.00489472
0.00523125
0.00520474
0.00501783
0.00475044
0.00452993
0.0045252
0.00481095
0.0053806
0.00620105
0.00716163
0.00812186
0.00893976
0.00946304
0.00955901
0.00946397
0.00929674
0.00905875
0.00875235
0.00836227
0.00779326
0.0072453
0.00674794
0.00626676
0.00574761
0.00519353
0.00460189
0.00396763
0.00328677
0.00256434
0.00190984
0.00143395
0.0011132
0.00125883
0.00219964
0.0011622
0.00301209
0.00982763
0.00404845
0.00282378
0.00439866
0.0049487
0.00488782
0.00458491
0.00414542
0.00375893
0.00374812
0.00410899
0.00476088
0.00567763
0.00672115
0.00775481
0.00864534
0.00928405
0.00957864
0.00955699
0.00934784
0.00903027
0.00866621
0.00830279
0.0079512
0.00762862
0.00732561
0.00700178
0.00661086
0.00614056
0.00558396
0.00493844
0.00420666
0.00340715
0.00262487
0.00189497
0.00139481
0.00125468
0.00223962
0.00137463
0.00330345
0.0110647
0.00552094
0.00268854
0.00348521
0.00438799
0.00451352
0.00426421
0.00374552
0.00321893
0.00333877
0.00381609
0.00454502
0.00548958
0.00657305
0.00765481
0.00857838
0.00922093
0.00951361
0.0094767
0.00920656
0.00880736
0.00837764
0.00799634
0.00770231
0.00749223
0.00732836
0.00714986
0.00690145
0.00655386
0.0060935
0.00551777
0.00483252
0.00405806
0.0032517
0.00243234
0.00169431
0.00113936
0.00331731
0.00182125
0.00339324
0.0104833
0.00683699
0.00347647
0.00236224
0.00289673
0.00338986
0.00343084
0.00302969
0.00294485
0.00325102
0.00381213
0.00460021
0.00560196
0.00673756
0.0078525
0.00877239
0.00936479
0.00957339
0.00943116
0.00903905
0.00852441
0.00801368
0.00760609
0.0073473
0.00722031
0.00716283
0.00709434
0.00695159
0.00670054
0.00632777
0.0058321
0.00522031
0.00450878
0.00372635
0.00284365
0.00163686
0.00143973
0.00527182
0.00204735
0.00332458
0.00845794
0.0070663
0.00477521
0.00315173
0.00244014
0.00231213
0.00242172
0.00262518
0.00294948
0.00340922
0.00404057
0.00489783
0.00597846
0.00717644
0.00830721
0.00917846
0.00965789
0.00970741
0.00938468
0.00881731
0.0081647
0.00758232
0.00718318
0.00700018
0.00697899
0.00701908
0.0070186
0.0069265
0.00672348
0.00640322
0.00596577
0.0054152
0.00475545
0.00396524
0.00285556
0.0012805
0.00250976
0.00508222
0.00209491
0.00311435
0.00723155
0.00683539
0.0054678
0.00420562
0.00338454
0.00297893
0.00288759
0.00305617
0.0033661
0.00381546
0.00448175
0.00542903
0.00661501
0.00787505
0.00898201
0.00973162
0.0100082
0.00980888
0.00923289
0.00845293
0.00767288
0.00708018
0.00678221
0.00674779
0.00684643
0.00694637
0.00694803
0.00685106
0.00665459
0.00635496
0.00594877
0.00543003
0.00477118
0.00385917
0.00250184
0.00138214
0.00275114
0.00566188
0.00212472
0.00283611
0.00652186
0.00659604
0.00579069
0.00492383
0.00427188
0.00388823
0.00375075
0.00378575
0.00397275
0.00438473
0.0051291
0.00622559
0.00754117
0.00882944
0.009825
0.0103339
0.0102847
0.00973499
0.00884641
0.00785928
0.00703476
0.00656624
0.00647173
0.00655544
0.00668858
0.00677521
0.00675089
0.00663775
0.00643793
0.0061459
0.00575096
0.00521766
0.00444787
0.00321952
0.00184706
0.00163602
0.0032514
0.00567896
0.00221172
0.00258663
0.00583593
0.00630071
0.00591854
0.00536137
0.00489382
0.00458302
0.00443131
0.00438591
0.00454417
0.00506633
0.00603992
0.00736914
0.00879601
0.010002
0.0107209
0.0108149
0.0102947
0.00931009
0.00810787
0.00702331
0.00632349
0.00601229
0.00597622
0.00607435
0.00620335
0.0062827
0.00625708
0.00614066
0.00593534
0.00563373
0.00520924
0.00456616
0.0034738
0.00206378
0.00153296
0.00209628
0.00360559
0.00553677
0.00210563
0.00259467
0.00579321
0.00643829
0.00599131
0.00554008
0.00517078
0.00490452
0.00473177
0.00472239
0.00510631
0.00602847
0.00741056
0.00897322
0.0103547
0.0112334
0.0114193
0.0108935
0.00978303
0.00837382
0.00700894
0.0060145
0.00542258
0.00514725
0.00509491
0.00517338
0.00529118
0.00536589
0.00533762
0.00520518
0.00497486
0.00464294
0.00417589
0.0034592
0.0024068
0.00160314
0.00171281
0.002536
0.00369548
0.00457005
0.00199964
0.0023419
0.00243599
0.00359174
0.00421833
0.00441144
0.00441371
0.00437025
0.00444873
0.0049832
0.00612912
0.00774759
0.0095007
0.0110057
0.0119393
0.0121082
0.0114737
0.0101942
0.00852169
0.00692494
0.00566834
0.00481958
0.00433475
0.00412142
0.00407308
0.00410716
0.00415549
0.00415558
0.00406351
0.00386879
0.00359661
0.00326948
0.0028972
0.00245711
0.00195505
0.00165237
0.00191857
0.00275056
0.003805
0.00465633
0.00195464
0.000806475
0.00146325
0.00225945
0.00290185
0.00364444
0.00489622
0.00674013
0.00879321
0.0106716
0.0120858
0.0128337
0.0127784
0.0119167
0.0103403
0.00845965
0.00667476
0.00525283
0.00429911
0.00377701
0.00352748
0.00341348
0.00335843
0.00331773
0.00325561
0.00314367
0.00297524
0.00276555
0.00255388
0.00237126
0.00222949
0.00211991
0.00203369
0.00202154
0.00226655
0.00298095
0.00415432
0.0051111
0.0021043
0.0014973
0.00207758
0.00303464
0.00474273
0.00705921
0.00938538
0.0111924
0.0125071
0.0133169
0.0135629
0.0131386
0.0119325
0.0101262
0.00806583
0.00616204
0.00472695
0.00387806
0.00346613
0.00328032
0.00319483
0.00315169
0.00311967
0.00307595
0.00300399
0.00290022
0.00277943
0.00266764
0.00258763
0.00254773
0.00254373
0.00256837
0.00262579
0.00274847
0.00301895
0.00361983
0.00504322
0.00552215
0.00217397
0.00275656
0.00667498
0.00613636
0.00548455
0.00697669
0.00931155
0.0112872
0.0126285
0.0133466
0.0135395
0.0132934
0.0125648
0.0113004
0.00953749
0.0075056
0.00563936
0.00435822
0.00369015
0.00339502
0.00327683
0.00324314
0.00325124
0.00327401
0.00328992
0.00328429
0.0032538
0.0032079
0.00316323
0.00313351
0.00312584
0.0031423
0.0031832
0.00325386
0.00337209
0.00357603
0.0039343
0.00459451
0.00621606
0.0063054
0.00223881
0.00263853
0.00509902
0.00657822
0.00840439
0.00933914
0.0103088
0.0108785
0.0110233
0.0108225
0.0103336
0.0095782
0.00855792
0.0073081
0.00596515
0.00476339
0.00388723
0.00337119
0.00310445
0.00298857
0.00296921
0.00301446
0.00309802
0.0031942
0.00328023
0.00334163
0.0033765
0.00339439
0.00340912
0.00343044
0.00346097
0.00350132
0.00355567
0.00363768
0.00377247
0.00399305
0.00433196
0.00484346
0.00591624
0.00662367
0.00227916
0.00247428
0.00212027
0.00211015
0.00217221
0.00222396
0.00215968
0.00203342
0.00188626
0.00173915
0.00159906
0.00146649
0.00134198
0.00123066
0.00114268
0.00108801
0.00106394
0.00105863
0.00106518
0.00107888
0.00109645
0.00111558
0.00113472
0.00115305
0.00117039
0.00118715
0.00120422
0.00122277
0.00124402
0.00126926
0.00130016
0.00133927
0.00139044
0.00145854
0.00154791
0.00166007
0.0017929
0.00194225
0.00210331
0.00226408
0.00211366
)
;

boundaryField
{
    floor
    {
        type            nutkWallFunction;
        Cmu             0.09;
        kappa           0.41;
        E               9.8;
        value           nonuniform List<scalar> 
36
(
0.000160557
7.63793e-05
0.000109492
0.000110358
0.000107724
0.000103308
9.738e-05
9.14309e-05
8.59074e-05
8.08888e-05
7.63562e-05
7.22904e-05
6.86158e-05
6.52486e-05
6.20877e-05
5.89937e-05
5.57383e-05
5.30202e-05
4.74861e-05
4.7486e-05
6.15079e-05
7.04396e-05
7.77827e-05
9.30068e-05
0.000123351
0.000117628
0.000160557
0.00017498
0.000167237
0.00016042
7.63792e-05
0.00016042
0.000136015
0.000194647
0.000169884
0.000193927
)
;
    }
    ceiling
    {
        type            nutkWallFunction;
        Cmu             0.09;
        kappa           0.41;
        E               9.8;
        value           nonuniform List<scalar> 
43
(
0.000284382
0.000246389
0.000245297
0.000252009
0.000257595
0.000250678
0.000237007
0.000220951
0.000204761
0.000189206
0.000174352
0.000160268
0.000147551
0.000137404
0.000131043
0.00012823
0.0001276
0.00012836
0.000129956
0.000132007
0.000134238
0.00013647
0.000138604
0.000140619
0.000142562
0.000144535
0.00014667
0.000149108
0.000151993
0.000155508
0.000159931
0.000165686
0.000173306
0.000183266
0.000195717
0.000210392
0.000226795
0.000244352
0.000261744
0.000245491
0.000270446
0.0002805
0.000177604
)
;
    }
    sWall
    {
        type            nutkWallFunction;
        Cmu             0.09;
        kappa           0.41;
        E               9.8;
        value           nonuniform List<scalar> 9(0.000373882 0.000352073 0.000322975 0.000296634 0.000297482 0.000270535 0.000314294 0.000301867 0.000284483);
    }
    nWall
    {
        type            nutkWallFunction;
        Cmu             0.09;
        kappa           0.41;
        E               9.8;
        value           nonuniform List<scalar> 
14
(
0.000117636
0.000139635
0.000163965
0.000243736
0.000246954
0.000256126
0.000244633
0.000233154
0.000228484
0.000244898
0.000252273
0.000259188
0.000263385
0.000245528
)
;
    }
    sideWalls
    {
        type            empty;
    }
    glass1
    {
        type            nutkWallFunction;
        Cmu             0.09;
        kappa           0.41;
        E               9.8;
        value           nonuniform List<scalar> 9(0.000108247 0.00015688 0.000196733 0.000234344 0.000270785 0.000306133 0.000341748 0.000372069 0.000381368);
    }
    glass2
    {
        type            nutkWallFunction;
        Cmu             0.09;
        kappa           0.41;
        E               9.8;
        value           nonuniform List<scalar> 2(0.000213947 0.000238656);
    }
    sun
    {
        type            nutkWallFunction;
        Cmu             0.09;
        kappa           0.41;
        E               9.8;
        value           nonuniform List<scalar> 
14
(
0.000108205
0.00011518
0.000114771
0.000119638
0.000124078
0.000128095
0.000131821
0.000135401
0.000138994
0.000142799
0.000146415
0.000149838
0.0001532
0.000156805
)
;
    }
    Table_master
    {
        type            nutkWallFunction;
        Cmu             0.09;
        kappa           0.41;
        E               9.8;
        value           nonuniform List<scalar> 9(0.000139239 0.000121609 0.000107808 9.68683e-05 8.80597e-05 8.08742e-05 7.49567e-05 7.01018e-05 6.62885e-05);
    }
    Table_slave
    {
        type            nutkWallFunction;
        Cmu             0.09;
        kappa           0.41;
        E               9.8;
        value           nonuniform List<scalar> 9(0.000157729 0.00014404 0.00013334 0.000124369 0.000116665 0.000109697 0.00010308 9.64573e-05 8.92413e-05);
    }
    inlet
    {
        type            calculated;
        value           uniform 0.000167705;
    }
    outlet
    {
        type            calculated;
        value           nonuniform List<scalar> 2(0.00275656 0.00667498);
    }
}


// ************************************************************************* //
