/*--------------------------------*- C++ -*----------------------------------*\
  =========                 |
  \\      /  F ield         | OpenFOAM: The Open Source CFD Toolbox
   \\    /   O peration     | Website:  https://openfoam.org
    \\  /    A nd           | Version:  6
     \\/     M anipulation  |
\*---------------------------------------------------------------------------*/
FoamFile
{
    version     2.0;
    format      ascii;
    class       volVectorField;
    location    "4300";
    object      U;
}
// * * * * * * * * * * * * * * * * * * * * * * * * * * * * * * * * * * * * * //

dimensions      [0 1 -1 0 0 0 0];

internalField   nonuniform List<vector> 
662
(
(0.0434331 0.0858767 0)
(-0.167644 0.0221995 0)
(-0.187434 0.0164881 0)
(-0.217356 0.0118654 0)
(-0.240941 0.00683014 0)
(-0.257767 0.00146472 0)
(-0.266686 -0.00450103 0)
(-0.265449 -0.0114399 0)
(-0.251677 -0.019914 0)
(-0.223501 -0.02966 0)
(-0.181161 -0.0390345 0)
(-0.129035 -0.0448698 0)
(-0.07532 -0.0431926 0)
(-0.0295809 -0.0317408 0)
(-0.0169619 -0.00320524 0)
(-0.00787493 0.0101676 0)
(-0.0365929 -0.0187062 0)
(-0.0133532 -0.0301739 0)
(0.0156184 -0.0247065 0)
(0.0342364 -0.0171455 0)
(0.0482322 -0.00912872 0)
(0.0564605 -0.00495215 0)
(0.0599858 -0.00346701 0)
(0.0612295 -0.00293156 0)
(0.061762 -0.00261471 0)
(0.0619844 -0.00237327 0)
(0.0618689 -0.00212261 0)
(0.0612681 -0.00170998 0)
(0.059743 -0.000802151 0)
(0.0563032 0.00102973 0)
(0.0498867 0.00295224 0)
(0.0457165 0.00452798 0)
(-0.0171624 0.0221976 0)
(0.235986 0.177335 0)
(-0.159214 0.0603045 0)
(-0.147098 0.0500198 0)
(-0.177934 0.0411253 0)
(-0.200714 0.0315019 0)
(-0.217311 0.0207882 0)
(-0.226864 0.00807657 0)
(-0.227259 -0.00767929 0)
(-0.216167 -0.0270629 0)
(-0.192162 -0.0489246 0)
(-0.155488 -0.0692763 0)
(-0.110541 -0.0811096 0)
(-0.0650969 -0.0775478 0)
(-0.025281 -0.0590209 0)
(0.00735905 -0.029233 0)
(0.0350129 -0.000363694 0)
(0.0517706 0.03302 0)
(-0.0172529 0.0728164 0)
(0.0734885 0.0434158 0)
(0.0130614 -0.0212688 0)
(0.0275937 -0.0375418 0)
(0.04157 -0.034631 0)
(0.0532715 -0.0258273 0)
(0.0593095 -0.0112539 0)
(0.0607976 -0.00245228 0)
(0.0607963 0.000850322 0)
(0.0609225 0.00205839 0)
(0.0612155 0.00272449 0)
(0.0614221 0.00319004 0)
(0.0614717 0.00359178 0)
(0.0613725 0.00426292 0)
(0.060685 0.00597936 0)
(0.0573419 0.010889 0)
(0.0487353 0.0149395 0)
(0.0490002 0.01757 0)
(-0.0640845 0.0482009 0)
(0.413199 0.264921 0)
(-0.184346 0.0962618 0)
(-0.104049 0.0798722 0)
(-0.134157 0.063288 0)
(-0.152965 0.047353 0)
(-0.167514 0.0301454 0)
(-0.177078 0.00993012 0)
(-0.179153 -0.0146639 0)
(-0.170471 -0.044534 0)
(-0.149967 -0.0781035 0)
(-0.118161 -0.108588 0)
(-0.0799803 -0.124644 0)
(-0.0434325 -0.117003 0)
(-0.0119965 -0.0904505 0)
(0.0137846 -0.0539245 0)
(0.0306176 -0.0241186 0)
(0.0380472 0.00770844 0)
(-0.0326833 0.0601351 0)
(0.127002 -0.0116399 0)
(0.0734825 -0.0336592 0)
(0.064454 -0.0415944 0)
(0.0669232 -0.0401937 0)
(0.0708744 -0.0357343 0)
(0.0723311 -0.0264647 0)
(0.063808 -0.0171766 0)
(0.0573934 -0.0122355 0)
(0.0550533 -0.00950553 0)
(0.0544857 -0.00775693 0)
(0.0543413 -0.00657717 0)
(0.0544744 -0.00566763 0)
(0.0552772 -0.00461901 0)
(0.0576475 -0.00142263 0)
(0.0562805 0.0146885 0)
(0.0442956 0.025183 0)
(0.0563675 0.0317335 0)
(-0.107471 0.0735186 0)
(0.567535 0.335352 0)
(-0.22959 0.128326 0)
(-0.0588982 0.103526 0)
(-0.0881646 0.0808425 0)
(-0.0996471 0.0615495 0)
(-0.109249 0.0409748 0)
(-0.116987 0.0157515 0)
(-0.11977 -0.0164765 0)
(-0.112469 -0.0565327 0)
(-0.0946617 -0.101789 0)
(-0.0682645 -0.141987 0)
(-0.0386388 -0.161285 0)
(-0.0133524 -0.148967 0)
(0.00876263 -0.11464 0)
(0.0258902 -0.0734289 0)
(0.0395893 -0.0332645 0)
(0.055661 0.00641146 0)
(0.0544588 0.048692 0)
(0.0980087 0.0599682 0)
(0.0974756 -0.00500846 0)
(0.0828374 -0.0301707 0)
(0.0758097 -0.0367126 0)
(0.0710749 -0.0364324 0)
(0.0649068 -0.0316537 0)
(0.0644299 -0.0191844 0)
(0.0742197 -0.0127944 0)
(0.0824956 -0.00944188 0)
(0.0875903 -0.00741619 0)
(0.0908057 -0.0057099 0)
(0.0923839 -0.00379522 0)
(0.0909093 -0.00122803 0)
(0.0849738 0.0023837 0)
(0.0726569 0.00759372 0)
(0.0574192 0.0249785 0)
(0.0416966 0.0401129 0)
(0.0649855 0.0520168 0)
(-0.145611 0.0943331 0)
(0.687407 0.392976 0)
(-0.280851 0.145795 0)
(-0.0168716 0.114491 0)
(-0.0413947 0.0890493 0)
(-0.0442498 0.0689398 0)
(-0.0470857 0.0478117 0)
(-0.051069 0.0208045 0)
(-0.0520836 -0.0162107 0)
(-0.0439061 -0.0652308 0)
(-0.0276668 -0.120483 0)
(-0.00806334 -0.167122 0)
(0.0103259 -0.186112 0)
(0.0219525 -0.167552 0)
(0.0313299 -0.130571 0)
(0.0393453 -0.0864533 0)
(0.0470944 -0.0437451 0)
(0.0587458 -0.00673176 0)
(0.0730452 0.0140385 0)
(0.0870612 -0.00450232 0)
(0.0859865 -0.0232874 0)
(0.0784788 -0.0302253 0)
(0.0695026 -0.0314763 0)
(0.0614463 -0.0298706 0)
(0.0548377 -0.0247183 0)
(0.0530907 -0.014202 0)
(0.0563884 -0.00828444 0)
(0.0605002 -0.00602448 0)
(0.0641754 -0.00480026 0)
(0.0675571 -0.00301022 0)
(0.070341 0.000302321 0)
(0.071668 0.00541317 0)
(0.0702333 0.0124331 0)
(0.0657089 0.0218488 0)
(0.0590492 0.0364865 0)
(0.0476858 0.0527906 0)
(0.0761583 0.0718705 0)
(-0.0128043 0.10061 0)
(0.0546535 0.156085 0)
(-0.0870109 0.0801757 0)
(-0.282537 0.00258855 0)
(0.74488 0.450966 0)
(-0.297649 0.0454074 0)
(0.0373802 0.0754175 0)
(0.0156387 0.0723153 0)
(0.0177878 0.0642221 0)
(0.0184712 0.0475911 0)
(0.0169845 0.0211678 0)
(0.0200919 -0.0195926 0)
(0.0307917 -0.0755996 0)
(0.0449711 -0.13516 0)
(0.0561765 -0.180662 0)
(0.0607947 -0.195726 0)
(0.0580417 -0.172537 0)
(0.0529358 -0.133279 0)
(0.0481171 -0.0888567 0)
(0.0457769 -0.0477484 0)
(0.0483503 -0.0156008 0)
(0.0565028 0.000711408 0)
(0.0618089 -0.00340345 0)
(0.0602279 -0.0121288 0)
(0.053749 -0.0188583 0)
(0.0457172 -0.0220539 0)
(0.038383 -0.0222339 0)
(0.0327457 -0.0195348 0)
(0.0303922 -0.0144341 0)
(0.0315563 -0.011383 0)
(0.0344628 -0.0103722 0)
(0.0381325 -0.00971639 0)
(0.042328 -0.00803644 0)
(0.0467956 -0.00420052 0)
(0.0515719 0.00270532 0)
(0.0546639 0.0122417 0)
(0.0563118 0.0239882 0)
(0.0579274 0.0384733 0)
(0.057167 0.0546802 0)
(0.0807253 0.07568 0)
(0.0651539 0.0875618 0)
(0.100963 0.0972043 0)
(0.119835 0.0569124 0)
(-0.139494 -0.0319703 0)
(0.812208 0.231613 0)
(0.249137 0.234275 0)
(0.203179 0.101727 0)
(0.142512 0.0794455 0)
(0.109129 0.0691029 0)
(0.0904859 0.053237 0)
(0.0836609 0.0266795 0)
(0.0887975 -0.0134281 0)
(0.101733 -0.0677112 0)
(0.113744 -0.126826 0)
(0.118057 -0.173857 0)
(0.110732 -0.191969 0)
(0.0883014 -0.158022 0)
(0.0654677 -0.119622 0)
(0.0454462 -0.0777393 0)
(0.0316256 -0.0409099 0)
(0.0253178 -0.0146762 0)
(0.0255728 -0.00197476 0)
(0.0269523 -0.00225144 0)
(0.0253672 -0.0076106 0)
(0.0207736 -0.0127736 0)
(0.0148529 -0.0157424 0)
(0.00911409 -0.0165991 0)
(0.0046009 -0.0157528 0)
(0.00244325 -0.0139498 0)
(0.00284794 -0.0131759 0)
(0.00485234 -0.0134562 0)
(0.00779743 -0.0137315 0)
(0.0115811 -0.0129355 0)
(0.0163557 -0.00994658 0)
(0.0225223 -0.00338922 0)
(0.0311876 0.00728189 0)
(0.0387167 0.0194064 0)
(0.0471971 0.0324931 0)
(0.055823 0.0458854 0)
(0.0769164 0.0624099 0)
(0.0905294 0.0675533 0)
(0.122887 0.0617953 0)
(0.167707 0.0497847 0)
(-0.0180897 0.0948348 0)
(0.589486 0.00139178 0)
(0.289716 0.197363 0)
(0.406161 0.149569 0)
(0.374369 0.141585 0)
(0.312117 0.12032 0)
(0.261377 0.0849004 0)
(0.228756 0.0405385 0)
(0.212056 -0.0137243 0)
(0.204634 -0.0728339 0)
(0.196171 -0.126423 0)
(0.17731 -0.161049 0)
(0.145515 -0.166484 0)
(0.0899686 -0.123599 0)
(0.0539615 -0.0900075 0)
(0.0229297 -0.0541391 0)
(0.00229206 -0.0251643 0)
(-0.00727535 -0.00784442 0)
(-0.00924434 -0.0010329 0)
(-0.00926161 -0.00128637 0)
(-0.0105867 -0.00471473 0)
(-0.0138287 -0.00822865 0)
(-0.0181482 -0.0106069 0)
(-0.0225361 -0.011895 0)
(-0.0261632 -0.0124887 0)
(-0.0283908 -0.0129339 0)
(-0.0292487 -0.0138714 0)
(-0.0292861 -0.015186 0)
(-0.0288545 -0.0163621 0)
(-0.0279242 -0.0168389 0)
(-0.0261479 -0.0160112 0)
(-0.0227775 -0.0131357 0)
(-0.0155243 -0.00731427 0)
(-0.00181533 0.00181246 0)
(0.010238 0.0114421 0)
(0.0226117 0.0182338 0)
(0.0411537 0.0251269 0)
(0.0578551 0.0212265 0)
(0.0817325 0.00937563 0)
(0.148952 0.0569083 0)
(-0.464186 0.21486 0)
(0.401977 0.139301 0)
(0.406787 0.169125 0)
(0.373067 0.166706 0)
(0.342398 0.126875 0)
(0.314264 0.0699001 0)
(0.291683 0.00749701 0)
(0.266121 -0.0524287 0)
(0.231935 -0.0986106 0)
(0.186565 -0.121911 0)
(0.133802 -0.119536 0)
(0.0553519 -0.0786936 0)
(0.0135009 -0.0522291 0)
(-0.0193428 -0.0254723 0)
(-0.0344564 -0.0110296 0)
(-0.0408669 -0.00359876 0)
(-0.0425512 -0.000689651 0)
(-0.0430779 -0.000937125 0)
(-0.0444092 -0.00282167 0)
(-0.0470109 -0.00502911 0)
(-0.0504776 -0.00696089 0)
(-0.0542317 -0.00856953 0)
(-0.0578239 -0.00998666 0)
(-0.0610687 -0.0113661 0)
(-0.0641755 -0.0127999 0)
(-0.0675662 -0.0140968 0)
(-0.0716138 -0.0148773 0)
(-0.0766437 -0.0146474 0)
(-0.08306 -0.0127809 0)
(-0.0914689 -0.00846849 0)
(-0.10251 -0.000829726 0)
(-0.114916 0.0103409 0)
(-0.129202 0.0244387 0)
(-0.152825 0.0412984 0)
(-0.188197 0.060007 0)
(-0.237666 0.0769767 0)
(-0.294613 0.0894545 0)
(-0.375724 0.0959161 0)
(-0.661399 0.0912494 0)
(0.183316 -0.114824 0)
(0.24883 0.226733 0)
(0.238863 0.186455 0)
(0.241034 0.142917 0)
(0.238209 0.0868238 0)
(0.226131 0.0281322 0)
(0.202886 -0.0206186 0)
(0.164723 -0.0534496 0)
(0.115987 -0.0683477 0)
(0.063697 -0.0651741 0)
(-0.0129686 -0.0338597 0)
(-0.0430627 -0.0197504 0)
(-0.0596927 -0.0112035 0)
(-0.0676241 -0.00728331 0)
(-0.0709941 -0.00551197 0)
(-0.0720842 -0.00523278 0)
(-0.0726325 -0.00617286 0)
(-0.0737785 -0.00778738 0)
(-0.0758599 -0.00952206 0)
(-0.0786493 -0.0111503 0)
(-0.0819001 -0.0125288 0)
(-0.0854788 -0.0136052 0)
(-0.089434 -0.0143802 0)
(-0.093953 -0.0148294 0)
(-0.0992146 -0.0147829 0)
(-0.105264 -0.0139001 0)
(-0.111951 -0.0116851 0)
(-0.118868 -0.00754109 0)
(-0.125347 -0.00081738 0)
(-0.130507 0.00868604 0)
(-0.134391 0.0215718 0)
(-0.137397 0.0385553 0)
(-0.140697 0.05915 0)
(-0.144627 0.0806782 0)
(-0.144804 0.0957068 0)
(-0.12486 0.0898617 0)
(-0.0664398 0.0343 0)
(-0.207121 -0.182256 0)
(0.400282 -0.332096 0)
(-0.0911417 -0.48725 0)
(-0.287178 -0.0162525 0)
(-0.118644 0.173826 0)
(-0.0293349 0.155513 0)
(0.0221204 0.121556 0)
(0.0517011 0.0793516 0)
(0.0625036 0.0356656 0)
(0.055636 0.00167086 0)
(0.0349199 -0.0170451 0)
(0.000688688 -0.0241763 0)
(-0.0348039 -0.0230775 0)
(-0.0702115 0.0155507 0)
(-0.0858159 0.0250814 0)
(-0.0928864 0.0289388 0)
(-0.0958594 0.03137 0)
(-0.096838 0.0336207 0)
(-0.0968066 0.0358078 0)
(-0.0965562 0.0379445 0)
(-0.0965152 0.0396504 0)
(-0.0968323 0.0404362 0)
(-0.0975769 0.0405193 0)
(-0.0987757 0.0399165 0)
(-0.100434 0.0387556 0)
(-0.102547 0.0372 0)
(-0.105097 0.0353759 0)
(-0.108024 0.0333888 0)
(-0.111201 0.0313342 0)
(-0.114412 0.0292829 0)
(-0.117275 0.0272143 0)
(-0.119011 0.0258219 0)
(-0.118395 0.026938 0)
(-0.113826 0.0319471 0)
(-0.103925 0.0418452 0)
(-0.088637 0.0567164 0)
(-0.0693651 0.0736062 0)
(-0.0460478 0.0833642 0)
(0.0214953 0.0496245 0)
(0.150985 -0.0571089 0)
(-0.0521881 -0.0616396 0)
(0.287642 -0.23828 0)
(-0.277267 -0.136176 0)
(-0.411406 -0.0168882 0)
(-0.369374 0.0732315 0)
(-0.275191 0.0888047 0)
(-0.189183 0.0779451 0)
(-0.12419 0.0579449 0)
(-0.0859986 0.0372254 0)
(-0.07389 0.0234197 0)
(-0.0786584 0.0196575 0)
(-0.0884497 0.0185241 0)
(-0.0965498 -0.00193402 0)
(-0.11262 -0.089418 0)
(-0.112842 -0.0921568 0)
(-0.112016 -0.0944749 0)
(-0.110713 -0.0981638 0)
(-0.109473 -0.102272 0)
(-0.108365 -0.106815 0)
(-0.107441 -0.111569 0)
(-0.1068 -0.115932 0)
(-0.106625 -0.11914 0)
(-0.107048 -0.121016 0)
(-0.108061 -0.121371 0)
(-0.109594 -0.12023 0)
(-0.111513 -0.11771 0)
(-0.113643 -0.113923 0)
(-0.115756 -0.108907 0)
(-0.117536 -0.102594 0)
(-0.118567 -0.094764 0)
(-0.118328 -0.085004 0)
(-0.11603 -0.0735725 0)
(-0.110052 -0.0610602 0)
(-0.0977684 -0.0473056 0)
(-0.0765975 -0.0317943 0)
(-0.0462123 -0.0139312 0)
(-0.00558142 0.00634487 0)
(0.0385996 0.00485113 0)
(0.10707 -0.0546094 0)
(0.124333 -0.0992863 0)
(-0.522867 0.0023957 0)
(0.474009 0.38572 0)
(0.195113 0.133589 0)
(0.17207 0.0879842 0)
(0.122569 0.0741579 0)
(0.0973572 0.0633258 0)
(0.0848735 0.0426392 0)
(0.0835795 0.00892341 0)
(0.0950676 -0.0390188 0)
(0.108292 -0.0972312 0)
(0.117057 -0.152634 0)
(0.11551 -0.187029 0)
(0.102985 -0.187972 0)
(0.286435 0.0905796 0)
(0.37019 0.173266 0)
(0.399814 0.143143 0)
(0.342981 0.133873 0)
(0.284547 0.103767 0)
(0.242704 0.0639928 0)
(0.219077 0.0146504 0)
(0.207768 -0.0431526 0)
(0.201221 -0.101007 0)
(0.188394 -0.146834 0)
(0.162832 -0.167631 0)
(0.126707 -0.157813 0)
(0.38282 0.144365 0)
(0.391011 0.174506 0)
(0.35757 0.149901 0)
(0.327677 0.0996969 0)
(0.302373 0.0388078 0)
(0.279698 -0.0234369 0)
(0.250405 -0.0779412 0)
(0.210537 -0.113445 0)
(0.160715 -0.123865 0)
(0.107446 -0.109775 0)
(0.298418 0.246229 0)
(0.239387 0.204869 0)
(0.240085 0.166545 0)
(0.240599 0.115956 0)
(0.233513 0.0569799 0)
(0.216105 0.00200526 0)
(0.185486 -0.0391892 0)
(0.141271 -0.0632026 0)
(0.0898521 -0.0689279 0)
(0.0390487 -0.0575392 0)
(0.0203006 -0.432324 0)
(-0.25694 -0.360731 0)
(-0.165087 0.138075 0)
(-0.0663009 0.169275 0)
(-0.000471605 0.139773 0)
(0.0392386 0.101286 0)
(0.0594212 0.0570133 0)
(0.0610043 0.0167382 0)
(0.0475114 -0.00943037 0)
(0.0191279 -0.021776 0)
(-0.0184245 -0.0248131 0)
(-0.0467908 -0.0139218 0)
(-0.240713 -0.168721 0)
(-0.369325 -0.0819433 0)
(-0.40617 0.0394424 0)
(-0.322639 0.086717 0)
(-0.230114 0.0850917 0)
(-0.153579 0.0685641 0)
(-0.10161 0.0471489 0)
(-0.0770547 0.0290966 0)
(-0.0749659 0.0204345 0)
(-0.0833928 0.019651 0)
(-0.0931632 0.0132696 0)
(-0.100458 -0.033456 0)
(0.763269 0.465906 0)
(0.316854 0.264071 0)
(0.349556 0.15514 0)
(0.27658 0.1148 0)
(0.216566 0.0916405 0)
(0.175417 0.0651268 0)
(0.153673 0.0302771 0)
(0.148277 -0.0170574 0)
(0.153229 -0.0733807 0)
(0.15722 -0.129724 0)
(0.151538 -0.17058 0)
(0.132314 -0.182112 0)
(0.789551 -0.172384 0)
(0.154012 0.238415 0)
(0.399867 0.167808 0)
(0.427874 0.169419 0)
(0.372811 0.150878 0)
(0.32487 0.108529 0)
(0.289227 0.0555134 0)
(0.265907 -0.00445463 0)
(0.246764 -0.0654723 0)
(0.224219 -0.116024 0)
(0.190916 -0.144658 0)
(0.147117 -0.145249 0)
(0.307003 0.0945971 0)
(0.356264 0.194614 0)
(0.326907 0.17753 0)
(0.31223 0.138229 0)
(0.296064 0.0806291 0)
(0.277679 0.0186095 0)
(0.251742 -0.0366454 0)
(0.211784 -0.0765296 0)
(0.160823 -0.0952703 0)
(0.105823 -0.0918026 0)
(0.442536 0.22775 0)
(0.0669542 0.219856 0)
(0.112336 0.180024 0)
(0.138601 0.137812 0)
(0.150964 0.0868991 0)
(0.148181 0.0344122 0)
(0.132018 -0.00726699 0)
(0.101618 -0.0330027 0)
(0.0599219 -0.0442447 0)
(0.0158478 -0.0421593 0)
(0.497693 -0.262545 0)
(-0.19418 -0.257098 0)
(-0.35174 -0.0661078 0)
(-0.263956 0.102085 0)
(-0.165724 0.114014 0)
(-0.0938833 0.094944 0)
(-0.0441993 0.0645977 0)
(-0.0176001 0.0318486 0)
(-0.0142246 0.00678022 0)
(-0.0273714 -0.0048622 0)
(-0.05199 -0.00785883 0)
(-0.073497 -0.00784419 0)
(0.328191 -0.251303 0)
(-0.350246 -0.159435 0)
(-0.47673 -0.102888 0)
(-0.452268 -0.0538786 0)
(-0.361167 -0.0389253 0)
(-0.266631 -0.041585 0)
(-0.192108 -0.0507245 0)
(-0.144857 -0.0592879 0)
(-0.120434 -0.0635473 0)
(-0.107325 -0.0664107 0)
(-0.0970707 -0.0739039 0)
(-0.101415 -0.0801036 0)
(0.343608 0.290953 0)
(0.353999 0.201805 0)
(0.313579 0.129207 0)
(0.244262 0.103296 0)
(0.193208 0.0793748 0)
(0.162024 0.049389 0)
(0.148982 0.00848092 0)
(0.150274 -0.0439685 0)
(0.155965 -0.101792 0)
(0.155942 -0.152587 0)
(0.143506 -0.180241 0)
(0.119176 -0.175626 0)
(-0.22448 0.189447 0)
(0.297936 0.192211 0)
(0.436075 0.162319 0)
(0.40096 0.165193 0)
(0.347481 0.13136 0)
(0.305288 0.083114 0)
(0.276616 0.0262747 0)
(0.256168 -0.0354787 0)
(0.236506 -0.092815 0)
(0.209097 -0.133634 0)
(0.17 -0.14851 0)
(0.123398 -0.135268 0)
(0.374229 0.195257 0)
(0.338284 0.187375 0)
(0.319439 0.161097 0)
(0.304379 0.110806 0)
(0.287282 0.0493455 0)
(0.266618 -0.0104659 0)
(0.233413 -0.0589798 0)
(0.187317 -0.088706 0)
(0.133291 -0.0962313 0)
(0.0782609 -0.0824884 0)
(0.0749483 0.216887 0)
(0.09158 0.200371 0)
(0.127307 0.159912 0)
(0.146593 0.113224 0)
(0.151504 0.0601049 0)
(0.141016 0.011612 0)
(0.118603 -0.0220018 0)
(0.0817772 -0.0403949 0)
(0.0373601 -0.04478 0)
(-0.00557888 -0.0355142 0)
(-0.174605 -0.284344 0)
(-0.310042 -0.187292 0)
(-0.318823 0.0440304 0)
(-0.210624 0.115773 0)
(-0.126967 0.106362 0)
(-0.0662822 0.0807026 0)
(-0.0279332 0.0478869 0)
(-0.0131874 0.0177504 0)
(-0.0190295 -0.000595223 0)
(-0.0388515 -0.00691901 0)
(-0.0648992 -0.00831659 0)
(-0.0753828 -0.00365585 0)
(-0.288847 -0.183586 0)
(-0.434199 -0.131571 0)
(-0.479596 -0.0753557 0)
(-0.409717 -0.0429592 0)
(-0.312348 -0.0389653 0)
(-0.226124 -0.0458061 0)
(-0.165101 -0.0554525 0)
(-0.130445 -0.0619263 0)
(-0.113196 -0.0647378 0)
(-0.101931 -0.0694932 0)
(-0.0951654 -0.0778831 0)
(-0.113458 -0.0852256 0)
)
;

boundaryField
{
    floor
    {
        type            noSlip;
    }
    ceiling
    {
        type            noSlip;
    }
    sWall
    {
        type            noSlip;
    }
    nWall
    {
        type            noSlip;
    }
    sideWalls
    {
        type            empty;
    }
    glass1
    {
        type            noSlip;
    }
    glass2
    {
        type            noSlip;
    }
    sun
    {
        type            noSlip;
    }
    Table_master
    {
        type            noSlip;
    }
    Table_slave
    {
        type            noSlip;
    }
    inlet
    {
        type            fixedValue;
        value           uniform (0.5 0 0);
    }
    outlet
    {
        type            zeroGradient;
    }
}


// ************************************************************************* //
