/*--------------------------------*- C++ -*----------------------------------*\
  =========                 |
  \\      /  F ield         | OpenFOAM: The Open Source CFD Toolbox
   \\    /   O peration     | Website:  https://openfoam.org
    \\  /    A nd           | Version:  6
     \\/     M anipulation  |
\*---------------------------------------------------------------------------*/
FoamFile
{
    version     2.0;
    format      ascii;
    class       volScalarField;
    location    "100";
    object      epsilon;
}
// * * * * * * * * * * * * * * * * * * * * * * * * * * * * * * * * * * * * * //

dimensions      [0 2 -3 0 0 0 0];

internalField   nonuniform List<scalar> 
778
(
0.00144785
0.00199563
0.00243502
0.0023564
0.00301646
0.00373245
0.00282254
0.0022672
0.00574747
0.00551284
0.0031578
0.00287752
0.00354045
0.0109033
0.00726684
0.00307379
0.00318347
0.00440714
0.00837847
0.0153346
0.00727742
0.00265934
0.00302031
0.00369174
0.00614331
0.0137364
0.0119861
0.0067555
0.00228188
0.00258085
0.00303686
0.00420048
0.00707619
0.00837371
0.00643413
0.00422549
0.00199147
0.00217845
0.00254315
0.00318203
0.00446416
0.00546184
0.00564559
0.00831538
0.00341413
0.0017342
0.00182075
0.00213327
0.00253065
0.00321551
0.00392066
0.00463852
0.00701699
0.0139296
0.000947541
0.00150017
0.00150733
0.00177628
0.002051
0.00247088
0.00295704
0.00352619
0.00491909
0.00356643
0.0016562
0.00134398
0.00128153
0.00125167
0.00147616
0.00167419
0.00195652
0.0023106
0.00268285
0.00314844
0.00172565
0.000814667
0.00298738
0.00180809
0.00110263
0.00105709
0.0012364
0.00137714
0.00156962
0.00184378
0.00213391
0.00218669
0.00114787
0.000863643
0.000777654
0.00525545
0.00253178
0.000931796
0.000928845
0.00105416
0.00114813
0.00127165
0.0014777
0.00173175
0.00172774
0.000895093
0.000961519
0.000960205
0.00100105
0.0127054
0.00270178
0.000753699
0.000864309
0.000914969
0.000975824
0.00104563
0.00118602
0.00138071
0.00135819
0.000734029
0.000648777
0.00117381
0.00116225
0.00176325
0.00604938
0.00264227
0.000757774
0.00081286
0.000845025
0.000875963
0.000964976
0.00107936
0.000982064
0.000521942
0.000357288
0.000867231
0.00143065
0.00159486
0.00484443
0.00238016
0.0010335
0.00071058
0.000745323
0.000752733
0.000801706
0.00085821
0.00069428
0.00039462
0.000255039
0.000356603
0.00125103
0.00167917
0.00295318
0.0169909
0.000850016
0.000703672
0.000659844
0.000662511
0.000682222
0.000709693
0.000545973
0.000334847
0.000223202
0.000219884
0.000446904
0.00170275
0.0020378
0.00801772
0.183381
0.000602956
0.000758742
0.000614583
0.000592531
0.000596266
0.000609539
0.000515886
0.000323227
0.000220694
0.000190027
0.000239412
0.000555505
0.00210498
0.00317447
0.029436
0.00396195
0.000796776
0.000641143
0.00054363
0.000534122
0.000541021
0.000501276
0.000352434
0.000236199
0.000191339
0.000193885
0.000277311
0.00063338
0.00226844
0.00624221
0.00497362
0.00157726
0.000680002
0.00053004
0.000489483
0.000491884
0.00047853
0.000405683
0.000268663
0.000205797
0.000189804
0.000212981
0.000319803
0.000661621
0.00178853
0.00182056
0.00109485
0.00418142
0.000807748
0.000856867
0.000540102
0.000465734
0.000455272
0.000453641
0.000419681
0.000318711
0.000230241
0.000199439
0.000201531
0.000240177
0.000354409
0.000597479
0.000799716
0.000679651
0.000591244
0.00477143
0.00301667
0.000633944
0.000501404
0.000578491
0.000463286
0.000431769
0.000430201
0.000417561
0.000358822
0.000264961
0.000217156
0.00020633
0.000220931
0.000268061
0.000361625
0.000456089
0.000501836
0.000521633
0.000641779
0.00361907
0.00138342
7.59732e-05
0.000353157
0.000482707
0.00046975
0.000423513
0.000412868
0.00040733
0.000380596
0.000306478
0.000242566
0.000219309
0.00022114
0.000243031
0.00028735
0.000342906
0.000407611
0.000498154
0.000657544
0.00341977
6.73874e-05
0.000107563
0.00026588
0.000389965
0.000426696
0.000419868
0.000405513
0.000399022
0.000386249
0.000340123
0.000275229
0.000239067
0.000230652
0.000239369
0.00026367
0.000302657
0.000365169
0.000496832
0.000661834
6.03688e-05
7.45917e-05
0.000134948
0.000220202
0.000315712
0.000369307
0.000394816
0.000400723
0.000396584
0.000387675
0.000362768
0.000309732
0.000265338
0.000246976
0.000245715
0.000258391
0.000288067
0.00034684
0.000501788
0.000661533
7.80212e-05
9.10508e-05
0.000143619
0.000189857
0.000260905
0.000312826
0.000356195
0.000383937
0.000394519
0.000390448
0.000377108
0.000340706
0.00029681
0.000269455
0.000258753
0.000261681
0.000283406
0.000337743
0.000501924
0.000661266
9.04471e-05
0.000106815
0.000116979
0.000198381
0.000219387
0.000262945
0.000312689
0.000355688
0.000383259
0.000392342
0.000388443
0.000366261
0.000329767
0.000297333
0.000277412
0.000270535
0.000283699
0.000332536
0.000495996
0.000663221
9.9034e-05
0.000116059
8.68478e-05
0.000137549
0.000185219
0.000220715
0.000269826
0.000320839
0.000361941
0.00038603
0.000394485
0.000387747
0.000361449
0.000328817
0.00030092
0.000283908
0.000287453
0.000329637
0.000485351
0.000666598
0.000104908
0.000124067
7.89385e-05
0.00010051
0.000156529
0.00018554
0.000230669
0.000283946
0.000333637
0.000370734
0.000392802
0.00040213
0.000390281
0.000361443
0.000327916
0.000301061
0.000294135
0.000328798
0.000471892
0.000670643
0.000109424
0.000132374
7.52896e-05
7.50316e-05
0.000134831
0.000156671
0.00019649
0.000248298
0.000302015
0.000348707
0.000383943
0.000409306
0.000413438
0.00039262
0.000356375
0.000320869
0.000303303
0.000330019
0.000457414
0.000674709
0.000113026
0.000135603
6.99663e-05
5.89168e-05
0.000119363
0.000133157
0.000167382
0.000215772
0.000270192
0.000323198
0.00036993
0.00040908
0.000430238
0.000419385
0.000383602
0.000341491
0.00031428
0.0003331
0.000443351
0.00067828
0.000115603
0.000133963
6.17656e-05
5.17641e-05
0.000108686
0.000114101
0.000142894
0.000187092
0.000240319
0.000297336
0.000353827
0.000405457
0.000439937
0.000439646
0.000406595
0.000360571
0.00032576
0.000337512
0.000430786
0.000680999
0.000117739
0.000129092
5.3431e-05
5.24208e-05
0.000102017
9.8774e-05
0.000122367
0.000162311
0.000213584
0.000273468
0.000338345
0.000400514
0.000444624
0.000451858
0.000422743
0.000375588
0.00033587
0.000342306
0.000420508
0.000682702
0.000120142
0.000122684
6.14418e-05
5.95188e-05
9.87995e-05
8.66586e-05
0.000105357
0.000141157
0.00019042
0.000252817
0.000324759
0.000394541
0.000444178
0.000455699
0.000430229
0.000384411
0.000342872
0.000346235
0.000412795
0.00068343
0.000123223
0.000114427
9.78764e-05
7.44415e-05
9.76265e-05
7.74429e-05
9.12136e-05
0.000123094
0.000170689
0.000235356
0.000312453
0.000386084
0.000437138
0.000450416
0.000428311
0.000385755
0.000345458
0.000348387
0.000407152
0.000681726
0.000126976
0.000111172
0.000162879
9.26154e-05
9.61352e-05
7.09249e-05
7.94854e-05
0.000107792
0.000153816
0.000219962
0.000299318
0.000372738
0.000421902
0.000435582
0.000417051
0.000379405
0.000343044
0.000348248
0.000403078
0.000674896
0.00013166
0.000115029
0.000128493
0.000114027
9.79287e-05
6.69175e-05
7.00894e-05
9.48682e-05
0.00013902
0.000204968
0.000282955
0.000352614
0.000397911
0.00041181
0.000397501
0.000366142
0.000335876
0.000345868
0.000400372
0.000662988
0.000137691
0.000119232
0.000123461
0.000147206
0.000105029
6.58862e-05
6.30657e-05
8.40183e-05
0.000125693
0.000189034
0.000262055
0.00032555
0.000366405
0.000381025
0.000371693
0.000347589
0.000324921
0.000341864
0.000399137
0.000646596
0.000144447
0.000119155
0.000140382
0.00033771
0.000123898
7.00507e-05
5.89081e-05
7.56272e-05
0.000113862
0.000171973
0.000237213
0.000293389
0.000330259
0.000346243
0.000342355
0.000325917
0.000311637
0.000337269
0.000399711
0.000626794
0.000145883
0.000135284
0.000264304
0.000230754
8.4204e-05
5.91266e-05
7.07993e-05
0.000104563
0.000155175
0.000210855
0.000259413
0.00029314
0.000310909
0.000312451
0.000303473
0.000297676
0.000333303
0.000402507
0.000605059
0.000145009
0.000208923
0.00041971
0.000121797
6.7819e-05
7.19269e-05
0.000100178
0.000141539
0.00018655
0.000227393
0.000258567
0.000278178
0.000284701
0.000282465
0.000284643
0.000331123
0.000407773
0.000583172
0.000144027
0.000449953
0.000223489
9.80952e-05
8.46224e-05
0.000105465
0.00013552
0.00016833
0.0002008
0.00022931
0.000250466
0.000261294
0.000264788
0.000273967
0.000331634
0.000415384
0.000563155
0.000393037
0.00110901
0.000240352
0.000134024
0.000133737
0.000145433
0.000161163
0.000182712
0.000207359
0.000229423
0.000243887
0.000252064
0.000266947
0.000335421
0.000424755
0.000547321
0.000809742
0.00163692
0.000503504
0.000259141
0.000199004
0.00017579
0.000177509
0.000194776
0.000216395
0.000233921
0.000245898
0.000264965
0.000342868
0.000435064
0.000538439
0.00132112
0.00490088
0.00127034
0.00044807
0.000255649
0.000198538
0.000196628
0.000213646
0.000233247
0.000248363
0.000269873
0.000354535
0.000445937
0.000539995
0.00255021
0.0114125
0.00223677
0.000624306
0.000311797
0.000231138
0.000227554
0.000245365
0.000262737
0.000284574
0.000371811
0.000458508
0.000556352
0.00336738
0.00980358
0.00256163
0.000809344
0.000370075
0.000277912
0.000278299
0.000294778
0.000313925
0.000397772
0.000476303
0.000592568
0.00347701
0.00755375
0.00249539
0.00086254
0.000426646
0.000352093
0.000355326
0.000366331
0.000438243
0.000505305
0.000653621
0.00328094
0.00598785
0.00230846
0.000862215
0.000519173
0.000466563
0.000456866
0.00050337
0.000553301
0.000743356
0.0029536
0.00533921
0.00211869
0.000929488
0.000678459
0.000613922
0.00061079
0.000629927
0.000864127
0.00272469
0.00480405
0.00218509
0.00111769
0.000894515
0.000792837
0.000749152
0.00101813
0.00285805
0.00401952
0.00224635
0.0014172
0.00111363
0.000935306
0.00121012
0.00324207
0.00410734
0.00239752
0.00170658
0.00123517
0.00144979
0.00313566
0.00399698
0.00279063
0.00174904
0.00175193
0.00273798
0.00462014
0.00272837
0.00213436
0.00273787
0.00432153
0.00262225
0.00385381
0.00322301
0.00295664
)
;

boundaryField
{
    floor
    {
        Cmu             0.09;
        kappa           0.41;
        E               9.8;
        type            epsilonWallFunction;
        value           nonuniform List<scalar> 
36
(
0.000753699
6.03688e-05
7.80212e-05
9.04471e-05
9.9034e-05
0.000104908
0.000109424
0.000113026
0.000115603
0.000117739
0.000120142
0.000123223
0.000126976
0.00013166
0.000137691
0.000144447
0.000145883
0.000145009
0.000144027
0.000144027
0.000208923
0.000264304
0.00033771
0.00041971
0.000449953
0.000393037
0.000753699
0.0010335
0.000850016
0.000602956
6.03688e-05
0.000602956
6.73874e-05
0.000796776
7.59732e-05
0.000856867
)
;
    }
    ceiling
    {
        Cmu             0.09;
        kappa           0.41;
        E               9.8;
        type            epsilonWallFunction;
        value           nonuniform List<scalar> 
43
(
0.00341977
0.00138342
0.000633944
0.000641779
0.000657544
0.000661834
0.000661533
0.000661266
0.000663221
0.000666598
0.000670643
0.000674709
0.00067828
0.000680999
0.000682702
0.00068343
0.000681726
0.000674896
0.000662988
0.000646596
0.000626794
0.000605059
0.000583172
0.000563155
0.000547321
0.000538439
0.000539995
0.000556352
0.000592568
0.000653621
0.000743356
0.000864127
0.00101813
0.00121012
0.00144979
0.00175193
0.00213436
0.00262225
0.00322301
0.00295664
0.00264227
0.00238016
0.00396195
)
;
    }
    sWall
    {
        Cmu             0.09;
        kappa           0.41;
        E               9.8;
        type            epsilonWallFunction;
        value           nonuniform List<scalar> 9(0.000947541 0.00134398 0.00180809 0.00253178 0.00270178 0.00264227 0.00477143 0.00361907 0.00341977);
    }
    nWall
    {
        Cmu             0.09;
        kappa           0.41;
        E               9.8;
        type            epsilonWallFunction;
        value           nonuniform List<scalar> 
14
(
0.000393037
0.000809742
0.00132112
0.00347701
0.00328094
0.0029536
0.00272469
0.00285805
0.00324207
0.00313566
0.00273798
0.00273787
0.00385381
0.00295664
)
;
    }
    sideWalls
    {
        type            empty;
    }
    glass1
    {
        Cmu             0.09;
        kappa           0.41;
        E               9.8;
        type            epsilonWallFunction;
        value           nonuniform List<scalar> 9(0.00144785 0.00243502 0.00373245 0.00551284 0.00726684 0.00727742 0.0067555 0.00422549 0.00341413);
    }
    glass2
    {
        Cmu             0.09;
        kappa           0.41;
        E               9.8;
        type            epsilonWallFunction;
        value           nonuniform List<scalar> 2(0.00255021 0.00336738);
    }
    sun
    {
        Cmu             0.09;
        kappa           0.41;
        E               9.8;
        type            epsilonWallFunction;
        value           nonuniform List<scalar> 
14
(
0.00144785
0.00199563
0.0023564
0.00282254
0.0031578
0.00307379
0.00265934
0.00228188
0.00199147
0.0017342
0.00150017
0.00128153
0.00110263
0.000931796
)
;
    }
    Table_master
    {
        Cmu             0.09;
        kappa           0.41;
        E               9.8;
        type            epsilonWallFunction;
        value           nonuniform List<scalar> 9(8.68478e-05 7.89385e-05 7.52896e-05 6.99663e-05 6.17656e-05 5.3431e-05 6.14418e-05 9.78764e-05 0.000162879);
    }
    Table_slave
    {
        Cmu             0.09;
        kappa           0.41;
        E               9.8;
        type            epsilonWallFunction;
        value           nonuniform List<scalar> 9(0.000198381 0.000137549 0.00010051 7.50316e-05 5.89168e-05 5.17641e-05 5.24208e-05 5.95188e-05 7.44415e-05);
    }
    inlet
    {
        type            turbulentMixingLengthDissipationRateInlet;
        mixingLength    0.00315;
        phi             phi;
        k               k;
        value           uniform 1.49737;
    }
    outlet
    {
        type            zeroGradient;
    }
}


// ************************************************************************* //
