/*--------------------------------*- C++ -*----------------------------------*\
  =========                 |
  \\      /  F ield         | OpenFOAM: The Open Source CFD Toolbox
   \\    /   O peration     | Website:  https://openfoam.org
    \\  /    A nd           | Version:  6
     \\/     M anipulation  |
\*---------------------------------------------------------------------------*/
FoamFile
{
    version     2.0;
    format      ascii;
    class       surfaceScalarField;
    location    "100";
    object      phi;
}
// * * * * * * * * * * * * * * * * * * * * * * * * * * * * * * * * * * * * * //

dimensions      [1 0 -1 0 0 0 0];

internalField   nonuniform List<scalar> 
850
(
-0.00383284
0.0038992
-0.00560773
0.00177477
-0.00671682
0.00110898
-0.00724109
0.00052416
-0.00710355
-0.000137646
-0.00619845
-0.000905216
-0.00455455
-0.00164401
-0.00239682
-0.00215784
-0.000104734
-0.00229222
0.001665
-0.00176991
0.00285549
-0.00119066
0.00345616
-0.000600855
0.00342783
2.81441e-05
0.00256973
0.000857906
0.00257435
-0.00141576
0.00142088
-0.00122979
-0.00018631
-0.000238045
-0.000992083
0.000827138
-0.00106552
0.00167341
-0.000846608
0.0021674
-0.000494324
0.00239623
-0.000229158
0.00252477
-0.00012888
0.00261179
-8.73429e-05
0.00267083
-5.93716e-05
0.00270947
-3.89589e-05
0.00272812
-1.89811e-05
0.00271223
1.55584e-05
0.00262373
8.81766e-05
0.00239677
0.000226619
0.00198456
0.000411876
0.00133203
0.00065218
0.00133789
-0.00270351
0.00678552
-0.00420004
0.0032712
-0.00524559
0.00215443
-0.00576832
0.0010468
-0.00565484
-0.000251221
-0.00480953
-0.00175061
-0.00335124
-0.00310239
-0.00159819
-0.00391098
5.2561e-05
-0.00394312
0.00145822
-0.00317574
0.0024628
-0.00219544
0.00307734
-0.00121559
0.00335455
-0.000249273
0.00349465
0.000717598
0.00448912
0.00157966
0.00320569
0.00129165
0.00188535
0.00132925
0.00191064
-0.000117339
0.00155452
0.000530406
-0.000834391
0.00118758
-0.00164959
0.00174045
-0.00161872
0.0021794
-0.00128589
0.00229236
-0.000607628
0.00231366
-0.000250799
0.00233564
-0.00015119
0.00235338
-0.000105413
0.00236464
-7.09656e-05
0.00237188
-4.65249e-05
0.00237516
-2.25911e-05
0.00236679
2.35954e-05
0.00230344
0.000151194
0.00204246
0.000487252
0.00159876
0.00085523
0.00100621
0.00124437
0.0023611
-0.00182205
0.00889155
-0.00293949
0.00438854
-0.00377375
0.00298859
-0.00420666
0.00147961
-0.00406905
-0.000388919
-0.00321539
-0.00260434
-0.001924
-0.00439382
-0.00053648
-0.00529856
0.000651624
-0.00513137
0.00165664
-0.00418095
0.0024121
-0.00295111
0.00290407
-0.00170779
0.00320823
-0.000553658
0.00343606
0.000489528
0.00363752
0.00137797
0.00312659
0.00180234
0.00210996
0.00234564
0.00404377
0.00185904
-0.000279147
0.00238236
-0.00135804
0.00249103
-0.00175859
0.00262884
-0.00175687
0.00295134
-0.00160873
0.00234352
0.00209254
0.00194117
0.00183558
0.00176444
0.00171775
0.00169498
0.0017184
0.0018694
0.00151605
0.000840246
0.00113137
0.00123953
0.000677746
0.00169762
0.00306596
-0.00120213
0.0104655
-0.00190215
0.00508844
-0.00228707
0.00337341
-0.0024712
0.00166363
-0.00214706
-0.000713155
-0.00124013
-0.00351132
-0.000187638
-0.00544632
0.000747684
-0.00623393
0.00149333
-0.00587715
0.00209484
-0.00478268
0.00252104
-0.00337756
0.00277759
-0.00196461
0.00292426
-0.000700586
0.00303123
0.000382299
0.00314261
0.00126634
0.00310996
0.00183474
0.00315089
0.00230446
0.00469857
0.00249584
0.00384765
0.000876461
0.00383825
-0.000270023
0.00359072
-0.00111079
0.00329049
-0.00145868
0.00298671
-0.00145344
0.0025318
-0.00115418
0.00298703
-0.000455748
0.00311719
-0.000130689
0.00311268
3.97192e-06
0.00302156
9.05801e-05
0.0028573
0.00016372
0.00262216
0.000234597
0.002303
0.000318608
0.0018633
0.000439153
0.00122164
0.000641111
0.00101338
0.00104811
0.00070458
0.00154794
0.000349617
0.00205219
0.00345179
-0.000877752
0.0117905
-0.00119856
0.00540914
-0.000870499
0.00304523
-0.000465707
0.00125872
0.000285057
-0.00146403
0.00111544
-0.00434172
0.00177068
-0.00610154
0.00219181
-0.00665509
0.0024493
-0.00613477
0.00257086
-0.00490448
0.00258035
-0.00338734
0.00251812
-0.00190269
0.0024487
-0.000631464
0.00244002
0.000390682
0.00255396
0.00115212
0.00276916
0.00161926
0.00319517
0.00187817
0.0038902
0.00180054
0.00392804
0.000838328
0.00383
-0.000172282
0.00350124
-0.000782362
0.00308026
-0.00103806
0.00264818
-0.00102172
0.00227514
-0.00078153
0.00218169
-0.000362691
0.00209055
-3.99534e-05
0.00195421
0.000139906
0.00180487
0.000239504
0.00165311
0.000315071
0.00149284
0.000394453
0.00131135
0.000499684
0.00109529
0.000654799
0.000863732
0.000872253
0.000721105
0.00119033
0.000644506
0.00162413
0.000397907
0.00229839
0.000827738
0.00302156
-0.00171743
0.00257364
-0.00236141
0.000667961
-0.00225712
-0.000710195
0.0130153
-0.000415586
0.00511441
0.000903301
0.00172622
0.00203075
0.000131125
0.00308587
-0.00251925
0.00366326
-0.00491911
0.00384972
-0.00628795
0.00369647
-0.00650187
0.00332701
-0.00576546
0.00285008
-0.00442783
0.00235792
-0.00289551
0.00192063
-0.00146576
0.00161045
-0.000321633
0.00149321
0.000507599
0.00159259
0.00105243
0.00185368
0.00135786
0.00226349
0.00146806
0.0027809
0.00128282
0.00299544
0.000623457
0.00285599
-3.31858e-05
0.00252502
-0.000451764
0.00211223
-0.000625663
0.00168813
-0.000598022
0.00131825
-0.000412059
0.00107223
-0.000117096
0.000904788
0.000127061
0.000778828
0.000265436
0.000679228
0.000338674
0.000603672
0.000390196
0.000551678
0.000446017
0.000523681
0.000527251
0.000522516
0.000655534
0.000555508
0.000838832
0.000674498
0.00107091
0.000949689
0.00134851
0.00137375
0.00187391
0.00209522
0.00229968
0.0025945
0.00207393
0.00207002
0.00119199
-8.8407e-05
0.00306128
0.0105424
0.00402148
0.0041541
0.00469828
0.00104929
0.00583995
-0.00101072
0.00651759
-0.00319695
0.00651116
-0.00491259
0.00591217
-0.00568887
0.00491471
-0.00550445
0.0037445
-0.00459547
0.00257669
-0.00326036
0.00156891
-0.00188815
0.000794484
-0.000691741
0.00035083
0.000121623
0.000239533
0.00061854
0.000378287
0.000913335
0.000667154
0.00106866
0.0010491
0.00108576
0.0014297
0.000901867
0.0015661
0.000486673
0.00144271
8.98072e-05
0.00115898
-0.000168454
0.000796131
-0.000263238
0.000418158
-0.000220486
8.16648e-05
-7.60092e-05
-0.000150332
0.000114454
-0.000278083
0.000254364
-0.000341194
0.000328097
-0.000363455
0.000360486
-0.000346802
0.000373096
-0.000284333
0.000383102
-0.000164572
0.000407044
2.81633e-05
0.000462352
0.000297864
0.000568686
0.000648034
0.000720297
0.00111132
0.000884775
0.00175749
0.0012273
0.00263958
0.00141715
0.00362246
0.00109061
0.00385674
0.00095726
0.00387825
0.0112183
0.0153836
0.0135772
0.00285558
0.0123546
0.000211855
0.0109304
-0.00177263
0.00916186
-0.00314388
0.00711551
-0.00364244
0.00498491
-0.00337399
0.00298759
-0.00259851
0.00124112
-0.00151434
-5.65463e-05
-0.000590974
-0.000817575
6.88474e-05
-0.00110116
0.000404808
-0.0010855
0.000602495
-0.000905521
0.00073298
-0.000633728
0.000796484
-0.000326965
0.00077861
-7.75459e-05
0.000652043
-1.52059e-05
0.000423911
-0.00013321
0.000207372
-0.000370641
6.85242e-05
-0.000663232
2.88896e-05
-0.000952328
6.81401e-05
-0.00118123
0.000152419
-0.0013119
0.000244651
-0.00136537
0.000307365
-0.00136953
0.000331781
-0.00133417
0.000324657
-0.0012566
0.000295068
-0.00112766
0.000253698
-0.00093571
0.000214625
-0.000668636
0.000194814
-0.00031232
0.000211905
0.000127941
0.00027957
0.000607958
0.000404295
0.00120134
0.000633455
0.00187904
0.000739003
0.00229496
0.000674226
0.00122953
0.00202222
0.0054572
0.0104243
0.00421158
0.00875282
0.00188371
0.0075017
-0.000521246
0.00590321
-0.00154538
0.00390882
-0.00164832
0.00181726
-0.00128289
-6.44236e-05
-0.000717423
-0.0014341
-0.000145173
-0.00218344
0.000157888
-0.0024571
0.000342072
-0.00248638
0.000433659
-0.00238315
0.000498848
-0.00220017
0.000549579
-0.00198069
0.000576569
-0.00176881
0.0005663
-0.00162305
0.000505836
-0.00160118
0.000401576
-0.00169336
0.000299069
-0.00185593
0.000230606
-0.00203537
0.000207844
-0.00219043
0.000222693
-0.0022974
0.000258891
-0.00235148
0.000298229
-0.00236947
0.000324857
-0.00237221
0.000334025
-0.00237669
0.000328653
-0.00239815
0.000316036
-0.00245303
0.000308089
-0.00256043
0.000321528
-0.0027435
0.000377396
-0.00303284
0.00050076
-0.00347458
0.000720823
-0.00414507
0.00107431
-0.00510476
0.00159267
-0.00655019
0.00218396
-0.00846797
0.00259153
-0.00838236
0.00193614
-0.00255736
0.00352746
0.000796974
0.0034544
0.00195672
0.00192455
0.00100843
0.000294154
8.46781e-05
-0.00125254
-0.000102167
-0.00251075
-2.51984e-05
-0.00335244
0.000123729
-0.00375057
0.00025246
-0.00389229
0.00029913
-0.00387327
0.000322579
-0.00377708
0.000337008
-0.00363534
0.000356648
-0.00346773
0.0003815
-0.00329511
0.00040348
-0.00314188
0.000412585
-0.00303653
0.000399992
-0.00300137
0.000365913
-0.00302842
0.000325605
-0.00309153
0.000293192
-0.00316028
0.000276065
-0.00321205
0.000273936
-0.00323603
0.000282334
-0.00323311
0.00029478
-0.00321386
0.000305079
-0.00319089
0.000310527
-0.00317435
0.000311583
-0.00317068
0.000311835
-0.00318243
0.000319313
-0.00320893
0.000347509
-0.00324752
0.000415467
-0.00329518
0.000547912
-0.00334929
0.000774432
-0.00339344
0.00111796
-0.00336113
0.00155988
-0.00318443
0.00200678
-0.00243649
0.0018431
-0.000819225
0.000318362
-0.00326008
-0.00208313
-0.00647208
-0.00671365
-0.00352143
-0.00552428
-0.000393339
-0.0045363
0.000968128
-0.0043674
0.000838955
-0.00474669
0.000463425
-0.00510611
0.000256716
-0.00533641
0.000204566
-0.00541387
0.000200659
-0.00536536
0.000203437
-0.00526121
0.000194469
-0.00512615
0.000187008
-0.00497616
0.000186507
-0.00481585
0.000195821
-0.00464788
0.000213018
-0.00447829
0.000233368
-0.00431732
0.000251092
-0.00417844
0.000260572
-0.00407272
0.00025965
-0.00399962
0.000251951
-0.00394943
0.000242447
-0.00390883
0.000234907
-0.00386619
0.000230736
-0.0038139
0.000229485
-0.00374892
0.000229229
-0.00367189
0.000227485
-0.00358473
0.000222796
-0.00348906
0.000215344
-0.00338515
0.000207356
-0.00327014
0.000203745
-0.00313586
0.000212671
-0.00296668
0.000245736
-0.00273844
0.000319135
-0.00242151
0.000456969
-0.00198256
0.000678492
-0.00132726
0.000904081
-2.48802e-05
0.000703897
0.00220298
-0.000385241
0.00380636
-0.00128552
0.00067377
-0.00615447
-0.00965242
-0.0100237
-0.009036
-0.00818368
-0.00771216
-0.00745049
-0.00724291
-0.00704062
-0.00683672
-0.00664288
-0.00645754
-0.00627376
-0.00608173
-0.00587364
-0.00564642
-0.00540274
-0.00515093
-0.00490137
-0.00466076
-0.00443077
-0.00420921
-0.00399249
-0.00377744
-0.00356281
-0.00334984
-0.00314124
-0.00293949
-0.00274491
-0.00255289
-0.0023507
-0.00211409
-0.00180266
-0.00135202
-0.000678651
0.000221096
0.000919479
0.000523481
-0.000781827
)
;

boundaryField
{
    floor
    {
        type            calculated;
        value           nonuniform List<scalar> 
36
(
0
0
0
0
0
0
0
0
0
0
0
0
0
0
0
0
0
0
0
-6.22128e-06
-1.73758e-05
-2.749e-05
-3.65912e-05
-2.88968e-05
-2.44773e-05
-2.34142e-05
-4.81675e-06
-8.43211e-06
-9.14031e-06
-1.01788e-05
-5.46209e-06
-1.53456e-05
-1.66457e-05
-2.34086e-05
-2.57048e-05
-2.57898e-05
)
;
    }
    ceiling
    {
        type            calculated;
        value           nonuniform List<scalar> 
43
(
-2.4253e-05
-2.41958e-05
-2.27622e-05
-2.0273e-05
-1.39818e-05
-8.67107e-06
-5.51822e-06
-3.5887e-06
-2.19508e-06
-1.0253e-06
5.69849e-08
1.10311e-06
2.14975e-06
3.22489e-06
4.35526e-06
5.5594e-06
6.8387e-06
8.17013e-06
9.5007e-06
1.07546e-05
1.18583e-05
1.27571e-05
1.342e-05
1.38361e-05
1.40046e-05
1.39247e-05
1.3592e-05
1.3006e-05
1.2177e-05
1.11283e-05
9.89598e-06
8.53341e-06
7.11554e-06
5.74177e-06
4.54917e-06
3.76683e-06
4.95162e-06
1.01575e-05
1.92231e-05
1.93909e-05
-1.02485e-05
-1.12873e-05
-0.000112913
)
;
    }
    sWall
    {
        type            calculated;
        value           nonuniform List<scalar> 2(-0.000245894 -0.000294091);
    }
    nWall
    {
        type            calculated;
        value           nonuniform List<scalar> 6(-8.13633e-05 -9.91494e-05 -0.00011037 -0.000117029 -0.000128011 -0.000128189);
    }
    sideWalls
    {
        type            empty;
        value           nonuniform 0();
    }
    glass1
    {
        type            calculated;
        value           nonuniform List<scalar> 8(-6.64697e-05 -0.00018292 -0.000284079 -0.000371921 -0.000447276 -0.000514766 -0.000588473 -0.00066571);
    }
    glass2
    {
        type            calculated;
        value           nonuniform List<scalar> 2(-0.000349868 -0.000368271);
    }
    sun
    {
        type            calculated;
        value           uniform 0;
    }
    Table_master
    {
        type            calculated;
        value           nonuniform List<scalar> 9(-1.54609e-07 -1.54869e-07 -1.54925e-07 -1.54941e-07 -1.54936e-07 -1.54915e-07 -1.54883e-07 -1.54832e-07 -1.54729e-07);
    }
    Table_slave
    {
        type            calculated;
        value           nonuniform List<scalar> 9(1.54208e-07 1.54191e-07 1.54127e-07 1.54067e-07 1.5404e-07 1.5404e-07 1.54067e-07 1.54122e-07 1.54221e-07);
    }
    inlet
    {
        type            calculated;
        value           uniform -0.0117801;
    }
    outlet
    {
        type            calculated;
        value           nonuniform List<scalar> 2(0.00880034 0.00815108);
    }
}


// ************************************************************************* //
