/*--------------------------------*- C++ -*----------------------------------*=========                 |
  \      /  F ield         | OpenFOAM: The Open Source CFD Toolbox
   \    /   O peration     | Website:  https://openfoam.org
    \  /    A nd           | Version:  6
     \/     M anipulation  |
\*---------------------------------------------------------------------------*/
FoamFile
{
    version     2.0;
    format      ascii;
    class       volScalarField;
    location    "100";
    object      PMV;
}
// * * * * * * * * * * * * * * * * * * * * * * * * * * * * * * * * * * * * * //

dimensions      [0 0 0 0 0 0 0];

internalField   nonuniform List<scalar> 
458
(
1.1538961544950734
0.8932235091293491
0.8476305564001531
0.8222471050537228
0.8179619776592154
0.8375208061467133
0.8849237106520395
0.9639669961329624
1.077400847696819
1.0858108750892328
1.0587534649309225
1.0457354881430425
1.0523639055595722
1.0864510696859575
1.1068275711060989
1.724824792200784
1.682771280372814
1.6530183300447332
1.6487084495594313
1.6649893701983327
1.6662062437332668
1.6602768295070878
1.6653820629089915
1.6763756643773688
1.6900095900477863
1.7041241880076612
1.719622222952245
1.7368220039212954
1.7563255711846717
1.7809623153626182
1.8148846493562028
1.8635191234627217
1.924625662859427
1.067007042813951
0.9092191382960872
0.8858793546610201
0.8592192162639477
0.8520720517253944
0.8601671532113496
0.8736161164716044
0.9009465803495298
0.9848074826161717
1.0750945524216533
1.1109593740747303
1.1188060574237564
1.1142389450477717
1.1047773010811601
1.0764394522081626
1.0800120596638036
1.1397022376903176
1.2245743922641292
1.7382231363107048
1.6578068970790991
1.6074407071733525
1.586081492094588
1.5930859730651263
1.6112362912001734
1.6291669502732162
1.6467732760354328
1.6650064329085226
1.683591017034833
1.702921295603353
1.723024782044101
1.743330066485932
1.7657732431411213
1.792340995870749
1.8279305354242972
1.869668684152104
1.9122425544391612
1.0678391316553228
0.9066702040244032
0.9324273875431469
0.924422066497962
0.9183096379932322
0.8987435645645917
0.8437757876345577
0.8187574071895882
0.9037509156736603
1.0358748677913052
1.1371446398631415
1.18742349098934
1.1954333843156282
1.1767075169969543
1.1455588346148928
1.1454844623538813
1.1668372715634237
1.1847328641064432
1.6958136716445178
1.5339848087766235
1.4855779025344784
1.5044463906154457
1.5416248231763212
1.5634490147230913
1.6083540259832043
1.6505448514718712
1.6837449405618423
1.7138969279107719
1.7434322024340982
1.773822258323947
1.8027501885800408
1.8234599648297978
1.8423376162897074
1.8645120555399217
1.8771032859967973
1.88225429453265
1.1191049911343365
0.9085002464401155
0.977455347801378
1.0159164852918166
1.0288456661449543
0.9542263728258642
0.8127580108524988
0.7516897894355963
0.8457549271073479
1.012598043095523
1.1661482193217438
1.2643851173607716
1.296567039889235
1.2780221639436102
1.2373865608816716
1.2076075178577999
1.1776576343830436
1.1452811472760276
1.1413364930858063
1.2194394291286574
1.2954068826974703
1.384493251678661
1.4833469328942885
1.5767993055171154
1.649707693730894
1.6844578827952066
1.714461209875477
1.7495367005912337
1.786498522439806
1.8241482732156884
1.8635870730947053
1.905725731986067
1.954943793276209
1.951737688051552
1.9254727823079416
1.8942562783733103
1.8703470113188163
1.196391113094838
0.927341891540768
1.0200437203445865
1.1252830734377923
1.1897783273108629
0.9953750136074768
0.7797664475446298
0.7037606570249672
0.8062533549599141
1.0124844976348473
1.2172441378820733
1.360348388959534
1.4219280012814468
1.4061997068233312
1.351980437147898
1.3012285818911158
1.2567329717116698
1.227608511732166
1.2492484962144637
1.3026672179581231
1.3887295183246593
1.4959552343226363
1.6075679234717064
1.7102285174803333
1.7957432263297877
1.8518249151045405
1.8978419358856446
1.9370424885896886
1.9704895465561478
1.9989061681670381
2.0222037658250636
2.040954884099532
2.0504719547526795
2.026432921620994
1.978996515806204
1.92089104192806
1.8963252045679462
1.987942048353235
2.3940412948292082
2.2239049061913474
1.284240172989974
0.9696696223127002
1.08306234317106
1.231045971340562
1.2313183126003353
0.9750792830289068
0.7452205856861457
0.6618449321126053
0.7874552992923205
1.0438562809132008
1.303602103878006
1.4912389194924986
1.5706254878487949
1.5567285679929264
1.5002822700606182
1.4411429126033184
1.4000310168422434
1.3864662774068524
1.4241438967264561
1.4987036822718396
1.598283939720589
1.7070954007337846
1.812564460796405
1.9067864724765466
1.9846639459987823
2.0386111583377233
2.071952591982689
2.096230422888844
2.1143118630298394
2.1271549438817376
2.1342884228298957
2.1352394677109907
2.1271549438817376
2.0967537937960095
2.0420071422633943
1.9753709075020505
1.944206266842342
1.9827427235003465
2.1037595016618202
2.164385399907382
1.3825618403679876
1.070090437150199
1.2541115372154306
1.2946172615683682
1.1581968565807546
0.912066535558496
0.6690574704360208
0.6103987420995521
0.796483442564962
1.124990272242476
1.4453732558762717
1.6635529120756902
1.700416052214512
1.6793529324422038
1.6429616940979235
1.617097872904635
1.6068669384963172
1.6205691408146776
1.6817112230629503
1.7718921263102048
1.8676145062146166
1.9651890006886428
2.0386111583377233
2.096706338312537
2.141420763742884
2.1723140365572804
2.191313937830671
2.2041337838426633
2.212678009447647
2.2169494089020008
2.2164748326375836
2.209830144624479
2.1946380010465187
2.166137178166439
2.124014679875949
2.0583803082753267
2.0150060498074653
2.0143117856882338
2.038789159997391
2.1165789636210404
1.5194570930847042
1.419211403400114
1.3921303273373435
1.294538589165452
1.0874179885103543
0.7575416316357605
0.5183040178804399
0.5527962836543658
0.8645177631334061
1.2961925941011012
1.674510868907435
1.8195284688105373
1.841515427021846
1.8214406155341285
1.7989701141709082
1.7903628124892115
1.8047078351148587
1.8496395013617022
1.926057739768303
2.0133531082597385
2.0924229305216326
2.159959410988669
2.212678009447647
2.250628810896665
2.274801429186873
2.285512328559777
2.289957101082384
2.292588941246794
2.293450844718063
2.293210436160368
2.290906930434861
2.2804866163301
2.2643761019991437
2.2411448013969064
2.206032663865918
2.1718389261164215
2.147600167449597
2.132679650188779
2.0996912147552025
2.0799377652098396
1.72851842396716
1.6232983783416233
1.50101771699972
1.3269155514601636
0.7808901388660091
0.33503891777013617
0.24609959445198548
0.5490877447821463
1.0975021014097897
1.648401865176483
1.8979699980557199
1.9460802180449537
1.947508210687563
1.9412922079491832
1.9442014541329302
1.9651450714809566
2.007327990713318
2.0698410295806484
2.143901098303956
2.212785002460897
2.266729090128714
2.3055925612479897
2.3302581567666083
2.3441118583596308
2.3505453869073003
2.3526376321579847
2.3523274092786033
2.3506890755249548
2.3469496932401483
2.341254583368774
2.3330425003178035
2.3218085838185387
2.3057176539470756
2.2856174825478175
2.2648207957177338
2.2503656569190804
2.247148604658346
2.2540619479918584
2.257392031726799
2.27703051262723
-2.5828946605669296
-2.360317653571484
-1.8267006448038208
-0.9232201377080169
0.051931372569146754
1.020357959921067
1.7334783902320223
1.9561179301041312
2.0502822196072477
2.0801891461855386
2.0917585373011187
2.1026374283644405
2.121575229191694
2.151971637426901
2.1941431122568624
2.246315512188576
2.301855223754787
2.350886476650333
2.3880809876853104
2.4130987970888484
2.4263913156292958
2.431663355733036
2.431973929245553
2.429264082174444
2.4244051480195283
2.418755644436569
2.4111721248005513
2.401471861667945
2.389919239990243
2.376281829483687
2.3608866470731944
2.3461017375984916
2.334826819001973
2.3311106836029896
2.3396239836702333
2.369295290712376
2.440677478536303
2.5902532793448074
-2.1673609432958743
-0.6797938250025483
0.536855431814365
1.139638299443438
1.5488261520919764
1.8687334829962747
2.0783659337758693
2.17772585653083
2.2246534883048676
2.2500483620711376
2.269420486098238
2.289993055727191
2.3148225122862462
2.345335205235814
2.380821118706768
2.4184714718298563
2.4540073050788482
2.48334448692475
2.5040930972928277
2.515956088539457
2.520644163014077
2.520309806721734
2.5165205157778434
2.5107799430710256
2.5035538006471816
2.4943302522766766
2.4837077610266944
2.4713878829059555
2.4581999508165535
2.444553988606888
2.431479426288982
2.4217221655805825
2.4182611024719507
2.4239909744797234
2.4401324584127533
2.473120389224512
2.4971051380184264
2.5898004233205043
-0.3266339500002039
-0.3478265028380606
-0.2654197546467449
0.9746223545514717
1.7317464875711075
2.078000797435266
2.2309462392665536
2.321081843841377
2.3803788562706774
2.419207485614999
2.446843120377368
2.468640622296531
2.4879419268713883
2.505984645917661
2.525014175715492
2.5439951984334574
2.562362365866053
2.579520499510034
2.593804613341461
2.6035901364073246
2.6083662003113144
2.6092468141691483
2.6062863742634224
2.6011134794144164
2.5942774872007406
2.585772426951855
2.576677330111549
2.5654407097622483
2.553777164975014
2.540248634813087
2.5261327308736643
2.5111087134146897
2.4958808751010486
2.4815481377960054
2.467705812520988
2.457391161076496
2.458392633189098
2.4959301981683635
2.5704725122580667
2.6962327437169016
)
;

boundaryField
{
    ".*"
    {
        type            zeroGradient;
    }
}


// ************************************************************************* //
