/*--------------------------------*- C++ -*----------------------------------*=========                 |
  \      /  F ield         | OpenFOAM: The Open Source CFD Toolbox
   \    /   O peration     | Website:  https://openfoam.org
    \  /    A nd           | Version:  6
     \/     M anipulation  |
\*---------------------------------------------------------------------------*/
FoamFile
{
    version     2.0;
    format      ascii;
    class       volScalarField;
    location    "100";
    object      PPD;
}
// * * * * * * * * * * * * * * * * * * * * * * * * * * * * * * * * * * * * * //

dimensions      [0 0 0 0 0 0 0];

internalField   nonuniform List<scalar> 
778
(
25.143580440971263
15.48912603604792
22.950023595361614
13.916141960668256
17.241257762544876
23.10860626966199
13.723223704954606
16.92061291981706
18.442017218206047
25.43358633096075
14.579042255159465
17.23009178967004
21.566955572664952
19.95102063878123
29.199834089721307
16.416971085930157
16.606838280322393
21.758918441949234
29.000653203641903
23.19990969539036
35.2210648036565
19.27476709392866
15.335131419156312
15.187375867845518
18.723404460533658
26.308856116480797
35.21167480651199
42.574593762226606
17.860243767821558
14.71616571832456
12.362230125078653
12.582386444257537
15.078101875770287
20.62233288130676
29.173642795920557
5.017075402319065
15.681179028710815
14.205010801573238
11.628316583855408
10.134826228733104
9.860911494544723
10.795558569024251
14.886577584854635
5.2744014240104065
15.04841650509836
14.462679128943591
13.555380608012712
11.694642580792944
9.662399867778547
8.179531037031794
7.112077709870476
6.499176764983076
5.8286188509346175
21.498003877942693
22.624313492397718
14.020002819184484
13.080531232152609
11.987761013050914
10.219615293217132
8.336612796658358
6.630523712364138
5.251898989826515
7.084563015311545
9.567667468800494
29.962750663255704
35.36297274831736
14.20809613988223
12.908091185768086
12.252816362031737
11.196615341818188
9.611686365444513
7.768972011426143
5.915412620039874
5.126239170039483
9.712234120348114
22.148955484948104
37.95906514641194
41.46232967570549
14.970917246170558
13.043616908697501
12.482059103319784
12.164810485129834
11.511806436492975
10.361148192922954
8.949958575260098
7.711839928107025
7.23950033358625
13.107595441631204
32.700764034199906
46.7122758516316
45.636496708727464
16.646232135711458
13.508836065538091
12.683397241527956
12.869810397222679
13.442239382598359
13.995219044070168
14.73289630103072
17.828018097392913
27.32052835091136
8.494747492222473
22.15273990684703
44.29089488162588
53.311978743191894
45.97177000418698
17.941191882822423
14.145567730523553
12.97819216564352
13.222882007900168
14.848767151176233
17.60657517988612
21.80829415574405
30.321624052764804
44.48429653928148
40.35501321021243
6.0487454273938965
41.061244281097935
52.14036351936815
54.399742969302146
43.81910557547809
14.682729811553685
13.348577898649609
13.46117762571511
15.463778531439715
20.141410362043047
28.04356735075109
40.534978090805375
50.95669850398229
50.945407964108256
40.327147826472086
5.405420140899793
64.2420714211855
54.85807657341152
32.2793446583422
15.01409643195187
13.83016553720708
13.646923245826429
15.619662225862854
21.16941194620729
31.79490833723655
46.72614514164951
52.11438791843501
52.55888698939914
51.84099756727921
37.893273325884806
12.922647118080533
78.32252738550117
55.227533894286495
17.731640211151145
14.723947823990912
13.867453388544163
15.416081610715025
20.78602142851807
32.225642300988156
47.16058182778955
51.64106079524272
51.63980888955968
53.082838466690355
52.558202035328854
34.967574844828206
29.239230106959056
76.76141014299724
100.0
22.568952613530485
16.527101445955495
14.281214874015632
15.07747867880255
19.563429641460573
29.65101967039567
45.061726625954115
49.84771456485117
50.078937070849506
51.63195182841052
54.34742711476013
54.071690499383294
32.720205618825915
38.91814241861803
90.41324102344801
48.42369865647216
18.570073721221206
14.756331280427759
14.887281707126832
18.173520931106196
26.220774729641732
39.57249328975222
47.46936601188109
48.56314371758223
49.424688877432295
52.77633539798783
56.514749999599324
56.663262770480124
31.9802304085312
16.151060739308633
49.44198322433976
63.41990118815509
15.42469146066719
14.837602062431245
17.09082374324828
23.08864830602039
33.592290071545534
44.045985652788715
47.38963292516609
47.09384603283854
50.29934621344867
55.03025930751604
59.2998996711077
59.84022014494142
52.1825550181454
56.56957879801175
67.03686440926543
66.75166545032317
75.86268924441669
16.003866769277877
15.19987050122485
16.404580677187056
20.720221876305388
28.73344564289134
40.55877556402964
44.88355741516624
44.988875858158984
47.61805539957545
52.542350854378874
57.91202326482213
62.08131123591091
63.885091969834306
63.29193147047977
68.94827176683944
75.20023128384682
75.92894328259752
78.56734122365387
80.65117262219263
38.16997537858989
16.30825100976071
16.266882825736218
19.14673316800082
25.153463303140768
34.30102410150627
42.033342718777206
43.30666865320813
45.07402571335163
49.88279614009852
55.693511920359065
60.98467676043856
64.86686982890743
67.24917796145607
70.19884063623512
74.90793715336166
79.6913802067135
83.573727959985
86.74857989542168
78.42743481096959
50.44698692354061
22.84904741267266
16.837905232149083
18.290498001356795
22.694389552895444
29.79431176671808
39.25325553265489
41.99456583381414
42.8146713992155
47.27792541735889
53.37149433908234
59.282216990728415
64.16869381150127
67.89650748901548
71.14029868037481
74.80114638934444
78.90930828677547
88.99028083967919
78.70194553333792
79.56489681253723
59.406856588593705
29.88061842023498
19.396769239914818
18.28457701741155
21.178802326136633
26.702375859376033
34.243268109072844
40.18966114042683
41.00093033774849
44.876071661680726
51.07271820329463
57.496935473509886
63.04671330892541
67.54908552932352
71.32359415862437
74.82522682848003
78.476615051718
78.0233873675515
78.67058220412503
80.02661480064529
66.6284151322931
36.485504149039656
22.96014293278236
19.459999407129388
20.67604848528667
24.703826694152056
30.870428613802176
37.60035562803446
39.665045748506216
42.86738559785062
48.939038114198496
55.740506906441574
61.83846523458627
66.8874457798344
71.08530660650716
74.69804534322884
78.19161301735897
74.88879558962505
78.7241121068721
81.10839651796056
72.56813323659097
42.58098730277269
26.913473969876392
21.456251163580475
21.129643979576315
23.800851843339927
28.655221132075866
34.9865062013679
38.57383165221917
41.32671717621205
47.092911483838094
54.11054675886956
60.63435463992942
66.1123145335278
70.64865314434583
74.4380733488936
77.92573605236807
73.16589038769841
78.59073665720037
82.95563201313873
75.33558511807462
48.033674906251896
30.873774969693898
23.946206053360143
22.31809833132533
23.841035935788838
27.584391402443757
32.896844851337875
37.60206360409081
40.40541304141308
45.610827567965
52.6927026538677
59.515842555960425
65.32314504473953
70.12864999376872
74.10907264271205
77.64915458524379
72.0907632028455
78.31868129442188
84.90220288141442
77.68648975327284
52.14922957651114
34.62638127695554
26.571833827635857
23.97256658932052
24.542609826162078
27.386232435162754
32.00138783156153
36.949018306123016
40.069495442231016
44.75405349540761
51.57995591252461
58.571059340362595
64.61507669347229
69.62931451955603
73.73090020057994
77.37621891210917
71.32518956041808
77.80133758189388
85.20765910181892
79.29816468888646
55.85293750890493
37.911337493915525
29.19888796373077
25.852122871511256
25.70723193726866
27.88845499454466
31.960405462377764
36.912102666683026
40.34962111342399
44.53470580832988
50.88081209981745
57.86257262698114
64.05337874722292
69.19413117191505
73.39705318091944
77.10994065485487
70.75684381189109
77.14933745514747
85.20765910181892
79.77189520074593
59.30819980049216
40.824232506474736
31.681452273439277
27.817400205155167
27.189245356508735
28.871087386807645
32.61160012879671
37.670917619671194
41.33913823852283
45.008309990292815
50.77430331929604
57.42537869972431
63.64576137600494
68.83422076405668
73.09583785107567
76.88289827342902
70.30077262265215
76.42773209831341
85.10625295606798
79.06387331590693
62.32822805805041
43.67495659238661
33.96303417256169
29.778854346182683
28.81466575223736
30.1767482828306
33.76757648820707
39.13245805692091
43.11830210634671
46.197808082746164
51.24232104777329
57.44429158796267
63.42569556732308
68.61082618088602
72.88866128445925
76.65567712258074
69.94280599637507
75.64354642588157
85.10625295606798
77.8134184622572
64.9811614193255
46.537496420975884
36.152201343323576
31.702832606994775
30.50745811564849
31.74628175451349
35.32078363284819
41.10024968892792
45.59397535617456
48.04079838519463
52.30973066291917
57.853622915656324
63.50138410325436
68.5285259528773
72.75705608187843
76.48534113345663
69.68276245798205
74.86097974069258
84.57575734689802
76.8308783962726
67.23277728816264
49.396780326625255
38.35344255073668
33.56361133225472
32.2723405391592
33.49878310433398
37.207565826308716
43.4498580976069
47.70119707354147
50.40290537351139
53.83051381274677
58.68911016265174
63.838869469014945
68.61471554187784
72.70491800750446
76.35387624877995
69.54732884448515
74.14004628352843
80.44340363743514
76.33661498972519
69.22483304107114
52.34757073471826
40.62919674157189
35.43908925450627
34.07594226677378
35.435530486786874
39.412817108435185
45.85274832734868
50.00339384709532
53.04728053433892
55.71084302187585
59.84276429907097
64.45388424848292
68.86586382677737
72.75782984486092
76.29098405074095
69.55950524746689
73.65544379714717
75.74904227092239
76.08722078653388
70.96223511112906
55.4532855019317
43.05159478110684
37.366465499087596
35.98379418053756
37.56021303424298
41.89883666026135
48.37203165431993
52.474487295962
55.757751481104435
57.753918658298105
61.20763937703943
65.24916412192007
69.27546970455347
72.93773665830139
76.2490297340812
69.7173823512573
73.19899786067003
75.55127717670547
76.22173960385929
72.44542344767058
58.62113860300719
45.756341240146305
39.49537338668095
38.040339807322226
39.89339755562436
44.5832687782161
50.93859461495256
54.97704675951032
58.358960576098426
59.80066005510616
62.681931775556535
66.18316819289603
69.78193643583587
73.1892976918976
76.27442381295822
69.95876887166068
73.43277837404034
76.83435899184158
76.7745839768058
73.6516647441712
61.75569411020572
48.83280207129566
41.931221146752804
40.31350699103211
42.41645320360058
47.35555471133795
53.41274327173614
57.34596881959425
60.67964088543286
61.73400677752726
64.11785341239636
67.16319633810019
70.37673119202849
73.5069472777996
76.3395375861437
70.35905689619939
74.48588947576435
76.72686310976822
76.84020874698186
74.52644737805849
64.74505720510786
52.3873981168772
44.82750460399603
42.9175575408627
45.092576902911574
50.131305642384916
55.706687993066666
59.470897446323
62.65668107656281
63.47821887312056
65.48498509758554
68.12841079007282
70.99991349486197
73.88412996097932
76.44010713808551
71.0898001398121
75.15819327388043
76.48955446195953
76.855565132735
75.0239622821548
67.56712881358291
56.26516795259697
48.33918258411241
45.95730851857212
47.94402062582863
52.83008284073815
57.813433263252605
61.34978192895016
64.29911234361359
64.96943911241772
66.68082205173073
69.02367401202655
71.62065755823724
74.2388861936393
76.5706586489107
72.22672664827664
75.33069349784564
73.96994157699694
75.39176763507
70.069070973252
60.216982041886766
52.39325293172783
49.49622890732808
50.9723400616443
55.421130524359434
59.7032892421839
62.98357933837085
65.62358188172307
66.20201114687049
67.71406988044546
69.82453889187198
72.16009041719799
74.61628277788151
76.70161940829578
73.41940445078602
72.76454149614628
74.71807846871972
72.07285829651536
63.94311686999383
56.78081193783575
53.44790615858823
54.18757917649162
57.86947687794166
61.477916648005404
64.40049005964173
66.66594752583981
67.2217262851577
68.59520501873895
70.4842789744005
72.64520316697993
74.93769114038827
76.82848932519293
72.3703443205081
71.5191390139024
73.51813154937733
67.16752985923098
61.05538887283662
57.63595079744261
57.52493379837679
60.120633263396925
63.161383541321705
65.6539799033205
67.47252858277866
68.04616484935745
69.28467324121476
71.00987750311992
73.05359744991873
75.20115412461567
76.94795632843716
69.93169676948807
72.19451491346211
69.89608732790742
64.86650177314232
61.68771892749883
60.859773470280096
62.20758804181492
64.8279786154765
66.82103445965063
68.14401677629036
68.7131672662048
69.81913749465735
71.43399284499435
73.36499744721971
75.43162873902202
77.03465071808151
69.09727085004783
69.482636873379
68.16070564851674
65.38495923285211
64.02399153904106
64.14408642893676
65.79412336453612
67.7398097072172
68.64297305165775
69.25387996098966
70.25777678519631
71.76337334043993
73.60984537402518
75.58378027410497
77.1139762341137
68.70462946122694
67.30825598749001
69.06907402920929
67.20202681053891
66.00567675721486
66.46731158446678
67.88474568963565
69.0344702093731
69.71527371687887
70.60717680753649
71.9794353758063
73.74390125639
75.66536400704375
77.11794190354928
67.96983668602117
67.03689619591822
70.268136102712
67.93366708732694
67.26283999872217
68.06218102307476
69.29730438575552
70.13087319105654
70.92093979537083
72.16076551616065
73.84552920840667
75.66346389130848
77.07681633362091
69.1100073007456
70.54637822519345
70.39799337611336
68.3530121421846
68.2946090688796
69.40905634529273
70.487031759071
71.24876996006932
72.3085017881182
73.868749976538
75.61538562493914
76.94906104055886
69.74622740282246
71.57631279170056
70.45271037309296
68.79459507449164
69.48785795433919
70.76361977764952
71.60739716736013
72.47134481170296
73.86454091407249
75.509285319566
76.73940993671702
70.60397112419983
72.35256057999968
70.30438351869725
69.63651680492303
70.98146749001197
72.01384415468705
72.69200106226
73.88338318793434
75.37953437833255
76.45059137852911
71.19205616969663
72.41349933310002
70.30204780396659
71.16594720371188
72.51058631507114
73.03315285788547
73.94905831659679
75.26034085607759
76.11066525462778
71.27165001813839
71.34208388156115
71.4420010085022
73.21280119572589
73.45938790770919
74.10817366632327
75.23271651101592
75.77663180375227
71.05006578657773
70.99484778031191
74.06110676958262
74.2013959330817
74.38669593551437
75.32447487195081
75.52994582878163
70.98765694166126
71.96510009044137
75.56811962276105
74.93028795765923
75.63856190190651
75.41764061748272
70.55213416538798
75.46933358217791
76.24308964857867
76.48839506549022
75.51328028447911
70.52593303250069
76.9466647502424
78.66673251532285
76.02210644125263
71.52076865035042
76.53026020805018
77.35072393909829
73.49802948607035
77.93794690079321
72.7364202060444
)
;

boundaryField
{
    ".*"
    {
        type            zeroGradient;
    }
}


// ************************************************************************* //
