/*--------------------------------*- C++ -*----------------------------------*\
  =========                 |
  \\      /  F ield         | OpenFOAM: The Open Source CFD Toolbox
   \\    /   O peration     | Website:  https://openfoam.org
    \\  /    A nd           | Version:  6
     \\/     M anipulation  |
\*---------------------------------------------------------------------------*/
FoamFile
{
    version     2.0;
    format      ascii;
    class       volScalarField;
    location    "100";
    object      T;
}
// * * * * * * * * * * * * * * * * * * * * * * * * * * * * * * * * * * * * * //

dimensions      [0 0 0 1 0 0 0];

internalField   nonuniform List<scalar> 
778
(
301.542
301.273
301.713
301.233
301.336
301.908
301.206
301.293
301.433
302.113
301.171
301.263
301.395
301.56
302.328
301.131
301.183
301.358
301.535
301.717
302.601
301.11
301.095
301.194
301.396
301.664
301.981
302.876
301.121
301.059
301.068
301.17
301.379
301.695
302.215
300.649
301.139
301.065
301.026
301.023
301.081
301.224
301.524
300.212
299.424
301.161
301.085
301.036
300.982
300.93
300.88
300.825
299.97
298.454
298.347
301.185
301.108
301.07
301.016
300.927
300.79
300.535
299.692
298.493
298.046
298.194
301.214
301.131
301.105
301.08
301.017
300.893
300.658
300.075
299.033
298.23
297.734
298.107
301.246
301.155
301.134
301.142
301.137
301.087
300.979
300.788
300.562
298.94
297.839
297.431
298.174
301.284
301.187
301.155
301.186
301.243
301.293
301.33
301.435
301.772
300.765
298.51
297.396
297.268
298.115
301.344
301.229
301.178
301.208
301.312
301.456
301.626
301.889
302.323
302.266
300.488
297.797
297.115
297.424
298.261
301.292
301.208
301.223
301.339
301.553
301.828
302.157
302.481
302.586
302.315
299.871
297.014
297.132
298.257
301.323
301.252
301.238
301.345
301.586
301.927
302.27
302.488
302.619
302.661
302.261
299.022
296.419
297.096
301.372
301.292
301.261
301.338
301.567
301.929
302.273
302.446
302.566
302.68
302.708
302.156
298.128
296.33
293.835
301.469
301.342
301.291
301.331
301.52
301.849
302.191
302.377
302.484
302.613
302.747
302.757
302.017
297.587
295.432
302.322
301.429
301.331
301.335
301.47
301.743
302.057
302.285
302.391
302.519
302.682
302.83
302.814
301.856
298.228
302.618
303.316
301.398
301.352
301.434
301.643
301.916
302.151
302.291
302.415
302.588
302.78
302.928
302.904
302.676
302.951
303.401
303.523
303.76
301.446
301.39
301.417
301.565
301.79
302.013
302.184
302.31
302.484
302.696
302.899
303.045
303.129
303.198
303.449
303.71
303.835
303.902
303.899
302.27
301.434
301.425
301.515
301.69
301.89
302.071
302.208
302.379
302.603
302.834
303.035
303.195
303.331
303.484
303.687
303.867
304.023
304.176
303.625
302.62
301.72
301.451
301.493
301.619
301.787
301.961
302.109
302.276
302.507
302.76
302.991
303.187
303.355
303.51
303.675
303.851
304.504
303.605
303.599
302.888
301.985
301.57
301.498
301.577
301.711
301.859
302.017
302.179
302.412
302.682
302.938
303.158
303.346
303.513
303.671
303.838
303.525
303.57
303.622
303.118
302.21
301.721
301.552
301.565
301.661
301.787
301.933
302.097
302.324
302.605
302.882
303.123
303.327
303.504
303.664
303.827
303.44
303.572
303.677
303.326
302.404
301.873
301.637
301.587
301.639
301.739
301.868
302.028
302.245
302.533
302.827
303.086
303.304
303.49
303.654
303.816
303.402
303.574
303.775
303.451
302.574
302.014
301.737
301.637
301.647
301.717
301.821
301.973
302.185
302.468
302.776
303.05
303.28
303.474
303.643
303.805
303.376
303.567
303.885
303.563
302.705
302.142
301.837
301.704
301.678
301.719
301.804
301.938
302.144
302.421
302.732
303.018
303.258
303.459
303.631
303.795
303.354
303.547
303.903
303.644
302.828
302.252
301.934
301.778
301.726
301.744
301.811
301.929
302.124
302.393
302.699
302.992
303.24
303.446
303.621
303.786
303.336
303.52
303.903
303.671
302.95
302.35
302.024
301.854
301.786
301.786
301.84
301.947
302.129
302.387
302.684
302.973
303.226
303.435
303.612
303.779
303.321
303.491
303.897
303.641
303.064
302.448
302.106
301.929
301.851
301.84
301.887
301.99
302.161
302.405
302.687
302.968
303.217
303.428
303.606
303.772
303.309
303.46
303.897
303.586
303.169
302.549
302.185
302.002
301.918
301.904
301.949
302.053
302.218
302.446
302.71
302.975
303.217
303.425
303.602
303.767
303.3
303.43
303.866
303.545
303.26
302.652
302.265
302.072
301.987
301.974
302.023
302.132
302.294
302.507
302.749
302.996
303.225
303.427
303.6
303.763
303.295
303.401
303.643
303.529
303.34
302.759
302.348
302.142
302.056
302.049
302.107
302.222
302.383
302.581
302.802
303.028
303.242
303.434
303.601
303.761
303.294
303.375
303.418
303.529
303.408
302.871
302.436
302.213
302.127
302.128
302.198
302.32
302.478
302.662
302.863
303.068
303.265
303.446
303.606
303.759
303.296
303.352
303.409
303.527
303.463
302.984
302.533
302.29
302.201
302.211
302.292
302.419
302.574
302.745
302.927
303.113
303.293
303.461
303.613
303.759
303.3
303.361
303.468
303.518
303.5
303.094
302.641
302.376
302.28
302.297
302.385
302.514
302.665
302.824
302.99
303.158
303.323
303.479
303.622
303.76
303.309
303.386
303.463
303.499
303.514
303.196
302.763
302.476
302.368
302.385
302.475
302.602
302.747
302.896
303.049
303.202
303.353
303.498
303.633
303.762
303.321
303.394
303.452
303.477
303.506
303.287
302.893
302.595
302.469
302.477
302.561
302.683
302.82
302.96
303.101
303.241
303.381
303.517
303.643
303.765
303.332
303.399
303.448
303.483
303.359
303.022
302.73
302.586
302.575
302.645
302.756
302.884
303.015
303.145
303.275
303.406
303.533
303.654
303.768
303.343
303.41
303.454
303.401
303.139
302.874
302.717
302.682
302.73
302.825
302.94
303.061
303.182
303.304
303.426
303.547
303.663
303.771
303.357
303.423
303.412
303.233
303.012
302.857
302.798
302.818
302.891
302.99
303.099
303.212
303.326
303.441
303.558
303.67
303.774
303.444
303.403
303.303
303.132
302.993
302.919
302.911
302.957
303.037
303.133
303.236
303.342
303.452
303.565
303.676
303.776
303.437
303.35
303.231
303.114
303.037
303.006
303.025
303.082
303.162
303.255
303.354
303.459
303.569
303.679
303.778
303.42
303.32
303.229
303.155
303.103
303.094
303.127
303.19
303.271
303.362
303.461
303.568
303.679
303.777
303.528
303.348
303.309
303.214
303.17
303.175
303.218
303.286
303.368
303.461
303.565
303.675
303.774
303.634
303.45
303.374
303.272
303.23
303.247
303.301
303.374
303.459
303.558
303.668
303.767
303.632
303.495
303.411
303.309
303.284
303.318
303.381
303.457
303.549
303.657
303.756
303.635
303.521
303.424
303.338
303.341
303.391
303.457
303.54
303.643
303.741
303.641
303.527
303.421
303.375
303.407
303.463
303.532
303.627
303.723
303.642
303.511
303.43
303.431
303.476
303.528
303.612
303.704
303.623
303.5
303.467
303.501
303.532
303.599
303.687
303.599
303.517
303.537
303.547
303.591
303.674
303.608
303.576
303.576
303.59
303.667
303.637
303.618
303.597
303.666
303.681
303.623
303.673
303.688
303.686
303.727
)
;

boundaryField
{
    floor
    {
        type            wallHeatTransfer;
        Tinf            uniform 305.2;
        alphaWall       uniform 0.36;
        value           nonuniform List<scalar> 
36
(
301.853
303.92
303.833
303.791
303.763
303.741
303.723
303.708
303.697
303.689
303.683
303.68
303.678
303.679
303.683
303.688
303.696
303.705
303.717
303.717
303.731
303.746
303.754
303.721
303.69
303.716
301.853
301.796
301.863
301.989
303.92
301.989
303.973
301.92
303.979
301.926
)
;
    }
    ceiling
    {
        type            wallHeatTransfer;
        Tinf            uniform 303.2;
        alphaWall       uniform 0.36;
        value           nonuniform List<scalar> 
43
(
304.387
304.065
303.802
303.775
303.762
303.751
303.741
303.732
303.723
303.714
303.707
303.7
303.695
303.691
303.687
303.685
303.683
303.683
303.683
303.685
303.687
303.689
303.69
303.692
303.694
303.695
303.694
303.692
303.688
303.68
303.669
303.656
303.642
303.63
303.621
303.617
303.619
303.627
303.642
303.678
298.732
298.741
302.398
)
;
    }
    sWall
    {
        type            wallHeatTransfer;
        Tinf            uniform 315.2;
        alphaWall       uniform 0.54;
        value           nonuniform List<scalar> 9(301.309 300.943 300.678 300.53 300.441 300.581 305.192 305.455 305.896);
    }
    nWall
    {
        type            wallHeatTransfer;
        Tinf            uniform 308.2;
        alphaWall       uniform 0.54;
        value           nonuniform List<scalar> 
14
(
304.472
304.311
304.202
304.221
304.233
304.253
304.267
304.243
304.203
304.216
304.262
304.3
304.256
304.329
)
;
    }
    sideWalls
    {
        type            empty;
    }
    glass1
    {
        type            wallHeatTransfer;
        Tinf            uniform 315.2;
        alphaWall       uniform 4.3;
        value           nonuniform List<scalar> 9(309.824 309.401 309.078 308.802 308.648 308.787 308.995 308.362 308.024);
    }
    glass2
    {
        type            wallHeatTransfer;
        Tinf            uniform 308.2;
        alphaWall       uniform 4.3;
        value           nonuniform List<scalar> 2(306.166 306.121);
    }
    sun
    {
        type            wallHeatTransfer;
        Tinf            uniform 305.2;
        alphaWall       uniform 0.36;
        value           nonuniform List<scalar> 
14
(
301.952
301.678
301.625
301.583
301.54
301.506
301.501
301.528
301.558
301.593
301.631
301.675
301.721
301.775
)
;
    }
    Table_master
    {
        type            zeroGradient;
    }
    Table_slave
    {
        type            zeroGradient;
    }
    inlet
    {
        type            fixedValue;
        value           uniform 293.15;
    }
    outlet
    {
        type            zeroGradient;
    }
}


// ************************************************************************* //
