/*--------------------------------*- C++ -*----------------------------------*\
  =========                 |
  \\      /  F ield         | OpenFOAM: The Open Source CFD Toolbox
   \\    /   O peration     | Website:  https://openfoam.org
    \\  /    A nd           | Version:  6
     \\/     M anipulation  |
\*---------------------------------------------------------------------------*/
FoamFile
{
    version     2.0;
    format      ascii;
    class       volVectorField;
    location    "100";
    object      U;
}
// * * * * * * * * * * * * * * * * * * * * * * * * * * * * * * * * * * * * * //

dimensions      [0 1 -1 0 0 0 0];

internalField   nonuniform List<vector> 
796
(
(0.0748047 0.0440772 0)
(-0.0945223 -0.000282846 0)
(-0.0725417 -0.00233274 0)
(-0.0719319 -0.000161578 0)
(-0.0725974 0.000336027 0)
(-0.0735132 0.000270443 0)
(-0.0741652 -3.53174e-05 0)
(-0.0743021 -0.000481616 0)
(-0.073744 -0.00102865 0)
(-0.0723632 -0.00167129 0)
(-0.0700271 -0.00241268 0)
(-0.0666086 -0.00325508 0)
(-0.061986 -0.00419653 0)
(-0.0560543 -0.00522465 0)
(-0.0487456 -0.00630917 0)
(-0.0400656 -0.00739139 0)
(-0.0301645 -0.0083692 0)
(-0.0194696 -0.00908075 0)
(-0.00876808 -0.00932041 0)
(0.00301449 -0.00869925 0)
(0.0124213 -0.00755215 0)
(0.0206157 -0.00633844 0)
(0.0276402 -0.00520954 0)
(0.0334356 -0.00423151 0)
(0.0381241 -0.00341002 0)
(0.0418812 -0.00272779 0)
(0.0448664 -0.00216163 0)
(0.0472071 -0.00168835 0)
(0.0490005 -0.00128752 0)
(0.05032 -0.000943005 0)
(0.0512217 -0.000643882 0)
(0.051753 -0.000384245 0)
(0.05196 -0.000165863 0)
(0.051903 -6.33438e-06 0)
(0.0516873 5.71801e-05 0)
(0.0514647 -4.25614e-05 0)
(0.0515326 -0.000573601 0)
(0.0527124 -0.00241436 0)
(0.0661098 0.000519254 0)
(-0.0440245 0.0317424 0)
(0.194155 0.094402 0)
(-0.0990302 0.00990327 0)
(-0.0634404 -0.000561304 0)
(-0.0667266 0.000931303 0)
(-0.0689364 0.00157726 0)
(-0.0704834 0.00140476 0)
(-0.071433 0.000761452 0)
(-0.0717496 -0.00018258 0)
(-0.0713183 -0.00134313 0)
(-0.0700441 -0.00269572 0)
(-0.0678137 -0.00423817 0)
(-0.0645105 -0.00596914 0)
(-0.0600206 -0.00787595 0)
(-0.0542453 -0.00992191 0)
(-0.0471209 -0.0120307 0)
(-0.0386499 -0.0140648 0)
(-0.0289555 -0.0157962 0)
(-0.0183827 -0.0168943 0)
(-0.00758798 -0.0170256 0)
(0.00339362 -0.0158594 0)
(0.0126934 -0.0138913 0)
(0.0207438 -0.0117462 0)
(0.0275281 -0.00970782 0)
(0.0330982 -0.00790538 0)
(0.0376061 -0.00637118 0)
(0.0412203 -0.00508714 0)
(0.0440894 -0.00401454 0)
(0.0463328 -0.00310977 0)
(0.0480415 -0.00233294 0)
(0.0492823 -0.00165235 0)
(0.0501036 -0.00104689 0)
(0.0505413 -0.000507705 0)
(0.0506236 -4.22021e-05 0)
(0.05038 0.000315598 0)
(0.0498468 0.000499918 0)
(0.0489737 0.000410278 0)
(0.0476355 -0.000182904 0)
(0.0459035 -0.00101338 0)
(0.0656046 0.00872277 0)
(-0.124552 0.0669657 0)
(0.28995 0.139882 0)
(-0.11896 0.0243553 0)
(-0.0534654 0.00691216 0)
(-0.0607587 0.00436097 0)
(-0.0645354 0.00367916 0)
(-0.0667211 0.00276717 0)
(-0.0680887 0.0014577 0)
(-0.0687386 -0.000207242 0)
(-0.0686004 -0.00216183 0)
(-0.0676003 -0.0043954 0)
(-0.0656365 -0.00691727 0)
(-0.062591 -0.00972924 0)
(-0.0583418 -0.0128101 0)
(-0.0527772 -0.0160986 0)
(-0.0458133 -0.0194712 0)
(-0.0374199 -0.0227073 0)
(-0.0276742 -0.0254384 0)
(-0.0168869 -0.0271097 0)
(-0.00576873 -0.0270909 0)
(0.00520244 -0.025082 0)
(0.0143416 -0.0219916 0)
(0.0221521 -0.0186172 0)
(0.0285847 -0.0154105 0)
(0.0337657 -0.0125696 0)
(0.0378896 -0.010145 0)
(0.0411445 -0.00811002 0)
(0.0436865 -0.00640425 0)
(0.0456366 -0.0049587 0)
(0.0470827 -0.00370967 0)
(0.0480859 -0.00260558 0)
(0.0486854 -0.00160976 0)
(0.0489046 -0.000701974 0)
(0.0487507 0.000118538 0)
(0.0482279 0.000825476 0)
(0.0473197 0.00138134 0)
(0.0458393 0.00180428 0)
(0.0432107 0.00227354 0)
(0.0391566 0.00431725 0)
(0.0761878 0.0185729 0)
(-0.191081 0.0986647 0)
(0.36539 0.174949 0)
(-0.140806 0.041481 0)
(-0.0438739 0.0168334 0)
(-0.0550185 0.00922828 0)
(-0.0604003 0.00665395 0)
(-0.0631227 0.00476692 0)
(-0.0649202 0.00267737 0)
(-0.0659592 0.000233505 0)
(-0.0661869 -0.00255622 0)
(-0.0655311 -0.00571032 0)
(-0.0638953 -0.00926488 0)
(-0.0611492 -0.0132365 0)
(-0.0571526 -0.0176049 0)
(-0.0517711 -0.0222935 0)
(-0.0448905 -0.0271423 0)
(-0.0364326 -0.0318587 0)
(-0.0264043 -0.0359255 0)
(-0.0150598 -0.0384773 0)
(-0.00310858 -0.0383111 0)
(0.00812459 -0.0351527 0)
(0.0173056 -0.0305201 0)
(0.0248794 -0.0255996 0)
(0.030886 -0.0210069 0)
(0.0355503 -0.0169939 0)
(0.0391358 -0.0136089 0)
(0.041872 -0.0107963 0)
(0.043937 -0.0084567 0)
(0.0454595 -0.00648269 0)
(0.0465264 -0.00477775 0)
(0.0471919 -0.00326397 0)
(0.0474848 -0.0018839 0)
(0.0474135 -0.000600191 0)
(0.0469652 0.000602777 0)
(0.0461222 0.00171689 0)
(0.0448426 0.0027546 0)
(0.0428632 0.00389381 0)
(0.039082 0.00584673 0)
(0.0330727 0.0114794 0)
(0.0898435 0.0302671 0)
(-0.244938 0.122986 0)
(0.426258 0.201856 0)
(-0.159744 0.0590269 0)
(-0.0345143 0.0280107 0)
(-0.0496444 0.0151487 0)
(-0.0566281 0.0102946 0)
(-0.0597697 0.00725975 0)
(-0.0619356 0.00430908 0)
(-0.063345 0.00105181 0)
(-0.0639296 -0.00259002 0)
(-0.0636081 -0.00668131 0)
(-0.0622752 -0.0112972 0)
(-0.0597772 -0.0164764 0)
(-0.0559515 -0.0222035 0)
(-0.0506479 -0.0283902 0)
(-0.0437392 -0.0348519 0)
(-0.0351166 -0.0412522 0)
(-0.0247159 -0.0469586 0)
(-0.0126717 -0.0507404 0)
(0.000384923 -0.0502537 0)
(0.0118837 -0.045519 0)
(0.0211668 -0.0389623 0)
(0.0284968 -0.032223 0)
(0.0340289 -0.0260828 0)
(0.0380947 -0.0208277 0)
(0.0410403 -0.0164773 0)
(0.0431518 -0.0129208 0)
(0.0446396 -0.00999931 0)
(0.0456454 -0.00755345 0)
(0.046257 -0.0054453 0)
(0.0465221 -0.00356542 0)
(0.046459 -0.00183177 0)
(0.0460598 -0.000186011 0)
(0.045297 0.00140536 0)
(0.0441343 0.00296041 0)
(0.0425227 0.00455435 0)
(0.0401449 0.00654435 0)
(0.0352918 0.0102104 0)
(0.0272159 0.0194804 0)
(0.102845 0.0421429 0)
(-0.289547 0.141541 0)
(0.476415 0.223303 0)
(-0.175246 0.0765904 0)
(-0.0255912 0.0399935 0)
(-0.0446491 0.0218692 0)
(-0.0531619 0.0144501 0)
(-0.0566077 0.0101513 0)
(-0.059041 0.00629143 0)
(-0.0607396 0.00220187 0)
(-0.0616039 -0.00230714 0)
(-0.0615255 -0.00736516 0)
(-0.0603748 -0.0130973 0)
(-0.057965 -0.0195654 0)
(-0.0541165 -0.0267492 0)
(-0.0486938 -0.0345348 0)
(-0.0416084 -0.0427124 0)
(-0.0327778 -0.0509388 0)
(-0.0221055 -0.0585528 0)
(-0.00948101 -0.0639896 0)
(0.00449037 -0.0628797 0)
(0.0159709 -0.0561198 0)
(0.0252497 -0.0472877 0)
(0.0323096 -0.0384575 0)
(0.0373728 -0.0305882 0)
(0.0408421 -0.0240016 0)
(0.0431349 -0.0186707 0)
(0.0445971 -0.0144035 0)
(0.0454779 -0.0109584 0)
(0.0459377 -0.00810706 0)
(0.0460686 -0.00565986 0)
(0.0459148 -0.00346986 0)
(0.0454858 -0.00142625 0)
(0.0447585 0.00055323 0)
(0.0436966 0.0025194 0)
(0.0422467 0.00452492 0)
(0.0403612 0.00671391 0)
(0.0376722 0.00962903 0)
(0.0318275 0.0151147 0)
(0.02155 0.0278953 0)
(0.114313 0.0539266 0)
(-0.32721 0.15631 0)
(0.518229 0.240806 0)
(-0.187769 0.0938839 0)
(-0.0173483 0.0525107 0)
(-0.0399499 0.0292686 0)
(-0.0498469 0.018997 0)
(-0.0534837 0.0133258 0)
(-0.056063 0.00851792 0)
(-0.0579277 0.0035764 0)
(-0.0589386 -0.00182813 0)
(-0.0589412 -0.00791354 0)
(-0.057768 -0.0148616 0)
(-0.0551952 -0.0227441 0)
(-0.0510522 -0.0314998 0)
(-0.0452787 -0.0409429 0)
(-0.037903 -0.0508215 0)
(-0.0289364 -0.0608428 0)
(-0.0182952 -0.070465 0)
(-0.00534363 -0.0778443 0)
(0.00867524 -0.0757179 0)
(0.0197442 -0.0666925 0)
(0.0287193 -0.0554282 0)
(0.0354228 -0.0443506 0)
(0.0400667 -0.0346061 0)
(0.0430426 -0.0265877 0)
(0.0447868 -0.0202374 0)
(0.0456851 -0.0152724 0)
(0.0460238 -0.0113488 0)
(0.0459866 -0.00815181 0)
(0.045676 -0.00542845 0)
(0.0451382 -0.00298724 0)
(0.0443774 -0.000683343 0)
(0.0433624 0.00159064 0)
(0.0420499 0.00390633 0)
(0.040374 0.00635605 0)
(0.0382886 0.00915903 0)
(0.0353751 0.0130518 0)
(0.028643 0.0204398 0)
(0.016181 0.0365553 0)
(0.124211 0.0654699 0)
(-0.359322 0.168395 0)
(0.553294 0.255257 0)
(-0.197865 0.11061 0)
(-0.00991876 0.0651827 0)
(-0.0353697 0.0372041 0)
(-0.0464302 0.0238196 0)
(-0.0501547 0.0166561 0)
(-0.0527552 0.0108544 0)
(-0.0546453 0.0050272 0)
(-0.0556409 -0.00132621 0)
(-0.055525 -0.00853968 0)
(-0.0540875 -0.0168486 0)
(-0.0510821 -0.0262948 0)
(-0.0464051 -0.0366999 0)
(-0.0401573 -0.0477348 0)
(-0.0325483 -0.0591031 0)
(-0.0237019 -0.0706678 0)
(-0.0135159 -0.082212 0)
(-0.000549272 -0.0914921 0)
(0.0124364 -0.0879691 0)
(0.0227023 -0.0766767 0)
(0.0309041 -0.0630774 0)
(0.0370183 -0.04984 0)
(0.0412399 -0.0382356 0)
(0.0438667 -0.0287485 0)
(0.0452622 -0.0213393 0)
(0.0457929 -0.015664 0)
(0.0457582 -0.0112786 0)
(0.0453614 -0.00777264 0)
(0.0447204 -0.00482017 0)
(0.0438915 -0.0021774 0)
(0.0428772 0.000340972 0)
(0.0416586 0.0028634 0)
(0.0401806 0.00549548 0)
(0.038369 0.00837433 0)
(0.0361785 0.0118023 0)
(0.0331369 0.0167242 0)
(0.0256505 0.0260939 0)
(0.0111601 0.0453042 0)
(0.132679 0.076594 0)
(-0.386919 0.178396 0)
(0.5822 0.267321 0)
(-0.206046 0.126422 0)
(-0.00328152 0.0773586 0)
(-0.0305171 0.045409 0)
(-0.0424931 0.0288063 0)
(-0.0462557 0.0200251 0)
(-0.0487828 0.0131673 0)
(-0.0505765 0.00639791 0)
(-0.0514049 -0.000987649 0)
(-0.0509805 -0.00946484 0)
(-0.0490635 -0.0193021 0)
(-0.0454305 -0.0304324 0)
(-0.040135 -0.0424518 0)
(-0.0335158 -0.054831 0)
(-0.0259622 -0.0672892 0)
(-0.0176571 -0.0800043 0)
(-0.00833458 -0.0933381 0)
(0.00408056 -0.104323 0)
(0.015685 -0.099041 0)
(0.0246063 -0.0854867 0)
(0.0315114 -0.0697682 0)
(0.0366628 -0.0546843 0)
(0.0403131 -0.0414755 0)
(0.0426554 -0.0306462 0)
(0.0439014 -0.0222051 0)
(0.0443116 -0.0158067 0)
(0.0441427 -0.0109471 0)
(0.043595 -0.00713454 0)
(0.0427988 -0.00397063 0)
(0.0418258 -0.00115514 0)
(0.0406855 0.00153833 0)
(0.0393828 0.00426834 0)
(0.037857 0.00718267 0)
(0.0360294 0.0104726 0)
(0.0338542 0.0145361 0)
(0.0308001 0.0205485 0)
(0.022719 0.0319777 0)
(0.00644814 0.0539852 0)
(0.139894 0.0871524 0)
(-0.411073 0.186725 0)
(0.608702 0.277766 0)
(-0.211921 0.140781 0)
(0.00331867 0.0881114 0)
(-0.0243265 0.0535768 0)
(-0.0372369 0.0339435 0)
(-0.0411995 0.0233927 0)
(-0.043661 0.0153732 0)
(-0.0453021 0.007567 0)
(-0.0458572 -0.000968093 0)
(-0.0449695 -0.0108676 0)
(-0.0424171 -0.022386 0)
(-0.0380887 -0.0352241 0)
(-0.0323048 -0.0486445 0)
(-0.0256628 -0.0619349 0)
(-0.0186347 -0.0749734 0)
(-0.0113777 -0.0884253 0)
(-0.00323968 -0.10352 0)
(0.00796448 -0.115973 0)
(0.0182153 -0.108633 0)
(0.0252896 -0.0926748 0)
(0.030443 -0.0750621 0)
(0.0342631 -0.0585657 0)
(0.0371088 -0.0441974 0)
(0.0391065 -0.0323436 0)
(0.0403019 -0.0230267 0)
(0.0407901 -0.0159449 0)
(0.0407219 -0.0105971 0)
(0.0402524 -0.00645364 0)
(0.039507 -0.00306416 0)
(0.0385649 -7.81391e-05 0)
(0.0374615 0.00276608 0)
(0.0362229 0.00567001 0)
(0.0347949 0.00883275 0)
(0.0330997 0.0125125 0)
(0.0310921 0.0172225 0)
(0.0281732 0.0244007 0)
(0.0196983 0.0379735 0)
(0.00197965 0.0624708 0)
(0.145998 0.0971162 0)
(-0.433115 0.193617 0)
(0.631643 0.285004 0)
(-0.209717 0.154419 0)
(0.0119019 0.0979922 0)
(-0.0146376 0.0621089 0)
(-0.0291817 0.0396205 0)
(-0.0340014 0.0269333 0)
(-0.0366237 0.0175062 0)
(-0.0381712 0.00847909 0)
(-0.0384029 -0.00138337 0)
(-0.0369088 -0.0128845 0)
(-0.0336177 -0.0261749 0)
(-0.0286935 -0.0405603 0)
(-0.0228167 -0.0549335 0)
(-0.0167524 -0.0685472 0)
(-0.0108735 -0.0816338 0)
(-0.00524573 -0.0954847 0)
(0.00128567 -0.112356 0)
(0.0108855 -0.126335 0)
(0.0198012 -0.116452 0)
(0.0245448 -0.097858 0)
(0.0275782 -0.078619 0)
(0.029806 -0.061226 0)
(0.0316574 -0.0462435 0)
(0.0331999 -0.033808 0)
(0.0343352 -0.0238948 0)
(0.0349917 -0.0162546 0)
(0.0351827 -0.0104413 0)
(0.0349805 -0.00594284 0)
(0.0344774 -0.00229556 0)
(0.0337393 0.000875154 0)
(0.0328476 0.00385895 0)
(0.0318328 0.00690982 0)
(0.0306615 0.0102852 0)
(0.0292667 0.0143236 0)
(0.0276121 0.0196786 0)
(0.0250265 0.028097 0)
(0.016462 0.0438894 0)
(-0.00214321 0.0706055 0)
(0.150994 0.106596 0)
(-0.453608 0.199069 0)
(0.650227 0.287679 0)
(-0.206755 0.165494 0)
(0.0209838 0.107162 0)
(-0.000694195 0.0710174 0)
(-0.016472 0.046424 0)
(-0.0230314 0.0310844 0)
(-0.026338 0.0197365 0)
(-0.0280167 0.00911269 0)
(-0.0279164 -0.00237758 0)
(-0.0256359 -0.015668 0)
(-0.0216195 -0.0306505 0)
(-0.0165227 -0.0461028 0)
(-0.0113358 -0.0607071 0)
(-0.00674284 -0.0739576 0)
(-0.00280275 -0.0866152 0)
(0.000480923 -0.100701 0)
(0.00487378 -0.119247 0)
(0.012761 -0.135387 0)
(0.0201907 -0.122068 0)
(0.0220772 -0.10063 0)
(0.0226972 -0.0801837 0)
(0.0231966 -0.0625159 0)
(0.0239569 -0.0475126 0)
(0.0249528 -0.0349801 0)
(0.0259624 -0.0248151 0)
(0.0267811 -0.0168156 0)
(0.0272961 -0.0106178 0)
(0.0274821 -0.00577139 0)
(0.0273725 -0.00184154 0)
(0.0270077 0.00153158 0)
(0.0264737 0.0046548 0)
(0.0258277 0.00782915 0)
(0.0250613 0.0113733 0)
(0.0241322 0.0157151 0)
(0.0230324 0.0216736 0)
(0.0210253 0.0313513 0)
(0.0128395 0.0493378 0)
(-0.00555888 0.0780695 0)
(0.154401 0.115722 0)
(-0.468994 0.202969 0)
(0.664246 0.291951 0)
(-0.221211 0.168002 0)
(0.0282626 0.10675 0)
(0.0174524 0.0775642 0)
(0.00414639 0.0555075 0)
(-0.00489185 0.03684 0)
(-0.00993666 0.0224321 0)
(-0.0123412 0.00945418 0)
(-0.0120796 -0.00415964 0)
(-0.00899423 -0.0193298 0)
(-0.00481359 -0.0355002 0)
(-0.000645082 -0.0510935 0)
(0.00255702 -0.0650191 0)
(0.00449206 -0.0772162 0)
(0.00553185 -0.0890824 0)
(0.00556026 -0.103087 0)
(0.00754827 -0.123912 0)
(0.0133105 -0.14285 0)
(0.0190481 -0.124889 0)
(0.0174766 -0.100563 0)
(0.0154825 -0.0795761 0)
(0.0142309 -0.062366 0)
(0.0138587 -0.0479353 0)
(0.0142195 -0.0357752 0)
(0.0150008 -0.0257212 0)
(0.0159117 -0.0176165 0)
(0.0167446 -0.0111825 0)
(0.0173808 -0.00605098 0)
(0.0177764 -0.00184508 0)
(0.0179333 0.00174809 0)
(0.0178838 0.00501768 0)
(0.0177273 0.00829436 0)
(0.017483 0.011955 0)
(0.0171464 0.016515 0)
(0.0167651 0.0229667 0)
(0.0155464 0.0337604 0)
(0.00836194 0.0534729 0)
(-0.00794173 0.0834205 0)
(0.159548 0.123309 0)
(-0.477774 0.20717 0)
(0.651761 0.303503 0)
(-0.223116 0.153817 0)
(0.0377787 0.0848556 0)
(0.0470162 0.0757331 0)
(0.0373474 0.0640763 0)
(0.026347 0.0456602 0)
(0.0188282 0.0272826 0)
(0.0146934 0.0104955 0)
(0.0137767 -0.00639119 0)
(0.0161551 -0.0233702 0)
(0.0184 -0.0394514 0)
(0.0195026 -0.0536575 0)
(0.0190083 -0.0658753 0)
(0.0170369 -0.0767736 0)
(0.0141402 -0.0878097 0)
(0.00996938 -0.102033 0)
(0.00926752 -0.126232 0)
(0.0120762 -0.148598 0)
(0.0159091 -0.124454 0)
(0.0102361 -0.0973533 0)
(0.00556911 -0.0766835 0)
(0.00262001 -0.0606743 0)
(0.00103553 -0.0473353 0)
(0.000595278 -0.0359725 0)
(0.000967972 -0.0264054 0)
(0.00183107 -0.0185101 0)
(0.00291485 -0.0120744 0)
(0.00401857 -0.00680566 0)
(0.005008 -0.00239134 0)
(0.00584164 0.00142534 0)
(0.0064008 0.00485687 0)
(0.0068322 0.00822192 0)
(0.00718305 0.0119508 0)
(0.00748474 0.0166313 0)
(0.0078359 0.0234119 0)
(0.00727024 0.0349915 0)
(0.00118285 0.0553481 0)
(-0.0104924 0.0846198 0)
(0.163831 0.128041 0)
(-0.480638 0.214019 0)
(0.695646 0.30813 0)
(-0.104171 0.116861 0)
(0.0785736 0.0419754 0)
(0.11474 0.0542496 0)
(0.0986542 0.0591539 0)
(0.0794676 0.0462593 0)
(0.0677616 0.0282836 0)
(0.0605011 0.0103873 0)
(0.0547226 -0.0078557 0)
(0.0520572 -0.0243438 0)
(0.048744 -0.0388689 0)
(0.0440835 -0.0512194 0)
(0.0379528 -0.0618034 0)
(0.0306278 -0.0715189 0)
(0.0226624 -0.0819928 0)
(0.0131539 -0.0971117 0)
(0.00965111 -0.126658 0)
(0.00838557 -0.153171 0)
(0.0103403 -0.120884 0)
(6.21418e-05 -0.0910773 0)
(-0.00726742 -0.0715057 0)
(-0.0119749 -0.0572902 0)
(-0.0150223 -0.0454602 0)
(-0.0165876 -0.0353111 0)
(-0.0169467 -0.0266498 0)
(-0.0164074 -0.0193461 0)
(-0.0152655 -0.0132232 0)
(-0.0137807 -0.00804953 0)
(-0.0121723 -0.00356986 0)
(-0.0105557 0.000439447 0)
(-0.00917797 0.00407612 0)
(-0.0080613 0.00756403 0)
(-0.00707774 0.0113695 0)
(-0.00617555 0.0161616 0)
(-0.00525422 0.0232539 0)
(-0.00562438 0.0353958 0)
(-0.0109567 0.0550616 0)
(-0.0155825 0.0807014 0)
(0.162745 0.128515 0)
(-0.497586 0.224194 0)
(0.806732 0.265588 0)
(0.321248 0.160966 0)
(0.314014 0.132461 0)
(0.298285 0.124163 0)
(0.236 0.111772 0)
(0.181484 0.0869359 0)
(0.149094 0.0592125 0)
(0.128812 0.0334814 0)
(0.113836 0.010478 0)
(0.0980141 -0.0104705 0)
(0.0836637 -0.0273876 0)
(0.0702214 -0.0405808 0)
(0.0568743 -0.0512556 0)
(0.0433385 -0.0608218 0)
(0.0295334 -0.0713236 0)
(0.0134971 -0.0881687 0)
(0.00789234 -0.125586 0)
(0.00145623 -0.156363 0)
(0.00234118 -0.114016 0)
(-0.0122369 -0.0828851 0)
(-0.0227339 -0.0653546 0)
(-0.0300607 -0.0529339 0)
(-0.0352192 -0.0427116 0)
(-0.0384277 -0.0339615 0)
(-0.0399596 -0.0264644 0)
(-0.0401384 -0.0200654 0)
(-0.0392867 -0.0145863 0)
(-0.0377 -0.00981686 0)
(-0.0356448 -0.00552727 0)
(-0.0333441 -0.00150094 0)
(-0.0308955 0.00236915 0)
(-0.0289539 0.00609337 0)
(-0.0272448 0.0100842 0)
(-0.0256386 0.0151355 0)
(-0.0240026 0.0226356 0)
(-0.0238475 0.0349697 0)
(-0.0281949 0.0538687 0)
(-0.0209387 0.0790626 0)
(0.129971 0.129812 0)
(-0.518364 0.224918 0)
(-0.366019 0.0903472 0)
(0.101652 0.138926 0)
(0.143627 0.125268 0)
(0.13268 0.101206 0)
(0.128453 0.0737503 0)
(0.12454 0.0463577 0)
(0.118041 0.0222673 0)
(0.109093 0.00249457 0)
(0.0973996 -0.0137875 0)
(0.0834788 -0.0268361 0)
(0.0678776 -0.0375274 0)
(0.0511682 -0.0466729 0)
(0.0327889 -0.0560811 0)
(0.00971608 -0.0727977 0)
(0.00431918 -0.118035 0)
(-0.00946851 -0.151381 0)
(-0.00818814 -0.10045 0)
(-0.0259316 -0.0715769 0)
(-0.0413915 -0.0573627 0)
(-0.0524206 -0.047997 0)
(-0.0603553 -0.0402738 0)
(-0.0657821 -0.033516 0)
(-0.0690789 -0.0275832 0)
(-0.0705969 -0.022373 0)
(-0.0706731 -0.0177532 0)
(-0.0696106 -0.01356 0)
(-0.0676741 -0.00960015 0)
(-0.0650879 -0.00565922 0)
(-0.0619606 -0.00154844 0)
(-0.0586183 0.00274993 0)
(-0.0556787 0.00730742 0)
(-0.0525944 0.0128828 0)
(-0.0490093 0.0207262 0)
(-0.0460099 0.0326293 0)
(-0.0454609 0.050952 0)
(-0.0275132 0.0799205 0)
(0.111298 0.129904 0)
(-0.537244 0.207347 0)
(-0.151488 0.151453 0)
(0.0865678 0.122677 0)
(0.0664244 0.0988061 0)
(0.0741247 0.0874965 0)
(0.0876627 0.068169 0)
(0.096845 0.0446794 0)
(0.100468 0.0231475 0)
(0.099143 0.0056695 0)
(0.0931615 -0.00784688 0)
(0.0826102 -0.0165504 0)
(0.0694016 -0.0222417 0)
(0.0546504 -0.0262684 0)
(0.0358955 -0.0298092 0)
(0.00823271 -0.0396604 0)
(0.00592987 -0.0907694 0)
(-0.0256205 -0.126719 0)
(-0.0275303 -0.066401 0)
(-0.046607 -0.0436963 0)
(-0.0666144 -0.0372581 0)
(-0.080804 -0.0339974 0)
(-0.091171 -0.0311323 0)
(-0.0988822 -0.0282969 0)
(-0.104378 -0.0254621 0)
(-0.10794 -0.022601 0)
(-0.109839 -0.0196726 0)
(-0.110319 -0.0166186 0)
(-0.109571 -0.0133538 0)
(-0.10772 -0.00976058 0)
(-0.104802 -0.00570333 0)
(-0.100663 -0.00109103 0)
(-0.0954539 0.00414048 0)
(-0.089772 0.0102221 0)
(-0.0826311 0.0174886 0)
(-0.0740616 0.0264289 0)
(-0.062863 0.0387275 0)
(-0.0330604 0.0633022 0)
(0.155988 0.116994 0)
(-0.533858 0.192835 0)
(0.885706 -0.0667286 0)
(0.209056 -0.311305 0)
(-0.231661 0.166899 0)
(0.00520088 0.0972391 0)
(-0.00444076 0.0805908 0)
(0.0238235 0.0798337 0)
(0.0485307 0.0712364 0)
(0.0670302 0.0619053 0)
(0.0791932 0.0571069 0)
(0.0848693 0.056992 0)
(0.084828 0.0599186 0)
(0.0809497 0.0598665 0)
(0.0749881 0.0543102 0)
(0.0667948 0.0496114 0)
(0.0539771 0.0510218 0)
(0.0326962 0.0404536 0)
(0.0288278 -0.0631641 0)
(-0.0482873 -0.109373 0)
(-0.071672 -0.0113418 0)
(-0.0895953 0.0351445 0)
(-0.107574 0.0431899 0)
(-0.12109 0.0440884 0)
(-0.131809 0.0447502 0)
(-0.140574 0.0449292 0)
(-0.147647 0.0443022 0)
(-0.153197 0.0429547 0)
(-0.157369 0.0410393 0)
(-0.160269 0.0386682 0)
(-0.161943 0.0359159 0)
(-0.162369 0.0328278 0)
(-0.161431 0.0294218 0)
(-0.158835 0.0257195 0)
(-0.15402 0.0218087 0)
(-0.14646 0.0178629 0)
(-0.137198 0.0137248 0)
(-0.127149 0.00719195 0)
(-0.11032 -0.00219469 0)
(-0.0592842 0.0018159 0)
(0.148776 0.0756207 0)
(-0.555865 0.206748 0)
(0.420988 -0.196407 0)
(-0.402315 -0.0216257 0)
(-0.260566 0.0517843 0)
(-0.107591 -0.0415291 0)
(-0.0734773 -0.0807079 0)
(-0.0169246 -0.0819701 0)
(0.0339006 -0.107435 0)
(0.0646236 -0.133956 0)
(0.0864707 -0.159434 0)
(0.0993553 -0.183365 0)
(0.105608 -0.203957 0)
(0.107353 -0.220919 0)
(0.104446 -0.231543 0)
(0.0974073 -0.238731 0)
(0.089135 -0.244004 0)
(0.0833572 -0.251481 0)
(0.0794489 -0.274793 0)
(-0.065916 -0.287861 0)
(-0.12419 -0.261095 0)
(-0.14564 -0.245564 0)
(-0.161183 -0.235711 0)
(-0.175366 -0.227071 0)
(-0.188752 -0.218432 0)
(-0.2012 -0.209603 0)
(-0.212779 -0.200479 0)
(-0.223593 -0.190937 0)
(-0.233684 -0.180885 0)
(-0.243041 -0.170276 0)
(-0.251626 -0.159093 0)
(-0.259402 -0.147325 0)
(-0.266307 -0.134923 0)
(-0.272179 -0.121744 0)
(-0.276805 -0.107467 0)
(-0.280441 -0.0915869 0)
(-0.284335 -0.0736246 0)
(-0.288151 -0.0531067 0)
(-0.280739 -0.0275666 0)
(-0.242355 0.0129419 0)
(-0.218917 0.0784028 0)
(-0.645108 0.160988 0)
)
;

boundaryField
{
    floor
    {
        type            noSlip;
    }
    ceiling
    {
        type            noSlip;
    }
    sWall
    {
        type            noSlip;
    }
    nWall
    {
        type            noSlip;
    }
    sideWalls
    {
        type            empty;
    }
    inlet
    {
        type            fixedValue;
        value           uniform (0.1 -0.1 0);
    }
    outlet
    {
        type            zeroGradient;
    }
}


// ************************************************************************* //
