/*--------------------------------*- C++ -*----------------------------------*\
  =========                 |
  \\      /  F ield         | OpenFOAM: The Open Source CFD Toolbox
   \\    /   O peration     | Website:  https://openfoam.org
    \\  /    A nd           | Version:  6
     \\/     M anipulation  |
\*---------------------------------------------------------------------------*/
FoamFile
{
    version     2.0;
    format      ascii;
    class       volScalarField;
    location    "46100.0000004046815";
    object      alphat;
}
// * * * * * * * * * * * * * * * * * * * * * * * * * * * * * * * * * * * * * //

dimensions      [1 -1 -1 0 0 0 0];

internalField   nonuniform List<scalar> 
778
(
0.00104101
0.00111059
0.00110659
0.00115463
0.00119865
0.00123861
0.00127582
0.00131168
0.00134779
0.00138616
0.00142275
0.00145752
0.00149179
0.00152866
0.00156715
0.000736669
0.00105565
0.00106412
0.00103831
0.000995165
0.000937552
0.000880187
0.00082738
0.000779782
0.000737094
0.000699039
0.000664849
0.000633699
0.000604624
0.00057633
0.000546748
0.000522181
0.000472636
0.00152469
0.00300743
0.0026394
0.00304653
0.00334198
0.00365519
0.00396756
0.00425537
0.00448698
0.00462178
0.00470105
0.00466848
0.00443585
0.00385934
0.00281885
0.00171605
0.00163617
0.00156625
0.00131907
0.00224676
0.00311412
0.00362622
0.00364997
0.00288027
0.00246336
0.00217422
0.00195475
0.00178027
0.00163159
0.00150014
0.00137777
0.00125805
0.00115059
0.00105794
0.00119166
0.000599325
0.00193419
0.00419901
0.00311346
0.00445339
0.00497618
0.00541851
0.00582012
0.00617345
0.00647267
0.00670722
0.00693461
0.00717413
0.00739463
0.00752658
0.00744124
0.00681496
0.00498533
0.00192147
0.00166366
0.00355865
0.00496706
0.00563382
0.00512454
0.00135212
0.00117569
0.00103951
0.000932964
0.000848194
0.000779798
0.000724034
0.000678687
0.000643331
0.000707193
0.000831893
0.00131741
0.000681944
0.00232916
0.00565877
0.00297915
0.00500686
0.00578069
0.00619458
0.00649875
0.00672358
0.00689122
0.007027
0.00722039
0.00754759
0.00802554
0.00862721
0.00923295
0.00953318
0.00895539
0.00668689
0.00191346
0.00442609
0.00658831
0.00768928
0.00796241
0.00679913
0.00153937
0.00140022
0.00129248
0.00120282
0.0011264
0.00105779
0.000993126
0.000928924
0.000859594
0.00080296
0.000832263
0.00142634
0.000751038
0.00271844
0.007491
0.00300575
0.0047592
0.00594882
0.0063016
0.00642939
0.00643391
0.00636953
0.00631246
0.00639313
0.00671077
0.0072943
0.00812142
0.00908139
0.00996661
0.0105285
0.0105228
0.0094435
0.00960765
0.00982892
0.00986148
0.00966243
0.0090453
0.00719942
0.0062193
0.00554779
0.00500275
0.00446754
0.00394878
0.00344115
0.0029343
0.00241386
0.00185419
0.0014149
0.00141339
0.00111843
0.000895738
0.00118461
0.00113673
0.00310141
0.00954128
0.00353878
0.00401301
0.00569927
0.00609064
0.0060589
0.00584029
0.00552802
0.00527049
0.00526448
0.00559723
0.006262
0.0072209
0.00834353
0.00946597
0.0104203
0.0110302
0.0111415
0.01103
0.0108352
0.0105587
0.0102029
0.00974979
0.00908794
0.00844996
0.00787052
0.00731084
0.00670591
0.0060596
0.00536927
0.00462927
0.00383504
0.00299248
0.0022297
0.00167414
0.00130044
0.00145707
0.0025345
0.00135953
0.0034922
0.0114364
0.00471583
0.00328765
0.00512058
0.00576081
0.00568929
0.00533583
0.00482343
0.00437296
0.00435991
0.00478021
0.00554127
0.00661368
0.00783342
0.00904118
0.0100802
0.0108241
0.0111663
0.0111401
0.010896
0.0105261
0.0101024
0.00967961
0.00927051
0.00889491
0.00854191
0.00816538
0.00771008
0.00716191
0.00651306
0.00576064
0.0049075
0.00397504
0.00306328
0.00221492
0.00163188
0.0014558
0.0025828
0.00160238
0.00382796
0.0128689
0.00642877
0.0031309
0.0040558
0.00510672
0.00525311
0.00496272
0.00435713
0.0037449
0.00388357
0.00443975
0.00529158
0.00639708
0.00766502
0.00892943
0.0100069
0.0107547
0.011094
0.0110494
0.0107337
0.010268
0.00976691
0.00932244
0.00897981
0.00873502
0.00854398
0.00833638
0.00804695
0.00764185
0.00710551
0.00643487
0.00563611
0.00473233
0.00379168
0.00284409
0.00198838
0.00134263
0.00368068
0.00209414
0.00392909
0.0121728
0.00795135
0.00404848
0.00274948
0.00336826
0.00394282
0.00399166
0.00352433
0.00342504
0.00378068
0.00443521
0.00535749
0.0065314
0.00786143
0.00916495
0.0102378
0.0109266
0.0111673
0.0109997
0.0105416
0.00994084
0.00934454
0.00886864
0.00856666
0.00841859
0.00835146
0.00827166
0.00810483
0.0078118
0.00737724
0.00679955
0.00608565
0.00525392
0.00434017
0.00331468
0.00191302
0.00172819
0.00561199
0.00240408
0.00384951
0.00980942
0.00820769
0.00555468
0.00366937
0.00284047
0.00268962
0.00281616
0.00305261
0.00342898
0.00396384
0.00470157
0.00570652
0.00697424
0.00837786
0.00969949
0.0107146
0.0112709
0.0113263
0.0109489
0.0102869
0.00952511
0.00884447
0.00837787
0.00816433
0.00813995
0.0081866
0.00818588
0.00807727
0.00783937
0.00746518
0.00695406
0.00630941
0.00553668
0.00461357
0.00322049
0.00138753
0.00344103
0.00521211
0.00242824
0.00360568
0.00838234
0.00793321
0.00635367
0.00489128
0.00393793
0.0034659
0.00335868
0.00355341
0.00391273
0.00443648
0.00521706
0.00632936
0.0077213
0.00919681
0.0104887
0.01136
0.0116792
0.0114455
0.0107748
0.00986606
0.00895549
0.00826203
0.00791406
0.00787517
0.00799083
0.00810621
0.00810861
0.00799345
0.00776283
0.00741269
0.00693676
0.00632804
0.00556873
0.00457079
0.00289301
0.00149928
0.00378172
0.00518984
0.00240561
0.00328283
0.00755774
0.00765151
0.00672364
0.00572114
0.00496575
0.00452061
0.00436115
0.0044006
0.00461799
0.00510065
0.00597544
0.00726409
0.00880695
0.0103122
0.0114697
0.0120573
0.011997
0.0113578
0.0103258
0.00917601
0.00821314
0.00766667
0.00755942
0.00765993
0.0078133
0.00791165
0.0078831
0.0077487
0.00751597
0.00717706
0.00670948
0.00608714
0.00525743
0.00412595
0.00260567
0.00171037
0.00381295
0.00578939
0.00242089
0.00299336
0.00676153
0.00730628
0.00686831
0.0062252
0.00568451
0.00532468
0.00514855
0.00509659
0.00528403
0.00589958
0.0070456
0.00860652
0.010275
0.0116763
0.0125039
0.012605
0.0119983
0.0108569
0.0094617
0.0081958
0.00738388
0.00703345
0.00700432
0.00711862
0.00725489
0.00733268
0.00730277
0.00716399
0.00692787
0.00657921
0.00607567
0.00534278
0.00431206
0.00307767
0.00211472
0.00206307
0.00406261
0.00571143
0.00257962
0.00300444
0.00671152
0.00746559
0.00695096
0.0064303
0.00600381
0.0056962
0.00549686
0.00549066
0.00594645
0.00703402
0.00865902
0.0104875
0.0120908
0.0130963
0.0132936
0.0126724
0.0113841
0.00975044
0.00816569
0.0070174
0.00635495
0.00606528
0.00601804
0.00609302
0.00619022
0.00624158
0.00621033
0.00605646
0.00579667
0.0053967
0.00477116
0.00383381
0.0027422
0.0020186
0.00197002
0.0026114
0.00464198
0.00588412
0.00261602
0.00271031
0.00282048
0.00416541
0.0048973
0.00512451
0.00512912
0.00508062
0.00517789
0.00581125
0.00716243
0.00906595
0.0111175
0.0128604
0.0139176
0.0140774
0.0133144
0.0118213
0.00988293
0.0080358
0.00659666
0.00564936
0.00512848
0.00490969
0.00485353
0.00485481
0.0048466
0.00479431
0.00468541
0.00449487
0.00420948
0.00381194
0.00324078
0.00252901
0.00198851
0.00194255
0.0024012
0.00330446
0.00476073
0.00589145
0.00248966
0.000964206
0.00173775
0.00266482
0.00340812
0.00427321
0.00574518
0.0079126
0.0103211
0.0125118
0.0141381
0.014963
0.0148388
0.0137859
0.0119315
0.00974698
0.00769453
0.00608506
0.00503081
0.00447387
0.00422034
0.00410048
0.00401664
0.0039199
0.00379037
0.00362902
0.0034498
0.00326754
0.00306857
0.00284751
0.00258444
0.00229706
0.00213626
0.00231511
0.00289666
0.0037675
0.00463543
0.00492246
0.00237882
0.00178757
0.00246714
0.00358718
0.00558965
0.00830943
0.011033
0.0131422
0.0146634
0.0155774
0.0158103
0.0152388
0.0137521
0.0115925
0.00918669
0.00701435
0.00542704
0.004531
0.00413153
0.00397125
0.00389511
0.00383341
0.00375799
0.00366198
0.00355133
0.00343791
0.00333206
0.00323682
0.00314472
0.0030505
0.00295421
0.00286734
0.0028451
0.00301353
0.00350225
0.00431036
0.00524332
0.00596247
0.00238947
0.00323881
0.00787265
0.00726238
0.00648728
0.00822386
0.0109487
0.0132442
0.014794
0.0156139
0.0158155
0.015482
0.0145563
0.0129893
0.0108465
0.00846311
0.00638248
0.00504376
0.0044207
0.0042002
0.00413679
0.0041136
0.00408345
0.00403092
0.00395638
0.00386818
0.00377775
0.00369667
0.00363563
0.00360368
0.00360579
0.00363656
0.00368824
0.00376271
0.0038998
0.00416282
0.00464188
0.00545
0.00678836
0.007024
0.00266039
0.0030954
0.00597878
0.00771323
0.00987341
0.010951
0.0120595
0.0127015
0.0128536
0.0126069
0.0120196
0.0111016
0.00983812
0.00827281
0.00662151
0.00523966
0.00438856
0.00400053
0.00387721
0.00387082
0.00390155
0.00392883
0.00393395
0.00391192
0.00386618
0.0038044
0.00373672
0.00367679
0.00364369
0.00366124
0.00375325
0.00393489
0.00419773
0.00449573
0.00479126
0.00516291
0.00570624
0.00650325
0.00779056
0.00760535
0.00278084
0.00289437
0.0024811
0.00246876
0.00254082
0.00260023
0.0025225
0.00237181
0.00219541
0.00201654
0.00184289
0.0016764
0.00152146
0.00138978
0.00129617
0.00124657
0.001229
0.00123025
0.00124027
0.0012536
0.0012677
0.00128166
0.00129567
0.00131081
0.0013289
0.00135235
0.00138408
0.00142698
0.00148314
0.00155273
0.00163356
0.00172192
0.00181459
0.00191094
0.00201175
0.00211611
0.00222686
0.00234547
0.0024763
0.00262017
0.00253737
)
;

boundaryField
{
    floor
    {
        type            compressible::alphatWallFunction;
        Prt             0.85;
        value           nonuniform List<scalar> 
36
(
0.000219858
0.00010446
0.000149974
0.000151159
0.000147545
0.000141482
0.000133339
0.000125172
0.000117598
0.000110722
0.000104513
9.89411e-05
9.39042e-05
8.92877e-05
8.49538e-05
8.07118e-05
7.6249e-05
7.25205e-05
6.49339e-05
6.49331e-05
8.41623e-05
9.64276e-05
0.000106546
0.000127395
0.000167923
0.000161291
0.000219856
0.000239677
0.000229067
0.000219734
0.000104459
0.000219732
0.000186346
0.00026671
0.000232717
0.000265663
)
;
    }
    ceiling
    {
        type            compressible::alphatWallFunction;
        Prt             0.85;
        value           nonuniform List<scalar> 
43
(
0.000391133
0.000338958
0.000337392
0.000346565
0.000354116
0.00034429
0.000325112
0.000302486
0.000279337
0.000256647
0.000234665
0.000213982
0.000196205
0.000183447
0.000176637
0.000174212
0.000174381
0.000175761
0.000177599
0.000179541
0.000181459
0.000183379
0.000185444
0.000187898
0.000191068
0.00019534
0.000201104
0.000208633
0.000217946
0.000228738
0.0002405
0.000252784
0.000265488
0.000278721
0.000292339
0.00030669
0.000321955
0.000338684
0.00035694
0.000346284
0.000368325
0.000382173
0.000248641
)
;
    }
    sWall
    {
        type            compressible::alphatWallFunction;
        Prt             0.85;
        value           nonuniform List<scalar> 9(0.000507609 0.000477865 0.000438164 0.000402233 0.000403606 0.00036675 0.000432085 0.000414352 0.000389382);
    }
    nWall
    {
        type            compressible::alphatWallFunction;
        Prt             0.85;
        value           nonuniform List<scalar> 
14
(
0.000160843
0.000191407
0.000224101
0.000331753
0.000328928
0.000331086
0.000351217
0.000355704
0.000339509
0.000325273
0.000326967
0.000361194
0.00037627
0.000345589
)
;
    }
    sideWalls
    {
        type            empty;
    }
    glass1
    {
        type            compressible::alphatWallFunction;
        Prt             0.85;
        value           nonuniform List<scalar> 9(0.000143931 0.000209139 0.000262697 0.000313307 0.000362382 0.000410007 0.00045802 0.00049888 0.000511235);
    }
    glass2
    {
        type            compressible::alphatWallFunction;
        Prt             0.85;
        value           nonuniform List<scalar> 2(0.000286561 0.000326297);
    }
    sun
    {
        type            compressible::alphatWallFunction;
        Prt             0.85;
        value           nonuniform List<scalar> 
14
(
0.000147965
0.000157652
0.000157095
0.000163763
0.000169846
0.000175346
0.000180449
0.000185351
0.000190271
0.000195483
0.000200439
0.000205135
0.000209751
0.000214703
)
;
    }
    Table_master
    {
        type            compressible::alphatWallFunction;
        Prt             0.85;
        value           nonuniform List<scalar> 9(0.000191115 0.000166923 0.000147969 0.000132936 0.000120833 0.000110963 0.000102839 9.6177e-05 9.09451e-05);
    }
    Table_slave
    {
        type            compressible::alphatWallFunction;
        Prt             0.85;
        value           nonuniform List<scalar> 9(0.000216407 0.00019765 0.000182984 0.000170673 0.000160098 0.000150532 0.000141451 0.000132366 0.000122471);
    }
    inlet
    {
        type            fixedValue;
        value           uniform 1.94e-05;
    }
    outlet
    {
        type            zeroGradient;
    }
}


// ************************************************************************* //
