/*--------------------------------*- C++ -*----------------------------------*\
  =========                 |
  \\      /  F ield         | OpenFOAM: The Open Source CFD Toolbox
   \\    /   O peration     | Website:  https://openfoam.org
    \\  /    A nd           | Version:  6
     \\/     M anipulation  |
\*---------------------------------------------------------------------------*/
FoamFile
{
    version     2.0;
    format      ascii;
    class       surfaceScalarField;
    location    "46100.0000004046815";
    object      phi;
}
// * * * * * * * * * * * * * * * * * * * * * * * * * * * * * * * * * * * * * //

dimensions      [1 0 -1 0 0 0 0];

internalField   nonuniform List<scalar> 
1482
(
-0.00279974
0.00286378
-0.00348388
0.000684138
-0.00414444
0.000660564
-0.00475835
0.000613908
-0.00527951
0.000521155
-0.00569118
0.000411669
-0.00598216
0.000290979
-0.00613942
0.00015726
-0.00614565
6.23558e-06
-0.0059749
-0.000170754
-0.00559721
-0.000377689
-0.00498152
-0.000615685
-0.00405762
-0.000923905
-0.00257926
-0.00147836
-0.00257634
-6.34898e-05
6.83448e-05
0.000781617
-0.000845107
0.00143533
-0.000653709
0.00183585
-0.000400529
0.00205839
-0.000222539
0.00216311
-0.000104713
0.00221044
-4.7334e-05
0.0022333
-2.28566e-05
0.00224316
-9.86583e-06
0.00224416
-9.95251e-07
0.00223713
7.02925e-06
0.00221807
1.90552e-05
0.00217368
4.43954e-05
0.0020707
0.000102979
0.00185362
0.000217082
0.00149534
0.000358273
0.0010226
0.00047274
0.00102904
-0.00204033
0.00507442
-0.00290836
0.00155217
-0.00369407
0.00144627
-0.00434492
0.00126476
-0.00488194
0.00105817
-0.00531043
0.000840155
-0.00562863
0.000609179
-0.00582977
0.000358408
-0.00590323
7.96912e-05
-0.00584118
-0.000232803
-0.0056378
-0.000581069
-0.00528174
-0.000971743
-0.0047718
-0.00143385
-0.00428596
-0.00196419
-0.00470178
-0.00216052
-0.00311624
-0.0015801
-0.00163393
-0.00147662
-0.00161908
0.00131829
-0.00123973
0.00166338
-0.0011902
0.00191615
-0.000906478
0.00210847
-0.000592846
0.00221683
-0.0003309
0.00222595
-0.000113828
0.00222786
-4.92443e-05
0.00222941
-2.44084e-05
0.00223033
-1.07932e-05
0.00223034
-1.0044e-06
0.002229
8.37444e-06
0.00222481
2.32466e-05
0.00221215
5.70494e-05
0.00215013
0.000165005
0.00190014
0.000467072
0.00146991
0.000788503
0.000904996
0.00103765
0.00195092
-0.0014882
0.00682055
-0.002359
0.00242297
-0.00312883
0.00221611
-0.00371287
0.0018488
-0.0041833
0.0015286
-0.00455448
0.00121133
-0.00482823
0.000882928
-0.00500134
0.000531526
-0.00506746
0.000145806
-0.00501751
-0.000282752
-0.00484074
-0.00075784
-0.00452966
-0.00128282
-0.00411502
-0.00184848
-0.00371746
-0.00236175
-0.00329699
-0.002581
-0.00236581
-0.00251128
-0.00127241
-0.00257002
-0.00287866
0.00115134
-0.00237662
0.00165521
-0.00169407
0.00195409
-0.00120536
0.00214775
-0.000786507
0.00217964
-0.000362784
0.00206596
0.00201687
0.00199262
0.00198198
0.00198113
0.00198966
0.00201306
0.00207026
0.00223542
0.00187695
0.000825542
0.0014285
0.00123695
0.000807633
0.00165852
0.00278458
-0.001106
0.00825775
-0.00192782
0.00324478
-0.00256969
0.00285798
-0.00302985
0.00230895
-0.00339716
0.00189592
-0.0036857
0.00149987
-0.00389847
0.0010957
-0.00403365
0.000666705
-0.00408375
0.000195906
-0.0040356
-0.000330903
-0.00387689
-0.000916549
-0.00360343
-0.00155628
-0.00323773
-0.00221419
-0.00281557
-0.00278391
-0.00227594
-0.00312062
-0.00155615
-0.00323108
-0.000867841
-0.00325833
-0.000687376
-0.00305913
0.00144896
-0.0021209
0.00137934
-0.00230699
0.00169424
-0.00200897
0.00200646
-0.00151759
0.00227248
-0.00105252
0.00254766
-0.000637962
0.00286351
-0.000316009
0.00303216
-0.000168799
0.00309832
-6.63186e-05
0.00308256
1.56088e-05
0.00299364
8.8769e-05
0.00283249
0.000160995
0.00259122
0.000241116
0.00224681
0.000344248
0.00174189
0.000504766
0.00160529
0.000962148
0.00127769
0.00156455
0.000750459
0.00218575
0.00356933
-0.000803716
0.00945465
-0.00157977
0.00402083
-0.00204823
0.00332644
-0.00236375
0.00262448
-0.00260792
0.00214009
-0.00279323
0.00168518
-0.0029247
0.00122717
-0.00300307
0.000745073
-0.00302179
0.00021463
-0.00296427
-0.000388423
-0.00281723
-0.00106359
-0.00257361
-0.0017999
-0.00223989
-0.0025479
-0.00182318
-0.00320062
-0.00131762
-0.00362619
-0.000740887
-0.00380781
-0.000209437
-0.00378978
0.000267782
-0.00353635
0.00112843
-0.00298155
0.00149357
-0.00267213
0.00175159
-0.00226698
0.00200345
-0.00176945
0.00223302
-0.00128209
0.00244736
-0.000852304
0.0026496
-0.000518248
0.0027613
-0.000280499
0.00279927
-0.000104285
0.00277511
3.97715e-05
0.00269508
0.000168791
0.00256159
0.00029449
0.00237339
0.000429313
0.0021282
0.000589445
0.00183433
0.000798633
0.0016294
0.00116708
0.00148997
0.00170398
0.00131482
0.00236089
0.00231088
0.00257327
0.00134589
0.000999888
0.00189428
-0.000519772
0.00201272
-0.00057582
0.0104769
-0.00132465
0.00476966
-0.00158402
0.00358582
-0.00174974
0.00279019
-0.00186353
0.00225388
-0.00193484
0.00175649
-0.00197013
0.00126246
-0.00197371
0.000748653
-0.00194236
0.000183275
-0.00185437
-0.000476404
-0.0016999
-0.00121806
-0.00146885
-0.00203095
-0.0011641
-0.00285266
-0.000791481
-0.00357324
-0.000371427
-0.00404624
6.90807e-05
-0.00424832
0.000474382
-0.00419509
0.000848688
-0.00391066
0.00129915
-0.00343201
0.0015972
-0.00297018
0.00179963
-0.00246941
0.00197049
-0.00194031
0.00212201
-0.00143361
0.00225693
-0.000987225
0.00236294
-0.000624262
0.00242284
-0.000340393
0.0024359
-0.000117353
0.00240712
6.85583e-05
0.00234107
0.000234836
0.00224141
0.000394156
0.00211208
0.000558638
0.00196022
0.000741304
0.00180068
0.00095818
0.00171048
0.00125727
0.00177035
0.00164412
0.00198802
0.00214321
0.00224157
0.00231972
0.00176156
0.00147989
0.000832816
0.00040897
0.00294269
-0.000543529
0.0115126
-0.00124366
0.00546979
-0.00119167
0.00353383
-0.00119975
0.00279827
-0.00119187
0.00224601
-0.00115823
0.00172284
-0.00110097
0.00120521
-0.00102587
0.000673551
-0.000927302
8.47103e-05
-0.000778361
-0.000625345
-0.000589079
-0.00140735
-0.000348797
-0.00227123
-6.46529e-05
-0.00313681
0.00024049
-0.00387838
0.000550746
-0.0043565
0.000846103
-0.00454368
0.00110917
-0.00445815
0.00134235
-0.00414384
0.00157356
-0.00366323
0.00173242
-0.00312904
0.00183147
-0.00256846
0.00190092
-0.00200976
0.00195667
-0.00148936
0.00200399
-0.00103455
0.00203766
-0.000657928
0.00205177
-0.000354504
0.0020426
-0.000108182
0.00201057
0.000100587
0.00195844
0.00028697
0.00188967
0.000462929
0.0018092
0.000639103
0.00172548
0.000825026
0.00165383
0.00102983
0.00163859
0.00127251
0.00172707
0.00155563
0.001945
0.00192528
0.00221547
0.00204925
0.00224406
0.0014513
0.00164844
0.00100459
0.00469359
-0.00048379
0.0125318
-0.00105161
0.00603761
-0.000697241
0.00317946
-0.000636069
0.0027371
-0.000567423
0.00217736
-0.000462491
0.00161791
-0.000333252
0.00107597
-0.000181835
0.000522133
7.53121e-06
-0.000104656
0.000225702
-0.000843516
0.00046557
-0.00164722
0.000723543
-0.0025292
0.000980815
-0.00339408
0.00120968
-0.00410725
0.00140938
-0.00455619
0.00157085
-0.00470515
0.00168877
-0.00457607
0.0017678
-0.00422287
0.00182034
-0.00371578
0.00182966
-0.00313837
0.00180418
-0.00254298
0.00176314
-0.00196871
0.00172164
-0.00144787
0.00168732
-0.00100023
0.00166021
-0.000630816
0.00163626
-0.000330555
0.00161036
-8.22833e-05
0.0015799
0.00013105
0.00154465
0.000322215
0.00150548
0.000502095
0.00146505
0.000679536
0.00142908
0.000860996
0.0014083
0.00105061
0.00142695
0.00125385
0.0015169
0.00146569
0.00173752
0.00170466
0.00206446
0.00172231
0.00223586
0.0012799
0.00174925
0.00149118
0.00680906
0.00297907
0.0101399
0.00202365
0.00699303
0.000870062
0.00433304
0.000371556
0.0032356
0.000214745
0.00233417
0.000271358
0.0015613
0.000425514
0.000921813
0.000639617
0.00030803
0.000899055
-0.000364094
0.00116419
-0.00110865
0.00144295
-0.00192598
0.00171026
-0.00279651
0.00193666
-0.00362048
0.00209782
-0.0042684
0.00218789
-0.00464626
0.00220947
-0.00472673
0.00217136
-0.00453796
0.00208716
-0.00413868
0.0019721
-0.00360072
0.00183188
-0.00299814
0.00167883
-0.00238994
0.0015301
-0.00181998
0.00140058
-0.00131835
0.00129875
-0.000898403
0.001226
-0.000558059
0.00117743
-0.000281985
0.00114551
-5.03629e-05
0.00112447
0.00015209
0.00111023
0.000336447
0.00109994
0.000512388
0.00109275
0.000686732
0.00109011
0.000863634
0.00109627
0.00104445
0.001122
0.00122812
0.00118651
0.00140118
0.00135291
0.00153826
0.00168848
0.00138674
0.00181107
0.00115732
0.000488026
0.00281418
0.00768022
0.00403343
0.00624675
0.00367003
0.00735643
0.00254415
0.00545892
0.00189053
0.00388922
0.00153389
0.00269082
0.00138911
0.00170607
0.0014231
0.000887834
0.00159777
0.000133352
0.00185012
-0.000616435
0.00212755
-0.00138608
0.00240755
-0.00220597
0.00265278
-0.00304174
0.00282153
-0.00378922
0.00288676
-0.00433361
0.00284524
-0.00460473
0.00271083
-0.00459232
0.00250581
-0.00433293
0.00225445
-0.00388732
0.00197949
-0.00332576
0.00169808
-0.00271674
0.00142763
-0.00211949
0.00118631
-0.00157866
0.000989236
-0.00112127
0.000843278
-0.000752445
0.000747593
-0.000462374
0.000693257
-0.000227648
0.000668978
-2.60841e-05
0.000665308
0.00015576
0.000674614
0.000327141
0.000691325
0.000495678
0.000711875
0.000666182
0.000733232
0.000842276
0.000751189
0.0010265
0.000757477
0.00122183
0.000728819
0.00142984
0.000594482
0.0016726
-4.33174e-05
0.00202459
-0.00190121
0.00301529
-0.00325563
0.00416852
0.00452818
0.00241061
0.00400067
0.0033062
0.00646084
0.00324999
0.00551514
0.003039
0.00410021
0.00284803
0.00288179
0.00272497
0.00182913
0.00271136
0.000901444
0.00280072
4.40007e-05
0.00296306
-0.000778778
0.00317402
-0.00159704
0.00339179
-0.00242374
0.00355632
-0.00320626
0.00361275
-0.00384565
0.00353443
-0.00425528
0.00332685
-0.00439714
0.00301622
-0.00428168
0.0026369
-0.00395361
0.00222222
-0.00347264
0.00180172
-0.00290526
0.00139893
-0.00231396
0.00103566
-0.00175622
0.000731958
-0.00127496
0.000502408
-0.00089172
0.00034682
-0.000596858
0.000256821
-0.000372375
0.000215843
-0.00018667
0.000209115
-1.93562e-05
0.000225296
0.000139579
0.000256042
0.000296395
0.000295822
0.000455898
0.000340567
0.000621437
0.000384969
0.000797875
0.000420607
0.00099086
0.000429375
0.00121307
0.000369152
0.00149006
0.000153198
0.00188856
-0.000470599
0.00264863
-0.00169114
0.0042362
-0.00219314
0.00467068
0.00245075
0.00145674
0.0027382
0.00274801
0.00516957
0.00343204
0.00483111
0.00371833
0.00381392
0.00381723
0.00278289
0.00384593
0.00180044
0.00388283
0.000864548
0.0039527
-2.58686e-05
0.0040631
-0.000889179
0.00420342
-0.00173735
0.00432236
-0.00254269
0.00434924
-0.00323313
0.00423243
-0.00372883
0.00395978
-0.00398261
0.00355381
-0.00399116
0.00305437
-0.00378223
0.00250521
-0.00340444
0.00194487
-0.00291229
0.00140726
-0.00236765
0.000918824
-0.00182552
0.000506844
-0.00134424
0.000190805
-0.000958917
-2.19285e-05
-0.000678987
-0.000146413
-0.000472374
-0.000207148
-0.00031164
-0.000225789
-0.000168029
-0.000215472
-2.96732e-05
-0.00018475
0.000108857
-0.000139269
0.000250914
-8.26425e-05
0.000399272
-1.75794e-05
0.000556375
5.23995e-05
0.000727896
0.000121072
0.000922187
0.00017586
0.00115828
0.000186398
0.00147951
9.56941e-05
0.00197924
-6.14286e-05
0.00280586
-0.000157359
0.00433257
-0.000263286
0.00477698
0.00231421
0.00216898
0.000795204
0.00293935
0.00439921
0.00359074
0.00417972
0.00416203
0.00324264
0.00449073
0.00245419
0.00466609
0.00162509
0.00478394
0.00074669
0.00488949
-0.000131416
0.00499622
-0.000995912
0.00507433
-0.00181547
0.00505852
-0.00252689
0.00488874
-0.00306336
0.00454258
-0.00338266
0.00403903
-0.00347905
0.00342307
-0.00337519
0.00274543
-0.00310457
0.00205427
-0.00271328
0.00138717
-0.00224518
0.000782513
-0.001763
0.000265934
-0.00130894
-0.000123696
-0.000954609
-0.000379805
-0.00070281
-0.000527988
-0.000530806
-0.000604234
-0.00039613
-0.000636409
-0.000279466
-0.000637604
-0.000166833
-0.000615555
-5.17209e-05
-0.000575582
6.88849e-05
-0.000520987
0.00019632
-0.000453886
0.000332172
-0.000375855
0.000478345
-0.000287034
0.000639075
-0.000187452
0.000822607
-7.91068e-05
0.00104993
1.94146e-05
0.00138096
8.20197e-05
0.00191652
0.000237206
0.00265051
0.000789212
0.00378071
0.00114786
0.00441851
0.00359406
-0.00158125
0.00262155
0.00111483
0.00170313
0.00334748
0.00194707
0.00435076
0.00223935
0.00485569
0.00194926
0.00517159
0.00130919
0.00540084
0.000517436
0.00557916
-0.000309741
0.00567814
-0.00109491
0.00563624
-0.0017736
0.00540293
-0.0022936
0.00496667
-0.00262711
0.00435554
-0.00277152
0.00362263
-0.00274613
0.00282797
-0.00258052
0.00202129
-0.00229788
0.00124993
-0.00194192
0.000543879
-0.00153913
-5.02439e-05
-0.00116887
-0.000488701
-0.000870486
-0.000766284
-0.00067703
-0.000927836
-0.000541265
-0.00101874
-0.000439903
-0.00106286
-0.00035202
-0.00107493
-0.000267399
-0.00106215
-0.000179611
-0.00102927
-8.45912e-05
-0.000980941
2.05567e-05
-0.000920179
0.000135559
-0.000848479
0.000260474
-0.000767759
0.000397626
-0.000678596
0.000549914
-0.000581201
0.000725215
-0.000480431
0.000949151
-0.000392576
0.00129303
-0.000297255
0.00182094
-1.53221e-05
0.00236809
0.000875511
0.00288958
0.00148634
0.00380742
0.00522071
0.00288325
0.0045712
0.00487051
0.00164775
0.00535693
0.00175293
0.00559399
0.0017122
0.00582614
0.00107704
0.00601348
0.000330085
0.00607867
-0.000374975
0.00595119
-0.000967482
0.00559829
-0.00142075
0.00503306
-0.00172839
0.00430277
-0.00189683
0.00346614
-0.00193489
0.00258204
-0.00186201
0.00170492
-0.0017034
0.000867275
-0.00146023
0.000109197
-0.00118384
-0.000511919
-0.000918007
-0.000954493
-0.0007263
-0.00123322
-0.000591764
-0.00140567
-0.000504602
-0.00150789
-0.000439064
-0.00156564
-0.00038216
-0.00159101
-0.000326659
-0.00158988
-0.000268529
-0.00156542
-0.000204063
-0.00152093
-0.000129068
-0.00146138
-3.89815e-05
-0.00139281
6.6999e-05
-0.00131994
0.000187604
-0.00124757
0.000325257
-0.00118292
0.000485272
-0.00113661
0.000678928
-0.00112097
0.000933569
-0.00113252
0.00130461
-0.00112388
0.00181211
-0.00099784
0.00224151
-0.000493071
0.00238401
-0.000115291
0.00342879
0.00526051
0.00793525
0.00536115
0.00581633
0.00387189
0.00556786
0.00196071
0.00563864
0.00100626
0.00560128
0.000367413
0.00535526
-0.000129009
0.00488992
-0.000502195
0.00424644
-0.00077731
0.00347921
-0.000961169
0.00264164
-0.00105926
0.00177575
-0.00106899
0.000918919
-0.00100518
0.000105147
-0.000889624
-0.000609646
-0.00074543
-0.00117037
-0.000623114
-0.00156558
-0.000522795
-0.00183259
-0.000459308
-0.00200545
-0.000418934
-0.00212055
-0.000389538
-0.00219736
-0.0003623
-0.00224515
-0.000334386
-0.00226741
-0.000304405
-0.00226518
-0.00027074
-0.00223854
-0.000230669
-0.00218771
-0.000179857
-0.00211477
-0.000111878
-0.00202908
-1.86776e-05
-0.00194232
0.000100841
-0.00186229
0.000245202
-0.00179972
0.000422687
-0.00176951
0.000648762
-0.00178629
0.000950501
-0.00185077
0.00136936
-0.00197791
0.00193952
-0.00238479
0.00264849
-0.00332344
0.00332252
-0.0033847
0.00348967
0.00204597
0.00411813
0.00148956
0.00451872
0.00347132
0.00374409
0.00273535
0.00323687
0.00151346
0.0028875
0.000716716
0.00251816
0.000240281
0.00206908
-5.31406e-05
0.00152887
-0.000237101
0.000917423
-0.000349706
0.000252874
-0.000394687
-0.000426187
-0.000389913
-0.00106247
-0.000368875
-0.00160795
-0.000344117
-0.00203393
-0.000319438
-0.00234917
-0.000307883
-0.00256974
-0.000302248
-0.0027291
-0.000300004
-0.00285117
-0.000296927
-0.00294873
-0.000292057
-0.00302556
-0.000285525
-0.00308202
-0.000277946
-0.00311697
-0.000269442
-0.00312822
-0.000259431
-0.00311263
-0.000246169
-0.00306658
-0.000225802
-0.00298718
-0.000191191
-0.00287456
-0.000131252
-0.00274167
-3.20789e-05
-0.00260948
0.000112939
-0.00248866
0.000301766
-0.0023804
0.000540437
-0.00227607
0.000846233
-0.0021541
0.00124766
-0.00198242
0.00176829
-0.00179478
0.00246133
-0.00186917
0.00339734
-0.00180713
0.00342804
0.000421114
-0.00259024
-0.00674928
-0.00740741
-0.00745591
-0.00374771
-0.0021702
-0.00166786
0.00139144
-0.000754947
0.0018224
-0.000558446
0.00131691
-0.000640543
0.00079878
-0.000827677
0.000427399
-0.00106755
0.000186722
-0.00135309
4.8453e-05
-0.00168723
-1.55334e-05
-0.00204642
-3.54567e-05
-0.00239993
-3.63599e-05
-0.00272467
-4.40976e-05
-0.00299374
-7.50244e-05
-0.00319509
-0.000118092
-0.00334648
-0.000156533
-0.00347081
-0.000177989
-0.00358524
-0.000185675
-0.00369502
-0.000187261
-0.00379864
-0.000188528
-0.00389211
-0.000192116
-0.00397117
-0.000198889
-0.0040314
-0.000209148
-0.00406756
-0.00022315
-0.00407326
-0.000240299
-0.00404183
-0.000257039
-0.0039682
-0.000264644
-0.00385042
-0.000248924
-0.00368972
-0.000192777
-0.00349889
-7.80406e-05
-0.00329794
0.000100592
-0.00308278
0.000325035
-0.00281637
0.000579647
-0.00244807
0.000879335
-0.00189068
0.00121108
-0.000999572
0.00157058
0.000308328
0.00208978
0.00120847
0.0025283
0.00180965
-0.00733837
0.00104254
-0.00811258
-0.00668176
-0.00716889
-0.00311396
-0.00565003
-0.000127483
-0.0045574
0.000729712
-0.00396593
0.000725407
-0.00370707
0.000539909
-0.00364062
0.000360961
-0.00368237
0.000228513
-0.00377558
0.000141708
-0.00387793
8.68721e-05
-0.00396318
4.98511e-05
-0.00402235
2.28681e-05
-0.00406404
-2.36226e-06
-0.00410494
-3.41256e-05
-0.00415666
-6.64177e-05
-0.00422312
-9.01673e-05
-0.0042998
-0.000101431
-0.00438105
-0.00010456
-0.0044623
-0.000106132
-0.00454023
-0.000110682
-0.00461231
-0.000120061
-0.00467646
-0.000134689
-0.00473072
-0.000154771
-0.0047729
-0.000180768
-0.00480051
-0.000212431
-0.00481072
-0.000246548
-0.00480019
-0.000274906
-0.00476421
-0.000284713
-0.00469481
-0.000262123
-0.00457699
-0.000195981
-0.00439548
-8.125e-05
-0.0041438
7.2911e-05
-0.00379977
0.000235191
-0.00330696
0.000386185
-0.00258672
0.000490656
-0.0014357
0.00041953
0.000470666
0.000183519
0.00169106
0.0013081
0.00368413
0.00158423
-0.0050329
-0.00808364
-0.00815159
-0.00736735
-0.00659512
-0.00601498
-0.00561852
-0.00535755
-0.00518513
-0.00506826
-0.00498835
-0.00493487
-0.00490594
-0.00490834
-0.00494283
-0.00500099
-0.00507037
-0.00514284
-0.00521684
-0.00529542
-0.00538351
-0.00548653
-0.00561014
-0.00576049
-0.00594352
-0.00616191
-0.00641006
-0.00666947
-0.00690761
-0.00708072
-0.00713995
-0.00704563
-0.00678948
-0.00638278
-0.0058722
-0.00543354
-0.00523183
-0.00390655
)
;

boundaryField
{
    floor
    {
        type            calculated;
        value           nonuniform List<scalar> 
36
(
0
0
0
0
0
0
0
0
0
0
0
0
0
0
0
0
0
0
0
-6.43897e-06
-1.68822e-05
-2.60247e-05
-3.42893e-05
-3.48962e-05
-2.86192e-05
-2.85294e-05
-2.92051e-06
-5.44202e-06
-5.68836e-06
-5.90835e-06
-4.85475e-06
-8.9393e-06
-1.02087e-05
-1.28318e-05
-1.4456e-05
-1.54455e-05
)
;
    }
    ceiling
    {
        type            calculated;
        value           nonuniform List<scalar> 
43
(
-5.78154e-05
-6.46954e-05
-6.32934e-05
-5.96024e-05
-5.45831e-05
-4.68557e-05
-4.02194e-05
-3.54622e-05
-3.23836e-05
-3.06289e-05
-2.98997e-05
-2.99683e-05
-3.05554e-05
-3.12662e-05
-3.17543e-05
-3.19967e-05
-3.21017e-05
-3.21639e-05
-3.22084e-05
-3.22157e-05
-3.21461e-05
-3.19526e-05
-3.15879e-05
-3.10114e-05
-3.01965e-05
-2.91426e-05
-2.78887e-05
-2.65239e-05
-2.5178e-05
-2.39827e-05
-2.30232e-05
-2.23125e-05
-2.17958e-05
-2.13568e-05
-2.08461e-05
-2.01523e-05
-1.92424e-05
-1.81814e-05
-1.71044e-05
-1.65723e-05
1.93322e-05
1.51841e-05
-0.000246542
)
;
    }
    sWall
    {
        type            calculated;
        value           nonuniform List<scalar> 9(-0.000140237 -0.000164532 -0.000194272 -0.000225982 -0.000245095 -0.000281034 -0.000423426 -0.000453512 -0.000483881);
    }
    nWall
    {
        type            calculated;
        value           nonuniform List<scalar> 
14
(
-8.99062e-05
-9.71646e-05
-0.00010247
-0.000103636
-0.000115733
-0.000126562
-0.000131959
-0.000140691
-0.000155559
-0.000170575
-0.000181826
-0.000179776
-0.000183319
-0.000205727
)
;
    }
    sideWalls
    {
        type            empty;
        value           nonuniform 0();
    }
    glass1
    {
        type            calculated;
        value           nonuniform List<scalar> 9(-6.40339e-05 -0.00017032 -0.000257921 -0.000331203 -0.000393184 -0.000446387 -0.000492196 -0.000535476 -0.000587162);
    }
    glass2
    {
        type            calculated;
        value           nonuniform List<scalar> 2(-0.000366215 -0.00038316);
    }
    sun
    {
        type            calculated;
        value           uniform 0;
    }
    Table_master
    {
        type            calculated;
        value           nonuniform List<scalar> 9(-1.53991e-07 -1.54108e-07 -1.5414e-07 -1.5416e-07 -1.54173e-07 -1.54178e-07 -1.54177e-07 -1.54162e-07 -1.54109e-07);
    }
    Table_slave
    {
        type            calculated;
        value           nonuniform List<scalar> 9(1.53661e-07 1.53717e-07 1.53716e-07 1.53732e-07 1.53753e-07 1.53797e-07 1.53863e-07 1.53957e-07 1.54084e-07);
    }
    inlet
    {
        type            calculated;
        value           uniform -0.0116486;
    }
    outlet
    {
        type            calculated;
        value           nonuniform List<scalar> 2(0.0097629 0.012273);
    }
}


// ************************************************************************* //
