/*--------------------------------*- C++ -*----------------------------------*\
  =========                 |
  \\      /  F ield         | OpenFOAM: The Open Source CFD Toolbox
   \\    /   O peration     | Website:  https://openfoam.org
    \\  /    A nd           | Version:  6
     \\/     M anipulation  |
\*---------------------------------------------------------------------------*/
FoamFile
{
    version     2.0;
    format      ascii;
    class       surfaceScalarField;
    location    "15200";
    object      phi;
}
// * * * * * * * * * * * * * * * * * * * * * * * * * * * * * * * * * * * * * //

dimensions      [1 0 -1 0 0 0 0];

internalField   nonuniform List<scalar> 
1482
(
-0.00279975
0.00286379
-0.00348391
0.000684153
-0.00414447
0.000660565
-0.0047584
0.000613925
-0.0052796
0.0005212
-0.00569134
0.000411749
-0.00598244
0.000291094
-0.00613984
0.0001574
-0.00614622
6.38331e-06
-0.0059756
-0.000170616
-0.00559801
-0.000377594
-0.00498234
-0.000615667
-0.00405835
-0.000923993
-0.00257976
-0.00147859
-0.00257684
-6.40037e-05
6.88584e-05
0.00078104
-0.000845043
0.00143483
-0.000653788
0.00183551
-0.000400686
0.00205822
-0.000222702
0.002163
-0.000104789
0.00221027
-4.72661e-05
0.00223301
-2.27349e-05
0.00224278
-9.77673e-06
0.00224374
-9.62488e-07
0.00223672
7.02023e-06
0.00221769
1.90309e-05
0.00217332
4.43756e-05
0.00207035
0.000102967
0.00185329
0.000217063
0.00149502
0.000358269
0.00102223
0.000472788
0.00102867
-0.00204034
0.00507445
-0.00290839
0.0015522
-0.00369409
0.00144627
-0.00434494
0.00126478
-0.00488199
0.00105825
-0.00531055
0.000840306
-0.00562886
0.00060941
-0.00583017
0.000358707
-0.00590381
8.00261e-05
-0.00584195
-0.000232482
-0.00563872
-0.00058082
-0.00528276
-0.000971623
-0.00477286
-0.0014339
-0.00428702
-0.00196443
-0.00470298
-0.00216088
-0.0031171
-0.00158044
-0.00163437
-0.00147704
-0.00161953
0.00131799
-0.00123892
0.00166283
-0.00118988
0.00191555
-0.000906505
0.00210795
-0.000593084
0.00221643
-0.000331182
0.00222563
-0.000113993
0.00222759
-4.92285e-05
0.00222915
-2.42921e-05
0.00223005
-1.06751e-05
0.00223002
-9.34247e-07
0.00222865
8.38916e-06
0.00222445
2.32291e-05
0.0022118
5.7027e-05
0.00214978
0.000164985
0.00189985
0.000467
0.00146968
0.000788436
0.000904718
0.00103775
0.00195027
-0.00148822
0.00682059
-0.00235904
0.00242303
-0.00312889
0.00221611
-0.00371293
0.00184883
-0.00418339
0.0015287
-0.00455462
0.00121153
-0.00482845
0.000883248
-0.0050017
0.000531952
-0.00506797
0.000146294
-0.00501818
-0.000282272
-0.00484154
-0.000757453
-0.00453057
-0.0012826
-0.00411598
-0.00184848
-0.00371845
-0.00236196
-0.00329798
-0.00258135
-0.00236665
-0.00251177
-0.00127299
-0.0025707
-0.00287968
0.0011512
-0.00237566
0.00165491
-0.00169359
0.0019537
-0.00120529
0.00214731
-0.000786696
0.00217914
-0.000363018
0.00206531
0.00201623
0.00199209
0.00198157
0.00198079
0.00198934
0.00201272
0.0020699
0.00223504
0.00187673
0.000825305
0.00142853
0.00123664
0.000807597
0.00165869
0.00278389
-0.00110603
0.00825782
-0.00192789
0.00324488
-0.00256979
0.00285801
-0.00302997
0.002309
-0.0033973
0.00189604
-0.00368587
0.0015001
-0.00389868
0.00109607
-0.00403394
0.000667212
-0.00408416
0.000196508
-0.00403614
-0.000330289
-0.00387757
-0.000916025
-0.00360424
-0.00155593
-0.00323866
-0.00221407
-0.00281662
-0.002784
-0.0022771
-0.00312088
-0.00155737
-0.0032315
-0.00086914
-0.00325894
-0.000689106
-0.00305972
0.0014474
-0.00212107
0.00137858
-0.00230684
0.0016938
-0.00200882
0.00200617
-0.00151766
0.00227225
-0.00105278
0.0025475
-0.000638266
0.00286358
-0.000316228
0.00303232
-0.0001689
0.00309845
-6.62813e-05
0.00308253
1.5769e-05
0.00299337
8.90044e-05
0.002832
0.000161221
0.00259061
0.000241232
0.00224628
0.000344171
0.00174168
0.000504448
0.00160549
0.000961497
0.00127845
0.00156368
0.000751652
0.00218548
0.00356983
-0.000803746
0.00945475
-0.00157985
0.00402099
-0.00204837
0.00332653
-0.00236393
0.00262457
-0.00260811
0.00214022
-0.00279343
0.00168541
-0.0029249
0.00122754
-0.00300328
0.000745595
-0.00302205
0.000215276
-0.00296462
-0.000387724
-0.0028177
-0.00106294
-0.00257425
-0.00179938
-0.00224076
-0.00254756
-0.00182431
-0.00320045
-0.00131898
-0.0036262
-0.000742415
-0.00380807
-0.000211069
-0.00379029
0.000266182
-0.00353697
0.00112713
-0.00298201
0.00149273
-0.00267244
0.00175115
-0.00226724
0.00200327
-0.00176979
0.00223301
-0.00128251
0.00244747
-0.000852725
0.0026498
-0.000518558
0.00276149
-0.00028059
0.00279933
-0.00010412
0.00277494
4.01553e-05
0.00269465
0.000169295
0.00256092
0.000294953
0.00237261
0.00042954
0.00212754
0.000589246
0.0018341
0.000797887
0.00162987
0.00116573
0.00149137
0.00170218
0.00131748
0.00235937
0.00231355
0.00257376
0.00134349
0.00100496
0.00188053
-0.000508302
0.00199918
-0.000575847
0.010477
-0.00132472
0.00476986
-0.0015842
0.00358601
-0.00174998
0.00279034
-0.00186378
0.00225403
-0.00193507
0.0017567
-0.00197032
0.00126279
-0.00197384
0.000749116
-0.00194242
0.000183858
-0.00185443
-0.000475715
-0.00170005
-0.00121733
-0.00146922
-0.00203021
-0.00116482
-0.00285196
-0.000792667
-0.00357261
-0.000373022
-0.00404585
6.72361e-05
-0.00424832
0.000472487
-0.00419554
0.000846915
-0.0039114
0.00129773
-0.00343283
0.00159625
-0.00297096
0.00179914
-0.00247013
0.00197037
-0.00194101
0.00212215
-0.0014343
0.00225726
-0.000987826
0.00236335
-0.000624652
0.0024232
-0.00034044
0.00243608
-0.000116999
0.00240697
6.92682e-05
0.00234051
0.000235754
0.00224043
0.000395031
0.00211083
0.00055914
0.001959
0.000741072
0.00179998
0.000956912
0.00171087
0.00125483
0.00177225
0.00164081
0.00199146
0.00214015
0.00224522
0.00232
0.00176199
0.00148819
0.000835779
0.00041791
0.00293224
-0.000543527
0.0115127
-0.00124371
0.00547005
-0.00119187
0.00353417
-0.00120003
0.00279851
-0.00119219
0.00224618
-0.0011585
0.00172302
-0.00110116
0.00120545
-0.00102594
0.000673895
-0.000927174
8.50933e-05
-0.000778101
-0.000624787
-0.00058884
-0.00140659
-0.000348833
-0.00227022
-6.52238e-05
-0.00313557
0.000239275
-0.0038771
0.000548975
-0.00435554
0.000843973
-0.00454332
0.00110692
-0.00445848
0.00134025
-0.00414474
0.00157185
-0.00366443
0.00173123
-0.00313034
0.00183082
-0.00256973
0.00190077
-0.00201097
0.00195694
-0.00149047
0.00200458
-0.00103546
0.00203841
-0.000658483
0.00205249
-0.000354523
0.00204306
-0.000107565
0.00201053
0.000101794
0.00195772
0.000288563
0.00188821
0.000464547
0.00180711
0.000640235
0.00172314
0.000825043
0.00165198
0.00102807
0.0016383
0.00126851
0.0017295
0.00154961
0.00195069
0.00191896
0.00222213
0.00204856
0.00224578
0.00146454
0.00165801
0.00100568
0.00469297
-0.000483756
0.0125319
-0.00105165
0.00603795
-0.000697441
0.00317995
-0.000636389
0.00273745
-0.00056778
0.00217757
-0.000462793
0.00161803
-0.000333412
0.00107607
-0.000181772
0.000522255
7.85903e-06
-0.000104538
0.000226236
-0.000843165
0.000466107
-0.00164646
0.000723749
-0.00252786
0.000980383
-0.0033922
0.00120848
-0.0041052
0.00140747
-0.00455452
0.00156844
-0.00470429
0.00168616
-0.0045762
0.0017653
-0.00422387
0.00181822
-0.00371736
0.00182811
-0.00314023
0.00180327
-0.0025449
0.00176289
-0.00197059
0.00172202
-0.0014496
0.00168823
-0.00100167
0.00166146
-0.000631712
0.00163755
-0.000330618
0.00161132
-8.13351e-05
0.00158014
0.00013298
0.00154383
0.000324872
0.00150338
0.000504996
0.00146166
0.00068195
0.00142479
0.000861916
0.00140411
0.00104876
0.00142479
0.00124783
0.00151968
0.00145472
0.00174816
0.00169048
0.00208011
0.00171661
0.00223713
0.00130752
0.00173758
0.00150522
0.00679787
0.00297857
0.0101405
0.00202318
0.00699333
0.000869785
0.00433335
0.000371282
0.00323596
0.00021443
0.00233442
0.000271092
0.00156137
0.000425429
0.000921729
0.00063981
0.000307875
0.000899531
-0.00036426
0.00116491
-0.00110854
0.00144367
-0.00192522
0.00171061
-0.0027948
0.00193632
-0.0036179
0.00209662
-0.00426549
0.00218586
-0.00464376
0.00220684
-0.00472526
0.00216842
-0.00453778
0.00208426
-0.0041397
0.00196953
-0.00360262
0.00182986
-0.00300057
0.00167755
-0.00239259
0.00152967
-0.00182271
0.00140107
-0.001321
0.00130012
-0.000900727
0.00122802
-0.00055961
0.00117967
-0.000282267
0.00114738
-4.90486e-05
0.00112535
0.000155018
0.00110952
0.000340697
0.00109714
0.000517372
0.00108757
0.000691523
0.00108265
0.000866833
0.00108751
0.0010439
0.00111479
0.00122056
0.00118726
0.00138224
0.00137251
0.00150524
0.00172989
0.00135922
0.0018653
0.0011721
0.000537565
0.00283291
0.00771977
0.00403311
0.00624765
0.0036697
0.00735674
0.002544
0.00545905
0.00189051
0.00388945
0.00153391
0.00269102
0.00138919
0.00170609
0.0014233
0.000887613
0.00159824
0.000132938
0.00185088
-0.000616901
0.00212854
-0.0013862
0.00240849
-0.00220517
0.00265329
-0.0030396
0.00282128
-0.00378588
0.00288558
-0.00432978
0.00284317
-0.00460134
0.00270807
-0.00459015
0.00250263
-0.00433234
0.00225117
-0.00388823
0.00197639
-0.00332785
0.00169548
-0.00271965
0.0014258
-0.00212292
0.0011856
-0.0015825
0.000989888
-0.00112529
0.000845393
-0.000756232
0.000750897
-0.000465114
0.000697105
-0.000228475
0.000672479
-2.44224e-05
0.000667491
0.000160007
0.000674546
0.000333643
0.000688132
0.000503787
0.000704704
0.000674951
0.000721282
0.000850255
0.000734146
0.00103104
0.000736906
0.00121779
0.000712912
0.00140623
0.000610304
0.00160785
3.3345e-05
0.00193619
-0.00164272
0.00284808
-0.00293291
0.00412298
0.00489114
0.00241066
0.00400152
0.00330633
0.00646107
0.00325022
0.00551517
0.00303928
0.00410038
0.00284834
0.00288196
0.00272535
0.00182908
0.00271188
0.000901077
0.0028015
4.3324e-05
0.00296419
-0.000779587
0.00317538
-0.00159739
0.00339307
-0.00242286
0.00355711
-0.00320363
0.00361273
-0.0038415
0.00353345
-0.00425049
0.00332494
-0.00439282
0.00301352
-0.00427871
0.00263361
-0.00395241
0.00221857
-0.00347319
0.00179796
-0.00290724
0.00139548
-0.00231716
0.00103299
-0.00176043
0.000730843
-0.00128035
0.000503442
-0.00089789
0.000350277
-0.000603068
0.000262278
-0.000377114
0.000222322
-0.000188518
0.000215299
-1.73991e-05
0.0002298
0.000145506
0.000257593
0.00030585
0.000293205
0.000468175
0.000332332
0.000635824
0.000368945
0.000813642
0.000393352
0.00100663
0.000385654
0.00122549
0.000302613
0.00148927
5.23026e-05
0.00185817
-0.000682169
0.00267091
-0.00193101
0.00409707
-0.00232287
0.00451483
0.00268522
0.00145725
0.00273855
0.00274871
0.00516961
0.00343267
0.0048312
0.0037188
0.00381426
0.00381756
0.0027832
0.00384623
0.00180042
0.00388333
0.000863977
0.00395362
-2.69607e-05
0.00406452
-0.000890481
0.00420519
-0.00173807
0.00432411
-0.00254178
0.00435051
-0.00323004
0.00423293
-0.00372391
0.00395935
-0.00397691
0.00355242
-0.00398587
0.00305201
-0.00377829
0.00250191
-0.00340231
0.00194071
-0.00291198
0.00140243
-0.00236896
0.00091398
-0.00182872
0.000502899
-0.00134935
0.000189321
-0.000966772
-1.98893e-05
-0.000688681
-0.000140667
-0.00048229
-0.000198449
-0.000319332
-0.000215541
-0.000171425
-0.000205461
-2.74784e-05
-0.000176789
0.000116835
-0.000134878
0.000263939
-8.30274e-05
0.000416324
-2.4069e-05
0.000576866
3.73467e-05
0.000752227
9.2029e-05
0.000951947
0.000121048
0.00119647
8.39218e-05
0.00152639
-8.70757e-05
0.00202919
-0.000389177
0.00297335
-0.000922024
0.00463037
-0.00119496
0.00478811
0.00161989
0.00217166
0.000792872
0.00294142
0.00439985
0.00359183
0.0041808
0.00416249
0.00324361
0.00449076
0.00245494
0.0046659
0.00162528
0.00478388
0.000745995
0.00489006
-0.000133139
0.00499769
-0.000998115
0.00507647
-0.00181686
0.00506083
-0.00252616
0.00489078
-0.00305999
0.00454403
-0.00337716
0.00403967
-0.00347255
0.00342266
-0.00336886
0.00274368
-0.0030993
0.00205089
-0.00270952
0.00138199
-0.00224307
0.000775628
-0.00176259
0.000258659
-0.00131175
-0.000129194
-0.000961499
-0.000381364
-0.000714604
-0.000524454
-0.000545593
-0.000595558
-0.000411186
-0.000623478
-0.000291412
-0.000622259
-0.000172644
-0.000600283
-4.94527e-05
-0.000562912
7.94649e-05
-0.000512725
0.000213753
-0.00045071
0.00035431
-0.000377482
0.000503638
-0.00029317
0.000667915
-0.000200242
0.000859019
-0.000107115
0.00110334
-3.74676e-05
0.00145673
-1.48417e-05
0.0020065
0.00010992
0.00284867
0.000494287
0.00424639
0.000733827
0.00454893
0.00248988
-0.00158233
0.00262031
0.00111494
0.00170257
0.00334771
0.00194803
0.0043506
0.00224072
0.00485502
0.00195052
0.00517066
0.00130963
0.0054003
0.000516363
0.00557969
-0.000312545
0.00567987
-0.00109831
0.00563884
-0.00177586
0.00540597
-0.00229332
0.0049698
-0.00262384
0.00435849
-0.00276585
0.00362494
-0.002739
0.00282898
-0.00257289
0.00202011
-0.00229043
0.00124572
-0.00193513
0.000535976
-0.00153332
-6.07579e-05
-0.00116586
-0.000499226
-0.000873283
-0.000773799
-0.000686934
-0.000930158
-0.000558251
-0.00101429
-0.000461465
-0.00105129
-0.000374187
-0.00105718
-0.000285517
-0.00104052
-0.000189302
-0.00100728
-8.26843e-05
-0.000962455
3.46417e-05
-0.000907761
0.000159061
-0.000842165
0.000288715
-0.000764462
0.000425935
-0.00067197
0.000575424
-0.000562356
0.000749405
-0.000439029
0.000979995
-0.000313612
0.00133123
-0.000154452
0.00184712
0.000216365
0.00247761
0.00104545
0.00341733
0.00153003
0.00406443
0.00416454
0.00288203
0.00456941
0.00486937
0.00164807
0.00535566
0.00175442
0.00559225
0.00171394
0.00582433
0.00107755
0.00601249
0.000328195
0.00607893
-0.00037901
0.00595269
-0.000972113
0.00560094
-0.00142416
0.00503673
-0.00172915
0.00430728
-0.00189442
0.00347106
-0.00192964
0.00258637
-0.00185432
0.00170719
-0.00169371
0.000865536
-0.00144878
0.000101674
-0.00117127
-0.000524926
-0.000906725
-0.000970242
-0.000720552
-0.00124853
-0.00059501
-0.00141705
-0.000518433
-0.00151267
-0.000462638
-0.00156197
-0.000412175
-0.00157808
-0.000358072
-0.00156826
-0.000295318
-0.00153749
-0.00022006
-0.00149113
-0.000129025
-0.00143605
-2.04335e-05
-0.00137746
0.000100471
-0.00131612
0.000227376
-0.00125159
0.000361401
-0.00118397
0.000507811
-0.00111415
0.00067961
-0.00104084
0.000906686
-0.000947532
0.00123782
-0.000774034
0.0016733
-0.00034291
0.00204593
0.000753101
0.00232086
0.00135718
0.00345992
0.00567576
0.00793346
0.00536319
0.00581355
0.00387435
0.00556484
0.00196269
0.00563636
0.00100606
0.00560009
0.000364468
0.00535499
-0.000133929
0.00489081
-0.000507973
0.004249
-0.000782375
0.00348372
-0.000963886
0.00264791
-0.00105863
0.00178282
-0.00106456
0.000924544
-0.000996043
0.00010616
-0.000875329
-0.000615944
-0.000726681
-0.0011846
-0.000602624
-0.00158572
-0.000505617
-0.0018553
-0.000451001
-0.00202694
-0.000423408
-0.00213738
-0.000408029
-0.00220672
-0.000393312
-0.00224479
-0.000374104
-0.00225561
-0.00034723
-0.00224122
-0.000309659
-0.00220365
-0.000257585
-0.00214632
-0.000186317
-0.00207579
-9.09414e-05
-0.00200559
3.02664e-05
-0.00194461
0.000166382
-0.00189407
0.000310839
-0.00185873
0.000472483
-0.00184412
0.000665089
-0.00185055
0.000913261
-0.00185622
0.00124362
-0.00183206
0.00164906
-0.00179597
0.00200944
-0.00172331
0.00224754
-0.00141012
0.00314599
0.00443476
0.00411186
0.00149789
0.00451263
0.0034736
0.00374009
0.00273526
0.00323517
0.00151099
0.00288756
0.000712065
0.00251898
0.000234622
0.00207067
-5.96799e-05
0.00153264
-0.000244347
0.000923955
-0.000355193
0.000261691
-0.000396354
-0.000417843
-0.000385026
-0.00105901
-0.000354875
-0.00161349
-0.000320842
-0.00204972
-0.000290461
-0.00237346
-0.000278918
-0.00259886
-0.000280271
-0.00275886
-0.000291063
-0.00287788
-0.000304443
-0.00296944
-0.000316517
-0.00303773
-0.000325027
-0.00308301
-0.000328796
-0.00310384
-0.000326329
-0.00309838
-0.000315014
-0.00306541
-0.000290452
-0.00300538
-0.000246262
-0.00292161
-0.00017467
-0.00282301
-6.83741e-05
-0.00272879
7.20845e-05
-0.00265243
0.000234386
-0.00259211
0.000412105
-0.00254454
0.000617569
-0.00250761
0.000876543
-0.00247121
0.00120756
-0.00244733
0.00162554
-0.00267339
0.00223579
-0.00358717
0.00316148
-0.00381531
0.00337408
0.000802216
-0.00259629
-0.00675929
-0.00741443
-0.00746122
-0.00374974
-0.00216686
-0.00167098
0.00139483
-0.000757958
0.00182224
-0.000560946
0.00131398
-0.000642326
0.000793442
-0.000827568
0.000419868
-0.00106477
0.000177528
-0.0013479
3.88053e-05
-0.00167914
-2.39227e-05
-0.0020359
-3.95602e-05
-0.00238978
-3.11194e-05
-0.00271972
-2.49329e-05
-0.00300142
-3.91579e-05
-0.00321716
-7.47686e-05
-0.00337987
-0.000116282
-0.0035097
-0.000150531
-0.00362391
-0.000176948
-0.00372906
-0.000199363
-0.00382478
-0.000220821
-0.00390735
-0.000242437
-0.00397179
-0.000264269
-0.00401264
-0.000285329
-0.00402484
-0.000302636
-0.00400506
-0.00031005
-0.00395297
-0.000298204
-0.00387132
-0.00025626
-0.00376484
-0.00017491
-0.00364354
-4.94052e-05
-0.00352179
0.000112401
-0.00339281
0.000282909
-0.00323583
0.000460453
-0.00302843
0.000669169
-0.00274214
0.000921484
-0.00232589
0.00120965
-0.00166216
0.00157248
-0.000659691
0.00215938
8.22511e-05
0.0026324
0.00106934
-0.00734567
0.00103998
-0.00812006
-0.00668689
-0.00717386
-0.00311311
-0.00565364
-0.00012542
-0.00456131
0.000729899
-0.00397077
0.000723454
-0.00371307
0.000535767
-0.00364746
0.00035431
-0.00368924
0.000219361
-0.00378153
0.00013116
-0.00388273
7.73361e-05
-0.00396915
4.69049e-05
-0.00403089
3.06465e-05
-0.00407408
1.8247e-05
-0.00411365
3.58114e-07
-0.00416181
-2.67037e-05
-0.00422222
-5.59871e-05
-0.00429184
-8.10204e-05
-0.00436691
-0.000101978
-0.00444405
-0.00012227
-0.00452031
-0.000144544
-0.00459297
-0.000169692
-0.00465953
-0.000197548
-0.00471771
-0.00022694
-0.0047653
-0.000254793
-0.00479991
-0.000275185
-0.00481823
-0.000279691
-0.0048149
-0.000259506
-0.00478169
-0.000208195
-0.00470848
-0.000122847
-0.00458865
-7.81364e-06
-0.00441821
0.000112059
-0.00417751
0.000219399
-0.00382988
0.000321305
-0.00333693
0.000428458
-0.00263379
0.000506576
-0.00149407
0.000432929
0.000483346
0.000182193
0.00196579
0.00115023
0.00321878
0.00158177
-0.00504033
-0.00809004
-0.00815577
-0.00737121
-0.00660085
-0.00602483
-0.00563506
-0.00538334
-0.00522159
-0.00511438
-0.00503752
-0.00497632
-0.00492678
-0.00489456
-0.00488908
-0.00491272
-0.00496128
-0.00503076
-0.00512058
-0.00523286
-0.00537067
-0.00553695
-0.00573348
-0.00595897
-0.00620611
-0.00645908
-0.00669309
-0.00687679
-0.00697591
-0.00696051
-0.00682558
-0.00658358
-0.00624005
-0.00578994
-0.00526256
-0.00480989
-0.00460915
-0.00344158
)
;

boundaryField
{
    floor
    {
        type            calculated;
        value           nonuniform List<scalar> 
36
(
0
0
0
0
0
0
0
0
0
0
0
0
0
0
0
0
0
0
0
-6.43879e-06
-1.68818e-05
-2.60246e-05
-3.42884e-05
-3.49034e-05
-2.87377e-05
-2.85828e-05
-2.92033e-06
-5.44157e-06
-5.68789e-06
-5.9079e-06
-4.85465e-06
-8.93863e-06
-1.02092e-05
-1.28315e-05
-1.44566e-05
-1.54458e-05
)
;
    }
    ceiling
    {
        type            calculated;
        value           nonuniform List<scalar> 
43
(
-5.78626e-05
-6.4829e-05
-6.34364e-05
-5.97123e-05
-5.46489e-05
-4.68702e-05
-4.01789e-05
-3.53703e-05
-3.2257e-05
-3.04963e-05
-2.97939e-05
-2.99102e-05
-3.05529e-05
-3.13354e-05
-3.19332e-05
-3.22726e-05
-3.24547e-05
-3.25469e-05
-3.25578e-05
-3.24599e-05
-3.22105e-05
-3.17656e-05
-3.1092e-05
-3.01814e-05
-2.90667e-05
-2.78311e-05
-2.65985e-05
-2.54975e-05
-2.4617e-05
-2.39812e-05
-2.35534e-05
-2.32469e-05
-2.29328e-05
-2.24829e-05
-2.18088e-05
-2.08737e-05
-1.9717e-05
-1.84509e-05
-1.7192e-05
-1.63093e-05
1.9331e-05
1.5185e-05
-0.000246564
)
;
    }
    sWall
    {
        type            calculated;
        value           nonuniform List<scalar> 9(-0.000140237 -0.000164531 -0.000194273 -0.000225987 -0.000245109 -0.000281046 -0.000423551 -0.000453654 -0.000483959);
    }
    nWall
    {
        type            calculated;
        value           nonuniform List<scalar> 
14
(
-9.00659e-05
-9.72832e-05
-0.000102728
-0.000104302
-0.000116971
-0.000129519
-0.000135948
-0.000144707
-0.000154511
-0.000169641
-0.000183049
-0.000184352
-0.000183462
-0.000206309
)
;
    }
    sideWalls
    {
        type            empty;
        value           nonuniform 0();
    }
    glass1
    {
        type            calculated;
        value           nonuniform List<scalar> 9(-6.40339e-05 -0.00017032 -0.00025792 -0.000331202 -0.000393183 -0.000446386 -0.000492196 -0.000535476 -0.000587162);
    }
    glass2
    {
        type            calculated;
        value           nonuniform List<scalar> 2(-0.000367311 -0.000384341);
    }
    sun
    {
        type            calculated;
        value           uniform 0;
    }
    Table_master
    {
        type            calculated;
        value           nonuniform List<scalar> 9(-1.53991e-07 -1.54108e-07 -1.5414e-07 -1.5416e-07 -1.54173e-07 -1.54178e-07 -1.54177e-07 -1.54162e-07 -1.54109e-07);
    }
    Table_slave
    {
        type            calculated;
        value           nonuniform List<scalar> 9(1.53661e-07 1.53717e-07 1.53716e-07 1.53732e-07 1.53753e-07 1.53797e-07 1.53864e-07 1.53957e-07 1.54084e-07);
    }
    inlet
    {
        type            calculated;
        value           uniform -0.0116486;
    }
    outlet
    {
        type            calculated;
        value           nonuniform List<scalar> 2(0.00977907 0.0122793);
    }
}


// ************************************************************************* //
