/*--------------------------------*- C++ -*----------------------------------*=========                 |
  \      /  F ield         | OpenFOAM: The Open Source CFD Toolbox
   \    /   O peration     | Website:  https://openfoam.org
    \  /    A nd           | Version:  6
     \/     M anipulation  |
\*---------------------------------------------------------------------------*/
FoamFile
{
    version     2.0;
    format      ascii;
    class       volScalarField;
    location    "720";
    object      PPD;
}
// * * * * * * * * * * * * * * * * * * * * * * * * * * * * * * * * * * * * * //

dimensions      [0 0 0 0 0 0 0];

internalField   nonuniform List<scalar> 
458
(
41.44629928912022
29.46869319256504
28.022881783884273
26.772096083915187
25.98747171325411
25.6229792009062
25.724872494474354
26.340463581125647
27.58662767477105
29.705372404508253
32.966618514967934
36.404916687223604
37.18851616437092
37.59474954375387
38.21931602255154
44.12307880947707
43.418130170372315
43.217282731373054
43.56893364979467
43.82058702785195
44.02218751604802
43.7920101528297
43.56862946421792
43.62134464000222
43.722954830408604
43.88196319625059
44.056160703260126
44.28827981702319
44.63143738040014
45.23198407584541
45.668762499458374
45.897870848322185
46.6377904808777
38.01097190251909
30.005645478797987
29.44642303441222
28.177856643116485
27.442511684368114
27.09846532485666
27.14216512543068
27.499664324236704
28.119337001691264
29.208875250169413
31.041186074238226
33.907379129154435
36.99794427363614
37.546868679171794
37.90654478526179
35.82741035060259
35.81621255856366
36.89537899137409
41.6500652553879
42.74131980098621
42.71631084641618
43.1169562006948
43.270772088393066
43.24960828271673
43.25344051965825
43.31478792138458
43.35328697712619
43.36832452346563
43.39188919924977
43.45989329002623
43.519510270034885
43.68417877173538
44.13936522002724
44.577823278465274
44.932319465464985
44.044440748361794
39.59660398043387
29.595988862555714
30.931046562719445
30.23555395034272
29.926822525517025
29.7386207573402
29.753655904558414
29.588979578961315
28.999516839882688
28.503873800065108
28.982412500004045
31.193346638975882
35.55531792110854
37.882525683052855
38.21931602255154
38.36399675058317
38.434800589436996
37.42024571259802
37.11186565925711
40.38214184469088
40.86316586214
41.322108556417724
41.88157042026443
42.06819611976832
43.248571800589886
43.99697412560904
43.99697412560904
44.02218751604802
44.02218751604802
44.02218751604802
44.04740468847444
44.072625634073816
44.22403004964538
44.40083726201078
44.00114344236464
40.209585748786836
43.48166789320937
29.287001628517274
32.02603650719226
32.53042537956408
33.3369295421078
33.887764462970395
33.98331559757314
32.863376267029196
30.229386956986446
27.841925362989812
27.298265345584582
29.29388858576533
33.59426283834324
38.1875011680657
38.896216748423655
38.96899922983731
37.68450131358097
36.4761134772708
33.99069955604348
37.24760917278685
39.05687316928631
40.38243530273287
41.938794256865336
43.72545488574949
45.13442778972161
44.799044462862234
44.46513352473908
44.3977440056469
44.456399150154056
44.58516421556747
44.93010770293644
45.6295923367111
46.872020075606095
46.817343268152115
46.07624094778859
42.935242303256096
37.96603163233725
48.50492985341617
29.656543996310162
32.84986130577272
34.63082509367135
37.332224147658046
39.694741243899394
40.18297882890955
36.58013322558042
31.268199838650446
27.257610260720895
26.081328600848252
28.140777965142263
32.43446933123562
37.460332050283924
39.89508803986872
39.9930118861827
39.43906774461929
37.994973877781405
37.913149312562346
38.703103326133935
40.30650995414867
42.39918383475584
44.57625009862648
46.70015519519973
48.15027965789568
48.821812223994314
48.83860758688526
48.810538783773836
48.71307666727391
48.55228526987486
48.41187796916358
48.373791493282305
48.354169351228215
47.53198730254365
46.11756197131013
42.11872824463653
42.14854912488301
41.978236040501855
46.45394239579796
40.060106311951685
53.80510488009573
31.02779789691391
34.318219560280625
36.19918221064705
40.459708408351155
44.45138658357307
46.38236408243773
38.09206387225286
31.21964235956223
26.54734549913637
25.25698230156057
27.438756694584825
32.23290794205886
38.02053021888347
41.32281041137168
41.645041300994045
41.521013515108514
41.570610787205396
42.23273721225507
43.304214628177704
45.08389390038493
46.74004118835138
48.20170074243323
49.41253155798396
50.31685335060109
50.912116086110544
51.32659925647912
51.58579103114054
51.66356760527058
51.61171561693158
51.35251385538288
50.989809186711696
50.04389543300844
48.42592002030163
46.4605480336026
42.70571927691208
42.37788411844349
42.002762714129034
43.31348286585834
43.72189351742047
58.827595618874376
35.14824910992317
40.275690443165374
39.13256228150488
41.933339452185805
46.12723141356293
42.82184851178351
36.59534416351268
29.85975072733551
25.32969253075109
24.47519946159531
27.437541255389917
33.27442673287403
40.366441445744584
43.29257030060796
43.89615855994381
43.92135673434385
44.22403004964538
45.18594776184503
46.53558527218315
48.04746493387163
49.46415173329977
50.70498881875272
51.63764114506116
52.26010979251306
52.64936203632071
52.85701414834216
52.934891334943906
52.882972778485964
52.701272097055856
52.33794903401857
51.84507806235443
51.274773233765345
50.32958956037326
47.92712289005264
44.59814699064544
43.07720509539114
41.97593290517826
40.51349955113614
46.126777476259285
66.30889911786264
54.80644206903984
51.62681774030319
45.31239297113701
44.177577933782466
43.593631027005344
39.94576658322153
32.98132754199311
26.292141095770887
22.94039376617755
23.708702069646193
28.62433486661496
36.568161117264175
43.77022525348183
45.94881830349381
46.612234889715104
46.842336792828696
47.380101339209496
48.433206432790904
49.69652950311773
50.93801258190091
52.02663016236412
52.831055964149904
53.37625760239004
53.713821898072524
53.84366009958463
53.86962792540348
53.7917246018772
53.635920098097124
53.42818854175231
53.09065662265518
52.62340779457858
52.05256937012363
51.40434617717706
50.679103649819254
49.877362828014334
49.36931682880027
47.887003673805495
43.63699234337781
39.15284666805436
76.57673497045468
69.46622282090236
61.010478109301665
53.229576567192865
48.240406394041486
44.42688230168592
34.639804577340925
24.83180700805812
19.776915106581015
19.744873860716595
24.153378305437755
33.11641245893607
42.94154277943445
47.20071625288278
48.79367374652091
49.48996449647862
49.9548873393726
50.60145603875055
51.508023030348475
52.46769403951239
53.27239865061592
53.92156367830907
54.264332374006614
54.00251645119197
53.68890913072028
53.33813002088553
52.9121746020408
52.44040822055482
51.880963075638356
51.25663064129905
50.540766937973075
49.73055685934345
48.971025751819106
48.06158279019451
47.009646068355174
46.05247392786087
45.43723742913401
45.21166233590338
44.68196124850324
43.01174561331431
59.54429588049414
16.93147953571858
5.77678528818312
5.001462496560052
5.46733777409149
7.297538505907795
11.807021080983986
20.047015185855543
32.20174858607207
42.81637197358224
48.175989064695315
49.30117875042688
49.75931483935925
50.21373989560324
50.78646166462993
51.47557984168933
52.11538195529949
52.57188204386801
52.77516816250465
52.78738380112356
52.63576401785499
52.379408967196284
52.03893838583762
51.63187134393909
51.15830704160779
50.65928169428952
50.18868375599062
49.78278555279756
49.470684970809515
49.261097571391545
49.11019472974626
49.00939010626026
48.90303936022158
48.93928528328221
49.505078337078274
51.47629978765291
55.134824366962164
46.869791959104276
60.183981612163066
12.177811064456066
5.001750627970637
7.042480500747857
10.657722303977621
17.75452310974393
28.008512651779057
39.04183076976244
44.025454033712045
46.30820122222761
47.84475213317207
48.74407938349244
49.35058805393411
49.83843414890357
50.30150065084671
50.70206102248743
51.03169420742283
51.28756439601034
51.43791285970629
51.43775368451257
51.37342706081015
51.226146689937906
51.057290428887384
50.87611759332133
50.69201694043837
50.54168671688393
50.41063512266086
50.350587949155994
50.359449305778725
50.50458160647958
50.87387569869407
51.50509051448296
52.17354082117534
52.736049208866525
53.31727744124665
55.234238518728716
52.410430171442535
49.197938267634086
32.08739728112842
32.023727564824924
26.50989598399886
5.921489926561861
7.8671993835801
17.91939548685845
29.67835370676424
36.73123414038034
41.26292778520142
44.085696808240776
45.91211337944235
47.244325576945734
48.0419015498495
48.51224414779965
48.778264914891196
48.96048125203618
49.05206402936715
49.04589423062287
48.9614552903134
48.84557796400869
48.68256631657718
48.538519550537295
48.39343134513622
48.25226180594348
48.149462278793784
48.094881888165624
48.10269442548957
48.220751236729384
48.42230044415073
48.77560296119776
49.28714405279383
50.06732358525838
51.3625894743974
53.57212975221381
56.85341302649863
57.16414689823273
55.66428281865094
52.376754951860775
49.557154128290115
50.29945334896101
)
;

boundaryField
{
    ".*"
    {
        type            zeroGradient;
    }
}


// ************************************************************************* //
