/*--------------------------------*- C++ -*----------------------------------*=========                 |
  \      /  F ield         | OpenFOAM: The Open Source CFD Toolbox
   \    /   O peration     | Website:  https://openfoam.org
    \  /    A nd           | Version:  6
     \/     M anipulation  |
\*---------------------------------------------------------------------------*/
FoamFile
{
    version     2.0;
    format      ascii;
    class       volScalarField;
    location    "680";
    object      PPD;
}
// * * * * * * * * * * * * * * * * * * * * * * * * * * * * * * * * * * * * * //

dimensions      [0 0 0 0 0 0 0];

internalField   nonuniform List<scalar> 
458
(
41.46724402477854
29.46429188545612
28.018094019862005
26.767416175761497
25.982972724196387
25.640509155193698
25.742742589591856
26.337003086920774
27.583844093624222
29.703473116351688
32.9658113051067
36.40108831752237
37.184656421004554
37.614822454093066
38.21541729266227
44.119006170540935
43.414073902383464
43.23832253708242
43.564873779680774
43.841707356846754
44.01811714714055
43.78885550257525
43.58956188072931
43.61763956059982
43.74363325817548
43.877995815211996
44.052074156874006
44.308638879865455
44.65167677940346
45.227536857092886
45.66465813208821
45.89376226564139
46.65922716388746
38.00716945933714
30.001492506760172
29.464485795666832
28.19586501408098
27.460549242469114
27.094476632237644
27.1384998917369
27.496434996132365
28.116574429736815
29.206480846668796
31.038938710157282
33.90540378057747
37.01789148471529
37.56693166944987
37.92668159284841
35.819741211713946
35.81088988255091
36.89238688018835
41.672825867672806
42.737280369896304
42.737280369896304
43.11290728954772
43.267062354008246
43.24620510047917
43.2500324186919
43.335621945935095
43.374089585554806
43.38910651947015
43.412659923153164
43.45628771959928
43.54023717287549
43.70489613487471
44.16003238427215
44.573740710455766
44.92822950087946
44.041525047918064
39.62077148886578
29.5920582977038
30.92662444463754
30.2314902837022
29.922944955866186
29.757913057414967
29.750242898123417
29.6085606654908
29.01875855321164
28.500591158330863
28.979197029091708
31.19051022337129
35.57624847132023
37.878639406589556
38.21541729266227
38.36009275545754
38.44932441912219
37.416238211189764
37.108496454776265
40.37796575421253
40.88262149226204
41.31706946795712
41.876434941495205
42.08788631774204
43.26863542546076
44.01811714714055
44.01811714714055
44.01811714714055
44.0433337499024
44.0433337499024
44.068554127274695
44.093778270430505
44.24520171595666
44.3967584995116
44.02244942188411
40.20621117754994
43.477027867290886
29.28316209018992
32.021692430996836
32.52669749053359
33.33360360401652
33.884582971151545
33.98012348386962
32.85939518639805
30.225067849181542
27.837766915824787
27.29453688683779
29.290906503015464
33.59143656449314
38.20673654157963
38.89229382133132
38.96507376704818
37.69902093002759
36.46725031371188
33.98462250893071
37.26472551077033
39.050482913668645
40.37605168364093
41.932573065931436
43.74415611474521
45.12893456746684
44.79379111411465
44.48524542705918
44.418273476396465
44.451949908626354
44.580999783431785
44.9515170723462
45.65103643445679
46.86820141351414
46.838634321034135
46.07212917059671
42.95681362030407
37.96262004300361
48.531526730278976
29.67674409335835
32.84552236312314
34.627445338581865
37.32989155792223
39.71732736103469
40.17951780032145
36.573828896008585
31.262584739006357
27.252872698810364
26.077459650652173
28.137480706356712
32.45450275462504
37.48068248294527
39.89113142967486
39.989052103378334
39.45386150389453
37.98651504674921
37.90583851288116
38.72070468472799
40.30013102769983
42.392701987596055
44.5698981794766
46.7188696388397
48.17184544055995
48.816801844136585
48.85907514480725
48.80647622027398
48.70938972355341
48.54882272955815
48.43388739058124
48.39580362892202
48.35088205767434
47.55371297965921
46.11421486082422
42.14053605355927
42.16986024658163
42.00064972494079
46.476664259724934
40.08322216519879
53.79998555187288
31.023830739901214
34.337984845264316
36.19583303204536
40.457923215898525
44.44730672652043
46.40377614491027
38.10780504587881
31.213472478135515
26.54251379620888
25.253060007210834
27.457287465319666
32.23023095266201
38.01831597094008
41.31880982732066
41.64103146913292
41.51700721328885
41.59140792872105
42.22566709965533
43.29760754996889
45.0775708181388
46.735918194795204
48.22327041084229
49.40837416752056
50.31268824901404
50.9338433432048
51.34834238343809
51.58161848854938
51.685322011882775
51.63346838274609
51.374257901506375
51.01153958589126
50.040879381832575
48.44788393990441
46.45721808744804
42.70230279474917
42.37422832914431
42.02479650737653
43.33556476882525
43.74446364522732
58.82239536449919
35.14409352788279
40.296576218412056
39.12934982045889
41.95570661123124
46.14861807311905
42.81055142019608
36.58732101602398
29.853803593642553
25.325133946454457
24.4716037023303
27.43469084402902
33.295711969850075
40.38974302182305
43.313620400584675
43.89209106089812
43.91728865845878
44.21995516372775
45.18185269014225
46.55701220115107
48.04332295331659
49.485806367625464
50.700821021095194
51.63346838274609
52.28188058697714
52.67114104757266
52.87879674023302
52.956675125410605
52.90475577864813
52.72305205584562
52.35972162834812
51.866837940395385
51.27060214843513
50.35142034262911
47.9490663384726
44.62026111715368
43.09915654999735
41.9979538091614
40.535735202991646
46.122872873544054
66.33523629133242
54.802117982871245
51.62198385251953
45.30704204492819
44.170827575758885
43.61125284016329
39.93793278173341
32.97488646533307
26.28725977209058
22.936756053179053
23.726246312608154
28.62257912305151
36.56811273377919
43.76616066010495
45.94470880057386
46.60811397333246
46.86379260594417
47.40160495630916
48.42905963945452
49.718197585224985
50.95974089487723
52.022455963630684
52.8528381390312
53.39804669522565
53.709645823308726
53.86545203650373
53.89141993650342
53.81351636392863
53.65771112364091
53.42401228456597
53.11244257395003
52.61923212128611
52.048395088927
51.40017445574178
50.674936020469005
49.89904090186753
49.36616453248663
47.88351478342345
43.65965559074741
39.17731521924456
76.57231279730516
69.46158367827871
61.00557504850339
53.255121926439045
48.234633681005114
44.421085616291535
34.634435553128526
24.82740849204606
19.773792656350835
19.761194933435675
24.1727438212027
33.11772784936835
42.962544284642256
47.19658609865915
48.78952278169521
49.485806367625464
49.95072508451591
50.623169961867774
51.52977241135417
52.46351866566119
53.294186724004696
53.91738786493143
54.25981336791302
54.02320766521619
53.70982792379142
53.3593445153546
52.93369443243604
52.436552615889276
51.902971392682986
51.2528861118149
50.537003870852686
49.726716262657284
48.96696944976719
48.084276691015184
47.03274455382397
46.07603274579105
45.46133779263363
45.236228251351235
44.67775266076538
43.037532362761475
59.57493546752211
16.949622451998096
5.781432574141505
5.001269198034521
5.460626965566348
7.29702015858571
11.80717563736755
20.066903131862034
32.22977913353277
42.83735578254927
48.19755679429347
49.317737678975874
49.777277063811844
50.232514896272484
50.80573599488017
51.469756863304994
52.10992725457059
52.56650847793188
52.79550124694876
52.80782919709708
52.656364575223165
52.400248778120876
52.060080150968815
51.627209905251796
51.18020601984139
50.68157842419798
50.21133276909071
49.80568922622625
49.49376657785621
49.28420973074861
49.133331973343296
49.005621451491976
48.926458677923925
48.93543762744517
49.50125414553768
51.49999614534303
55.158039757632935
46.86539292426787
60.18696546779799
12.189729553708034
5.0018918130128185
7.04145169255699
10.66647924136251
17.75194232000635
28.046908934583286
39.06218999008681
44.036924617348575
46.32500669390874
47.863893512224756
48.764070883291005
49.37088457303022
49.85897319112075
50.29583741106133
50.69656613412609
51.05269864068535
51.308287331519814
51.43237746306106
51.459044179102214
51.39499690819293
51.248074335268335
51.07953872062054
50.89863945754377
50.71484286801913
50.56473740553344
50.433869302426565
50.347146769658636
50.35604252385507
50.50119652359228
50.89721159786023
51.5017339309044
52.196670124686364
52.759183482633205
53.34042858918614
55.257166973294645
52.406179465918825
49.193645607163695
32.064087998736824
32.02755983175655
26.512968844821856
5.917834201665443
7.871804334729603
17.92977468213354
29.696752797583642
36.751329745062506
41.2845492728469
44.10818759493748
45.93499136604337
47.24012017101914
48.06506188832875
48.53593534019989
48.80255883971136
48.98532194108627
49.04988315906655
49.04386449077373
48.959257015173094
48.842959989629385
48.707520225198095
48.53584101239667
48.3907731447907
48.277402086371005
48.17470150401773
48.120200836300135
48.128126225885545
48.21854235937581
48.42018183085829
48.77345149581537
49.31233543822505
50.09224568770661
51.36044566690803
53.59631143614096
56.84925258381262
57.18587580860357
55.66052182767448
52.40017901163877
49.58141617216855
50.29538493682305
)
;

boundaryField
{
    ".*"
    {
        type            zeroGradient;
    }
}


// ************************************************************************* //
