/*--------------------------------*- C++ -*----------------------------------*\
  =========                 |
  \\      /  F ield         | OpenFOAM: The Open Source CFD Toolbox
   \\    /   O peration     | Website:  https://openfoam.org
    \\  /    A nd           | Version:  6
     \\/     M anipulation  |
\*---------------------------------------------------------------------------*/
FoamFile
{
    version     2.0;
    format      ascii;
    class       volScalarField;
    location    "100";
    object      alphat;
}
// * * * * * * * * * * * * * * * * * * * * * * * * * * * * * * * * * * * * * //

dimensions      [1 -1 -1 0 0 0 0];

internalField   nonuniform List<scalar> 
459
(
0.000839833
0.000865327
0.000805235
0.000835403
0.000866636
0.000895653
0.000922702
0.00094858
0.000974438
0.00100002
0.00101994
0.00103196
0.0010338
0.00102344
0.000996288
0.000533595
0.000668614
0.000576711
0.000532159
0.000492431
0.000442745
0.000399895
0.000367246
0.000343632
0.000325438
0.000309788
0.000295129
0.000280684
0.000267867
0.000279885
0.000427226
0.000577046
0.000556992
0.000467858
0.00140868
0.0024317
0.00183733
0.00235633
0.00255803
0.00276894
0.00298702
0.00319332
0.00336039
0.00347201
0.00352992
0.00349575
0.00330605
0.00286019
0.00205054
0.00103251
0.000736641
0.000684467
0.00236835
0.00183547
0.00147482
0.00119176
0.000992248
0.000751182
0.000778362
0.000749133
0.00070901
0.00066644
0.000618806
0.000566017
0.000516008
0.000619025
0.00100066
0.00141322
0.00141935
0.000546045
0.00190402
0.00390677
0.00194464
0.00334326
0.00372892
0.00393262
0.0041037
0.00424542
0.00435333
0.00442418
0.00445283
0.00439923
0.00420058
0.00376589
0.00301169
0.00200299
0.00104368
0.000886284
0.00235385
0.00183068
0.00136957
0.00105291
0.000790179
0.000365073
0.000324207
0.000305652
0.000289117
0.000275394
0.000271327
0.000293623
0.000368328
0.000546611
0.0013903
0.00180379
0.00129934
0.000671896
0.00237496
0.00579652
0.00209454
0.00360517
0.00434365
0.00452589
0.0046361
0.00472408
0.00479934
0.00486097
0.00491949
0.0049544
0.00491495
0.00470494
0.00418213
0.00322575
0.00195986
0.00105219
0.00169543
0.00196299
0.00163369
0.00138457
0.00116243
0.000941726
0.000771407
0.000794222
0.000828849
0.000874338
0.000931161
0.00100499
0.00109232
0.0011372
0.00114624
0.0014733
0.00175519
0.00206152
0.00104928
0.00281623
0.00791765
0.00268327
0.00334594
0.00455004
0.00477298
0.00484751
0.004899
0.00495142
0.005014
0.00511169
0.00527225
0.00548201
0.00569008
0.00580117
0.00569622
0.00528959
0.00455569
0.00369077
0.00334493
0.00314263
0.00294658
0.00279887
0.0026834
0.0026168
0.0026438
0.00275978
0.00295344
0.00321042
0.00351821
0.00384264
0.00401737
0.00403616
0.00390515
0.00351368
0.00302611
0.0021171
0.00105914
0.000929121
0.00103981
0.00323364
0.00989441
0.00405008
0.00297888
0.00427056
0.00471206
0.00485177
0.00490332
0.00491203
0.004909
0.00496331
0.00513311
0.00542367
0.00581832
0.00624478
0.00656199
0.00659785
0.00625863
0.00564401
0.00499994
0.00447287
0.00408498
0.00377412
0.00348697
0.00322997
0.00306295
0.00303389
0.00314752
0.00338376
0.00370052
0.00404204
0.00431243
0.00443873
0.0044545
0.00431769
0.00385253
0.00316535
0.00222432
0.00200418
0.00111046
0.00363091
0.0113881
0.00664868
0.00353144
0.00326267
0.00388961
0.00445141
0.00478173
0.00489441
0.00475858
0.00470311
0.00476606
0.00495386
0.00528533
0.00574211
0.00621932
0.00653385
0.00653293
0.00621456
0.00573426
0.00526647
0.00487234
0.00451427
0.00413825
0.00373657
0.0033722
0.00314612
0.00313043
0.00333013
0.00366503
0.00402464
0.00431132
0.00449396
0.00463773
0.00485447
0.00478577
0.00423038
0.00357141
0.00287136
0.00138354
0.00372935
0.0116757
0.00882599
0.00642617
0.00464476
0.00389872
0.00405468
0.0044969
0.00478142
0.00461697
0.00447002
0.00441059
0.00444233
0.00457558
0.00483076
0.00519951
0.00558382
0.00582009
0.00581235
0.00561238
0.005345
0.00508649
0.00483553
0.00455331
0.00421922
0.00384353
0.00348428
0.00327948
0.00338282
0.00370591
0.00407791
0.00435346
0.00450908
0.00466413
0.0050112
0.00556858
0.00584548
0.00553073
0.00513248
0.00158859
0.00362692
0.00437076
0.00478346
0.00486623
0.00460124
0.00420994
0.00392702
0.00380778
0.0037854
0.00379733
0.00382114
0.00384902
0.00388111
0.00392666
0.00400544
0.00414067
0.00433185
0.00452764
0.00465393
0.00468081
0.00463492
0.00455515
0.00446085
0.00435006
0.00421715
0.00406533
0.00388083
0.00357108
0.0034939
0.00373702
0.00410252
0.00433379
0.00427752
0.00393105
0.00345557
0.00305484
0.00273904
0.00248453
0.00225437
0.00155598
0.0026862
0.0038929
0.00423263
0.004182
0.00402862
0.0038819
0.00376245
0.00366577
0.00358916
0.00352348
0.00346174
0.00340193
0.00334869
0.00331306
0.00330773
0.00333662
0.00338783
0.00344155
0.00348397
0.00351097
0.00352397
0.00352585
0.0035215
0.00352153
0.00353628
0.00355493
0.00356691
0.00360904
0.00394088
0.00448628
0.00512774
0.00562863
0.00570628
0.00528124
0.00464266
0.00413729
0.00373018
0.00148247
0.00257342
0.00418195
0.00440059
0.00430715
0.0041377
0.00394848
0.00376588
0.00359783
0.00342347
0.00323845
0.00305622
0.00288482
0.00272961
0.00259502
0.00248536
0.00240416
0.00235239
0.00232743
0.00232402
0.00233606
0.00235842
0.00238824
0.00242672
0.00247988
0.00256076
0.0026891
0.00285924
0.00302362
0.00316464
0.0033758
0.00396207
0.00486563
0.00530973
0.00524698
0.00492142
0.00455505
0.00379086
0.0015071
0.00214196
0.00228147
0.00240353
0.00253408
0.00241027
0.00222373
0.00207344
0.00193589
0.00180936
0.00169206
0.00158735
0.00149368
0.00140676
0.00132436
0.00124553
0.00117019
0.00109889
0.0010325
0.000971915
0.000917669
0.000869833
0.000828043
0.000791686
0.000760083
0.000732685
0.00070947
0.00069112
0.000679
0.000674873
0.000677992
0.000684215
0.000702983
0.000769941
0.00091476
0.00114309
0.00136021
0.0014613
0.00142141
0.00136917
0.00126744
)
;

boundaryField
{
    floor
    {
        type            compressible::alphatWallFunction;
        Prt             0.85;
        value           nonuniform List<scalar> 
29
(
0.000141769
7.43462e-05
9.45503e-05
8.08798e-05
7.41573e-05
6.80962e-05
6.04236e-05
5.37193e-05
4.85474e-05
4.47672e-05
4.18302e-05
3.92857e-05
3.68874e-05
3.45091e-05
3.23834e-05
3.43458e-05
5.79106e-05
8.08821e-05
7.78695e-05
6.42636e-05
6.42628e-05
7.62262e-05
9.50452e-05
0.000149163
0.000141768
7.43453e-05
9.69249e-05
0.000126167
0.000149616
)
;
    }
    ceiling
    {
        type            compressible::alphatWallFunction;
        Prt             0.85;
        value           nonuniform List<scalar> 
43
(
0.000295646
0.000313623
0.000329258
0.000345918
0.000330161
0.000306243
0.000286814
0.000268897
0.000252294
0.000236786
0.000222843
0.000210284
0.00019855
0.000187351
0.000176563
0.000166179
0.000156281
0.000146998
0.000138466
0.000130773
0.000123944
0.000117942
0.00011269
0.000108101
0.000104104
0.000100702
9.80032e-05
9.62132e-05
9.55953e-05
9.60352e-05
9.69248e-05
9.96796e-05
0.000109478
0.00013036
0.000162477
0.000192302
0.000205973
0.000200559
0.000193447
0.000179554
0.000482135
0.000572261
0.000350854
)
;
    }
    sWall
    {
        type            compressible::alphatWallFunction;
        Prt             0.85;
        value           uniform 0.00029453;
    }
    nWall
    {
        type            compressible::alphatWallFunction;
        Prt             0.85;
        value           nonuniform List<scalar> 6(0.000147649 0.000157497 0.00019498 0.00020833 0.000211655 0.000179209);
    }
    sideWalls
    {
        type            empty;
    }
    glass1
    {
        type            compressible::alphatWallFunction;
        Prt             0.85;
        value           nonuniform List<scalar> 9(0.00011619 0.000194086 0.000259209 0.00031956 0.000375054 0.000426773 0.000475394 0.000487487 0.000475254);
    }
    glass2
    {
        type            compressible::alphatWallFunction;
        Prt             0.85;
        value           nonuniform List<scalar> 2(0.000221148 0.000216845);
    }
    sun
    {
        type            compressible::alphatWallFunction;
        Prt             0.85;
        value           nonuniform List<scalar> 
14
(
0.000119535
0.000123175
0.00011453
0.000118878
0.000123361
0.000127509
0.00013136
0.000135033
0.000138691
0.000142299
0.000145101
0.000146788
0.000147045
0.00014559
)
;
    }
    heatsource1
    {
        type            compressible::alphatWallFunction;
        Prt             0.85;
        value           nonuniform List<scalar> 3(0.000150683 0.000132371 0.000148009);
    }
    heatsource2
    {
        type            compressible::alphatWallFunction;
        Prt             0.85;
        value           nonuniform List<scalar> 4(0.000146989 0.000104687 0.000104685 0.000148554);
    }
    Table_master
    {
        type            compressible::alphatWallFunction;
        Prt             0.85;
        value           nonuniform List<scalar> 9(4.82998e-05 4.17371e-05 3.87204e-05 3.60091e-05 3.37393e-05 3.30548e-05 3.67158e-05 4.87742e-05 7.64219e-05);
    }
    Table_slave
    {
        type            compressible::alphatWallFunction;
        Prt             0.85;
        value           nonuniform List<scalar> 9(0.000109738 0.000113043 0.000118039 0.000124564 0.000132661 0.000143099 0.000155315 0.000161552 0.000162797);
    }
    inlet
    {
        type            fixedValue;
        value           uniform 1.94e-05;
    }
    outlet
    {
        type            zeroGradient;
    }
}


// ************************************************************************* //
