/*--------------------------------*- C++ -*----------------------------------*\
  =========                 |
  \\      /  F ield         | OpenFOAM: The Open Source CFD Toolbox
   \\    /   O peration     | Website:  https://openfoam.org
    \\  /    A nd           | Version:  6
     \\/     M anipulation  |
\*---------------------------------------------------------------------------*/
FoamFile
{
    version     2.0;
    format      ascii;
    class       volScalarField;
    location    "100";
    object      epsilon;
}
// * * * * * * * * * * * * * * * * * * * * * * * * * * * * * * * * * * * * * //

dimensions      [0 2 -3 0 0 0 0];

internalField   nonuniform List<scalar> 
459
(
0.000133984
0.000146092
0.000117711
0.000131448
0.000146753
0.000161997
0.000177123
0.000192449
0.00020862
0.000225483
0.00023922
0.000247762
0.000249062
0.000241621
0.000222865
3.41527e-05
6.71628e-05
4.31547e-05
3.39317e-05
2.68932e-05
1.95492e-05
1.44071e-05
1.11583e-05
9.13926e-06
7.76092e-06
6.69221e-06
5.78506e-06
4.97566e-06
4.32337e-06
4.91981e-06
1.74522e-05
4.30943e-05
3.87729e-05
2.2983e-05
0.00063376
0.00143807
0.00014587
0.00010308
0.000105853
0.000111517
0.000118396
0.000127332
0.000139307
0.000154613
0.000171285
0.000187478
0.000199942
0.000204136
0.000202564
0.000247985
9.00069e-05
7.21671e-05
0.000144684
5.39746e-05
3.96506e-05
3.2727e-05
2.31118e-05
1.15628e-05
1.01298e-05
8.31761e-06
7.06853e-06
6.03401e-06
5.13559e-06
4.58538e-06
5.89234e-06
1.55229e-05
4.87401e-05
7.92081e-05
7.94295e-05
3.65619e-05
0.00156836
0.00470181
0.000325943
0.000115915
0.00010774
0.000113058
0.00012125
0.000132166
0.000146041
0.000162713
0.000179899
0.000194953
0.000205257
0.00020886
0.000207181
0.000212418
0.000256046
0.000156639
0.000144651
6.93384e-05
5.18478e-05
4.69918e-05
4.28409e-05
1.09383e-05
7.66193e-06
6.42057e-06
5.43328e-06
4.69381e-06
4.48483e-06
5.6754e-06
1.11956e-05
3.66288e-05
0.000126101
0.000161509
0.000119186
6.81644e-05
0.00304986
0.0103186
0.000750277
0.000147002
0.000117192
0.000123369
0.000134448
0.000148582
0.000165782
0.000185872
0.00020605
0.000221711
0.00023081
0.000233121
0.000229422
0.000223735
0.00022823
0.000262271
0.000138976
7.34008e-05
5.21594e-05
5.24934e-05
6.06655e-05
7.62801e-05
0.000103318
0.000112748
0.000128135
0.000150396
0.000181651
0.000228381
0.000293117
0.0003307
0.000338568
0.000245248
0.000221801
0.000264891
0.000259594
0.00509478
0.0178356
0.0016127
0.000206919
0.000129828
0.000136296
0.000153121
0.000175245
0.000202392
0.000233873
0.000264281
0.000285736
0.000298063
0.000303214
0.000299765
0.000282413
0.000246573
0.000185229
0.000102047
6.22333e-05
4.92116e-05
4.7851e-05
5.05066e-05
5.50532e-05
6.09417e-05
6.9413e-05
8.39312e-05
0.000106389
0.000139159
0.000185618
0.00025098
0.000299091
0.000316065
0.000286733
0.00022697
0.00020307
0.000202712
0.000267001
0.00018031
0.000253013
0.007725
0.0248745
0.00325403
0.000373251
0.000166348
0.000160597
0.000181404
0.000213861
0.000257162
0.000311258
0.000354748
0.000376898
0.000385664
0.000390211
0.000391857
0.000380793
0.000340774
0.000266868
0.000180483
0.000114636
8.01932e-05
6.58994e-05
5.99074e-05
5.73052e-05
5.7709e-05
6.35389e-05
7.80184e-05
0.000104508
0.000146858
0.000207653
0.000286069
0.00037227
0.000433235
0.000451637
0.000385146
0.00027713
0.000221245
0.000209475
0.000262149
0.000307984
0.0109503
0.0282132
0.00677343
0.00132093
0.00046613
0.000309087
0.000293995
0.000323155
0.000379588
0.000466
0.000502387
0.000499188
0.000479673
0.000460522
0.000447833
0.000434143
0.000400661
0.000335571
0.000251587
0.000177045
0.000127767
9.96153e-05
8.30124e-05
7.17952e-05
6.49126e-05
6.53591e-05
7.78567e-05
0.000108333
0.000163384
0.00024654
0.00035409
0.00047314
0.000586748
0.000687247
0.000780315
0.000635063
0.00056071
0.000546396
0.000669825
0.000595643
0.0118911
0.0366456
0.0161724
0.00781579
0.00353922
0.00168255
0.00105527
0.000863643
0.00083062
0.00081127
0.00074466
0.000663985
0.000587173
0.000522808
0.000474199
0.00043859
0.000403403
0.000352787
0.000286118
0.000220487
0.00016958
0.000134552
0.000110632
9.32775e-05
8.07196e-05
7.51549e-05
8.32677e-05
0.000115939
0.000184792
0.000294901
0.000441915
0.00060902
0.000785267
0.000993984
0.0013145
0.00182482
0.00231085
0.0027704
0.00539597
0.000904011
0.0109703
0.0191415
0.0145263
0.0103527
0.00701759
0.00460352
0.00306172
0.00215075
0.00161999
0.00125293
0.000993046
0.000804501
0.000664076
0.000557367
0.000475602
0.000412653
0.000361903
0.000315482
0.00026861
0.00022307
0.000183182
0.000151134
0.000126634
0.000108244
9.46971e-05
8.62533e-05
8.67968e-05
0.000114593
0.000190548
0.000321157
0.000504026
0.000704186
0.000870901
0.000965775
0.00100621
0.0010641
0.00116492
0.00130309
0.00145179
0.000850276
0.00585509
0.00666777
0.00541632
0.00402156
0.002925
0.0021511
0.00161979
0.00124832
0.000981516
0.000785739
0.000638675
0.00052544
0.000436264
0.000364881
0.000307139
0.000259834
0.000220342
0.000186958
0.000158851
0.000135541
0.000116555
0.000101398
8.97285e-05
8.17881e-05
7.92463e-05
8.86436e-05
0.000122814
0.000210497
0.000385442
0.000641459
0.00101702
0.00148204
0.00188673
0.00202749
0.00191927
0.00175621
0.00132164
0.0007338
0.00381247
0.0054087
0.00444157
0.0033807
0.00254917
0.00192891
0.00147833
0.00115202
0.000914902
0.000738714
0.000604091
0.000498075
0.000412287
0.000341572
0.000282922
0.00023455
0.000195173
0.000163591
0.000138559
0.000118865
0.000103441
9.14529e-05
8.23575e-05
7.60305e-05
7.30331e-05
7.56026e-05
8.85413e-05
0.000120251
0.000174801
0.000262947
0.00044519
0.00075565
0.00109077
0.00134523
0.00138917
0.00124134
0.00108823
0.000771123
0.00220978
0.00266899
0.00312066
0.00367495
0.00316822
0.0024904
0.00201947
0.00164385
0.00134221
0.0010977
0.00090625
0.000755076
0.000630753
0.000526258
0.000437741
0.000362989
0.00030057
0.000249298
0.000207913
0.000174985
0.000149002
0.000128522
0.000112307
9.93701e-05
8.89902e-05
8.07795e-05
7.46552e-05
7.07751e-05
6.94583e-05
7.03585e-05
7.22221e-05
7.82981e-05
0.000102925
0.000172901
0.000337612
0.000568703
0.000704693
0.00064815
0.000578911
0.000459226
)
;

boundaryField
{
    floor
    {
        Cmu             0.09;
        kappa           0.41;
        E               9.8;
        type            epsilonWallFunction;
        value           nonuniform List<scalar> 
29
(
0.000222865
3.41527e-05
6.71628e-05
4.31547e-05
3.39317e-05
2.68932e-05
1.95492e-05
1.44071e-05
1.11583e-05
9.13926e-06
7.76092e-06
6.69221e-06
5.78506e-06
4.97566e-06
4.32337e-06
4.91981e-06
1.74522e-05
4.30943e-05
3.87729e-05
2.2983e-05
2.2983e-05
3.65619e-05
6.81644e-05
0.000259594
0.000222865
3.41527e-05
7.21671e-05
0.000156639
0.000262271
)
;
    }
    ceiling
    {
        Cmu             0.09;
        kappa           0.41;
        E               9.8;
        type            epsilonWallFunction;
        value           nonuniform List<scalar> 
43
(
0.00220978
0.00266899
0.00312066
0.00367495
0.00316822
0.0024904
0.00201947
0.00164385
0.00134221
0.0010977
0.00090625
0.000755076
0.000630753
0.000526258
0.000437741
0.000362989
0.00030057
0.000249298
0.000207913
0.000174985
0.000149002
0.000128522
0.000112307
9.93701e-05
8.89902e-05
8.07795e-05
7.46552e-05
7.07751e-05
6.94583e-05
7.03585e-05
7.22221e-05
7.82981e-05
0.000102925
0.000172901
0.000337612
0.000568703
0.000704693
0.00064815
0.000578911
0.000459226
0.0109703
0.0191415
0.00381247
)
;
    }
    sWall
    {
        Cmu             0.09;
        kappa           0.41;
        E               9.8;
        type            epsilonWallFunction;
        value           uniform 0.00220978;
    }
    nWall
    {
        Cmu             0.09;
        kappa           0.41;
        E               9.8;
        type            epsilonWallFunction;
        value           nonuniform List<scalar> 6(0.000253013 0.000307984 0.000595643 0.0007338 0.000771123 0.000459226);
    }
    sideWalls
    {
        type            empty;
    }
    glass1
    {
        Cmu             0.09;
        kappa           0.41;
        E               9.8;
        type            epsilonWallFunction;
        value           nonuniform List<scalar> 9(0.000133984 0.00063376 0.00156836 0.00304986 0.00509478 0.007725 0.0109503 0.0118911 0.0109703);
    }
    glass2
    {
        Cmu             0.09;
        kappa           0.41;
        E               9.8;
        type            epsilonWallFunction;
        value           nonuniform List<scalar> 2(0.000904011 0.000850276);
    }
    sun
    {
        Cmu             0.09;
        kappa           0.41;
        E               9.8;
        type            epsilonWallFunction;
        value           nonuniform List<scalar> 
14
(
0.000133984
0.000146092
0.000117711
0.000131448
0.000146753
0.000161997
0.000177123
0.000192449
0.00020862
0.000225483
0.00023922
0.000247762
0.000249062
0.000241621
)
;
    }
    heatsource1
    {
        Cmu             0.09;
        kappa           0.41;
        E               9.8;
        type            epsilonWallFunction;
        value           nonuniform List<scalar> 3(0.000267001 0.00018031 0.000253013);
    }
    heatsource2
    {
        Cmu             0.09;
        kappa           0.41;
        E               9.8;
        type            epsilonWallFunction;
        value           nonuniform List<scalar> 4(0.000247985 9.00069e-05 9.00069e-05 0.000256046);
    }
    Table_master
    {
        Cmu             0.09;
        kappa           0.41;
        E               9.8;
        type            epsilonWallFunction;
        value           nonuniform List<scalar> 9(1.09383e-05 7.66193e-06 6.42057e-06 5.43328e-06 4.69381e-06 4.48483e-06 5.6754e-06 1.11956e-05 3.66288e-05);
    }
    Table_slave
    {
        Cmu             0.09;
        kappa           0.41;
        E               9.8;
        type            epsilonWallFunction;
        value           nonuniform List<scalar> 9(0.000103318 0.000112748 0.000128135 0.000150396 0.000181651 0.000228381 0.000293117 0.0003307 0.000338568);
    }
    inlet
    {
        type            turbulentMixingLengthDissipationRateInlet;
        mixingLength    0.01;
        phi             phi;
        k               k;
        value           uniform 0.000101881;
    }
    outlet
    {
        type            zeroGradient;
    }
}


// ************************************************************************* //
