/*--------------------------------*- C++ -*----------------------------------*\
  =========                 |
  \\      /  F ield         | OpenFOAM: The Open Source CFD Toolbox
   \\    /   O peration     | Website:  https://openfoam.org
    \\  /    A nd           | Version:  6
     \\/     M anipulation  |
\*---------------------------------------------------------------------------*/
FoamFile
{
    version     2.0;
    format      ascii;
    class       volScalarField;
    location    "100";
    object      nut;
}
// * * * * * * * * * * * * * * * * * * * * * * * * * * * * * * * * * * * * * //

dimensions      [0 2 -1 0 0 0 0];

internalField   nonuniform List<scalar> 
459
(
0.000723404
0.00074457
0.000692849
0.000718818
0.000745701
0.000770677
0.000793956
0.000816227
0.000838479
0.000860491
0.000877625
0.000887952
0.000889506
0.000880561
0.00085716
0.000458682
0.000574743
0.000495761
0.000457478
0.000423318
0.000380592
0.000343738
0.000315645
0.000295326
0.000279671
0.000266207
0.0002536
0.000241182
0.000230167
0.000240493
0.000367105
0.000495845
0.000478609
0.000402038
0.00121434
0.00209277
0.0015811
0.00202778
0.00220143
0.00238301
0.00257075
0.00274835
0.00289217
0.00298824
0.00303804
0.00300851
0.00284506
0.00246113
0.00176423
0.00088823
0.000633569
0.000588388
0.00203597
0.00157792
0.00126789
0.0010245
0.000852871
0.00064556
0.000668829
0.000643662
0.000609154
0.000572559
0.000531623
0.000486271
0.000443318
0.000531863
0.000859946
0.00121445
0.00121966
0.00046924
0.00164254
0.00336304
0.00167369
0.00287759
0.00320973
0.00338526
0.0035327
0.00365484
0.00374783
0.00380887
0.00383347
0.00378711
0.00361573
0.00324109
0.00259151
0.0017232
0.000897748
0.000761987
0.00202381
0.00157403
0.00117757
0.000905249
0.000679272
0.000313682
0.000278535
0.000262583
0.000248372
0.00023658
0.000233087
0.000252245
0.000316443
0.000469693
0.00119516
0.0015503
0.00111672
0.000577471
0.0020502
0.00499114
0.00180299
0.00310353
0.00373961
0.00389686
0.0039921
0.00406815
0.00413318
0.00418637
0.00423673
0.00426655
0.00423207
0.0040505
0.00359956
0.00277564
0.00168592
0.000904928
0.00145799
0.00168822
0.0014051
0.00119087
0.000999802
0.000809965
0.000663472
0.000683091
0.000712872
0.000751996
0.000800867
0.00086436
0.000939455
0.00097805
0.000985801
0.00126703
0.00150931
0.00177256
0.000902165
0.00243264
0.00681962
0.00231014
0.00288079
0.00391797
0.00411046
0.00417516
0.00421998
0.00426554
0.00431971
0.00440395
0.0045421
0.00472233
0.00490075
0.00499534
0.00490372
0.0045525
0.00392003
0.00317534
0.00287774
0.00270374
0.00253504
0.0024079
0.00230849
0.00225113
0.00227431
0.00237404
0.00254058
0.00276159
0.00302628
0.00330528
0.00345552
0.00347162
0.0033588
0.00302188
0.00260231
0.00182044
0.000910689
0.000798892
0.000894223
0.00279471
0.00852514
0.00348761
0.00256507
0.00367777
0.00405857
0.00417953
0.00422456
0.00423262
0.00423045
0.0042775
0.00442382
0.00467391
0.00501334
0.00537981
0.00565184
0.00568142
0.0053882
0.0048583
0.00430344
0.00384953
0.0035155
0.0032478
0.00300053
0.00277925
0.00263542
0.00261029
0.00270793
0.00291104
0.00318341
0.00347711
0.00370965
0.00381822
0.00383164
0.00371366
0.00331327
0.00272203
0.00191266
0.0017233
0.000954877
0.00313941
0.00981719
0.00572792
0.00304161
0.00281017
0.00335055
0.00383504
0.00412023
0.00421798
0.00410155
0.00405414
0.00410854
0.00427028
0.0045556
0.00494863
0.00535898
0.0056289
0.00562701
0.00535188
0.00493757
0.00453428
0.00419456
0.00388598
0.00356201
0.00321602
0.00290219
0.0027074
0.00269365
0.00286524
0.00315317
0.00346242
0.00370899
0.00386605
0.0039896
0.0041757
0.0041161
0.00363811
0.00307119
0.00246908
0.00118976
0.00322686
0.0100789
0.00761372
0.00554023
0.00400299
0.00335961
0.00349409
0.00387552
0.00412127
0.00398018
0.00385386
0.00380273
0.00383
0.00394465
0.00416426
0.00448159
0.00481214
0.00501496
0.0050075
0.00483454
0.00460364
0.00438051
0.00416395
0.00392054
0.00363254
0.00330876
0.00299914
0.00282246
0.00291099
0.00318866
0.00350853
0.00374553
0.0038794
0.00401273
0.0043111
0.00479016
0.00502775
0.00475677
0.00441428
0.00136695
0.00314133
0.0037818
0.00413612
0.00420449
0.00397284
0.00363318
0.00338792
0.00328445
0.00326487
0.00327491
0.00329523
0.00331906
0.00334649
0.00338552
0.00345318
0.00356945
0.0037339
0.00390224
0.00401063
0.00403333
0.00399334
0.00392418
0.00384254
0.00374674
0.00363189
0.00350078
0.00334149
0.00307423
0.00300719
0.00321589
0.00353005
0.00372893
0.00368057
0.00338259
0.00297358
0.00262884
0.00235718
0.00213824
0.00194026
0.00133939
0.00230437
0.00335099
0.00364837
0.0036062
0.00347428
0.00334777
0.00324468
0.0031612
0.00309499
0.00303819
0.00298478
0.00293302
0.00288694
0.00285604
0.00285126
0.00287597
0.00291989
0.00296596
0.00300227
0.00302529
0.00303623
0.00303758
0.00303356
0.00303331
0.00304569
0.00306135
0.00307115
0.00310669
0.00339158
0.00386048
0.00441216
0.00484311
0.00491006
0.00454451
0.00399513
0.00356028
0.00320979
0.00127571
0.00220854
0.00359947
0.00379118
0.00371225
0.00356686
0.003404
0.00324663
0.00310173
0.00295137
0.0027918
0.00263462
0.00248678
0.00235291
0.00223681
0.0021422
0.00207213
0.00202742
0.00200582
0.00200278
0.00201305
0.0020322
0.00205777
0.00209079
0.00213644
0.00220595
0.0023163
0.00246257
0.00260376
0.00272468
0.00290586
0.00340982
0.00418679
0.00456869
0.00451475
0.00423471
0.00391945
0.00326179
0.00129686
0.00184141
0.00196103
0.00206594
0.00218166
0.00207639
0.0019163
0.00178698
0.00166851
0.00155948
0.00145838
0.00136812
0.00128738
0.00121245
0.00114142
0.00107346
0.00100851
0.000947032
0.000889798
0.000837559
0.000790787
0.000749539
0.000713504
0.00068215
0.000654894
0.000631261
0.000611234
0.000595398
0.000584928
0.00058134
0.000583991
0.000589308
0.000605412
0.000662972
0.000787488
0.000983808
0.00117049
0.00125738
0.00122301
0.00117804
0.00109062
)
;

boundaryField
{
    floor
    {
        type            nutkWallFunction;
        Cmu             0.09;
        kappa           0.41;
        E               9.8;
        value           nonuniform List<scalar> 
29
(
0.000103769
5.44069e-05
6.91769e-05
5.91851e-05
5.42716e-05
4.98392e-05
4.42275e-05
3.9323e-05
3.55383e-05
3.27717e-05
3.06222e-05
2.87602e-05
2.70054e-05
2.52655e-05
2.37104e-05
2.51458e-05
4.23768e-05
5.9167e-05
5.69649e-05
4.70224e-05
4.70223e-05
5.57684e-05
6.95306e-05
0.000109117
0.000103769
5.44068e-05
7.09155e-05
9.23021e-05
0.000109475
)
;
    }
    ceiling
    {
        type            nutkWallFunction;
        Cmu             0.09;
        kappa           0.41;
        E               9.8;
        value           nonuniform List<scalar> 
43
(
0.000216065
0.000229168
0.00024059
0.000253145
0.000241759
0.00022431
0.0002101
0.000196983
0.000184823
0.000173461
0.000163246
0.000154043
0.000145445
0.000137239
0.000129334
0.000121725
0.000114472
0.00010767
0.000101417
9.57796e-05
9.07752e-05
8.63764e-05
8.25273e-05
7.91639e-05
7.62339e-05
7.374e-05
7.17607e-05
7.0447e-05
6.99914e-05
7.03098e-05
7.09568e-05
7.29675e-05
8.01296e-05
9.53938e-05
0.00011887
0.000140669
0.000150659
0.000146693
0.00014149
0.00013134
0.000354856
0.000420803
0.000255992
)
;
    }
    sWall
    {
        type            nutkWallFunction;
        Cmu             0.09;
        kappa           0.41;
        E               9.8;
        value           uniform 0.00021612;
    }
    nWall
    {
        type            nutkWallFunction;
        Cmu             0.09;
        kappa           0.41;
        E               9.8;
        value           nonuniform List<scalar> 6(0.000108196 0.00011539 0.000142809 0.000152664 0.000155092 0.000131349);
    }
    sideWalls
    {
        type            empty;
    }
    glass1
    {
        type            nutkWallFunction;
        Cmu             0.09;
        kappa           0.41;
        E               9.8;
        value           nonuniform List<scalar> 9(8.75654e-05 0.000145811 0.000194356 0.00023927 0.000280532 0.000318963 0.000355069 0.000364172 0.000355294);
    }
    glass2
    {
        type            nutkWallFunction;
        Cmu             0.09;
        kappa           0.41;
        E               9.8;
        value           nonuniform List<scalar> 2(0.000163172 0.00016003);
    }
    sun
    {
        type            nutkWallFunction;
        Cmu             0.09;
        kappa           0.41;
        E               9.8;
        value           nonuniform List<scalar> 
14
(
8.75929e-05
9.01758e-05
8.38496e-05
8.70323e-05
9.03126e-05
9.33477e-05
9.61661e-05
9.88533e-05
0.00010153
0.000104169
0.000106218
0.00010745
0.000107635
0.000106567
)
;
    }
    heatsource1
    {
        type            nutkWallFunction;
        Cmu             0.09;
        kappa           0.41;
        E               9.8;
        value           nonuniform List<scalar> 3(0.000110127 9.67437e-05 0.000108192);
    }
    heatsource2
    {
        type            nutkWallFunction;
        Cmu             0.09;
        kappa           0.41;
        E               9.8;
        value           nonuniform List<scalar> 4(0.000107481 7.65321e-05 7.65321e-05 0.000108615);
    }
    Table_master
    {
        type            nutkWallFunction;
        Cmu             0.09;
        kappa           0.41;
        E               9.8;
        value           nonuniform List<scalar> 9(3.5276e-05 3.04791e-05 2.8275e-05 2.62945e-05 2.46368e-05 2.41369e-05 2.68108e-05 3.56185e-05 5.58183e-05);
    }
    Table_slave
    {
        type            nutkWallFunction;
        Cmu             0.09;
        kappa           0.41;
        E               9.8;
        value           nonuniform List<scalar> 9(8.0225e-05 8.26409e-05 8.62928e-05 9.10634e-05 9.69822e-05 0.000104613 0.000113542 0.0001181 0.000119008);
    }
    inlet
    {
        type            calculated;
        value           uniform 0.000100623;
    }
    outlet
    {
        type            calculated;
        value           nonuniform List<scalar> 2(0.00184141 0.00196103);
    }
}


// ************************************************************************* //
