/*--------------------------------*- C++ -*----------------------------------*\
  =========                 |
  \\      /  F ield         | OpenFOAM: The Open Source CFD Toolbox
   \\    /   O peration     | Website:  https://openfoam.org
    \\  /    A nd           | Version:  6
     \\/     M anipulation  |
\*---------------------------------------------------------------------------*/
FoamFile
{
    version     2.0;
    format      ascii;
    class       surfaceScalarField;
    location    "100";
    object      phi;
}
// * * * * * * * * * * * * * * * * * * * * * * * * * * * * * * * * * * * * * //

dimensions      [1 0 -1 0 0 0 0];

internalField   nonuniform List<scalar> 
852
(
-0.00242764
0.00249042
-0.00261218
0.000184638
-0.00290253
0.000290441
-0.0032428
0.000340357
-0.00356268
0.000319967
-0.00382844
0.000265846
-0.00401632
0.000187958
-0.00410422
8.79854e-05
-0.00406948
-3.4667e-05
-0.00388759
-0.000181814
-0.00353842
-0.000349088
-0.00301198
-0.000526367
-0.00229214
-0.000719771
-0.00130993
-0.000982135
-0.0013078
-0.000366753
0.000370384
-0.000210005
-0.000156691
-1.18876e-05
-0.000198073
0.000192878
-0.000204733
0.00032386
-0.000130953
0.0002655
5.83919e-05
0.00012554
0.000139991
7.40349e-05
5.15304e-05
5.66284e-05
1.74275e-05
5.34235e-05
3.22505e-06
5.96721e-05
-6.22936e-06
6.7702e-05
-8.01014e-06
5.48674e-05
1.28567e-05
-1.56605e-05
7.05506e-05
-8.02843e-05
6.46509e-05
0.000173011
-0.000253232
0.000564196
-0.000391124
0.000729488
-0.000165244
0.000733562
-0.00177885
0.00443194
-0.00234498
0.000750865
-0.00281239
0.000757936
-0.00320766
0.00073571
-0.00355414
0.000666532
-0.00384086
0.000552654
-0.00405133
0.000398501
-0.00416719
0.000203925
-0.0041698
-3.19766e-05
-0.00404287
-0.000308671
-0.00377068
-0.000621198
-0.00334272
-0.000954263
-0.00276192
-0.00130049
-0.00209541
-0.00164857
-0.00149347
-0.00190967
0.000259494
-0.00175295
0.000259525
-3.45827e-05
0.000414069
-0.000369509
0.000178272
-0.000479914
-8.76433e-05
-0.000410664
-0.000273964
-0.00021131
-0.000330291
-0.00011176
-4.11465e-05
-0.000150927
0.000179174
-0.000142014
4.26288e-05
-0.000139519
1.49386e-05
-0.000137778
1.48824e-06
-0.000134986
-9.0167e-06
-0.000128417
-1.45728e-05
-0.000123988
8.44164e-06
-0.000141636
8.82299e-05
-0.000186603
0.000109685
-3.40854e-05
-0.000405625
0.000171864
-0.000596988
0.000175597
-0.000168914
0.000920153
-0.00133393
0.00600769
-0.00205893
0.00147595
-0.00259379
0.00129289
-0.00300976
0.00115176
-0.00337184
0.0010287
-0.00367987
0.000860765
-0.00392165
0.000640358
-0.00408113
0.000363488
-0.004142
2.89748e-05
-0.00409291
-0.000357682
-0.00393242
-0.000781611
-0.00367062
-0.00121599
-0.00333722
-0.00163382
-0.0029861
-0.00199962
-0.00266564
-0.00223007
-0.00221552
-0.00220299
-0.00195593
-0.000964274
0.00139074
-0.00122192
0.000435951
-0.00132857
1.90332e-05
-0.00132148
-0.000281013
-0.00116791
-0.000483821
-0.000580337
-0.000628666
-0.000400985
-0.000358193
-0.000343095
-0.000341449
-0.000350305
-0.00036471
-0.000356085
-0.000267648
-0.000157723
-2.62465e-05
-0.000536948
-0.000737811
0.000114666
-0.00114854
0.000241875
-0.000212682
-0.00101298
0.00732724
-0.0017862
0.00224926
-0.00227646
0.00178324
-0.00266458
0.00153998
-0.00300762
0.00137183
-0.00330802
0.00116125
-0.00355771
0.000890129
-0.00374298
0.00054884
-0.00384793
0.000134016
-0.00386224
-0.00034329
-0.00379935
-0.000844414
-0.00369649
-0.00131877
-0.00360653
-0.00172369
-0.00358564
-0.00202043
-0.00365872
-0.00215691
-0.00380347
-0.00205818
-0.00427217
-0.00148716
-0.00367147
-0.000588316
-0.00258921
0.000308535
-0.00246331
0.000310113
-0.00246272
1.85058e-05
-0.00249933
-0.000244338
-0.00256121
-0.000421871
-0.00273514
-0.000454659
-0.00240465
-0.000330558
-0.00207599
-0.000328726
-0.0016785
-0.000397548
-0.00116731
-0.000511247
-0.000511952
-0.000655407
0.000279586
-0.000791581
0.00114582
-0.000866275
0.00197587
-0.000830089
0.00265382
-0.000677984
0.00250298
-0.000385991
0.00232492
0.000292843
0.00169911
0.000867779
0.00150177
-0.000762018
0.00845078
-0.00153091
0.00301825
-0.00187621
0.00212863
-0.00218655
0.0018504
-0.00246383
0.0016492
-0.00270545
0.00140296
-0.00290868
0.00109345
-0.00306477
0.000705013
-0.00315951
0.000228852
-0.00317734
-0.000325373
-0.00313762
-0.000884036
-0.00309253
-0.00136377
-0.00309116
-0.00172497
-0.00316318
-0.00194832
-0.00331094
-0.00200907
-0.00351723
-0.0018518
-0.0036179
-0.00138641
-0.00345983
-0.00074631
-0.00293153
-0.000219691
-0.00252968
-9.16617e-05
-0.00233091
-0.000180187
-0.00226094
-0.000314236
-0.00225666
-0.000426072
-0.00224163
-0.000469611
-0.00208618
-0.000485923
-0.00185795
-0.000556866
-0.0015587
-0.0006967
-0.00117108
-0.000898759
-0.000685489
-0.00114089
-9.48405e-05
-0.00138212
0.000572856
-0.00153385
0.00126077
-0.00151789
0.00187869
-0.00129578
0.00225671
-0.000763893
0.00240362
0.000146055
0.00227352
0.000997987
0.00236826
0.00140715
0.000854954
0.00151322
-0.000604565
0.00145943
-0.000554308
-0.000690375
0.00955065
-0.00139639
0.00372436
-0.00142126
0.0021536
-0.00158998
0.00201922
-0.00177359
0.00183291
-0.00191612
0.00154559
-0.00202065
0.00119808
-0.00208959
0.000774043
-0.0021154
0.000254767
-0.002082
-0.000358673
-0.00202133
-0.00094461
-0.00198849
-0.00139651
-0.00201686
-0.00169649
-0.00211524
-0.00184985
-0.00227032
-0.00185391
-0.00243705
-0.00168498
-0.00249388
-0.00132949
-0.00236667
-0.000873439
-0.00208738
-0.0004989
-0.00185192
-0.000327045
-0.00172517
-0.000306867
-0.00168556
-0.000353763
-0.00169517
-0.000416389
-0.00169514
-0.000469558
-0.00164558
-0.000535393
-0.0015472
-0.00065515
-0.00139552
-0.000848278
-0.0011798
-0.00111438
-0.000898684
-0.00142189
-0.000561684
-0.001719
-0.000159883
-0.00193554
0.000319927
-0.00199758
0.000847546
-0.00182328
0.00139959
-0.00131582
0.00187357
-0.000327807
0.00216376
0.00070791
0.00234373
0.00122728
0.00243461
0.00142245
0.00230429
0.00158987
0.00180918
-0.000944362
0.0109475
-0.00118565
0.00396574
-0.000691458
0.00165951
-0.000715771
0.00204363
-0.000855226
0.00197246
-0.000911233
0.00160169
-0.000890352
0.00117729
-0.000823519
0.000707309
-0.000710663
0.00014201
-0.000590576
-0.000478658
-0.000515713
-0.00101937
-0.000516301
-0.00139582
-0.000597165
-0.00161553
-0.000745697
-0.00170121
-0.000933473
-0.00166603
-0.0011088
-0.00150955
-0.0011995
-0.0012387
-0.00116515
-0.000907697
-0.00104592
-0.000618048
-0.000933189
-0.000439694
-0.000877549
-0.000362428
-0.000882521
-0.000348712
-0.000929562
-0.000369268
-0.000989634
-0.000409402
-0.00104605
-0.00047889
-0.00109583
-0.000605269
-0.00113283
-0.000811172
-0.00114408
-0.00110302
-0.00112745
-0.00143842
-0.00108525
-0.00176108
-0.00101025
-0.00201042
-0.00087308
-0.00213463
-0.000627391
-0.00206886
-0.000212267
-0.00173083
0.000447891
-0.000987839
0.0011164
3.95077e-05
0.00168127
0.000662519
0.00232074
0.000783094
0.00247409
0.00143664
0.00434268
0.00171933
0.00973257
0.00208402
0.00360114
0.00177265
0.00197098
0.00136154
0.00245483
0.00100278
0.00233132
0.00084535
0.00175922
0.000879878
0.00114286
0.00102552
0.000561764
0.00123241
-6.47786e-05
0.00137702
-0.000623167
0.00138074
-0.00102299
0.00126996
-0.00128494
0.0010804
-0.00142586
0.000840091
-0.0014608
0.000577538
-0.00140337
0.000333505
-0.00126541
0.000157296
-0.00106239
7.67965e-05
-0.000827097
6.90197e-05
-0.000610175
8.07807e-05
-0.000451364
7.34437e-05
-0.000355004
3.26198e-05
-0.000307804
-4.10462e-05
-0.000295518
-0.0001413
-0.000309062
-0.000270125
-0.000349976
-0.000440914
-0.000434384
-0.000663875
-0.000588108
-0.000927213
-0.000839572
-0.00122612
-0.0011394
-0.00155602
-0.00143106
-0.00190808
-0.00165823
-0.0022473
-0.00179529
-0.00250153
-0.0018145
-0.00257727
-0.00165496
-0.00230717
-0.00125783
-0.00159869
-0.000668843
-0.000841171
-9.48564e-05
-0.000192218
0.000134277
-0.000249546
0.00149416
0.00438549
0.0102868
0.0138811
0.0108192
0.00503294
0.00871836
0.00455579
0.00710099
0.00394879
0.00598363
0.00287668
0.00527807
0.00184852
0.00483823
0.00100171
0.00444971
0.00032384
0.00403899
-0.000212344
0.00363241
-0.000616309
0.0032325
-0.000884917
0.00283901
-0.00103227
0.0024562
-0.00107787
0.00209377
-0.00104084
0.00176858
-0.000940117
0.00150277
-0.000796473
0.00131089
-0.000635112
0.00118485
-0.000484034
0.00109781
-0.000364224
0.00102411
-0.000281206
0.000947248
-0.000230846
0.000858157
-0.000206337
0.000750535
-0.00020135
0.000612988
-0.000212336
0.00041846
-0.00023976
0.000119289
-0.000288834
-0.000321662
-0.000398511
-0.000897567
-0.000563386
-0.00159211
-0.000736395
-0.0024302
-0.000820017
-0.00343315
-0.000792198
-0.00457645
-0.000671063
-0.00578699
-0.000444284
-0.00693189
-0.00011279
-0.00795296
0.000352354
-0.00898474
0.000937043
-0.0101827
0.00133238
-0.00884217
0.000153721
-0.0041347
0.00529843
0.00431011
0.0050567
0.00479758
0.00549154
0.00351403
0.00571972
0.00264859
0.00574903
0.0018193
0.00568464
0.0010662
0.00553562
0.000472956
0.00528456
3.88187e-05
0.00493944
-0.000271094
0.00453455
-0.000479926
0.00410414
-0.000601758
0.0036758
-0.000649425
0.00327166
-0.000636588
0.00290946
-0.000577812
0.00260227
-0.000489186
0.00235582
-0.000388553
0.00216523
-0.00029334
0.00201694
-0.000215828
0.00189583
-0.000159993
0.00178899
-0.000123907
0.00168617
-0.000103413
0.00157886
-9.39388e-05
0.00145794
-9.13151e-05
0.0013104
-9.21273e-05
0.0011172
-9.55229e-05
0.000829251
-0.000110447
0.000408474
-0.00014248
-0.00011559
-0.000212163
-0.000645308
-0.000290156
-0.00111678
-0.000320578
-0.00152154
-0.000266167
-0.0018838
-8.18925e-05
-0.00224607
0.000249573
-0.00253364
0.00064001
-0.00242183
0.000825313
-0.00142891
0.000339527
-0.000144469
-0.00113071
-0.00420035
-0.000152692
0.00447238
0.0019416
0.00270334
0.00319881
0.00225689
0.00411169
0.00173579
0.0047668
0.00116428
0.00514168
0.000691407
0.00527739
0.000337335
0.00523237
8.39323e-05
0.00504841
-8.70434e-05
0.00476746
-0.000198877
0.00443035
-0.000264555
0.00407281
-0.000291786
0.00372428
-0.000287957
0.00340726
-0.000260683
0.00313625
-0.000218081
0.00291662
-0.000168816
0.00274455
-0.000121164
0.00260992
-8.10994e-05
0.00250103
-5.09942e-05
0.0024075
-3.02731e-05
0.00232113
-1.694e-05
0.00223582
-8.52443e-06
0.00214706
-2.45121e-06
0.002051
4.03262e-06
0.00194213
1.34595e-05
0.00180574
2.60521e-05
0.00162364
3.97466e-05
0.00136846
4.31682e-05
0.00105469
2.37928e-05
0.000752857
-1.85429e-05
0.000550487
-6.35584e-05
0.000487593
-1.87525e-05
0.000591268
0.000146077
0.000876422
0.000354968
0.00132784
0.000373974
0.00170235
-3.49369e-05
0.00146025
-0.000888557
-0.00265365
-0.00697547
-0.00876013
-0.00428089
-0.00157617
0.000679957
0.00241373
0.00357543
0.00426389
0.00459801
0.00467852
0.00458788
0.00438524
0.00411677
0.00382093
0.00352878
0.0032638
0.00304131
0.00286803
0.00274236
0.00265676
0.00260131
0.00256668
0.00254552
0.00253295
0.00252668
0.00252717
0.00253741
0.00256063
0.00259802
0.0026394
0.00266208
0.00264337
0.00258111
0.00256547
0.00271588
0.00307554
0.00345426
0.00342427
0.00254085
)
;

boundaryField
{
    floor
    {
        type            calculated;
        value           nonuniform List<scalar> 
29
(
0
0
0
0
0
0
0
0
0
0
0
0
0
0
0
0
0
0
0
0
-4.0421e-06
-1.09589e-05
-1.56585e-05
-1.5242e-05
-2.05726e-06
-3.5657e-06
-9.04595e-06
-1.23545e-05
-1.23249e-05
)
;
    }
    ceiling
    {
        type            calculated;
        value           nonuniform List<scalar> 
43
(
-6.83448e-06
-7.07556e-06
-6.80607e-06
-1.31219e-06
8.44304e-07
2.09829e-06
2.6652e-06
3.03744e-06
3.307e-06
3.51382e-06
3.69077e-06
3.85425e-06
4.00794e-06
4.15222e-06
4.28521e-06
4.40296e-06
4.49972e-06
4.56865e-06
4.60307e-06
4.5977e-06
4.54938e-06
4.45691e-06
4.32039e-06
4.14035e-06
3.91678e-06
3.64694e-06
3.32317e-06
2.9324e-06
2.45788e-06
1.89357e-06
1.22804e-06
3.29172e-07
-1.01106e-06
-2.62896e-06
-3.81167e-06
-4.28262e-06
-4.47675e-06
-4.78059e-06
-5.01821e-06
-4.74895e-06
1.0049e-05
6.95326e-06
-9.54843e-06
)
;
    }
    sWall
    {
        type            calculated;
        value           uniform -0.000213783;
    }
    nWall
    {
        type            calculated;
        value           nonuniform List<scalar> 6(-5.035e-05 -5.90834e-05 -5.92929e-05 -7.87676e-05 -8.63938e-05 -0.000107979);
    }
    sideWalls
    {
        type            empty;
        value           nonuniform 0();
    }
    glass1
    {
        type            calculated;
        value           nonuniform List<scalar> 9(-6.26943e-05 -0.000162573 -0.000241718 -0.000306479 -0.000361428 -0.000409407 -0.000452424 -0.00050428 -0.0005642);
    }
    glass2
    {
        type            calculated;
        value           nonuniform List<scalar> 2(-0.000292233 -0.000321898);
    }
    sun
    {
        type            calculated;
        value           uniform 0;
    }
    heatsource1
    {
        type            calculated;
        value           nonuniform List<scalar> 3(2.04311e-07 2.04742e-07 2.05094e-07);
    }
    heatsource2
    {
        type            calculated;
        value           nonuniform List<scalar> 4(5.10967e-08 5.13053e-08 0 0);
    }
    Table_master
    {
        type            calculated;
        value           nonuniform List<scalar> 9(-1.54126e-07 -1.54233e-07 -1.54262e-07 -1.54276e-07 -1.5428e-07 -1.54276e-07 -1.54267e-07 -1.54243e-07 -1.54193e-07);
    }
    Table_slave
    {
        type            calculated;
        value           nonuniform List<scalar> 9(1.53057e-07 1.53167e-07 1.5327e-07 1.53393e-07 1.53552e-07 1.53666e-07 1.53541e-07 1.53264e-07 1.53041e-07);
    }
    inlet
    {
        type            calculated;
        value           uniform -0.00457557;
    }
    outlet
    {
        type            calculated;
        value           nonuniform List<scalar> 2(0.00719614 0.00179179);
    }
}


// ************************************************************************* //
