// -*- C++ -*-
// File generated by PyFoam - sorry for the ugliness

FoamFile
{
 version 2.0;
 format ascii;
 class volScalarField;
 location "100";
 object T;
}

dimensions [ 0 0 0 1 0 0 0 ];

internalField nonuniform List<scalar> 459
(
  303.364
  303.041
  303.034
  303.039
  303.043
  303.046
  303.048
  303.049
  303.05
  303.05
  303.047
  303.041
  303.032
  303.02
  303.007
  302.745
  302.743
  302.754
  302.764
  302.759
  302.749
  302.731
  302.704
  302.68
  302.659
  302.643
  302.631
  302.624
  302.621
  302.621
  302.628
  302.63
  302.627
  302.642
  303.594
  303.094
  303.066
  303.076
  303.086
  303.094
  303.102
  303.107
  303.11
  303.111
  303.106
  303.094
  303.073
  303.044
  303.006
  302.969
  302.904
  302.745
  302.756
  302.765
  302.767
  302.752
  302.712
  302.662
  302.622
  302.597
  302.581
  302.569
  302.563
  302.562
  302.57
  302.592
  302.656
  302.646
  302.633
  302.644
  303.81
  303.159
  303.105
  303.12
  303.139
  303.156
  303.171
  303.182
  303.19
  303.193
  303.188
  303.171
  303.14
  303.095
  303.039
  302.978
  302.931
  302.783
  302.793
  302.801
  302.802
  302.785
  302.743
  302.599
  302.561
  302.549
  302.542
  302.538
  302.538
  302.545
  302.565
  302.616
  302.743
  302.682
  302.678
  302.681
  304.008
  303.235
  303.146
  303.164
  303.192
  303.22
  303.246
  303.268
  303.284
  303.292
  303.29
  303.272
  303.236
  303.181
  303.109
  303.025
  302.94
  302.878
  302.845
  302.871
  302.889
  302.896
  302.896
  302.892
  302.891
  302.889
  302.889
  302.889
  302.888
  302.886
  302.883
  302.879
  302.874
  302.86
  302.832
  302.803
  302.79
  304.191
  303.32
  303.188
  303.2
  303.237
  303.275
  303.313
  303.347
  303.376
  303.394
  303.399
  303.388
  303.357
  303.306
  303.24
  303.163
  303.086
  303.021
  302.977
  302.971
  302.976
  302.973
  302.965
  302.956
  302.948
  302.941
  302.936
  302.93
  302.924
  302.918
  302.911
  302.907
  302.901
  302.889
  302.867
  302.839
  302.811
  302.797
  302.798
  302.851
  304.349
  303.416
  303.243
  303.231
  303.268
  303.312
  303.357
  303.401
  303.442
  303.473
  303.491
  303.49
  303.468
  303.429
  303.373
  303.306
  303.236
  303.174
  303.126
  303.095
  303.074
  303.057
  303.041
  303.024
  303.009
  302.996
  302.982
  302.968
  302.953
  302.94
  302.932
  302.927
  302.921
  302.909
  302.885
  302.857
  302.829
  302.808
  302.797
  302.812
  304.473
  303.566
  303.374
  303.298
  303.303
  303.338
  303.381
  303.427
  303.473
  303.52
  303.551
  303.56
  303.55
  303.522
  303.481
  303.428
  303.369
  303.311
  303.259
  303.217
  303.184
  303.156
  303.131
  303.107
  303.084
  303.061
  303.036
  303.009
  302.983
  302.961
  302.949
  302.944
  302.94
  302.929
  302.904
  302.867
  302.84
  302.819
  302.807
  302.82
  304.687
  303.975
  303.767
  303.587
  303.479
  303.441
  303.448
  303.476
  303.516
  303.566
  303.594
  303.603
  303.596
  303.577
  303.549
  303.513
  303.469
  303.421
  303.373
  303.33
  303.293
  303.259
  303.228
  303.198
  303.169
  303.139
  303.104
  303.061
  303.019
  302.985
  302.967
  302.961
  302.959
  302.954
  302.938
  302.91
  302.874
  302.857
  302.859
  303.004
  304.98
  304.677
  304.473
  304.242
  304.036
  303.884
  303.786
  303.731
  303.704
  303.682
  303.662
  303.642
  303.621
  303.599
  303.575
  303.549
  303.52
  303.487
  303.452
  303.417
  303.383
  303.35
  303.318
  303.288
  303.258
  303.227
  303.189
  303.134
  303.074
  303.022
  302.989
  302.98
  302.985
  302.997
  303.01
  303.022
  303.035
  303.048
  303.063
  303.111
  302.067
  303.102
  303.513
  303.636
  303.666
  303.668
  303.661
  303.651
  303.637
  303.621
  303.602
  303.583
  303.564
  303.545
  303.525
  303.504
  303.482
  303.459
  303.434
  303.409
  303.382
  303.356
  303.329
  303.3
  303.268
  303.229
  303.177
  303.106
  303.038
  303
  302.98
  302.977
  302.986
  302.998
  303.007
  303.009
  302.994
  303.008
  302.184
  303.066
  303.349
  303.477
  303.533
  303.555
  303.561
  303.558
  303.553
  303.546
  303.537
  303.527
  303.517
  303.505
  303.494
  303.481
  303.468
  303.454
  303.439
  303.423
  303.406
  303.388
  303.368
  303.347
  303.323
  303.295
  303.261
  303.216
  303.158
  303.093
  303.031
  302.984
  302.968
  302.972
  302.978
  302.977
  302.968
  302.989
  302.696
  302.647
  302.647
  303.134
  303.328
  303.424
  303.457
  303.471
  303.476
  303.476
  303.474
  303.471
  303.467
  303.463
  303.458
  303.452
  303.445
  303.437
  303.428
  303.419
  303.408
  303.397
  303.386
  303.374
  303.362
  303.349
  303.335
  303.32
  303.303
  303.285
  303.262
  303.232
  303.184
  303.113
  303.039
  302.991
  302.968
  302.956
  302.95
  302.979
)
;

boundaryField
{
  floor
  {
    type wallHeatTransfer;
    Tinf uniform 305.2;
    alphaWall uniform 0.24;
    value nonuniform List<scalar> 29
(
  303.282
  303.22
  303.152
  303.204
  303.236
  303.256
  303.283
  303.304
  303.314
  303.32
  303.325
  303.332
  303.343
  303.358
  303.375
  303.357
  303.202
  303.102
  303.111
  303.18
  303.18
  303.131
  303.098
  303.08
  303.282
  303.22
  303.147
  303.112
  303.158
)
;
  }
  ceiling
  {
    type wallHeatTransfer;
    Tinf uniform 303.2;
    alphaWall uniform 0.24;
    value nonuniform List<scalar> 43
(
  302.731
  302.684
  302.682
  303.138
  303.32
  303.409
  303.438
  303.451
  303.454
  303.453
  303.449
  303.446
  303.442
  303.437
  303.431
  303.424
  303.416
  303.408
  303.399
  303.389
  303.379
  303.369
  303.358
  303.348
  303.336
  303.325
  303.313
  303.3
  303.286
  303.271
  303.252
  303.227
  303.186
  303.125
  303.057
  303.011
  302.99
  302.979
  302.975
  303.002
  304.9
  304.62
  302.245
)
;
  }
  sWall
  {
    type wallHeatTransfer;
    Tinf uniform 315.2;
    alphaWall uniform 0.36;
    value uniform 303.96;
  }
  nWall
  {
    type wallHeatTransfer;
    Tinf uniform 307.2;
    alphaWall uniform 0.36;
    value nonuniform List<scalar> 6
(
  303.599
  303.532
  303.434
  303.566
  303.544
  303.61
)
;
  }
  sideWalls
  {
    type empty;
  }
  glass1
  {
    type wallHeatTransfer;
    Tinf uniform 315.2;
    alphaWall uniform 4.3;
    value nonuniform List<scalar> 9
(
  312.263
  311.274
  310.661
  310.216
  309.889
  309.636
  309.427
  309.48
  309.7
)
;
  }
  glass2
  {
    type wallHeatTransfer;
    Tinf uniform 307.2;
    alphaWall uniform 4.3;
    value nonuniform List<scalar> 2
(
  305.67
  305.725
)
;
  }
  sun
  {
    type wallHeatTransfer;
    Tinf uniform 305.2;
    alphaWall uniform 0.24;
    value nonuniform List<scalar> 14
(
  303.624
  303.341
  303.351
  303.347
  303.342
  303.337
  303.333
  303.328
  303.324
  303.318
  303.312
  303.304
  303.296
  303.288
)
;
  }
  heatsource1
  {
    type fixedGradient;
    gradient uniform 0;
  }
  heatsource2
  {
    type fixedGradient;
    gradient uniform 0;
  }
  Table_master
  {
    type zeroGradient;
  }
  Table_slave
  {
    type zeroGradient;
  }
  inlet
  {
    type fixedValue;
    value uniform 299.15;
  }
  outlet
  {
    type zeroGradient;
  }
} 	// ************************************************************************* //

