// -*- C++ -*-
// File generated by PyFoam - sorry for the ugliness

FoamFile
{
 version 2.0;
 format ascii;
 class volVectorField;
 location "100";
 object U;
}

dimensions [ 0 1 -1 0 0 0 0 ];

internalField nonuniform List<vector> 459
(
  (0.0970386 0.0667989 0)
  (-0.135017 0.00246072 0)
  (-0.117716 0.0064554 0)
  (-0.132638 0.00748203 0)
  (-0.147213 0.00650118 0)
  (-0.160069 0.0046429 0)
  (-0.170028 0.00218606 0)
  (-0.176129 -0.000823068 0)
  (-0.177415 -0.00442187 0)
  (-0.172854 -0.00875754 0)
  (-0.161139 -0.0139771 0)
  (-0.140749 -0.0201617 0)
  (-0.111374 -0.0279941 0)
  (-0.0798228 -0.038864 0)
  (-0.0705471 -0.0513597 0)
  (0.0423041 0.0082183 0)
  (-0.0245653 -0.00321962 0)
  (-0.00565371 -0.00722869 0)
  (0.00292605 -0.00875241 0)
  (0.00946556 -0.00713033 0)
  (0.0142982 -0.00273982 0)
  (0.0109947 0.000163724 0)
  (0.00478473 -0.000558597 0)
  (0.00248685 -0.00103586 0)
  (0.0020921 -0.000988692 0)
  (0.00231143 -0.000834942 0)
  (0.00269971 -0.000615726 0)
  (0.00272684 2.84881e-05 0)
  (0.000900369 0.00202107 0)
  (-0.00286834 0.00308371 0)
  (0.0036072 -0.00940216 0)
  (0.0143491 -0.0198991 0)
  (0.0336443 -0.0123347 0)
  (-0.0110379 0.0116642 0)
  (0.296085 0.145744 0)
  (-0.158639 0.0190831 0)
  (-0.108971 0.0223358 0)
  (-0.130087 0.0233903 0)
  (-0.146234 0.0216593 0)
  (-0.160099 0.0182164 0)
  (-0.170972 0.0133789 0)
  (-0.178152 0.0071554 0)
  (-0.180803 -0.000557865 0)
  (-0.178078 -0.00987744 0)
  (-0.169244 -0.0205784 0)
  (-0.153522 -0.0323027 0)
  (-0.131024 -0.0452851 0)
  (-0.104147 -0.0603031 0)
  (-0.0778271 -0.0751523 0)
  (-0.0554729 -0.0813896 0)
  (0.0437655 0.0113224 0)
  (0.100151 0.0204935 0)
  (-0.0287667 0.0037844 0)
  (-0.0195956 -0.00432633 0)
  (-0.0207216 -0.00878039 0)
  (-0.0172213 -0.00897453 0)
  (-0.00543266 0.000957763 0)
  (-0.000376891 0.00815763 0)
  (-0.00638885 0.00365537 0)
  (-0.00641308 0.00249669 0)
  (-0.00607796 0.00192556 0)
  (-0.00591311 0.00144035 0)
  (-0.00560893 0.00108273 0)
  (-0.00515423 0.00162591 0)
  (-0.00691682 0.00351887 0)
  (-0.0116625 0.000814741 0)
  (0.00527607 -0.0177436 0)
  (1.20454e-05 -0.0231516 0)
  (0.0187587 -0.00977902 0)
  (-0.0828691 0.0352901 0)
  (0.462969 0.223444 0)
  (-0.203807 0.0471971 0)
  (-0.0921245 0.0437445 0)
  (-0.121158 0.0403771 0)
  (-0.137962 0.0360965 0)
  (-0.15261 0.0298215 0)
  (-0.164603 0.0214991 0)
  (-0.173421 0.0110718 0)
  (-0.178311 -0.00148758 0)
  (-0.178298 -0.0160152 0)
  (-0.173414 -0.0322825 0)
  (-0.16381 -0.0493941 0)
  (-0.150424 -0.066475 0)
  (-0.135011 -0.0822729 0)
  (-0.119803 -0.0930442 0)
  (-0.108929 -0.0924382 0)
  (-0.111314 -0.0789494 0)
  (0.0366445 0.0482863 0)
  (-0.0584501 0.0157448 0)
  (-0.0554647 0.00041084 0)
  (-0.0580924 -0.0117249 0)
  (-0.0557362 -0.0188529 0)
  (-0.0476374 -0.0190546 0)
  (-0.00702606 0.00250548 0)
  (-0.0162904 -0.00317845 0)
  (-0.0151641 -0.00449825 0)
  (-0.0147303 -0.00528768 0)
  (-0.0148811 -0.00584854 0)
  (-0.0150057 -0.00573278 0)
  (-0.0152394 -0.00397628 0)
  (-0.0181386 -0.000268703 0)
  (-0.0245219 0.00199146 0)
  (0.0312989 -0.0148553 0)
  (-0.0150642 7.96668e-05 0)
  (-0.0518331 0.00714656 0)
  (-0.134986 0.0125942 0)
  (0.599132 0.288776 0)
  (-0.25085 0.080707 0)
  (-0.0691857 0.0663655 0)
  (-0.106837 0.058055 0)
  (-0.122665 0.0517377 0)
  (-0.136636 0.043463 0)
  (-0.14864 0.0326808 0)
  (-0.158224 0.0191223 0)
  (-0.164674 0.00271056 0)
  (-0.166896 -0.0161454 0)
  (-0.165176 -0.0363485 0)
  (-0.161023 -0.0562375 0)
  (-0.156264 -0.0740662 0)
  (-0.153091 -0.0877931 0)
  (-0.154038 -0.0936148 0)
  (-0.163304 -0.0844953 0)
  (-0.181187 -0.0477079 0)
  (-0.173919 0.0285669 0)
  (-0.114886 0.0386592 0)
  (-0.117296 0.0165488 0)
  (-0.106749 -0.000291176 0)
  (-0.106498 -0.0127621 0)
  (-0.110397 -0.0205423 0)
  (-0.11534 -0.0223956 0)
  (-0.111435 -0.0144751 0)
  (-0.097046 -0.0142398 0)
  (-0.0810059 -0.0169357 0)
  (-0.0612785 -0.0211134 0)
  (-0.0370433 -0.0264272 0)
  (-0.00576645 -0.0320293 0)
  (0.0326423 -0.0335752 0)
  (0.0669352 -0.0307397 0)
  (0.0997882 -0.025739 0)
  (0.115082 -0.0177115 0)
  (0.109487 0.00682931 0)
  (0.0901108 0.0246037 0)
  (0.0093522 0.0318703 0)
  (0.70881 0.343095 0)
  (-0.292468 0.115929 0)
  (-0.0434121 0.0857134 0)
  (-0.0875104 0.073481 0)
  (-0.100775 0.0654672 0)
  (-0.111878 0.0555929 0)
  (-0.121611 0.0429334 0)
  (-0.129625 0.0269639 0)
  (-0.135285 0.00752038 0)
  (-0.137297 -0.0147433 0)
  (-0.135822 -0.0375906 0)
  (-0.13344 -0.0582571 0)
  (-0.132094 -0.0748728 0)
  (-0.133524 -0.0862942 0)
  (-0.138864 -0.0912652 0)
  (-0.147907 -0.0875709 0)
  (-0.155791 -0.0701305 0)
  (-0.153848 -0.0334772 0)
  (-0.137262 0.000291143 0)
  (-0.11743 0.00568063 0)
  (-0.103527 -0.0027694 0)
  (-0.0982643 -0.0113184 0)
  (-0.0975465 -0.0175105 0)
  (-0.0975365 -0.0195835 0)
  (-0.0938217 -0.0174939 0)
  (-0.0854579 -0.0194225 0)
  (-0.0739044 -0.0243126 0)
  (-0.0588525 -0.0317483 0)
  (-0.040046 -0.0409467 0)
  (-0.0180346 -0.0500317 0)
  (0.0106877 -0.0552949 0)
  (0.0389272 -0.0529832 0)
  (0.0665173 -0.0429298 0)
  (0.0891311 -0.0227385 0)
  (0.105121 0.0121273 0)
  (0.109017 0.0422381 0)
  (0.087559 0.0625234 0)
  (0.100454 0.0627743 0)
  (0.0590106 0.0394858 0)
  (-0.350686 -0.0331892 0)
  (0.783245 0.391809 0)
  (-0.327626 0.147959 0)
  (-0.0219707 0.0961393 0)
  (-0.0630575 0.0855161 0)
  (-0.0733279 0.0758296 0)
  (-0.0801193 0.064245 0)
  (-0.0854903 0.0501117 0)
  (-0.0896034 0.0324563 0)
  (-0.092052 0.0107242 0)
  (-0.0907981 -0.0144813 0)
  (-0.0875211 -0.0393714 0)
  (-0.0851757 -0.0595947 0)
  (-0.0850725 -0.0737596 0)
  (-0.0880468 -0.0816047 0)
  (-0.0941654 -0.0826499 0)
  (-0.102044 -0.0757104 0)
  (-0.107539 -0.0597222 0)
  (-0.105926 -0.0376654 0)
  (-0.0964634 -0.0183581 0)
  (-0.0845904 -0.0105234 0)
  (-0.0762947 -0.0111089 0)
  (-0.0729142 -0.01485 0)
  (-0.072726 -0.018847 0)
  (-0.0733131 -0.0215495 0)
  (-0.0723873 -0.0235686 0)
  (-0.0691442 -0.0279566 0)
  (-0.0635719 -0.0353834 0)
  (-0.0553867 -0.0457034 0)
  (-0.0445316 -0.0578151 0)
  (-0.0314412 -0.0697067 0)
  (-0.0161927 -0.0780821 0)
  (0.00248722 -0.079739 0)
  (0.022983 -0.0709107 0)
  (0.044545 -0.0471589 0)
  (0.072485 -0.0034 0)
  (0.0925044 0.038319 0)
  (0.0962293 0.0612525 0)
  (0.10711 0.0655523 0)
  (0.121481 0.0679545 0)
  (-0.0762557 0.0540273 0)
  (0.805233 0.436248 0)
  (-0.346187 0.15195 0)
  (-0.00408427 0.0763973 0)
  (-0.0228263 0.093686 0)
  (-0.0350482 0.0855761 0)
  (-0.0395185 0.0689243 0)
  (-0.0398635 0.0521229 0)
  (-0.0384478 0.0330069 0)
  (-0.0355398 0.00925446 0)
  (-0.0266254 -0.0188187 0)
  (-0.0215914 -0.0437625 0)
  (-0.0203434 -0.0615479 0)
  (-0.0225662 -0.0724332 0)
  (-0.0280028 -0.0772962 0)
  (-0.0358951 -0.0764801 0)
  (-0.0445026 -0.0695355 0)
  (-0.0508296 -0.056321 0)
  (-0.0521288 -0.0397393 0)
  (-0.0483396 -0.025205 0)
  (-0.0426385 -0.0171841 0)
  (-0.0385936 -0.0146977 0)
  (-0.0374892 -0.0152989 0)
  (-0.0388035 -0.0172671 0)
  (-0.0413264 -0.0196685 0)
  (-0.0439408 -0.0230157 0)
  (-0.0462087 -0.0288174 0)
  (-0.0478835 -0.037963 0)
  (-0.0486185 -0.0504263 0)
  (-0.0483155 -0.0646439 0)
  (-0.0471738 -0.0784002 0)
  (-0.045067 -0.0889682 0)
  (-0.0412923 -0.0938705 0)
  (-0.0349623 -0.0903309 0)
  (-0.0247072 -0.0742292 0)
  (-0.00169722 -0.0356413 0)
  (0.0425297 0.0179633 0)
  (0.0620821 0.0442247 0)
  (0.0860895 0.0495942 0)
  (0.136393 0.0635836 0)
  (-0.0611791 0.123461 0)
  (0.906005 0.460279 0)
  (-0.154081 0.132416 0)
  (0.0616379 0.0196277 0)
  (0.0861641 0.047009 0)
  (0.054177 0.060675 0)
  (0.035748 0.0483301 0)
  (0.0340901 0.0311615 0)
  (0.0384537 0.0127357 0)
  (0.0467257 -0.0106435 0)
  (0.0596491 -0.0318129 0)
  (0.0622164 -0.0486257 0)
  (0.058862 -0.0604519 0)
  (0.0517882 -0.0672493 0)
  (0.0421079 -0.0693885 0)
  (0.0308142 -0.0672856 0)
  (0.0192693 -0.061108 0)
  (0.00954147 -0.0510426 0)
  (0.00372363 -0.0387065 0)
  (0.00215421 -0.0273997 0)
  (0.00284127 -0.0197578 0)
  (0.00335712 -0.0156961 0)
  (0.00250016 -0.0141551 0)
  (5.37774e-05 -0.0142572 0)
  (-0.00373952 -0.01547 0)
  (-0.00861215 -0.0180036 0)
  (-0.0149316 -0.0229021 0)
  (-0.0230631 -0.0312786 0)
  (-0.0332796 -0.0435598 0)
  (-0.0452239 -0.0577204 0)
  (-0.0587761 -0.0713587 0)
  (-0.0737066 -0.0821137 0)
  (-0.0893078 -0.0885998 0)
  (-0.104071 -0.0893245 0)
  (-0.114334 -0.0821015 0)
  (-0.112495 -0.0651468 0)
  (-0.0899458 -0.0395765 0)
  (-0.0438961 -0.0112953 0)
  (-0.0123629 0.00587251 0)
  (0.093839 0.086415 0)
  (-0.536094 0.246547 0)
  (1.03993 0.432935 0)
  (0.497612 0.291785 0)
  (0.484292 0.248943 0)
  (0.431382 0.201417 0)
  (0.345142 0.161635 0)
  (0.276938 0.117942 0)
  (0.237041 0.076453 0)
  (0.215009 0.0412694 0)
  (0.201717 0.0113497 0)
  (0.183767 -0.0145832 0)
  (0.165848 -0.0340648 0)
  (0.14835 -0.0467839 0)
  (0.131151 -0.05355 0)
  (0.114258 -0.0554311 0)
  (0.0979593 -0.0533902 0)
  (0.0828093 -0.0482672 0)
  (0.0696801 -0.0409215 0)
  (0.0595709 -0.0325166 0)
  (0.0528318 -0.0245787 0)
  (0.0486056 -0.0183594 0)
  (0.045487 -0.0141867 0)
  (0.0424525 -0.0117842 0)
  (0.0389828 -0.0107337 0)
  (0.0348222 -0.0106861 0)
  (0.0296743 -0.0115308 0)
  (0.0228158 -0.0135549 0)
  (0.0132292 -0.017634 0)
  (-0.00265052 -0.0262743 0)
  (-0.0245249 -0.0374477 0)
  (-0.051632 -0.0477088 0)
  (-0.084507 -0.054022 0)
  (-0.123848 -0.0552329 0)
  (-0.17063 -0.0502376 0)
  (-0.22312 -0.03709 0)
  (-0.276423 -0.0154905 0)
  (-0.323361 0.0107926 0)
  (-0.363109 0.0332262 0)
  (-0.394046 0.0428497 0)
  (-0.434879 0.0373089 0)
  (-0.66468 0.0151633 0)
  (-0.0410492 0.121269 0)
  (0.191239 0.18261 0)
  (0.245702 0.16529 0)
  (0.244017 0.127347 0)
  (0.24441 0.0874437 0)
  (0.245622 0.0520447 0)
  (0.243165 0.0234256 0)
  (0.235153 0.00157316 0)
  (0.221672 -0.0147861 0)
  (0.205014 -0.0261046 0)
  (0.186643 -0.0329006 0)
  (0.167793 -0.0357561 0)
  (0.149537 -0.0353229 0)
  (0.132751 -0.0323273 0)
  (0.118106 -0.0275924 0)
  (0.106047 -0.0220453 0)
  (0.0966567 -0.0166211 0)
  (0.0895259 -0.0120313 0)
  (0.0839348 -0.00857535 0)
  (0.0791983 -0.00623482 0)
  (0.0748056 -0.00484923 0)
  (0.0703801 -0.00421704 0)
  (0.0655811 -0.00415496 0)
  (0.0599676 -0.00454085 0)
  (0.0529339 -0.00538362 0)
  (0.0430957 -0.00747044 0)
  (0.0287219 -0.0116717 0)
  (0.0074339 -0.018098 0)
  (-0.017376 -0.0218744 0)
  (-0.038024 -0.0210833 0)
  (-0.0565676 -0.0173956 0)
  (-0.0731117 -0.0108833 0)
  (-0.0861554 0.000160861 0)
  (-0.104373 0.0170925 0)
  (-0.117962 0.0340786 0)
  (-0.100944 0.0313898 0)
  (0.049994 -0.0425041 0)
  (-0.286035 -0.249021 0)
  (-0.0616427 0.220485 0)
  (0.0823509 0.183899 0)
  (0.116903 0.138552 0)
  (0.154986 0.102242 0)
  (0.189808 0.0679699 0)
  (0.214211 0.0384688 0)
  (0.226493 0.0154309 0)
  (0.228652 -0.00143275 0)
  (0.223371 -0.0129994 0)
  (0.212815 -0.0204144 0)
  (0.198999 -0.0246603 0)
  (0.183585 -0.0264219 0)
  (0.167981 -0.026284 0)
  (0.153327 -0.0248089 0)
  (0.140445 -0.0225722 0)
  (0.129779 -0.0201545 0)
  (0.121365 -0.0180523 0)
  (0.11487 -0.0165469 0)
  (0.10977 -0.0156561 0)
  (0.105542 -0.0152271 0)
  (0.101769 -0.0150536 0)
  (0.0981471 -0.0149364 0)
  (0.0944593 -0.0146967 0)
  (0.0905419 -0.014135 0)
  (0.0862365 -0.013073 0)
  (0.081157 -0.0116024 0)
  (0.0746079 -0.00995905 0)
  (0.0652981 -0.00913291 0)
  (0.0524135 -0.0100063 0)
  (0.0386279 -0.0112384 0)
  (0.0285538 -0.00887088 0)
  (0.0237022 0.00149124 0)
  (0.0247313 0.0160565 0)
  (0.0288762 0.0300184 0)
  (0.0367177 0.0364406 0)
  (0.059526 0.0212179 0)
  (0.137474 -0.031579 0)
  (-0.200314 -0.136847 0)
  (-0.0827936 -0.305724 0)
  (-0.372693 -0.0727985 0)
  (-0.26063 0.169489 0)
  (-0.129789 0.118889 0)
  (-0.0278196 0.0920445 0)
  (0.0680449 0.0703533 0)
  (0.127275 0.0521707 0)
  (0.169324 0.0381116 0)
  (0.193414 0.0286678 0)
  (0.202684 0.023112 0)
  (0.201941 0.0199628 0)
  (0.194934 0.0182143 0)
  (0.184172 0.0176594 0)
  (0.171511 0.0182202 0)
  (0.158421 0.0198178 0)
  (0.146078 0.0223155 0)
  (0.13534 0.0254892 0)
  (0.126699 0.029018 0)
  (0.12026 0.0325235 0)
  (0.115795 0.0356539 0)
  (0.112881 0.0381608 0)
  (0.111062 0.0399137 0)
  (0.109955 0.0408721 0)
  (0.109293 0.0410519 0)
  (0.108927 0.0404955 0)
  (0.108821 0.0392041 0)
  (0.109048 0.0371487 0)
  (0.109753 0.0343394 0)
  (0.111039 0.0308277 0)
  (0.112827 0.0264568 0)
  (0.114617 0.0201243 0)
  (0.115255 0.00880172 0)
  (0.11342 -0.0103573 0)
  (0.110937 -0.0314228 0)
  (0.112552 -0.0374469 0)
  (0.121843 -0.0279584 0)
  (0.136204 -0.0203572 0)
  (0.150623 -0.0275721 0)
  (0.175598 -0.0472922 0)
  (-0.173856 -0.0978954 0)
)
;

boundaryField
{
  floor
  {
    type noSlip;
  }
  ceiling
  {
    type noSlip;
  }
  sWall
  {
    type noSlip;
  }
  nWall
  {
    type noSlip;
  }
  sideWalls
  {
    type empty;
  }
  glass1
  {
    type noSlip;
  }
  glass2
  {
    type noSlip;
  }
  sun
  {
    type noSlip;
  }
  heatsource1
  {
    type noSlip;
  }
  heatsource2
  {
    type noSlip;
  }
  Table_master
  {
    type noSlip;
  }
  Table_slave
  {
    type noSlip;
  }
  inlet
  {
    type fixedValue;
    value uniform (0.0707107 -0.0707107 0);
  }
  outlet
  {
    type zeroGradient;
  }
} 	// ************************************************************************* //

