/*--------------------------------*- C++ -*----------------------------------*\
  =========                 |
  \\      /  F ield         | OpenFOAM: The Open Source CFD Toolbox
   \\    /   O peration     | Website:  https://openfoam.org
    \\  /    A nd           | Version:  6
     \\/     M anipulation  |
\*---------------------------------------------------------------------------*/
FoamFile
{
    version     2.0;
    format      ascii;
    class       volScalarField;
    location    "3300";
    object      epsilon;
}
// * * * * * * * * * * * * * * * * * * * * * * * * * * * * * * * * * * * * * //

dimensions      [0 2 -3 0 0 0 0];

internalField   nonuniform List<scalar> 
458
(
0.000432798
0.000557902
0.000596576
0.000686362
0.000776642
0.00086911
0.00096871
0.00107729
0.00117185
0.001234
0.00124115
0.00117481
0.00102232
0.000744249
0.000324955
3.92319e-05
6.32057e-05
9.21098e-05
0.000104416
9.95891e-05
8.16139e-05
6.44038e-05
5.12216e-05
4.13702e-05
3.39149e-05
2.81877e-05
2.37378e-05
2.02074e-05
1.73133e-05
1.48367e-05
1.25996e-05
1.13836e-05
8.83705e-06
0.00106106
0.00158339
0.000518424
0.000502596
0.000518433
0.000550897
0.000606235
0.000688426
0.000779661
0.000853877
0.000881968
0.000847736
0.000756832
0.000623967
0.000502
0.00074734
0.00042675
0.00023178
3.82919e-05
7.53648e-05
9.27343e-05
9.34145e-05
8.97158e-05
9.00217e-05
7.05482e-05
5.34848e-05
4.07995e-05
3.15313e-05
2.47363e-05
1.97187e-05
1.59643e-05
1.31658e-05
1.14039e-05
1.06881e-05
3.04934e-05
2.00769e-05
0.00190708
0.00384814
0.000603732
0.000458259
0.000465987
0.000508108
0.00058039
0.00068357
0.000797018
0.000884244
0.000917912
0.000887824
0.000801917
0.00066711
0.000517582
0.000416364
0.000353013
0.000381836
0.000139946
0.000139209
0.000125553
0.00011149
0.000103496
0.000198143
0.000132963
9.11231e-05
6.45178e-05
4.72799e-05
3.5808e-05
2.79832e-05
2.25616e-05
1.88658e-05
1.4826e-05
1.31276e-05
6.48849e-05
3.31352e-05
0.00306314
0.0079945
0.000903772
0.000438969
0.000429206
0.000481211
0.000574922
0.000717876
0.000862547
0.000957908
0.000989137
0.000952828
0.000855181
0.000703288
0.000548477
0.000432329
0.000365836
0.00038048
0.000583845
0.000375803
0.000245139
0.000178246
0.000140443
0.000122969
0.000283211
0.000218135
0.000180064
0.000155003
0.000135718
0.000118222
0.000103052
8.8495e-05
7.32987e-05
4.53966e-05
2.92889e-05
0.000114643
5.06226e-05
0.0046497
0.014428
0.00174036
0.000470836
0.000395592
0.000451554
0.000588836
0.000832745
0.00101848
0.00111179
0.00112828
0.00106916
0.00093739
0.000753691
0.000564844
0.000420046
0.000331647
0.00030267
0.000303803
0.000253574
0.000209351
0.000175089
0.00014627
0.000122043
0.000113039
0.00010379
9.75211e-05
9.21785e-05
8.6185e-05
7.87593e-05
7.08776e-05
6.31504e-05
5.58977e-05
4.60254e-05
3.61877e-05
7.47622e-05
0.000114606
0.000120973
0.000143505
0.000184282
0.00687176
0.021736
0.00400161
0.000790675
0.000465051
0.000474011
0.000700628
0.00111973
0.00130608
0.00136573
0.0013434
0.00124595
0.00106707
0.000825153
0.000577583
0.000388679
0.000278783
0.00023848
0.000228182
0.000218195
0.000201091
0.000176724
0.000149261
0.000123724
0.0001073
0.000100884
9.97295e-05
9.93283e-05
9.71916e-05
9.16552e-05
8.17034e-05
7.04422e-05
5.97978e-05
5.01409e-05
4.34346e-05
5.55234e-05
8.83481e-05
0.00010613
0.000206707
0.000205618
0.00966024
0.0261945
0.00879554
0.00280037
0.00145408
0.00114086
0.00148285
0.00172642
0.00178586
0.00174899
0.00164961
0.00148326
0.00122976
0.000907992
0.000588155
0.000355831
0.00023444
0.000200162
0.000202323
0.00020297
0.000189992
0.000166813
0.000141303
0.000120175
0.000109044
0.00010853
0.000113645
0.000120136
0.000125711
0.000128161
0.00012408
0.000111071
9.74743e-05
8.592e-05
8.0432e-05
8.87097e-05
0.000120572
0.000176759
0.000327312
0.000344784
0.0104473
0.0301
0.0160957
0.00965278
0.00597007
0.00418047
0.00338352
0.00287597
0.00253815
0.00228114
0.00203896
0.00176078
0.00139707
0.000968293
0.000561295
0.000300437
0.00019036
0.00017436
0.000179613
0.000177097
0.000162186
0.000141938
0.000124114
0.000113525
0.000112222
0.000119058
0.000131173
0.000146861
0.000165758
0.000187751
0.000212049
0.000232934
0.000245997
0.000273121
0.000329074
0.000480068
0.000820519
0.00137763
0.00411034
0.00128189
0.00984346
0.0172564
0.0132407
0.00999031
0.00750808
0.00579393
0.00458954
0.00379063
0.00325091
0.00282345
0.00242653
0.00200608
0.00148358
0.000913949
0.000407007
0.000216068
0.000158865
0.000147518
0.000144445
0.000136922
0.000124591
0.000112488
0.000104968
0.000104105
0.000109947
0.000121519
0.000138068
0.0001599
0.000188371
0.000225731
0.000275052
0.000339946
0.000427256
0.000551981
0.000734095
0.000976839
0.00125106
0.00149864
0.00170332
0.00104489
0.00347913
0.00472055
0.00512306
0.00502774
0.00473233
0.00431897
0.00378253
0.00315717
0.00254696
0.00194786
0.00116388
0.000536651
0.000254598
0.000159707
0.000129176
0.000118205
0.000110938
0.000103126
9.54786e-05
8.99917e-05
8.84645e-05
9.13244e-05
9.81827e-05
0.000108632
0.000122683
0.000140911
0.000164565
0.000195768
0.000237994
0.000297015
0.000378476
0.000488604
0.000629975
0.000786502
0.000911368
0.000944855
0.000871231
0.000544327
0.00289521
0.00861984
0.00828004
0.00717105
0.00607335
0.00478816
0.00347735
0.00225646
0.0012826
0.00070994
0.000375256
0.000215445
0.000151303
0.000124231
0.000111153
0.000102264
9.42749e-05
8.71015e-05
8.17522e-05
7.8968e-05
7.90356e-05
8.20656e-05
8.80159e-05
9.70659e-05
0.000109733
0.000126933
0.000150053
0.000181164
0.000223231
0.000280008
0.000356647
0.000458327
0.000585895
0.000728727
0.000842189
0.000956441
0.000733701
0.000565787
0.00336782
0.00362366
0.00386705
0.00532556
0.00449791
0.0031308
0.00187984
0.00115779
0.000823425
0.000572118
0.000398374
0.000290021
0.000215309
0.000168126
0.000139755
0.000121175
0.00010749
9.65726e-05
8.81367e-05
8.27318e-05
8.07746e-05
8.22458e-05
8.67047e-05
9.35473e-05
0.000102696
0.000114288
0.000128657
0.000146408
0.000168498
0.000196562
0.000232083
0.000276408
0.000331698
0.000400631
0.000486199
0.000603828
0.00066078
0.000621017
0.000499741
0.000395349
)
;

boundaryField
{
    floor
    {
        Cmu             0.09;
        kappa           0.41;
        E               9.8;
        type            epsilonWallFunction;
        value           nonuniform List<scalar> 
36
(
0.000324955
3.92319e-05
6.32057e-05
9.21098e-05
0.000104416
9.95891e-05
8.16139e-05
6.44038e-05
5.12216e-05
4.13702e-05
3.39149e-05
2.81877e-05
2.37378e-05
2.02074e-05
1.73133e-05
1.48367e-05
1.25996e-05
1.13836e-05
8.83705e-06
8.83705e-06
2.00769e-05
3.31352e-05
5.06226e-05
0.000120973
0.000143505
0.000184282
0.000324955
0.00074734
0.00042675
0.00023178
3.92319e-05
0.00023178
3.82919e-05
0.000381836
0.000139946
0.000583845
)
;
    }
    ceiling
    {
        Cmu             0.09;
        kappa           0.41;
        E               9.8;
        type            epsilonWallFunction;
        value           nonuniform List<scalar> 
43
(
0.00336782
0.00362366
0.00386705
0.00532556
0.00449791
0.0031308
0.00187984
0.00115779
0.000823425
0.000572118
0.000398374
0.000290021
0.000215309
0.000168126
0.000139755
0.000121175
0.00010749
9.65726e-05
8.81367e-05
8.27318e-05
8.07746e-05
8.22458e-05
8.67047e-05
9.35473e-05
0.000102696
0.000114288
0.000128657
0.000146408
0.000168498
0.000196562
0.000232083
0.000276408
0.000331698
0.000400631
0.000486199
0.000603828
0.00066078
0.000621017
0.000499741
0.000395349
0.00984346
0.0172564
0.00289521
)
;
    }
    sWall
    {
        Cmu             0.09;
        kappa           0.41;
        E               9.8;
        type            epsilonWallFunction;
        value           uniform 0.00336782;
    }
    nWall
    {
        Cmu             0.09;
        kappa           0.41;
        E               9.8;
        type            epsilonWallFunction;
        value           nonuniform List<scalar> 6(0.000184282 0.000205618 0.000344784 0.000544327 0.000565787 0.000395349);
    }
    sideWalls
    {
        type            empty;
    }
    glass1
    {
        Cmu             0.09;
        kappa           0.41;
        E               9.8;
        type            epsilonWallFunction;
        value           nonuniform List<scalar> 9(0.000432798 0.00106106 0.00190708 0.00306314 0.0046497 0.00687176 0.00966024 0.0104473 0.00984346);
    }
    glass2
    {
        Cmu             0.09;
        kappa           0.41;
        E               9.8;
        type            epsilonWallFunction;
        value           nonuniform List<scalar> 2(0.00128189 0.00104489);
    }
    sun
    {
        Cmu             0.09;
        kappa           0.41;
        E               9.8;
        type            epsilonWallFunction;
        value           nonuniform List<scalar> 
14
(
0.000432798
0.000557902
0.000596576
0.000686362
0.000776642
0.00086911
0.00096871
0.00107729
0.00117185
0.001234
0.00124115
0.00117481
0.00102232
0.000744249
)
;
    }
    Table_master
    {
        Cmu             0.09;
        kappa           0.41;
        E               9.8;
        type            epsilonWallFunction;
        value           nonuniform List<scalar> 9(0.000198143 0.000132963 9.11231e-05 6.45178e-05 4.72799e-05 3.5808e-05 2.79832e-05 2.25616e-05 1.88658e-05);
    }
    Table_slave
    {
        Cmu             0.09;
        kappa           0.41;
        E               9.8;
        type            epsilonWallFunction;
        value           nonuniform List<scalar> 9(0.000283211 0.000218135 0.000180064 0.000155003 0.000135718 0.000118222 0.000103052 8.8495e-05 7.32987e-05);
    }
    inlet
    {
        type            turbulentMixingLengthDissipationRateInlet;
        mixingLength    0.01;
        phi             phi;
        k               k;
        value           uniform 0.000471672;
    }
    outlet
    {
        type            zeroGradient;
    }
}


// ************************************************************************* //
