/*--------------------------------*- C++ -*----------------------------------*\
  =========                 |
  \\      /  F ield         | OpenFOAM: The Open Source CFD Toolbox
   \\    /   O peration     | Website:  https://openfoam.org
    \\  /    A nd           | Version:  6
     \\/     M anipulation  |
\*---------------------------------------------------------------------------*/
FoamFile
{
    version     2.0;
    format      ascii;
    class       volScalarField;
    location    "31399.9999979075765";
    object      k;
}
// * * * * * * * * * * * * * * * * * * * * * * * * * * * * * * * * * * * * * //

dimensions      [0 2 -2 0 0 0 0];

internalField   nonuniform List<scalar> 
778
(
0.00158598
0.00180114
0.00178791
0.00194637
0.0020975
0.00223967
0.00237625
0.00251177
0.00265204
0.00280533
0.00295561
0.00310203
0.00324974
0.0034124
0.0035863
0.000792802
0.00162605
0.00165269
0.00157387
0.00144607
0.00128355
0.00113117
0.000999344
0.000887565
0.000793025
0.000713282
0.000645255
0.000586246
0.000533712
0.000484947
0.000436453
0.000398093
0.000326169
0.00340712
0.00643362
0.00268745
0.00274589
0.00288747
0.00305394
0.00323418
0.00342983
0.00364297
0.00387329
0.00412548
0.0043795
0.00459567
0.00470133
0.00459587
0.00429948
0.00390817
0.00358078
0.00253626
0.00281277
0.00295573
0.00289863
0.00266597
0.00226661
0.00190687
0.00161026
0.00137027
0.00117626
0.00101736
0.000885522
0.000774244
0.000681422
0.000615419
0.000574952
0.000864327
0.000524241
0.00549108
0.0127818
0.00347794
0.00321189
0.00329712
0.00345487
0.00363616
0.00384024
0.0040705
0.00432718
0.00463539
0.00501109
0.00545182
0.00596204
0.00653377
0.00686286
0.0062801
0.00538714
0.00403636
0.00416812
0.00417212
0.00397553
0.0035786
0.00266704
0.00201697
0.00157723
0.00127068
0.00105031
0.000887698
0.000765189
0.000672269
0.000604009
0.000551742
0.000548929
0.00116455
0.000678429
0.00797408
0.0217597
0.00449129
0.00339049
0.00334117
0.00343768
0.00354902
0.00366846
0.00380865
0.003991
0.00425894
0.00464866
0.00517207
0.00582693
0.00655717
0.00713731
0.00723042
0.00724481
0.00534243
0.00554822
0.00537398
0.00512383
0.00478598
0.00434802
0.00345626
0.00285992
0.00243713
0.00211116
0.00185172
0.00163315
0.00143962
0.0012595
0.00107854
0.000801384
0.000660295
0.00141903
0.000822635
0.0108772
0.0336364
0.00621317
0.00342476
0.00315794
0.0031666
0.00318925
0.00320958
0.00325186
0.00336083
0.00359455
0.00398939
0.00455448
0.00527893
0.00609004
0.00682089
0.00728584
0.00764511
0.00751698
0.00665294
0.00607156
0.00557744
0.00509812
0.00462924
0.00412354
0.00366636
0.00327589
0.00293832
0.0026321
0.00234862
0.00208002
0.00181917
0.00155549
0.00122266
0.000931576
0.00118982
0.00121651
0.00116833
0.002002
0.00185462
0.0141758
0.0476004
0.00928463
0.00348985
0.00290822
0.00282241
0.00276416
0.0026994
0.00266411
0.00273437
0.00298065
0.00341449
0.00402482
0.00480062
0.0056577
0.00646533
0.0070721
0.00740901
0.00732402
0.00678927
0.0062139
0.00563606
0.00507368
0.00455597
0.00409172
0.00369621
0.00336362
0.00307422
0.00280734
0.00255215
0.00229966
0.00204284
0.00177427
0.0014719
0.00118002
0.00111381
0.00111255
0.00169542
0.00502437
0.00266259
0.0179931
0.0606068
0.0143608
0.00381956
0.00271497
0.00252915
0.00241166
0.00229401
0.0022211
0.0023114
0.00263004
0.00313941
0.00380336
0.00463458
0.0055334
0.00637204
0.00700541
0.00733115
0.00725609
0.00681865
0.00621532
0.00555455
0.00491178
0.00434292
0.00387277
0.00350065
0.0032068
0.00296186
0.00274157
0.00252952
0.0023141
0.00208786
0.0018457
0.00158332
0.00132902
0.00116327
0.0010946
0.00154232
0.0061689
0.0036799
0.021642
0.0704813
0.0214366
0.00510273
0.00274279
0.00237174
0.00221017
0.00208212
0.0020266
0.00221956
0.0026496
0.00323107
0.00393868
0.00477809
0.00570438
0.00657951
0.00722908
0.00751819
0.00738734
0.00689831
0.00619952
0.00542772
0.00469198
0.00406473
0.0035745
0.00321227
0.00294721
0.00274054
0.00256396
0.0023959
0.00222248
0.00203598
0.00183266
0.00161357
0.00139932
0.00123707
0.00116145
0.00206512
0.0135225
0.00620728
0.0228339
0.0694931
0.0325336
0.0110575
0.00406795
0.00258769
0.00223581
0.0021035
0.00219083
0.00251314
0.00300082
0.00360257
0.00433415
0.005216
0.0061899
0.00709286
0.00772218
0.00792753
0.0076686
0.00702906
0.00616806
0.00525037
0.00440846
0.00372265
0.00321636
0.0028682
0.0026346
0.00246804
0.00233535
0.00221064
0.00207894
0.00193299
0.00177023
0.00159357
0.00142009
0.00130294
0.00136833
0.00381827
0.0256132
0.00815412
0.0219184
0.0516333
0.0336426
0.0174346
0.00858943
0.00476128
0.00326308
0.00273176
0.00285546
0.003213
0.00367389
0.00424755
0.00499678
0.00594036
0.00697657
0.00789013
0.00844462
0.00848759
0.0080083
0.00712896
0.00604573
0.00495689
0.00401262
0.00329069
0.00279726
0.00248767
0.00230098
0.00218287
0.00209475
0.00200987
0.00191469
0.00180346
0.00167518
0.00153431
0.00139838
0.00133869
0.00182619
0.00872707
0.023616
0.00839317
0.0192326
0.0394331
0.0302362
0.019567
0.0121848
0.00794212
0.00572094
0.00467333
0.0043663
0.00440308
0.00465472
0.00514625
0.0059345
0.00697866
0.00808494
0.00896092
0.0093422
0.00909929
0.00827943
0.00706819
0.00571767
0.00446325
0.00346251
0.00276845
0.00234791
0.00211444
0.00199005
0.00192207
0.00187196
0.00181798
0.00174988
0.00166358
0.00155946
0.00144485
0.00134608
0.00142993
0.0033438
0.0101037
0.0194068
0.00813946
0.0159473
0.0315814
0.0266477
0.0195389
0.0139779
0.0102869
0.00803063
0.00675575
0.00605313
0.00573434
0.00578481
0.00627337
0.00720347
0.00840595
0.00955151
0.0102698
0.0103047
0.0095969
0.00829575
0.00667609
0.00506217
0.00372328
0.0027929
0.00223546
0.00195604
0.00181556
0.00174579
0.00171141
0.00168382
0.00164853
0.00159791
0.00152834
0.00144048
0.00134667
0.00129411
0.00166531
0.00430526
0.0101887
0.016458
0.0076133
0.013263
0.0256631
0.0233441
0.0186877
0.0145837
0.0115893
0.0095455
0.00821193
0.00730257
0.00684286
0.00695883
0.00771322
0.00896017
0.0103345
0.0113709
0.0116784
0.0110959
0.00970108
0.00780171
0.00577467
0.00403203
0.00283901
0.00219803
0.00186723
0.00170332
0.00162034
0.00157731
0.0015543
0.00153312
0.00150454
0.00146309
0.00140611
0.00133527
0.00126483
0.00125798
0.00168989
0.00412263
0.00956328
0.0168386
0.00743811
0.0133481
0.0224026
0.0220481
0.0177554
0.0143901
0.0118932
0.0100842
0.00876934
0.00792011
0.00777701
0.0084696
0.00984814
0.0114822
0.0128101
0.0133403
0.0128023
0.0112676
0.00899685
0.00653423
0.00432
0.00296674
0.00222941
0.00186387
0.00168027
0.00158105
0.00152067
0.00147988
0.00145046
0.00142285
0.00139127
0.00135231
0.00130563
0.00125612
0.00122339
0.00127556
0.00167984
0.00361008
0.0088582
0.015308
0.00849131
0.0108747
0.011759
0.012921
0.0125515
0.0113739
0.0100744
0.00894658
0.00820497
0.00830838
0.00941861
0.0112753
0.0133094
0.0148648
0.0154251
0.0147476
0.0128354
0.0101523
0.00703517
0.00464919
0.00313997
0.00235429
0.00197522
0.00178649
0.0016763
0.00159696
0.00152982
0.00146955
0.00141737
0.00137261
0.0013318
0.00129587
0.00127464
0.00129063
0.00138128
0.00160671
0.00213847
0.00375415
0.00918369
0.0136275
0.00871716
0.0035459
0.00482726
0.00599988
0.00660355
0.00728027
0.00880388
0.0113216
0.0141307
0.0165021
0.0178829
0.0179365
0.0166083
0.0141227
0.0105784
0.00731409
0.00483169
0.00333359
0.00257699
0.00223308
0.00206631
0.00196467
0.00188295
0.00180364
0.0017201
0.00163266
0.00154989
0.00148813
0.00145105
0.00145288
0.00152565
0.00171424
0.0020599
0.00260559
0.00348626
0.00519637
0.0102622
0.0140119
0.00892325
0.0044441
0.00628896
0.00810301
0.0110167
0.0147
0.0181509
0.0203745
0.0214003
0.0212694
0.0199929
0.0174324
0.0139546
0.0103264
0.00708969
0.00482221
0.00353782
0.00294019
0.0026844
0.00256169
0.00248335
0.00241966
0.0023607
0.0023011
0.00223583
0.00216196
0.00208434
0.00202777
0.00201684
0.00207904
0.00226135
0.00262247
0.00321597
0.00408947
0.00533736
0.00721082
0.0102985
0.0143758
0.00822753
0.0150801
0.0244658
0.018079
0.0143735
0.0169972
0.0207094
0.022851
0.0235516
0.0230754
0.0216884
0.0196201
0.0169458
0.0137768
0.010479
0.00759864
0.00554028
0.004389
0.00385806
0.00361368
0.00346855
0.00335599
0.00326191
0.00318921
0.00314218
0.00311995
0.00311454
0.00311361
0.00310966
0.00311537
0.00316462
0.00328842
0.00353317
0.00395955
0.0046349
0.00562783
0.00702233
0.00893661
0.0113117
0.0137054
0.00791459
0.0138111
0.0170536
0.0178711
0.0207703
0.0216965
0.0221143
0.0211195
0.0193092
0.0171886
0.0150007
0.0128396
0.0107459
0.00880979
0.00719152
0.00602648
0.00532404
0.00491891
0.0046679
0.00448211
0.00432529
0.00419408
0.00410042
0.00406095
0.00408999
0.00419416
0.00436824
0.00459265
0.0048328
0.00504018
0.00521504
0.00541886
0.0057135
0.00615789
0.00681464
0.00776017
0.00909475
0.0109286
0.0133388
0.013932
0.00932761
0.0121343
0.00890756
0.00881708
0.0093345
0.00977246
0.00919031
0.00810731
0.00692083
0.00581827
0.00485795
0.00404756
0.00338994
0.00289241
0.0025568
0.00236471
0.00227625
0.00225614
0.00226537
0.00229098
0.00233411
0.0024007
0.00249704
0.0026262
0.00278594
0.00296899
0.00316554
0.00336687
0.00356852
0.0037729
0.00398327
0.00420654
0.00446056
0.00476432
0.00513437
0.00558123
0.00610063
0.00666398
0.00725091
0.00802709
0.00832133
)
;

boundaryField
{
    floor
    {
        type            kqRWallFunction;
        value           nonuniform List<scalar> 
36
(
0.0035863
0.000792802
0.00162605
0.00165269
0.00157387
0.00144607
0.00128355
0.00113117
0.000999344
0.000887565
0.000793025
0.000713282
0.000645255
0.000586246
0.000533712
0.000484947
0.000436453
0.000398093
0.000326169
0.000326169
0.000524241
0.000678429
0.000822635
0.00116833
0.002002
0.00185462
0.0035863
0.00429948
0.00390817
0.00358078
0.000792802
0.00358078
0.00253626
0.00538714
0.00403636
0.00534243
)
;
    }
    ceiling
    {
        type            kqRWallFunction;
        value           nonuniform List<scalar> 
43
(
0.0121343
0.00890756
0.00881708
0.0093345
0.00977246
0.00919031
0.00810731
0.00692083
0.00581827
0.00485795
0.00404756
0.00338994
0.00289241
0.0025568
0.00236471
0.00227625
0.00225614
0.00226537
0.00229098
0.00233411
0.0024007
0.00249704
0.0026262
0.00278594
0.00296899
0.00316554
0.00336687
0.00356852
0.0037729
0.00398327
0.00420654
0.00446056
0.00476432
0.00513437
0.00558123
0.00610063
0.00666398
0.00725091
0.00802709
0.00832133
0.0108747
0.011759
0.0044441
)
;
    }
    sWall
    {
        type            kqRWallFunction;
        value           nonuniform List<scalar> 9(0.0219184 0.0192326 0.0159473 0.013263 0.0133481 0.0108747 0.0150801 0.0138111 0.0121343);
    }
    nWall
    {
        type            kqRWallFunction;
        value           nonuniform List<scalar> 
14
(
0.00185462
0.00266259
0.0036799
0.00839317
0.00813946
0.0076133
0.00743811
0.00849131
0.00871716
0.00892325
0.00822753
0.00791459
0.00932761
0.00832133
)
;
    }
    sideWalls
    {
        type            empty;
    }
    glass1
    {
        type            kqRWallFunction;
        value           nonuniform List<scalar> 9(0.00158598 0.00340712 0.00549108 0.00797408 0.0108772 0.0141758 0.0179931 0.021642 0.0228339);
    }
    glass2
    {
        type            kqRWallFunction;
        value           nonuniform List<scalar> 2(0.00620728 0.00815412);
    }
    sun
    {
        type            kqRWallFunction;
        value           nonuniform List<scalar> 
14
(
0.00158598
0.00180114
0.00178791
0.00194637
0.0020975
0.00223967
0.00237625
0.00251177
0.00265204
0.00280533
0.00295561
0.00310203
0.00324974
0.0034124
)
;
    }
    Table_master
    {
        type            kqRWallFunction;
        value           nonuniform List<scalar> 9(0.00266704 0.00201697 0.00157723 0.00127068 0.00105031 0.000887698 0.000765189 0.000672269 0.000604009);
    }
    Table_slave
    {
        type            kqRWallFunction;
        value           nonuniform List<scalar> 9(0.00345626 0.00285992 0.00243713 0.00211116 0.00185172 0.00163315 0.00143962 0.0012595 0.00107854);
    }
    inlet
    {
        type            turbulentIntensityKineticEnergyInlet;
        intensity       0.05;
        value           uniform 0.0009375;
    }
    outlet
    {
        type            zeroGradient;
    }
}


// ************************************************************************* //
