/*--------------------------------*- C++ -*----------------------------------*\
  =========                 |
  \\      /  F ield         | OpenFOAM: The Open Source CFD Toolbox
   \\    /   O peration     | Website:  https://openfoam.org
    \\  /    A nd           | Version:  6
     \\/     M anipulation  |
\*---------------------------------------------------------------------------*/
FoamFile
{
    version     2.0;
    format      ascii;
    class       volScalarField;
    location    "1830";
    object      alphat;
}
// * * * * * * * * * * * * * * * * * * * * * * * * * * * * * * * * * * * * * //

dimensions      [1 -1 -1 0 0 0 0];

internalField   nonuniform List<scalar> 
458
(
0.00124409
0.00135522
0.00138591
0.00145223
0.00151331
0.00157115
0.00162901
0.00168776
0.00173581
0.00176602
0.00176946
0.00173736
0.00165865
0.001492
0.00113178
0.000559105
0.000655481
0.000743169
0.000774881
0.000762737
0.000713755
0.000659566
0.000611078
0.000569076
0.000532595
0.00050074
0.000472865
0.000448146
0.000425632
0.000404278
0.000382836
0.000370091
0.000340108
0.00167643
0.00377449
0.00348167
0.00398931
0.00449542
0.00501605
0.00548326
0.0058446
0.00621592
0.00656365
0.00684269
0.0070122
0.00702799
0.00678325
0.0055127
0.00149403
0.00123946
0.0010112
0.000554588
0.00131632
0.00191862
0.0023848
0.0025322
0.0018454
0.00155787
0.00136223
0.00121785
0.00110722
0.00101944
0.000943758
0.00087262
0.000801607
0.000738173
0.000684993
0.000837897
0.000447112
0.00203693
0.00507247
0.0041865
0.00510446
0.00549013
0.00576099
0.00596921
0.00616151
0.0064294
0.00675524
0.00711141
0.0074603
0.00773554
0.00783165
0.00737921
0.00601392
0.00455772
0.00119431
0.000854301
0.0014743
0.00214538
0.00281281
0.00300336
0.000959314
0.000839864
0.000740474
0.000659974
0.000595012
0.000542367
0.000499573
0.000464967
0.000438049
0.000485439
0.000562192
0.000983094
0.000528388
0.00238376
0.00647818
0.00407216
0.0052878
0.00549875
0.00547763
0.00545808
0.00555031
0.00576835
0.00609105
0.00650105
0.00695796
0.00735768
0.00760868
0.0075515
0.00716064
0.00614558
0.00337381
0.00137584
0.00175207
0.00240862
0.00321248
0.00390915
0.00394325
0.00108044
0.00099034
0.000928973
0.000883678
0.000845378
0.00080732
0.000771182
0.000733
0.000688374
0.00064845
0.000639027
0.00117167
0.000608554
0.00273781
0.00836886
0.004271
0.0050192
0.00532066
0.00514038
0.0049937
0.00507738
0.00530774
0.00564386
0.0060862
0.00658739
0.00697909
0.00717359
0.00716825
0.00703113
0.00662584
0.00547885
0.00496565
0.00500149
0.00529274
0.0056397
0.00585228
0.00575584
0.00491063
0.00447596
0.00423635
0.00406468
0.00389101
0.00366738
0.00328733
0.00279786
0.002241
0.00170473
0.00127865
0.0011913
0.00103423
0.000813327
0.000860759
0.000935588
0.00311664
0.0104977
0.0058486
0.00464677
0.00506418
0.00505341
0.00486617
0.00493543
0.00517065
0.00550725
0.0059562
0.00643689
0.00679947
0.00691479
0.00680432
0.00664685
0.00657609
0.00648155
0.00667646
0.00701453
0.00725146
0.00729334
0.00713316
0.00679852
0.00633157
0.00595222
0.00565679
0.00539646
0.00514095
0.0048698
0.00451962
0.00403955
0.00343237
0.0027455
0.00210982
0.00152986
0.00125748
0.00109687
0.00138115
0.000970514
0.00348935
0.0121021
0.00872441
0.00571024
0.00496896
0.00504023
0.00510381
0.00514057
0.00527442
0.00557176
0.00601381
0.00649035
0.00682266
0.00685885
0.00664941
0.00649807
0.0067475
0.00730058
0.00786339
0.00818076
0.00818101
0.00790825
0.00744644
0.0068847
0.00632523
0.00587509
0.00553427
0.00525796
0.00501626
0.0047993
0.00460193
0.00434384
0.00391945
0.00335243
0.00276334
0.00219738
0.00182801
0.00167461
0.00159619
0.0011531
0.00357895
0.0112154
0.00952689
0.00799804
0.00682818
0.00630998
0.0058235
0.00549392
0.00549018
0.00577439
0.00623169
0.0067023
0.00698157
0.0069164
0.00665974
0.00672355
0.0074362
0.00802086
0.00832512
0.0083107
0.00797993
0.00740819
0.00670485
0.00599573
0.00540669
0.00499388
0.00471549
0.00451557
0.00436767
0.00426797
0.0042237
0.00422574
0.00411268
0.00377569
0.00344716
0.00326414
0.003344
0.00353
0.00419317
0.00178524
0.00350477
0.00423038
0.0046753
0.00492485
0.0049621
0.0048889
0.00489236
0.00510059
0.00552041
0.00605418
0.00659948
0.00702818
0.00716477
0.00691733
0.00684691
0.00720839
0.00762631
0.00776937
0.00766529
0.00730214
0.00669389
0.00594284
0.005193
0.00457793
0.00415243
0.0038815
0.00369976
0.00356169
0.0034439
0.00333336
0.00321992
0.00309535
0.00298236
0.00288455
0.00281976
0.0027832
0.00271369
0.00257067
0.00239705
0.00166669
0.00157979
0.00276056
0.00377663
0.00457225
0.00530102
0.00601005
0.00657156
0.00694741
0.00719143
0.00722406
0.00698584
0.00669695
0.0066977
0.00681716
0.00672535
0.00645446
0.00602732
0.00545229
0.00479087
0.00414487
0.00363064
0.00328431
0.003072
0.0029417
0.00285522
0.00279218
0.00274384
0.00270812
0.00268805
0.00269432
0.00271005
0.00272404
0.00272477
0.00268164
0.00254866
0.00231437
0.00202418
0.00134113
0.00238086
0.00465362
0.00595136
0.00679195
0.00744564
0.00749583
0.00710378
0.00670971
0.00637248
0.00573437
0.00528057
0.00517486
0.00510317
0.00490324
0.00460217
0.00422904
0.00379157
0.00333124
0.00291641
0.00259362
0.00237112
0.0022429
0.00218285
0.00216992
0.00219118
0.00223841
0.00230446
0.00238084
0.00247031
0.00257294
0.00268276
0.00279062
0.00287832
0.00292216
0.00288125
0.00284556
0.00261992
0.00135861
0.0024916
0.0025535
0.00260944
0.00289323
0.00272905
0.00241427
0.00203354
0.00172836
0.00154179
0.00136498
0.00120951
0.00108786
0.000984913
0.000906903
0.000852688
0.000813083
0.000781226
0.000753811
0.000731176
0.000715904
0.000710205
0.000714487
0.000727174
0.000745824
0.000769389
0.000797314
0.000829442
0.000865959
0.000907471
0.000955274
0.00100967
0.00107024
0.00113732
0.0012112
0.00129192
0.00138864
0.00143094
0.00140161
0.00130368
0.00120558
)
;

boundaryField
{
    floor
    {
        type            compressible::alphatWallFunction;
        Prt             0.85;
        value           nonuniform List<scalar> 
36
(
0.000160684
7.82009e-05
9.26079e-05
0.000105492
0.000110106
0.000108343
0.000101193
9.32134e-05
8.60056e-05
7.97052e-05
7.41862e-05
6.93286e-05
6.5046e-05
6.12217e-05
5.77152e-05
5.43673e-05
5.09827e-05
4.89596e-05
4.41641e-05
4.41634e-05
6.10618e-05
7.35479e-05
8.56303e-05
0.000115679
0.000122505
0.000133176
0.000160682
0.000210149
0.000175552
0.000143837
7.82e-05
0.000143835
7.75178e-05
0.000169334
0.000121562
0.000194178
)
;
    }
    ceiling
    {
        type            compressible::alphatWallFunction;
        Prt             0.85;
        value           nonuniform List<scalar> 
43
(
0.000340274
0.000348137
0.000355228
0.000391034
0.000370448
0.000330558
0.000281542
0.000241532
0.000216692
0.000192837
0.00017157
0.000154711
0.000140273
0.000129215
0.000121464
0.000115765
0.000111157
0.000107173
0.000103871
0.000101636
0.0001008
0.000101428
0.000103286
0.00010601
0.000109439
0.000113488
0.000118124
0.000123368
0.000129298
0.000136087
0.000143764
0.000152257
0.000161596
0.000171811
0.00018289
0.000196064
0.000201793
0.000197823
0.0001845
0.000171041
0.000467119
0.000555333
0.000326055
)
;
    }
    sWall
    {
        type            compressible::alphatWallFunction;
        Prt             0.85;
        value           uniform 0.000339031;
    }
    nWall
    {
        type            compressible::alphatWallFunction;
        Prt             0.85;
        value           nonuniform List<scalar> 6(0.000132957 0.000137898 0.000163426 0.000189266 0.000191642 0.0001707);
    }
    sideWalls
    {
        type            empty;
    }
    glass1
    {
        type            compressible::alphatWallFunction;
        Prt             0.85;
        value           nonuniform List<scalar> 9(0.000171656 0.000229164 0.000275988 0.000320286 0.000364869 0.000411952 0.000457738 0.000468807 0.000459996);
    }
    glass2
    {
        type            compressible::alphatWallFunction;
        Prt             0.85;
        value           nonuniform List<scalar> 2(0.000247083 0.00023154);
    }
    sun
    {
        type            compressible::alphatWallFunction;
        Prt             0.85;
        value           nonuniform List<scalar> 
14
(
0.000176206
0.000191376
0.000195543
0.000204517
0.000212741
0.000220494
0.000228219
0.000236031
0.000242397
0.000246389
0.000246844
0.000242601
0.000232161
0.000209874
)
;
    }
    Table_master
    {
        type            compressible::alphatWallFunction;
        Prt             0.85;
        value           nonuniform List<scalar> 9(0.000136673 0.000119637 0.000105242 9.34124e-05 8.37377e-05 7.58017e-05 6.92798e-05 6.39544e-05 5.97773e-05);
    }
    Table_slave
    {
        type            compressible::alphatWallFunction;
        Prt             0.85;
        value           nonuniform List<scalar> 9(0.000153698 0.000141059 0.000132373 0.00012592 0.000120432 0.00011495 0.000109715 0.000104153 9.76071e-05);
    }
    inlet
    {
        type            fixedValue;
        value           uniform 1.94e-05;
    }
    outlet
    {
        type            zeroGradient;
    }
}


// ************************************************************************* //
