/*--------------------------------*- C++ -*----------------------------------*\
  =========                 |
  \\      /  F ield         | OpenFOAM: The Open Source CFD Toolbox
   \\    /   O peration     | Website:  https://openfoam.org
    \\  /    A nd           | Version:  6
     \\/     M anipulation  |
\*---------------------------------------------------------------------------*/
FoamFile
{
    version     2.0;
    format      ascii;
    class       surfaceScalarField;
    location    "1830";
    object      phi;
}
// * * * * * * * * * * * * * * * * * * * * * * * * * * * * * * * * * * * * * //

dimensions      [1 0 -1 0 0 0 0];

internalField   nonuniform List<scalar> 
850
(
-0.0030531
0.00311356
-0.00414578
0.00109268
-0.00501487
0.00086909
-0.00570373
0.000688859
-0.00617582
0.000472092
-0.00639709
0.000221271
-0.00632792
-6.91718e-05
-0.00592416
-0.000403764
-0.00517398
-0.000750178
-0.00412889
-0.00104509
-0.00290064
-0.00122824
-0.00164187
-0.00125877
-0.000539355
-0.00110252
0.000135725
-0.00067508
0.000138076
-0.000922263
0.00092592
-0.00068963
-0.000232633
-6.00845e-05
-0.000629545
0.000543453
-0.000603538
0.00100262
-0.000459166
0.00125915
-0.000256529
0.00136724
-0.000108087
0.00142003
-5.27988e-05
0.00145037
-3.03404e-05
0.00146542
-1.50484e-05
0.00146901
-3.59111e-06
0.001462
7.01769e-06
0.00143871
2.32831e-05
0.00138014
5.85703e-05
0.00125414
0.000126002
0.00105043
0.000203714
0.000793588
0.000256839
0.000798427
-0.00220746
0.00548442
-0.0032951
0.00218033
-0.00420831
0.0017823
-0.00490608
0.00138663
-0.00538759
0.000953609
-0.00563055
0.000464228
-0.00559456
-0.000105165
-0.00524041
-0.000757911
-0.00456696
-0.00142362
-0.00364298
-0.00196908
-0.00258834
-0.00228288
-0.00154182
-0.00230529
-0.000628975
-0.00201536
9.26285e-05
-0.00139668
0.000872424
-0.00064172
0.00114838
-0.000272175
0.000956729
0.000196013
0.000969418
4.19762e-05
0.000894944
0.000422326
-0.000612983
0.000787072
-0.000994291
0.00110005
-0.000916518
0.00135095
-0.00071006
0.00140742
-0.000313006
0.00141556
-0.00011622
0.00142627
-6.35164e-05
0.00143526
-3.93236e-05
0.00144052
-2.03128e-05
0.00144269
-5.75614e-06
0.00144229
7.41466e-06
0.00143681
2.87678e-05
0.00140033
9.50445e-05
0.00124739
0.000278941
0.000978827
0.000472279
0.000644739
0.000590928
0.00145554
-0.00156233
0.00729717
-0.00251035
0.00312835
-0.00334298
0.00261493
-0.00396554
0.00200919
-0.00441312
0.00140118
-0.00466165
0.000712762
-0.00465602
-0.0001108
-0.00433477
-0.00107915
-0.00371329
-0.0020451
-0.00288892
-0.00279345
-0.00198684
-0.00318496
-0.00112292
-0.00316921
-0.00037372
-0.00276456
0.000240232
-0.00201064
0.000751698
-0.00115319
0.000899059
-0.000419536
0.000707237
0.000387836
0.00168792
0.00143716
-0.000528377
0.00163263
-0.000808451
0.00157504
-0.000936701
0.00160836
-0.000949841
0.00181173
-0.000913435
0.00149888
0.00138281
0.00131945
0.00128028
0.00126012
0.00125452
0.00126209
0.00129101
0.00138621
0.00115914
0.000506012
0.000870195
0.000761221
0.000498994
0.000962128
0.00197311
-0.00109548
0.00871731
-0.00185228
0.00388514
-0.00243659
0.00319924
-0.00288267
0.00245526
-0.00322779
0.00174631
-0.00344066
0.000925628
-0.00344208
-0.000109374
-0.00312371
-0.00139753
-0.00254789
-0.00262093
-0.00184621
-0.00349513
-0.00113058
-0.00390059
-0.000480876
-0.00381891
6.5584e-05
-0.00331102
0.000526119
-0.00247117
0.000902143
-0.00152921
0.00111915
-0.000636541
0.00130325
0.000203734
0.00225682
0.000734346
0.00216722
0.000101543
0.00199421
-0.000355367
0.00190824
-0.000722481
0.00179748
-0.000825948
0.00166533
-0.000817689
0.00143438
-0.000682484
0.00175806
-0.000323838
0.0019358
-0.000177887
0.0020668
-0.000131152
0.00216765
-0.000101006
0.00222793
-6.04362e-05
0.00222542
2.36281e-06
0.00213254
9.27192e-05
0.00191299
0.000219399
0.00150682
0.000406014
0.00126953
0.000743304
0.000902367
0.00112839
0.000384158
0.00148034
0.00238091
-0.000756057
0.00986109
-0.00132707
0.00445615
-0.00150964
0.00338181
-0.00168822
0.00263385
-0.00185319
0.00191128
-0.00196221
0.00103464
-0.00191375
-0.000157828
-0.00155674
-0.00175454
-0.00105575
-0.00312192
-0.000537864
-0.00401301
-7.33862e-05
-0.00436507
0.000305258
-0.00419756
0.000596405
-0.00360217
0.000849226
-0.00272399
0.00106847
-0.00174845
0.00127574
-0.000843811
0.00158626
-0.000106794
0.00202968
0.000290931
0.00206348
6.77408e-05
0.00199607
-0.000287955
0.00181152
-0.000537931
0.00162366
-0.000638089
0.00144661
-0.000640643
0.00131799
-0.000553862
0.00137685
-0.000382693
0.00146501
-0.000266049
0.00154958
-0.000215718
0.00163115
-0.000182578
0.00170135
-0.000130641
0.00174043
-3.67182e-05
0.0017244
0.000108753
0.00163815
0.00030565
0.00148591
0.000558253
0.00132985
0.000899364
0.00115093
0.00130731
0.000803976
0.00182729
0.00101978
0.0021651
-0.00109533
0.00213623
-0.00179354
0.000717822
-0.00172077
-0.000638758
0.0109406
-0.00101441
0.00483181
-0.000633458
0.00300085
-0.000448711
0.0024491
-0.000384079
0.00184665
-0.000303706
0.000954271
-5.19028e-05
-0.000409632
0.000334518
-0.00214096
0.000692211
-0.00347961
0.000952062
-0.00427286
0.00109509
-0.00450809
0.00114541
-0.00424788
0.0011393
-0.00359606
0.00111605
-0.00270075
0.00110047
-0.00173286
0.00113244
-0.00087579
0.00126932
-0.000243664
0.00148391
7.63338e-05
0.00153506
1.65971e-05
0.00143701
-0.000189905
0.00126259
-0.000363516
0.00108295
-0.000458444
0.000925699
-0.000483396
0.000820753
-0.000448917
0.000810058
-0.000371997
0.000859509
-0.0003155
0.000935768
-0.000291978
0.00102659
-0.000273401
0.00112548
-0.000229532
0.00122253
-0.000133767
0.00129547
3.58142e-05
0.00133254
0.000268581
0.00134784
0.000542956
0.00138186
0.000865341
0.00148235
0.00120682
0.00168588
0.00162375
0.00203674
0.00181424
0.00233691
0.00183607
0.00182993
0.0012248
0.000174602
-0.000763867
0.0121918
-0.000621498
0.00468944
0.00049225
0.00188711
0.000960602
0.00198075
0.00121797
0.00158927
0.00159949
0.000572753
0.00210281
-0.00091295
0.00244002
-0.00247817
0.00257387
-0.00361346
0.00250635
-0.00420535
0.00227315
-0.00427489
0.00193621
-0.00391094
0.00155929
-0.00321913
0.00120049
-0.00234195
0.000896614
-0.00142898
0.000704829
-0.000684004
0.000653018
-0.000191853
0.00070401
2.53413e-05
0.000712007
8.60028e-06
0.000635695
-0.000113593
0.000508347
-0.000236167
0.000368077
-0.000318174
0.000242238
-0.000357557
0.000156208
-0.000362888
0.000133342
-0.000349131
0.000162434
-0.000344592
0.000222128
-0.000351672
0.000302633
-0.000353906
0.000404951
-0.000331851
0.000534057
-0.000262873
0.000686977
-0.000117105
0.000844928
0.00011063
0.00100693
0.00038095
0.00120878
0.000663492
0.00148341
0.000932195
0.00188385
0.00122332
0.00241736
0.00128073
0.00318505
0.00106837
0.0033617
0.00104815
0.00360512
0.00273593
0.00999919
0.00339168
0.00403368
0.00344932
0.00182947
0.00353501
0.00189506
0.0037463
0.00137798
0.00422225
9.68079e-05
0.00469344
-0.00138415
0.00478854
-0.00257326
0.00451427
-0.00333919
0.00396116
-0.00365224
0.00323004
-0.00354378
0.00242509
-0.003106
0.00162828
-0.00242231
0.000922317
-0.00163599
0.000347428
-0.000854094
-2.73509e-06
-0.000333841
-0.00014121
-5.3379e-05
-0.000155729
3.98604e-05
-0.00016362
1.64917e-05
-0.000215795
-6.14182e-05
-0.000306634
-0.000145328
-0.00041282
-0.000211989
-0.000512073
-0.000258303
-0.000586272
-0.000288688
-0.000624208
-0.000311195
-0.000633382
-0.000335418
-0.000625535
-0.00035952
-0.000604958
-0.000374482
-0.000566671
-0.000370139
-0.000494446
-0.000335098
-0.000356982
-0.000254569
-0.000146849
-9.95026e-05
0.000103927
0.000130174
0.00038864
0.000378779
0.000707111
0.000613725
0.00108944
0.000840983
0.00150684
0.000863331
0.00189862
0.000676589
0.001206
0.00174077
0.00509753
0.0105981
0.0146276
0.0125615
0.00389562
0.0112293
0.00322722
0.0103408
0.00226644
0.00953406
0.000903597
0.00853168
-0.000381773
0.00735282
-0.0013944
0.00607958
-0.00206595
0.00476078
-0.00233344
0.00342962
-0.00221262
0.00216462
-0.001841
0.0010098
-0.00126749
5.66166e-05
-0.000682808
-0.000566065
-0.000231412
-0.000859804
-4.01022e-05
-0.000956941
4.37574e-05
-0.00097653
5.94494e-05
-0.00099193
3.18924e-05
-0.00103542
-1.79275e-05
-0.00110804
-7.27063e-05
-0.00119703
-0.000123006
-0.00128879
-0.000166542
-0.00137438
-0.000203096
-0.00145155
-0.000234021
-0.0015271
-0.000259871
-0.00161028
-0.000276337
-0.00170962
-0.00027514
-0.00183478
-0.000244984
-0.00199864
-0.000171237
-0.00221663
-3.65827e-05
-0.00248311
0.000166979
-0.00280706
0.000454126
-0.003271
0.000842721
-0.00398819
0.00133091
-0.00502972
0.00188252
-0.00651693
0.00235054
-0.0082554
0.00241506
-0.00777183
0.0012572
-0.0023573
0.0089505
0.00560352
0.00747195
0.00470577
0.0070801
0.00265829
0.00672929
0.0012544
0.00611935
0.00022817
0.00524698
-0.000522032
0.0041784
-0.000997367
0.00298299
-0.00113803
0.00169148
-0.000921106
0.000430623
-0.000580143
-0.00060937
-0.000227499
-0.00127078
-2.13948e-05
-0.00156325
6.10583e-05
-0.0016777
7.43477e-05
-0.00170749
7.35487e-05
-0.00171318
6.51385e-05
-0.00172826
4.69716e-05
-0.00176715
2.09552e-05
-0.0018311
-8.74721e-06
-0.00191258
-4.15337e-05
-0.00200404
-7.50747e-05
-0.00210336
-0.000103779
-0.00221183
-0.00012555
-0.00233293
-0.00013878
-0.00246874
-0.000140527
-0.00261812
-0.000125759
-0.00277564
-8.74608e-05
-0.00292896
-1.79174e-05
-0.00306254
9.69978e-05
-0.00317482
0.000279263
-0.00327576
0.000555061
-0.00337725
0.000944213
-0.00348606
0.00143971
-0.00356954
0.001966
-0.00356788
0.00234888
-0.00330986
0.00215704
-0.00194989
-0.000102762
-0.00422386
-0.000826065
0.0064829
0.000742124
0.00313758
0.00140782
0.0019926
0.00164672
0.0010155
0.00158288
0.000292005
0.00121188
-0.000151032
0.0005297
-0.000315185
-0.000363669
-0.000244664
-0.00124094
-4.38302e-05
-0.00188627
6.51819e-05
-0.00222701
0.00011324
-0.00235779
0.00010939
-0.00238053
8.37972e-05
-0.00237001
6.38291e-05
-0.00234881
5.23446e-05
-0.00232827
4.45986e-05
-0.00231741
3.61079e-05
-0.00232142
2.49705e-05
-0.00234087
1.0698e-05
-0.00237472
-7.67845e-06
-0.0024233
-2.65014e-05
-0.00248468
-4.23957e-05
-0.00255681
-5.34208e-05
-0.0026371
-5.84918e-05
-0.00272145
-5.61735e-05
-0.00280328
-4.39269e-05
-0.00287313
-1.76171e-05
-0.00291843
2.73843e-05
-0.00291845
9.70198e-05
-0.00284791
0.000208722
-0.00267227
0.000379422
-0.00236021
0.000632151
-0.00190389
0.000983397
-0.0012893
0.00135141
-0.000299608
0.00135918
0.00114768
0.000709755
0.00164259
-0.000597672
-0.00248959
-0.0120485
-0.015577
-0.00905365
-0.00588866
-0.00387379
-0.00283969
-0.00253266
-0.00267168
-0.00297694
-0.0032131
-0.00324927
-0.0031768
-0.00305642
-0.00293992
-0.002849
-0.00277802
-0.0027185
-0.00266669
-0.00262332
-0.00259106
-0.00257307
-0.00257349
-0.00259281
-0.00262813
-0.00267459
-0.00272628
-0.0027758
-0.00281325
-0.00282458
-0.00279112
-0.00268824
-0.00247389
-0.0020891
-0.00145184
-0.00046363
0.000892209
0.00225553
0.00296934
0.00237584
)
;

boundaryField
{
    floor
    {
        type            calculated;
        value           nonuniform List<scalar> 
36
(
0
0
0
0
0
0
0
0
0
0
0
0
0
0
0
0
0
0
0
-4.83914e-06
-1.23784e-05
-1.85698e-05
-2.36401e-05
-2.11164e-05
-1.96191e-05
-1.84535e-05
-2.35096e-06
-3.78395e-06
-4.35939e-06
-5.04469e-06
-3.65662e-06
-7.6438e-06
-1.10003e-05
-1.12618e-05
-1.38371e-05
-1.1939e-05
)
;
    }
    ceiling
    {
        type            calculated;
        value           nonuniform List<scalar> 
43
(
-4.18424e-05
-4.11775e-05
-4.04777e-05
-2.74135e-05
-2.22693e-05
-1.86046e-05
-1.50286e-05
-1.20034e-05
-9.92779e-06
-8.50093e-06
-7.66617e-06
-7.28618e-06
-7.13852e-06
-7.11133e-06
-7.12405e-06
-7.14487e-06
-7.17614e-06
-7.21764e-06
-7.25921e-06
-7.29101e-06
-7.2907e-06
-7.25692e-06
-7.18297e-06
-7.08081e-06
-6.95277e-06
-6.80956e-06
-6.64876e-06
-6.47539e-06
-6.28402e-06
-6.079e-06
-5.85932e-06
-5.62542e-06
-5.37668e-06
-5.10606e-06
-4.81149e-06
-4.42496e-06
-4.13959e-06
-4.04935e-06
-4.18148e-06
-3.60379e-06
6.94079e-06
4.17895e-06
-5.33147e-05
)
;
    }
    sWall
    {
        type            calculated;
        value           uniform -0.000241395;
    }
    nWall
    {
        type            calculated;
        value           nonuniform List<scalar> 6(-5.43172e-05 -6.54339e-05 -6.88136e-05 -8.33261e-05 -9.16831e-05 -0.000110141);
    }
    sideWalls
    {
        type            empty;
        value           nonuniform 0();
    }
    glass1
    {
        type            calculated;
        value           nonuniform List<scalar> 9(-6.04582e-05 -0.000163403 -0.000250424 -0.00032465 -0.000387723 -0.000440785 -0.000487284 -0.000543338 -0.000605862);
    }
    glass2
    {
        type            calculated;
        value           nonuniform List<scalar> 2(-0.00028641 -0.000317011);
    }
    sun
    {
        type            calculated;
        value           uniform 0;
    }
    Table_master
    {
        type            calculated;
        value           nonuniform List<scalar> 9(-1.5364e-07 -1.53789e-07 -1.53839e-07 -1.53869e-07 -1.53889e-07 -1.53902e-07 -1.53906e-07 -1.539e-07 -1.5387e-07);
    }
    Table_slave
    {
        type            calculated;
        value           nonuniform List<scalar> 9(1.5353e-07 1.53515e-07 1.53468e-07 1.53431e-07 1.53408e-07 1.53408e-07 1.53413e-07 1.53451e-07 1.53535e-07);
    }
    inlet
    {
        type            calculated;
        value           uniform -0.0106584;
    }
    outlet
    {
        type            calculated;
        value           nonuniform List<scalar> 2(0.0123317 0.00356971);
    }
}


// ************************************************************************* //
