/*--------------------------------*- C++ -*----------------------------------*\
  =========                 |
  \\      /  F ield         | OpenFOAM: The Open Source CFD Toolbox
   \\    /   O peration     | Website:  https://openfoam.org
    \\  /    A nd           | Version:  6
     \\/     M anipulation  |
\*---------------------------------------------------------------------------*/
FoamFile
{
    version     2.0;
    format      ascii;
    class       volVectorField;
    location    "1830";
    object      U;
}
// * * * * * * * * * * * * * * * * * * * * * * * * * * * * * * * * * * * * * //

dimensions      [0 1 -1 0 0 0 0];

internalField   nonuniform List<vector> 
458
(
(0.0348271 0.0885216 0)
(-0.172079 0.0265833 0)
(-0.199346 0.0191133 0)
(-0.233221 0.0130815 0)
(-0.258394 0.00641444 0)
(-0.273599 -0.00080376 0)
(-0.27673 -0.00877664 0)
(-0.265485 -0.017776 0)
(-0.23943 -0.0274245 0)
(-0.199722 -0.0361091 0)
(-0.150459 -0.042049 0)
(-0.0978443 -0.0436496 0)
(-0.0487437 -0.0390813 0)
(-0.00628629 -0.0236923 0)
(-0.0102732 0.00976689 0)
(-0.0102268 0.0105052 0)
(-0.037244 -0.0174988 0)
(-0.0144922 -0.0291183 0)
(0.0137087 -0.0251865 0)
(0.033473 -0.0178904 0)
(0.0480908 -0.00955612 0)
(0.0568494 -0.00517783 0)
(0.0607264 -0.00363396 0)
(0.0621607 -0.00308416 0)
(0.0628094 -0.00276106 0)
(0.0631186 -0.00251043 0)
(0.0630569 -0.0022423 0)
(0.0624582 -0.00179789 0)
(0.0608651 -0.000838659 0)
(0.0572607 0.00107562 0)
(0.0505371 0.00317333 0)
(0.0451237 0.00509138 0)
(-0.0141352 0.0219529 0)
(0.214276 0.181888 0)
(-0.162149 0.0709915 0)
(-0.16294 0.0577619 0)
(-0.198655 0.0457435 0)
(-0.224132 0.0319891 0)
(-0.240108 0.0161774 0)
(-0.244612 -0.00240705 0)
(-0.235119 -0.0239625 0)
(-0.211873 -0.0461649 0)
(-0.176494 -0.0649218 0)
(-0.133367 -0.076423 0)
(-0.0881397 -0.0781972 0)
(-0.0462731 -0.0687313 0)
(-0.0100425 -0.046025 0)
(0.0193968 -0.0133903 0)
(0.0442287 0.00784437 0)
(0.0548385 0.0347557 0)
(-0.0118185 0.0706808 0)
(0.0670507 0.0439689 0)
(0.0103194 -0.0218346 0)
(0.0265324 -0.0379035 0)
(0.0407638 -0.0356486 0)
(0.053154 -0.0273414 0)
(0.0595792 -0.0120915 0)
(0.0611997 -0.0027514 0)
(0.0612486 0.000747433 0)
(0.0614126 0.00202471 0)
(0.0617377 0.00272357 0)
(0.0619627 0.00322346 0)
(0.0620201 0.00367677 0)
(0.0619159 0.0044094 0)
(0.0612043 0.00620826 0)
(0.0578064 0.0112289 0)
(0.0491125 0.0155408 0)
(0.0476981 0.0187158 0)
(-0.0584126 0.0475589 0)
(0.379539 0.272954 0)
(-0.180118 0.113731 0)
(-0.123511 0.0941085 0)
(-0.159196 0.0724345 0)
(-0.182598 0.0495041 0)
(-0.198409 0.0236454 0)
(-0.204062 -0.0065303 0)
(-0.195376 -0.040973 0)
(-0.173596 -0.0757728 0)
(-0.141432 -0.103641 0)
(-0.103851 -0.118947 0)
(-0.0659058 -0.119153 0)
(-0.031834 -0.10412 0)
(-0.00229037 -0.0744042 0)
(0.0220163 -0.0400801 0)
(0.0375813 -0.0152252 0)
(0.0431646 0.0131559 0)
(-0.0236793 0.0623068 0)
(0.122496 -0.00756589 0)
(0.0725033 -0.0321109 0)
(0.0643053 -0.0419395 0)
(0.0672563 -0.0417628 0)
(0.0718678 -0.0380474 0)
(0.0734932 -0.0282275 0)
(0.0643713 -0.0183277 0)
(0.0574169 -0.0130256 0)
(0.0548189 -0.0100775 0)
(0.0541284 -0.00818506 0)
(0.0538952 -0.00689668 0)
(0.0539665 -0.00590157 0)
(0.0547671 -0.00475201 0)
(0.0572203 -0.00139624 0)
(0.0561156 0.0150001 0)
(0.0445984 0.0258802 0)
(0.0541332 0.0332631 0)
(-0.0993576 0.0728078 0)
(0.530035 0.346651 0)
(-0.216672 0.151753 0)
(-0.0801986 0.125835 0)
(-0.115537 0.0962965 0)
(-0.133416 0.0672253 0)
(-0.146928 0.0337663 0)
(-0.152515 -0.0071054 0)
(-0.142622 -0.0550451 0)
(-0.121291 -0.102298 0)
(-0.0929838 -0.137829 0)
(-0.0625384 -0.155417 0)
(-0.0335799 -0.153423 0)
(-0.00880657 -0.133438 0)
(0.0128551 -0.0979262 0)
(0.0304192 -0.0589764 0)
(0.0443396 -0.0229011 0)
(0.0599342 0.0131419 0)
(0.0587975 0.0534267 0)
(0.100307 0.0614985 0)
(0.0987887 -0.00245731 0)
(0.0851192 -0.0294025 0)
(0.0784361 -0.0376996 0)
(0.0735871 -0.0384009 0)
(0.0669935 -0.0341133 0)
(0.0665755 -0.0208407 0)
(0.0772547 -0.0138315 0)
(0.0862205 -0.0101084 0)
(0.0916224 -0.00782538 0)
(0.0948645 -0.00591756 0)
(0.0962731 -0.00385634 0)
(0.0945064 -0.00119057 0)
(0.0882448 0.00248024 0)
(0.0757014 0.00774338 0)
(0.0597902 0.025104 0)
(0.0440577 0.0405942 0)
(0.0629724 0.0533601 0)
(-0.131365 0.0942957 0)
(0.662689 0.403809 0)
(-0.262357 0.182675 0)
(-0.0350337 0.145256 0)
(-0.0687494 0.111319 0)
(-0.0779456 0.0792341 0)
(-0.0862927 0.041253 0)
(-0.0890481 -0.00798092 0)
(-0.0740289 -0.0688037 0)
(-0.053484 -0.125888 0)
(-0.0315813 -0.165061 0)
(-0.0112782 -0.181833 0)
(0.00615786 -0.175986 0)
(0.0193213 -0.151481 0)
(0.0303376 -0.114538 0)
(0.0401839 -0.0729575 0)
(0.0494228 -0.0337221 0)
(0.061915 0.000672823 0)
(0.0760111 0.0197096 0)
(0.0902953 -0.000576276 0)
(0.0896483 -0.0213837 0)
(0.0825783 -0.0300444 0)
(0.0737707 -0.0325589 0)
(0.0655274 -0.0316377 0)
(0.0585857 -0.0266392 0)
(0.0568079 -0.015517 0)
(0.0603658 -0.00903137 0)
(0.0647114 -0.00637705 0)
(0.0684384 -0.0048345 0)
(0.0716845 -0.00275379 0)
(0.0741937 0.000778007 0)
(0.0750453 0.00596651 0)
(0.0731522 0.012986 0)
(0.0682429 0.0224383 0)
(0.061196 0.037181 0)
(0.0500457 0.053637 0)
(0.0748522 0.07276 0)
(-0.00684657 0.101399 0)
(0.0557818 0.150675 0)
(-0.0835273 0.0748324 0)
(-0.277796 0.000481442 0)
(0.761896 0.451324 0)
(-0.308554 0.203337 0)
(0.00242947 0.143884 0)
(-0.0205853 0.116258 0)
(-0.0197907 0.0857223 0)
(-0.0214996 0.0472976 0)
(-0.0143138 -0.0069304 0)
(0.0103161 -0.0859142 0)
(0.0269257 -0.146179 0)
(0.0388281 -0.182411 0)
(0.0460483 -0.194544 0)
(0.0488966 -0.185046 0)
(0.0486317 -0.158118 0)
(0.0472256 -0.119915 0)
(0.0460481 -0.0779338 0)
(0.046458 -0.0396994 0)
(0.0508017 -0.00998494 0)
(0.0599414 0.00482614 0)
(0.0662115 -0.00105431 0)
(0.064954 -0.0110208 0)
(0.0585658 -0.018816 0)
(0.0503945 -0.022922 0)
(0.0427584 -0.0236718 0)
(0.0367855 -0.0211451 0)
(0.0342384 -0.0157801 0)
(0.0353924 -0.0123035 0)
(0.0383505 -0.010872 0)
(0.0420102 -0.00978303 0)
(0.046073 -0.00764559 0)
(0.0502577 -0.00338969 0)
(0.0544702 0.00368079 0)
(0.056988 0.0131856 0)
(0.0581541 0.0249447 0)
(0.0592789 0.0395809 0)
(0.0583554 0.0560055 0)
(0.0797011 0.0767043 0)
(0.0654413 0.0889986 0)
(0.0997192 0.0967383 0)
(0.117478 0.0571991 0)
(-0.136901 -0.0299344 0)
(0.815619 0.494189 0)
(-0.334126 0.187369 0)
(0.0322392 0.0937986 0)
(0.0390608 0.101053 0)
(0.0459296 0.0829997 0)
(0.051623 0.0393719 0)
(0.0790975 -0.0311661 0)
(0.103111 -0.103694 0)
(0.113289 -0.157004 0)
(0.112867 -0.186319 0)
(0.104588 -0.192423 0)
(0.0907978 -0.178771 0)
(0.074103 -0.149767 0)
(0.0575088 -0.111558 0)
(0.0429754 -0.0708994 0)
(0.0326116 -0.0356791 0)
(0.0280846 -0.0107415 0)
(0.0294754 0.00100114 0)
(0.0311057 -0.00027838 0)
(0.0296018 -0.00657284 0)
(0.0249484 -0.0126385 0)
(0.0188289 -0.0163811 0)
(0.0128057 -0.0177562 0)
(0.00800268 -0.0171187 0)
(0.00564558 -0.0152096 0)
(0.00599163 -0.014115 0)
(0.00803405 -0.0139807 0)
(0.0110347 -0.0137533 0)
(0.0148316 -0.0123706 0)
(0.0195106 -0.00874669 0)
(0.0256796 -0.00163987 0)
(0.0332907 0.00886754 0)
(0.0400572 0.0208909 0)
(0.0478661 0.0341624 0)
(0.0558655 0.0479637 0)
(0.0754434 0.0644631 0)
(0.0882266 0.069779 0)
(0.119669 0.0632124 0)
(0.163391 0.0513037 0)
(-0.0203446 0.0954848 0)
(0.921875 0.497288 0)
(-0.0766832 0.167417 0)
(0.110606 0.0261596 0)
(0.163735 0.0227916 0)
(0.161398 0.0155461 0)
(0.162864 -0.0293617 0)
(0.196489 -0.080407 0)
(0.211274 -0.125537 0)
(0.205366 -0.158269 0)
(0.1851 -0.173973 0)
(0.155596 -0.171667 0)
(0.121098 -0.15397 0)
(0.0853045 -0.124273 0)
(0.0523778 -0.0880691 0)
(0.024468 -0.0510427 0)
(0.00511173 -0.0219002 0)
(-0.00464617 -0.00440404 0)
(-0.00657776 0.00177338 0)
(-0.00646155 0.000666734 0)
(-0.00766384 -0.00366578 0)
(-0.0109653 -0.00802068 0)
(-0.0154635 -0.0110911 0)
(-0.0200951 -0.0128646 0)
(-0.0239563 -0.0137022 0)
(-0.0263357 -0.0141534 0)
(-0.0272252 -0.0149033 0)
(-0.027188 -0.0158854 0)
(-0.0266057 -0.0165967 0)
(-0.025478 -0.0165084 0)
(-0.0234985 -0.0150431 0)
(-0.0198729 -0.0114698 0)
(-0.0117203 -0.00491144 0)
(-0.000105267 0.00445913 0)
(0.0110763 0.013763 0)
(0.02268 0.0208691 0)
(0.0398926 0.0277413 0)
(0.0554261 0.0224434 0)
(0.0795689 0.00564855 0)
(0.146407 0.0479753 0)
(-0.428341 0.212664 0)
(1.06591 0.444168 0)
(0.518239 0.298303 0)
(0.529534 0.249859 0)
(0.518392 0.182905 0)
(0.469839 0.122438 0)
(0.43316 0.0601127 0)
(0.392051 -0.00742222 0)
(0.342849 -0.0669758 0)
(0.289093 -0.107855 0)
(0.232757 -0.126604 0)
(0.175376 -0.125094 0)
(0.11892 -0.10891 0)
(0.065474 -0.0822846 0)
(0.0202517 -0.0512542 0)
(-0.016095 -0.0208149 0)
(-0.0329504 -0.00603202 0)
(-0.0401344 0.000470147 0)
(-0.0416856 0.00222255 0)
(-0.042064 0.00101289 0)
(-0.0432077 -0.00164026 0)
(-0.045838 -0.00452467 0)
(-0.0494873 -0.00706269 0)
(-0.0535099 -0.00915612 0)
(-0.0573727 -0.0108854 0)
(-0.0608192 -0.0123865 0)
(-0.0640122 -0.0137653 0)
(-0.0673555 -0.0148606 0)
(-0.0712242 -0.0153141 0)
(-0.0759716 -0.014641 0)
(-0.0820706 -0.0121882 0)
(-0.090213 -0.00711858 0)
(-0.101123 0.00142651 0)
(-0.112756 0.013322 0)
(-0.127987 0.0284149 0)
(-0.152909 0.0467854 0)
(-0.190233 0.0673937 0)
(-0.241634 0.0862239 0)
(-0.297565 0.0999141 0)
(-0.371649 0.106905 0)
(-0.650668 0.106295 0)
(0.233928 0.0528313 0)
(0.305892 0.115961 0)
(0.321219 0.0913644 0)
(0.299646 0.039575 0)
(0.275051 -0.0106042 0)
(0.244393 -0.0469388 0)
(0.203106 -0.0684088 0)
(0.154013 -0.0754096 0)
(0.100447 -0.0686964 0)
(0.0461763 -0.0529171 0)
(-0.00861797 -0.0295103 0)
(-0.0451309 -0.0114719 0)
(-0.0635957 -0.00309343 0)
(-0.0709197 -0.000711364 0)
(-0.0731442 -0.000251194 0)
(-0.0734579 -0.000960095 0)
(-0.07376 -0.00256675 0)
(-0.0749017 -0.00466645 0)
(-0.0771191 -0.0067622 0)
(-0.080374 -0.00855368 0)
(-0.0841671 -0.0100291 0)
(-0.0882732 -0.0111528 0)
(-0.0927033 -0.0119289 0)
(-0.0976106 -0.0123214 0)
(-0.103145 -0.012143 0)
(-0.109339 -0.0110492 0)
(-0.11606 -0.00857059 0)
(-0.122964 -0.00416304 0)
(-0.129428 0.00273466 0)
(-0.134402 0.0123343 0)
(-0.13837 0.0256165 0)
(-0.141806 0.0431795 0)
(-0.146017 0.0642236 0)
(-0.15177 0.0850532 0)
(-0.155356 0.095549 0)
(-0.141299 0.0734018 0)
(-0.110237 -0.0250098 0)
(-0.286612 -0.213743 0)
(0.120031 0.324334 0)
(0.00839123 0.20359 0)
(0.0392648 0.118446 0)
(0.0584784 0.0604307 0)
(0.063126 0.02162 0)
(0.0601115 -0.00478886 0)
(0.0401991 -0.01991 0)
(0.00542471 -0.0189499 0)
(-0.0365916 -0.00172635 0)
(-0.070111 0.0128694 0)
(-0.0912251 0.0208752 0)
(-0.100236 0.0232648 0)
(-0.102445 0.0233928 0)
(-0.102377 0.023438 0)
(-0.101496 0.0241364 0)
(-0.100462 0.0252504 0)
(-0.0997434 0.0263854 0)
(-0.0996219 0.027133 0)
(-0.100151 0.0270664 0)
(-0.101294 0.0258527 0)
(-0.103088 0.0238299 0)
(-0.105465 0.0215968 0)
(-0.10836 0.0194259 0)
(-0.111683 0.0174659 0)
(-0.115296 0.0158222 0)
(-0.118984 0.0146061 0)
(-0.122436 0.0139556 0)
(-0.12517 0.014028 0)
(-0.126368 0.0155197 0)
(-0.124862 0.0198884 0)
(-0.119074 0.0282954 0)
(-0.107617 0.0417406 0)
(-0.0903497 0.0602419 0)
(-0.0683148 0.0804264 0)
(-0.0434438 0.0948382 0)
(-0.00757949 0.085776 0)
(0.14694 0.00930278 0)
(-0.209929 -0.129685 0)
(-0.422116 -0.516027 0)
(-0.637316 -0.143276 0)
(-0.449397 0.177756 0)
(-0.357935 0.056077 0)
(-0.213902 -0.00554101 0)
(-0.145616 -0.0477886 0)
(-0.117175 -0.0705332 0)
(-0.112996 -0.071352 0)
(-0.122354 -0.0626758 0)
(-0.134867 -0.0549641 0)
(-0.140351 -0.0504928 0)
(-0.138593 -0.0490456 0)
(-0.134129 -0.049917 0)
(-0.128935 -0.0527221 0)
(-0.124454 -0.0562357 0)
(-0.120991 -0.0598719 0)
(-0.118176 -0.0635075 0)
(-0.115751 -0.0671856 0)
(-0.113669 -0.0707604 0)
(-0.112006 -0.0737625 0)
(-0.110904 -0.0755596 0)
(-0.110531 -0.0757196 0)
(-0.110982 -0.0743373 0)
(-0.11221 -0.0719956 0)
(-0.114036 -0.0689247 0)
(-0.116237 -0.0652826 0)
(-0.118532 -0.0610936 0)
(-0.120554 -0.0562838 0)
(-0.121823 -0.0506371 0)
(-0.121704 -0.0438067 0)
(-0.119183 -0.0358182 0)
(-0.112351 -0.0266926 0)
(-0.0984041 -0.0158851 0)
(-0.0748428 -0.00248789 0)
(-0.0415491 0.0143633 0)
(0.00931906 0.0362846 0)
(0.0618681 0.0423463 0)
(0.1096 0.0240431 0)
(0.172059 -0.0159441 0)
(-0.19629 -0.0826858 0)
)
;

boundaryField
{
    floor
    {
        type            noSlip;
    }
    ceiling
    {
        type            noSlip;
    }
    sWall
    {
        type            noSlip;
    }
    nWall
    {
        type            noSlip;
    }
    sideWalls
    {
        type            empty;
    }
    glass1
    {
        type            noSlip;
    }
    glass2
    {
        type            noSlip;
    }
    sun
    {
        type            noSlip;
    }
    Table_master
    {
        type            noSlip;
    }
    Table_slave
    {
        type            noSlip;
    }
    inlet
    {
        type            fixedValue;
        value           uniform (0.46194 -0.191342 0);
    }
    outlet
    {
        type            zeroGradient;
    }
}


// ************************************************************************* //
