/*--------------------------------*- C++ -*----------------------------------*\
  =========                 |
  \\      /  F ield         | OpenFOAM: The Open Source CFD Toolbox
   \\    /   O peration     | Website:  https://openfoam.org
    \\  /    A nd           | Version:  6
     \\/     M anipulation  |
\*---------------------------------------------------------------------------*/
FoamFile
{
    version     2.0;
    format      ascii;
    class       surfaceScalarField;
    location    "28499.9999983717826";
    object      phi;
}
// * * * * * * * * * * * * * * * * * * * * * * * * * * * * * * * * * * * * * //

dimensions      [1 0 -1 0 0 0 0];

internalField   nonuniform List<scalar> 
1482
(
-0.00279977
0.0028638
-0.00348394
0.000684175
-0.00414453
0.000660591
-0.00475849
0.000613961
-0.00527974
0.000521248
-0.00569155
0.000411809
-0.00598271
0.000291162
-0.00614018
0.000157469
-0.00614663
6.44505e-06
-0.00597606
-0.000170569
-0.00559848
-0.000377572
-0.0049828
-0.000615681
-0.00405875
-0.000924053
-0.00258002
-0.00147872
-0.0025771
-6.42844e-05
6.91389e-05
0.000780594
-0.000844878
0.00143429
-0.000653696
0.00183492
-0.00040063
0.00205759
-0.00022267
0.00216237
-0.000104786
0.00220962
-4.72466e-05
0.00223231
-2.26926e-05
0.00224205
-9.73569e-06
0.00224299
-9.39055e-07
0.00223596
7.02371e-06
0.00221694
1.90202e-05
0.00217259
4.43552e-05
0.00206966
0.000102931
0.00185266
0.000216993
0.00149452
0.000358148
0.0010219
0.000472621
0.00102833
-0.00204036
0.00507448
-0.00290843
0.00155225
-0.00369415
0.00144631
-0.00434504
0.00126485
-0.00488213
0.00105834
-0.00531075
0.000840427
-0.00562914
0.000609552
-0.00583053
0.000358859
-0.00590425
8.01687e-05
-0.00584245
-0.000232368
-0.00563927
-0.000580752
-0.00528334
-0.000971615
-0.00477343
-0.00143396
-0.00428758
-0.00196457
-0.00470361
-0.00216108
-0.00311753
-0.00158064
-0.00163456
-0.00147729
-0.00161971
0.00131781
-0.00123846
0.00166244
-0.00118951
0.001915
-0.000906254
0.00210729
-0.000592911
0.00221568
-0.000331061
0.00222488
-0.000113991
0.00222687
-4.92348e-05
0.00222844
-2.42615e-05
0.00222933
-1.06303e-05
0.00222929
-8.98373e-07
0.00222791
8.40384e-06
0.00222371
2.32233e-05
0.00221106
5.7005e-05
0.00214905
0.000164937
0.00189918
0.000466866
0.00146914
0.000788188
0.00090436
0.0010374
0.00194958
-0.00148824
0.00682064
-0.00235909
0.0024231
-0.00312896
0.00221618
-0.00371304
0.00184892
-0.00418353
0.00152884
-0.00455481
0.00121171
-0.00482871
0.000883454
-0.00500203
0.000532175
-0.00506837
0.000146508
-0.00501864
-0.000282094
-0.00484206
-0.000757335
-0.00453112
-0.00128256
-0.00411656
-0.00184852
-0.00371907
-0.00236207
-0.00329862
-0.00258153
-0.00236724
-0.00251202
-0.00127342
-0.0025711
-0.0028803
0.00115096
-0.00237497
0.00165455
-0.0016931
0.00195323
-0.00120493
0.00214671
-0.000786386
0.00217828
-0.000362637
0.00206445
0.00201537
0.00199126
0.00198078
0.00198004
0.0019886
0.00201197
0.00206913
0.00223422
0.00187598
0.000825111
0.00142793
0.00123623
0.00080717
0.00165817
0.00278277
-0.00110606
0.00825789
-0.00192794
0.00324499
-0.00256988
0.00285812
-0.00303009
0.00230913
-0.00339746
0.00189621
-0.00368606
0.00150031
-0.00389893
0.00109632
-0.00403424
0.000667489
-0.00408451
0.000196781
-0.00403656
-0.000330051
-0.00387804
-0.000915851
-0.00360477
-0.00155583
-0.00323926
-0.00221403
-0.00281732
-0.00278401
-0.0022779
-0.00312096
-0.00155824
-0.00323168
-0.000870082
-0.00325926
-0.000690357
-0.00306003
0.00144621
-0.00212112
0.00137788
-0.00230665
0.00169329
-0.00200851
0.00200574
-0.00151738
0.00227186
-0.00105251
0.00254725
-0.000638018
0.00286318
-0.000316087
0.00303181
-0.000168788
0.00309781
-6.61516e-05
0.00308174
1.59168e-05
0.00299243
8.91571e-05
0.00283093
0.000161349
0.00258947
0.0002413
0.00224517
0.000344146
0.00174072
0.0005043
0.00160468
0.000961155
0.00127783
0.00156308
0.000751287
0.0021847
0.00356835
-0.000803772
0.00945485
-0.00157991
0.00402112
-0.00204848
0.00332668
-0.00236408
0.00262473
-0.00260829
0.00214042
-0.00279363
0.00168565
-0.00292513
0.00122782
-0.00300354
0.000745904
-0.00302235
0.000215587
-0.00296496
-0.000387441
-0.0028181
-0.00106271
-0.00257474
-0.00179919
-0.00224136
-0.0025474
-0.00182508
-0.0032003
-0.00131991
-0.00362613
-0.000743457
-0.00380813
-0.000212204
-0.00379051
0.000265038
-0.00353728
0.00112612
-0.0029822
0.00149196
-0.00267249
0.00175061
-0.00226716
0.00200287
-0.00176964
0.00223269
-0.00128233
0.00244718
-0.000852512
0.00264944
-0.000518341
0.00276099
-0.000280341
0.00279866
-0.00010382
0.00277408
4.04918e-05
0.00269361
0.000169627
0.00255974
0.000295221
0.00237137
0.000429673
0.00212633
0.000589187
0.00183302
0.000797606
0.00162896
0.00116521
0.0014906
0.00170145
0.00131677
0.00235853
0.002312
0.00257312
0.00134091
0.001006
0.00187593
-0.000506237
0.00199469
-0.000575871
0.0104771
-0.00132478
0.00477004
-0.00158432
0.00358622
-0.00175014
0.00279055
-0.00186398
0.00225426
-0.00193529
0.00175696
-0.00197054
0.00126308
-0.00197407
0.000749429
-0.00194265
0.000184172
-0.00185468
-0.000475417
-0.00170034
-0.00121705
-0.00146962
-0.00202991
-0.00116541
-0.00285161
-0.000793499
-0.00357221
-0.000374066
-0.00404556
6.60559e-05
-0.00424825
0.000471263
-0.00419572
0.000845729
-0.00391174
0.00129671
-0.00343318
0.00159545
-0.00297124
0.00179858
-0.00247029
0.00196998
-0.00194105
0.00212187
-0.00143422
0.002257
-0.000987644
0.00236303
-0.000624371
0.00242274
-0.000340047
0.00243542
-0.000116498
0.00240607
6.98405e-05
0.00233937
0.000236325
0.0022391
0.000395498
0.00210938
0.000559388
0.00195757
0.000740998
0.00179871
0.000956466
0.00170987
0.00125406
0.00177142
0.00163989
0.00199049
0.00213946
0.00224329
0.00232032
0.00175848
0.00149081
0.000833473
0.000418773
0.00292551
-0.000543535
0.0115128
-0.00124375
0.00547026
-0.00119199
0.00353445
-0.00120021
0.00279878
-0.0011924
0.00224645
-0.00115874
0.0017233
-0.0011014
0.00120574
-0.00102616
0.000674191
-0.000927357
8.53689e-05
-0.000778259
-0.000624515
-0.000589031
-0.00140628
-0.000349167
-0.00226977
-6.58097e-05
-0.00313497
0.000238405
-0.00387642
0.000547862
-0.00435501
0.000842701
-0.00454309
0.00110559
-0.0044586
0.00133898
-0.00414513
0.00157075
-0.00366496
0.00173038
-0.00313086
0.00183023
-0.00257014
0.0019004
-0.00201122
0.00195672
-0.00149054
0.00200442
-0.00103534
0.0020382
-0.000658156
0.00205213
-0.000353976
0.00204245
-0.000106815
0.0020096
0.000102684
0.00195645
0.000289479
0.00188662
0.000465328
0.00180531
0.000640693
0.00172132
0.000824993
0.00165039
0.00102739
0.00163721
0.00126724
0.00172898
0.00154812
0.0019503
0.00191814
0.00222038
0.00205024
0.00224156
0.00146962
0.00165876
0.00100157
0.00468711
-0.000483749
0.0125321
-0.00105169
0.0060382
-0.000697553
0.00318031
-0.000636576
0.0027378
-0.000568018
0.00217789
-0.000463054
0.00161833
-0.000333667
0.00107635
-0.000181997
0.000522521
7.69241e-06
-0.000104321
0.000226117
-0.000842941
0.000465954
-0.00164612
0.000723434
-0.00252725
0.000979796
-0.00339132
0.0012076
-0.00410422
0.0014063
-0.00455371
0.00156708
-0.00470387
0.00168473
-0.00457625
0.00176393
-0.00422433
0.00181704
-0.00371807
0.00182719
-0.00314101
0.00180265
-0.00254561
0.00176254
-0.00197111
0.00172189
-0.00144989
0.00168822
-0.00100167
0.00166144
-0.000631378
0.00163737
-0.000329908
0.00161083
-8.02663e-05
0.00157919
0.000134315
0.00154237
0.000326303
0.00150141
0.000506285
0.0014593
0.000682804
0.00142229
0.000862004
0.00140192
0.00104776
0.00142357
0.00124559
0.00152005
0.00145164
0.00174984
0.00168835
0.00207961
0.00172046
0.00222987
0.00131936
0.00172866
0.00150277
0.00678344
0.00297829
0.0101409
0.00202291
0.00699358
0.000869579
0.00433364
0.00037107
0.00323631
0.000214183
0.00233478
0.000270825
0.00156169
0.000425176
0.000922001
0.000639606
0.000308092
0.000899383
-0.000364098
0.00116479
-0.00110835
0.00144351
-0.00192483
0.00171028
-0.00279403
0.00193571
-0.00361675
0.00209569
-0.00426419
0.00218464
-0.00464265
0.00220541
-0.00472463
0.00216692
-0.00453774
0.00208281
-0.00414022
0.00196825
-0.00360352
0.00182887
-0.00300163
0.00167689
-0.00239363
0.00152937
-0.00182359
0.00140109
-0.00132161
0.00130038
-0.000900963
0.00122834
-0.000559342
0.00117983
-0.000281391
0.00114713
-4.75658e-05
0.00112446
0.00015698
0.00110787
0.000342899
0.00109467
0.000519483
0.00108435
0.000693124
0.00107897
0.000867386
0.00108402
0.00104271
0.00111283
0.00121678
0.00118901
0.00137546
0.00137945
0.00149792
0.00173487
0.00136505
0.00187425
0.00117996
0.000547388
0.0028296
0.00771557
0.00403288
0.00624829
0.00366941
0.00735705
0.00254376
0.00545928
0.00189032
0.00388975
0.00153373
0.00269137
0.001389
0.00170642
0.00142313
0.000887874
0.0015981
0.000133119
0.00185079
-0.000616782
0.00212846
-0.00138603
0.00240834
-0.00220471
0.00265296
-0.00303864
0.00282066
-0.00378445
0.00288463
-0.00432816
0.00284193
-0.00459994
0.00270661
-0.0045893
0.00250107
-0.0043322
0.00224963
-0.00388877
0.00197502
-0.0033289
0.00169438
-0.00272099
0.0014251
-0.00212434
0.00118538
-0.00158387
0.000990189
-0.00112642
0.000846125
-0.000756899
0.000751821
-0.000465037
0.000697869
-0.000227439
0.000672698
-2.23945e-05
0.00066683
0.000162848
0.000672756
0.000336973
0.000685055
0.000507184
0.000700273
0.000677906
0.000715601
0.000852058
0.000727747
0.00103056
0.000731604
0.00121292
0.000714008
0.00139306
0.000631186
0.00158074
9.18192e-05
0.00190442
-0.00150304
0.00277467
-0.00277299
0.0040994
0.00504706
0.00241057
0.00400225
0.00330621
0.00646141
0.00325013
0.00551536
0.00303922
0.00410067
0.00284828
0.00288231
0.00272528
0.00182941
0.00271183
0.000901328
0.00280147
4.34772e-05
0.0029642
-0.000779513
0.00317541
-0.00159724
0.00339302
-0.00242231
0.00355684
-0.00320246
0.00361216
-0.00383976
0.00353256
-0.00424855
0.00332374
-0.00439111
0.00301207
-0.00427761
0.002632
-0.00395212
0.00221691
-0.00347368
0.0017964
-0.00290838
0.0013942
-0.00231879
0.00103221
-0.00176235
0.000730801
-0.00128245
0.000504266
-0.000899885
0.000351854
-0.000604488
0.000264229
-0.000377412
0.000224102
-0.000187311
0.000216338
-1.46299e-05
0.000229619
0.000149568
0.00025584
0.000310752
0.000289609
0.000473416
0.00032658
0.000640935
0.00036062
0.000818018
0.000381795
0.00100938
0.000370551
0.00122417
0.000285739
0.00147787
3.4041e-05
0.00183246
-0.00071182
0.00265049
-0.00192227
0.00398519
-0.0022646
0.00444168
0.00289972
0.00145735
0.00273917
0.00274887
0.00516988
0.00343284
0.0048314
0.0037189
0.00381461
0.00381759
0.00278362
0.00384622
0.00180079
0.00388331
0.000864232
0.00395366
-2.68627e-05
0.00406465
-0.000890505
0.00420538
-0.00173797
0.00432423
-0.00254117
0.00435043
-0.00322866
0.00423254
-0.00372188
0.00395863
-0.00397462
0.00355134
-0.00398382
0.0030506
-0.00377686
0.00250022
-0.00340173
0.00193882
-0.00291228
0.00140049
-0.00237005
0.000912359
-0.00183066
0.000502009
-0.001352
0.000189686
-0.000970131
-1.81002e-05
-0.000692099
-0.000137719
-0.000484869
-0.000194957
-0.000320174
-0.00021229
-0.000169977
-0.000203236
-2.36839e-05
-0.000176201
0.000122534
-0.000136311
0.000270862
-8.67245e-05
0.00042383
-3.04046e-05
0.000584616
2.7451e-05
0.000760162
7.64082e-05
0.000960426
9.52406e-05
0.00120533
3.98045e-05
0.0015333
-0.000161768
0.00203407
-0.000535263
0.00302436
-0.00122999
0.00468031
-0.00153662
0.00474859
0.00149351
0.00217264
0.00079252
0.00294232
0.0044002
0.00359236
0.00418136
0.00416275
0.00324422
0.00449083
0.00245554
0.00466585
0.00162578
0.00478379
0.000746292
0.00489008
-0.000133155
0.00499793
-0.000998361
0.00507688
-0.00181693
0.00506124
-0.00252554
0.00489101
-0.00305844
0.00454399
-0.00337485
0.00403927
-0.0034699
0.0034218
-0.00336635
0.00274227
-0.00309733
0.00204892
-0.00270838
0.00137953
-0.00224288
0.000772903
-0.00176342
0.000256418
-0.00131418
-0.00013008
-0.000965505
-0.000380268
-0.000719945
-0.000521326
-0.000551042
-0.000590817
-0.000415378
-0.000617935
-0.000293054
-0.000617009
-0.000170902
-0.000596455
-4.42361e-05
-0.000561309
8.73885e-05
-0.000513653
0.000223206
-0.000454061
0.000364239
-0.000383015
0.00051357
-0.000301252
0.000678399
-0.000212905
0.000872078
-0.000129753
0.00112218
-7.89892e-05
0.00148252
-8.42777e-05
0.00203933
8.62549e-06
0.00293162
0.000297811
0.00439155
0.000476541
0.00457025
0.00210815
-0.00158232
0.00261996
0.00111533
0.00170255
0.00334802
0.00194867
0.00435072
0.00224153
0.00485494
0.00195132
0.00517046
0.00131027
0.00540013
0.00051662
0.00557981
-0.000312844
0.00568034
-0.00109891
0.00563956
-0.00177617
0.00540677
-0.00229278
0.00497052
-0.00262222
0.00435896
-0.00276331
0.00362497
-0.00273591
0.0028283
-0.00256968
0.00201846
-0.00228749
0.00124296
-0.00193288
0.00053216
-0.00153207
-6.47822e-05
-0.00116648
-0.000502231
-0.000876735
-0.000774727
-0.000693016
-0.000928469
-0.000566208
-0.00100985
-0.000469668
-0.00104454
-0.000380684
-0.00104914
-0.000288452
-0.00103268
-0.000187349
-0.0010014
-7.55199e-05
-0.000959712
4.57067e-05
-0.000908317
0.000171813
-0.000845243
0.000301165
-0.000768392
0.000436719
-0.000674776
0.000584783
-0.000562683
0.000759983
-0.000436767
0.00099624
-0.000307751
0.00135342
-0.000142362
0.00187376
0.000233191
0.00255593
0.00101044
0.00361445
0.00145332
0.00412756
0.00370782
0.00288168
0.00456904
0.00486906
0.00164866
0.00535526
0.00175533
0.00559173
0.00171485
0.00582378
0.00107821
0.00601219
0.000328212
0.00607906
-0.000379736
0.00595327
-0.000973156
0.00560191
-0.00142485
0.00503795
-0.00172886
0.00430856
-0.00189285
0.0034721
-0.00192687
0.00258671
-0.00185053
0.00170631
-0.00168928
0.000862877
-0.00144406
9.69884e-05
-0.00116699
-0.000530922
-0.000904169
-0.000976051
-0.000721364
-0.00125289
-0.000599908
-0.00141876
-0.000527165
-0.00151102
-0.000473953
-0.00155672
-0.000423972
-0.00156959
-0.000367806
-0.0015576
-0.000300426
-0.00152647
-0.000218462
-0.00148216
-0.00011981
-0.00143173
-4.72651e-06
-0.00137869
0.00011878
-0.00132136
0.000243828
-0.00125749
0.00037285
-0.00118513
0.000512433
-0.00110295
0.000677812
-0.00100711
0.000900386
-0.000879731
0.00122592
-0.000660282
0.00165397
-0.000167888
0.00206303
0.000937065
0.0025092
0.00154843
0.00351593
0.0054115
0.00793267
0.0053645
0.00581245
0.00387557
0.00556369
0.00196365
0.00563544
0.00100649
0.00559964
0.000364038
0.00535505
-0.000135155
0.00489145
-0.000509583
0.00425023
-0.00078365
0.00348538
-0.000964031
0.00264967
-0.00105716
0.0017841
-0.00106131
0.000924432
-0.000990879
0.000103656
-0.000868516
-0.000621304
-0.000719105
-0.00119229
-0.000596025
-0.00159444
-0.000502036
-0.00186355
-0.000452288
-0.00203323
-0.000430266
-0.00214049
-0.00041993
-0.0022058
-0.000408648
-0.00223934
-0.000390416
-0.00224565
-0.000361466
-0.00222757
-0.000318451
-0.00218829
-0.000257699
-0.00213269
-0.000175378
-0.00206853
-6.88764e-05
-0.00200814
5.83796e-05
-0.00195692
0.000192592
-0.0019139
0.000329815
-0.00188055
0.000479104
-0.00185803
0.000655381
-0.00183874
0.000881215
-0.00179015
0.00117737
-0.00166109
0.0015247
-0.00139288
0.0017943
-0.000852155
0.00196774
-0.000468369
0.00313138
0.00511284
0.00410852
0.00150256
0.00450934
0.00347476
0.0037377
0.00273534
0.00323399
0.00151023
0.00288751
0.000710511
0.00251965
0.000232694
0.00207186
-6.17991e-05
0.00153446
-0.000246257
0.000926157
-0.000355727
0.000263638
-0.00039464
-0.000417366
-0.000380308
-0.00106137
-0.000346879
-0.00161956
-0.000310332
-0.00205924
-0.000279448
-0.00238501
-0.000270287
-0.00261061
-0.000276493
-0.00276916
-0.000293802
-0.00288538
-0.000314096
-0.00297303
-0.000332298
-0.00303647
-0.000345199
-0.00307603
-0.000350801
-0.00309065
-0.000346757
-0.0030794
-0.0003296
-0.00304255
-0.000294441
-0.00298244
-0.000235426
-0.0029044
-0.000146923
-0.00282
-2.60908e-05
-0.00274529
0.000117791
-0.00268808
0.000272525
-0.0026436
0.000434609
-0.00260995
0.000621825
-0.00258621
0.000857718
-0.00256355
0.00115502
-0.0025652
0.00152665
-0.00284314
0.00207239
-0.00376529
0.00288985
-0.00388704
0.00325282
0.00140887
-0.00260119
-0.00676638
-0.0074188
-0.00746442
-0.00375146
-0.00216484
-0.0016732
0.0013965
-0.000759987
0.00182214
-0.000562393
0.00131265
-0.000643042
0.000791168
-0.000827245
0.000416909
-0.0010634
0.000174364
-0.00134589
3.6261e-05
-0.00167676
-2.48266e-05
-0.00203381
-3.75656e-05
-0.00238925
-2.48618e-05
-0.00272233
-1.38025e-05
-0.00300916
-2.35319e-05
-0.00323021
-5.84565e-05
-0.00339567
-0.00010491
-0.00352544
-0.000146813
-0.00363736
-0.00018196
-0.00373862
-0.00021288
-0.00382912
-0.000241799
-0.00390503
-0.000269222
-0.00396136
-0.000294352
-0.00399321
-0.000314747
-0.00399707
-0.000325553
-0.00397204
-0.000319315
-0.00392015
-0.000287219
-0.00384561
-0.00022147
-0.00375369
-0.000118137
-0.00365641
2.02807e-05
-0.00355822
0.000174114
-0.00344567
0.000321879
-0.00330411
0.000480204
-0.00311668
0.000670395
-0.00286259
0.000901212
-0.0025003
0.00116473
-0.00194624
0.00151872
-0.00124547
0.0021894
-0.00080316
0.0028108
0.000794435
-0.0073505
0.00103776
-0.00812472
-0.00669025
-0.00717727
-0.00311233
-0.00565628
-0.000124506
-0.00456393
0.000729802
-0.00397363
0.000722374
-0.00371622
0.000533811
-0.00365083
0.000351574
-0.0036926
0.000216196
-0.0037847
0.000128422
-0.00388579
7.632e-05
-0.00397283
4.9509e-05
-0.00403534
3.76509e-05
-0.00407825
2.90807e-05
-0.00411623
1.4374e-05
-0.00416189
-1.28956e-05
-0.00421956
-4.73471e-05
-0.00428658
-7.98973e-05
-0.00435971
-0.000108893
-0.0044359
-0.000136696
-0.00451227
-0.000165375
-0.00458605
-0.000195311
-0.00465475
-0.000225465
-0.00471607
-0.000253194
-0.00476765
-0.000273723
-0.00480645
-0.000280312
-0.00482787
-0.00026569
-0.0048251
-0.000224261
-0.00478979
-0.000153613
-0.00471495
-5.48905e-05
-0.00459632
5.5092e-05
-0.00442833
0.000153524
-0.0041872
0.000238805
-0.00384316
0.000326222
-0.00336569
0.000423754
-0.00269745
0.000496638
-0.00161176
0.000433265
0.00038113
0.000196757
0.00206267
0.00112953
0.00304166
0.00157961
-0.0050458
-0.00809468
-0.00815946
-0.00737499
-0.00660571
-0.00603169
-0.00564471
-0.00539622
-0.00523727
-0.00513114
-0.00505171
-0.00498352
-0.00492313
-0.00487683
-0.00485744
-0.0048723
-0.0049196
-0.0049959
-0.0051001
-0.00523327
-0.00539688
-0.00559139
-0.00581463
-0.00605958
-0.00631237
-0.00655175
-0.00675072
-0.00687982
-0.00691073
-0.006832
-0.00665506
-0.00639311
-0.00604418
-0.00559839
-0.00508067
-0.00462749
-0.00441208
-0.00326517
)
;

boundaryField
{
    floor
    {
        type            calculated;
        value           nonuniform List<scalar> 
36
(
0
0
0
0
0
0
0
0
0
0
0
0
0
0
0
0
0
0
0
-6.43873e-06
-1.68818e-05
-2.60252e-05
-3.42895e-05
-3.49079e-05
-2.87807e-05
-2.86085e-05
-2.92025e-06
-5.44141e-06
-5.68771e-06
-5.90775e-06
-4.85455e-06
-8.93841e-06
-1.02096e-05
-1.28315e-05
-1.44569e-05
-1.54459e-05
)
;
    }
    ceiling
    {
        type            calculated;
        value           nonuniform List<scalar> 
43
(
-5.7884e-05
-6.48685e-05
-6.34633e-05
-5.97201e-05
-5.4636e-05
-4.68367e-05
-4.01267e-05
-3.53048e-05
-3.21884e-05
-3.04375e-05
-2.97556e-05
-2.98956e-05
-3.05615e-05
-3.13723e-05
-3.20103e-05
-3.23846e-05
-3.25784e-05
-3.26591e-05
-3.26308e-05
-3.24636e-05
-3.21157e-05
-3.15496e-05
-3.07479e-05
-2.97307e-05
-2.8568e-05
-2.73743e-05
-2.62789e-05
-2.53822e-05
-2.47255e-05
-2.42882e-05
-2.40012e-05
-2.3755e-05
-2.34205e-05
-2.28964e-05
-2.21221e-05
-2.10876e-05
-1.98531e-05
-1.85323e-05
-1.72113e-05
-1.62041e-05
1.93311e-05
1.51855e-05
-0.000246577
)
;
    }
    sWall
    {
        type            calculated;
        value           nonuniform List<scalar> 9(-0.000140237 -0.00016453 -0.000194271 -0.000225987 -0.000245118 -0.000281054 -0.000423602 -0.000453703 -0.000483991);
    }
    nWall
    {
        type            calculated;
        value           nonuniform List<scalar> 
14
(
-9.01429e-05
-9.73517e-05
-0.000102841
-0.000104496
-0.000117282
-0.000130331
-0.000137802
-0.000146315
-0.000155582
-0.000170144
-0.000183509
-0.000188297
-0.000184351
-0.000207099
)
;
    }
    sideWalls
    {
        type            empty;
        value           nonuniform 0();
    }
    glass1
    {
        type            calculated;
        value           nonuniform List<scalar> 9(-6.40339e-05 -0.00017032 -0.00025792 -0.000331202 -0.000393183 -0.000446386 -0.000492196 -0.000535477 -0.000587163);
    }
    glass2
    {
        type            calculated;
        value           nonuniform List<scalar> 2(-0.000367657 -0.000384734);
    }
    sun
    {
        type            calculated;
        value           uniform 0;
    }
    Table_master
    {
        type            calculated;
        value           nonuniform List<scalar> 9(-1.53991e-07 -1.54109e-07 -1.54141e-07 -1.54161e-07 -1.54174e-07 -1.54179e-07 -1.54177e-07 -1.54163e-07 -1.54109e-07);
    }
    Table_slave
    {
        type            calculated;
        value           nonuniform List<scalar> 9(1.53661e-07 1.53717e-07 1.53716e-07 1.53733e-07 1.53753e-07 1.53797e-07 1.53864e-07 1.53957e-07 1.54085e-07);
    }
    inlet
    {
        type            calculated;
        value           uniform -0.0116485;
    }
    outlet
    {
        type            calculated;
        value           nonuniform List<scalar> 2(0.00979111 0.012282);
    }
}


// ************************************************************************* //
