/*--------------------------------*- C++ -*----------------------------------*\
  =========                 |
  \\      /  F ield         | OpenFOAM: The Open Source CFD Toolbox
   \\    /   O peration     | Website:  https://openfoam.org
    \\  /    A nd           | Version:  6
     \\/     M anipulation  |
\*---------------------------------------------------------------------------*/
FoamFile
{
    version     2.0;
    format      ascii;
    class       volScalarField;
    location    "3490";
    object      epsilon;
}
// * * * * * * * * * * * * * * * * * * * * * * * * * * * * * * * * * * * * * //

dimensions      [0 2 -3 0 0 0 0];

internalField   nonuniform List<scalar> 
458
(
0.000432798
0.000557902
0.000596576
0.000686362
0.000776642
0.00086911
0.000968717
0.0010773
0.00117186
0.00123401
0.00124116
0.00117482
0.00102234
0.000744263
0.000324955
3.92322e-05
6.32063e-05
9.21108e-05
0.000104417
9.95902e-05
8.16148e-05
6.44045e-05
5.12222e-05
4.13705e-05
3.39151e-05
2.81879e-05
2.37378e-05
2.02074e-05
1.73133e-05
1.48367e-05
1.25996e-05
1.13836e-05
8.83705e-06
0.00106106
0.00158339
0.00051842
0.000502592
0.000518429
0.000550891
0.000606229
0.00068842
0.000779655
0.00085387
0.000881962
0.00084773
0.000756828
0.000623965
0.000502
0.00074734
0.00042675
0.00023178
3.82919e-05
7.53652e-05
9.27343e-05
9.34141e-05
8.97156e-05
9.00217e-05
7.0548e-05
5.34846e-05
4.07993e-05
3.15311e-05
2.47361e-05
1.97185e-05
1.59641e-05
1.31656e-05
1.14037e-05
1.06881e-05
3.04936e-05
2.00771e-05
0.00190708
0.00384816
0.000603728
0.000458255
0.000465981
0.0005081
0.00058038
0.000683558
0.000797004
0.000884229
0.000917896
0.000887809
0.000801905
0.0006671
0.000517574
0.000416358
0.000353007
0.000381831
0.000139946
0.000139209
0.000125551
0.000111488
0.000103494
0.000198143
0.000132963
9.11228e-05
6.45175e-05
4.72796e-05
3.58078e-05
2.7983e-05
2.25614e-05
1.88656e-05
1.48258e-05
1.31276e-05
6.48857e-05
3.31352e-05
0.00306318
0.00799447
0.000903766
0.000438969
0.000429204
0.000481209
0.00057492
0.000717872
0.000862531
0.00095789
0.000989117
0.00095281
0.000855165
0.000703274
0.000548467
0.000432321
0.00036583
0.000380474
0.000583838
0.000375799
0.000245135
0.000178242
0.000140441
0.000122967
0.000283206
0.000218131
0.00018006
0.000154998
0.000135715
0.00011822
0.00010305
8.8494e-05
7.32981e-05
4.53968e-05
2.92889e-05
0.000114643
5.06223e-05
0.0046497
0.014428
0.00174036
0.000470834
0.00039559
0.00045155
0.000588832
0.000832739
0.00101848
0.00111178
0.00112827
0.00106914
0.000937382
0.000753685
0.00056484
0.000420042
0.000331645
0.000302668
0.000303803
0.000253572
0.000209349
0.000175087
0.000146268
0.000122041
0.000113037
0.000103788
9.75201e-05
9.21777e-05
8.61844e-05
7.87591e-05
7.08776e-05
6.31504e-05
5.58977e-05
4.60254e-05
3.61877e-05
7.47626e-05
0.000114606
0.000120974
0.000143505
0.000184282
0.00687176
0.021736
0.00400159
0.000790667
0.000465045
0.000474005
0.000700618
0.00111971
0.00130606
0.00136571
0.00134338
0.00124593
0.00106705
0.000825143
0.000577575
0.000388673
0.000278779
0.000238476
0.000228178
0.000218191
0.000201087
0.000176721
0.000149259
0.000123722
0.000107298
0.000100882
9.97283e-05
9.93273e-05
9.71906e-05
9.16544e-05
8.17028e-05
7.04418e-05
5.97974e-05
5.01407e-05
4.34344e-05
5.55232e-05
8.83481e-05
0.00010613
0.000206707
0.000205618
0.0096604
0.0261944
0.00879548
0.00280033
0.00145406
0.00114084
0.00148281
0.0017264
0.00178584
0.00174897
0.00164959
0.00148324
0.00122974
0.000907978
0.000588145
0.000355825
0.000234434
0.000200158
0.000202319
0.000202966
0.000189988
0.000166809
0.000141301
0.000120173
0.000109042
0.000108528
0.000113643
0.000120134
0.000125709
0.000128159
0.000124078
0.00011107
9.74733e-05
8.59192e-05
8.04312e-05
8.87089e-05
0.000120572
0.000176759
0.000327312
0.000344784
0.0104475
0.0301002
0.0160957
0.00965278
0.00597005
0.00418045
0.0033835
0.00287596
0.00253814
0.00228113
0.00203895
0.00176077
0.00139706
0.000968287
0.000561289
0.000300433
0.000190358
0.000174358
0.000179611
0.000177095
0.000162184
0.000141936
0.000124113
0.000113525
0.000112222
0.000119058
0.000131173
0.000146861
0.00016576
0.000187753
0.000212051
0.000232934
0.000245997
0.000273123
0.000329076
0.00048007
0.000820523
0.00137763
0.00411035
0.00128189
0.00984347
0.0172564
0.0132407
0.00999031
0.00750808
0.00579393
0.00458954
0.00379061
0.00325089
0.00282343
0.00242651
0.00200606
0.00148356
0.000913937
0.000407001
0.000216066
0.000158863
0.000147516
0.000144443
0.00013692
0.000124589
0.000112488
0.000104968
0.000104105
0.000109947
0.000121519
0.000138068
0.0001599
0.000188371
0.000225732
0.000275053
0.000339947
0.000427258
0.000551983
0.000734099
0.000976843
0.00125106
0.00149864
0.00170332
0.00104489
0.00347909
0.00472053
0.00512304
0.00502772
0.00473229
0.00431893
0.00378249
0.00315713
0.00254692
0.00194784
0.00116388
0.000536653
0.0002546
0.000159707
0.000129176
0.000118205
0.000110938
0.000103126
9.54792e-05
8.99925e-05
8.84653e-05
9.13252e-05
9.81835e-05
0.000108632
0.000122683
0.000140911
0.000164565
0.000195768
0.000237994
0.000297015
0.000378476
0.000488603
0.000629973
0.0007865
0.000911364
0.000944849
0.000871223
0.000544327
0.00289522
0.0086198
0.0082799
0.00717093
0.00607325
0.00478808
0.00347729
0.00225644
0.00128258
0.00070993
0.000375254
0.000215445
0.000151303
0.000124233
0.000111155
0.000102266
9.42775e-05
8.71041e-05
8.17546e-05
7.89698e-05
7.9037e-05
8.20668e-05
8.80169e-05
9.70666e-05
0.000109733
0.000126933
0.000150053
0.000181164
0.000223231
0.000280006
0.000356645
0.000458325
0.000585891
0.000728723
0.000842183
0.000956435
0.000733697
0.000565781
0.00336779
0.00362365
0.00386705
0.00532556
0.00449791
0.00313084
0.00187987
0.00115779
0.000823425
0.000572118
0.000398374
0.000290026
0.000215313
0.00016813
0.000139755
0.000121177
0.000107492
9.65744e-05
8.81384e-05
8.27334e-05
8.07762e-05
8.22471e-05
8.6706e-05
9.35487e-05
0.000102698
0.000114289
0.000128657
0.00014641
0.000168502
0.000196567
0.000232087
0.000276413
0.000331704
0.000400637
0.000486205
0.000603835
0.000660786
0.000621023
0.000499744
0.000395349
)
;

boundaryField
{
    floor
    {
        Cmu             0.09;
        kappa           0.41;
        E               9.8;
        type            epsilonWallFunction;
        value           nonuniform List<scalar> 
36
(
0.000324955
3.92322e-05
6.32063e-05
9.21108e-05
0.000104417
9.95902e-05
8.16148e-05
6.44045e-05
5.12222e-05
4.13705e-05
3.39151e-05
2.81879e-05
2.37378e-05
2.02074e-05
1.73133e-05
1.48367e-05
1.25996e-05
1.13836e-05
8.83705e-06
8.83705e-06
2.00771e-05
3.31352e-05
5.06223e-05
0.000120974
0.000143505
0.000184282
0.000324955
0.00074734
0.00042675
0.00023178
3.92322e-05
0.00023178
3.82919e-05
0.000381831
0.000139946
0.000583838
)
;
    }
    ceiling
    {
        Cmu             0.09;
        kappa           0.41;
        E               9.8;
        type            epsilonWallFunction;
        value           nonuniform List<scalar> 
43
(
0.00336779
0.00362365
0.00386705
0.00532556
0.00449791
0.00313084
0.00187987
0.00115779
0.000823425
0.000572118
0.000398374
0.000290026
0.000215313
0.00016813
0.000139755
0.000121177
0.000107492
9.65744e-05
8.81384e-05
8.27334e-05
8.07762e-05
8.22471e-05
8.6706e-05
9.35487e-05
0.000102698
0.000114289
0.000128657
0.00014641
0.000168502
0.000196567
0.000232087
0.000276413
0.000331704
0.000400637
0.000486205
0.000603835
0.000660786
0.000621023
0.000499744
0.000395349
0.00984347
0.0172564
0.00289522
)
;
    }
    sWall
    {
        Cmu             0.09;
        kappa           0.41;
        E               9.8;
        type            epsilonWallFunction;
        value           uniform 0.00336779;
    }
    nWall
    {
        Cmu             0.09;
        kappa           0.41;
        E               9.8;
        type            epsilonWallFunction;
        value           nonuniform List<scalar> 6(0.000184282 0.000205618 0.000344784 0.000544327 0.000565781 0.000395349);
    }
    sideWalls
    {
        type            empty;
    }
    glass1
    {
        Cmu             0.09;
        kappa           0.41;
        E               9.8;
        type            epsilonWallFunction;
        value           nonuniform List<scalar> 9(0.000432798 0.00106106 0.00190708 0.00306318 0.0046497 0.00687176 0.0096604 0.0104475 0.00984347);
    }
    glass2
    {
        Cmu             0.09;
        kappa           0.41;
        E               9.8;
        type            epsilonWallFunction;
        value           nonuniform List<scalar> 2(0.00128189 0.00104489);
    }
    sun
    {
        Cmu             0.09;
        kappa           0.41;
        E               9.8;
        type            epsilonWallFunction;
        value           nonuniform List<scalar> 
14
(
0.000432798
0.000557902
0.000596576
0.000686362
0.000776642
0.00086911
0.000968717
0.0010773
0.00117186
0.00123401
0.00124116
0.00117482
0.00102234
0.000744263
)
;
    }
    Table_master
    {
        Cmu             0.09;
        kappa           0.41;
        E               9.8;
        type            epsilonWallFunction;
        value           nonuniform List<scalar> 9(0.000198143 0.000132963 9.11228e-05 6.45175e-05 4.72796e-05 3.58078e-05 2.7983e-05 2.25614e-05 1.88656e-05);
    }
    Table_slave
    {
        Cmu             0.09;
        kappa           0.41;
        E               9.8;
        type            epsilonWallFunction;
        value           nonuniform List<scalar> 9(0.000283206 0.000218131 0.00018006 0.000154998 0.000135715 0.00011822 0.00010305 8.8494e-05 7.32981e-05);
    }
    inlet
    {
        type            turbulentMixingLengthDissipationRateInlet;
        mixingLength    0.01;
        phi             phi;
        k               k;
        value           uniform 0.000471672;
    }
    outlet
    {
        type            zeroGradient;
    }
}


// ************************************************************************* //
