/*--------------------------------*- C++ -*----------------------------------*\
  =========                 |
  \\      /  F ield         | OpenFOAM: The Open Source CFD Toolbox
   \\    /   O peration     | Website:  https://openfoam.org
    \\  /    A nd           | Version:  6
     \\/     M anipulation  |
\*---------------------------------------------------------------------------*/
FoamFile
{
    version     2.0;
    format      ascii;
    class       volScalarField;
    location    "3490";
    object      k;
}
// * * * * * * * * * * * * * * * * * * * * * * * * * * * * * * * * * * * * * //

dimensions      [0 2 -2 0 0 0 0];

internalField   nonuniform List<scalar> 
458
(
0.00226773
0.002686
0.00280874
0.00308392
0.00334874
0.00360953
0.00388031
0.0041651
0.0044054
0.00455981
0.0045774
0.0044128
0.00402221
0.00325501
0.00187334
0.000457611
0.00062889
0.000808367
0.000878849
0.000851554
0.000745729
0.000636813
0.000546647
0.000474091
0.00041527
0.000367094
0.000327362
0.000294041
0.000265249
0.000239309
0.000214605
0.000200564
0.00016941
0.00412315
0.00755264
0.00415031
0.00437424
0.00471604
0.00513526
0.00563213
0.00619633
0.00680022
0.00731257
0.00758792
0.00753071
0.00712355
0.00635467
0.00513883
0.00326398
0.00224656
0.0014955
0.00045027
0.000973123
0.00130321
0.0014583
0.00147264
0.00125931
0.0010243
0.000833975
0.000688715
0.000577303
0.000490655
0.000421509
0.000364693
0.000317431
0.000283503
0.000264379
0.00049391
0.000292776
0.0060951
0.0136498
0.0049114
0.00472493
0.00494147
0.00528573
0.00575045
0.00634037
0.00699321
0.00754978
0.0078917
0.00794898
0.00769264
0.00706014
0.00603669
0.00488804
0.00391829
0.002086
0.00106833
0.00139967
0.00160351
0.00173029
0.0017227
0.00134706
0.0010325
0.000802576
0.000637558
0.000518224
0.000430579
0.000365312
0.000316455
0.000280876
0.000262122
0.000265438
0.000780389
0.000408878
0.00835956
0.0222367
0.00592691
0.00470725
0.0047467
0.0050166
0.00547373
0.00616801
0.00689195
0.00746234
0.00783296
0.0079527
0.00774747
0.00714502
0.00628638
0.00543512
0.00463182
0.00349998
0.00276862
0.00250674
0.00237392
0.00233795
0.00228932
0.00215161
0.00170924
0.00143619
0.0012638
0.00114363
0.00104669
0.000954687
0.000871165
0.000787065
0.000694166
0.000530214
0.000422746
0.00113249
0.00054237
0.0110412
0.0339576
0.00842364
0.00474991
0.00448305
0.00470824
0.00529961
0.00635505
0.00718493
0.00773939
0.00809485
0.00819685
0.00790001
0.00718221
0.00621583
0.00530901
0.0045795
0.00397828
0.00379452
0.00347936
0.00325239
0.00307051
0.00285905
0.00259012
0.00230259
0.00210654
0.00198652
0.00189183
0.00178979
0.00166103
0.00149184
0.0012991
0.00109385
0.000865684
0.000664765
0.000922205
0.00106384
0.000969456
0.00108637
0.00128348
0.0143256
0.0466888
0.0149489
0.00592281
0.00474231
0.00478318
0.00570722
0.00726645
0.00803161
0.00847399
0.00873816
0.00874714
0.00831969
0.00737824
0.00612402
0.00496571
0.00418322
0.00384125
0.00381363
0.00382269
0.0037315
0.00350837
0.00318882
0.00283448
0.0025475
0.00239508
0.00232148
0.00226289
0.00218484
0.00206506
0.00187828
0.0016488
0.00140027
0.00114674
0.000935558
0.000900667
0.00103002
0.00105444
0.00165137
0.00138073
0.0179776
0.0550456
0.0270743
0.0123577
0.00830703
0.00741124
0.00850382
0.00920886
0.00948518
0.00964492
0.00972899
0.00958282
0.00894642
0.00770859
0.00610942
0.00469821
0.00388627
0.00373531
0.00389766
0.00398216
0.00385311
0.00354993
0.00317052
0.00281149
0.00256711
0.00246828
0.00245144
0.00245676
0.00245469
0.00242428
0.00233575
0.00214701
0.00191042
0.00165883
0.00145713
0.00136452
0.0014509
0.00168145
0.00223389
0.0019488
0.0189413
0.0568501
0.0383021
0.0271706
0.019741
0.0158798
0.0137247
0.0122881
0.0115359
0.0112118
0.0110092
0.0106094
0.00964613
0.00799437
0.00597378
0.00439195
0.00367695
0.00365496
0.00377945
0.0037498
0.0035165
0.00316979
0.00281983
0.00255033
0.00240793
0.00238367
0.0024313
0.00251746
0.00263039
0.00276731
0.00292562
0.0030669
0.00310916
0.003139
0.00329214
0.00386918
0.00511975
0.00681607
0.0128318
0.00467701
0.018204
0.0264668
0.0243623
0.0217106
0.0188863
0.0164643
0.0146538
0.0135901
0.0130861
0.012767
0.0123561
0.0115953
0.0100706
0.00776848
0.00515883
0.00385714
0.00340213
0.00330912
0.00325259
0.00309091
0.00282306
0.00252744
0.00228241
0.00213418
0.00208889
0.00212324
0.00220959
0.00233308
0.00249007
0.0026817
0.00290935
0.00317117
0.00348968
0.00390104
0.00444806
0.00509779
0.0056969
0.00606903
0.00624809
0.00408114
0.00718456
0.0110953
0.0135431
0.0147731
0.0154366
0.015707
0.0153762
0.0144498
0.0132102
0.0115849
0.00880998
0.00585902
0.00403631
0.00322546
0.00288131
0.00270022
0.00252793
0.00231818
0.00209088
0.00188811
0.00175207
0.00169317
0.00169793
0.00174775
0.00182983
0.0019393
0.00207753
0.00225115
0.00247287
0.00276577
0.00313121
0.00356696
0.00405088
0.00449034
0.00471248
0.00457266
0.00410659
0.00264226
0.00805112
0.0194682
0.0216075
0.0214974
0.0207249
0.0184743
0.0153358
0.0120142
0.00883199
0.00623525
0.00435102
0.00326391
0.00271632
0.00241274
0.00221107
0.00203305
0.00184828
0.00166528
0.00150956
0.00139915
0.00133841
0.00132646
0.00135521
0.00141897
0.00151613
0.00164811
0.00181816
0.0020306
0.00229591
0.00262429
0.0030243
0.0034967
0.00401522
0.00451208
0.00481674
0.00510135
0.00428717
0.00271123
0.00890496
0.00935044
0.0097646
0.0120868
0.0107996
0.00848221
0.00603699
0.00437006
0.00348191
0.00273144
0.00214583
0.00173657
0.0014238
0.00120735
0.00106737
0.000970544
0.000896021
0.000834275
0.000784955
0.000752527
0.000740611
0.000749575
0.000776427
0.000816757
0.000869177
0.000933407
0.00101008
0.00110099
0.00120913
0.00133991
0.00149682
0.0016818
0.00189919
0.00215395
0.00245065
0.00283148
0.00300683
0.00288496
0.00249594
0.00213495
)
;

boundaryField
{
    floor
    {
        type            kqRWallFunction;
        value           nonuniform List<scalar> 
36
(
0.00187334
0.000457611
0.00062889
0.000808367
0.000878849
0.000851554
0.000745729
0.000636813
0.000546647
0.000474091
0.00041527
0.000367094
0.000327362
0.000294041
0.000265249
0.000239309
0.000214605
0.000200564
0.00016941
0.00016941
0.000292776
0.000408878
0.00054237
0.000969456
0.00108637
0.00128348
0.00187334
0.00326398
0.00224656
0.0014955
0.000457611
0.0014955
0.00045027
0.002086
0.00106833
0.00276862
)
;
    }
    ceiling
    {
        type            kqRWallFunction;
        value           nonuniform List<scalar> 
43
(
0.00890496
0.00935044
0.0097646
0.0120868
0.0107996
0.00848221
0.00603699
0.00437006
0.00348191
0.00273144
0.00214583
0.00173657
0.0014238
0.00120735
0.00106737
0.000970544
0.000896021
0.000834275
0.000784955
0.000752527
0.000740611
0.000749575
0.000776427
0.000816757
0.000869177
0.000933407
0.00101008
0.00110099
0.00120913
0.00133991
0.00149682
0.0016818
0.00189919
0.00215395
0.00245065
0.00283148
0.00300683
0.00288496
0.00249594
0.00213495
0.018204
0.0264668
0.00805112
)
;
    }
    sWall
    {
        type            kqRWallFunction;
        value           uniform 0.00890496;
    }
    nWall
    {
        type            kqRWallFunction;
        value           nonuniform List<scalar> 6(0.00128348 0.00138073 0.0019488 0.00264226 0.00271123 0.00213495);
    }
    sideWalls
    {
        type            empty;
    }
    glass1
    {
        type            kqRWallFunction;
        value           nonuniform List<scalar> 9(0.00226773 0.00412315 0.0060951 0.00835956 0.0110412 0.0143256 0.0179776 0.0189413 0.018204);
    }
    glass2
    {
        type            kqRWallFunction;
        value           nonuniform List<scalar> 2(0.00467701 0.00408114);
    }
    sun
    {
        type            kqRWallFunction;
        value           nonuniform List<scalar> 
14
(
0.00226773
0.002686
0.00280874
0.00308392
0.00334874
0.00360953
0.00388031
0.0041651
0.0044054
0.00455981
0.0045774
0.0044128
0.00402221
0.00325501
)
;
    }
    Table_master
    {
        type            kqRWallFunction;
        value           nonuniform List<scalar> 9(0.00134706 0.0010325 0.000802576 0.000637558 0.000518224 0.000430579 0.000365312 0.000316455 0.000280876);
    }
    Table_slave
    {
        type            kqRWallFunction;
        value           nonuniform List<scalar> 9(0.00170924 0.00143619 0.0012638 0.00114363 0.00104669 0.000954687 0.000871165 0.000787065 0.000694166);
    }
    inlet
    {
        type            turbulentIntensityKineticEnergyInlet;
        intensity       0.05;
        value           uniform 0.000937501;
    }
    outlet
    {
        type            zeroGradient;
    }
}


// ************************************************************************* //
