/*--------------------------------*- C++ -*----------------------------------*=========                 |
  \      /  F ield         | OpenFOAM: The Open Source CFD Toolbox
   \    /   O peration     | Website:  https://openfoam.org
    \  /    A nd           | Version:  6
     \/     M anipulation  |
\*---------------------------------------------------------------------------*/
FoamFile
{
    version     2.0;
    format      ascii;
    class       volScalarField;
    location    "700";
    object      PMV;
}
// * * * * * * * * * * * * * * * * * * * * * * * * * * * * * * * * * * * * * //

dimensions      [0 0 0 0 0 0 0];

internalField   nonuniform List<scalar> 
458
(
1.3228589440759273
1.0769610296459393
1.044344817103852
1.0154023347528063
0.9968677724577605
0.9881515865666362
0.9911198592346633
1.0052501376276306
1.0343413764203206
1.0822329538400588
1.1527020883494663
1.2235768341380924
1.2393315570382513
1.2474473142492046
1.2598592209357764
1.3739252514566773
1.360564790559715
1.3567473602151636
1.363427818308951
1.3681994445939205
1.3720166668419518
1.367668855117453
1.36389449732638
1.364430188751881
1.3668212064309644
1.3693686665433853
1.3726657101534745
1.3770531153363135
1.3835291634959859
1.3948331940538659
1.403028907893935
1.407322519794439
1.42115681713929
1.2557261920238696
1.0888634200121794
1.0764647728694976
1.047883877624964
1.031006668201386
1.023027687711706
1.024046354067988
1.0323331920183128
1.046559339821615
1.071173406455785
1.111527223688464
1.1724020947655063
1.2359897120767327
1.2464925305925412
1.2541307139832019
1.2118556088189727
1.211640398110736
1.2334573507012196
1.3272634882646328
1.3476806922072342
1.3472034887208353
1.3548386195247881
1.3577712898312928
1.3573710285093163
1.357443982573608
1.358609731633762
1.3593411789183385
1.3600891621797215
1.3605367962435937
1.3613657847139253
1.362959911484405
1.3656213135324131
1.374240572327548
1.382513660700566
1.3891932800916433
1.372442027647741
1.2875177417477919
1.0797938286698012
1.1091242088059186
1.093926796280882
1.087124098359928
1.0829609783273846
1.0832954302728335
1.079642323138397
1.0664774388624563
1.055298547016942
1.0660923481046336
1.1148209286627446
1.2063459415979811
1.2531759518611645
1.2598592209357764
1.262723431678113
1.2640980425146484
1.2439635686094581
1.2377987533828423
1.3022788918585382
1.3116017345114084
1.3204635413726291
1.3312251043940193
1.3352769732800953
1.3578086546599053
1.3720166668419518
1.3720166668419518
1.3720166668419518
1.3720166668419518
1.3724938146588759
1.3724938146588759
1.3729709613679315
1.3758338182772336
1.3791737671213684
1.37208907057116
1.2989224075663355
1.3617658179971774
1.072910436771132
1.132720792819653
1.1434619577507734
1.1604765284179999
1.1719866114173494
1.173975819046072
1.1505073717483283
1.0937895299277565
1.0402047932742267
1.0276704194964572
1.0730699799381394
1.1658663298406715
1.2596872444952776
1.2732252888638151
1.2746573295107821
1.2492095028381183
1.2249865524028205
1.1741137091927087
1.2405041961652228
1.2763773509057892
1.3022740087257838
1.332318107136748
1.3663906793200769
1.3929935921664456
1.386681803497828
1.3803856822070448
1.3791136537100537
1.3802211629225793
1.382650634087591
1.3891496754941333
1.4022919268251905
1.425523254869957
1.4245072740689046
1.410661927793896
1.35138317839028
1.2548354570612374
1.4558678324720686
1.0811384595699305
1.1502196544223298
1.1873832503192212
1.242213433946544
1.2888939563535968
1.2984067844289806
1.2270985657597264
1.1164252439657054
1.0267214374027036
0.9991038140376218
1.0470436672411627
1.141429421417258
1.2447683987697569
1.2927958507360997
1.2947050959463078
1.283858848788881
1.2553864571631315
1.253768468419922
1.2698850644144435
1.3007979605983966
1.341136100733097
1.3824756201947013
1.4227754648504092
1.449776102119458
1.461741243062876
1.4620538531279315
1.461535490459236
1.459731534168992
1.4567535951092183
1.4541509115720757
1.4539118494269272
1.4530791561978416
1.4378145927439077
1.4114372430484206
1.3357788071761496
1.3368338049547968
1.333587724385391
1.4177268653795017
1.2960119312509601
1.5534772045077165
1.1112260757001289
1.1809187969957455
1.2194194747988876
1.3037931145632107
1.380128028090504
1.416386487366773
1.257805172718056
1.115371392364104
1.0101222242752215
0.9793287711833026
1.0314287575045078
1.1371422187954505
1.255924881293462
1.3204784838061285
1.3266827791243847
1.3242965310345762
1.3257282828042667
1.3379466354132008
1.3583900669846187
1.3920371650454175
1.423064913928256
1.4502530499724189
1.4726680477630834
1.4893580304987672
1.5008015445221223
1.5079532968948068
1.5127209386920566
1.5141512007974325
1.5131976942941296
1.5089068376902472
1.5017551314217776
1.4843240681238299
1.4544098493085176
1.4178475716006125
1.347002829951323
1.34073951942427
1.3335537481652437
1.3585774692159436
1.3663316348808503
1.6458411165008084
1.1980135237383822
1.3002073055620615
1.2778752252288794
1.3327017346164793
1.4120930843160113
1.3491808383481432
1.227394496768977
1.085628943862005
0.9810841912305807
0.9602352599519554
1.0308998305893264
1.1591724824267537
1.3024527114839268
1.3586560839232753
1.3696309111891742
1.370108064524093
1.3758338182772336
1.393964298053804
1.4197257313405696
1.4473913426431695
1.4740986871322697
1.4965103283000611
1.5136744483297886
1.525116070845069
1.5327433057173163
1.5365567664549
1.5375101151654162
1.5365567664549
1.5332199940570057
1.5270229184597555
1.517965163884175
1.5069997499084227
1.490053200611534
1.445626188492393
1.3833790073619519
1.3540828754216665
1.3330384224885665
1.3053316649705453
1.4116093339138662
1.7864321749546703
1.5718620253911995
1.5134721239766453
1.3963342085910904
1.3749429271951505
1.3638708440701155
1.2937624721144747
1.152980138975279
1.0040973568011773
0.921676197555947
0.9411689621725775
1.058034627363906
1.2268902430148705
1.3672451280525857
1.4082766424574664
1.4206797897949806
1.425450006477857
1.4349900570426914
1.4545455196621504
1.4779136623862015
1.5008015445221223
1.5208255697442081
1.5356034111408545
1.5460899540802353
1.5518095438173143
1.554192633814683
1.554669246671873
1.5532394029526464
1.5508562958531256
1.5465665958745216
1.5403701215353467
1.5317899241289503
1.5213022984863207
1.5093836057621581
1.4960335189376444
1.4812516899765955
1.471873616517909
1.444416071767301
1.365221752143952
1.2788290599027696
1.9961153007600916
1.8480717603243684
1.6863168976340366
1.542913713480318
1.4509614958248618
1.3796551623030406
1.1875556856022775
0.968981706039893
0.8368932946119844
0.8365147333519231
0.9522885986816828
1.1558708040291426
1.351975476842428
1.43165109793437
1.4612224745112417
1.4740986871322697
1.4826822514386429
1.495079895696787
1.5117674227956788
1.528929740217303
1.5441833700592364
1.5556224672296355
1.5619155987121691
1.557110340368072
1.5518193606163286
1.544915933970132
1.5370956034839092
1.5284310453821084
1.5181499018541529
1.506666766238111
1.4934845569881725
1.478541479795107
1.464502007958952
1.4481493542374786
1.4285973835908516
1.4107341399524547
1.3992136370659636
1.3944462431529931
1.3844756065121901
1.3534080727647966
-1.6596826206378241
-0.7532653339607419
-0.19410836408569881
0.00785565238376667
0.1496333957101129
0.33235410568185647
0.5700500926660483
0.8444965629650363
1.1365318881628887
1.349112296450659
1.4502530499724189
1.4705903061194932
1.4795279982341871
1.487915851470957
1.4984720367073514
1.5106868170060703
1.5224517763380907
1.5308395676858564
1.5345738911716709
1.5352727153107806
1.532490540744887
1.5273072480238312
1.5210520136255137
1.5135697117017708
1.5048587422228654
1.4961570625892888
1.4874868798345826
1.479508044699003
1.4737432669849755
1.4698690667547234
1.4670780523186002
1.465214300041089
1.4632463456037457
1.463917398290126
1.4743778359919752
1.5112117065690598
1.5778920515370995
1.4254832172954095
-1.671024563765845
-0.5857498448282089
-0.009178486451868199
0.313430441897671
0.5205760906911965
0.7779756546226512
1.0445021725475383
1.276089362662729
1.372031976146018
1.4154593973780376
1.4436144697649176
1.4602941656552813
1.4720017284293816
1.481012549779744
1.4890672577738897
1.496450227246711
1.502520760319101
1.5072282803645498
1.5099954053507214
1.5099946103711337
1.5088132300354935
1.5065927516779394
1.5034879807330135
1.5001546927623832
1.4967653658108917
1.4935068560916216
1.4910910622438935
1.4899843930455545
1.4901477741127296
1.4928219050176303
1.4996238795533452
1.5112395423636373
1.5240146638029703
1.533861045345296
1.5445329611761347
1.5797201409180994
1.5278792072398582
1.468701302251332
-1.1335390366450817
-1.1327437684469461
-1.009316426505158
-0.21082639078900658
0.3710483035891647
0.7834170785044074
1.0816201165062922
1.2306501375150567
1.3193177741912214
1.3732154512320276
1.4080954740313563
1.4324636017153345
1.4472884764082736
1.4560132147608666
1.4614493076310149
1.4643175063626606
1.4660132704770699
1.4658997927633421
1.464335671176676
1.4621888937877932
1.4591703650757188
1.4565025397309967
1.4538131954047764
1.4511959804213688
1.44928942771942
1.4487919057281515
1.4489369389701034
1.4506132571841583
1.4543510382964524
1.4608951098537502
1.4703586527180448
1.4852646037778627
1.5086239177900176
1.5492192503690807
1.6094664152124687
1.6156594844160344
1.5876145020596606
1.5272621895014464
1.4753429202644879
1.489040024424477
)
;

boundaryField
{
    ".*"
    {
        type            zeroGradient;
    }
}


// ************************************************************************* //
