/*--------------------------------*- C++ -*----------------------------------*\
  =========                 |
  \\      /  F ield         | OpenFOAM: The Open Source CFD Toolbox
   \\    /   O peration     | Website:  https://openfoam.org
    \\  /    A nd           | Version:  6
     \\/     M anipulation  |
\*---------------------------------------------------------------------------*/
FoamFile
{
    version     2.0;
    format      ascii;
    class       volScalarField;
    location    "700";
    object      T;
}
// * * * * * * * * * * * * * * * * * * * * * * * * * * * * * * * * * * * * * //

dimensions      [0 0 0 1 0 0 0];

internalField   nonuniform List<scalar> 
778
(
309.623
309.581
309.722
309.582
309.688
309.836
309.478
309.658
309.728
309.772
309.275
309.622
309.674
309.662
309.673
308.875
309.54
309.648
309.611
309.534
309.598
308.329
309.315
309.617
309.597
309.493
309.432
309.527
308.237
308.972
309.512
309.588
309.493
309.404
309.356
309.451
308.217
308.664
309.296
309.546
309.516
309.419
309.353
309.301
309.361
308.222
308.424
309.015
309.417
309.518
309.463
309.384
309.331
309.266
309.253
308.226
308.354
308.743
309.192
309.44
309.486
309.436
309.378
309.318
309.239
309.237
308.228
308.344
308.519
308.924
309.255
309.43
309.462
309.418
309.363
309.297
309.218
309.224
308.23
308.341
308.429
308.68
308.999
309.259
309.402
309.423
309.385
309.331
309.269
309.2
309.211
308.237
308.338
308.414
308.513
308.748
309.006
309.22
309.342
309.364
309.334
309.287
309.233
309.187
309.197
308.251
308.333
308.413
308.47
308.571
308.756
308.967
309.154
309.263
309.289
309.271
309.238
309.203
309.176
309.185
308.327
308.412
308.466
308.512
308.588
308.733
308.912
309.074
309.173
309.207
309.203
309.189
309.175
309.171
308.31
308.408
308.469
308.509
308.542
308.597
308.707
308.854
308.991
309.083
309.124
309.136
309.138
309.172
308.286
308.397
308.467
308.518
308.542
308.563
308.601
308.683
308.799
308.914
308.999
309.047
309.069
309.081
309.309
308.081
308.375
308.451
308.527
308.557
308.569
308.578
308.603
308.663
308.753
308.85
308.928
308.978
309.005
309.028
309.185
308.265
308.413
308.531
308.574
308.585
308.587
308.588
308.605
308.649
308.719
308.801
308.873
308.923
308.954
309.027
309.172
308.366
308.528
308.59
308.605
308.604
308.598
308.596
308.607
308.641
308.699
308.771
308.839
308.896
308.971
309.102
309.185
309.198
308.32
308.524
308.605
308.625
308.623
308.614
308.605
308.602
308.612
308.642
308.694
308.763
308.839
308.933
309.065
309.198
309.232
309.21
309.259
308.263
308.529
308.62
308.644
308.642
308.631
308.619
308.61
308.61
308.622
308.654
308.709
308.79
308.901
309.041
309.186
309.262
309.262
309.27
307.865
308.397
308.538
308.636
308.662
308.66
308.648
308.633
308.622
308.617
308.622
308.642
308.683
308.757
308.873
309.025
309.175
309.264
309.307
307.482
307.909
308.47
308.599
308.653
308.679
308.678
308.666
308.649
308.634
308.627
308.629
308.644
308.678
308.745
308.86
309.013
309.165
309.265
307.208
307.427
307.844
308.523
308.636
308.68
308.697
308.696
308.682
308.664
308.647
308.637
308.638
308.653
308.684
308.747
308.858
309.006
309.155
309.265
307.125
307.396
307.766
308.565
308.667
308.705
308.717
308.713
308.699
308.679
308.66
308.648
308.648
308.663
308.694
308.756
308.863
309.004
309.147
309.263
307.023
307.352
307.673
308.598
308.693
308.728
308.736
308.731
308.715
308.694
308.673
308.658
308.657
308.672
308.706
308.768
308.871
309.005
309.14
309.26
307.054
307.33
307.503
308.595
308.712
308.748
308.755
308.748
308.731
308.709
308.686
308.669
308.666
308.682
308.718
308.78
308.88
309.007
309.135
309.257
307.069
307.332
307.552
308.59
308.727
308.766
308.773
308.765
308.747
308.724
308.7
308.68
308.675
308.69
308.728
308.791
308.889
309.01
309.13
309.252
307.076
307.321
307.584
308.585
308.74
308.783
308.79
308.78
308.762
308.738
308.713
308.691
308.683
308.697
308.736
308.801
308.897
309.013
309.127
309.247
307.055
307.299
307.601
308.58
308.753
308.799
308.805
308.795
308.775
308.751
308.725
308.702
308.692
308.705
308.744
308.81
308.904
309.015
309.123
309.242
307.028
307.276
307.613
308.574
308.766
308.813
308.819
308.808
308.788
308.763
308.737
308.713
308.701
308.711
308.751
308.818
308.91
309.016
309.118
309.235
307.005
307.262
307.626
308.566
308.777
308.827
308.832
308.82
308.8
308.774
308.748
308.723
308.71
308.718
308.757
308.824
308.914
309.015
309.114
309.229
306.989
307.263
307.646
308.554
308.789
308.839
308.843
308.831
308.81
308.785
308.758
308.733
308.718
308.724
308.761
308.827
308.916
309.014
309.108
309.221
306.981
307.277
307.678
308.536
308.802
308.851
308.854
308.841
308.819
308.794
308.767
308.742
308.727
308.731
308.765
308.829
308.916
309.011
309.102
309.212
306.979
307.302
307.727
308.512
308.816
308.863
308.864
308.85
308.828
308.803
308.776
308.751
308.735
308.738
308.769
308.831
308.915
309.007
309.095
309.203
306.979
307.318
307.802
308.594
308.834
308.876
308.875
308.859
308.837
308.811
308.784
308.76
308.744
308.745
308.774
308.831
308.912
309.002
309.088
309.192
306.981
307.326
307.83
308.688
308.866
308.889
308.885
308.869
308.846
308.82
308.793
308.769
308.752
308.753
308.778
308.832
308.909
308.996
309.079
309.181
306.994
307.304
307.935
308.787
308.896
308.903
308.895
308.878
308.855
308.829
308.803
308.778
308.762
308.76
308.783
308.833
308.906
308.989
309.07
309.169
307.012
307.332
308.037
308.92
308.916
308.905
308.888
308.865
308.839
308.812
308.788
308.771
308.768
308.788
308.834
308.902
308.982
309.06
309.156
307.069
307.513
308.933
308.927
308.915
308.898
308.876
308.85
308.823
308.799
308.781
308.777
308.793
308.835
308.899
308.974
309.049
309.142
307.204
308.938
308.934
308.925
308.908
308.887
308.862
308.835
308.81
308.792
308.786
308.799
308.836
308.895
308.967
309.038
309.128
308.941
308.94
308.933
308.919
308.899
308.874
308.848
308.822
308.803
308.795
308.806
308.838
308.892
308.958
309.027
309.113
308.943
308.94
308.929
308.911
308.888
308.862
308.836
308.815
308.805
308.812
308.84
308.888
308.95
309.015
309.097
308.946
308.938
308.923
308.902
308.877
308.85
308.828
308.816
308.819
308.842
308.885
308.942
309.003
309.081
308.946
308.934
308.916
308.893
308.866
308.842
308.827
308.826
308.844
308.881
308.933
308.99
309.065
308.945
308.928
308.908
308.883
308.858
308.839
308.834
308.847
308.878
308.924
308.978
309.048
308.936
308.921
308.899
308.874
308.853
308.843
308.85
308.875
308.916
308.965
309.031
308.93
308.914
308.892
308.868
308.853
308.854
308.873
308.907
308.951
309.013
308.924
308.907
308.885
308.866
308.86
308.871
308.899
308.938
308.994
308.92
308.902
308.881
308.868
308.872
308.892
308.925
308.975
308.915
308.897
308.879
308.875
308.888
308.914
308.956
308.912
308.895
308.882
308.886
308.905
308.938
308.909
308.893
308.889
308.9
308.923
308.908
308.896
308.9
308.912
308.909
308.906
308.911
308.913
308.923
308.956
)
;

boundaryField
{
    floor
    {
        type            wallHeatTransfer;
        Tinf            uniform 305.2;
        alphaWall       uniform 0.36;
        value           nonuniform List<scalar> 
36
(
307.544
306.717
306.661
306.501
306.479
306.433
306.376
306.332
306.298
306.275
306.265
306.268
306.281
306.292
306.307
306.354
306.429
306.566
306.667
306.667
307.042
307.562
308.247
308.432
308.422
308.361
307.544
307.717
307.757
307.503
306.717
307.503
307.026
307.737
307.377
307.761
)
;
    }
    ceiling
    {
        type            wallHeatTransfer;
        Tinf            uniform 301.2;
        alphaWall       uniform 0.36;
        value           nonuniform List<scalar> 
43
(
308.722
308.74
308.73
308.706
308.69
308.681
308.677
308.677
308.677
308.677
308.675
308.672
308.667
308.661
308.654
308.647
308.638
308.629
308.62
308.609
308.598
308.586
308.574
308.56
308.547
308.533
308.518
308.503
308.488
308.472
308.456
308.439
308.421
308.404
308.387
308.371
308.358
308.35
308.35
308.32
308.77
308.816
308.869
)
;
    }
    sWall
    {
        type            wallHeatTransfer;
        Tinf            uniform 315.2;
        alphaWall       uniform 0.54;
        value           nonuniform List<scalar> 9(309.895 309.857 309.814 309.765 309.709 309.644 309.752 309.834 309.925);
    }
    nWall
    {
        type            wallHeatTransfer;
        Tinf            uniform 308.2;
        alphaWall       uniform 0.54;
        value           nonuniform List<scalar> 
14
(
308.781
308.798
308.814
308.784
308.784
308.786
308.789
308.793
308.8
308.808
308.819
308.832
308.849
308.866
)
;
    }
    sideWalls
    {
        type            empty;
    }
    glass1
    {
        type            wallHeatTransfer;
        Tinf            uniform 315.2;
        alphaWall       uniform 4.3;
        value           nonuniform List<scalar> 9(313.282 313.321 313.227 312.625 312.488 312.41 312.357 312.314 312.258);
    }
    glass2
    {
        type            wallHeatTransfer;
        Tinf            uniform 308.2;
        alphaWall       uniform 4.3;
        value           nonuniform List<scalar> 2(308.485 308.465);
    }
    sun
    {
        type            wallHeatTransfer;
        Tinf            uniform 305.2;
        alphaWall       uniform 0.36;
        value           nonuniform List<scalar> 
14
(
309.02
309.043
309.083
308.959
308.697
308.277
307.717
307.589
307.528
307.504
307.485
307.472
307.469
307.489
)
;
    }
    Table_master
    {
        type            zeroGradient;
    }
    Table_slave
    {
        type            zeroGradient;
    }
    inlet
    {
        type            fixedValue;
        value           uniform 298.15;
    }
    outlet
    {
        type            zeroGradient;
    }
}


// ************************************************************************* //
