/*--------------------------------*- C++ -*----------------------------------*\
  =========                 |
  \\      /  F ield         | OpenFOAM: The Open Source CFD Toolbox
   \\    /   O peration     | Website:  https://openfoam.org
    \\  /    A nd           | Version:  6
     \\/     M anipulation  |
\*---------------------------------------------------------------------------*/
FoamFile
{
    version     2.0;
    format      ascii;
    class       volVectorField;
    location    "700";
    object      U;
}
// * * * * * * * * * * * * * * * * * * * * * * * * * * * * * * * * * * * * * //

dimensions      [0 1 -1 0 0 0 0];

internalField   nonuniform List<vector> 
778
(
(0.123426 0.0638866 0)
(-0.135628 -0.00778865 0)
(0.343417 0.145288 0)
(-0.0949142 -0.000348307 0)
(-0.174592 0.000627755 0)
(0.516327 0.225601 0)
(-0.102265 0.00296576 0)
(-0.10045 0.00821456 0)
(-0.228346 0.0294298 0)
(0.654093 0.294183 0)
(-0.11187 0.00382313 0)
(-0.116981 0.0143312 0)
(-0.0919826 0.0256643 0)
(-0.276654 0.0646183 0)
(0.764686 0.351335 0)
(-0.122182 0.00318 0)
(-0.129269 0.0167334 0)
(-0.120684 0.0274535 0)
(-0.0743739 0.0484065 0)
(-0.317295 0.103581 0)
(0.851935 0.401011 0)
(-0.131587 0.00165388 0)
(-0.141079 0.0166207 0)
(-0.13534 0.0283479 0)
(-0.1156 0.0441025 0)
(-0.0537459 0.0726089 0)
(-0.351331 0.144766 0)
(0.901673 0.447108 0)
(-0.139083 -0.000528269 0)
(-0.151611 0.0148841 0)
(-0.148449 0.0264573 0)
(-0.131083 0.0429127 0)
(-0.106255 0.060667 0)
(-0.0351306 0.0958922 0)
(-0.381185 0.18478 0)
(0.936606 0.495295 0)
(-0.143919 -0.00331838 0)
(-0.160227 0.0118712 0)
(-0.159827 0.0223054 0)
(-0.144131 0.039437 0)
(-0.121042 0.0565663 0)
(-0.0950622 0.0756814 0)
(-0.0251938 0.112767 0)
(-0.390066 0.20884 0)
(1.02803 0.490476 0)
(-0.145292 -0.00678002 0)
(-0.166327 0.00766132 0)
(-0.169227 0.0162325 0)
(-0.155255 0.0337326 0)
(-0.132845 0.0509322 0)
(-0.107565 0.068581 0)
(-0.0833771 0.0869418 0)
(-0.0201483 0.101857 0)
(-0.135918 0.28787 0)
(0.78358 0.381171 0)
(-0.141534 -0.0111739 0)
(-0.169231 0.00216966 0)
(-0.176292 0.00842175 0)
(-0.164391 0.0259636 0)
(-0.143046 0.0432253 0)
(-0.117035 0.0611847 0)
(-0.091768 0.0775562 0)
(-0.0663938 0.0900894 0)
(0.0157693 0.154919 0)
(-0.00855776 0.317842 0)
(0.617757 0.213001 0)
(-0.12934 -0.0172911 0)
(-0.168055 -0.00478799 0)
(-0.180563 -0.000982526 0)
(-0.171393 0.0162237 0)
(-0.151519 0.033371 0)
(-0.125671 0.0520224 0)
(-0.0981735 0.069258 0)
(-0.0730385 0.0826727 0)
(-0.000776202 0.105646 0)
(0.0696866 0.228245 0)
(-0.0184229 0.306187 0)
(0.577279 0.126539 0)
(-0.107723 -0.0269388 0)
(-0.161664 -0.0134101 0)
(-0.181351 -0.0118925 0)
(-0.176022 0.00459376 0)
(-0.15822 0.0213903 0)
(-0.13311 0.0407537 0)
(-0.10481 0.0593132 0)
(-0.0766472 0.074797 0)
(-0.0437969 0.0874908 0)
(0.0728246 0.16296 0)
(0.0890715 0.264065 0)
(-0.0488926 0.274428 0)
(0.62945 0.0906086 0)
(-0.0889789 -0.0434383 0)
(-0.150903 -0.0250284 0)
(-0.178949 -0.0249179 0)
(-0.17797 -0.00891572 0)
(-0.163046 0.0074015 0)
(-0.139266 0.0272979 0)
(-0.110971 0.0471223 0)
(-0.0813946 0.0649841 0)
(-0.0518631 0.0788657 0)
(0.00934639 0.112345 0)
(0.110022 0.205135 0)
(0.0961335 0.263383 0)
(-0.049081 0.221965 0)
(0.56074 0.110967 0)
(-0.111342 -0.0658736 0)
(-0.140768 -0.0406193 0)
(-0.174498 -0.0407593 0)
(-0.177484 -0.0243525 0)
(-0.16589 -0.00844118 0)
(-0.144051 0.0117205 0)
(-0.116365 0.0325679 0)
(-0.0863509 0.0524735 0)
(-0.056048 0.0695324 0)
(-0.0216081 0.0851981 0)
(0.0654874 0.151803 0)
(0.132883 0.221821 0)
(0.104751 0.233911 0)
(-0.147246 0.156923 0)
(0.740346 0.117779 0)
(-0.131533 -0.0499416 0)
(-0.169403 -0.0587357 0)
(-0.175369 -0.0415472 0)
(-0.166717 -0.0260779 0)
(-0.147437 -0.0058353 0)
(-0.120846 0.015721 0)
(-0.090917 0.037314 0)
(-0.0605901 0.0569702 0)
(-0.0289064 0.0738826 0)
(0.0282986 0.110432 0)
(0.111027 0.179556 0)
(0.156692 0.21655 0)
(0.111184 0.1731 0)
(0.120698 0.0973558 0)
(-0.0974649 -0.0215328 0)
(-0.160414 -0.0735419 0)
(-0.171631 -0.0589147 0)
(-0.166029 -0.0452372 0)
(-0.149081 -0.0251409 0)
(-0.12443 -0.00320892 0)
(-0.0948681 0.0196746 0)
(-0.0647391 0.0414536 0)
(-0.0345894 0.0611159 0)
(0.00691812 0.084915 0)
(0.083003 0.140543 0)
(0.153348 0.193633 0)
(0.182931 0.189351 0)
(0.198457 0.131355 0)
(-0.0384239 -0.02802 0)
(-0.142712 -0.0804233 0)
(-0.164362 -0.0735794 0)
(-0.163425 -0.0646806 0)
(-0.149411 -0.0458895 0)
(-0.126537 -0.0238438 0)
(-0.0982465 -0.000176391 0)
(-0.0683057 0.0232809 0)
(-0.0390978 0.0453595 0)
(-0.00602171 0.0660468 0)
(0.0578781 0.107841 0)
(0.135405 0.16461 0)
(0.19429 0.194569 0)
(0.259575 0.166528 0)
(0.142953 0.116639 0)
(-0.105376 0.151782 0)
(-0.133355 -0.097355 0)
(-0.153282 -0.0854601 0)
(-0.158063 -0.0829365 0)
(-0.147921 -0.0672791 0)
(-0.127634 -0.0460267 0)
(-0.10078 -0.0218255 0)
(-0.0712966 0.00285235 0)
(-0.0428351 0.0266288 0)
(-0.0129489 0.0486892 0)
(0.0368217 0.0805315 0)
(0.113089 0.132966 0)
(0.182618 0.180029 0)
(0.257036 0.195419 0)
(0.222138 0.181062 0)
(0.271248 0.269197 0)
(-0.173018 -0.111542 0)
(-0.145776 -0.0959812 0)
(-0.150219 -0.0996245 0)
(-0.144074 -0.0882563 0)
(-0.12718 -0.0693896 0)
(-0.102328 -0.0451617 0)
(-0.0740117 -0.0195413 0)
(-0.0457032 0.00557493 0)
(-0.0180334 0.0289059 0)
(0.0221078 0.0569127 0)
(0.090761 0.101801 0)
(0.163852 0.153266 0)
(0.23255 0.193979 0)
(0.250559 0.207512 0)
(0.138326 0.257499 0)
(-0.190794 0.102049 0)
(-0.14457 -0.0857514 0)
(-0.141129 -0.11275 0)
(-0.137751 -0.107486 0)
(-0.124613 -0.0930615 0)
(-0.102598 -0.0702192 0)
(-0.0755698 -0.0438411 0)
(-0.0480058 -0.0175447 0)
(-0.0214758 0.00662946 0)
(0.0126194 0.0334742 0)
(0.0720674 0.0722796 0)
(0.144 0.12183 0)
(0.20964 0.172099 0)
(0.231639 0.207154 0)
(0.144163 0.232046 0)
(-0.0844611 0.191078 0)
(-0.417559 -0.588386 0)
(-0.380773 -0.0853799 0)
(-0.114334 -0.022298 0)
(-0.126789 -0.113279 0)
(-0.128464 -0.121963 0)
(-0.119479 -0.115386 0)
(-0.100968 -0.0962228 0)
(-0.0760163 -0.0703815 0)
(-0.0489275 -0.0427139 0)
(-0.0229292 -0.0173118 0)
(0.00655197 0.00732007 0)
(0.0583814 0.0434937 0)
(0.126125 0.0892376 0)
(0.190642 0.140791 0)
(0.215874 0.187457 0)
(0.156093 0.214931 0)
(-0.00655033 0.192942 0)
(-0.225076 0.172393 0)
(0.57167 -0.451432 0)
(-0.452295 -0.333789 0)
(-0.40385 -0.420097 0)
(-0.0551975 -0.049129 0)
(-0.100578 -0.0938952 0)
(-0.113468 -0.127085 0)
(-0.110967 -0.133611 0)
(-0.0969756 -0.121414 0)
(-0.0747974 -0.0983938 0)
(-0.04881 -0.0705664 0)
(-0.0223709 -0.0430059 0)
(0.00491962 -0.0192782 0)
(0.0495627 0.0135154 0)
(0.111863 0.056516 0)
(0.174581 0.105747 0)
(0.20557 0.155894 0)
(0.165961 0.191958 0)
(0.0456954 0.187027 0)
(-0.147411 0.191152 0)
(-0.363332 -0.304623 0)
(0.207641 -0.203667 0)
(-0.28119 -0.4448 0)
(0.0774146 -0.0416965 0)
(-0.0325251 -0.034501 0)
(-0.0668194 -0.0832382 0)
(-0.0904939 -0.122527 0)
(-0.0974629 -0.144761 0)
(-0.0900163 -0.143376 0)
(-0.0717115 -0.125967 0)
(-0.0474043 -0.100164 0)
(-0.0210969 -0.0717166 0)
(0.00683439 -0.0454421 0)
(0.0438191 -0.0170773 0)
(0.101809 0.0236301 0)
(0.161606 0.0698131 0)
(0.197181 0.118775 0)
(0.174451 0.159757 0)
(0.0824511 0.169622 0)
(-0.076441 0.185713 0)
(-0.296578 -0.227284 0)
(1.27474 -0.010588 0)
(0.134117 -0.0118717 0)
(0.000515577 -0.0138707 0)
(-0.00464972 -0.0189861 0)
(-0.0380017 -0.0653557 0)
(-0.0626508 -0.112333 0)
(-0.0777293 -0.147341 0)
(-0.0791559 -0.159698 0)
(-0.0665144 -0.150872 0)
(-0.0449267 -0.129351 0)
(-0.0192443 -0.10211 0)
(0.00869874 -0.074156 0)
(0.043052 -0.0461647 0)
(0.0929684 -0.00970043 0)
(0.151683 0.0345885 0)
(0.190098 0.0805835 0)
(0.180815 0.122072 0)
(0.111507 0.141536 0)
(-0.0131716 0.168207 0)
(-0.211931 -0.198387 0)
(0.0666013 0.0230488 0)
(0.0718942 -0.00364439 0)
(0.0181413 0.00410624 0)
(0.0191573 -0.00419664 0)
(-0.0111712 -0.0457023 0)
(-0.0355634 -0.0930732 0)
(-0.0538229 -0.13877 0)
(-0.0630128 -0.167745 0)
(-0.0588285 -0.171152 0)
(-0.0414097 -0.156039 0)
(-0.0174043 -0.131838 0)
(0.0102044 -0.104061 0)
(0.0428931 -0.075173 0)
(0.0873313 -0.0416198 0)
(0.143 0.000427485 0)
(0.183859 0.0441443 0)
(0.185234 0.0841015 0)
(0.134498 0.104762 0)
(0.0373986 0.146851 0)
(-0.122163 -0.187309 0)
(-0.0308383 -0.00100039 0)
(0.0564324 0.00301492 0)
(0.0308373 0.0123904 0)
(0.0354607 0.00386306 0)
(0.0135783 -0.0259673 0)
(-0.0116292 -0.0700364 0)
(-0.0300906 -0.117667 0)
(-0.0430235 -0.161413 0)
(-0.0465608 -0.184047 0)
(-0.0370678 -0.178929 0)
(-0.0156358 -0.158976 0)
(0.0106283 -0.133001 0)
(0.0419459 -0.103981 0)
(0.0822691 -0.0716033 0)
(0.133099 -0.0321534 0)
(0.177489 0.0107713 0)
(0.187121 0.0495997 0)
(0.153265 0.066067 0)
(0.0717748 0.13063 0)
(-0.0347077 -0.181916 0)
(-0.0116446 -0.0031986 0)
(0.0487018 0.0089016 0)
(0.0357417 0.0148043 0)
(0.0483071 -7.89784e-05 0)
(0.0308807 -0.0159799 0)
(0.0108397 -0.0457492 0)
(-0.00958906 -0.0911686 0)
(-0.023094 -0.138475 0)
(-0.0307702 -0.180104 0)
(-0.0287872 -0.196144 0)
(-0.014726 -0.183063 0)
(0.0100138 -0.159341 0)
(0.0393203 -0.131353 0)
(0.0762942 -0.0995473 0)
(0.122404 -0.0619396 0)
(0.167035 -0.019774 0)
(0.18536 0.0203489 0)
(0.16669 0.0298046 0)
(0.101333 0.122281 0)
(0.049747 -0.229791 0)
(-0.0136669 -0.000158519 0)
(0.0395583 0.0104329 0)
(0.0382687 0.00887908 0)
(0.0559254 -0.00257412 0)
(0.0438734 -0.0127833 0)
(0.0270993 -0.0310712 0)
(0.0094389 -0.0637429 0)
(-0.0060742 -0.108653 0)
(-0.0149645 -0.155403 0)
(-0.0174794 -0.194584 0)
(-0.0104269 -0.20396 0)
(0.0072375 -0.183453 0)
(0.0349951 -0.156201 0)
(0.0684495 -0.125124 0)
(0.110089 -0.0885836 0)
(0.15322 -0.0469029 0)
(0.17857 -0.00478424 0)
(0.172931 -0.00271599 0)
(0.123795 0.122779 0)
(0.0969395 -0.272726 0)
(-0.0141184 -0.00117719 0)
(0.0322433 0.00527633 0)
(0.0426934 0.00479275 0)
(0.059377 -0.00255407 0)
(0.052268 -0.00908529 0)
(0.0396331 -0.0219385 0)
(0.0240212 -0.0452472 0)
(0.0093734 -0.0792511 0)
(-0.0015396 -0.122654 0)
(-0.00602123 -0.168216 0)
(-0.00372032 -0.204524 0)
(0.0075679 -0.207213 0)
(0.0277996 -0.17977 0)
(0.0586833 -0.148166 0)
(0.0955635 -0.112242 0)
(0.136053 -0.0709919 0)
(0.165747 -0.0287768 0)
(0.170617 -0.0301815 0)
(0.13704 0.129479 0)
(0.13013 -0.309446 0)
(-0.0157465 -0.00555791 0)
(0.0252141 -0.00084988 0)
(0.0439422 0.00134516 0)
(0.0606729 -0.00161582 0)
(0.0569236 -0.0048508 0)
(0.0480342 -0.0148169 0)
(0.0355602 -0.0319815 0)
(0.0219665 -0.0577142 0)
(0.0104689 -0.092007 0)
(0.00348793 -0.133314 0)
(0.0033468 -0.176459 0)
(0.00986531 -0.209335 0)
(0.0241255 -0.205871 0)
(0.045689 -0.171287 0)
(0.0789474 -0.133718 0)
(0.11534 -0.0925889 0)
(0.146512 -0.0509874 0)
(0.157822 -0.0465211 0)
(0.14115 0.139456 0)
(0.148903 -0.343326 0)
(-0.0122235 -0.0078998 0)
(0.0203554 -0.00518284 0)
(0.0408432 -0.0032668 0)
(0.0596426 -0.000274565 0)
(0.059202 -0.00064014 0)
(0.0532926 -0.00845692 0)
(0.0438058 -0.0216912 0)
(0.0321378 -0.0413549 0)
(0.0207288 -0.0681527 0)
(0.0121211 -0.101755 0)
(0.00836622 -0.140773 0)
(0.0123724 -0.180761 0)
(0.0222935 -0.209625 0)
(0.0380463 -0.20078 0)
(0.0588791 -0.157608 0)
(0.0914591 -0.113205 0)
(0.121335 -0.0706174 0)
(0.136046 -0.0520088 0)
(0.138327 0.143602 0)
(0.157498 -0.368474 0)
(-0.00805521 -0.00950949 0)
(0.018649 -0.00899276 0)
(0.0315887 -0.0103576 0)
(0.055814 0.00153941 0)
(0.0594789 0.00344526 0)
(0.0564788 -0.00260436 0)
(0.0495053 -0.0131099 0)
(0.0398402 -0.0285419 0)
(0.0292137 -0.0495757 0)
(0.019692 -0.0763285 0)
(0.0134212 -0.108219 0)
(0.0124254 -0.143959 0)
(0.0203393 -0.179802 0)
(0.0322007 -0.205574 0)
(0.047813 -0.193172 0)
(0.0637916 -0.14001 0)
(0.0910223 -0.0893518 0)
(0.110418 -0.0526776 0)
(0.131202 0.128585 0)
(0.16101 -0.382955 0)
(0.0013655 -0.0124216 0)
(0.0175162 -0.0136118 0)
(0.0143582 -0.0143124 0)
(0.0484905 0.0043148 0)
(0.0578238 0.00776762 0)
(0.058193 0.00292989 0)
(0.053482 -0.00566203 0)
(0.0455994 -0.0181346 0)
(0.0360133 -0.0349465 0)
(0.0262597 -0.0563764 0)
(0.0180315 -0.0820642 0)
(0.0133789 -0.11107 0)
(0.0144843 -0.1422 0)
(0.0258332 -0.173123 0)
(0.0379597 -0.198234 0)
(0.0518147 -0.185407 0)
(0.057609 -0.117804 0)
(0.0805436 -0.0550918 0)
(0.120602 0.104983 0)
(0.160018 -0.384138 0)
(0.0107493 -0.0139924 0)
(0.0169413 -0.0144239 0)
(-0.00064626 -0.0106921 0)
(0.0369564 0.00957149 0)
(0.0544012 0.0130364 0)
(0.0588027 0.00848396 0)
(0.0563736 0.00100484 0)
(0.050009 -0.00945329 0)
(0.041465 -0.0231864 0)
(0.0319353 -0.0406188 0)
(0.0225655 -0.061616 0)
(0.014909 -0.085246 0)
(0.0110133 -0.110048 0)
(0.0131435 -0.135026 0)
(0.0275552 -0.160754 0)
(0.0381768 -0.188761 0)
(0.0504717 -0.174021 0)
(0.051029 -0.0733509 0)
(0.103361 0.0843109 0)
(0.152116 -0.378257 0)
(0.0220664 -0.0131035 0)
(0.0196012 -0.011146 0)
(-0.0109414 -0.0101566 0)
(0.0259756 0.0198552 0)
(0.0498164 0.0203771 0)
(0.0589352 0.014612 0)
(0.0586354 0.00710803 0)
(0.0535876 -0.00208875 0)
(0.0459328 -0.0135863 0)
(0.036839 -0.0279611 0)
(0.0270114 -0.0454083 0)
(0.0173855 -0.0652267 0)
(0.00953648 -0.0857895 0)
(0.00528146 -0.105032 0)
(0.00693568 -0.122566 0)
(0.0249258 -0.142915 0)
(0.0313998 -0.171668 0)
(0.0507702 -0.142965 0)
(0.0838323 0.0185398 0)
(0.138402 -0.369831 0)
(0.0337155 -0.0107872 0)
(0.0219403 -0.00738443 0)
(-0.0160675 -0.019606 0)
(-0.0335277 -0.00227554 0)
(0.0472586 0.031015 0)
(0.059647 0.0218556 0)
(0.0609504 0.0129048 0)
(0.0568371 0.00421386 0)
(0.0497573 -0.00572948 0)
(0.0410952 -0.0176932 0)
(0.031227 -0.0322837 0)
(0.0205116 -0.0492193 0)
(0.00998025 -0.0670739 0)
(0.00115412 -0.0836787 0)
(-0.00478389 -0.0965772 0)
(-0.00521286 -0.105951 0)
(0.01736 -0.115775 0)
(0.0119273 -0.130303 0)
(0.0596432 -0.119011 0)
(0.121957 -0.368364 0)
(0.043069 -0.00853767 0)
(0.0222023 -0.00795711 0)
(-0.010521 -0.0317066 0)
(-0.0747384 0.0144654 0)
(0.0401125 0.0283093 0)
(0.063133 0.0299626 0)
(0.0643058 0.0184223 0)
(0.0602012 0.00940498 0)
(0.0533407 0.000621877 0)
(0.0448488 -0.00942764 0)
(0.0351082 -0.0215626 0)
(0.0238699 -0.0360377 0)
(0.0115888 -0.0518104 0)
(-0.00044877 -0.0668677 0)
(-0.0109787 -0.0793928 0)
(-0.0193969 -0.0880471 0)
(-0.0232064 -0.0864255 0)
(-0.00136706 -0.063128 0)
(-0.0359815 -0.0834259 0)
(0.0510673 -0.380305 0)
(0.0505551 -0.00720503 0)
(0.0262788 -0.01847 0)
(-0.000589509 -0.0220764 0)
(-0.116462 0.0317965 0)
(0.0304978 0.0265881 0)
(0.068666 0.0313541 0)
(0.0701066 0.0228216 0)
(0.0644364 0.0132728 0)
(0.0569828 0.0053776 0)
(0.0482854 -0.00299029 0)
(0.0386221 -0.0129111 0)
(0.0271987 -0.0250989 0)
(0.0137359 -0.0389409 0)
(-0.00076597 -0.0526525 0)
(-0.0148337 -0.0645694 0)
(-0.0276209 -0.0749569 0)
(-0.0396721 -0.0788404 0)
(-0.0492389 -0.0491755 0)
(-0.0505349 0.0717411 0)
(-0.114007 -0.346367 0)
(0.0577531 -0.00719694 0)
(0.0366308 -0.0169352 0)
(0.0191224 0.0307966 0)
(-0.233775 0.0440514 0)
(0.0260151 0.0174306 0)
(0.0748455 0.0266959 0)
(0.0783429 0.0222851 0)
(0.0703928 0.0149923 0)
(0.0611051 0.0081891 0)
(0.0517089 0.00163061 0)
(0.0417809 -0.00619837 0)
(0.0303648 -0.016146 0)
(0.0161632 -0.0280931 0)
(-0.000446321 -0.0403789 0)
(-0.0177182 -0.0511505 0)
(-0.0340886 -0.0610415 0)
(-0.0492273 -0.0699831 0)
(-0.0684735 -0.0509077 0)
(-0.0878614 0.0564792 0)
(-0.117517 -0.324729 0)
(0.0656549 -0.00482829 0)
(0.0581814 0.0064406 0)
(-0.190316 0.10154 0)
(0.0540347 -0.035332 0)
(0.0837791 0.0100014 0)
(0.0875706 0.0155256 0)
(0.0781336 0.0126356 0)
(0.0661833 0.00841453 0)
(0.0551192 0.00402119 0)
(0.0446227 -0.00143321 0)
(0.0332709 -0.00905496 0)
(0.0187682 -0.0191059 0)
(0.000468818 -0.0299888 0)
(-0.019972 -0.0395864 0)
(-0.0402432 -0.0475578 0)
(-0.0578982 -0.0567585 0)
(-0.078191 -0.0477093 0)
(-0.110424 0.025176 0)
(-0.121558 -0.320647 0)
(0.0695228 0.00485893 0)
(-0.0713156 0.0678053 0)
(0.0743223 0.0940957 0)
(0.0846227 -0.0193904 0)
(0.0958792 0.00255306 0)
(0.0866724 0.00571573 0)
(0.0722312 0.00509775 0)
(0.0586794 0.00370363 0)
(0.0471707 0.00118947 0)
(0.0357557 -0.00377952 0)
(0.0214429 -0.0118055 0)
(0.00203517 -0.0214531 0)
(-0.0213501 -0.0301295 0)
(-0.04589 -0.036213 0)
(-0.0676922 -0.042997 0)
(-0.0874771 -0.0404759 0)
(-0.12796 0.0320443 0)
(-0.151139 -0.317866 0)
(-0.00171345 0.035489 0)
(0.144984 0.144724 0)
(0.0694823 -0.0389271 0)
(0.0981569 -0.01103 0)
(0.0942909 -0.00414807 0)
(0.0785401 -0.00182921 0)
(0.0621663 0.000273897 0)
(0.0490204 0.0012931 0)
(0.0375894 -0.000340799 0)
(0.0239155 -0.00599245 0)
(0.00422177 -0.0144838 0)
(-0.0216345 -0.0226209 0)
(-0.0504221 -0.0275117 0)
(-0.0775802 -0.0316355 0)
(-0.0991545 -0.03513 0)
(-0.141464 0.0582256 0)
(-0.187711 -0.309906 0)
(-0.156596 0.224981 0)
(0.128438 -0.0501636 0)
(0.0869708 -0.0125373 0)
(0.0980133 -0.0116363 0)
(0.0850428 -0.010836 0)
(0.0651091 -0.00593763 0)
(0.0498559 -0.00117474 0)
(0.0379415 0.00120207 0)
(0.0257135 -0.00136577 0)
(0.00675784 -0.00865264 0)
(-0.0208283 -0.0165842 0)
(-0.0535475 -0.0210471 0)
(-0.0861701 -0.0234445 0)
(-0.11214 -0.0326605 0)
(-0.151592 0.0832924 0)
(-0.21365 -0.30136 0)
(-0.291093 0.14525 0)
(0.178563 0.00850493 0)
(0.0902605 -0.00549442 0)
(0.0855639 -0.0189985 0)
(0.0652386 -0.0130109 0)
(0.0501011 -0.00563209 0)
(0.0362047 0.00118347 0)
(0.0255482 0.0025065 0)
(0.00910172 -0.00318296 0)
(-0.0192 -0.0111897 0)
(-0.0553681 -0.015929 0)
(-0.0928365 -0.017797 0)
(-0.124143 -0.0312359 0)
(-0.159538 0.0980457 0)
(-0.226393 -0.294297 0)
(-0.299037 0.192915 0)
(0.248194 0.0340356 0)
(0.0788691 -0.0248932 0)
(0.0394902 -0.00910322 0)
(0.0422279 -0.00532829 0)
(0.0325087 0.00101255 0)
(0.0219482 0.00662254 0)
(0.00977323 0.00320847 0)
(-0.0173333 -0.00503051 0)
(-0.0562533 -0.0109816 0)
(-0.097638 -0.0135428 0)
(-0.133498 -0.0294409 0)
(-0.165788 0.101728 0)
(-0.229885 -0.288504 0)
(-0.583094 0.265579 0)
(0.299832 0.0487623 0)
(0.0260262 0.0672363 0)
(-0.00549353 0.0367775 0)
(0.012758 0.0162732 0)
(0.0141017 0.0140425 0)
(0.00611952 0.0124496 0)
(-0.016466 0.0039745 0)
(-0.056537 -0.00474884 0)
(-0.100862 -0.00966012 0)
(-0.139824 -0.0268937 0)
(-0.170288 0.0981341 0)
(-0.229399 -0.283269 0)
(-0.804831 0.339931 0)
(0.0773746 0.168704 0)
(0.00424022 0.104499 0)
(-0.0346628 0.0727329 0)
(-0.0138918 0.047938 0)
(-0.00257821 0.0301692 0)
(-0.0180721 0.0181238 0)
(-0.0556331 0.00444034 0)
(-0.102388 -0.00531438 0)
(-0.143628 -0.0236318 0)
(-0.173021 0.0919613 0)
(-0.228956 -0.277726 0)
(-0.67607 0.334005 0)
(0.11868 0.173754 0)
(-0.0168031 0.122037 0)
(-0.0578052 0.105546 0)
(-0.016514 0.0691066 0)
(-0.0197436 0.0402693 0)
(-0.0524865 0.0180518 0)
(-0.101035 0.0005803 0)
(-0.145413 -0.0195582 0)
(-0.174157 0.0860166 0)
(-0.230204 -0.271008 0)
(-0.574817 0.242709 0)
(0.112496 0.173867 0)
(-0.0518873 0.146679 0)
(-0.0464365 0.130981 0)
(-0.0156751 0.0763607 0)
(-0.0454561 0.0379492 0)
(-0.0954304 0.00933438 0)
(-0.144989 -0.0141577 0)
(-0.173773 0.0803134 0)
(-0.232805 -0.262606 0)
(-0.540242 0.194591 0)
(-0.0260704 0.16804 0)
(-0.0344655 0.182304 0)
(-0.0169326 0.133129 0)
(-0.0299775 0.0670991 0)
(-0.0840924 0.0222657 0)
(-0.141261 -0.00644738 0)
(-0.171508 0.0738543 0)
(-0.235834 -0.252588 0)
(-0.561452 0.146848 0)
(0.00148664 0.164542 0)
(-0.000251458 0.194864 0)
(-0.00751211 0.110323 0)
(-0.0635091 0.0404011 0)
(-0.132893 0.00420509 0)
(-0.166807 0.0659273 0)
(-0.239004 -0.241257 0)
(-0.588662 0.0176571 0)
(0.134639 0.181359 0)
(0.0195219 0.158578 0)
(-0.0309841 0.0648958 0)
(-0.116053 0.0174424 0)
(-0.159298 0.0549859 0)
(-0.24355 -0.228428 0)
(-0.404947 0.0424165 0)
(0.178357 0.155039 0)
(0.0151826 0.0980386 0)
(-0.0841345 0.0337092 0)
(-0.147285 0.0364725 0)
(-0.25254 -0.212965 0)
(-0.368351 0.104657 0)
(0.192909 0.121667 0)
(-0.0271166 0.0612537 0)
(-0.121692 0.007589 0)
(-0.266288 -0.192267 0)
(-0.376944 0.173148 0)
(0.127958 0.118413 0)
(-0.0585727 -0.00863253 0)
(-0.271095 -0.159251 0)
(-0.530315 0.236555 0)
(0.184293 0.0684703 0)
(-0.25027 -0.0972204 0)
(-0.62111 0.252424 0)
(-0.264765 0.00868078 0)
(-0.712537 0.137151 0)
)
;

boundaryField
{
    floor
    {
        type            noSlip;
    }
    ceiling
    {
        type            noSlip;
    }
    sWall
    {
        type            noSlip;
    }
    nWall
    {
        type            noSlip;
    }
    sideWalls
    {
        type            empty;
    }
    glass1
    {
        type            noSlip;
    }
    glass2
    {
        type            noSlip;
    }
    sun
    {
        type            noSlip;
    }
    Table_master
    {
        type            noSlip;
    }
    Table_slave
    {
        type            noSlip;
    }
    inlet
    {
        type            fixedValue;
        value           uniform (0.5 0 0);
    }
    outlet
    {
        type            zeroGradient;
    }
}


// ************************************************************************* //
