/*--------------------------------*- C++ -*----------------------------------*\
  =========                 |
  \\      /  F ield         | OpenFOAM: The Open Source CFD Toolbox
   \\    /   O peration     | Website:  https://openfoam.org
    \\  /    A nd           | Version:  6
     \\/     M anipulation  |
\*---------------------------------------------------------------------------*/
FoamFile
{
    version     2.0;
    format      ascii;
    class       volVectorField;
    location    "700";
    object      U;
}
// * * * * * * * * * * * * * * * * * * * * * * * * * * * * * * * * * * * * * //

dimensions      [0 1 -1 0 0 0 0];

internalField   nonuniform List<vector> 
458
(
(0.0330768 0.0919195 0)
(-0.179727 0.0274823 0)
(-0.209079 0.0183168 0)
(-0.243049 0.0107353 0)
(-0.265902 0.00228526 0)
(-0.27543 -0.00704792 0)
(-0.268341 -0.0175248 0)
(-0.243295 -0.0294833 0)
(-0.200764 -0.0413214 0)
(-0.145104 -0.0506867 0)
(-0.0842295 -0.0553003 0)
(-0.0265534 -0.0522719 0)
(0.0277311 -0.0278702 0)
(0.0445083 -0.00455259 0)
(0.0279603 0.0304969 0)
(-0.0090955 0.010424 0)
(-0.0390769 -0.0212366 0)
(-0.0128779 -0.0341007 0)
(0.0198953 -0.0279894 0)
(0.0411846 -0.0196132 0)
(0.0571541 -0.0105847 0)
(0.0663727 -0.00585832 0)
(0.0701634 -0.0041335 0)
(0.071406 -0.00346882 0)
(0.0718917 -0.00305486 0)
(0.0720363 -0.00272635 0)
(0.0717715 -0.00237668 0)
(0.0709186 -0.00183742 0)
(0.0689613 -0.000739011 0)
(0.0647626 0.00140167 0)
(0.0570982 0.00372562 0)
(0.0508296 0.00588625 0)
(-0.0150859 0.0248358 0)
(0.216224 0.189744 0)
(-0.168376 0.0758125 0)
(-0.17168 0.0598357 0)
(-0.208167 0.0447477 0)
(-0.232157 0.0270614 0)
(-0.243392 0.00616873 0)
(-0.238671 -0.0186523 0)
(-0.21695 -0.0459783 0)
(-0.179613 -0.0710117 0)
(-0.131557 -0.0880348 0)
(-0.0802871 -0.0928437 0)
(-0.0336122 -0.0822158 0)
(0.00798746 -0.0499741 0)
(0.0374233 -0.0128085 0)
(0.0591391 0.0257851 0)
(0.0806296 0.0388047 0)
(0.0748767 0.0547337 0)
(-0.00815081 0.0866488 0)
(0.0783774 0.047375 0)
(0.0110822 -0.0257907 0)
(0.0285205 -0.0430023 0)
(0.0447668 -0.039556 0)
(0.0585339 -0.0295523 0)
(0.0659592 -0.012712 0)
(0.0677938 -0.00266579 0)
(0.0677139 0.00105172 0)
(0.0677794 0.00238771 0)
(0.0680802 0.00311585 0)
(0.0683026 0.00362931 0)
(0.0683277 0.00407302 0)
(0.068169 0.00485748 0)
(0.0673339 0.00685475 0)
(0.0634978 0.0124538 0)
(0.0538121 0.0172319 0)
(0.0526344 0.0206727 0)
(-0.0655032 0.0533804 0)
(0.38476 0.284923 0)
(-0.185296 0.12129 0)
(-0.131442 0.0976619 0)
(-0.168771 0.0708461 0)
(-0.192063 0.041355 0)
(-0.20457 0.00720533 0)
(-0.201704 -0.0325186 0)
(-0.181759 -0.0756851 0)
(-0.148107 -0.113265 0)
(-0.106614 -0.135976 0)
(-0.0643193 -0.138916 0)
(-0.0272928 -0.120488 0)
(0.00489895 -0.0804539 0)
(0.0302154 -0.0383786 0)
(0.0507452 -0.00466297 0)
(0.0605301 0.00909826 0)
(0.0586775 0.028496 0)
(-0.0277801 0.0752818 0)
(0.138968 -0.00832652 0)
(0.075072 -0.0362572 0)
(0.0650775 -0.0472069 0)
(0.0689874 -0.0464727 0)
(0.0744381 -0.0414706 0)
(0.0771137 -0.0300381 0)
(0.0674356 -0.0190328 0)
(0.0600419 -0.0132426 0)
(0.0574665 -0.0100733 0)
(0.0569817 -0.00804843 0)
(0.0569646 -0.00667142 0)
(0.0572849 -0.00556307 0)
(0.0584007 -0.00427254 0)
(0.0614058 -0.000617516 0)
(0.0601214 0.017026 0)
(0.0471551 0.028581 0)
(0.0593599 0.0359171 0)
(-0.112744 0.0808165 0)
(0.539066 0.362177 0)
(-0.221134 0.162015 0)
(-0.0866765 0.131994 0)
(-0.124535 0.0958656 0)
(-0.143932 0.058006 0)
(-0.155983 0.0128484 0)
(-0.15328 -0.0418682 0)
(-0.132966 -0.101433 0)
(-0.103223 -0.150047 0)
(-0.0696706 -0.176408 0)
(-0.0378271 -0.176768 0)
(-0.0112608 -0.151755 0)
(0.0117047 -0.105888 0)
(0.0303974 -0.0590882 0)
(0.0456294 -0.0191426 0)
(0.0555674 0.00967761 0)
(0.0676938 0.0364577 0)
(0.0563275 0.0725214 0)
(0.10065 0.0866749 0)
(0.0945496 0.00165532 0)
(0.0799846 -0.0335545 0)
(0.0752951 -0.0436923 0)
(0.0721167 -0.0441224 0)
(0.0665092 -0.0385692 0)
(0.067405 -0.0234493 0)
(0.0800418 -0.0154593 0)
(0.0902811 -0.0111774 0)
(0.0963574 -0.00849423 0)
(0.0998385 -0.0062199 0)
(0.100981 -0.00378939 0)
(0.0984206 -0.000747328 0)
(0.0908625 0.00331232 0)
(0.0762234 0.00909116 0)
(0.0590079 0.028218 0)
(0.0420539 0.0445128 0)
(0.0678898 0.0568591 0)
(-0.157404 0.102585 0)
(0.676934 0.42207 0)
(-0.267176 0.194986 0)
(-0.0389413 0.154404 0)
(-0.0759961 0.112858 0)
(-0.0880221 0.0704159 0)
(-0.0967962 0.0176962 0)
(-0.0896789 -0.0500821 0)
(-0.0667671 -0.125021 0)
(-0.0434932 -0.179668 0)
(-0.0210102 -0.205616 0)
(-0.00229915 -0.201724 0)
(0.0117863 -0.170678 0)
(0.0231127 -0.123321 0)
(0.0332523 -0.0731095 0)
(0.0420076 -0.0295783 0)
(0.0500945 0.00404616 0)
(0.061197 0.0299741 0)
(0.0723522 0.0407614 0)
(0.0885643 0.00868007 0)
(0.0880738 -0.0228931 0)
(0.0810403 -0.0356775 0)
(0.0723021 -0.0394106 0)
(0.0641675 -0.0381166 0)
(0.057403 -0.0317303 0)
(0.0563043 -0.0186364 0)
(0.0609063 -0.0109348 0)
(0.0661392 -0.00758482 0)
(0.0705172 -0.00546797 0)
(0.0741642 -0.00271653 0)
(0.0768276 0.0015978 0)
(0.07721 0.00751674 0)
(0.0744868 0.0151634 0)
(0.0684205 0.0252077 0)
(0.0602399 0.0409669 0)
(0.0469518 0.0583342 0)
(0.0787939 0.0781321 0)
(-0.0196153 0.109147 0)
(0.0504568 0.166936 0)
(-0.0973756 0.0844277 0)
(-0.291326 0.00182053 0)
(0.782831 0.471471 0)
(-0.315621 0.216704 0)
(0.00251331 0.156033 0)
(-0.0252369 0.120464 0)
(-0.0282843 0.0789511 0)
(-0.0323573 0.0230608 0)
(-0.0088799 -0.0606301 0)
(0.0153929 -0.148198 0)
(0.0282137 -0.199962 0)
(0.0362662 -0.220233 0)
(0.039053 -0.211225 0)
(0.0380089 -0.17752 0)
(0.0357255 -0.128572 0)
(0.0339137 -0.0772404 0)
(0.0334506 -0.0337305 0)
(0.0355754 -0.00219268 0)
(0.0426598 0.0184086 0)
(0.0540743 0.0224609 0)
(0.0638063 0.00494461 0)
(0.064298 -0.0124486 0)
(0.0581836 -0.0240265 0)
(0.0495198 -0.0294276 0)
(0.0412437 -0.0298816 0)
(0.0348013 -0.0261887 0)
(0.0322778 -0.0193459 0)
(0.0339268 -0.0148853 0)
(0.037547 -0.0128325 0)
(0.0418855 -0.0111236 0)
(0.0465568 -0.00812977 0)
(0.051178 -0.00268527 0)
(0.0554667 0.00560371 0)
(0.0576686 0.016064 0)
(0.0583926 0.028614 0)
(0.0591936 0.0440305 0)
(0.0568978 0.0611299 0)
(0.0829177 0.0831315 0)
(0.0636548 0.0953551 0)
(0.102227 0.103806 0)
(0.124495 0.0579099 0)
(-0.148547 -0.0396987 0)
(0.842452 0.515832 0)
(-0.344267 0.199987 0)
(0.0363966 0.108214 0)
(0.0370087 0.108076 0)
(0.0398449 0.0759321 0)
(0.0495645 0.00620341 0)
(0.088301 -0.0890413 0)
(0.105498 -0.162041 0)
(0.106564 -0.205066 0)
(0.097807 -0.217899 0)
(0.0821135 -0.203827 0)
(0.0627245 -0.167701 0)
(0.0434842 -0.118713 0)
(0.0274053 -0.068813 0)
(0.0164825 -0.0285333 0)
(0.012069 -0.00256484 0)
(0.0155507 0.0113651 0)
(0.0237003 0.0131903 0)
(0.0295382 0.00328386 0)
(0.0295222 -0.00852668 0)
(0.024756 -0.0174299 0)
(0.0176122 -0.0220238 0)
(0.010398 -0.0230466 0)
(0.0046682 -0.0215506 0)
(0.00193636 -0.0187601 0)
(0.00244243 -0.0171245 0)
(0.00493407 -0.0165982 0)
(0.00853372 -0.0158505 0)
(0.0130305 -0.0136168 0)
(0.0184673 -0.0086602 0)
(0.0258878 0.000210299 0)
(0.0336444 0.0118715 0)
(0.0405637 0.0246639 0)
(0.04882 0.0385823 0)
(0.0565725 0.0527422 0)
(0.0787696 0.0702119 0)
(0.0915652 0.0743968 0)
(0.126835 0.0646367 0)
(0.174682 0.0491045 0)
(-0.011368 0.097076 0)
(0.95223 0.517611 0)
(-0.0724044 0.180858 0)
(0.115449 0.0491944 0)
(0.162991 0.0363743 0)
(0.157231 0.00571716 0)
(0.182212 -0.059889 0)
(0.207423 -0.120047 0)
(0.207207 -0.167056 0)
(0.187455 -0.192982 0)
(0.155416 -0.195036 0)
(0.116205 -0.175689 0)
(0.0749269 -0.138653 0)
(0.0371198 -0.0921544 0)
(0.00729797 -0.0472679 0)
(-0.0112537 -0.01492 0)
(-0.0177173 0.000397673 0)
(-0.0161932 0.00727973 0)
(-0.0112367 0.00754308 0)
(-0.00796518 0.00167516 0)
(-0.00848181 -0.00587494 0)
(-0.0124004 -0.011893 0)
(-0.0181714 -0.0153702 0)
(-0.0240611 -0.0168867 0)
(-0.0288364 -0.0173164 0)
(-0.0316973 -0.0174517 0)
(-0.0327438 -0.017992 0)
(-0.0326715 -0.0187398 0)
(-0.0319023 -0.0190917 0)
(-0.0304111 -0.0184368 0)
(-0.0278154 -0.016146 0)
(-0.0230387 -0.0114292 0)
(-0.0122887 -0.00347274 0)
(-0.000706932 0.00671803 0)
(0.0115591 0.0163112 0)
(0.0232783 0.0235872 0)
(0.0414418 0.0314987 0)
(0.0564426 0.0259169 0)
(0.0806932 0.00703101 0)
(0.150614 0.0532401 0)
(-0.477942 0.228775 0)
(1.10035 0.455783 0)
(0.542996 0.305209 0)
(0.543992 0.251176 0)
(0.5178 0.17367 0)
(0.466314 0.101178 0)
(0.423217 0.024838 0)
(0.368718 -0.0510157 0)
(0.30947 -0.109132 0)
(0.24761 -0.13982 0)
(0.183453 -0.1427 0)
(0.118225 -0.124658 0)
(0.0559127 -0.0910026 0)
(0.00384319 -0.0506643 0)
(-0.0304958 -0.0186284 0)
(-0.0448784 -0.00398619 0)
(-0.0498535 0.00223709 0)
(-0.049111 0.00448958 0)
(-0.0466596 0.00379548 0)
(-0.0453359 0.000401773 0)
(-0.0462196 -0.00407396 0)
(-0.0493406 -0.00810309 0)
(-0.0537691 -0.0110878 0)
(-0.0585033 -0.0132039 0)
(-0.0629357 -0.0147668 0)
(-0.066892 -0.0160176 0)
(-0.0706427 -0.0170818 0)
(-0.0746364 -0.0177566 0)
(-0.0792311 -0.0176225 0)
(-0.0847355 -0.0161474 0)
(-0.0915808 -0.0126749 0)
(-0.100453 -0.00635157 0)
(-0.11203 0.00356808 0)
(-0.123889 0.0168177 0)
(-0.141192 0.0334506 0)
(-0.169722 0.0533022 0)
(-0.212091 0.0744665 0)
(-0.27026 0.0915203 0)
(-0.332995 0.100311 0)
(-0.410797 0.0997935 0)
(-0.695313 0.0888526 0)
(0.2315 0.169161 0)
(0.300509 0.169037 0)
(0.311597 0.0989027 0)
(0.282878 0.0222531 0)
(0.253756 -0.0357689 0)
(0.213866 -0.0709243 0)
(0.164131 -0.0849872 0)
(0.106319 -0.0788294 0)
(0.0434133 -0.060086 0)
(-0.020576 -0.0314228 0)
(-0.0560569 -0.0130868 0)
(-0.073704 -0.00487853 0)
(-0.0801593 -0.00270683 0)
(-0.0814336 -0.00264228 0)
(-0.0806633 -0.00336656 0)
(-0.0793663 -0.00494331 0)
(-0.0788469 -0.00755207 0)
(-0.0795143 -0.0103889 0)
(-0.0814092 -0.0129487 0)
(-0.0841876 -0.0151802 0)
(-0.0875833 -0.0170605 0)
(-0.091546 -0.0186045 0)
(-0.0962035 -0.0198037 0)
(-0.101763 -0.0205662 0)
(-0.108355 -0.0206003 0)
(-0.115895 -0.0193865 0)
(-0.123992 -0.0162117 0)
(-0.131881 -0.0102753 0)
(-0.138578 -0.000783092 0)
(-0.143151 0.0118766 0)
(-0.146588 0.0283841 0)
(-0.149649 0.0492232 0)
(-0.154045 0.0733341 0)
(-0.16077 0.0961509 0)
(-0.165776 0.106082 0)
(-0.150826 0.0795663 0)
(-0.108038 -0.0301945 0)
(-0.292694 -0.23944 0)
(0.137852 0.385079 0)
(0.0156198 0.225821 0)
(0.0447141 0.11837 0)
(0.0575824 0.0515526 0)
(0.0619687 0.0150842 0)
(0.0461409 -0.010959 0)
(0.010155 -0.0137755 0)
(-0.0376342 0.0120443 0)
(-0.0756567 0.0304916 0)
(-0.0986008 0.0399692 0)
(-0.107897 0.0432158 0)
(-0.110126 0.0441717 0)
(-0.109724 0.0451193 0)
(-0.108408 0.0465658 0)
(-0.106779 0.048589 0)
(-0.105167 0.0508276 0)
(-0.104079 0.0525628 0)
(-0.103722 0.052616 0)
(-0.104076 0.0522189 0)
(-0.105135 0.0520684 0)
(-0.106823 0.0520821 0)
(-0.109045 0.0521919 0)
(-0.111713 0.0522792 0)
(-0.114758 0.052137 0)
(-0.118096 0.0515379 0)
(-0.121597 0.0502622 0)
(-0.125073 0.048065 0)
(-0.128096 0.0445134 0)
(-0.129571 0.041142 0)
(-0.127827 0.0409742 0)
(-0.121037 0.0458209 0)
(-0.107875 0.0570409 0)
(-0.0887998 0.0747703 0)
(-0.0654167 0.094701 0)
(-0.0401631 0.108367 0)
(0.000251709 0.0965344 0)
(0.145611 0.0155952 0)
(-0.205142 -0.15762 0)
(-0.513451 -0.575318 0)
(-0.708392 -0.154371 0)
(-0.472052 0.219632 0)
(-0.363596 0.0508047 0)
(-0.196631 -0.0438601 0)
(-0.13263 -0.109555 0)
(-0.116691 -0.136533 0)
(-0.122218 -0.13015 0)
(-0.138575 -0.122095 0)
(-0.145308 -0.115682 0)
(-0.142597 -0.112113 0)
(-0.136968 -0.112877 0)
(-0.130576 -0.118031 0)
(-0.125096 -0.124487 0)
(-0.120823 -0.130618 0)
(-0.11738 -0.136599 0)
(-0.114515 -0.142983 0)
(-0.112218 -0.150084 0)
(-0.110743 -0.157212 0)
(-0.110527 -0.162719 0)
(-0.11182 -0.167009 0)
(-0.114355 -0.169942 0)
(-0.117741 -0.171491 0)
(-0.121619 -0.171653 0)
(-0.125641 -0.170359 0)
(-0.129476 -0.167431 0)
(-0.132779 -0.162578 0)
(-0.135148 -0.155391 0)
(-0.136128 -0.145304 0)
(-0.135227 -0.131551 0)
(-0.131618 -0.115274 0)
(-0.123153 -0.0972344 0)
(-0.106486 -0.0775204 0)
(-0.0788814 -0.0554412 0)
(-0.0409764 -0.0300781 0)
(0.0212321 0.0018531 0)
(0.0788518 0.00559957 0)
(0.13284 -0.0198447 0)
(0.187752 -0.0725835 0)
(-0.151717 -0.1496 0)
)
;

boundaryField
{
    floor
    {
        type            noSlip;
    }
    ceiling
    {
        type            noSlip;
    }
    sWall
    {
        type            noSlip;
    }
    nWall
    {
        type            noSlip;
    }
    sideWalls
    {
        type            empty;
    }
    glass1
    {
        type            noSlip;
    }
    glass2
    {
        type            noSlip;
    }
    sun
    {
        type            noSlip;
    }
    Table_master
    {
        type            noSlip;
    }
    Table_slave
    {
        type            noSlip;
    }
    inlet
    {
        type            fixedValue;
        value           uniform (0.5 0 0);
    }
    outlet
    {
        type            zeroGradient;
    }
}


// ************************************************************************* //
