/*--------------------------------*- C++ -*----------------------------------*\
  =========                 |
  \\      /  F ield         | OpenFOAM: The Open Source CFD Toolbox
   \\    /   O peration     | Website:  https://openfoam.org
    \\  /    A nd           | Version:  6
     \\/     M anipulation  |
\*---------------------------------------------------------------------------*/
FoamFile
{
    version     2.0;
    format      ascii;
    class       volScalarField;
    location    "39399.9999990397118";
    object      nut;
}
// * * * * * * * * * * * * * * * * * * * * * * * * * * * * * * * * * * * * * //

dimensions      [0 2 -1 0 0 0 0];

internalField   nonuniform List<scalar> 
778
(
0.000894295
0.000953033
0.000949552
0.000990762
0.00102854
0.00106285
0.00109481
0.00112562
0.00115664
0.00118961
0.00122105
0.00125091
0.00128032
0.00131193
0.0013449
0.000632413
0.000905261
0.000912636
0.000890591
0.000853681
0.000804344
0.00075515
0.000709809
0.000668928
0.000632282
0.000599639
0.000570323
0.000543621
0.000518698
0.000494441
0.000469076
0.00044801
0.000405536
0.00131077
0.00258099
0.00226496
0.00261422
0.00286762
0.00313628
0.00340433
0.00365142
0.00385039
0.00396631
0.00403445
0.00400641
0.00380649
0.00331133
0.00241829
0.00147244
0.00140386
0.00134376
0.00113074
0.00192632
0.00267006
0.00310944
0.00313008
0.00247042
0.00211274
0.00186497
0.00167695
0.00152735
0.00139965
0.00128679
0.00118179
0.00107908
0.000986913
0.000907439
0.00102202
0.000514062
0.00166401
0.00360415
0.00267224
0.0038222
0.00427078
0.00465044
0.00499532
0.00529896
0.0055563
0.00575817
0.00595364
0.00615914
0.0063477
0.00645937
0.00638369
0.00584378
0.00427328
0.00164809
0.00142684
0.00305268
0.00425961
0.00483034
0.00439238
0.00115916
0.00100799
0.000891387
0.00080015
0.000727527
0.000668895
0.000621057
0.000582141
0.000551798
0.000606703
0.000713651
0.00112982
0.000584718
0.00200523
0.004858
0.00255726
0.00429822
0.00496246
0.00531798
0.00557948
0.00577307
0.00591771
0.00603508
0.00620166
0.00648277
0.00689255
0.00740733
0.00792421
0.00817763
0.00767653
0.00572333
0.00164156
0.00380502
0.00565799
0.006598
0.00682922
0.0058293
0.00132002
0.00120062
0.00110823
0.00103144
0.000965985
0.000907195
0.000851757
0.000796689
0.00073721
0.000688852
0.000714047
0.00122302
0.000643667
0.00234196
0.0064325
0.00258011
0.00408658
0.00510797
0.00541126
0.00552159
0.00552622
0.00547179
0.00542369
0.00549368
0.0057669
0.00626769
0.00697629
0.00779777
0.00855421
0.00903415
0.00902838
0.0081033
0.00824622
0.00843484
0.00846048
0.00828775
0.00775677
0.00617244
0.00533173
0.00475603
0.00428782
0.00382911
0.00338494
0.00295039
0.0025163
0.00207019
0.00159025
0.00121361
0.00121203
0.000958844
0.000767347
0.00101235
0.000967815
0.00267358
0.00819558
0.00303752
0.00344654
0.00489471
0.00523124
0.00520474
0.00501787
0.00475056
0.0045301
0.00452548
0.00481166
0.0053822
0.00620364
0.00716503
0.00812516
0.00894338
0.00946637
0.00956184
0.00946591
0.00929751
0.00905864
0.00875193
0.00836205
0.00779346
0.00724597
0.00674904
0.00626821
0.00574956
0.00519595
0.00460466
0.00397051
0.00328948
0.00256695
0.00191307
0.00143647
0.00111474
0.00125335
0.00217862
0.00115743
0.0030121
0.00982708
0.00404796
0.00282373
0.00439855
0.00494868
0.00488796
0.00458524
0.00414591
0.0037593
0.00374827
0.00410934
0.00476207
0.00567964
0.00672437
0.00775862
0.00864936
0.00928792
0.00958198
0.00955937
0.00934906
0.00903051
0.00866593
0.00830239
0.00795092
0.00762856
0.00732585
0.00700243
0.00661221
0.00614268
0.00558673
0.00494159
0.00420991
0.00341077
0.00263022
0.00190183
0.00140006
0.00125394
0.00220922
0.00136468
0.00330345
0.0110642
0.0055202
0.00268855
0.00348497
0.00438759
0.0045134
0.0042644
0.00374561
0.003219
0.00333855
0.00381589
0.00454531
0.0054906
0.00657484
0.00765733
0.00858154
0.00922445
0.00951699
0.00947935
0.00920808
0.00880779
0.00837731
0.00799564
0.00770145
0.0074913
0.00732752
0.00714932
0.00690163
0.00655499
0.00609553
0.00552047
0.00483568
0.0040624
0.0032598
0.00244701
0.00171565
0.00113587
0.00321614
0.00178815
0.00339328
0.0104839
0.00683648
0.00347642
0.00236277
0.00289659
0.00338905
0.00343019
0.00302906
0.00294458
0.00325072
0.00381163
0.00459949
0.00560105
0.00673674
0.00785236
0.00877346
0.00936708
0.00957626
0.00943369
0.00904046
0.00852451
0.0080128
0.00760469
0.00734564
0.0072184
0.00716079
0.00709237
0.00695019
0.00670004
0.00632823
0.00583334
0.00522234
0.00451308
0.00373644
0.00286541
0.00170195
0.00137931
0.00494761
0.00202099
0.00332465
0.00845871
0.00706627
0.00477519
0.00315225
0.00244095
0.00231263
0.00242174
0.00262541
0.0029499
0.00340939
0.00403995
0.00489579
0.00597475
0.0071718
0.00830319
0.00917651
0.00965843
0.00970953
0.00938682
0.0088181
0.00816378
0.00758026
0.00718074
0.00699758
0.00697599
0.00701564
0.00701494
0.00692309
0.0067206
0.00640083
0.00596357
0.00541345
0.00475594
0.00396118
0.00281959
0.00136623
0.0022532
0.00508791
0.00207255
0.00311446
0.00723186
0.00683538
0.00546791
0.0042062
0.00338561
0.00298034
0.00288927
0.00305799
0.00336773
0.00381634
0.00448075
0.00542476
0.00660711
0.00786512
0.00897304
0.0097263
0.0100072
0.00981059
0.00923468
0.00845265
0.00767049
0.0070772
0.00677942
0.00674453
0.00684186
0.00694058
0.00694235
0.00684564
0.00664929
0.00634905
0.00594121
0.00542225
0.00476505
0.00379656
0.00225227
0.00142946
0.00284392
0.00512979
0.00206957
0.00283619
0.00652145
0.00659558
0.00579056
0.00492418
0.00427271
0.00388958
0.0037527
0.00378804
0.00397489
0.00438563
0.00512652
0.00621721
0.00752691
0.00881253
0.00981057
0.010326
0.0102837
0.00973752
0.00884839
0.00785825
0.00703269
0.00656585
0.00647032
0.00655025
0.00668012
0.00676647
0.00674322
0.00663114
0.00643178
0.0061381
0.00574027
0.00521902
0.00447222
0.00308431
0.00156427
0.00183472
0.00321655
0.00478442
0.0020162
0.00258655
0.00583364
0.00629868
0.00591746
0.00536102
0.00489408
0.0045839
0.00443276
0.00438779
0.00454602
0.00506602
0.00603346
0.00735358
0.00877263
0.00997686
0.010702
0.0108074
0.0102969
0.00931545
0.00811205
0.00702668
0.00632971
0.00601861
0.00597357
0.00605864
0.0061807
0.00626314
0.00624422
0.00613397
0.00593204
0.00563035
0.00521488
0.00464082
0.00369856
0.00217748
0.0015044
0.00221136
0.00338506
0.0042374
0.00194232
0.00259425
0.00578984
0.00643531
0.00598952
0.00553912
0.00517054
0.00490495
0.00473266
0.00472401
0.00510764
0.00602508
0.00739669
0.00894661
0.01032
0.011201
0.0114003
0.0108925
0.00979355
0.00838544
0.00702518
0.0060381
0.00544804
0.00515846
0.0050789
0.00513104
0.00523969
0.00532827
0.00531896
0.00520201
0.00497452
0.00463383
0.00418194
0.00360763
0.00282495
0.00188251
0.00160264
0.00236039
0.00351145
0.0045621
0.00192489
0.00234164
0.00243548
0.00359193
0.00421889
0.00441214
0.00441443
0.00437092
0.00445013
0.00498599
0.00612949
0.00773786
0.00947501
0.0109652
0.0118945
0.0120745
0.0114638
0.0102091
0.00854932
0.00696515
0.00572208
0.0048754
0.00437354
0.00412724
0.00403842
0.00403966
0.00408209
0.00410998
0.00405203
0.00387686
0.0035896
0.00321692
0.00281327
0.00243764
0.00211232
0.00183862
0.0018129
0.00246578
0.00377899
0.00478721
0.00206803
0.000807756
0.00146594
0.00226286
0.00290433
0.00364596
0.00490045
0.00674415
0.00878879
0.0106506
0.0120458
0.0127816
0.012731
0.0118929
0.0103504
0.0085069
0.00675211
0.00534969
0.00439363
0.00385029
0.00356719
0.00341291
0.00332005
0.00325766
0.00320338
0.00312732
0.0029935
0.00278589
0.00253353
0.00229242
0.00211893
0.00203721
0.00203933
0.00212031
0.00233768
0.00292419
0.00444792
0.00498214
0.00210628
0.00149727
0.00207876
0.00303625
0.00474593
0.00706526
0.0093887
0.011191
0.0124936
0.0132856
0.0135153
0.0130859
0.011899
0.0101351
0.00813277
0.00628458
0.00487846
0.00402489
0.00358342
0.00335221
0.00321489
0.00312507
0.00306336
0.0030159
0.00296624
0.00289406
0.00278434
0.00264862
0.00252008
0.00243724
0.00242558
0.00248726
0.00261278
0.00280762
0.0031223
0.00370012
0.00511084
0.00539489
0.00214367
0.00275724
0.00666529
0.00612501
0.00548282
0.00698163
0.00932297
0.0113028
0.012641
0.0133479
0.0135271
0.0132657
0.0125287
0.0112785
0.00957174
0.00764577
0.00586732
0.00460555
0.00390646
0.00354605
0.00334027
0.00321217
0.00313801
0.00310866
0.00311364
0.00313662
0.00315642
0.00315292
0.00312014
0.00308281
0.00306183
0.00307181
0.00312018
0.00320529
0.00332103
0.00346926
0.00367536
0.00400552
0.00458087
0.00485847
0.00204677
0.00263902
0.00510047
0.00658865
0.0084128
0.00934905
0.0103225
0.0108948
0.0110386
0.0108317
0.010332
0.00956561
0.00854772
0.00733301
0.00606893
0.00497752
0.0041922
0.0036713
0.00333803
0.00311491
0.00296804
0.00288904
0.00287609
0.00292372
0.00301846
0.00313785
0.0032531
0.00333627
0.00337933
0.00341345
0.00345746
0.00352133
0.00360879
0.00371964
0.00385403
0.00401848
0.00422104
0.00444982
0.00488029
0.00530541
0.00200029
0.00247425
0.00211955
0.00210909
0.0021703
0.00222094
0.00215443
0.00202523
0.00187483
0.00172513
0.00158451
0.00145479
0.00133701
0.00123495
0.00115473
0.00110091
0.00107343
0.00106498
0.00106671
0.00107645
0.00109302
0.00111499
0.00114041
0.0011673
0.00119407
0.00121979
0.00124436
0.0012685
0.00129316
0.00131934
0.00134876
0.00138254
0.00142123
0.00146497
0.00151385
0.00156868
0.00163373
0.00172269
0.0018452
0.00199506
0.00192116
)
;

boundaryField
{
    floor
    {
        type            nutkWallFunction;
        Cmu             0.09;
        kappa           0.41;
        E               9.8;
        value           nonuniform List<scalar> 
36
(
0.00016058
7.63875e-05
0.000109509
0.000110386
0.000107762
0.000103351
9.74192e-05
9.14619e-05
8.59304e-05
8.09068e-05
7.63721e-05
7.2306e-05
6.86314e-05
6.52641e-05
6.21028e-05
5.90079e-05
5.57513e-05
5.30297e-05
4.74921e-05
4.74921e-05
6.15123e-05
7.04381e-05
7.77842e-05
9.29424e-05
0.000122152
0.000116918
0.00016058
0.000175014
0.00016727
0.000160449
7.63874e-05
0.000160449
0.000135986
0.000194671
0.000169868
0.000193943
)
;
    }
    ceiling
    {
        type            nutkWallFunction;
        Cmu             0.09;
        kappa           0.41;
        E               9.8;
        value           nonuniform List<scalar> 
43
(
0.000284377
0.000246311
0.00024518
0.000251803
0.000257271
0.000250111
0.000236116
0.000219692
0.000203197
0.000187558
0.000172996
0.000159656
0.000147996
0.000138763
0.000132529
0.000129328
0.000128343
0.000128539
0.000129668
0.000131594
0.000134147
0.000137102
0.000140226
0.000143331
0.00014631
0.000149149
0.000151928
0.00015476
0.000157755
0.000161108
0.00016495
0.00016934
0.000174288
0.000179795
0.000185933
0.000193127
0.00020288
0.000216289
0.000232673
0.000224771
0.000270418
0.000280446
0.000177599
)
;
    }
    sWall
    {
        type            nutkWallFunction;
        Cmu             0.09;
        kappa           0.41;
        E               9.8;
        value           nonuniform List<scalar> 9(0.00037389 0.000352084 0.000322983 0.000296625 0.000297438 0.000270507 0.000314366 0.000301918 0.000284479);
    }
    nWall
    {
        type            nutkWallFunction;
        Cmu             0.09;
        kappa           0.41;
        E               9.8;
        value           nonuniform List<scalar> 
14
(
0.000116926
0.00013909
0.000162838
0.000241307
0.000240938
0.000235094
0.000227057
0.0002253
0.000240897
0.000244972
0.000248996
0.000238457
0.000233365
0.000224806
)
;
    }
    sideWalls
    {
        type            empty;
    }
    glass1
    {
        type            nutkWallFunction;
        Cmu             0.09;
        kappa           0.41;
        E               9.8;
        value           nonuniform List<scalar> 9(0.000108246 0.000156881 0.000196735 0.000234347 0.000270789 0.000306137 0.00034175 0.00037207 0.000381372);
    }
    glass2
    {
        type            nutkWallFunction;
        Cmu             0.09;
        kappa           0.41;
        E               9.8;
        value           nonuniform List<scalar> 2(0.000210282 0.00023585);
    }
    sun
    {
        type            nutkWallFunction;
        Cmu             0.09;
        kappa           0.41;
        E               9.8;
        value           nonuniform List<scalar> 
14
(
0.000108205
0.000115177
0.000114765
0.00011963
0.000124069
0.000128085
0.000131811
0.000135392
0.000138987
0.000142796
0.000146417
0.000149846
0.000153214
0.000156824
)
;
    }
    Table_master
    {
        type            nutkWallFunction;
        Cmu             0.09;
        kappa           0.41;
        E               9.8;
        value           nonuniform List<scalar> 9(0.00013927 0.000121651 0.000107854 9.69125e-05 8.80987e-05 8.09064e-05 7.49825e-05 7.01226e-05 6.63061e-05);
    }
    Table_slave
    {
        type            nutkWallFunction;
        Cmu             0.09;
        kappa           0.41;
        E               9.8;
        value           nonuniform List<scalar> 9(0.000157735 0.000144055 0.000133365 0.000124402 0.000116703 0.000109736 0.000103118 9.64946e-05 8.92796e-05);
    }
    inlet
    {
        type            calculated;
        value           uniform 0.000167705;
    }
    outlet
    {
        type            calculated;
        value           nonuniform List<scalar> 2(0.00275724 0.00666529);
    }
}


// ************************************************************************* //
