/*--------------------------------*- C++ -*----------------------------------*\
  =========                 |
  \\      /  F ield         | OpenFOAM: The Open Source CFD Toolbox
   \\    /   O peration     | Website:  https://openfoam.org
    \\  /    A nd           | Version:  6
     \\/     M anipulation  |
\*---------------------------------------------------------------------------*/
FoamFile
{
    version     2.0;
    format      ascii;
    class       surfaceScalarField;
    location    "39399.9999990397118";
    object      phi;
}
// * * * * * * * * * * * * * * * * * * * * * * * * * * * * * * * * * * * * * //

dimensions      [1 0 -1 0 0 0 0];

internalField   nonuniform List<scalar> 
1482
(
-0.00279983
0.00286386
-0.00348419
0.000684362
-0.00414511
0.000660916
-0.00475946
0.000614358
-0.00528113
0.000521667
-0.00569332
0.000412192
-0.00598477
0.000291451
-0.00614239
0.000157614
-0.0061488
6.41694e-06
-0.00597804
-0.00017077
-0.00560013
-0.000377909
-0.00498406
-0.000616068
-0.00405966
-0.000924398
-0.00258061
-0.00147905
-0.00257769
-6.527e-05
7.01233e-05
0.000777534
-0.000842804
0.00142935
-0.000651812
0.00182811
-0.000398761
0.00204922
-0.000221114
0.00215346
-0.000104234
0.00220081
-4.73537e-05
0.00222359
-2.27768e-05
0.00223324
-9.64881e-06
0.00223402
-7.81197e-07
0.00222688
7.13628e-06
0.00220787
1.90154e-05
0.00216368
4.41819e-05
0.00206118
0.0001025
0.00184509
0.000216096
0.0014887
0.000356383
0.00101894
0.000469769
0.00102538
-0.00204044
0.00507463
-0.00290869
0.00155261
-0.00369473
0.00144696
-0.00434603
0.00126566
-0.00488359
0.00105922
-0.00531266
0.000841264
-0.00563143
0.000610217
-0.00583305
0.000359235
-0.00590682
8.0187e-05
-0.00584489
-0.0002327
-0.00564146
-0.000581336
-0.00528525
-0.000972282
-0.00477509
-0.00143456
-0.00428904
-0.0019651
-0.00470499
-0.00216174
-0.00311805
-0.0015815
-0.00163401
-0.00147836
-0.00161916
0.00131716
-0.00123683
0.00166025
-0.0011859
0.00191062
-0.000902175
0.00210053
-0.000588673
0.00220675
-0.000327335
0.00221543
-0.000112914
0.00221751
-4.94371e-05
0.00221922
-2.44854e-05
0.00222023
-1.06521e-05
0.00222022
-7.75828e-07
0.00221882
8.54084e-06
0.00221458
2.32513e-05
0.00220193
5.68269e-05
0.00214006
0.000164377
0.00189071
0.000465444
0.00146217
0.000784928
0.000900433
0.0010315
0.00194269
-0.00148832
0.00682088
-0.00235934
0.00242363
-0.0031295
0.00221712
-0.00371396
0.00185011
-0.00418488
0.00153015
-0.00455659
0.00121298
-0.00483087
0.000884491
-0.00500444
0.000532807
-0.00507088
0.000146627
-0.00502111
-0.000282472
-0.0048444
-0.000758047
-0.00453336
-0.00128332
-0.00411888
-0.00184904
-0.00372167
-0.0023623
-0.0033016
-0.00258181
-0.00237035
-0.00251275
-0.00127615
-0.00257257
-0.00288247
0.00114869
-0.00237106
0.0016514
-0.00168861
0.00194889
-0.00119967
0.00214044
-0.000780214
0.0021681
-0.000355001
0.00205534
0.00200606
0.00198173
0.00197123
0.00197061
0.0019793
0.00200271
0.00205969
0.00222422
0.0018656
0.000824061
0.00141827
0.00123226
0.000800632
0.00164914
0.00276936
-0.00110613
0.00825822
-0.00192816
0.00324565
-0.00257037
0.00285934
-0.00303091
0.00231064
-0.00339865
0.0018979
-0.00368766
0.00150198
-0.0039009
0.00109773
-0.00403651
0.00066842
-0.00408696
0.000197075
-0.00403904
-0.000330392
-0.00388049
-0.000916594
-0.00360728
-0.00155653
-0.00324211
-0.00221422
-0.00282084
-0.00278357
-0.00228217
-0.00312048
-0.00156321
-0.00323171
-0.000875659
-0.00326011
-0.000697447
-0.00306068
0.00143873
-0.00212073
0.00137252
-0.00230486
0.00168864
-0.00200473
0.00200133
-0.00151235
0.0022677
-0.00104658
0.00254478
-0.000632083
0.00285705
-0.000312422
0.00302328
-0.000166385
0.00308744
-6.43139e-05
0.00306999
1.7295e-05
0.00297968
9.0153e-05
0.00281749
0.000162033
0.0025756
0.000241741
0.00223108
0.00034437
0.00172676
0.000504167
0.00159057
0.000960246
0.00126335
0.00155948
0.00073809
0.0021744
0.00354177
-0.000803831
0.00945525
-0.00158009
0.00402191
-0.00204892
0.00332817
-0.00236481
0.00262653
-0.00260936
0.00214245
-0.00279507
0.00168769
-0.00292695
0.00122961
-0.00300571
0.000747175
-0.00302477
0.000216137
-0.00296751
-0.000387656
-0.0028207
-0.0010634
-0.00257751
-0.00179972
-0.00224461
-0.00254711
-0.00182918
-0.00319899
-0.00132482
-0.00362484
-0.000749151
-0.00380738
-0.000218622
-0.00379064
0.000258495
-0.00353779
0.00111978
-0.00298201
0.00148614
-0.00267122
0.00174554
-0.00226412
0.00199824
-0.00176506
0.00222825
-0.00127659
0.00244253
-0.000846361
0.002643
-0.00051289
0.00275243
-0.000275817
0.0027882
-0.000100088
0.00276205
4.34517e-05
0.0026804
0.000171802
0.00254577
0.000296662
0.00235696
0.000430543
0.00211157
0.00058976
0.00181755
0.000798192
0.00161176
0.00116604
0.00146973
0.00170151
0.00128905
0.00235508
0.0022708
0.00256003
0.00131531
0.00099042
0.00189156
-0.000547539
0.00201059
-0.000575883
0.0104775
-0.00132488
0.00477091
-0.0015847
0.00358798
-0.00175081
0.00279264
-0.001865
0.00225664
-0.0019367
0.00175939
-0.00197236
0.00126527
-0.00197626
0.000751081
-0.00194523
0.000185105
-0.0018575
-0.000475387
-0.00170333
-0.00121757
-0.00147291
-0.00203014
-0.0011692
-0.00285082
-0.000798075
-0.00357012
-0.000379295
-0.00404362
6.03162e-05
-0.00424699
0.000465182
-0.0041955
0.00083947
-0.00391208
0.0012907
-0.00343325
0.00158988
-0.00297039
0.00179358
-0.00246782
0.0019653
-0.00193677
0.00211706
-0.00142836
0.00225148
-0.000980777
0.00235595
-0.000617366
0.00241365
-0.000333509
0.00242436
-0.000110802
0.00239336
7.44478e-05
0.0023255
0.000239668
0.0022246
0.00039756
0.00209472
0.000560425
0.00194282
0.000741654
0.00178317
0.000957842
0.00169154
0.00125767
0.00174627
0.00164678
0.0019527
0.00214865
0.00218849
0.00232423
0.00169984
0.00147908
0.000785403
0.000366897
0.00289368
-0.000543373
0.0115131
-0.00124366
0.0054712
-0.0011922
0.00353653
-0.00120082
0.00280126
-0.00119344
0.00224925
-0.00116025
0.0017262
-0.0011034
0.00120843
-0.00102859
0.000676269
-0.000930447
8.6959e-05
-0.000781734
-0.0006241
-0.000592852
-0.00140645
-0.000353391
-0.0022696
-7.04812e-05
-0.00313373
0.000233487
-0.00387409
0.000542766
-0.0043529
0.00083743
-0.00454165
0.00110011
-0.00445818
0.00133347
-0.00414544
0.00156551
-0.00366529
0.00172554
-0.00313042
0.00182581
-0.00256808
0.00189608
-0.00200705
0.00195197
-0.00148425
0.00199858
-0.00102738
0.00203057
-0.000649362
0.00204229
-0.000345228
0.00203041
-9.89177e-05
0.00199573
0.000109125
0.0019414
0.000294001
0.00187123
0.000467728
0.00179043
0.000641224
0.00170746
0.000824624
0.00163711
0.00102819
0.00162199
0.00127279
0.00170556
0.0015632
0.00190772
0.0019465
0.00214777
0.00208418
0.00215503
0.00147182
0.00162939
0.000892535
0.00462611
-0.000483515
0.0125321
-0.00105158
0.00603927
-0.000697691
0.00318263
-0.000637168
0.00274074
-0.000569102
0.00218119
-0.000464765
0.00162186
-0.000336117
0.00107978
-0.000185332
0.000525484
3.62014e-06
-0.000101993
0.00022152
-0.000841999
0.000460831
-0.00164576
0.000717959
-0.00252673
0.000974242
-0.00339002
0.00120238
-0.00410223
0.00140128
-0.00455181
0.00156227
-0.00470265
0.00168009
-0.004576
0.00175953
-0.00422487
0.00181302
-0.00371877
0.00182361
-0.003141
0.00179939
-0.00254387
0.00175921
-0.00196686
0.00171784
-0.00144288
0.00168265
-0.000992197
0.00165358
-0.000620296
0.00162676
-0.000318399
0.00159743
-6.95922e-05
0.00156349
0.000143061
0.0015253
0.000332191
0.00148431
0.000508718
0.00144379
0.000681745
0.00141004
0.000858374
0.00139393
0.00104431
0.0014183
0.00124842
0.00150907
0.00147243
0.00171021
0.00174535
0.00197011
0.00182428
0.00206726
0.00137468
0.00164433
0.00131548
0.00663715
0.0029761
0.0101432
0.00202061
0.00699475
0.000867864
0.00433538
0.000369576
0.00323902
0.000212602
0.00233816
0.000268758
0.00156571
0.000422318
0.000926219
0.000635827
0.000311975
0.000894747
-0.000360912
0.00115908
-0.00110634
0.00143708
-0.00192376
0.0017036
-0.00279324
0.00192926
-0.00361568
0.00208987
-0.00426285
0.00217955
-0.0046415
0.00220103
-0.00472412
0.00216317
-0.00453814
0.00207968
-0.00414138
0.00196578
-0.00360488
0.00182704
-0.00300226
0.00167551
-0.00239233
0.00152789
-0.00181925
0.00139868
-0.00131367
0.00129592
-0.000889433
0.00122076
-0.000545138
0.00116845
-0.000266095
0.00113188
-3.30184e-05
0.00110595
0.000168995
0.00108738
0.000350756
0.00107416
0.000521934
0.00106656
0.000689346
0.00106766
0.000857278
0.00108383
0.00102814
0.00112759
0.00120465
0.00121415
0.00138588
0.00137438
0.00158512
0.00156776
0.00163089
0.00162682
0.00131562
0.000275497
0.00266684
0.00729824
0.00403045
0.006253
0.00366622
0.00735898
0.00254081
0.0054608
0.00188767
0.00389216
0.00153108
0.00269475
0.00138613
0.00171066
0.0014197
0.00089265
0.00159371
0.000137967
0.00184523
-0.000612437
0.00212175
-0.00138286
0.00240085
-0.00220286
0.00264525
-0.00303765
0.00281335
-0.00378379
0.00287822
-0.00432772
0.00283662
-0.00459991
0.00270242
-0.00458993
0.00249797
-0.0043337
0.00224764
-0.00389106
0.00197421
-0.00333144
0.0016948
-0.00272285
0.00142651
-0.00212403
0.00118703
-0.00157977
0.000990899
-0.00111753
0.000844028
-0.000742562
0.000745208
-0.000446318
0.000685721
-0.000206608
0.00065484
-2.13759e-06
0.000644043
0.000179791
0.000646682
0.000348117
0.000658104
0.000510512
0.00067612
0.00067133
0.000700524
0.000832874
0.000732655
0.000996009
0.000775611
0.0011617
0.000827983
0.00133351
0.000858989
0.00155411
0.000579125
0.00191073
-0.000675241
0.00256985
-0.00195631
0.00394796
0.0054461
0.00240922
0.0040083
0.00330392
0.00646428
0.00324784
0.00551688
0.00303701
0.00410299
0.00284585
0.00288591
0.00272238
0.00183413
0.00270822
0.000906806
0.00279676
4.94182e-05
0.00295813
-0.000773805
0.00316812
-0.00159285
0.0033849
-0.00241964
0.00354848
-0.00320123
0.00360421
-0.00383953
0.00352552
-0.00424905
0.00331789
-0.00439229
0.0030075
-0.00427955
0.00262887
-0.00395507
0.00221551
-0.0034777
0.0017971
-0.00291303
0.00139738
-0.00232313
0.0010378
-0.00176446
0.000737639
-0.00127961
0.0005104
-0.000890292
0.000353884
-0.000586046
0.000259319
-0.000351753
0.000210515
-0.000157804
0.000194301
1.40757e-05
0.00020057
0.000173522
0.000221432
0.000327254
0.000252007
0.000479937
0.00028879
0.000634546
0.000328638
0.000793026
0.000368196
0.000956452
0.000404242
0.00112565
0.000430152
0.0013076
0.000380422
0.00160383
6.68973e-05
0.00222404
-0.000334401
0.00297075
-0.000517454
0.00413079
0.0050442
0.00145685
0.00274569
0.00274829
0.00517284
0.0034325
0.00483266
0.00371852
0.00381697
0.0038168
0.00278762
0.00384461
0.00180633
0.00388031
0.000871097
0.00394905
-1.93201e-05
0.00405865
-0.000883407
0.00419815
-0.00173235
0.00431609
-0.00253759
0.00434189
-0.00322703
0.00422413
-0.00372178
0.00395071
-0.00397563
0.00354416
-0.00398576
0.00304442
-0.00377983
0.00249567
-0.00340632
0.00193685
-0.00291889
0.00140231
-0.00237849
0.000919228
-0.00184005
0.000514296
-0.00135952
0.000205189
-0.0009705
-3.81961e-06
-0.000681283
-0.000129848
-0.000460017
-0.000197498
-0.000284104
-0.00022719
-0.000128112
-0.000230126
1.70119e-05
-0.000213166
0.000156562
-0.000181094
0.000295182
-0.000137759
0.000436601
-8.75334e-05
0.00058432
-3.64605e-05
0.000741953
6.45447e-06
0.000913536
2.78333e-05
0.00110428
3.4072e-07
0.0013351
-0.000164799
0.00176895
-0.000538429
0.00259744
-0.000839186
0.00327109
-0.000793315
0.00408454
0.00437963
0.00217163
0.000800021
0.00294403
0.00440044
0.00359481
0.00418187
0.00416504
0.00324674
0.00449262
0.00246003
0.00466664
0.0016323
0.00478312
0.00075461
0.00488749
-0.000123684
0.00499341
-0.000989321
0.00507078
-0.00180971
0.00505394
-0.00252074
0.00488284
-0.00305593
0.00453508
-0.00337403
0.00402962
-0.00347019
0.0034116
-0.00336775
0.00273218
-0.00310041
0.00204053
-0.00271468
0.00137525
-0.00225361
0.000775849
-0.0017791
0.000269676
-0.00133387
-0.000107316
-0.000982531
-0.00035284
-0.000724973
-0.000496496
-0.000537625
-0.000575337
-0.000381175
-0.000617504
-0.000241937
-0.000634279
-0.000111337
-0.000630527
1.32595e-05
-0.000608577
0.00013461
-0.000570113
0.000256718
-0.000517811
0.000384298
-0.000456622
0.000523131
-0.000395204
0.000680533
-0.000348578
0.00086691
-0.000344995
0.0011007
-0.000439642
0.00142979
-0.000703443
0.00203292
-0.00123546
0.00312961
-0.00216182
0.0041974
-0.00231635
0.00423892
0.00220662
-0.00157524
0.00262043
0.00112051
0.00170469
0.00335229
0.00195009
0.00435503
0.002244
0.004859
0.00195606
0.00517344
0.00131786
0.00540126
0.000526796
0.00557889
-0.000301307
0.00567778
-0.00108818
0.00563558
-0.00176749
0.00540129
-0.00228642
0.00496313
-0.00261776
0.00434891
-0.00275981
0.00361164
-0.00273293
0.00281196
-0.00256807
0.00200061
-0.00228907
0.00122731
-0.00194139
0.000524176
-0.00155048
-5.8349e-05
-0.00119658
-0.000479045
-0.000913174
-0.000738612
-0.000722959
-0.000886455
-0.000577122
-0.000971321
-0.000452754
-0.00101891
-0.000333583
-0.00104427
-0.000216583
-0.00105265
-0.000102954
-0.00104486
5.45845e-06
-0.00101976
0.000109516
-0.000976352
0.000213305
-0.000915606
0.000323551
-0.000841617
0.000449141
-0.00076287
0.000601784
-0.000694125
0.000798161
-0.000659733
0.00106631
-0.000695426
0.00146555
-0.000795411
0.00213318
-0.000907787
0.00324247
-0.00136976
0.00465979
-0.00159928
0.00446888
0.000764272
0.00288218
0.00457169
0.0048725
0.00164928
0.00535943
0.00175707
0.005596
0.00171949
0.00582713
0.00108673
0.00601414
0.000339798
0.00608036
-0.000367491
0.00595413
-0.000961903
0.00560169
-0.001415
0.00503529
-0.00172
0.0043016
-0.00188407
0.0034587
-0.0019169
0.00256565
-0.00183988
0.00167865
-0.00168107
0.000832203
-0.00144262
7.16936e-05
-0.00118088
-0.000540319
-0.000938471
-0.000962852
-0.000774038
-0.00121813
-0.000657879
-0.00136761
-0.000573464
-0.00145224
-0.000492472
-0.00150141
-0.000403578
-0.00152959
-0.000305398
-0.00154364
-0.000202545
-0.00154555
-0.000101051
-0.00153445
-5.65502e-06
-0.0015076
8.26529e-05
-0.00146189
0.000167597
-0.0013959
0.000257553
-0.00131083
0.000364078
-0.00121081
0.000501752
-0.00110205
0.000689374
-0.000989358
0.000953576
-0.000863298
0.00133946
-0.000659984
0.00193001
-0.000236402
0.00281931
0.000367596
0.00405619
0.000871827
0.00396513
0.00179808
0.00793097
0.00536659
0.00581107
0.00387695
0.00556347
0.00196708
0.00563566
0.00101457
0.0056013
0.000374203
0.00535927
-0.000125399
0.00489709
-0.000499679
0.00425437
-0.00077225
0.00348424
-0.00094985
0.00263962
-0.00103944
0.00176164
-0.00103892
0.000888407
-0.000966657
5.75377e-05
-0.00085021
-0.000666689
-0.000718397
-0.00122292
-0.000624653
-0.00160057
-0.000560811
-0.00184151
-0.000533077
-0.00198456
-0.000514796
-0.00207143
-0.000486551
-0.00212617
-0.000437696
-0.00216142
-0.00036831
-0.00218312
-0.000283705
-0.0021942
-0.000191504
-0.00219574
-9.95502e-05
-0.00218729
-1.41449e-05
-0.00216644
6.17741e-05
-0.0021295
0.000130648
-0.00207249
0.000200554
-0.00199104
0.000282653
-0.00187916
0.000389862
-0.00172784
0.000537997
-0.00152227
0.000747878
-0.00122961
0.00104662
-0.000768021
0.00146827
-1.35243e-05
0.00206485
0.00102356
0.00301934
0.00153424
0.00345475
0.00350333
0.00408936
0.00152378
0.00449126
0.00347504
0.00372469
0.00273368
0.00322813
0.00151117
0.00288892
0.000713475
0.00252644
0.000237127
0.00208056
-5.37827e-05
0.0015388
-0.000230494
0.000919669
-0.000330726
0.000240488
-0.000360279
-0.000459486
-0.000338955
-0.00111858
-0.000307579
-0.00168119
-0.000287621
-0.00211143
-0.00028816
-0.00241457
-0.000321507
-0.00260754
-0.000367806
-0.00273065
-0.000409906
-0.00281465
-0.000430715
-0.00287809
-0.000423039
-0.00292872
-0.000387019
-0.00296923
-0.000327801
-0.00300006
-0.000252925
-0.00302094
-0.000170702
-0.00303174
-8.88592e-05
-0.00303315
-1.28249e-05
-0.00302559
5.41663e-05
-0.0030056
0.000110658
-0.00296751
0.000162512
-0.00290205
0.000217278
-0.00279492
0.000282794
-0.00262609
0.000369154
-0.00236896
0.000490616
-0.00198487
0.000662255
-0.00140769
0.000890723
-0.000513114
0.00116991
0.000884992
0.0016211
0.00160298
0.00273671
0.00528495
-0.00263527
-0.00680966
-0.00742982
-0.0074786
-0.00375609
-0.0021499
-0.00168287
0.00140185
-0.00076856
0.00181941
-0.000565771
0.00130842
-0.000640787
0.000788517
-0.00082251
0.000418861
-0.00106117
0.000184876
-0.00135132
5.96444e-05
-0.00169684
1.47734e-05
-0.0020747
1.75515e-05
-0.00245015
3.64618e-05
-0.00279696
3.92021e-05
-0.00308966
5.0561e-06
-0.00330138
-7.64198e-05
-0.00343399
-0.000188855
-0.00351703
-0.000284676
-0.00358048
-0.000346346
-0.00363991
-0.000371165
-0.00370031
-0.000362558
-0.00376127
-0.000326027
-0.0038208
-0.000268319
-0.00387662
-0.000197215
-0.00392609
-0.000121396
-0.00396529
-4.9848e-05
-0.0039868
8.5294e-06
-0.00398627
5.35416e-05
-0.00396696
9.13409e-05
-0.00393002
0.000125658
-0.00387222
0.000159632
-0.00378507
0.000195839
-0.00365415
0.000238391
-0.00345729
0.000293829
-0.00315467
0.000359558
-0.00266962
0.000405417
-0.00196755
0.000467419
-0.00132591
0.000978963
-0.000775297
0.00218564
0.00470423
-0.00738147
0.00102548
-0.00814686
-0.00671315
-0.00719251
-0.0031042
-0.00566813
-0.000122475
-0.00457525
0.000726573
-0.00398394
0.000717129
-0.0037248
0.000529371
-0.00365759
0.000351623
-0.00369857
0.000225813
-0.00379185
0.000152867
-0.00389626
0.000119113
-0.00398454
0.000105759
-0.00404291
9.47829e-05
-0.00407513
7.1386e-05
-0.00409751
2.74509e-05
-0.00412642
-4.74565e-05
-0.00417337
-0.000141804
-0.00424084
-0.000217064
-0.00432764
-0.000259402
-0.00442795
-0.000270741
-0.00453295
-0.000257504
-0.00463286
-0.000226136
-0.00471912
-0.000182168
-0.00478592
-0.000130605
-0.00483062
-7.69389e-05
-0.00485299
-2.77209e-05
-0.00485406
9.38005e-06
-0.0048283
2.7642e-05
-0.00477815
4.11499e-05
-0.00470628
5.38329e-05
-0.00461185
6.53536e-05
-0.004489
7.31989e-05
-0.00432481
7.4442e-05
-0.00409858
6.78471e-05
-0.00378431
4.54914e-05
-0.00333285
-4.5893e-05
-0.00253888
-0.000326428
-0.000983875
-0.000576026
-5.56021e-05
0.00125714
0.00485576
0.00156731
-0.00508116
-0.00812233
-0.0081856
-0.00740497
-0.0066416
-0.00607267
-0.00568622
-0.00542857
-0.00524545
-0.00509665
-0.00496098
-0.00483557
-0.00473267
-0.00467296
-0.00468785
-0.00479719
-0.0049822
-0.00521017
-0.00545022
-0.00567775
-0.00587449
-0.00602768
-0.00612953
-0.0061778
-0.00617688
-0.00613886
-0.00608268
-0.00601323
-0.00593153
-0.00583895
-0.00573937
-0.00563957
-0.00554754
-0.00547917
-0.00550366
-0.0058103
-0.00636821
-0.00509451
)
;

boundaryField
{
    floor
    {
        type            calculated;
        value           nonuniform List<scalar> 
36
(
0
0
0
0
0
0
0
0
0
0
0
0
0
0
0
0
0
0
0
-6.43891e-06
-1.68851e-05
-2.60351e-05
-3.43138e-05
-3.49354e-05
-2.87075e-05
-2.86784e-05
-2.91995e-06
-5.44146e-06
-5.6877e-06
-5.90797e-06
-4.85362e-06
-8.93874e-06
-1.02126e-05
-1.28338e-05
-1.44574e-05
-1.5445e-05
)
;
    }
    ceiling
    {
        type            calculated;
        value           nonuniform List<scalar> 
43
(
-5.78897e-05
-6.46158e-05
-6.29685e-05
-5.9146e-05
-5.40218e-05
-4.62286e-05
-3.95809e-05
-3.48796e-05
-3.19278e-05
-3.03452e-05
-2.9786e-05
-2.99832e-05
-3.06733e-05
-3.15326e-05
-3.22189e-05
-3.24954e-05
-3.23522e-05
-3.19225e-05
-3.13052e-05
-3.06184e-05
-2.99794e-05
-2.9474e-05
-2.9137e-05
-2.89552e-05
-2.88824e-05
-2.88548e-05
-2.88004e-05
-2.86471e-05
-2.83339e-05
-2.78236e-05
-2.7106e-05
-2.61911e-05
-2.51016e-05
-2.38655e-05
-2.25079e-05
-2.1047e-05
-1.94897e-05
-1.79313e-05
-1.65709e-05
-1.61856e-05
1.93403e-05
1.51874e-05
-0.000246554
)
;
    }
    sWall
    {
        type            calculated;
        value           nonuniform List<scalar> 9(-0.000140236 -0.000164519 -0.000194245 -0.00022596 -0.000245165 -0.000281097 -0.000423731 -0.000453622 -0.000483915);
    }
    nWall
    {
        type            calculated;
        value           nonuniform List<scalar> 
14
(
-9.0357e-05
-9.76775e-05
-0.000103035
-0.0001041
-0.000115526
-0.000128766
-0.000143389
-0.000156542
-0.000161595
-0.000170832
-0.000178719
-0.000194755
-0.000207507
-0.000222873
)
;
    }
    sideWalls
    {
        type            empty;
        value           nonuniform 0();
    }
    glass1
    {
        type            calculated;
        value           nonuniform List<scalar> 9(-6.40348e-05 -0.000170322 -0.000257925 -0.000331211 -0.000393196 -0.000446404 -0.000492218 -0.0005355 -0.000587178);
    }
    glass2
    {
        type            calculated;
        value           nonuniform List<scalar> 2(-0.000366697 -0.000385512);
    }
    sun
    {
        type            calculated;
        value           uniform 0;
    }
    Table_master
    {
        type            calculated;
        value           nonuniform List<scalar> 9(-1.53995e-07 -1.54112e-07 -1.54144e-07 -1.54164e-07 -1.54177e-07 -1.54182e-07 -1.5418e-07 -1.54166e-07 -1.54113e-07);
    }
    Table_slave
    {
        type            calculated;
        value           nonuniform List<scalar> 9(1.53663e-07 1.5372e-07 1.53719e-07 1.53736e-07 1.53757e-07 1.53801e-07 1.53868e-07 1.53962e-07 1.54089e-07);
    }
    inlet
    {
        type            calculated;
        value           uniform -0.0116483;
    }
    outlet
    {
        type            calculated;
        value           nonuniform List<scalar> 2(0.00986871 0.0122732);
    }
}


// ************************************************************************* //
