/*--------------------------------*- C++ -*----------------------------------*\
  =========                 |
  \\      /  F ield         | OpenFOAM: The Open Source CFD Toolbox
   \\    /   O peration     | Website:  https://openfoam.org
    \\  /    A nd           | Version:  6
     \\/     M anipulation  |
\*---------------------------------------------------------------------------*/
FoamFile
{
    version     2.0;
    format      ascii;
    class       volVectorField;
    location    "39399.9999990397118";
    object      U;
}
// * * * * * * * * * * * * * * * * * * * * * * * * * * * * * * * * * * * * * //

dimensions      [0 1 -1 0 0 0 0];

internalField   nonuniform List<vector> 
778
(
(0.0655951 0.0794101 0)
(-0.155181 0.0157701 0)
(-0.164317 0.0146315 0)
(-0.192446 0.0122826 0)
(-0.216896 0.00873256 0)
(-0.23697 0.00475058 0)
(-0.252111 0.000421504 0)
(-0.261892 -0.00436704 0)
(-0.265798 -0.00981333 0)
(-0.262825 -0.0161974 0)
(-0.251018 -0.0242749 0)
(-0.22631 -0.0348979 0)
(-0.186173 -0.0504239 0)
(-0.144228 -0.0752013 0)
(-0.150133 -0.108605 0)
(0.0546097 0.0354649 0)
(0.0156798 -0.0268484 0)
(0.044827 -0.0232437 0)
(0.0691825 -0.0161416 0)
(0.0842031 -0.0103387 0)
(0.0913891 -0.00641055 0)
(0.0942188 -0.00433613 0)
(0.095253 -0.00331296 0)
(0.0957037 -0.00272557 0)
(0.0958691 -0.00231297 0)
(0.0957401 -0.00194973 0)
(0.0952125 -0.00151113 0)
(0.0939577 -0.00075966 0)
(0.0911191 0.000840746 0)
(0.0849321 0.00405697 0)
(0.0734266 0.0077527 0)
(0.0598244 0.0115839 0)
(-0.00800027 0.0299432 0)
(0.258391 0.167398 0)
(-0.161238 0.0484029 0)
(-0.141618 0.0459959 0)
(-0.174033 0.0416337 0)
(-0.19941 0.0356889 0)
(-0.220146 0.0291503 0)
(-0.236191 0.0220772 0)
(-0.247457 0.0142428 0)
(-0.253644 0.00530428 0)
(-0.253968 -0.00515287 0)
(-0.247816 -0.0170912 0)
(-0.234109 -0.030866 0)
(-0.2142 -0.0480974 0)
(-0.197626 -0.0699879 0)
(-0.194115 -0.0826804 0)
(-0.166486 -0.0426047 0)
(-0.105389 -0.0364363 0)
(-0.0983447 -0.0445258 0)
(0.109325 -0.0419733 0)
(0.0644155 -0.0410719 0)
(0.0717983 -0.0321916 0)
(0.0857242 -0.0206489 0)
(0.093573 -0.0104111 0)
(0.0957795 -0.00362654 0)
(0.0955375 -0.000194733 0)
(0.0951536 0.00125466 0)
(0.0951192 0.00190533 0)
(0.0951999 0.00227775 0)
(0.0952056 0.00259541 0)
(0.0951042 0.00313225 0)
(0.0948128 0.00440757 0)
(0.0935573 0.00771442 0)
(0.0879684 0.0167288 0)
(0.0742365 0.0252784 0)
(0.0629561 0.0328547 0)
(-0.0521121 0.0634431 0)
(0.429966 0.253964 0)
(-0.194234 0.0847777 0)
(-0.112794 0.0784574 0)
(-0.14827 0.066986 0)
(-0.170713 0.0555341 0)
(-0.188821 0.0437625 0)
(-0.202672 0.0313772 0)
(-0.212376 0.0180342 0)
(-0.217737 0.00341571 0)
(-0.218102 -0.0126276 0)
(-0.212848 -0.030332 0)
(-0.201743 -0.0499266 0)
(-0.186106 -0.0715941 0)
(-0.169578 -0.0932435 0)
(-0.151217 -0.104602 0)
(-0.120376 -0.0931916 0)
(-0.0796724 -0.0950144 0)
(-0.0715965 -0.107683 0)
(0.0920496 -0.0880233 0)
(0.0624869 -0.0656169 0)
(0.0742549 -0.0459988 0)
(0.0878458 -0.0291199 0)
(0.0946206 -0.0147708 0)
(0.0916645 -0.0119852 0)
(0.0874399 -0.00796635 0)
(0.0850733 -0.00580168 0)
(0.084377 -0.00456955 0)
(0.0843562 -0.00379893 0)
(0.0846177 -0.00322341 0)
(0.0852731 -0.0025976 0)
(0.0870327 -0.00144157 0)
(0.0917084 0.00291267 0)
(0.0898549 0.0250714 0)
(0.0730593 0.0422665 0)
(0.0698693 0.0572887 0)
(-0.0902709 0.100643 0)
(0.57853 0.325853 0)
(-0.240101 0.121835 0)
(-0.0808503 0.109257 0)
(-0.121601 0.0898946 0)
(-0.139044 0.0741155 0)
(-0.153117 0.058684 0)
(-0.163889 0.0427984 0)
(-0.171495 0.0258465 0)
(-0.175715 0.00722206 0)
(-0.175787 -0.0135226 0)
(-0.171101 -0.0364747 0)
(-0.161537 -0.0614672 0)
(-0.14768 -0.0873833 0)
(-0.130721 -0.110308 0)
(-0.109786 -0.123213 0)
(-0.0823303 -0.124569 0)
(-0.0527446 -0.126423 0)
(-0.0336405 -0.12322 0)
(0.0160034 -0.0568092 0)
(0.060583 -0.0929454 0)
(0.0682917 -0.0790566 0)
(0.0789402 -0.0586819 0)
(0.0914431 -0.0394317 0)
(0.102803 -0.0207613 0)
(0.115542 -0.0131322 0)
(0.126638 -0.0087873 0)
(0.132189 -0.00559351 0)
(0.133139 -0.00309259 0)
(0.13059 -0.000870555 0)
(0.125108 0.00129803 0)
(0.116565 0.00367748 0)
(0.104198 0.00672874 0)
(0.0849472 0.011151 0)
(0.0710928 0.0367999 0)
(0.0598111 0.0604444 0)
(0.0759488 0.0831079 0)
(-0.118165 0.136651 0)
(0.705708 0.383697 0)
(-0.287675 0.157037 0)
(-0.047713 0.133826 0)
(-0.0963198 0.106971 0)
(-0.107779 0.0876555 0)
(-0.116824 0.0692372 0)
(-0.123625 0.0505088 0)
(-0.128296 0.0306395 0)
(-0.130663 0.00875915 0)
(-0.129862 -0.0158046 0)
(-0.125364 -0.043077 0)
(-0.116745 -0.0726854 0)
(-0.104035 -0.102814 0)
(-0.0875872 -0.129058 0)
(-0.0676622 -0.145756 0)
(-0.0443477 -0.152252 0)
(-0.0205065 -0.152387 0)
(7.57342e-06 -0.143759 0)
(0.0305468 -0.114991 0)
(0.0567409 -0.109306 0)
(0.0703556 -0.0923408 0)
(0.080524 -0.0711376 0)
(0.0906009 -0.0506649 0)
(0.100164 -0.0326241 0)
(0.109257 -0.0192851 0)
(0.116243 -0.00993069 0)
(0.119624 -0.00324836 0)
(0.119782 0.00199228 0)
(0.117336 0.00652338 0)
(0.112659 0.0108596 0)
(0.105779 0.0155139 0)
(0.096626 0.0211899 0)
(0.0846944 0.0291869 0)
(0.0731237 0.0471852 0)
(0.0625794 0.0711857 0)
(0.0940704 0.0991818 0)
(0.0159199 0.137843 0)
(0.0951659 0.182933 0)
(0.141186 0.146307 0)
(-0.223868 0.203359 0)
(0.81042 0.431994 0)
(-0.331314 0.190712 0)
(-0.0173292 0.150305 0)
(-0.0733976 0.117586 0)
(-0.078631 0.0955863 0)
(-0.0822649 0.0750234 0)
(-0.0845315 0.0544178 0)
(-0.0855799 0.0327839 0)
(-0.0853328 0.00890712 0)
(-0.0826629 -0.0183846 0)
(-0.0774977 -0.0490125 0)
(-0.0688748 -0.0824823 0)
(-0.056891 -0.116462 0)
(-0.0418562 -0.146237 0)
(-0.0248819 -0.165934 0)
(-0.00651752 -0.174459 0)
(0.0118662 -0.172745 0)
(0.0277713 -0.161021 0)
(0.0459409 -0.139328 0)
(0.062407 -0.122322 0)
(0.0731008 -0.10243 0)
(0.0807994 -0.0803397 0)
(0.0875656 -0.0589667 0)
(0.0937412 -0.0400783 0)
(0.0990513 -0.0249131 0)
(0.102703 -0.0135731 0)
(0.104265 -0.00490018 0)
(0.103793 0.00226843 0)
(0.101604 0.0087077 0)
(0.0979471 0.0149379 0)
(0.0929821 0.0214911 0)
(0.0869371 0.029009 0)
(0.0800624 0.0384163 0)
(0.0742759 0.0528677 0)
(0.0689263 0.0728993 0)
(0.090794 0.0986051 0)
(0.0722541 0.107202 0)
(0.0885986 0.0475315 0)
(0.146163 -0.0377928 0)
(-0.330573 0.106416 0)
(0.87991 0.474706 0)
(-0.368636 0.221001 0)
(0.00371763 0.155629 0)
(-0.0526926 0.121651 0)
(-0.0522481 0.0979413 0)
(-0.0510823 0.0759146 0)
(-0.0490925 0.0541331 0)
(-0.0465884 0.0316119 0)
(-0.0434123 0.0068312 0)
(-0.0374579 -0.0222602 0)
(-0.0303874 -0.0553412 0)
(-0.0206116 -0.0918996 0)
(-0.00881744 -0.128821 0)
(0.00437353 -0.161133 0)
(0.0174331 -0.181794 0)
(0.0302156 -0.190159 0)
(0.0420205 -0.187209 0)
(0.0523231 -0.174424 0)
(0.0622964 -0.15407 0)
(0.0708833 -0.132392 0)
(0.0764223 -0.109332 0)
(0.0798931 -0.0857804 0)
(0.0824903 -0.063558 0)
(0.084711 -0.0440272 0)
(0.0865107 -0.0279168 0)
(0.0875572 -0.0151289 0)
(0.0876359 -0.00488301 0)
(0.0866021 0.0037409 0)
(0.0846578 0.0114251 0)
(0.0819535 0.0186963 0)
(0.0786703 0.0260641 0)
(0.0750885 0.0340476 0)
(0.0716012 0.0432306 0)
(0.0695508 0.0549416 0)
(0.0682433 0.0695949 0)
(0.0809478 0.0888828 0)
(0.0833363 0.0922698 0)
(0.0877813 0.0542473 0)
(0.180788 0.0235783 0)
(-0.283375 0.153431 0)
(0.927976 0.517159 0)
(-0.383171 0.23422 0)
(0.0169111 0.133074 0)
(-0.0273568 0.116757 0)
(-0.0265909 0.0950271 0)
(-0.0228002 0.0725366 0)
(-0.0177063 0.0502073 0)
(-0.0124468 0.0273396 0)
(-0.00551359 0.00193901 0)
(0.00447263 -0.0306999 0)
(0.0141823 -0.0652935 0)
(0.0254697 -0.103274 0)
(0.0370978 -0.140758 0)
(0.0477645 -0.172013 0)
(0.0568511 -0.192217 0)
(0.0643374 -0.199739 0)
(0.0700555 -0.195363 0)
(0.0740095 -0.1812 0)
(0.0767136 -0.160121 0)
(0.0780838 -0.136103 0)
(0.0777346 -0.111043 0)
(0.0762355 -0.0864565 0)
(0.0744096 -0.0638311 0)
(0.0727757 -0.0441792 0)
(0.071468 -0.0278877 0)
(0.0703534 -0.014679 0)
(0.0692446 -0.00385813 0)
(0.0678539 0.0053515 0)
(0.0663139 0.01353 0)
(0.0646036 0.0211685 0)
(0.0628163 0.0287052 0)
(0.0611503 0.0365166 0)
(0.0599132 0.0449373 0)
(0.059956 0.0545141 0)
(0.0610452 0.0653295 0)
(0.0695602 0.0790831 0)
(0.078176 0.0830659 0)
(0.0754857 0.0620847 0)
(0.239013 0.0500617 0)
(-0.560147 0.229457 0)
(1.01132 0.506837 0)
(-0.137384 0.296367 0)
(0.0410765 0.161574 0)
(0.0405515 0.122176 0)
(0.0130348 0.0920778 0)
(0.00861047 0.065474 0)
(0.0140201 0.0414949 0)
(0.0206294 0.0170691 0)
(0.0324271 -0.010958 0)
(0.0438821 -0.042108 0)
(0.0557409 -0.0768706 0)
(0.0680046 -0.11457 0)
(0.0791292 -0.150991 0)
(0.0876198 -0.180428 0)
(0.0928319 -0.198464 0)
(0.0948761 -0.203672 0)
(0.0941623 -0.197078 0)
(0.0912407 -0.18108 0)
(0.0867896 -0.158705 0)
(0.0812602 -0.13326 0)
(0.0749418 -0.107179 0)
(0.0684268 -0.082298 0)
(0.0624293 -0.0599879 0)
(0.0574593 -0.0409884 0)
(0.0537009 -0.0254004 0)
(0.051052 -0.0127398 0)
(0.0492519 -0.0022402 0)
(0.0479032 0.00678715 0)
(0.0470061 0.0148408 0)
(0.0463416 0.0223669 0)
(0.0458782 0.0297124 0)
(0.0456906 0.0371198 0)
(0.0459479 0.0447486 0)
(0.0471322 0.0527927 0)
(0.0492115 0.0611949 0)
(0.0551712 0.0709032 0)
(0.0626945 0.0731974 0)
(0.0508576 0.0505094 0)
(0.294282 0.0716195 0)
(-0.786514 0.298379 0)
(0.779358 0.39578 0)
(0.000683356 0.319524 0)
(0.093352 0.218945 0)
(0.110559 0.155222 0)
(0.0771203 0.106894 0)
(0.0597458 0.0676291 0)
(0.0581599 0.035846 0)
(0.0623157 0.00648726 0)
(0.0737323 -0.0233781 0)
(0.0852932 -0.0550037 0)
(0.0974751 -0.0897142 0)
(0.109324 -0.126193 0)
(0.118681 -0.159934 0)
(0.123772 -0.185624 0)
(0.123996 -0.199709 0)
(0.119777 -0.201348 0)
(0.112067 -0.191887 0)
(0.101941 -0.173851 0)
(0.0904417 -0.15025 0)
(0.0784126 -0.124106 0)
(0.066541 -0.0979533 0)
(0.0555518 -0.0737185 0)
(0.046162 -0.0526687 0)
(0.0388276 -0.0352614 0)
(0.0336374 -0.0213057 0)
(0.0303535 -0.0100444 0)
(0.0285246 -0.000583049 0)
(0.0276881 0.00769506 0)
(0.0276015 0.0152312 0)
(0.0279382 0.0224004 0)
(0.028577 0.0294383 0)
(0.0294761 0.0364724 0)
(0.0306434 0.043549 0)
(0.0322208 0.0507043 0)
(0.0339593 0.0579286 0)
(0.0364212 0.0662231 0)
(0.0285426 0.0721309 0)
(0.0194278 0.0838662 0)
(0.136232 0.158752 0)
(-0.659362 0.29725 0)
(0.617298 0.220944 0)
(0.00456804 0.29816 0)
(0.113019 0.241569 0)
(0.148283 0.177587 0)
(0.130843 0.123558 0)
(0.117817 0.0778961 0)
(0.114947 0.0389584 0)
(0.117102 0.00346275 0)
(0.123453 -0.0306599 0)
(0.131667 -0.0649588 0)
(0.141339 -0.100444 0)
(0.150199 -0.135287 0)
(0.15531 -0.165124 0)
(0.154745 -0.185646 0)
(0.148189 -0.194558 0)
(0.136538 -0.191877 0)
(0.121265 -0.179334 0)
(0.103877 -0.159474 0)
(0.0857498 -0.135187 0)
(0.0679952 -0.109248 0)
(0.0515616 -0.0841254 0)
(0.0373139 -0.0616919 0)
(0.0259852 -0.0430567 0)
(0.0178291 -0.0282823 0)
(0.0126134 -0.016804 0)
(0.00970359 -0.0075097 0)
(0.00837789 0.000534067 0)
(0.00830624 0.00782487 0)
(0.00895756 0.0147198 0)
(0.0100975 0.0214747 0)
(0.0115719 0.0282283 0)
(0.0132459 0.0350458 0)
(0.0149685 0.0419337 0)
(0.0166418 0.0488845 0)
(0.0182084 0.0560319 0)
(0.019273 0.0654695 0)
(-0.000324878 0.0846592 0)
(-0.00208504 0.117467 0)
(0.164311 0.174769 0)
(-0.564772 0.237069 0)
(0.570768 0.118597 0)
(-0.0203335 0.258673 0)
(0.113741 0.229907 0)
(0.165083 0.176091 0)
(0.166738 0.126238 0)
(0.164387 0.0811687 0)
(0.165359 0.0400502 0)
(0.168255 0.00170562 0)
(0.172209 -0.0353223 0)
(0.177775 -0.0718458 0)
(0.183931 -0.107496 0)
(0.187601 -0.139508 0)
(0.18577 -0.164032 0)
(0.177064 -0.178273 0)
(0.161926 -0.181445 0)
(0.141897 -0.174437 0)
(0.118921 -0.15927 0)
(0.0947633 -0.138358 0)
(0.0710281 -0.114395 0)
(0.0489627 -0.0898685 0)
(0.0297446 -0.0671418 0)
(0.0143565 -0.0479533 0)
(0.00337757 -0.0330694 0)
(-0.00365245 -0.0216904 0)
(-0.00747406 -0.0131176 0)
(-0.00941167 -0.00580205 0)
(-0.0100624 0.000882446 0)
(-0.00965962 0.00723415 0)
(-0.00856786 0.013484 0)
(-0.00691568 0.0197906 0)
(-0.00486124 0.0262706 0)
(-0.00261958 0.0330207 0)
(-0.000524034 0.0401213 0)
(0.00102865 0.0476385 0)
(0.00208187 0.0559337 0)
(-0.00116843 0.0708321 0)
(-0.028634 0.103577 0)
(-0.0213965 0.136582 0)
(0.111976 0.181626 0)
(-0.528441 0.202446 0)
(0.628381 0.0537903 0)
(0.00930834 0.197333 0)
(0.113882 0.196974 0)
(0.175186 0.15798 0)
(0.191424 0.117758 0)
(0.198059 0.0773583 0)
(0.203368 0.0373642 0)
(0.208556 -0.00142472 0)
(0.213052 -0.0395895 0)
(0.217362 -0.076456 0)
(0.219172 -0.109845 0)
(0.215318 -0.136608 0)
(0.203912 -0.154164 0)
(0.185041 -0.161542 0)
(0.16032 -0.159311 0)
(0.131917 -0.148877 0)
(0.102096 -0.13231 0)
(0.0725898 -0.111679 0)
(0.0452042 -0.0894899 0)
(0.0211727 -0.0679249 0)
(0.00207306 -0.0492798 0)
(-0.0112404 -0.0350653 0)
(-0.0190245 -0.0252101 0)
(-0.0234883 -0.0175376 0)
(-0.0258903 -0.0109921 0)
(-0.0270721 -0.00496378 0)
(-0.02732 0.000759886 0)
(-0.0267295 0.00633128 0)
(-0.0254206 0.0119268 0)
(-0.0234443 0.0177155 0)
(-0.0209509 0.0238852 0)
(-0.0182186 0.0306597 0)
(-0.0157779 0.0383284 0)
(-0.0144379 0.0473675 0)
(-0.0147833 0.0594511 0)
(-0.0221343 0.0831325 0)
(-0.0511838 0.125601 0)
(-0.0467189 0.160519 0)
(-0.0094262 0.176097 0)
(-0.538564 0.146611 0)
(0.472814 0.0748116 0)
(-0.132056 0.137599 0)
(0.0943012 0.13333 0)
(0.17279 0.116862 0)
(0.20388 0.0954299 0)
(0.218139 0.0644941 0)
(0.228096 0.0284869 0)
(0.237156 -0.00887974 0)
(0.243546 -0.0452483 0)
(0.245064 -0.0781869 0)
(0.239082 -0.105016 0)
(0.224238 -0.123686 0)
(0.201046 -0.133368 0)
(0.171409 -0.134529 0)
(0.137912 -0.128445 0)
(0.102858 -0.116394 0)
(0.0686141 -0.100255 0)
(0.0364021 -0.0816266 0)
(0.00870771 -0.0630212 0)
(-0.0136787 -0.0463783 0)
(-0.0274856 -0.0350698 0)
(-0.0357581 -0.0270358 0)
(-0.0403765 -0.0207303 0)
(-0.0429984 -0.0150591 0)
(-0.0444521 -0.00968913 0)
(-0.0451394 -0.00451675 0)
(-0.0451305 0.000449227 0)
(-0.0444336 0.0052766 0)
(-0.0429811 0.0101385 0)
(-0.0407336 0.0152803 0)
(-0.0377933 0.021016 0)
(-0.0344157 0.0277486 0)
(-0.0311529 0.0360541 0)
(-0.0289512 0.0469781 0)
(-0.0278584 0.063131 0)
(-0.0281426 0.0918755 0)
(-0.0442349 0.140964 0)
(-0.033765 0.191503 0)
(0.0350752 0.179782 0)
(-0.549261 0.0409614 0)
(0.724159 0.134463 0)
(0.0818363 0.115261 0)
(0.149773 0.0992342 0)
(0.222423 0.08054 0)
(0.244066 0.0700255 0)
(0.24884 0.0477894 0)
(0.255125 0.0176661 0)
(0.261251 -0.0146227 0)
(0.260303 -0.0446659 0)
(0.249836 -0.0694894 0)
(0.229595 -0.0873739 0)
(0.201136 -0.0978639 0)
(0.166819 -0.101284 0)
(0.129177 -0.0986646 0)
(0.0907349 -0.0913103 0)
(0.0529572 -0.079914 0)
(0.018711 -0.0661864 0)
(-0.0124441 -0.0512869 0)
(-0.0340998 -0.0399536 0)
(-0.0482398 -0.032077 0)
(-0.056404 -0.0267839 0)
(-0.0610547 -0.0223902 0)
(-0.0636991 -0.0180941 0)
(-0.0652334 -0.0135817 0)
(-0.0660734 -0.00894599 0)
(-0.06639 -0.00437749 0)
(-0.0661707 -3.1609e-05 0)
(-0.0653704 0.00408687 0)
(-0.0638697 0.00814774 0)
(-0.0614907 0.0124786 0)
(-0.058245 0.0175204 0)
(-0.0542458 0.0238471 0)
(-0.0497754 0.0322739 0)
(-0.0452935 0.0441098 0)
(-0.039988 0.0617017 0)
(-0.0298305 0.0896309 0)
(-0.0221876 0.134712 0)
(-0.0116124 0.196193 0)
(0.141317 0.189611 0)
(-0.410245 0.0597694 0)
(0.19178 0.0880078 0)
(0.225649 0.0998092 0)
(0.246443 0.0702595 0)
(0.242518 0.0399951 0)
(0.23973 0.0123165 0)
(0.234794 -0.0127347 0)
(0.220146 -0.0332418 0)
(0.196486 -0.0483593 0)
(0.166114 -0.0580598 0)
(0.131454 -0.0628252 0)
(0.0942789 -0.0629813 0)
(0.0565493 -0.0593143 0)
(0.0202958 -0.0527876 0)
(-0.0151659 -0.0436569 0)
(-0.0422593 -0.035456 0)
(-0.0622852 -0.029272 0)
(-0.0751718 -0.0257823 0)
(-0.0829732 -0.0236403 0)
(-0.0875712 -0.0217677 0)
(-0.0904171 -0.0193107 0)
(-0.0922401 -0.0161195 0)
(-0.0933946 -0.0123558 0)
(-0.0940519 -0.00831508 0)
(-0.0942911 -0.00429625 0)
(-0.0941091 -0.00051592 0)
(-0.0934642 0.00296978 0)
(-0.0923026 0.00625772 0)
(-0.0903571 0.00968844 0)
(-0.087483 0.01378 0)
(-0.0834543 0.0191806 0)
(-0.0779553 0.0267044 0)
(-0.0706201 0.0374335 0)
(-0.0602461 0.0529146 0)
(-0.0429644 0.0753792 0)
(-0.0184006 0.107949 0)
(0.00364979 0.159202 0)
(0.176611 0.164132 0)
(-0.358462 0.117062 0)
(0.450854 0.209799 0)
(0.205832 0.17878 0)
(0.152394 0.118796 0)
(0.139469 0.0640379 0)
(0.128283 0.0258767 0)
(0.114372 0.00177763 0)
(0.0990923 -0.0129137 0)
(0.0780433 -0.0219201 0)
(0.0532014 -0.0272994 0)
(0.0257014 -0.0294602 0)
(-0.00476891 -0.0283167 0)
(-0.0345402 -0.0250073 0)
(-0.0609752 -0.0211631 0)
(-0.082842 -0.0182967 0)
(-0.0985316 -0.0176682 0)
(-0.108855 -0.0184994 0)
(-0.115249 -0.0198903 0)
(-0.119432 -0.0205422 0)
(-0.12246 -0.0199066 0)
(-0.124845 -0.0179033 0)
(-0.126767 -0.0147472 0)
(-0.128272 -0.0107911 0)
(-0.129357 -0.00647389 0)
(-0.130008 -0.00227688 0)
(-0.130229 0.00135763 0)
(-0.130071 0.00417567 0)
(-0.129541 0.0064719 0)
(-0.128411 0.00866676 0)
(-0.126363 0.0112065 0)
(-0.122856 0.0145601 0)
(-0.117128 0.0192862 0)
(-0.108335 0.026104 0)
(-0.0952147 0.0357839 0)
(-0.0749332 0.0487816 0)
(-0.044044 0.0654755 0)
(-0.00405178 0.0933852 0)
(0.188832 0.125535 0)
(-0.369848 0.181413 0)
(0.358259 -0.417281 0)
(-0.346276 -0.512658 0)
(-0.218313 -0.0271465 0)
(-0.0934824 0.111018 0)
(-0.053938 0.0925587 0)
(-0.031498 0.054526 0)
(-0.0265732 0.028349 0)
(-0.031456 0.0116516 0)
(-0.0402199 0.00094565 0)
(-0.0508319 -0.00589058 0)
(-0.0647113 -0.00982974 0)
(-0.0805373 -0.0117328 0)
(-0.0971516 -0.0129373 0)
(-0.113062 -0.0149663 0)
(-0.127035 -0.0181261 0)
(-0.138052 -0.0214856 0)
(-0.145341 -0.0244941 0)
(-0.149688 -0.0267265 0)
(-0.152609 -0.0281235 0)
(-0.155151 -0.0286518 0)
(-0.157707 -0.0283398 0)
(-0.160323 -0.0272662 0)
(-0.162919 -0.0255734 0)
(-0.165397 -0.0234208 0)
(-0.167665 -0.0209153 0)
(-0.169583 -0.0180396 0)
(-0.17091 -0.0146412 0)
(-0.171338 -0.0106497 0)
(-0.170888 -0.00683516 0)
(-0.169739 -0.00321675 0)
(-0.167814 0.000401175 0)
(-0.164801 0.00422328 0)
(-0.160175 0.00855301 0)
(-0.153416 0.0139069 0)
(-0.143889 0.020763 0)
(-0.129425 0.0290205 0)
(-0.103426 0.0395499 0)
(-0.0501674 0.062462 0)
(0.0690564 0.120263 0)
(-0.509376 0.229265 0)
(0.122013 -0.186459 0)
(-0.388761 -0.298167 0)
(-0.343646 -0.0963161 0)
(-0.265301 0.051648 0)
(-0.2116 0.0834615 0)
(-0.179474 0.0744715 0)
(-0.163212 0.0610365 0)
(-0.157206 0.0512155 0)
(-0.157231 0.0463007 0)
(-0.160451 0.0460625 0)
(-0.164978 0.0496182 0)
(-0.169284 0.0557169 0)
(-0.172524 0.0629764 0)
(-0.174517 0.0696415 0)
(-0.175679 0.0735185 0)
(-0.17662 0.0716894 0)
(-0.178147 0.0649039 0)
(-0.180562 0.0579393 0)
(-0.183926 0.0526639 0)
(-0.188043 0.0494973 0)
(-0.192563 0.048307 0)
(-0.197061 0.048788 0)
(-0.201123 0.0505325 0)
(-0.204428 0.0530009 0)
(-0.206801 0.0554728 0)
(-0.208223 0.0570489 0)
(-0.208729 0.0567496 0)
(-0.208171 0.0543476 0)
(-0.206526 0.0515291 0)
(-0.203941 0.0485806 0)
(-0.200446 0.0454882 0)
(-0.195806 0.0422307 0)
(-0.189565 0.0388338 0)
(-0.181465 0.0352741 0)
(-0.171625 0.0307806 0)
(-0.158151 0.0223189 0)
(-0.130958 0.00636886 0)
(-0.0627 -0.00124374 0)
(0.152977 0.0619008 0)
(-0.6046 0.214995 0)
(1.14927 -0.0110445 0)
(-0.297963 -0.323447 0)
(-0.353534 -0.232829 0)
(-0.35329 -0.148513 0)
(-0.329626 -0.107329 0)
(-0.298165 -0.0988933 0)
(-0.271117 -0.101163 0)
(-0.251505 -0.106854 0)
(-0.238247 -0.114284 0)
(-0.229133 -0.12332 0)
(-0.222169 -0.134293 0)
(-0.216059 -0.147482 0)
(-0.210311 -0.162485 0)
(-0.205141 -0.17776 0)
(-0.201357 -0.190492 0)
(-0.200256 -0.197356 0)
(-0.203022 -0.197868 0)
(-0.209614 -0.194893 0)
(-0.218775 -0.189657 0)
(-0.229098 -0.183163 0)
(-0.23937 -0.176262 0)
(-0.248659 -0.169603 0)
(-0.256292 -0.163533 0)
(-0.261814 -0.158071 0)
(-0.26499 -0.152966 0)
(-0.265876 -0.147805 0)
(-0.264883 -0.14215 0)
(-0.262731 -0.136046 0)
(-0.260019 -0.130055 0)
(-0.256803 -0.123833 0)
(-0.253081 -0.117192 0)
(-0.248791 -0.110209 0)
(-0.244033 -0.103106 0)
(-0.239933 -0.0960846 0)
(-0.239416 -0.0892327 0)
(-0.243047 -0.0817965 0)
(-0.236222 -0.0681139 0)
(-0.201566 -0.0331957 0)
(-0.211039 0.0394171 0)
(-0.681167 0.132714 0)
)
;

boundaryField
{
    floor
    {
        type            noSlip;
    }
    ceiling
    {
        type            noSlip;
    }
    sWall
    {
        type            noSlip;
    }
    nWall
    {
        type            noSlip;
    }
    sideWalls
    {
        type            empty;
    }
    glass1
    {
        type            noSlip;
    }
    glass2
    {
        type            noSlip;
    }
    sun
    {
        type            noSlip;
    }
    Table_master
    {
        type            noSlip;
    }
    Table_slave
    {
        type            noSlip;
    }
    inlet
    {
        type            fixedValue;
        value           uniform (0.5 0 0);
    }
    outlet
    {
        type            zeroGradient;
    }
}


// ************************************************************************* //
