/*--------------------------------*- C++ -*----------------------------------*\
  =========                 |
  \\      /  F ield         | OpenFOAM: The Open Source CFD Toolbox
   \\    /   O peration     | Website:  https://openfoam.org
    \\  /    A nd           | Version:  6
     \\/     M anipulation  |
\*---------------------------------------------------------------------------*/
FoamFile
{
    version     2.0;
    format      ascii;
    class       volScalarField;
    location    "47400.0000006695263";
    object      epsilon;
}
// * * * * * * * * * * * * * * * * * * * * * * * * * * * * * * * * * * * * * //

dimensions      [0 2 -3 0 0 0 0];

internalField   nonuniform List<scalar> 
778
(
0.000253112
0.000306355
0.000303034
0.000344244
0.00038515
0.000425002
0.00046449
0.0005048
0.000547665
0.000595801
0.000644232
0.000692576
0.000742486
0.000798766
0.000860455
8.94771e-05
0.000262414
0.000268794
0.000249714
0.000219893
0.000183933
0.000152237
0.000126457
0.000105857
8.93996e-05
7.62547e-05
6.56067e-05
5.68149e-05
4.93529e-05
4.27482e-05
3.6502e-05
3.18065e-05
2.35943e-05
0.000796957
0.00144318
0.000287031
0.000259659
0.000261772
0.000267754
0.000276659
0.000290098
0.000310365
0.00034058
0.00037979
0.000430889
0.000499238
0.000600392
0.000785468
0.00112902
0.00097848
0.000858171
0.000512006
0.000369402
0.000294061
0.000242695
0.00020386
0.000186682
0.000154552
0.000124912
0.000100637
8.14452e-05
6.64929e-05
5.47955e-05
4.56094e-05
3.8689e-05
3.44998e-05
3.27374e-05
6.57809e-05
4.80658e-05
0.00163051
0.00407899
0.000407423
0.000242992
0.000229176
0.000231093
0.000238311
0.000250584
0.000268493
0.000292761
0.000324875
0.000366912
0.000421249
0.000494899
0.000601233
0.000724456
0.000829575
0.00158358
0.00102831
0.000512421
0.000367704
0.000294223
0.000261967
0.00055082
0.000362064
0.000250329
0.000181045
0.000136095
0.000105786
8.46884e-05
6.97553e-05
5.94126e-05
4.50969e-05
3.79484e-05
0.000108278
7.07546e-05
0.00285326
0.00877025
0.000709889
0.000240779
0.000202541
0.000200077
0.000203247
0.00020987
0.000220684
0.000237596
0.000263272
0.000299987
0.000349146
0.000412214
0.000487849
0.000560043
0.000612299
0.000824377
0.001565
0.00072904
0.000459818
0.000358304
0.000301908
0.00029179
0.000813891
0.000612279
0.000481409
0.000388008
0.000318677
0.000263938
0.000218438
0.000178743
0.000141608
8.36246e-05
5.4773e-05
0.000148946
9.43775e-05
0.00454552
0.0158273
0.00134632
0.000258381
0.000175781
0.000166839
0.000165842
0.000167813
0.000173971
0.000187473
0.000211706
0.000248353
0.0002977
0.000359147
0.000427537
0.000488892
0.000528341
0.000582385
0.000627505
0.000483214
0.000393532
0.000331071
0.000282314
0.000248616
0.000247803
0.000226723
0.000202869
0.000180999
0.000162624
0.000146468
0.000131803
0.000118215
0.000105056
8.4419e-05
6.40605e-05
0.000105238
0.000138789
0.000160249
0.000378494
0.000327048
0.00676283
0.0248786
0.00255338
0.000318084
0.000155571
0.0001371
0.000132157
0.000130719
0.000134483
0.000148575
0.00017672
0.000218052
0.000270686
0.000333862
0.00040136
0.000462216
0.000502645
0.000521474
0.000504699
0.000438238
0.00037385
0.000315679
0.000264751
0.000223373
0.000193267
0.00016961
0.000150801
0.000135623
0.000123294
0.000112744
0.000103282
9.45157e-05
8.60761e-05
7.58911e-05
6.52444e-05
7.75192e-05
9.96468e-05
0.000214926
0.00109875
0.000555839
0.00967098
0.0336382
0.00458368
0.000464954
0.000150855
0.000116362
0.000107107
0.000103301
0.000107095
0.000127942
0.000166149
0.000215865
0.000273173
0.000339748
0.00040887
0.000469942
0.000509727
0.000520142
0.000494146
0.000437559
0.000371827
0.000307476
0.000250534
0.000204414
0.000169725
0.000144546
0.000126329
0.000112752
0.000102299
9.37244e-05
8.62191e-05
7.93287e-05
7.27838e-05
6.61328e-05
6.02697e-05
6.35911e-05
7.67304e-05
0.000179443
0.00165935
0.000919839
0.0127576
0.0404085
0.00749022
0.000871117
0.000194232
0.00011537
9.73878e-05
9.14639e-05
9.86397e-05
0.000137729
0.000189306
0.000246233
0.000306904
0.000373517
0.000444331
0.000507563
0.000546946
0.000550608
0.000515491
0.000451436
0.000375444
0.000300911
0.000236437
0.000185929
0.000149296
0.000123984
0.000106733
9.46039e-05
8.5776e-05
7.88392e-05
7.29151e-05
6.75279e-05
6.24561e-05
5.76524e-05
5.39059e-05
5.5427e-05
7.04019e-05
0.000379058
0.00593931
0.00214017
0.0138264
0.0414614
0.0139329
0.00316267
0.000629509
0.000207861
0.000132621
0.000115966
0.000142403
0.000192883
0.000249261
0.000306365
0.000367211
0.000436386
0.000510735
0.000575349
0.000610534
0.000602828
0.000551882
0.000470753
0.000378335
0.000290805
0.000218188
0.00016399
0.00012678
0.000102638
8.73349e-05
7.74017e-05
7.07286e-05
6.57316e-05
6.15178e-05
5.76533e-05
5.39804e-05
5.0586e-05
4.82295e-05
5.12024e-05
9.62538e-05
0.00117457
0.0160791
0.00304475
0.0130039
0.0283727
0.0144157
0.00572506
0.00210289
0.000833805
0.000413299
0.000276673
0.000278816
0.000314432
0.000355965
0.000401615
0.000458493
0.000530806
0.000609887
0.000673826
0.000698427
0.000670256
0.000593405
0.000486322
0.00037237
0.00027053
0.000191091
0.000135777
0.000100733
7.99492e-05
6.80436e-05
6.12689e-05
5.71934e-05
5.42506e-05
5.16938e-05
4.92213e-05
4.6785e-05
4.46141e-05
4.38353e-05
5.21012e-05
0.000184499
0.00328784
0.0124744
0.00325677
0.0106896
0.0193593
0.012039
0.00629916
0.00317315
0.00167364
0.000985941
0.000678419
0.00055955
0.000516981
0.000510166
0.000531331
0.000583763
0.000663045
0.00074786
0.000805323
0.000807214
0.000743649
0.000627384
0.000485413
0.00034711
0.000233356
0.000152507
0.000101883
7.36684e-05
5.88966e-05
5.14296e-05
4.8019e-05
4.623e-05
4.49171e-05
4.36157e-05
4.21906e-05
4.07499e-05
3.98806e-05
4.19408e-05
6.04742e-05
0.000235934
0.00246771
0.0113244
0.00339873
0.00807288
0.0137714
0.0096925
0.00593272
0.00356876
0.00222656
0.00148996
0.00109213
0.000868614
0.000743071
0.000685611
0.000690172
0.000751114
0.000845855
0.000933528
0.00096931
0.000926144
0.00080496
0.000633876
0.000451185
0.000292447
0.000177203
0.000107088
6.95207e-05
5.25277e-05
4.43963e-05
4.05887e-05
3.92019e-05
3.86196e-05
3.81683e-05
3.75763e-05
3.6824e-05
3.62798e-05
3.75154e-05
4.66307e-05
9.50388e-05
0.000363775
0.00227274
0.00895775
0.00386117
0.0061244
0.0101684
0.00779176
0.00531255
0.00356998
0.00246884
0.0017876
0.00136786
0.00109261
0.000925778
0.000859218
0.000887306
0.000984419
0.00109996
0.00117208
0.00115171
0.00102703
0.000820862
0.00058493
0.000367549
0.000208013
0.00011444
7.20649e-05
5.218e-05
4.27166e-05
3.7977e-05
3.5701e-05
3.4914e-05
3.46293e-05
3.44229e-05
3.41443e-05
3.39759e-05
3.50793e-05
4.23997e-05
7.77109e-05
0.000225922
0.000723592
0.00247508
0.00783515
0.00334304
0.0061819
0.00781463
0.00680606
0.0047403
0.00336604
0.00246258
0.0018658
0.00146233
0.0011945
0.00106456
0.00107089
0.00118215
0.00133292
0.00144216
0.00144222
0.00130233
0.00105096
0.000740784
0.000455704
0.00023773
0.000130977
8.17446e-05
5.97463e-05
4.87798e-05
4.25862e-05
3.88384e-05
3.66856e-05
3.57269e-05
3.53297e-05
3.51704e-05
3.52135e-05
3.60041e-05
4.02431e-05
5.92766e-05
0.00013677
0.000401857
0.00113438
0.00285385
0.0058768
0.00285807
0.00454546
0.00511559
0.00418613
0.00336252
0.00264036
0.00207064
0.00164945
0.00136207
0.00124477
0.0013007
0.00147988
0.00169092
0.00183058
0.00182285
0.0016416
0.00130351
0.000908832
0.000518932
0.000278397
0.000155229
0.000102006
7.86695e-05
6.66001e-05
5.876e-05
5.30086e-05
4.88264e-05
4.61419e-05
4.48695e-05
4.46973e-05
4.52461e-05
4.6549e-05
4.93964e-05
5.73135e-05
8.33419e-05
0.000170363
0.000436704
0.00113441
0.00270094
0.00552984
0.0026462
0.00139859
0.00142921
0.00143207
0.00135375
0.00131199
0.00142284
0.00170722
0.00204418
0.00231041
0.00241239
0.00229911
0.00198559
0.00153503
0.000981707
0.000568751
0.000312791
0.000188106
0.000135463
0.000113176
0.00010117
9.2476e-05
8.51599e-05
7.90452e-05
7.4533e-05
7.21028e-05
7.1983e-05
7.43915e-05
7.88383e-05
8.52053e-05
9.39489e-05
0.000107776
0.000136556
0.000210021
0.000408821
0.000930355
0.00221355
0.00488918
0.00328067
0.00118793
0.00171621
0.0019542
0.00231005
0.00275651
0.00316198
0.0033429
0.00331151
0.00309144
0.00270283
0.00213421
0.00151577
0.000980385
0.000577248
0.000344264
0.000234257
0.000189585
0.000170615
0.000159997
0.000151845
0.000144625
0.00013833
0.000133639
0.000131549
0.000133062
0.000138907
0.000149311
0.000164559
0.000184159
0.000208049
0.000237864
0.000280468
0.000355559
0.000513535
0.000899554
0.00231597
0.00407669
0.00364155
0.00741262
0.00807345
0.00481342
0.0034061
0.00373894
0.00414717
0.00415741
0.00394449
0.00358781
0.00313326
0.00262849
0.00208731
0.00153828
0.00105171
0.000686091
0.000462079
0.000354604
0.000310193
0.000291846
0.000282938
0.000277297
0.000272375
0.000267142
0.000261721
0.000257335
0.000255965
0.000259699
0.000270142
0.000288325
0.000315213
0.000352169
0.000401319
0.000467218
0.000560874
0.00070729
0.000957358
0.001461
0.00328692
0.00449382
0.00398641
0.00650052
0.00513225
0.00436322
0.00461998
0.00454404
0.00427809
0.00369764
0.00305022
0.00246324
0.00196962
0.00156657
0.00124405
0.000991969
0.000803915
0.000669824
0.000577183
0.000518862
0.000485667
0.000470249
0.000467441
0.000473095
0.000483615
0.000496081
0.000508654
0.000520912
0.000533926
0.00055007
0.000572817
0.000606667
0.000657241
0.000731782
0.000840127
0.000996407
0.0012212
0.00154489
0.00201291
0.00270039
0.00411227
0.00616962
0.00422486
0.00536043
0.00337325
0.00332519
0.0036274
0.00389302
0.00356548
0.00297631
0.00237598
0.00186228
0.00144727
0.00111583
0.000854455
0.000658459
0.000526931
0.000455123
0.000425758
0.000419635
0.000427664
0.000444427
0.000466393
0.000491001
0.000516404
0.000541493
0.000565968
0.000590389
0.000616097
0.000645007
0.000679404
0.000722077
0.000777074
0.000851133
0.000955466
0.00110706
0.00132787
0.00164111
0.00206724
0.00262401
0.00332549
0.00413968
0.00337265
)
;

boundaryField
{
    floor
    {
        Cmu             0.09;
        kappa           0.41;
        E               9.8;
        type            epsilonWallFunction;
        value           nonuniform List<scalar> 
36
(
0.000860455
8.94771e-05
0.000262414
0.000268794
0.000249714
0.000219893
0.000183933
0.000152237
0.000126457
0.000105857
8.93996e-05
7.62547e-05
6.56067e-05
5.68149e-05
4.93529e-05
4.27482e-05
3.6502e-05
3.18065e-05
2.35943e-05
2.35943e-05
4.80658e-05
7.07546e-05
9.43775e-05
0.000160249
0.000378494
0.000327048
0.000860455
0.00112902
0.00097848
0.000858171
8.94771e-05
0.000858171
0.000512006
0.00158358
0.00102831
0.001565
)
;
    }
    ceiling
    {
        Cmu             0.09;
        kappa           0.41;
        E               9.8;
        type            epsilonWallFunction;
        value           nonuniform List<scalar> 
43
(
0.00536043
0.00337325
0.00332519
0.0036274
0.00389302
0.00356548
0.00297631
0.00237598
0.00186228
0.00144727
0.00111583
0.000854455
0.000658459
0.000526931
0.000455123
0.000425758
0.000419635
0.000427664
0.000444427
0.000466393
0.000491001
0.000516404
0.000541493
0.000565968
0.000590389
0.000616097
0.000645007
0.000679404
0.000722077
0.000777074
0.000851133
0.000955466
0.00110706
0.00132787
0.00164111
0.00206724
0.00262401
0.00332549
0.00413968
0.00337265
0.00454546
0.00511559
0.00118793
)
;
    }
    sWall
    {
        Cmu             0.09;
        kappa           0.41;
        E               9.8;
        type            epsilonWallFunction;
        value           nonuniform List<scalar> 9(0.0130039 0.0106896 0.00807288 0.0061244 0.0061819 0.00454546 0.00741262 0.00650052 0.00536043);
    }
    nWall
    {
        Cmu             0.09;
        kappa           0.41;
        E               9.8;
        type            epsilonWallFunction;
        value           nonuniform List<scalar> 
14
(
0.000327048
0.000555839
0.000919839
0.00325677
0.00339873
0.00386117
0.00334304
0.00285807
0.0026462
0.00328067
0.00364155
0.00398641
0.00422486
0.00337265
)
;
    }
    sideWalls
    {
        type            empty;
    }
    glass1
    {
        Cmu             0.09;
        kappa           0.41;
        E               9.8;
        type            epsilonWallFunction;
        value           nonuniform List<scalar> 9(0.000253112 0.000796957 0.00163051 0.00285326 0.00454552 0.00676283 0.00967098 0.0127576 0.0138264);
    }
    glass2
    {
        Cmu             0.09;
        kappa           0.41;
        E               9.8;
        type            epsilonWallFunction;
        value           nonuniform List<scalar> 2(0.00214017 0.00304475);
    }
    sun
    {
        Cmu             0.09;
        kappa           0.41;
        E               9.8;
        type            epsilonWallFunction;
        value           nonuniform List<scalar> 
14
(
0.000253112
0.000306355
0.000303034
0.000344244
0.00038515
0.000425002
0.00046449
0.0005048
0.000547665
0.000595801
0.000644232
0.000692576
0.000742486
0.000798766
)
;
    }
    Table_master
    {
        Cmu             0.09;
        kappa           0.41;
        E               9.8;
        type            epsilonWallFunction;
        value           nonuniform List<scalar> 9(0.00055082 0.000362064 0.000250329 0.000181045 0.000136095 0.000105786 8.46884e-05 6.97553e-05 5.94126e-05);
    }
    Table_slave
    {
        Cmu             0.09;
        kappa           0.41;
        E               9.8;
        type            epsilonWallFunction;
        value           nonuniform List<scalar> 9(0.000813891 0.000612279 0.000481409 0.000388008 0.000318677 0.000263938 0.000218438 0.000178743 0.000141608);
    }
    inlet
    {
        type            turbulentMixingLengthDissipationRateInlet;
        mixingLength    0.01;
        phi             phi;
        k               k;
        value           uniform 0.000471671;
    }
    outlet
    {
        type            zeroGradient;
    }
}


// ************************************************************************* //
