/*--------------------------------*- C++ -*----------------------------------*\
  =========                 |
  \\      /  F ield         | OpenFOAM: The Open Source CFD Toolbox
   \\    /   O peration     | Website:  https://openfoam.org
    \\  /    A nd           | Version:  6
     \\/     M anipulation  |
\*---------------------------------------------------------------------------*/
FoamFile
{
    version     2.0;
    format      ascii;
    class       volScalarField;
    location    "19600";
    object      alphat;
}
// * * * * * * * * * * * * * * * * * * * * * * * * * * * * * * * * * * * * * //

dimensions      [1 -1 -1 0 0 0 0];

internalField   nonuniform List<scalar> 
778
(
0.00104098
0.00111056
0.00110659
0.00115465
0.0011987
0.0012387
0.00127594
0.00131183
0.00134796
0.00138635
0.00142295
0.00145771
0.00149195
0.00152878
0.00156722
0.000736782
0.00105531
0.00106378
0.00103797
0.000994855
0.00093733
0.000880042
0.000827265
0.000779662
0.00073696
0.000698901
0.000664714
0.000633573
0.00060451
0.00057623
0.00054666
0.000522119
0.000472595
0.00152465
0.00300731
0.00263929
0.00304633
0.00334178
0.00365503
0.00396753
0.00425549
0.00448725
0.0046221
0.00470138
0.00466867
0.00443581
0.00385907
0.00281855
0.00171596
0.00163609
0.00156614
0.00131886
0.00224629
0.00311299
0.0036245
0.0036481
0.0028795
0.00246261
0.0021736
0.00195437
0.00178009
0.00163145
0.00149998
0.00137762
0.00125789
0.00115044
0.00105777
0.00119177
0.000599189
0.00193411
0.0041988
0.0031135
0.00445317
0.00497588
0.00541829
0.00582009
0.0061737
0.00647318
0.00670787
0.00693532
0.00717463
0.00739457
0.00752557
0.00743905
0.00681187
0.00498277
0.00192123
0.00166382
0.00355969
0.00496741
0.00563267
0.00512209
0.00135148
0.00117506
0.00103899
0.000932564
0.000847906
0.000779592
0.000723876
0.000678552
0.000643206
0.0007072
0.000831975
0.00131816
0.000681699
0.00232905
0.00565837
0.00297923
0.00500689
0.00578048
0.00619441
0.00649876
0.00672388
0.00689185
0.00702793
0.00722159
0.00754885
0.00802645
0.00862732
0.0092319
0.0095308
0.00895184
0.00668295
0.00191365
0.00442944
0.00659299
0.00769256
0.00796343
0.00679801
0.00153916
0.00139988
0.00129206
0.00120239
0.001126
0.00105743
0.00099279
0.000928596
0.000859246
0.000802794
0.000832396
0.001428
0.000750529
0.0027183
0.00749041
0.00300563
0.0047596
0.0059488
0.00630151
0.00642941
0.00643414
0.00637008
0.00631338
0.00639441
0.00671224
0.00729555
0.00812199
0.00908124
0.00996593
0.010528
0.0105229
0.00944465
0.00961051
0.00983237
0.00986419
0.00966365
0.0090447
0.00719754
0.00621681
0.00554506
0.0049993
0.00446408
0.00394568
0.00343854
0.00293218
0.00241217
0.00185269
0.00141346
0.00141332
0.0011178
0.000895462
0.00119273
0.00113737
0.00310123
0.00954059
0.00353829
0.00401361
0.00569953
0.00609066
0.00605891
0.00584041
0.00552834
0.00527108
0.00526532
0.00559815
0.00626244
0.00722024
0.00834211
0.00946428
0.0104195
0.0110307
0.0111432
0.0110326
0.0108381
0.0105611
0.0102043
0.00974989
0.0090868
0.00844802
0.00786812
0.00730747
0.00670213
0.00605587
0.00536578
0.00462612
0.00383226
0.00298994
0.00222675
0.00167179
0.00129814
0.00146567
0.002562
0.00135755
0.003492
0.0114358
0.00471489
0.00328803
0.00512122
0.00576099
0.00568924
0.00533572
0.00482338
0.00437304
0.00436019
0.00478038
0.00554047
0.00661094
0.00782956
0.0090371
0.0100772
0.0108228
0.0111665
0.0111414
0.0108978
0.0105278
0.0101035
0.00968002
0.00927024
0.0088942
0.0085409
0.0081636
0.00770779
0.00715931
0.00651023
0.00575763
0.00490451
0.00397223
0.00305972
0.002209
0.00162627
0.00146042
0.00261185
0.00160543
0.00382776
0.0128686
0.00642761
0.00313052
0.00405705
0.00510767
0.00525329
0.00496243
0.00435767
0.00374467
0.00388364
0.00443944
0.00528966
0.00639275
0.00765873
0.00892264
0.0100012
0.0107509
0.011092
0.0110486
0.0107335
0.0102681
0.00976706
0.0093225
0.00897972
0.00873483
0.00854377
0.00833579
0.00804608
0.00764066
0.00710385
0.0064327
0.0056338
0.00473033
0.00378881
0.00283367
0.00197207
0.00133444
0.00382983
0.00212411
0.00392895
0.012173
0.00795046
0.00404667
0.00274941
0.00337055
0.00394471
0.00399239
0.00352494
0.00342542
0.00378111
0.00443476
0.00535472
0.00652556
0.00785324
0.0091562
0.0102302
0.0109208
0.0111632
0.0109966
0.010539
0.00993874
0.00934309
0.0088677
0.00856594
0.00841797
0.00835102
0.00827125
0.00810463
0.00781167
0.0073769
0.00679894
0.00608537
0.0052545
0.00433977
0.00330719
0.00188638
0.00172071
0.0060472
0.00240961
0.00384946
0.00981054
0.00820753
0.00555285
0.00366727
0.00283941
0.00268997
0.00281719
0.00305331
0.00342967
0.00396435
0.0047007
0.00570279
0.00696718
0.00836865
0.00969016
0.0107067
0.0112645
0.0113206
0.0109433
0.0102814
0.00952031
0.00884096
0.00837529
0.00816193
0.00813752
0.00818449
0.00818409
0.0080764
0.00783933
0.0074657
0.00695544
0.00631266
0.00554174
0.00462108
0.00330704
0.00142535
0.00322436
0.00564361
0.00244666
0.0036058
0.00838403
0.00793373
0.00635257
0.00488934
0.00393598
0.00346439
0.00335769
0.00355286
0.00391269
0.00443626
0.00521514
0.00632442
0.00771356
0.00918813
0.0104811
0.0113541
0.0116739
0.0114392
0.0107668
0.00985748
0.00894797
0.0082563
0.00790869
0.00786913
0.00798488
0.00810162
0.00810389
0.00799029
0.00776095
0.0074118
0.00693827
0.00633226
0.00556653
0.00453844
0.00300396
0.001555
0.00340506
0.00622145
0.00247189
0.00328314
0.00755938
0.0076524
0.00672319
0.00571986
0.00496408
0.00451878
0.00435892
0.00439901
0.00461695
0.00509918
0.00597202
0.00725818
0.00880007
0.010307
0.0114675
0.0120568
0.011995
0.0113517
0.0103158
0.00916551
0.0082039
0.00765712
0.00754824
0.00764795
0.0078038
0.0079048
0.00787586
0.00774313
0.00751047
0.00717143
0.00670962
0.00608352
0.00520034
0.00388594
0.00236065
0.00182843
0.00372379
0.00637
0.0026161
0.00299369
0.00676269
0.00730705
0.00686804
0.00622423
0.00568305
0.00532285
0.00514678
0.00509513
0.00528247
0.00589678
0.0070408
0.00860114
0.0102726
0.0116798
0.0125125
0.0126139
0.0120016
0.0108525
0.00945208
0.00818721
0.00737184
0.00701289
0.00697747
0.00709584
0.00724435
0.00733184
0.00730016
0.00716205
0.00692306
0.00657259
0.00607187
0.00530852
0.00408789
0.00257358
0.00183848
0.00229537
0.00431374
0.006509
0.00264449
0.00300408
0.00671301
0.00746583
0.0069506
0.00642951
0.00600261
0.00569476
0.005496
0.00548974
0.00594426
0.00702974
0.00865413
0.0104868
0.0121
0.0131168
0.0133199
0.0126946
0.011395
0.00975285
0.00816185
0.00700407
0.0063221
0.00601482
0.00596608
0.00606063
0.00618894
0.00626164
0.00622395
0.00606545
0.00579914
0.00541043
0.00483202
0.00391059
0.00266724
0.00185375
0.0020081
0.00291701
0.00449715
0.00600193
0.00247192
0.00271003
0.00282059
0.00416497
0.00489665
0.00512405
0.00512918
0.00508154
0.00517885
0.00581046
0.0071587
0.00906077
0.0111168
0.0128733
0.01395
0.0141256
0.0133645
0.0118597
0.00990707
0.00804602
0.00658567
0.00560892
0.00506217
0.00483235
0.00478852
0.00482677
0.00486559
0.00484319
0.00472938
0.00450364
0.0042005
0.00382881
0.003365
0.00276093
0.00212688
0.00189341
0.00233802
0.00332481
0.00450552
0.00514705
0.00233209
0.000963513
0.00173666
0.00266518
0.00341207
0.00428065
0.00574955
0.00791227
0.0103172
0.0125112
0.0141528
0.0150045
0.0149092
0.0138724
0.0120116
0.00980749
0.00772646
0.0060791
0.00498652
0.00440024
0.00413086
0.00401436
0.00395581
0.00389914
0.00380584
0.00365614
0.00345609
0.00323172
0.00300938
0.00281117
0.00263303
0.00245693
0.00229603
0.00229122
0.00269492
0.00359883
0.00478533
0.00594036
0.00234622
0.00178744
0.00247055
0.00359597
0.00560384
0.00832269
0.0110438
0.0131462
0.0146666
0.0155927
0.0158547
0.0153253
0.0138774
0.0117335
0.00930949
0.00708849
0.00543519
0.00447714
0.00403098
0.00384504
0.00376757
0.00372667
0.00368431
0.00361779
0.0035184
0.00339439
0.00326716
0.00315836
0.00307893
0.00302953
0.00300213
0.00299289
0.00301755
0.00313168
0.00345985
0.00420637
0.00567559
0.00646693
0.00254398
0.00323782
0.00787398
0.00727024
0.00650152
0.008244
0.0109676
0.0132579
0.0148025
0.015621
0.0158287
0.0155232
0.014646
0.0131307
0.011018
0.00860763
0.00643859
0.00498889
0.00426856
0.00398291
0.00389452
0.00388753
0.00390662
0.00392043
0.00391135
0.00387499
0.00381934
0.00375938
0.00370936
0.00367766
0.00366743
0.00367986
0.00372167
0.00380586
0.00395275
0.00420575
0.00465057
0.00545448
0.00724668
0.00736567
0.00263604
0.003095
0.00598173
0.00772355
0.00988779
0.0109713
0.0120808
0.0127212
0.0128701
0.0126219
0.0120411
0.0111461
0.00993156
0.00843202
0.00681695
0.00537584
0.00438676
0.00385465
0.00362309
0.00356092
0.00359289
0.0036727
0.00376603
0.00384728
0.00390185
0.00392776
0.00393289
0.0039284
0.00392271
0.00392067
0.0039283
0.00395929
0.00403782
0.00419622
0.00446491
0.00487452
0.00544315
0.00621166
0.00755912
0.00777794
0.00271629
0.00289493
0.00248121
0.00246895
0.00254116
0.00260079
0.00252363
0.00237438
0.00220104
0.00202735
0.00186075
0.00170166
0.00155146
0.00141812
0.00131601
0.0012573
0.00123248
0.00122957
0.00123919
0.00125522
0.00127396
0.00129322
0.00131187
0.00132956
0.0013467
0.0013643
0.00138379
0.00140692
0.00143588
0.00147353
0.00152363
0.0015904
0.00167709
0.00178405
0.00190822
0.0020454
0.0021945
0.00235308
0.00251994
0.00268362
0.00252305
)
;

boundaryField
{
    floor
    {
        type            compressible::alphatWallFunction;
        Prt             0.85;
        value           nonuniform List<scalar> 
36
(
0.000219869
0.000104477
0.000149928
0.000151112
0.000147498
0.000141439
0.000133308
0.000125151
0.000117581
0.000110705
0.000104493
9.8921e-05
9.38844e-05
8.92692e-05
8.4937e-05
8.06968e-05
7.62359e-05
7.25112e-05
6.49276e-05
6.49268e-05
8.41419e-05
9.63911e-05
0.000106472
0.000127354
0.000169026
0.000161366
0.000219867
0.000239666
0.000229057
0.000219719
0.000104475
0.000219716
0.000186317
0.000266679
0.000232739
0.000265688
)
;
    }
    ceiling
    {
        type            compressible::alphatWallFunction;
        Prt             0.85;
        value           nonuniform List<scalar> 
43
(
0.000391204
0.000338972
0.000337416
0.000346606
0.000354183
0.000344424
0.000325426
0.000303191
0.000280719
0.000258968
0.000238
0.000218003
0.000200062
0.000186183
0.000178133
0.000174712
0.000174302
0.000175619
0.000177821
0.000180397
0.000183043
0.000185601
0.000188025
0.000190367
0.000192763
0.000195405
0.000198529
0.000202421
0.000207458
0.000214131
0.00022299
0.000234454
0.000248556
0.000264865
0.00028279
0.000302125
0.000322568
0.000343936
0.000364776
0.000344369
0.000368288
0.000382186
0.000248622
)
;
    }
    sWall
    {
        type            compressible::alphatWallFunction;
        Prt             0.85;
        value           nonuniform List<scalar> 9(0.000507603 0.000477879 0.000438203 0.000402274 0.00040356 0.000366713 0.000431961 0.000414302 0.000389453);
    }
    nWall
    {
        type            compressible::alphatWallFunction;
        Prt             0.85;
        value           nonuniform List<scalar> 
14
(
0.000160918
0.000191124
0.000224486
0.000334025
0.000337308
0.000355614
0.00035875
0.000336806
0.00031909
0.000321429
0.00034638
0.000358001
0.000368088
0.000343675
)
;
    }
    sideWalls
    {
        type            empty;
    }
    glass1
    {
        type            compressible::alphatWallFunction;
        Prt             0.85;
        value           nonuniform List<scalar> 9(0.000143927 0.000209133 0.000262687 0.000313294 0.000362364 0.000409986 0.000457996 0.000498855 0.000511218);
    }
    glass2
    {
        type            compressible::alphatWallFunction;
        Prt             0.85;
        value           nonuniform List<scalar> 2(0.000290377 0.000326884);
    }
    sun
    {
        type            compressible::alphatWallFunction;
        Prt             0.85;
        value           nonuniform List<scalar> 
14
(
0.000147961
0.000157649
0.000157095
0.000163766
0.000169853
0.000175358
0.000180464
0.000185371
0.000190294
0.00019551
0.000200466
0.000205161
0.000209772
0.00021472
)
;
    }
    Table_master
    {
        type            compressible::alphatWallFunction;
        Prt             0.85;
        value           nonuniform List<scalar> 9(0.000191028 0.000166837 0.000147895 0.00013288 0.000120792 0.000110933 0.000102816 9.61572e-05 9.09267e-05);
    }
    Table_slave
    {
        type            compressible::alphatWallFunction;
        Prt             0.85;
        value           nonuniform List<scalar> 9(0.000216379 0.000197604 0.000182926 0.000170615 0.000160043 0.000150482 0.000141404 0.000132319 0.000122422);
    }
    inlet
    {
        type            fixedValue;
        value           uniform 1.94e-05;
    }
    outlet
    {
        type            zeroGradient;
    }
}


// ************************************************************************* //
