/*--------------------------------*- C++ -*----------------------------------*\
  =========                 |
  \\      /  F ield         | OpenFOAM: The Open Source CFD Toolbox
   \\    /   O peration     | Website:  https://openfoam.org
    \\  /    A nd           | Version:  6
     \\/     M anipulation  |
\*---------------------------------------------------------------------------*/
FoamFile
{
    version     2.0;
    format      ascii;
    class       surfaceScalarField;
    location    "540";
    object      phi;
}
// * * * * * * * * * * * * * * * * * * * * * * * * * * * * * * * * * * * * * //

dimensions      [1 0 -1 0 0 0 0];

internalField   nonuniform List<scalar> 
850
(
-0.00319208
0.00325629
-0.0043665
0.00117441
-0.00526558
0.000899081
-0.00593137
0.00066579
-0.0063148
0.000383431
-0.00636616
5.13551e-05
-0.00602788
-0.000338275
-0.00526056
-0.000767323
-0.00409797
-0.00116259
-0.00266174
-0.00143624
-0.00114086
-0.00152088
0.000208342
-0.0013492
0.000936535
-0.000728195
0.000986879
-5.03452e-05
0.000989999
-0.00101014
0.00101473
-0.000702984
-0.000307157
3.37466e-05
-0.000736732
0.000708942
-0.000675198
0.00120771
-0.000498772
0.00147797
-0.000270256
0.00158907
-0.000111104
0.00164168
-5.26155e-05
0.00167035
-2.86668e-05
0.00168243
-1.20916e-05
0.00168206
3.67478e-07
0.00167032
1.17417e-05
0.00164036
2.99621e-05
0.00157082
6.9537e-05
0.0014257
0.000145111
0.00119394
0.000231757
0.000900108
0.000293834
0.000906135
-0.00231383
0.00574367
-0.00348026
0.00234084
-0.00443558
0.0018544
-0.00512727
0.00135747
-0.00554034
0.000796505
-0.00563392
0.000144934
-0.00535596
-0.000616238
-0.00467834
-0.00144494
-0.0036626
-0.00217833
-0.00245824
-0.0026406
-0.00125513
-0.00272399
-0.000231377
-0.00237296
0.000547976
-0.00150755
0.00108749
-0.000589863
0.00191836
0.000159135
0.00168994
0.000233638
0.00119893
0.000496835
0.00121553
5.28686e-05
0.000975725
0.000466683
-0.000720972
0.000863688
-0.00113374
0.001216
-0.00102751
0.00149708
-0.000779853
0.00156097
-0.000334148
0.00156973
-0.000119858
0.00158027
-6.31608e-05
0.00158907
-3.74754e-05
0.001594
-1.70166e-05
0.00159581
-1.44565e-06
0.00159451
1.30421e-05
0.0015873
3.71616e-05
0.00154574
0.000111102
0.001373
0.00031784
0.00107653
0.000528234
0.000715469
0.000654887
0.00163702
-0.00164247
0.00765237
-0.0026626
0.00336097
-0.00355308
0.00274488
-0.0041932
0.00199759
-0.00460179
0.0012051
-0.00473299
0.000276127
-0.00450811
-0.000841119
-0.00389322
-0.00205983
-0.00299453
-0.00307703
-0.00197998
-0.00365514
-0.00101253
-0.00369144
-0.000209582
-0.00317591
0.000450414
-0.00216755
0.000987501
-0.00112695
0.00140073
-0.000254097
0.00132479
0.000309575
0.000919065
0.000902559
0.0021499
0.00151518
-0.000521329
0.00169506
-0.000900858
0.00162382
-0.00106251
0.00167022
-0.00107392
0.00190403
-0.00101366
0.00157003
0.00145033
0.00138732
0.00135
0.00133313
0.00133184
0.00134503
0.00138235
0.0014936
0.00123473
0.000576711
0.000919125
0.000843835
0.000538168
0.00103584
0.00219828
-0.00114903
0.009147
-0.00196262
0.00417455
-0.00261685
0.00339911
-0.00310236
0.0024831
-0.00344265
0.00154538
-0.00357801
0.00041149
-0.00337848
-0.00104065
-0.00280358
-0.00263473
-0.00203748
-0.00384314
-0.00124034
-0.00445228
-0.000523854
-0.00440794
5.17351e-05
-0.0037515
0.0005445
-0.00266031
0.000940519
-0.00152297
0.00122661
-0.000540187
0.00132297
0.000213208
0.00138474
0.000840794
0.00234742
0.00118721
0.00205882
0.000305426
0.00189754
-0.000360055
0.00184541
-0.000848724
0.00176792
-0.000985022
0.00166114
-0.000967139
0.00144381
-0.000796328
0.00182337
-0.000379722
0.00203138
-0.000208162
0.00218061
-0.000149389
0.00228981
-0.000109356
0.00234689
-5.72385e-05
0.00232881
1.79241e-05
0.00220879
0.000119865
0.00195081
0.000257818
0.00149282
0.000457837
0.00124845
0.000821079
0.000862804
0.00122948
0.000323142
0.0015755
0.00255093
-0.000782197
0.0103426
-0.00138927
0.00478162
-0.00163912
0.00364896
-0.00186792
0.0027119
-0.00205238
0.00172984
-0.00211968
0.000478792
-0.00187838
-0.00128195
-0.00134705
-0.00316606
-0.000774684
-0.0044155
-0.000260742
-0.00496622
0.000149663
-0.00481834
0.000455507
-0.00405735
0.000718045
-0.00292285
0.000927467
-0.0017324
0.00110178
-0.000714506
0.00127413
4.08559e-05
0.00155465
0.000560276
0.00200471
0.000737148
0.00204305
0.000267088
0.00198797
-0.000304981
0.00180027
-0.000661021
0.00161021
-0.000794969
0.00143303
-0.000789955
0.00130875
-0.000672054
0.00138902
-0.000459992
0.00149657
-0.000315717
0.00159595
-0.000248771
0.00168765
-0.000201063
0.00176166
-0.000131245
0.00179414
-1.45602e-05
0.00176038
0.000153617
0.00164954
0.000368657
0.0014701
0.000637274
0.00129366
0.000997513
0.00109659
0.00142654
0.000690017
0.00198207
0.000907143
0.0023338
-0.00135676
0.00229011
-0.00203554
0.000703468
-0.00195107
-0.000643738
0.0114571
-0.00103015
0.00516803
-0.00069025
0.00330906
-0.000565453
0.0025871
-0.000540121
0.0017045
-0.000391348
0.000330018
1.31517e-05
-0.00168645
0.000426153
-0.00357906
0.000727479
-0.00471683
0.000889362
-0.0051281
0.000934019
-0.004863
0.000913164
-0.0040365
0.000869904
-0.00287959
0.000826126
-0.00168862
0.000821407
-0.000709788
0.000907266
-4.50048e-05
0.00111384
0.000353704
0.00140958
0.000441399
0.0015288
0.00014787
0.00144545
-0.000221635
0.00126296
-0.000478534
0.0010678
-0.000599806
0.000894912
-0.000617072
0.000781168
-0.000558313
0.000774394
-0.000453221
0.000835273
-0.000376599
0.000925462
-0.000338963
0.00103002
-0.000305619
0.00113956
-0.000240791
0.00123986
-0.000114865
0.0013073
8.61689e-05
0.00133584
0.000340118
0.00134136
0.000631753
0.00136889
0.000969979
0.00147437
0.00132106
0.00169195
0.00176449
0.00208317
0.00194258
0.00243924
0.00193404
0.00190953
0.00123317
3.19676e-05
-0.000765131
0.012743
-0.000593082
0.00499598
0.000506676
0.0022093
0.000920992
0.00217279
0.00119742
0.00142807
0.00169839
-0.000170951
0.00221491
-0.00220297
0.00241396
-0.00377812
0.0023683
-0.00467117
0.00211367
-0.00487347
0.00172633
-0.00447567
0.00128942
-0.00359958
0.000872024
-0.0024622
0.000532496
-0.00134909
0.000330691
-0.000507985
0.000310346
-2.46619e-05
0.00044285
0.000221198
0.00063382
0.000250427
0.000709763
7.19249e-05
0.000643972
-0.000155847
0.000498916
-0.00033348
0.000330698
-0.000431591
0.00017796
-0.000464338
7.42952e-05
-0.000454651
4.73956e-05
-0.000426325
8.27934e-05
-0.000412
0.000154492
-0.000410665
0.000250459
-0.00040159
0.000371194
-0.000361529
0.000520905
-0.00026458
0.00068597
-7.88994e-05
0.000849109
0.000176976
0.00101846
0.000462398
0.00123046
0.000757976
0.00152172
0.00102981
0.00195461
0.00133159
0.00254253
0.00135466
0.00342346
0.00105311
0.00368706
0.000969563
0.00379588
0.00293154
0.0103921
0.00363436
0.00429315
0.00347258
0.00237108
0.00353293
0.00211243
0.00396133
0.000999668
0.00457604
-0.000785658
0.0047982
-0.00242514
0.00457948
-0.0035594
0.00400298
-0.00409467
0.00318453
-0.00405502
0.00226029
-0.00355143
0.0013429
-0.00268219
0.000535812
-0.00165512
-5.56773e-05
-0.000757609
-0.000350924
-0.000212742
-0.000411565
3.59772e-05
-0.000333974
0.000143604
-0.000222992
0.000139443
-0.000185678
3.46083e-05
-0.000240007
-0.000101521
-0.000355849
-0.000217641
-0.000493091
-0.000294352
-0.00061901
-0.000338422
-0.000710535
-0.000363129
-0.000755998
-0.000380866
-0.000766151
-0.00040185
-0.000754862
-0.000421957
-0.000726658
-0.000429798
-0.0006749
-0.00041329
-0.000579753
-0.000359731
-0.000405999
-0.000252657
-0.000167699
-6.13271e-05
0.000101618
0.000193078
0.00040506
0.00045453
0.000731255
0.000703607
0.00111719
0.000945651
0.00152342
0.000948427
0.0018829
0.00069362
0.00107918
0.00177329
0.00520267
0.0110372
0.0153306
0.0126366
0.00506506
0.011207
0.0035421
0.0102293
0.0019773
0.00919916
0.000244518
0.00793269
-0.00115867
0.00652386
-0.00215057
0.00503823
-0.00260904
0.003504
-0.0025208
0.00203224
-0.00207967
0.000688735
-0.00133869
-0.000328545
-0.000637842
-0.000902526
-0.000183632
-0.00112206
6.79286e-06
-0.00116864
8.25519e-05
-0.00113074
0.000105699
-0.00107903
8.77315e-05
-0.0010708
2.63776e-05
-0.00111783
-5.44983e-05
-0.00120665
-0.00012882
-0.00131385
-0.000187154
-0.00142118
-0.000231103
-0.00151937
-0.000264935
-0.00160819
-0.000292049
-0.00169652
-0.00031353
-0.00179407
-0.000324413
-0.00190902
-0.000314844
-0.00205037
-0.00027195
-0.00223002
-0.000180086
-0.00246503
-1.76491e-05
-0.00274471
0.000218353
-0.00309654
0.000544906
-0.0036253
0.000983281
-0.00444683
0.00152514
-0.00562157
0.00212039
-0.00726113
0.00258798
-0.00914144
0.00257393
-0.00852419
0.00115603
-0.00295818
0.00921853
0.00739362
0.00735209
0.00540853
0.00680231
0.00252708
0.00631473
0.000732106
0.00550632
-0.000350249
0.00443003
-0.00107428
0.00314851
-0.00132752
0.00166416
-0.00103644
0.000209148
-0.000624657
-0.00091998
-0.000209569
-0.00155375
-4.07275e-06
-0.00181653
7.91466e-05
-0.00190089
9.11488e-05
-0.00190578
8.74339e-05
-0.00187995
7.98697e-05
-0.00185448
6.22588e-05
-0.00185442
2.6309e-05
-0.00188457
-2.43503e-05
-0.00193885
-7.45414e-05
-0.00201056
-0.000115451
-0.00209599
-0.000145674
-0.00219575
-0.000165176
-0.00231326
-0.000174543
-0.00245247
-0.000174323
-0.00261381
-0.000163078
-0.00279211
-0.000136549
-0.00297578
-8.82812e-05
-0.00314218
-1.36942e-05
-0.0032726
0.000112769
-0.00337598
0.000321732
-0.00346908
0.000637998
-0.00356899
0.00108319
-0.00368867
0.00164481
-0.00378333
0.00221504
-0.00375572
0.00256037
-0.00339427
0.00221248
-0.00197452
-0.000263716
-0.00483906
-0.000678037
0.00813565
0.00103185
0.00369865
0.00158577
0.00197316
0.001633
0.000684875
0.00131843
-3.56793e-05
0.000610792
-0.000366641
-0.000392193
-0.000324543
-0.00139034
-3.82966e-05
-0.002099
8.39946e-05
-0.00244394
0.00013537
-0.0025724
0.000124376
-0.00258438
9.11291e-05
-0.00256246
6.92243e-05
-0.00252911
5.40757e-05
-0.00249116
4.19149e-05
-0.00245556
2.66609e-05
-0.00243477
5.50899e-06
-0.00243319
-2.59279e-05
-0.00244719
-6.05419e-05
-0.002477
-8.56458e-05
-0.00252068
-0.000101999
-0.00257588
-0.000109985
-0.00264062
-0.000109804
-0.00271318
-0.000101766
-0.0027909
-8.53577e-05
-0.00286881
-5.86497e-05
-0.0029396
-1.74922e-05
-0.00299154
3.82475e-05
-0.00299239
0.000113614
-0.00291029
0.00023962
-0.00270712
0.000434826
-0.00235071
0.000726787
-0.00184677
0.00114086
-0.00119144
0.00155972
-0.000137478
0.0015064
0.0013065
0.000768496
0.00165608
-0.0006133
-0.00308001
-0.0135119
-0.0173683
-0.0091799
-0.00544447
-0.00343975
-0.00272723
-0.00273862
-0.0030832
-0.0033871
-0.00340562
-0.00330229
-0.00314772
-0.00300406
-0.00289355
-0.00280487
-0.00273126
-0.00266967
-0.00262311
-0.00259739
-0.00260279
-0.00264251
-0.00270711
-0.00278788
-0.00287654
-0.00296499
-0.00304545
-0.00310966
-0.00314739
-0.00314432
-0.00308596
-0.00295279
-0.00269425
-0.00224119
-0.00149692
-0.000339361
0.00123603
0.00275753
0.00354117
0.00294374
)
;

boundaryField
{
    floor
    {
        type            calculated;
        value           nonuniform List<scalar> 
36
(
0
0
0
0
0
0
0
0
0
0
0
0
0
0
0
0
0
0
0
-6.03024e-06
-1.542e-05
-2.3093e-05
-2.95114e-05
-2.62144e-05
-2.46951e-05
-2.33437e-05
-3.12167e-06
-5.22542e-06
-5.8293e-06
-6.60941e-06
-4.59258e-06
-9.99123e-06
-1.38667e-05
-1.53008e-05
-1.81239e-05
-1.68226e-05
)
;
    }
    ceiling
    {
        type            calculated;
        value           nonuniform List<scalar> 
43
(
-5.4434e-05
-5.35459e-05
-5.27117e-05
-3.67747e-05
-3.15708e-05
-2.76496e-05
-2.42934e-05
-2.20632e-05
-2.0651e-05
-1.97814e-05
-1.93349e-05
-1.92115e-05
-1.92816e-05
-1.93846e-05
-1.94582e-05
-1.95392e-05
-1.96778e-05
-1.99082e-05
-2.02178e-05
-2.05309e-05
-2.08179e-05
-2.10552e-05
-2.12287e-05
-2.13319e-05
-2.13592e-05
-2.13036e-05
-2.1158e-05
-2.09163e-05
-2.05716e-05
-2.01107e-05
-1.95583e-05
-1.8929e-05
-1.82361e-05
-1.74904e-05
-1.67001e-05
-1.56727e-05
-1.51067e-05
-1.51434e-05
-1.58789e-05
-1.60997e-05
1.86685e-06
-2.6534e-07
-6.39967e-05
)
;
    }
    sWall
    {
        type            calculated;
        value           uniform -0.00025015;
    }
    nWall
    {
        type            calculated;
        value           nonuniform List<scalar> 6(-6.11206e-05 -7.35159e-05 -7.68548e-05 -9.36469e-05 -0.000102977 -0.000120172);
    }
    sideWalls
    {
        type            empty;
        value           nonuniform 0();
    }
    glass1
    {
        type            calculated;
        value           nonuniform List<scalar> 9(-6.42058e-05 -0.000173556 -0.000266225 -0.000345603 -0.000413408 -0.00047072 -0.000520849 -0.000580556 -0.000646998);
    }
    glass2
    {
        type            calculated;
        value           nonuniform List<scalar> 2(-0.000327608 -0.000363342);
    }
    sun
    {
        type            calculated;
        value           uniform 0;
    }
    Table_master
    {
        type            calculated;
        value           nonuniform List<scalar> 9(-1.54436e-07 -1.54601e-07 -1.54653e-07 -1.54684e-07 -1.54704e-07 -1.54716e-07 -1.54717e-07 -1.54708e-07 -1.54673e-07);
    }
    Table_slave
    {
        type            calculated;
        value           nonuniform List<scalar> 9(1.54301e-07 1.54277e-07 1.54219e-07 1.54175e-07 1.54151e-07 1.54151e-07 1.54161e-07 1.54208e-07 1.54304e-07);
    }
    inlet
    {
        type            calculated;
        value           uniform -0.0115471;
    }
    outlet
    {
        type            calculated;
        value           nonuniform List<scalar> 2(0.0138165 0.00390987);
    }
}


// ************************************************************************* //
