/*--------------------------------*- C++ -*----------------------------------*=========                 |
  \      /  F ield         | OpenFOAM: The Open Source CFD Toolbox
   \    /   O peration     | Website:  https://openfoam.org
    \  /    A nd           | Version:  6
     \/     M anipulation  |
\*---------------------------------------------------------------------------*/
FoamFile
{
    version     2.0;
    format      ascii;
    class       volScalarField;
    location    "540";
    object      PMV;
}
// * * * * * * * * * * * * * * * * * * * * * * * * * * * * * * * * * * * * * //

dimensions      [0 0 0 0 0 0 0];

internalField   nonuniform List<scalar> 
458
(
1.3245556328700214
1.0783857164563133
1.0451096234766082
1.0161891768031899
0.9982375799627017
0.9896263439804449
0.9922397909248053
1.0065986090810155
1.0360019773888876
1.0842763564641174
1.1551573221346947
1.2251895313786472
1.240944883181898
1.2490609629496159
1.2614733610566404
1.3774524332856946
1.3636144020240606
1.3602740501044805
1.3664775186820128
1.3717264638293518
1.3755437946281461
1.37107226896688
1.3672267063082755
1.3681761695043155
1.3700618192285956
1.373033767454944
1.376291596005132
1.3811056818283505
1.3875404783319967
1.3988004455725547
1.4075110645541744
1.411804770090825
1.4261163979309723
1.2566777952384678
1.0904183131788863
1.0778432973020167
1.0493357164400898
1.0325318367600447
1.0246592881634897
1.0258383186930216
1.0337944596533994
1.0482139865099116
1.0729719640438882
1.11338313748032
1.1748401158873056
1.2376029051200732
1.2485835525546578
1.2542869629499949
1.2120219192502517
1.2127371892447825
1.2354291384914933
1.3311134528895903
1.3507298999663788
1.3502526814150886
1.3578880522924472
1.3610503363058981
1.3602601438364175
1.3607927320750637
1.361938240539311
1.3631196983732463
1.363399542307939
1.3643078206966455
1.3651293476733837
1.3667186097867352
1.3698365215936739
1.3784377907947027
1.3869953554919205
1.3936751278707984
1.3778988068518856
1.2884527429497976
1.081493773833376
1.110595254393176
1.0955548290024082
1.0888414680855698
1.085281406112138
1.0852326348144874
1.0816218743402304
1.0679093429569804
1.0561706565010698
1.06750101806831
1.1169341899410716
1.2092779347569889
1.255267228010902
1.2614733610566404
1.2643376848739294
1.2642641510802346
1.2454906406609287
1.2417384595232872
1.3050219941556158
1.3140954150328052
1.3229473394441356
1.3337408760652243
1.337893779357593
1.3604953639852084
1.3755437946281461
1.3755437946281461
1.3760209559703078
1.3760209559703078
1.3764981161949168
1.3769752753004951
1.3774524332856946
1.3803153575876859
1.3841325266312665
1.3766654983261237
1.3044832300659035
1.3626847277771204
1.0747321615136165
1.134756547719177
1.1452805357636278
1.1629563130281404
1.1745576661213226
1.1765605586003811
1.1517445930525125
1.094263025893625
1.040641619280412
1.0288140479088548
1.0751259834157014
1.1685036388044774
1.2612742802718662
1.2753173220674825
1.2762720525049205
1.2492662416323044
1.225095587673622
1.17486970450022
1.2412516603143902
1.2772436543610128
1.3037418528157196
1.3343960052682096
1.3690297603581019
1.3956743623640737
1.3900232061184523
1.3843970970041877
1.3833204943178588
1.384611150204384
1.3876993818768166
1.394806412462351
1.4080253800603502
1.431301459915335
1.43022091140053
1.4156213138303675
1.3570928435264764
1.2604823749150298
1.4567767456874892
1.0835797042936848
1.1523104181040469
1.1898428731583996
1.2455358544193167
1.2924153923522277
1.3013616432309325
1.2274360539269935
1.1158288094474127
1.0263490880172492
0.9996435054904365
1.0494420269198725
1.1445465376809105
1.247698769555714
1.29488861484259
1.2967979309230369
1.283908912462437
1.2556213010425827
1.2543819078943361
1.2708053477922707
1.3022703998333243
1.3431244053578975
1.3850295298908395
1.4259025539927337
1.45425922017698
1.4661296045140941
1.4671504492737892
1.4668696445055436
1.4652745287508324
1.4624348541067103
1.4604471707498852
1.4598079682376184
1.4594498015525135
1.4441287314202567
1.417171194249596
1.341630564151956
1.3418731613870423
1.3396235278270576
1.424182721531727
1.3027550178402245
1.554380802280324
1.113192825186333
1.1830894181188372
1.2218989939033618
1.3072551752922728
1.3827010967650315
1.4173731497204856
1.256092273511591
1.1140008241509722
1.0091675406365017
0.9798045607503382
1.0333299087265295
1.1403580665560848
1.259705164604981
1.3230495444732295
1.3287767893555584
1.3268677232961499
1.3278222582808326
1.3391194785477973
1.3597676043165712
1.3940313144585685
1.4270704661954534
1.4547361771672138
1.4776284782836457
1.4947955339156551
1.5062391618988462
1.5138677556019258
1.518635423289777
1.5205424460841659
1.519588937863556
1.5152980724478537
1.5081463475727495
1.491144210945404
1.4612023094677953
1.4241561073902793
1.3529123210766907
1.3465104547158384
1.3399351932556087
1.3648665598448617
1.3727171302221404
1.6467202947454271
1.20057702273486
1.3030052614625873
1.2809587565401186
1.3365156730707468
1.4160983762380748
1.3485612042950863
1.2259759995921344
1.0832625464295036
0.9796794654204675
0.9608138828545111
1.0334637302661114
1.163663745896449
1.3073100893699896
1.362182829086228
1.3726808031860012
1.3731579712036592
1.3788839005043774
1.3970149282436621
1.4232541626537556
1.4518744148065195
1.4785822533148385
1.5019479041619799
1.519588937863556
1.531507329538621
1.5391345667937628
1.5429480265646518
1.544378046414062
1.5434247015236637
1.540087941728278
1.533414178286222
1.524356415160584
1.5133909801820806
1.4966975234596716
1.45187145650495
1.38971934776384
1.3604060047745086
1.339404215162658
1.3118066726060327
1.417715230825056
1.787322697820911
1.5737235017029094
1.5155094981310815
1.3987003929959922
1.3776882670122355
1.3657823443981583
1.2936269216425929
1.1505781091025122
1.0010324581313015
0.9201103656518824
0.9426555652834308
1.0625690668827203
1.2330455668719253
1.3722036340607748
1.4127589134177119
1.4246852859967045
1.4294556145136872
1.4394728850090492
1.459028728466821
1.4828741692450589
1.5062391618988462
1.5267400937113669
1.5419946716277966
1.5524812054181043
1.5586774059631507
1.5615370923198928
1.5615370923198928
1.5605838704881885
1.5577241632987116
1.553434485939003
1.547238040736632
1.5386578768365156
1.528170281486411
1.5157748415862093
1.5024247167021687
1.4876428260137702
1.4778927102942467
1.4504649554155629
1.3716842712916955
1.2854723721879002
1.9970048876355875
1.848927968248111
1.687753172020338
1.544783332523966
1.453095718568135
1.380591685528367
1.1835496828258616
0.9629296449644039
0.8328603288436145
0.8357561828901972
0.9562608454646667
1.1635455333433027
1.3583652539883004
1.4375648777620489
1.4666596542015085
1.4790591386638934
1.4876428260137702
1.5000406387614587
1.517205139546836
1.5348442976497125
1.5505746238815756
1.5624903071784195
1.5681936852656273
1.5639214615577768
1.5582665054561131
1.5519532472875415
1.5442675332077924
1.535260016406611
1.525087760351688
1.5136935152786892
1.5001082212343355
1.485237395428843
1.4712744404484368
1.4544799132160264
1.4350418728715548
1.4173319252853336
1.4059809730521615
1.4013557928494464
1.3915212190250217
1.3601864392357488
-1.6655364491966187
-0.7636347184264497
-0.20891651661999408
-0.010487938483156073
0.13556717283446412
0.3243520136042741
0.5700533076209249
0.8501304453417877
1.147027381598483
1.358842454618796
1.4571209416123785
1.4750817132949319
1.484147340200882
1.492809144257164
1.503537446753357
1.5163652371501484
1.5282369931667084
1.5371075458521415
1.5413120653712984
1.5415570129012999
1.5388249208736353
1.5342021721252563
1.5280647550696786
1.5202461565117684
1.5116955553298774
1.5031611182753986
1.4941569395280494
1.486800092200741
1.4811315966261938
1.4768224041607048
1.4740577930430554
1.4722251580710874
1.4703119623023682
1.470545959263762
1.481054322668767
1.517871236198819
1.585153373757437
1.4329221455091832
-1.6768499153791503
-0.5928150227729325
-0.01489715934529363
0.3064136322275008
0.5192931947080384
0.7814799445820942
1.055660067481515
1.2848644746881486
1.3769481909646002
1.421393787111478
1.4499477333302218
1.4664884620249596
1.4778615138998235
1.487456200521978
1.495594762814896
1.5030476597587707
1.5096366051838992
1.5142377682124337
1.5170798851741332
1.5176783173844535
1.516131667989897
1.5135495612798529
1.510565210523587
1.507342801642329
1.5040500123267804
1.500869618027588
1.498515599322112
1.4974517230058666
1.4971441961971073
1.4998372523258956
1.5066425549508196
1.5182414554591186
1.5305066798314402
1.5408522730026282
1.5515554347680696
1.5867387067924492
1.534588005948916
1.4758943355957357
-1.132102976953022
-1.1310810241899212
-1.0075062812694542
-0.20576991997884742
0.37931046012094344
0.796053765800894
1.093832598643511
1.2402684718597061
1.3286794457543945
1.3822187565591804
1.4166614085769396
1.4410375511343652
1.4559705911013692
1.4643867167576345
1.4700349362286302
1.4730902716462246
1.4749310464577194
1.4748970831483237
1.4733125333684336
1.4710413980875134
1.4685511175507435
1.4653928233501388
1.4627403631893883
1.4601706354209893
1.4583150937839389
1.4573485051216524
1.4575269402868074
1.4592159694802564
1.462940883123039
1.469438771232676
1.4788066403540234
1.4931105654721477
1.5163734520415204
1.5568823630637678
1.6158573735263417
1.62205039048898
1.5940233274164302
1.5342665525333177
1.4832312726008976
1.4961964740604428
)
;

boundaryField
{
    ".*"
    {
        type            zeroGradient;
    }
}


// ************************************************************************* //
