/*--------------------------------*- C++ -*----------------------------------*\
  =========                 |
  \\      /  F ield         | OpenFOAM: The Open Source CFD Toolbox
   \\    /   O peration     | Website:  https://openfoam.org
    \\  /    A nd           | Version:  6
     \\/     M anipulation  |
\*---------------------------------------------------------------------------*/
FoamFile
{
    version     2.0;
    format      ascii;
    class       volScalarField;
    location    "580";
    object      nut;
}
// * * * * * * * * * * * * * * * * * * * * * * * * * * * * * * * * * * * * * //

dimensions      [0 2 -1 0 0 0 0];

internalField   nonuniform List<scalar> 
458
(
0.00107245
0.00116753
0.00119423
0.00125151
0.0013043
0.00135432
0.00140441
0.00145518
0.00149662
0.00152257
0.00152531
0.00149726
0.0014288
0.00128284
0.000975381
0.000481704
0.000564608
0.000640504
0.000668403
0.000658132
0.000615718
0.000568804
0.000526858
0.000490558
0.000459046
0.000431547
0.000407493
0.00038618
0.000366783
0.000348395
0.000329936
0.000318837
0.000292932
0.00144487
0.00325601
0.00300534
0.00344407
0.00388247
0.00433304
0.00473663
0.00505
0.00537138
0.0056716
0.00591178
0.0060566
0.00606757
0.00585052
0.00474308
0.00128774
0.00106874
0.000871587
0.000477406
0.00113473
0.00165537
0.00205833
0.00218566
0.00159126
0.00134249
0.00117322
0.00104829
0.000952659
0.000876815
0.000811763
0.000750661
0.000689599
0.000634945
0.000589273
0.000720639
0.000384215
0.00175598
0.00437761
0.00361815
0.0044082
0.00474322
0.00497901
0.00516044
0.00532882
0.00556178
0.00584424
0.00615251
0.00645376
0.00668882
0.00676526
0.00636873
0.00519094
0.00392932
0.001031
0.000733492
0.00126755
0.00184796
0.00242581
0.00259165
0.00082808
0.000724737
0.000638755
0.000569116
0.000512913
0.000467372
0.000430347
0.000400408
0.000377129
0.000417806
0.000484106
0.000846419
0.000453751
0.00205566
0.0055885
0.00352289
0.00456796
0.00475235
0.00473654
0.0047221
0.00480394
0.00499368
0.00527379
0.00562977
0.0060259
0.00636822
0.00657766
0.00652407
0.00618425
0.00530486
0.00291163
0.00118691
0.0015056
0.00207009
0.00276533
0.00337049
0.00340384
0.000933781
0.000855771
0.000802444
0.000762956
0.000729516
0.000696442
0.000665024
0.00063184
0.000593094
0.000558342
0.000550273
0.00100912
0.000522508
0.00236198
0.00721644
0.00369668
0.00433822
0.00460092
0.00444835
0.00432463
0.00439807
0.00459702
0.00488835
0.00527306
0.00570829
0.00604212
0.00620511
0.00619684
0.00607612
0.00572316
0.00473117
0.004278
0.00431159
0.00456593
0.00486936
0.00505747
0.00497788
0.00424866
0.00387165
0.00366282
0.00351293
0.00336133
0.00316435
0.00283448
0.00241091
0.00192987
0.00146719
0.00110051
0.00102679
0.000888854
0.000698455
0.000739641
0.000804092
0.00269
0.00905023
0.00505919
0.00402205
0.00438163
0.00437796
0.00421663
0.00427897
0.00447963
0.00477105
0.0051619
0.00557844
0.00588857
0.00598302
0.00588473
0.00574835
0.00568644
0.00560227
0.0057662
0.00605936
0.00626782
0.0063094
0.0061766
0.00589204
0.00549058
0.00516255
0.00490584
0.00467878
0.00445516
0.00421713
0.00390904
0.00348964
0.00296161
0.00236674
0.00181801
0.00131965
0.00108344
0.000943944
0.00118809
0.000834095
0.00301244
0.0104337
0.00753406
0.00494745
0.00431347
0.00437989
0.00442992
0.00445605
0.0045686
0.00482711
0.00521344
0.00562707
0.00591056
0.00593565
0.00575249
0.00562411
0.00584088
0.0063154
0.0067995
0.00707768
0.00708392
0.00685527
0.00646316
0.00598304
0.0055014
0.00511004
0.00481065
0.0045663
0.00435191
0.00415928
0.00398416
0.00375609
0.00338578
0.0028937
0.00238419
0.00189611
0.00157715
0.001444
0.00137567
0.0009917
0.00309184
0.00967199
0.00821924
0.00691035
0.00591334
0.00547549
0.00504396
0.00475408
0.00475122
0.00500251
0.00540508
0.00581407
0.00604983
0.0059852
0.00576313
0.00582482
0.00644061
0.00694173
0.00720712
0.00720257
0.00692498
0.00643866
0.00583613
0.00522371
0.00470949
0.00434463
0.00409601
0.00391627
0.00378255
0.0036916
0.00364948
0.00364817
0.00354831
0.00325692
0.00297362
0.00281563
0.00288341
0.00304199
0.00360953
0.00153529
0.00303082
0.00365359
0.00403433
0.00424634
0.00427733
0.00421318
0.00421879
0.00440322
0.00477438
0.00524877
0.00573082
0.00610105
0.00620752
0.00598104
0.00593247
0.0062455
0.00660477
0.0067299
0.00664597
0.00634105
0.00582259
0.00517666
0.00452563
0.00398568
0.00360823
0.00336596
0.00320296
0.00307931
0.00297437
0.00287645
0.00277676
0.00266805
0.00257011
0.00248561
0.00242937
0.0023972
0.00233666
0.00221317
0.00206359
0.00143416
0.00133022
0.00233961
0.00321929
0.00391589
0.00455723
0.00518633
0.00569154
0.00603904
0.00625545
0.00626892
0.00604338
0.00577643
0.00578318
0.00589459
0.0058224
0.00559411
0.00522908
0.00473377
0.00416272
0.00359891
0.00314597
0.00283927
0.00265092
0.00253564
0.00245961
0.00240467
0.00236287
0.00233225
0.00231515
0.00232081
0.00233443
0.00234659
0.00234719
0.00230995
0.00219539
0.00199389
0.00174425
0.00115408
0.00201494
0.00397246
0.00511385
0.00586108
0.00644317
0.00649822
0.00618212
0.00586529
0.00553894
0.00495172
0.00454819
0.00445339
0.00439648
0.00422905
0.00397108
0.00364757
0.00326635
0.00286427
0.00250215
0.00222391
0.00203105
0.00192072
0.00187001
0.00186018
0.00187977
0.00192154
0.0019794
0.00204606
0.00212415
0.00221325
0.00230838
0.00240169
0.00247756
0.0025155
0.00248008
0.00244919
0.00225787
0.00116916
0.00212008
0.00217276
0.00222051
0.00247086
0.00233509
0.00206892
0.00174887
0.0014933
0.00133384
0.0011804
0.00104373
0.000936724
0.000845356
0.000777102
0.000730118
0.000695847
0.000668262
0.000644552
0.000625033
0.000611941
0.000607164
0.000610941
0.000622183
0.000638525
0.000659061
0.000683318
0.000711165
0.000742771
0.000778669
0.00081997
0.000866899
0.000919142
0.000976977
0.00104068
0.0011103
0.00119376
0.00122999
0.00120465
0.00112052
0.00103633
)
;

boundaryField
{
    floor
    {
        type            nutkWallFunction;
        Cmu             0.09;
        kappa           0.41;
        E               9.8;
        value           nonuniform List<scalar> 
36
(
0.000117818
5.73727e-05
6.79102e-05
7.73908e-05
8.08408e-05
7.95727e-05
7.43105e-05
6.84382e-05
6.31375e-05
5.85081e-05
5.44548e-05
5.08891e-05
4.77465e-05
4.49423e-05
4.23729e-05
3.99209e-05
3.74425e-05
3.59435e-05
3.24177e-05
3.24177e-05
4.46818e-05
5.37694e-05
6.25837e-05
8.45368e-05
8.95731e-05
9.73889e-05
0.000117818
0.000154065
0.000128774
0.000105494
5.73727e-05
0.000105494
5.68203e-05
0.000124359
8.88238e-05
0.000142487
)
;
    }
    ceiling
    {
        type            nutkWallFunction;
        Cmu             0.09;
        kappa           0.41;
        E               9.8;
        value           nonuniform List<scalar> 
43
(
0.00024629
0.000251978
0.000257124
0.000283985
0.000269525
0.000240859
0.000205838
0.000177365
0.000159327
0.000141739
0.000125853
0.000113248
0.000102353
9.4125e-05
8.84116e-05
8.42167e-05
8.08223e-05
7.78913e-05
7.54685e-05
7.38385e-05
7.32427e-05
7.37137e-05
7.5114e-05
7.71441e-05
7.96864e-05
8.2677e-05
8.60947e-05
8.99545e-05
9.4315e-05
9.93025e-05
0.000104934
0.000111162
0.000118009
0.000125496
0.000133621
0.000143283
0.000147455
0.000144539
0.000134808
0.000124988
0.00034329
0.000407629
0.000234812
)
;
    }
    sWall
    {
        type            nutkWallFunction;
        Cmu             0.09;
        kappa           0.41;
        E               9.8;
        value           uniform 0.000246356;
    }
    nWall
    {
        type            nutkWallFunction;
        Cmu             0.09;
        kappa           0.41;
        E               9.8;
        value           nonuniform List<scalar> 6(9.73894e-05 0.000101003 0.000119748 0.00013871 0.000140455 0.000124995);
    }
    sideWalls
    {
        type            empty;
    }
    glass1
    {
        type            nutkWallFunction;
        Cmu             0.09;
        kappa           0.41;
        E               9.8;
        value           nonuniform List<scalar> 9(0.000129316 0.000172137 0.000206949 0.000239845 0.00027294 0.000307879 0.00034179 0.000350091 0.000343738);
    }
    glass2
    {
        type            nutkWallFunction;
        Cmu             0.09;
        kappa           0.41;
        E               9.8;
        value           nonuniform List<scalar> 2(0.000182177 0.000170789);
    }
    sun
    {
        type            nutkWallFunction;
        Cmu             0.09;
        kappa           0.41;
        E               9.8;
        value           nonuniform List<scalar> 
14
(
0.000129211
0.000140249
0.000143331
0.000149917
0.000155957
0.000161655
0.000167338
0.000173074
0.00017774
0.000180654
0.000180961
0.000177811
0.000170096
0.000153504
)
;
    }
    Table_master
    {
        type            nutkWallFunction;
        Cmu             0.09;
        kappa           0.41;
        E               9.8;
        value           nonuniform List<scalar> 9(0.000100278 8.77563e-05 7.71766e-05 6.84818e-05 6.137e-05 5.55368e-05 5.07421e-05 4.68271e-05 4.37573e-05);
    }
    Table_slave
    {
        type            nutkWallFunction;
        Cmu             0.09;
        kappa           0.41;
        E               9.8;
        value           nonuniform List<scalar> 9(0.000112897 0.000103601 9.71899e-05 9.24101e-05 8.83395e-05 8.42918e-05 8.04252e-05 7.63176e-05 7.14882e-05);
    }
    inlet
    {
        type            calculated;
        value           uniform 0.000167705;
    }
    outlet
    {
        type            calculated;
        value           nonuniform List<scalar> 2(0.00212008 0.00217276);
    }
}


// ************************************************************************* //
