/*--------------------------------*- C++ -*----------------------------------*\
  =========                 |
  \\      /  F ield         | OpenFOAM: The Open Source CFD Toolbox
   \\    /   O peration     | Website:  https://openfoam.org
    \\  /    A nd           | Version:  6
     \\/     M anipulation  |
\*---------------------------------------------------------------------------*/
FoamFile
{
    version     2.0;
    format      ascii;
    class       volScalarField;
    location    "880";
    object      nut;
}
// * * * * * * * * * * * * * * * * * * * * * * * * * * * * * * * * * * * * * //

dimensions      [0 2 -1 0 0 0 0];

internalField   nonuniform List<scalar> 
458
(
0.00106949
0.00116394
0.00119025
0.00124719
0.00129964
0.00134931
0.00139899
0.00144943
0.00149066
0.00151655
0.00151945
0.00149183
0.00142422
0.00128112
0.000972026
0.000480414
0.000563173
0.000638496
0.000665769
0.000655357
0.000613275
0.000566717
0.000525061
0.000488979
0.000457641
0.000430273
0.000406327
0.000385094
0.000365755
0.000347412
0.000328994
0.000318047
0.000292301
0.00144204
0.00324168
0.00298993
0.00342589
0.00386064
0.00430785
0.00470916
0.00501951
0.00533823
0.00563648
0.00587562
0.00602077
0.0060341
0.00582387
0.00473307
0.00128309
0.00106451
0.00086852
0.000476545
0.00113088
0.00164808
0.00204853
0.00217519
0.00158529
0.00133829
0.00117023
0.00104619
0.000951156
0.00087575
0.000810718
0.000749631
0.000688648
0.000634179
0.000588507
0.00071997
0.000384227
0.00175332
0.00435747
0.00359584
0.00438431
0.00471593
0.00494886
0.00512788
0.00529308
0.00552284
0.00580198
0.00610701
0.00640602
0.00664211
0.00672452
0.00633602
0.00516384
0.00391348
0.00102584
0.000733934
0.00126645
0.00184283
0.00241618
0.00257999
0.000824317
0.000721671
0.000636269
0.000567096
0.000511272
0.000466033
0.00042926
0.00039952
0.000376388
0.000417079
0.000483039
0.000844779
0.000454067
0.00205325
0.00556648
0.00349835
0.00454258
0.00472438
0.00470667
0.00469015
0.00476937
0.00495619
0.00523227
0.00558315
0.00597477
0.00631789
0.00653349
0.00648452
0.00614896
0.00527732
0.00289749
0.00118184
0.00150464
0.00206848
0.0027591
0.00335797
0.00338772
0.000928616
0.000851225
0.000798513
0.000759603
0.000726696
0.000693982
0.000662922
0.000630101
0.000591736
0.00055731
0.000549174
0.00100696
0.000522987
0.00235979
0.00719326
0.00366993
0.0043125
0.00457219
0.00441788
0.00429222
0.0043642
0.00456145
0.00484858
0.0052268
0.00565622
0.00599255
0.00616012
0.00615601
0.00603842
0.00569036
0.00470562
0.00426503
0.00429584
0.00454628
0.00484477
0.0050282
0.00494607
0.00422019
0.00384698
0.00364136
0.00349406
0.00334496
0.00315296
0.00282609
0.00240521
0.00192653
0.0014654
0.00109909
0.00102402
0.000888896
0.000699194
0.000740167
0.000804517
0.00268793
0.00902615
0.00502673
0.00399323
0.00435211
0.00434346
0.00418304
0.00424337
0.00444444
0.00473147
0.00511499
0.00552651
0.00583797
0.00593802
0.00584419
0.00570948
0.00564876
0.00556764
0.00573518
0.00602589
0.00623013
0.00626702
0.00613042
0.00584387
0.00544321
0.00511759
0.00486404
0.00464059
0.004421
0.00418783
0.00388659
0.00347358
0.00295123
0.00236052
0.00181381
0.00131523
0.00108096
0.000942959
0.00118743
0.000834445
0.0030109
0.0104113
0.00750176
0.00490951
0.00427212
0.00433353
0.00438904
0.00442076
0.00453408
0.00478678
0.00516396
0.00557181
0.00585758
0.00589026
0.00571203
0.00558303
0.00579752
0.00627267
0.0067565
0.00702975
0.00703091
0.00679763
0.00640204
0.0059202
0.00543991
0.00505326
0.00476041
0.00452284
0.00431491
0.00412811
0.00395817
0.00373594
0.00337074
0.0028828
0.00237602
0.00188924
0.00157155
0.00143967
0.0013723
0.000991387
0.00309065
0.00966265
0.00820321
0.00688399
0.00587604
0.00543005
0.00501106
0.00472559
0.004719
0.00495957
0.00534969
0.00575288
0.00599398
0.00594049
0.00572244
0.00577855
0.00639105
0.00689354
0.00715547
0.00714388
0.00686064
0.00637029
0.00576675
0.00515772
0.00465135
0.00429632
0.0040568
0.00388472
0.00375723
0.00367128
0.00363303
0.00363464
0.00353722
0.0032471
0.00296441
0.00280674
0.00287506
0.00303508
0.00360548
0.00153581
0.00302995
0.00365334
0.00403426
0.00424614
0.00427552
0.00421053
0.00421086
0.0043853
0.00474117
0.00519603
0.00566279
0.00603182
0.00615219
0.00594339
0.00588632
0.0061978
0.00655704
0.00668015
0.0065912
0.00627982
0.00575763
0.0051125
0.00446822
0.00393923
0.00357302
0.00333973
0.00318322
0.00306424
0.00296275
0.00286748
0.00276983
0.00266267
0.00256551
0.00248144
0.00242575
0.00239444
0.00233493
0.00221227
0.00206311
0.00143465
0.00133517
0.00234655
0.00322175
0.00390661
0.00453209
0.00514146
0.00562595
0.00595318
0.00616807
0.00620148
0.00600263
0.00575806
0.00576084
0.00586446
0.00578567
0.00555293
0.00518584
0.00469156
0.00412294
0.00356719
0.00312459
0.00282644
0.00264354
0.00253127
0.00245673
0.00240236
0.00236066
0.00232992
0.00231267
0.00231805
0.00233161
0.00234373
0.00234445
0.00230749
0.00219323
0.0019918
0.00174218
0.00115434
0.00201493
0.00395777
0.00507608
0.00580149
0.00636612
0.00641585
0.00608805
0.00575845
0.00547423
0.00492911
0.00454172
0.00445257
0.00439187
0.00422021
0.00396129
0.00364022
0.0032638
0.00286766
0.00251043
0.00223259
0.00204089
0.00193031
0.00187846
0.00186724
0.00188548
0.00192606
0.00198286
0.00204858
0.0021255
0.00221381
0.00230833
0.00240118
0.00247678
0.00251458
0.00247954
0.002449
0.00225473
0.00116934
0.00211917
0.00217152
0.00221906
0.00246884
0.00233353
0.00206785
0.00174458
0.00148466
0.0013253
0.00117383
0.00104038
0.000935855
0.000847303
0.000780192
0.000733551
0.000699476
0.000672071
0.000648497
0.000629037
0.000615905
0.000611004
0.000614679
0.000625596
0.000641647
0.000661926
0.000685957
0.000713602
0.000745025
0.000780749
0.000821881
0.000868693
0.00092082
0.000978541
0.00104212
0.0011116
0.00119488
0.00123133
0.00120611
0.00112184
0.00103757
)
;

boundaryField
{
    floor
    {
        type            nutkWallFunction;
        Cmu             0.09;
        kappa           0.41;
        E               9.8;
        value           nonuniform List<scalar> 
36
(
0.000117422
5.72069e-05
6.77295e-05
7.71416e-05
8.05156e-05
7.92295e-05
7.40058e-05
6.81755e-05
6.29092e-05
5.83058e-05
5.42732e-05
5.07231e-05
4.75935e-05
4.47987e-05
4.22362e-05
3.97894e-05
3.73156e-05
3.58366e-05
3.23315e-05
3.23314e-05
4.46837e-05
5.38104e-05
6.26448e-05
8.46276e-05
8.96373e-05
9.74402e-05
0.000117422
0.000153533
0.000128279
0.000105127
5.72069e-05
0.000105127
5.67096e-05
0.000123754
8.88779e-05
0.000141902
)
;
    }
    ceiling
    {
        type            nutkWallFunction;
        Cmu             0.09;
        kappa           0.41;
        E               9.8;
        value           nonuniform List<scalar> 
43
(
0.000246192
0.000251845
0.000256967
0.00028377
0.000269358
0.000240742
0.000205364
0.000176393
0.000158354
0.00014098
0.000125459
0.000113145
0.000102587
9.44996e-05
8.88309e-05
8.46624e-05
8.12924e-05
7.83802e-05
7.59667e-05
7.43329e-05
7.37221e-05
7.41801e-05
7.5539e-05
7.75316e-05
8.00407e-05
8.3002e-05
8.63933e-05
9.02292e-05
9.4567e-05
9.95327e-05
0.000105149
0.000111361
0.000118193
0.000125665
0.000133772
0.000143413
0.000147608
0.000144707
0.000134962
0.000125133
0.000343199
0.000407603
0.000234812
)
;
    }
    sWall
    {
        type            nutkWallFunction;
        Cmu             0.09;
        kappa           0.41;
        E               9.8;
        value           uniform 0.000246258;
    }
    nWall
    {
        type            nutkWallFunction;
        Cmu             0.09;
        kappa           0.41;
        E               9.8;
        value           nonuniform List<scalar> 6(9.74408e-05 0.000101045 0.000119711 0.000138739 0.000140475 0.00012514);
    }
    sideWalls
    {
        type            empty;
    }
    glass1
    {
        type            nutkWallFunction;
        Cmu             0.09;
        kappa           0.41;
        E               9.8;
        value           nonuniform List<scalar> 9(0.000128968 0.000171817 0.000206655 0.000239583 0.000272705 0.000307659 0.000341629 0.000349966 0.000343647);
    }
    glass2
    {
        type            nutkWallFunction;
        Cmu             0.09;
        kappa           0.41;
        E               9.8;
        value           nonuniform List<scalar> 2(0.000182235 0.000170843);
    }
    sun
    {
        type            nutkWallFunction;
        Cmu             0.09;
        kappa           0.41;
        E               9.8;
        value           nonuniform List<scalar> 
14
(
0.000128864
0.000139834
0.000142871
0.000149422
0.000155425
0.000161085
0.000166723
0.000172425
0.000177069
0.000179979
0.000180304
0.000177201
0.000169577
0.000153307
)
;
    }
    Table_master
    {
        type            nutkWallFunction;
        Cmu             0.09;
        kappa           0.41;
        E               9.8;
        value           nonuniform List<scalar> 9(9.98248e-05 8.73816e-05 7.68679e-05 6.82276e-05 6.11609e-05 5.53642e-05 5.06005e-05 4.67105e-05 4.36593e-05);
    }
    Table_slave
    {
        type            nutkWallFunction;
        Cmu             0.09;
        kappa           0.41;
        E               9.8;
        value           nonuniform List<scalar> 9(0.000112284 0.000103056 9.67149e-05 9.20026e-05 8.79951e-05 8.39895e-05 8.01656e-05 7.61015e-05 7.13183e-05);
    }
    inlet
    {
        type            calculated;
        value           uniform 0.000167705;
    }
    outlet
    {
        type            calculated;
        value           nonuniform List<scalar> 2(0.00211917 0.00217152);
    }
}


// ************************************************************************* //
