/*--------------------------------*- C++ -*----------------------------------*\
  =========                 |
  \\      /  F ield         | OpenFOAM: The Open Source CFD Toolbox
   \\    /   O peration     | Website:  https://openfoam.org
    \\  /    A nd           | Version:  6
     \\/     M anipulation  |
\*---------------------------------------------------------------------------*/
FoamFile
{
    version     2.0;
    format      ascii;
    class       volScalarField;
    location    "2000";
    object      alphat;
}
// * * * * * * * * * * * * * * * * * * * * * * * * * * * * * * * * * * * * * //

dimensions      [1 -1 -1 0 0 0 0];

internalField   nonuniform List<scalar> 
662
(
0.00112147
0.00120815
0.00122351
0.00128016
0.00133314
0.00138322
0.00143261
0.00148403
0.00153637
0.00158504
0.00162388
0.00163985
0.00161235
0.00151503
0.00124963
0.00054945
0.000646572
0.000724838
0.00074051
0.000723002
0.000676933
0.000627009
0.000582125
0.000542959
0.000508704
0.000478751
0.000452446
0.000428945
0.000407435
0.000386978
0.000366526
0.000358074
0.000332262
0.00155544
0.00319386
0.00283216
0.00324939
0.00362877
0.00402886
0.00442357
0.00476535
0.0050881
0.00547395
0.00590515
0.00632086
0.00661511
0.00661883
0.00581019
0.00146519
0.00120451
0.000986679
0.000555298
0.00127072
0.00181226
0.00223301
0.00236083
0.00175694
0.00149511
0.00131562
0.00118198
0.00107879
0.000994171
0.000918456
0.000848196
0.000779808
0.000720101
0.000666621
0.000831013
0.00045457
0.00194515
0.00446023
0.00320438
0.00416871
0.00453073
0.00475675
0.00489126
0.00498127
0.00511246
0.00537897
0.00580343
0.00637845
0.00700925
0.00743971
0.00731895
0.00600422
0.00470889
0.00115394
0.000899361
0.00149555
0.0020922
0.00267653
0.00282733
0.000910317
0.000798675
0.000706562
0.000632299
0.000572534
0.000524214
0.000485005
0.000453178
0.000428164
0.000472043
0.000540314
0.000974738
0.000544556
0.00234149
0.00617729
0.00317762
0.00429731
0.00470513
0.0047014
0.00452615
0.0043462
0.00430804
0.00446906
0.00486963
0.00555368
0.0064199
0.0070864
0.00736613
0.00712442
0.00620701
0.00340014
0.00135242
0.00180781
0.00245485
0.00317966
0.00377057
0.00373358
0.00101091
0.000925115
0.00086931
0.000830191
0.00079813
0.000765625
0.000732885
0.000698242
0.00065733
0.000622488
0.000617638
0.00117827
0.000627348
0.00273331
0.00810541
0.00411513
0.00389963
0.00457076
0.00462227
0.00432676
0.00394205
0.00376863
0.00386308
0.00423902
0.00498888
0.00596878
0.00661072
0.00691926
0.00694415
0.00662297
0.00547906
0.00510536
0.00502629
0.0052066
0.00543592
0.00554709
0.00538309
0.00453425
0.00413395
0.00392927
0.00378718
0.00364025
0.00344789
0.00311303
0.00266161
0.00214076
0.00163546
0.00122718
0.00114314
0.00106562
0.000845837
0.000883889
0.000957979
0.00318041
0.00988061
0.00629258
0.00406264
0.00393305
0.0041572
0.0041989
0.0039113
0.00362737
0.00366741
0.00402777
0.00480271
0.00576413
0.00633881
0.00654521
0.00652849
0.00649647
0.00643272
0.00662015
0.00683847
0.00693486
0.00685391
0.00661089
0.0062318
0.00575138
0.00538323
0.00511056
0.00487843
0.00465442
0.00442157
0.00414503
0.00374444
0.00321737
0.00260118
0.00201545
0.00143223
0.00122871
0.00111159
0.00140247
0.000993876
0.00148861
0.00465897
0.00599851
0.00512187
0.00421558
0.00384945
0.00382049
0.0038441
0.00370813
0.00364689
0.00387582
0.00459025
0.00585959
0.00631784
0.00642391
0.00636944
0.00657887
0.00707036
0.00751122
0.00768563
0.007566
0.00721094
0.00670626
0.00613465
0.00559784
0.00519752
0.00491257
0.00468662
0.00448982
0.00431408
0.00416018
0.00399288
0.00365275
0.00315694
0.00263151
0.00210721
0.00178422
0.00165493
0.0015669
0.0011703
0.00116527
0.00236528
0.00340108
0.00412835
0.00441944
0.00430934
0.00408098
0.00390191
0.00371932
0.00367627
0.00408095
0.00495755
0.00612188
0.00645992
0.00649863
0.00654224
0.00701959
0.00744142
0.00762046
0.00750826
0.00712018
0.00653706
0.00587279
0.0052489
0.00476647
0.00444596
0.00423266
0.00407871
0.00396738
0.00390031
0.00388664
0.00392771
0.00393255
0.00364108
0.00336121
0.00321965
0.00331134
0.00344081
0.00420973
0.00178115
0.000328935
0.00157916
0.00253942
0.00313738
0.0033931
0.00344422
0.00349175
0.00384989
0.00470024
0.00564375
0.00637633
0.00661338
0.00669277
0.00678306
0.00690882
0.00691294
0.00674717
0.00637336
0.00582175
0.00519416
0.00461179
0.00415689
0.00384294
0.00363153
0.003477
0.00335259
0.0032469
0.00315405
0.00306848
0.00298398
0.00290551
0.00283905
0.00279714
0.00277642
0.00272106
0.00259309
0.00241952
0.00166882
0.000711359
0.000810176
0.00152516
0.00228197
0.00286104
0.00333816
0.00395979
0.00489471
0.00580919
0.00616939
0.00619995
0.0066099
0.00654596
0.00629386
0.00597485
0.00565801
0.00530649
0.00488833
0.00443602
0.00401563
0.00367495
0.00342177
0.00323721
0.0030974
0.00298559
0.00289388
0.00282029
0.00276662
0.00273788
0.00274049
0.00276629
0.00280063
0.00283649
0.00285466
0.00282911
0.00275309
0.00246006
0.00138691
0.00123991
0.00311798
0.00158058
0.00143392
0.00218771
0.00307608
0.00391088
0.00476963
0.00557167
0.00603562
0.00603199
0.0052773
0.00473135
0.00506808
0.00497479
0.00472551
0.00447596
0.00422636
0.00396247
0.00368695
0.00341999
0.00318236
0.00298419
0.00282598
0.00270475
0.00261844
0.00256646
0.00254772
0.00255843
0.0025906
0.00263998
0.00271783
0.00281515
0.00292153
0.00302174
0.00309862
0.00316178
0.00327552
0.00221654
0.00143822
0.000963781
0.00220968
0.00299016
0.00357366
0.00405361
0.00444243
0.00470312
0.00478203
0.00460046
0.00420674
0.00337325
0.00187296
0.000968782
0.000953611
0.000934229
0.000912098
0.000891404
0.000872448
0.000854379
0.000838509
0.000826635
0.000820039
0.000819295
0.000824513
0.00083562
0.000852534
0.00087524
0.000903888
0.000938981
0.0009817
0.00103313
0.00109192
0.00115835
0.00123209
0.00131227
0.00139864
0.0014465
0.00131679
0.00123145
0.00139165
0.00249234
0.00632667
0.00586535
0.00464485
0.00398045
0.00381936
0.00384898
0.00377889
0.00366144
0.00370929
0.00417712
0.00507471
0.00184132
0.00297446
0.00379878
0.00433955
0.00439635
0.00419424
0.00398389
0.00380838
0.00366169
0.00380723
0.00448262
0.00543268
0.00102717
0.00209906
0.00288624
0.00330084
0.00343404
0.00345242
0.00360996
0.00422473
0.00520014
0.00598789
0.000607009
0.00113577
0.00192016
0.00259448
0.00309931
0.00361514
0.0043988
0.00538982
0.00607563
0.00619363
0.00341533
0.00258297
0.00123706
0.00178967
0.0026494
0.00349335
0.00433669
0.00519159
0.00584847
0.00611644
0.00572628
0.00499782
0.00235117
0.00258949
0.00334529
0.00382143
0.00426381
0.00459045
0.00477182
0.00472267
0.00442796
0.00387361
0.00267567
0.00129494
0.00155775
0.00311524
0.00461987
0.00502298
0.0047013
0.00423559
0.00395536
0.00385797
0.00373312
0.00366318
0.00394353
0.00472707
0.00122884
0.00136061
0.00184456
0.0027412
0.00348471
0.00381374
0.00383691
0.00373708
0.00361698
0.00371023
0.00431799
0.00527171
0.000568862
0.000939807
0.00183871
0.00256903
0.0030046
0.00324257
0.00353491
0.0042277
0.00523567
0.00599282
0.000584729
0.000925381
0.00161522
0.00240205
0.00313557
0.00389289
0.00478016
0.00563667
0.00616566
0.00597756
0.00125047
0.00294323
0.00248617
0.00255751
0.00328596
0.00404563
0.00473551
0.00534963
0.00571013
0.00571755
0.00518744
0.00393638
0.00114526
0.00105362
0.00111601
0.00115809
0.00115059
0.00109912
0.00100993
0.000885519
0.000750144
0.000633626
0.000518072
0.000450891
0.00215219
0.00412966
0.00496231
0.00491998
0.00445605
0.0040647
0.00389386
0.00380118
0.00367604
0.00373997
0.00428384
0.00521454
0.0012598
0.00138308
0.00228467
0.00316047
0.00369896
0.00385094
0.00379411
0.00367207
0.00361355
0.00394429
0.0047856
0.00570376
0.000563412
0.00138959
0.00223984
0.00282106
0.00313709
0.00335593
0.00382203
0.00472208
0.00567914
0.00618604
0.000659601
0.00124485
0.00201035
0.00277557
0.0035003
0.00432721
0.00522696
0.00596952
0.00616116
0.00581927
0.00328937
0.00285136
0.00237814
0.00290706
0.00367915
0.00439736
0.00505925
0.0055653
0.00576582
0.00555112
0.00460423
0.00360301
0.00102575
0.00108887
0.00113983
0.00116097
0.00112966
0.00105925
0.000951409
0.000816693
0.000689741
0.00057696
0.000468531
0.000461738
)
;

boundaryField
{
    floor
    {
        type            compressible::alphatWallFunction;
        Prt             0.85;
        value           nonuniform List<scalar> 
36
(
0.000176937
7.67302e-05
9.12761e-05
0.000102803
0.000105094
0.000102535
9.57675e-05
8.83696e-05
8.1657e-05
7.57471e-05
7.0535e-05
6.59412e-05
6.18771e-05
5.8221e-05
5.4852e-05
5.16268e-05
4.83803e-05
4.7032e-05
4.28886e-05
4.28879e-05
6.22067e-05
7.59895e-05
8.84208e-05
0.000120346
0.0001258
0.000136336
0.000176935
0.000206252
0.00017073
0.000140372
7.67292e-05
0.00014037
7.7614e-05
0.000163743
0.000127995
0.000190983
)
;
    }
    ceiling
    {
        type            compressible::alphatWallFunction;
        Prt             0.85;
        value           nonuniform List<scalar> 
58
(
0.000145929
0.000154763
0.000161853
0.000164792
0.000160466
0.000150667
0.000135502
0.000116263
9.77799e-05
8.10081e-05
6.44911e-05
6.34418e-05
0.000137984
0.000135838
0.000133091
0.000129945
0.000126995
0.000124286
0.000121697
0.000119417
0.000117709
0.000116758
0.00011665
0.000117402
0.000119001
0.000121431
0.000124684
0.000128775
0.000133765
0.00013981
0.000147047
0.00015527
0.000164499
0.000174674
0.000185658
0.000197407
0.000203882
0.000186277
0.00017459
0.000196469
0.00017859
0.000195376
8.19177e-05
0.000137203
0.000149838
0.000158544
0.000164388
0.000163361
0.000156225
0.000143756
0.000126136
0.000106621
8.94813e-05
7.20915e-05
6.17606e-05
0.000165607
0.00019233
0.000100747
)
;
    }
    sWall
    {
        type            compressible::alphatWallFunction;
        Prt             0.85;
        value           nonuniform List<scalar> 4(0.000176505 0.000162 0.000175055 0.000136616);
    }
    nWall
    {
        type            compressible::alphatWallFunction;
        Prt             0.85;
        value           nonuniform List<scalar> 6(0.000136109 0.000141173 0.000165787 0.000195469 0.000202411 0.000196117);
    }
    sideWalls
    {
        type            empty;
    }
    glass1
    {
        type            compressible::alphatWallFunction;
        Prt             0.85;
        value           nonuniform List<scalar> 10(0.000154961 0.000213211 0.000264129 0.000314893 0.000364262 0.000419739 0.00021531 0.000172006 0.000206367 0.000163266);
    }
    glass2
    {
        type            compressible::alphatWallFunction;
        Prt             0.85;
        value           nonuniform List<scalar> 2(0.000246438 0.000231724);
    }
    sun
    {
        type            compressible::alphatWallFunction;
        Prt             0.85;
        value           nonuniform List<scalar> 
14
(
0.00015926
0.000171235
0.00017335
0.000181125
0.000188359
0.000195169
0.000201857
0.000208793
0.000215825
0.00022234
0.000227523
0.000229649
0.000225984
0.000212958
)
;
    }
    Table_master
    {
        type            compressible::alphatWallFunction;
        Prt             0.85;
        value           nonuniform List<scalar> 9(0.000129718 0.000113698 0.000100279 8.93065e-05 8.03609e-05 7.30438e-05 6.70444e-05 6.21294e-05 5.82357e-05);
    }
    Table_slave
    {
        type            compressible::alphatWallFunction;
        Prt             0.85;
        value           nonuniform List<scalar> 9(0.000143956 0.000131826 0.000123865 0.000118249 0.000113622 0.000108909 0.000104137 9.90597e-05 9.3024e-05);
    }
    inlet
    {
        type            fixedValue;
        value           uniform 1.94e-05;
    }
    outlet
    {
        type            zeroGradient;
    }
}


// ************************************************************************* //
