/*--------------------------------*- C++ -*----------------------------------*\
  =========                 |
  \\      /  F ield         | OpenFOAM: The Open Source CFD Toolbox
   \\    /   O peration     | Website:  https://openfoam.org
    \\  /    A nd           | Version:  6
     \\/     M anipulation  |
\*---------------------------------------------------------------------------*/
FoamFile
{
    version     2.0;
    format      ascii;
    class       volScalarField;
    location    "2000";
    object      alphat;
}
// * * * * * * * * * * * * * * * * * * * * * * * * * * * * * * * * * * * * * //

dimensions      [1 -1 -1 0 0 0 0];

internalField   nonuniform List<scalar> 
778
(
0.0010509
0.00112265
0.00112052
0.00116947
0.00121426
0.00125493
0.00129281
0.00132935
0.00136617
0.00140534
0.00144261
0.00147802
0.00151287
0.00155029
0.00158931
0.000748358
0.0010613
0.00107249
0.00104703
0.00100372
0.000946053
0.000888696
0.000835883
0.000788253
0.000745519
0.000707335
0.000673062
0.000641853
0.000612724
0.000584356
0.000554613
0.00052931
0.000478682
0.0015319
0.00304662
0.00268103
0.00308951
0.00339319
0.00371533
0.00403694
0.00433376
0.00457325
0.00471329
0.00479829
0.00476983
0.00453637
0.00394887
0.00288067
0.00174069
0.00165694
0.00158324
0.00131645
0.00223589
0.00309296
0.00360096
0.00363188
0.00287947
0.002467
0.00217996
0.00196185
0.0017884
0.00164216
0.00151239
0.00139115
0.00127221
0.00116536
0.00107298
0.00120217
0.000604583
0.00193883
0.00424027
0.00317688
0.00450919
0.00503968
0.00549114
0.0059007
0.00626062
0.0065653
0.00680434
0.00704033
0.00729249
0.00752973
0.00768275
0.00762155
0.00700882
0.00514589
0.00194644
0.00167173
0.00348666
0.00486186
0.00554048
0.00508111
0.00136619
0.00119118
0.00105533
0.000948519
0.000863191
0.000794063
0.000737533
0.000691436
0.000655357
0.000719311
0.000845151
0.00132618
0.000686141
0.00233102
0.00569001
0.00304097
0.00506762
0.00584025
0.0062581
0.00656399
0.00678815
0.0069539
0.00708809
0.00728658
0.00762558
0.00812244
0.00875068
0.0093911
0.00973604
0.00921531
0.00701797
0.00192686
0.0042941
0.00642608
0.00755888
0.0078782
0.00678302
0.00155599
0.00141848
0.00131132
0.00122196
0.0011455
0.00107661
0.00101148
0.000946637
0.000876394
0.000817366
0.000844092
0.00142917
0.000753959
0.00271782
0.00751234
0.00305526
0.00482257
0.00600057
0.00635141
0.00647524
0.00647257
0.00639984
0.00633675
0.00642045
0.0067493
0.00735085
0.00820044
0.00918224
0.0100905
0.0106581
0.0106356
0.00949776
0.00960447
0.00980451
0.0098395
0.00965523
0.00906496
0.00725071
0.00627728
0.00560736
0.0050562
0.00451638
0.00399351
0.0034816
0.00296981
0.00244322
0.00187547
0.0014288
0.00142585
0.00111534
0.000892433
0.00118014
0.00113143
0.00309898
0.00955837
0.0035795
0.00407355
0.00574559
0.00613135
0.00609338
0.00586465
0.00554088
0.00527679
0.00527656
0.00562417
0.00630884
0.00728929
0.00842236
0.00956013
0.0104966
0.0110902
0.0111844
0.0110595
0.0108597
0.0105869
0.0102411
0.00980355
0.00916164
0.00853877
0.00796844
0.00740723
0.00679752
0.0061433
0.00544221
0.00468917
0.00388022
0.00302196
0.00224581
0.00169377
0.00130819
0.0014554
0.00253464
0.00135578
0.00348869
0.0114569
0.00475776
0.00334052
0.00516263
0.00579687
0.00572163
0.00535993
0.00483511
0.0043806
0.00438193
0.00482147
0.00560396
0.00669977
0.00791821
0.00912475
0.0101537
0.0108826
0.0112125
0.0111817
0.0109395
0.0105778
0.0101674
0.00976147
0.00937145
0.00901353
0.00867327
0.00829945
0.00784035
0.00728195
0.00661728
0.0058448
0.00496907
0.00401359
0.00308235
0.00223356
0.00164549
0.00146799
0.00259631
0.0016012
0.00382388
0.0128938
0.00647771
0.00317936
0.00408824
0.00512715
0.00527548
0.00498099
0.00432653
0.00376592
0.00393088
0.00450658
0.00537502
0.00649382
0.00776743
0.00902873
0.0100953
0.010828
0.0111543
0.0111041
0.010791
0.0103362
0.00985307
0.00943118
0.00911265
0.0088893
0.00871291
0.00850883
0.00821352
0.00779408
0.00723652
0.00653973
0.00571203
0.00477905
0.00381322
0.00285527
0.00199901
0.00135537
0.00372953
0.00210253
0.00392577
0.0121867
0.00798022
0.00408899
0.00278251
0.00335976
0.00392893
0.0039838
0.00352213
0.00346435
0.00384602
0.00452047
0.00546094
0.00664913
0.00798524
0.00928432
0.0103439
0.0110152
0.0112404
0.0110647
0.0106088
0.0100221
0.00945053
0.00900645
0.00873705
0.00861511
0.00856231
0.00848184
0.00830281
0.00798904
0.00752757
0.00691874
0.00617144
0.00530633
0.00436362
0.00332518
0.00192411
0.00174099
0.0057647
0.00240825
0.00384698
0.00981817
0.00822739
0.00558684
0.00371262
0.00288467
0.00272592
0.00284672
0.00310034
0.00349505
0.00404662
0.00480372
0.00582976
0.00711393
0.00852311
0.00983733
0.0108348
0.0113688
0.0114043
0.0110162
0.0103575
0.00961606
0.00897215
0.00855183
0.00838097
0.00838355
0.00843742
0.00842375
0.00829317
0.00802822
0.00762324
0.00707868
0.00639922
0.00559259
0.00464617
0.00329669
0.00142544
0.0034037
0.00533933
0.00243548
0.00360408
0.00838634
0.00794804
0.00638019
0.00492992
0.00398657
0.00352263
0.00342487
0.00362775
0.00399436
0.00453206
0.00533599
0.00647436
0.0078841
0.00936183
0.0106397
0.0114852
0.0117745
0.0115155
0.0108328
0.00993267
0.00905691
0.00842207
0.00813866
0.00814394
0.00827236
0.00837497
0.00834904
0.00820584
0.00794614
0.00756522
0.00705771
0.00641595
0.00562391
0.00460755
0.00304108
0.00148202
0.003688
0.00554401
0.00243139
0.00328176
0.00755732
0.00766176
0.00674507
0.00575384
0.00500957
0.00457537
0.00443167
0.00447365
0.00469968
0.0052054
0.00611467
0.00743497
0.00899291
0.0104911
0.0116222
0.0121719
0.0120718
0.0114023
0.0103625
0.00923719
0.0083393
0.00788387
0.00783338
0.00795468
0.00809888
0.00816803
0.00810607
0.00794313
0.0076822
0.007315
0.00682402
0.00616721
0.0052946
0.00410399
0.00260701
0.00175082
0.00374313
0.00598146
0.00251424
0.00299208
0.00675556
0.0073094
0.00688284
0.00624993
0.00571914
0.00536833
0.00519652
0.00515266
0.0053643
0.00602292
0.00721578
0.00880703
0.0104779
0.0118538
0.0126364
0.0126848
0.0120287
0.010857
0.00947397
0.00827139
0.0075539
0.00728386
0.00729713
0.00741912
0.00753816
0.00758291
0.00751353
0.00734471
0.0070802
0.00670386
0.00617283
0.00539788
0.00428076
0.00294206
0.00202309
0.00213924
0.00417698
0.00596195
0.00264087
0.00300256
0.00670364
0.00746496
0.00695812
0.00644458
0.00602495
0.00572306
0.00552569
0.00554359
0.00605124
0.00720079
0.00887055
0.01071
0.0122881
0.0132409
0.0133717
0.0126867
0.011347
0.00969875
0.0081781
0.0071205
0.00654074
0.0063063
0.00628887
0.00637298
0.00646134
0.00648657
0.00641412
0.00622981
0.00594334
0.00552284
0.00488338
0.00391211
0.00273726
0.00196546
0.00197862
0.00273611
0.0046746
0.00629724
0.0026116
0.00270841
0.0028169
0.00416042
0.00489206
0.00511967
0.00512563
0.00508144
0.00520965
0.00591034
0.00733744
0.00929219
0.0113535
0.0130653
0.0140598
0.01414
0.0132955
0.0117464
0.00978764
0.00798689
0.00662324
0.00574094
0.0052644
0.00507406
0.00503978
0.00505819
0.00505738
0.00499677
0.00486569
0.00463558
0.0043295
0.00392868
0.00337775
0.00266659
0.00204994
0.00192635
0.00239621
0.00335194
0.0046443
0.00552467
0.0024526
0.000957693
0.00172157
0.00263918
0.00338916
0.00429603
0.00587098
0.00811747
0.010559
0.0127389
0.0143192
0.0150713
0.0148582
0.0137177
0.0117913
0.00960276
0.00759064
0.00603937
0.00503169
0.00450075
0.0042613
0.00415454
0.0040865
0.00400456
0.0038821
0.00371562
0.00352021
0.0033181
0.00310666
0.00289427
0.00266193
0.00240266
0.00220532
0.00228849
0.00281783
0.00373408
0.00472988
0.00518904
0.00234422
0.00179018
0.00248057
0.00363742
0.00573191
0.00853925
0.011253
0.0133405
0.0148231
0.0156845
0.0158488
0.0151888
0.0136101
0.0114002
0.00899565
0.00686627
0.00532816
0.00446458
0.00407645
0.00392065
0.00385231
0.00380301
0.00374057
0.00365273
0.00354254
0.00342372
0.00331217
0.00321689
0.00313526
0.00306368
0.00299834
0.00294287
0.00292934
0.00305123
0.0034651
0.00428274
0.00542782
0.00638206
0.00246604
0.00324558
0.00795685
0.00738242
0.00662747
0.00841407
0.0111855
0.0134684
0.014957
0.0157008
0.0158392
0.0154423
0.0144483
0.012812
0.0106177
0.00822034
0.0061677
0.00486997
0.00426718
0.00405222
0.00399707
0.00399279
0.00399062
0.00396939
0.00392403
0.00386026
0.00378929
0.00372272
0.00366963
0.00363676
0.0036296
0.00365085
0.00370424
0.00379376
0.00394039
0.00420283
0.00466784
0.00548366
0.00703898
0.00722816
0.0026548
0.00309804
0.00600725
0.00774764
0.00994587
0.0110639
0.0121679
0.0127747
0.0128733
0.0125679
0.0119235
0.0109536
0.00965422
0.00807711
0.00643823
0.00506975
0.0042208
0.00382054
0.00368414
0.00367766
0.00372689
0.00378925
0.00383951
0.00386551
0.00386582
0.00384592
0.00381375
0.0037774
0.00374657
0.00373629
0.00376862
0.00386977
0.00406228
0.00435064
0.00471879
0.00513347
0.00568347
0.0064814
0.00780634
0.00773925
0.00275492
0.00289387
0.00247809
0.00246423
0.00253594
0.00259321
0.00251302
0.00235827
0.00217852
0.0019979
0.00182394
0.00165818
0.00150472
0.0013748
0.00128324
0.00123625
0.00122016
0.00122247
0.00123387
0.0012491
0.00126542
0.00128156
0.0012972
0.00131281
0.00132952
0.00134904
0.00137362
0.00140604
0.00144952
0.00150709
0.0015804
0.00166861
0.00176851
0.00187649
0.00199154
0.00211465
0.0022419
0.00237302
0.00251245
0.00265474
0.00253395
)
;

boundaryField
{
    floor
    {
        type            compressible::alphatWallFunction;
        Prt             0.85;
        value           nonuniform List<scalar> 
36
(
0.000222822
0.000106164
0.000150766
0.000152328
0.000148768
0.000142688
0.000134545
0.000126388
0.000118822
0.00011195
0.000105742
0.00010016
9.51178e-05
9.04997e-05
8.61648e-05
8.19187e-05
7.74394e-05
7.36058e-05
6.5866e-05
6.58652e-05
8.49495e-05
9.70461e-05
0.000106972
0.000126923
0.000167302
0.000160552
0.000222819
0.000242938
0.00023183
0.000222005
0.000106163
0.000222002
0.000185989
0.000269975
0.00023379
0.000267417
)
;
    }
    ceiling
    {
        type            compressible::alphatWallFunction;
        Prt             0.85;
        value           nonuniform List<scalar> 
43
(
0.000391074
0.000338579
0.00033682
0.000345949
0.000353231
0.000343086
0.000323379
0.000300305
0.000276907
0.000254152
0.000232245
0.00021174
0.000194185
0.000181689
0.000175231
0.000173007
0.00017332
0.000174888
0.000176985
0.000179233
0.000181452
0.000183598
0.000185734
0.00018801
0.000190657
0.000193974
0.000198333
0.000204159
0.000211852
0.000221625
0.000233353
0.000246593
0.00026084
0.000275928
0.000291991
0.000308499
0.00032539
0.000343225
0.000361275
0.000345835
0.000368085
0.000381724
0.000248985
)
;
    }
    sWall
    {
        type            compressible::alphatWallFunction;
        Prt             0.85;
        value           nonuniform List<scalar> 9(0.000507302 0.000477669 0.000438032 0.000402073 0.000403371 0.000366511 0.000432928 0.000414686 0.000389325);
    }
    nWall
    {
        type            compressible::alphatWallFunction;
        Prt             0.85;
        value           nonuniform List<scalar> 
14
(
0.000160104
0.000190892
0.000223939
0.000332657
0.000332219
0.000343051
0.000358911
0.000354705
0.000334489
0.000320829
0.000337048
0.000360429
0.000372976
0.000345141
)
;
    }
    sideWalls
    {
        type            empty;
    }
    glass1
    {
        type            compressible::alphatWallFunction;
        Prt             0.85;
        value           nonuniform List<scalar> 9(0.000145291 0.000210091 0.000263297 0.000313544 0.000362305 0.00040971 0.000457594 0.00049839 0.000510837);
    }
    glass2
    {
        type            compressible::alphatWallFunction;
        Prt             0.85;
        value           nonuniform List<scalar> 2(0.000287647 0.000326807);
    }
    sun
    {
        type            compressible::alphatWallFunction;
        Prt             0.85;
        value           nonuniform List<scalar> 
14
(
0.000149349
0.000159329
0.000159032
0.000165817
0.000171997
0.000177587
0.000182774
0.000187761
0.00019277
0.000198083
0.000203124
0.000207898
0.000212584
0.000217602
)
;
    }
    Table_master
    {
        type            compressible::alphatWallFunction;
        Prt             0.85;
        value           nonuniform List<scalar> 9(0.000193028 0.000169063 0.000150185 0.000135143 0.000122984 0.00011303 0.000104812 9.80552e-05 9.27284e-05);
    }
    Table_slave
    {
        type            compressible::alphatWallFunction;
        Prt             0.85;
        value           nonuniform List<scalar> 9(0.000218635 0.000200123 0.000185558 0.00017331 0.000162748 0.000153162 0.000144036 0.000134879 0.000124877);
    }
    inlet
    {
        type            fixedValue;
        value           uniform 1.94e-05;
    }
    outlet
    {
        type            zeroGradient;
    }
}


// ************************************************************************* //
