/*--------------------------------*- C++ -*----------------------------------*\
  =========                 |
  \\      /  F ield         | OpenFOAM: The Open Source CFD Toolbox
   \\    /   O peration     | Website:  https://openfoam.org
    \\  /    A nd           | Version:  6
     \\/     M anipulation  |
\*---------------------------------------------------------------------------*/
FoamFile
{
    version     2.0;
    format      ascii;
    class       volScalarField;
    location    "29099.9999982757399";
    object      epsilon;
}
// * * * * * * * * * * * * * * * * * * * * * * * * * * * * * * * * * * * * * //

dimensions      [0 2 -3 0 0 0 0];

internalField   nonuniform List<scalar> 
778
(
0.000253107
0.00030633
0.000302991
0.000344181
0.000385074
0.000424919
0.00046441
0.000504733
0.000547622
0.000595795
0.000644289
0.000692711
0.000742706
0.000799072
0.000860837
8.95111e-05
0.000262496
0.000268953
0.00024992
0.000220112
0.000184117
0.000152365
0.00012654
0.000105912
8.94417e-05
7.62912e-05
6.56397e-05
5.68448e-05
4.93795e-05
4.2771e-05
3.65208e-05
3.18191e-05
2.36007e-05
0.000796958
0.00144314
0.000287
0.000259625
0.000261739
0.000267726
0.000276639
0.000290088
0.000310369
0.000340607
0.000379862
0.000431024
0.000499456
0.000600712
0.000785908
0.00112964
0.000979042
0.000858612
0.000511631
0.000369303
0.000294072
0.000242783
0.000203993
0.000186864
0.000154705
0.000125017
0.000100705
8.14895e-05
6.65234e-05
5.48176e-05
4.56269e-05
3.87039e-05
3.45131e-05
3.27525e-05
6.57618e-05
4.80698e-05
0.00163053
0.00407877
0.00040738
0.000242963
0.000229151
0.000231074
0.0002383
0.000250582
0.000268505
0.000292797
0.000324943
0.000367024
0.000421412
0.000495113
0.000601489
0.000724763
0.000830027
0.00158408
0.00102803
0.000512251
0.000367634
0.000294227
0.000262042
0.000551046
0.000362327
0.00025057
0.000181238
0.000136238
0.000105886
8.47571e-05
6.98034e-05
5.94483e-05
4.51205e-05
3.79669e-05
0.000108141
7.07391e-05
0.00285331
0.00876955
0.000709794
0.000240751
0.000202519
0.000200062
0.000203242
0.000209877
0.000220704
0.000237634
0.000263335
0.000300084
0.000349282
0.000412381
0.000488017
0.000560186
0.000612498
0.000824771
0.0015654
0.000728747
0.000459697
0.000358256
0.000301897
0.000291812
0.000813909
0.000612384
0.00048159
0.000388241
0.000318915
0.000264157
0.000218628
0.000178905
0.000141748
8.37114e-05
5.48369e-05
0.000148563
9.43533e-05
0.0045456
0.0158256
0.00134608
0.000258348
0.00017576
0.000166826
0.00016584
0.000167822
0.00017399
0.000187503
0.000211753
0.000248429
0.000297814
0.000359297
0.000427701
0.000489039
0.000528508
0.00058258
0.000627848
0.000483336
0.000393582
0.000331087
0.000282322
0.000248628
0.000247826
0.000226759
0.000202921
0.000181068
0.0001627
0.000146541
0.000131865
0.000118258
0.000105078
8.44521e-05
6.41414e-05
0.000105097
0.000138707
0.000159921
0.000369218
0.000321575
0.00676289
0.0248756
0.0025528
0.000318036
0.00015555
0.000137088
0.000132155
0.000130726
0.000134496
0.000148588
0.000176738
0.000218087
0.000270754
0.000333965
0.000401502
0.000462354
0.000502831
0.000521686
0.000504934
0.000438392
0.000373933
0.000315719
0.000264774
0.000223393
0.000193287
0.000169628
0.000150818
0.000135644
0.000123319
0.000112773
0.000103308
9.45273e-05
8.60617e-05
7.58777e-05
6.53137e-05
7.75211e-05
9.95848e-05
0.000211982
0.00108163
0.000549303
0.00967084
0.0336343
0.00458235
0.000464861
0.000150835
0.000116353
0.000107107
0.000103309
0.000107108
0.000127942
0.000166139
0.000215852
0.000273174
0.000339753
0.000408931
0.000470038
0.000509861
0.000520311
0.000494323
0.00043769
0.0003719
0.000307512
0.000250557
0.000204434
0.000169742
0.000144555
0.000126332
0.000112753
0.000102307
9.37419e-05
8.62421e-05
7.93428e-05
7.27713e-05
6.61075e-05
6.03274e-05
6.36824e-05
7.66211e-05
0.00017554
0.00161685
0.000902077
0.0127573
0.0404046
0.00748794
0.000870881
0.000194216
0.000115374
9.74007e-05
9.14878e-05
9.86751e-05
0.000137762
0.000189314
0.000246202
0.000306838
0.000373428
0.000444233
0.000507498
0.000546958
0.000550698
0.000515612
0.000451526
0.00037548
0.00030091
0.000236427
0.000185924
0.000149292
0.000123974
0.000106716
9.45849e-05
8.57664e-05
7.88464e-05
7.29381e-05
6.75549e-05
6.24678e-05
5.76538e-05
5.39956e-05
5.56671e-05
6.97959e-05
0.000357039
0.00578925
0.00204205
0.0138266
0.0414625
0.0139286
0.00316076
0.000629141
0.000207853
0.000132676
0.000116041
0.000142527
0.000193023
0.000249354
0.000306365
0.000367085
0.000436123
0.000510383
0.00057503
0.000610363
0.000602823
0.000551958
0.000470804
0.00037831
0.000290727
0.000218102
0.000163923
0.000126729
0.000102593
8.72891e-05
7.7355e-05
7.06932e-05
6.57159e-05
6.15256e-05
5.7681e-05
5.40188e-05
5.06515e-05
4.84618e-05
5.18703e-05
9.25998e-05
0.001033
0.0149495
0.00292569
0.0130047
0.028376
0.0144142
0.00572348
0.00210238
0.00083386
0.000413533
0.000276947
0.000279146
0.000314756
0.000356192
0.000401655
0.000458254
0.000530252
0.000609136
0.000673143
0.000698039
0.00067019
0.000593487
0.000486353
0.000372257
0.000270322
0.000190877
0.000135611
0.000100618
7.98603e-05
6.79648e-05
6.11917e-05
5.71239e-05
5.41951e-05
5.16569e-05
4.92066e-05
4.68006e-05
4.47226e-05
4.4376e-05
5.43947e-05
0.000174105
0.00241495
0.0125596
0.00316754
0.0106909
0.0193616
0.012039
0.0062987
0.00317304
0.00167384
0.000986332
0.000678927
0.000560103
0.000517479
0.000510498
0.000531333
0.000583244
0.000661961
0.000746487
0.000804171
0.000806655
0.000743654
0.000627585
0.000485455
0.000346854
0.000232953
0.000152136
0.000101632
7.35158e-05
5.87886e-05
5.13226e-05
4.79199e-05
4.61292e-05
4.48172e-05
4.35131e-05
4.20776e-05
4.0625e-05
3.98566e-05
4.31507e-05
7.25563e-05
0.000311423
0.00240526
0.0103372
0.00318138
0.00807385
0.0137722
0.00969256
0.0059327
0.00356887
0.00222679
0.00149029
0.00109258
0.00086915
0.000743567
0.000685885
0.000689892
0.000749939
0.000843814
0.000931238
0.000967678
0.000925665
0.000805353
0.000634365
0.000451233
0.00029194
0.000176603
0.000106698
6.9323e-05
5.24174e-05
4.43001e-05
4.0482e-05
3.90828e-05
3.84986e-05
3.80463e-05
3.74381e-05
3.66235e-05
3.59009e-05
3.69626e-05
4.96013e-05
0.000150374
0.000665809
0.00257354
0.00800639
0.00296731
0.00612416
0.0101661
0.00779025
0.005312
0.00356979
0.00246878
0.00178766
0.00136805
0.00109289
0.000926065
0.000859158
0.000886244
0.000981888
0.00109633
0.00116865
0.00114993
0.00102729
0.000822153
0.00058576
0.000367489
0.000207226
0.000114037
7.19311e-05
5.22071e-05
4.27715e-05
3.79716e-05
3.56181e-05
3.47844e-05
3.44975e-05
3.43218e-05
3.40703e-05
3.37914e-05
3.42408e-05
3.98482e-05
7.7506e-05
0.000281657
0.000993818
0.00274274
0.00591474
0.00264988
0.00617888
0.00781003
0.00680258
0.00473858
0.00336501
0.00246192
0.00186541
0.00146214
0.00119454
0.00106459
0.00107006
0.00117937
0.00132794
0.00143631
0.00143795
0.00130153
0.00105314
0.000743292
0.000456259
0.000237781
0.000130848
8.19231e-05
6.02085e-05
4.93587e-05
4.30734e-05
3.90776e-05
3.66502e-05
3.55507e-05
3.51387e-05
3.51143e-05
3.53819e-05
3.6115e-05
3.85066e-05
4.88104e-05
9.80004e-05
0.000309145
0.00097669
0.00254121
0.005509
0.00251233
0.00454393
0.00511295
0.0041848
0.00336179
0.0026398
0.00207017
0.00164908
0.00136195
0.00124502
0.00130042
0.00147728
0.00168484
0.00182203
0.00181508
0.00163823
0.00130577
0.000913828
0.000521181
0.000279577
0.000155907
0.000102968
8.0186e-05
6.85339e-05
6.0752e-05
5.46054e-05
4.96621e-05
4.61409e-05
4.44188e-05
4.41414e-05
4.51206e-05
4.74275e-05
5.13725e-05
5.8183e-05
7.33628e-05
0.000119567
0.000277107
0.000767878
0.00205937
0.00475354
0.00307891
0.00140109
0.00143153
0.00143402
0.00135502
0.0013128
0.00142428
0.00170842
0.00204261
0.00230397
0.00240155
0.00228766
0.00197842
0.00153519
0.000986137
0.000573596
0.000315639
0.000190281
0.000138117
0.00011682
0.000105769
9.76112e-05
9.00927e-05
8.28408e-05
7.63656e-05
7.17229e-05
7.01522e-05
7.19956e-05
7.74804e-05
8.71202e-05
0.00010137
0.000121076
0.00015014
0.00020361
0.000329075
0.000673812
0.00204948
0.00376358
0.00331854
0.00118791
0.00171867
0.00195638
0.00231293
0.00276071
0.00316477
0.00334233
0.00330603
0.00308106
0.00269017
0.00212398
0.0015091
0.000978121
0.000578646
0.00034775
0.000239095
0.000195787
0.000178137
0.000168681
0.000161383
0.000154349
0.00014704
0.000139715
0.000133461
0.000130119
0.000131909
0.000140025
0.000155971
0.000181378
0.000217627
0.000266403
0.000332232
0.000428963
0.000595689
0.000955478
0.00230994
0.00360692
0.00350657
0.00741702
0.00804926
0.00480615
0.00340813
0.0037455
0.00415689
0.00416899
0.00395564
0.00359575
0.00313776
0.00262968
0.00208716
0.00154021
0.00105901
0.000699858
0.000477521
0.000368552
0.000322332
0.000301831
0.000290711
0.000283629
0.000278582
0.000274237
0.00026951
0.00026407
0.000259059
0.000257389
0.000262281
0.000275886
0.000301149
0.000341226
0.000399909
0.000482325
0.000597364
0.000763904
0.00102615
0.00149978
0.00257741
0.00433876
0.00307621
0.00650376
0.00512746
0.00437297
0.00462768
0.00455132
0.00428414
0.00370242
0.00305408
0.00246631
0.0019718
0.00156776
0.00124463
0.00099404
0.000812269
0.000691245
0.000611336
0.000554918
0.000515893
0.000490386
0.000476702
0.000473725
0.000479865
0.000492768
0.000509587
0.000527598
0.000544945
0.000561191
0.000578088
0.000601182
0.00063551
0.000686125
0.00075928
0.00086435
0.00101806
0.00125281
0.00162506
0.00222099
0.0033567
0.00546984
0.00291341
0.00536072
0.00337022
0.00332095
0.00361918
0.00387933
0.0035428
0.00294532
0.00233963
0.00182577
0.00141704
0.00109773
0.000851608
0.000669331
0.000545008
0.000470774
0.000436513
0.000426282
0.000429114
0.000442091
0.000463682
0.000492231
0.000525645
0.000561712
0.0005986
0.000635271
0.000671779
0.000709406
0.00074984
0.000795436
0.000849338
0.000914079
0.00099175
0.00108472
0.00119762
0.00134257
0.00154855
0.00186316
0.00232894
0.00294341
0.00254854
)
;

boundaryField
{
    floor
    {
        Cmu             0.09;
        kappa           0.41;
        E               9.8;
        type            epsilonWallFunction;
        value           nonuniform List<scalar> 
36
(
0.000860837
8.95111e-05
0.000262496
0.000268953
0.00024992
0.000220112
0.000184117
0.000152365
0.00012654
0.000105912
8.94417e-05
7.62912e-05
6.56397e-05
5.68448e-05
4.93795e-05
4.2771e-05
3.65208e-05
3.18191e-05
2.36007e-05
2.36007e-05
4.80698e-05
7.07391e-05
9.43533e-05
0.000159921
0.000369218
0.000321575
0.000860837
0.00112964
0.000979042
0.000858612
8.95111e-05
0.000858612
0.000511631
0.00158408
0.00102803
0.0015654
)
;
    }
    ceiling
    {
        Cmu             0.09;
        kappa           0.41;
        E               9.8;
        type            epsilonWallFunction;
        value           nonuniform List<scalar> 
43
(
0.00536072
0.00337022
0.00332095
0.00361918
0.00387933
0.0035428
0.00294532
0.00233963
0.00182577
0.00141704
0.00109773
0.000851608
0.000669331
0.000545008
0.000470774
0.000436513
0.000426282
0.000429114
0.000442091
0.000463682
0.000492231
0.000525645
0.000561712
0.0005986
0.000635271
0.000671779
0.000709406
0.00074984
0.000795436
0.000849338
0.000914079
0.00099175
0.00108472
0.00119762
0.00134257
0.00154855
0.00186316
0.00232894
0.00294341
0.00254854
0.00454393
0.00511295
0.00118791
)
;
    }
    sWall
    {
        Cmu             0.09;
        kappa           0.41;
        E               9.8;
        type            epsilonWallFunction;
        value           nonuniform List<scalar> 9(0.0130047 0.0106909 0.00807385 0.00612416 0.00617888 0.00454393 0.00741702 0.00650376 0.00536072);
    }
    nWall
    {
        Cmu             0.09;
        kappa           0.41;
        E               9.8;
        type            epsilonWallFunction;
        value           nonuniform List<scalar> 
14
(
0.000321575
0.000549303
0.000902077
0.00316754
0.00318138
0.00296731
0.00264988
0.00251233
0.00307891
0.00331854
0.00350657
0.00307621
0.00291341
0.00254854
)
;
    }
    sideWalls
    {
        type            empty;
    }
    glass1
    {
        Cmu             0.09;
        kappa           0.41;
        E               9.8;
        type            epsilonWallFunction;
        value           nonuniform List<scalar> 9(0.000253107 0.000796958 0.00163053 0.00285331 0.0045456 0.00676289 0.00967084 0.0127573 0.0138266);
    }
    glass2
    {
        Cmu             0.09;
        kappa           0.41;
        E               9.8;
        type            epsilonWallFunction;
        value           nonuniform List<scalar> 2(0.00204205 0.00292569);
    }
    sun
    {
        Cmu             0.09;
        kappa           0.41;
        E               9.8;
        type            epsilonWallFunction;
        value           nonuniform List<scalar> 
14
(
0.000253107
0.00030633
0.000302991
0.000344181
0.000385074
0.000424919
0.00046441
0.000504733
0.000547622
0.000595795
0.000644289
0.000692711
0.000742706
0.000799072
)
;
    }
    Table_master
    {
        Cmu             0.09;
        kappa           0.41;
        E               9.8;
        type            epsilonWallFunction;
        value           nonuniform List<scalar> 9(0.000551046 0.000362327 0.00025057 0.000181238 0.000136238 0.000105886 8.47571e-05 6.98034e-05 5.94483e-05);
    }
    Table_slave
    {
        Cmu             0.09;
        kappa           0.41;
        E               9.8;
        type            epsilonWallFunction;
        value           nonuniform List<scalar> 9(0.000813909 0.000612384 0.00048159 0.000388241 0.000318915 0.000264157 0.000218628 0.000178905 0.000141748);
    }
    inlet
    {
        type            turbulentMixingLengthDissipationRateInlet;
        mixingLength    0.01;
        phi             phi;
        k               k;
        value           uniform 0.000471671;
    }
    outlet
    {
        type            zeroGradient;
    }
}


// ************************************************************************* //
