/*--------------------------------*- C++ -*----------------------------------*\
  =========                 |
  \\      /  F ield         | OpenFOAM: The Open Source CFD Toolbox
   \\    /   O peration     | Website:  https://openfoam.org
    \\  /    A nd           | Version:  6
     \\/     M anipulation  |
\*---------------------------------------------------------------------------*/
FoamFile
{
    version     2.0;
    format      ascii;
    class       volScalarField;
    location    "29099.9999982757399";
    object      k;
}
// * * * * * * * * * * * * * * * * * * * * * * * * * * * * * * * * * * * * * //

dimensions      [0 2 -2 0 0 0 0];

internalField   nonuniform List<scalar> 
778
(
0.00158588
0.00180106
0.00178795
0.00194652
0.0020978
0.00224013
0.00237685
0.00251252
0.00265291
0.00280629
0.00295657
0.00310291
0.00325047
0.00341291
0.00358659
0.000793084
0.00162486
0.00165139
0.00157254
0.00144487
0.00128271
0.00113064
0.000998967
0.000887221
0.000792672
0.000712935
0.000644928
0.00058595
0.000533455
0.00048473
0.000436275
0.000397978
0.0003261
0.00340689
0.00643318
0.00268751
0.00274614
0.00288785
0.00305446
0.00323485
0.00343067
0.00364397
0.00387439
0.00412654
0.00438034
0.00459607
0.00470119
0.00459528
0.00429893
0.00390782
0.00358041
0.00253536
0.00281145
0.00295361
0.00289607
0.00266342
0.0022647
0.00190562
0.00160946
0.00136977
0.00117594
0.00101711
0.000885287
0.000774019
0.000681202
0.00061518
0.000574647
0.000864175
0.000523981
0.00549061
0.0127804
0.0034779
0.00321222
0.00329756
0.00345543
0.00363685
0.00384108
0.00407148
0.0043282
0.00463635
0.00501171
0.00545175
0.00596097
0.00653153
0.00685972
0.00627752
0.00538582
0.00403713
0.00416843
0.00417134
0.00397378
0.003576
0.00266394
0.00201434
0.00157526
0.0012693
0.00104938
0.000887073
0.000764746
0.00067192
0.000603707
0.000551505
0.000548688
0.00116523
0.000677913
0.00797322
0.0217568
0.00449091
0.00339084
0.00334164
0.00343823
0.00354964
0.00366917
0.00380947
0.00399189
0.00425982
0.00464924
0.00517196
0.00582576
0.00655488
0.00713421
0.00722769
0.00724201
0.00534341
0.00555077
0.00537603
0.005125
0.00478629
0.00434744
0.00345503
0.00285814
0.00243511
0.00210928
0.00185005
0.0016317
0.00143837
0.00125839
0.00107748
0.000800423
0.000659602
0.00142107
0.000821432
0.0108758
0.0336316
0.00621204
0.00342503
0.00315838
0.00316709
0.00318976
0.0032101
0.00325244
0.00336151
0.00359525
0.00398982
0.0045541
0.00527728
0.00608728
0.00681756
0.00728347
0.00764458
0.0075185
0.00665474
0.00607352
0.00557897
0.00509886
0.00462905
0.0041226
0.00366505
0.00327451
0.00293693
0.00263083
0.00234748
0.00207898
0.00181819
0.00155455
0.00122145
0.000929894
0.00118969
0.00121559
0.00116772
0.00204
0.00186041
0.0141739
0.0475942
0.00928206
0.00348991
0.00290857
0.0028228
0.00276452
0.00269972
0.00266445
0.0027348
0.00298111
0.0034146
0.00402382
0.00479775
0.00565345
0.00646048
0.00706849
0.00740739
0.00732421
0.00679032
0.0062153
0.00563722
0.00507426
0.00455586
0.00409111
0.00369544
0.00336291
0.0030735
0.00280665
0.00255145
0.00229887
0.00204195
0.0017734
0.00147095
0.00117807
0.00111213
0.00111041
0.00171917
0.00512269
0.00265839
0.0179905
0.0606012
0.0143561
0.00381906
0.00271512
0.00252938
0.00241185
0.00229417
0.00222124
0.00231173
0.00263046
0.00313936
0.00380177
0.00463021
0.00552719
0.00636521
0.00699964
0.00732747
0.00725441
0.00681823
0.00621548
0.00555479
0.00491182
0.00434269
0.00387242
0.00350038
0.00320672
0.00296183
0.00274152
0.00252934
0.00231363
0.00208707
0.00184484
0.00158265
0.00132754
0.00115962
0.0010913
0.00156418
0.00630895
0.00370044
0.0216392
0.0704779
0.0214306
0.00510052
0.0027424
0.00237166
0.00221011
0.00208203
0.0020265
0.00221974
0.00265003
0.00323089
0.00393646
0.00477279
0.00569641
0.00657065
0.00722129
0.00751253
0.00738372
0.00689603
0.00619799
0.00542661
0.00469117
0.00406421
0.00357427
0.00321238
0.00294765
0.00274109
0.00256455
0.00239634
0.00222253
0.00203551
0.00183192
0.00161303
0.00139819
0.00122956
0.00115211
0.00212221
0.0144433
0.0063804
0.0228321
0.0694973
0.0325272
0.0110491
0.00406405
0.00258654
0.00223529
0.00210307
0.00219024
0.00251305
0.00300111
0.0036021
0.00433124
0.0052096
0.00618064
0.00708279
0.00771328
0.00792058
0.00766324
0.00702465
0.00616435
0.00524748
0.00440657
0.00372171
0.00321616
0.00286856
0.00263541
0.00246903
0.00233653
0.00221185
0.00207991
0.00193351
0.0017704
0.00159362
0.00141817
0.00128435
0.00131935
0.00398601
0.0289016
0.00810779
0.021918
0.0516425
0.0336409
0.0174259
0.00858075
0.0047554
0.00325975
0.00272991
0.00285361
0.00321195
0.00367334
0.00424614
0.00499279
0.00593306
0.00696702
0.00788043
0.00843623
0.00848041
0.0080014
0.00712189
0.00603911
0.00495174
0.00400957
0.00328939
0.00279702
0.00248803
0.00230179
0.00218398
0.00209629
0.00201176
0.00191679
0.00180575
0.00167788
0.00153736
0.00139774
0.00130815
0.00162405
0.00777229
0.0267818
0.00854913
0.0192343
0.0394438
0.0302382
0.0195618
0.0121772
0.00793475
0.00571476
0.0046683
0.00436223
0.00440026
0.00465255
0.00514324
0.0059293
0.00697136
0.00807723
0.00895444
0.0093369
0.00909316
0.00827075
0.00705735
0.0057073
0.0044557
0.00345879
0.00276687
0.00234717
0.00211407
0.00198951
0.00192267
0.00187323
0.00181973
0.00175213
0.00166679
0.00156466
0.00145272
0.00135033
0.00136038
0.00221852
0.0086628
0.0246427
0.00857528
0.015951
0.0315906
0.0266519
0.0195373
0.0139734
0.0102815
0.00802499
0.00674913
0.00604793
0.00573033
0.00578107
0.0062688
0.00719806
0.00840145
0.00955013
0.0102715
0.0103061
0.00959281
0.00828423
0.00666013
0.00504855
0.0037147
0.00278982
0.00223231
0.00195316
0.00181339
0.00174466
0.00171129
0.00168428
0.00164897
0.00159797
0.00152849
0.00144285
0.00135389
0.00130605
0.00163104
0.00364777
0.00959354
0.0211198
0.00818744
0.0132668
0.0256709
0.0233502
0.0186887
0.0145822
0.0115864
0.00954167
0.00820823
0.00729911
0.00683905
0.00695408
0.00770829
0.00895805
0.0103393
0.0113842
0.0116955
0.0111076
0.00969858
0.00778597
0.00575476
0.00402196
0.00283155
0.00219273
0.00186119
0.00169692
0.00161518
0.00157472
0.00155373
0.00153347
0.00150406
0.00145991
0.00139915
0.00132696
0.00126912
0.0013483
0.0021737
0.00494659
0.0101931
0.0169337
0.00759265
0.0133457
0.0224162
0.0220554
0.0177585
0.0143911
0.0118927
0.0100826
0.00876834
0.00791807
0.00777252
0.00846386
0.00984625
0.0114919
0.012837
0.0133815
0.0128428
0.0112909
0.00899324
0.00651942
0.00430737
0.0029617
0.00222551
0.00185655
0.00166863
0.00156765
0.00150948
0.00147408
0.00145007
0.00142531
0.00139314
0.00135001
0.00129621
0.00124104
0.00122365
0.00140261
0.00235879
0.00511225
0.00998525
0.0165134
0.00732458
0.0108732
0.011763
0.0129235
0.0125534
0.0113759
0.0100767
0.00894926
0.00820614
0.00830461
0.00941057
0.0112706
0.0133209
0.0149041
0.0154942
0.0148307
0.0128999
0.010182
0.0070355
0.0046499
0.00314591
0.00235881
0.00197132
0.00177118
0.00165101
0.00156711
0.00150326
0.00145364
0.00141495
0.0013788
0.00134146
0.00130375
0.00127192
0.00126123
0.00131182
0.00154875
0.00236167
0.00462997
0.00926989
0.0159457
0.00838473
0.00354585
0.00482844
0.00600446
0.0066129
0.0072931
0.00880602
0.011314
0.0141235
0.0165147
0.0179338
0.0180325
0.0167374
0.0142496
0.0106524
0.00736275
0.00486334
0.00335848
0.00259127
0.00223039
0.00204345
0.00192177
0.00182308
0.00173356
0.00165127
0.00158021
0.00152696
0.00149108
0.00147629
0.00149291
0.00155229
0.00166396
0.00184876
0.00218531
0.00291012
0.00467053
0.0100049
0.0144442
0.00881834
0.00444555
0.0063009
0.00812495
0.0110448
0.0147218
0.0181704
0.0203869
0.0214251
0.0213316
0.0201073
0.0175831
0.014134
0.0105008
0.00723193
0.00492363
0.00359213
0.0029491
0.00265309
0.00249803
0.0023954
0.00231296
0.00223812
0.00216646
0.00209969
0.00204581
0.00201829
0.00202828
0.00209143
0.00222327
0.00243299
0.0027243
0.00311134
0.00365562
0.00453566
0.00625788
0.0114833
0.0147049
0.0091486
0.0150737
0.0244176
0.0180879
0.0144111
0.017047
0.0207511
0.0228806
0.0235701
0.0230935
0.021719
0.0196925
0.0170524
0.0139001
0.0106168
0.00770773
0.00556634
0.00432344
0.00371847
0.00342783
0.003269
0.00317362
0.00311738
0.00308631
0.00306695
0.00304768
0.00302477
0.00300814
0.00301762
0.0030761
0.0032044
0.00341822
0.00372943
0.00414829
0.00469557
0.00542992
0.00650061
0.0082766
0.0118529
0.0159921
0.0083851
0.0138095
0.0170468
0.0178922
0.0207989
0.0217442
0.0221668
0.0211699
0.0193537
0.017229
0.0150475
0.0129132
0.010879
0.0090055
0.00740105
0.00617128
0.00530825
0.0047209
0.00433646
0.00408834
0.00394585
0.00389649
0.00392943
0.00402793
0.00416796
0.00432115
0.00446109
0.0045718
0.00466309
0.00477675
0.00494198
0.00518133
0.00551596
0.00597244
0.0065963
0.0074704
0.00871034
0.0104669
0.0136075
0.0184969
0.00808983
0.01214
0.00890924
0.00882223
0.00934282
0.00978537
0.00921103
0.008144
0.00698539
0.00592107
0.00500073
0.00421808
0.00356127
0.00303285
0.00264442
0.00239836
0.00228057
0.0022448
0.00225481
0.00230014
0.00237449
0.00247097
0.00258147
0.00269808
0.00281474
0.00292835
0.0030393
0.00315161
0.00327014
0.00340135
0.00355329
0.00373158
0.00394001
0.0041825
0.00446811
0.00482275
0.00530627
0.00600506
0.00696995
0.00814749
0.00739758
)
;

boundaryField
{
    floor
    {
        type            kqRWallFunction;
        value           nonuniform List<scalar> 
36
(
0.00358659
0.000793084
0.00162486
0.00165139
0.00157254
0.00144487
0.00128271
0.00113064
0.000998967
0.000887221
0.000792672
0.000712935
0.000644928
0.00058595
0.000533455
0.00048473
0.000436275
0.000397978
0.0003261
0.0003261
0.000523981
0.000677913
0.000821432
0.00116772
0.00204
0.00186041
0.00358659
0.00429893
0.00390782
0.00358041
0.000793084
0.00358041
0.00253536
0.00538582
0.00403713
0.00534341
)
;
    }
    ceiling
    {
        type            kqRWallFunction;
        value           nonuniform List<scalar> 
43
(
0.01214
0.00890924
0.00882223
0.00934282
0.00978537
0.00921103
0.008144
0.00698539
0.00592107
0.00500073
0.00421808
0.00356127
0.00303285
0.00264442
0.00239836
0.00228057
0.0022448
0.00225481
0.00230014
0.00237449
0.00247097
0.00258147
0.00269808
0.00281474
0.00292835
0.0030393
0.00315161
0.00327014
0.00340135
0.00355329
0.00373158
0.00394001
0.0041825
0.00446811
0.00482275
0.00530627
0.00600506
0.00696995
0.00814749
0.00739758
0.0108732
0.011763
0.00444555
)
;
    }
    sWall
    {
        type            kqRWallFunction;
        value           nonuniform List<scalar> 9(0.021918 0.0192343 0.015951 0.0132668 0.0133457 0.0108732 0.0150737 0.0138095 0.01214);
    }
    nWall
    {
        type            kqRWallFunction;
        value           nonuniform List<scalar> 
14
(
0.00186041
0.00265839
0.00370044
0.00854913
0.00857528
0.00818744
0.00759265
0.00732458
0.00838473
0.00881834
0.0091486
0.0083851
0.00808983
0.00739758
)
;
    }
    sideWalls
    {
        type            empty;
    }
    glass1
    {
        type            kqRWallFunction;
        value           nonuniform List<scalar> 9(0.00158588 0.00340689 0.00549061 0.00797322 0.0108758 0.0141739 0.0179905 0.0216392 0.0228321);
    }
    glass2
    {
        type            kqRWallFunction;
        value           nonuniform List<scalar> 2(0.0063804 0.00810779);
    }
    sun
    {
        type            kqRWallFunction;
        value           nonuniform List<scalar> 
14
(
0.00158588
0.00180106
0.00178795
0.00194652
0.0020978
0.00224013
0.00237685
0.00251252
0.00265291
0.00280629
0.00295657
0.00310291
0.00325047
0.00341291
)
;
    }
    Table_master
    {
        type            kqRWallFunction;
        value           nonuniform List<scalar> 9(0.00266394 0.00201434 0.00157526 0.0012693 0.00104938 0.000887073 0.000764746 0.00067192 0.000603707);
    }
    Table_slave
    {
        type            kqRWallFunction;
        value           nonuniform List<scalar> 9(0.00345503 0.00285814 0.00243511 0.00210928 0.00185005 0.0016317 0.00143837 0.00125839 0.00107748);
    }
    inlet
    {
        type            turbulentIntensityKineticEnergyInlet;
        intensity       0.05;
        value           uniform 0.0009375;
    }
    outlet
    {
        type            zeroGradient;
    }
}


// ************************************************************************* //
