/*--------------------------------*- C++ -*----------------------------------*\
  =========                 |
  \\      /  F ield         | OpenFOAM: The Open Source CFD Toolbox
   \\    /   O peration     | Website:  https://openfoam.org
    \\  /    A nd           | Version:  6
     \\/     M anipulation  |
\*---------------------------------------------------------------------------*/
FoamFile
{
    version     2.0;
    format      ascii;
    class       surfaceScalarField;
    location    "29099.9999982757399";
    object      phi;
}
// * * * * * * * * * * * * * * * * * * * * * * * * * * * * * * * * * * * * * //

dimensions      [1 0 -1 0 0 0 0];

internalField   nonuniform List<scalar> 
1482
(
-0.00279982
0.00286386
-0.00348418
0.000684359
-0.0041451
0.000660921
-0.00475946
0.000614359
-0.00528112
0.000521659
-0.00569329
0.000412171
-0.00598471
0.000291416
-0.00614228
0.000157568
-0.00614864
6.36454e-06
-0.00597782
-0.000170822
-0.00559987
-0.000377949
-0.00498379
-0.000616082
-0.00405942
-0.000924372
-0.00258045
-0.00147897
-0.00257753
-6.51614e-05
7.00148e-05
0.000777556
-0.000842718
0.00142925
-0.000651694
0.00182787
-0.000398619
0.00204885
-0.00022098
0.00215302
-0.000104174
0.0022004
-4.73721e-05
0.00222321
-2.28151e-05
0.00223289
-9.6749e-06
0.00223368
-7.89892e-07
0.00222654
7.13931e-06
0.00220752
1.90206e-05
0.00216334
4.41803e-05
0.00206085
0.000102485
0.00184479
0.00021606
0.0014885
0.000356295
0.00101889
0.000469602
0.00102533
-0.00204044
0.00507462
-0.00290868
0.00155261
-0.00369473
0.00144697
-0.00434604
0.00126566
-0.00488359
0.00105921
-0.00531265
0.000841227
-0.00563138
0.00061015
-0.00583296
0.000359142
-0.00590667
8.00763e-05
-0.00584468
-0.000232811
-0.0056412
-0.000581427
-0.00528495
-0.000972333
-0.00477477
-0.00143455
-0.00428871
-0.00196503
-0.0047046
-0.00216164
-0.00311774
-0.00158142
-0.00163381
-0.00147825
-0.00161896
0.00131721
-0.00123698
0.00166029
-0.0011858
0.00191056
-0.000901961
0.00210033
-0.000588391
0.00220642
-0.000327064
0.00221505
-0.000112803
0.00221712
-4.94438e-05
0.00221883
-2.45246e-05
0.00221984
-1.06883e-05
0.00221985
-7.96411e-07
0.00221845
8.53656e-06
0.00221422
2.32542e-05
0.00220157
5.68248e-05
0.0021397
0.000164358
0.00189035
0.000465406
0.00146186
0.000784786
0.000900309
0.00103116
0.00194253
-0.00148832
0.00682086
-0.00235932
0.00242361
-0.00312949
0.00221714
-0.00371395
0.00185012
-0.00418487
0.00153014
-0.00455657
0.00121293
-0.00483083
0.000884402
-0.00500436
0.000532678
-0.00507076
0.000146471
-0.00502094
-0.000282633
-0.00484418
-0.000758184
-0.00453311
-0.0012834
-0.00411861
-0.00184905
-0.0037214
-0.00236224
-0.00330133
-0.00258171
-0.00237014
-0.00251261
-0.00127602
-0.00257237
-0.00288214
0.00114861
-0.00237114
0.00165132
-0.00168851
0.00194877
-0.00119941
0.00214023
-0.000779851
0.00216772
-0.000354556
0.00205507
0.00200578
0.00198141
0.00197088
0.00197024
0.00197893
0.00200233
0.00205931
0.00222383
0.00186511
0.000824122
0.00141774
0.00123216
0.000800292
0.0016486
0.00276886
-0.00110612
0.00825819
-0.00192813
0.00324562
-0.00257034
0.00285935
-0.00303088
0.00231066
-0.00339863
0.00189789
-0.00368763
0.00150193
-0.00390086
0.00109763
-0.00403645
0.000668272
-0.00408687
0.000196887
-0.00403891
-0.000330593
-0.00388032
-0.000916773
-0.00360707
-0.00155665
-0.00324186
-0.00221426
-0.00282057
-0.00278353
-0.00228188
-0.00312039
-0.00156293
-0.00323156
-0.000875391
-0.0032599
-0.000697107
-0.00306043
0.00143891
-0.00212058
0.00137251
-0.00230474
0.00168854
-0.00200453
0.00200118
-0.00151205
0.00226753
-0.00104621
0.00254469
-0.000631713
0.00285673
-0.000312195
0.00302283
-0.000166255
0.00308692
-6.42408e-05
0.00306944
1.73259e-05
0.00297913
9.01581e-05
0.00281694
0.000162036
0.00257501
0.000241771
0.00223042
0.000344444
0.00172598
0.000504283
0.00158968
0.000960417
0.0012623
0.00155955
0.000737003
0.00217389
0.00354018
-0.000803817
0.00945521
-0.00158006
0.00402186
-0.00204887
0.00332816
-0.00236475
0.00262654
-0.00260931
0.00214244
-0.00279503
0.00168765
-0.00292692
0.00122952
-0.00300568
0.00074703
-0.00302473
0.000215942
-0.00296745
-0.000387878
-0.00282061
-0.00106361
-0.00257737
-0.00179989
-0.0022444
-0.00254722
-0.00182891
-0.00319903
-0.00132449
-0.00362481
-0.00074879
-0.00380726
-0.00021827
-0.00379042
0.000258811
-0.0035375
0.00111996
-0.00298173
0.00148616
-0.00267093
0.00174543
-0.0022638
0.00199805
-0.00176468
0.00222801
-0.00127617
0.00244225
-0.000845954
0.00264263
-0.000512567
0.00275197
-0.000275604
0.0027877
-9.99704e-05
0.00276153
4.34968e-05
0.00267989
0.000171805
0.00254525
0.000296669
0.00235641
0.000430611
0.00211091
0.000589944
0.00181668
0.000798519
0.00161058
0.00116652
0.00146811
0.00170201
0.00128675
0.00235525
0.00226782
0.00255911
0.00131443
0.000988325
0.00189586
-0.000552765
0.00201483
-0.000575867
0.0104775
-0.00132485
0.00477084
-0.00158463
0.00358795
-0.00175073
0.00279263
-0.00186493
0.00225664
-0.00193664
0.00175937
-0.00197233
0.00126521
-0.00197626
0.000750964
-0.00194526
0.000184942
-0.00185754
-0.000475596
-0.00170336
-0.0012178
-0.00147287
-0.00203038
-0.00116905
-0.00285104
-0.000797788
-0.00357029
-0.000378889
-0.00404371
6.07803e-05
-0.00424692
0.000465634
-0.00419527
0.000839851
-0.00391172
0.00129095
-0.00343282
0.00158995
-0.00296993
0.0017935
-0.00246734
0.00196509
-0.00193627
0.00211676
-0.00142784
0.0022511
-0.000980291
0.0023555
-0.000616966
0.00241313
-0.000333235
0.00242382
-0.000110662
0.00239284
7.44739e-05
0.00232502
0.000239624
0.00222417
0.000397518
0.0020943
0.000560485
0.00194231
0.00074193
0.00178239
0.000958441
0.00169025
0.00125866
0.00174421
0.00164806
0.00194965
0.00214981
0.00218476
0.002324
0.00169734
0.00147575
0.000782951
0.000361628
0.00289543
-0.000543353
0.0115131
-0.00124361
0.0054711
-0.00119212
0.00353646
-0.00120072
0.00280124
-0.00119335
0.00224926
-0.00116018
0.0017262
-0.00110337
0.0012084
-0.00102861
0.000676199
-0.000930548
8.68807e-05
-0.000781891
-0.000624253
-0.000593015
-0.00140668
-0.000353476
-0.00226992
-7.04006e-05
-0.00313412
0.000233775
-0.00387447
0.00054323
-0.00435316
0.000837998
-0.00454169
0.00110069
-0.00445796
0.00133398
-0.004145
0.00156588
-0.00366472
0.00172572
-0.00312977
0.00182579
-0.00256741
0.00189589
-0.00200637
0.00195163
-0.00148358
0.0019981
-0.00102677
0.00203
-0.000648861
0.00204166
-0.000344897
0.00202978
-9.87824e-05
0.00199517
0.000109081
0.00194097
0.000293832
0.00187095
0.000467536
0.00179027
0.000641162
0.00170731
0.000824894
0.00163671
0.00102904
0.00162093
0.00127444
0.00170329
0.0015657
0.00190372
0.00194937
0.00214248
0.00208524
0.00215106
0.00146716
0.00162671
0.000885983
0.0046251
-0.000483495
0.0125321
-0.00105153
0.00603914
-0.000697598
0.00318252
-0.000637056
0.0027407
-0.000568995
0.0021812
-0.000464691
0.0016219
-0.000336104
0.00107982
-0.000185409
0.000525505
3.44201e-06
-0.000101971
0.000221265
-0.000842075
0.00046056
-0.00164597
0.000717784
-0.00252714
0.000974267
-0.00339061
0.00120265
-0.00410286
0.00140179
-0.0045523
0.00156294
-0.00470285
0.00168081
-0.00457584
0.0017602
-0.00422439
0.00181354
-0.00371806
0.00182393
-0.00314016
0.00179949
-0.00254297
0.00175907
-0.00196595
0.00171747
-0.00144198
0.00168208
-0.000991378
0.00165286
-0.000619638
0.00162595
-0.000317992
0.00159665
-6.94822e-05
0.00156285
0.000142883
0.0015249
0.000331785
0.00148422
0.000508213
0.00144404
0.000681346
0.00141054
0.000858391
0.00139438
0.00104519
0.00141805
0.00125077
0.00150694
0.00147681
0.00170459
0.00175173
0.00196036
0.00182948
0.00205961
0.00136792
0.00164936
0.00129625
0.00664071
0.00297618
0.0101431
0.00202068
0.00699464
0.000867896
0.0043353
0.000369627
0.00323897
0.000212672
0.00233815
0.000268807
0.00156576
0.000422299
0.000926324
0.000635706
0.000312098
0.000894527
-0.000360792
0.00115877
-0.00110631
0.00143675
-0.00192396
0.00170337
-0.00279376
0.00192925
-0.00361649
0.00209014
-0.00426376
0.0021801
-0.00464227
0.00220177
-0.00472453
0.00216401
-0.00453808
0.0020805
-0.00414088
0.00196649
-0.00360404
0.00182755
-0.00300122
0.00167576
-0.00239117
0.00152784
-0.00181803
0.0013983
-0.00131245
0.00129522
-0.000888294
0.0012198
-0.000544227
0.00116737
-0.000265563
0.00113083
-3.29422e-05
0.0011051
0.000168613
0.00108692
0.000349974
0.00107424
0.000520886
0.00106732
0.000688263
0.00106917
0.000856546
0.00108591
0.00102845
0.00112948
0.00120721
0.00121371
0.00139257
0.00136709
0.00159835
0.00154676
0.00164981
0.00159435
0.00132032
0.000241512
0.00264914
0.0072676
0.00403042
0.00625287
0.00366617
0.00735889
0.00254073
0.00546074
0.00188759
0.00389211
0.001531
0.00269474
0.00138603
0.00171073
0.00141956
0.000892799
0.00159348
0.000138177
0.0018449
-0.000612215
0.00212134
-0.00138276
0.00240045
-0.00220307
0.00264498
-0.00303829
0.00281331
-0.00378484
0.00287848
-0.00432894
0.00283718
-0.00460098
0.00270321
-0.00459057
0.00249891
-0.00433378
0.00224862
-0.00389059
0.00197512
-0.00333054
0.00169554
-0.00272163
0.00142697
-0.0021226
0.00118711
-0.00157816
0.000990495
-0.00111583
0.000843114
-0.000740913
0.000743875
-0.000444988
0.000684171
-0.000205859
0.000653318
-2.08963e-06
0.000642801
0.000179129
0.000645977
0.000346798
0.000658205
0.000508659
0.00067736
0.000669108
0.000703333
0.000830574
0.000737459
0.000994321
0.000782394
0.00116228
0.000835144
0.00133982
0.00086124
0.00157225
0.000572848
0.00193818
-0.00074431
0.00263741
-0.00205558
0.00396052
0.005316
0.00240913
0.00400826
0.00330378
0.00646424
0.00324769
0.00551683
0.00303686
0.00410293
0.00284569
0.00288591
0.00272218
0.00183423
0.00270796
0.000907016
0.00279642
4.97195e-05
0.00295767
-0.000773473
0.00316759
-0.00159268
0.00338439
-0.00241987
0.00354813
-0.00320202
0.00360411
-0.00384083
0.00352572
-0.00425056
0.0033184
-0.00439367
0.00300828
-0.00428047
0.00262987
-0.00395538
0.00221665
-0.00347738
0.00179828
-0.00291217
0.00139845
-0.00232181
0.00103859
-0.00176274
0.000737882
-0.00127745
0.000509898
-0.000887846
0.000352559
-0.000583574
0.000257318
-0.000349748
0.000208138
-0.000156679
0.000191952
1.40956e-05
0.000198623
0.000172457
0.000220167
0.000325253
0.000251738
0.000477088
0.000290012
0.000630833
0.00033225
0.000788336
0.000375732
0.000950839
0.000417924
0.00112009
0.000452586
0.00130516
0.000417928
0.0016069
0.000137455
0.00221847
-0.000203145
0.00297761
-0.000377316
0.00413449
0.00505381
0.00145674
0.00274576
0.00274812
0.00517286
0.00343235
0.00483259
0.00371841
0.00381688
0.00381671
0.0027876
0.00384447
0.00180647
0.00388006
0.000871423
0.00394863
-1.88592e-05
0.00405808
-0.00088292
0.00419748
-0.00173207
0.00431544
-0.00253783
0.00434139
-0.00322797
0.00422387
-0.00372332
0.00395074
-0.00397744
0.00354451
-0.00398745
0.00304511
-0.00378108
0.00249669
-0.00340696
0.00193819
-0.00291888
0.00140389
-0.00237788
0.000920816
-0.00183873
0.000515558
-0.00135749
0.000205581
-0.000967477
-4.64275e-06
-0.000677622
-0.000131903
-0.000456314
-0.000200473
-0.000281177
-0.000230599
-0.000126554
-0.000233466
1.69619e-05
-0.000216044
0.000155035
-0.000183247
0.000292456
-0.000138976
0.000432817
-8.74432e-05
0.0005793
-3.41142e-05
0.000735006
1.3355e-05
0.00090337
4.46045e-05
0.00108884
3.74132e-05
0.00131235
-9.50626e-05
0.00173933
-0.000399566
0.00252269
-0.000544118
0.00312168
-0.000479695
0.00406965
0.00470207
0.00217085
0.000800863
0.00294353
0.00440018
0.00359462
0.0041815
0.00416502
0.00324647
0.00449269
0.00245993
0.0046667
0.00163246
0.00478307
0.000755048
0.0048872
-0.000122984
0.00499283
-0.000988547
0.00507001
-0.00180924
0.00505313
-0.00252094
0.00488212
-0.00305695
0.00453452
-0.00337573
0.00402931
-0.00347223
0.00341162
-0.00336978
0.00273266
-0.00310213
0.00204159
-0.0027159
0.00137696
-0.00225426
0.00077819
-0.00177911
0.000272159
-0.0013327
-0.000105479
-0.000979846
-0.000352415
-0.000720539
-0.000497842
-0.000532193
-0.000578364
-0.00037579
-0.000621765
-0.000237777
-0.000639077
-0.000109242
-0.000635174
1.30574e-05
-0.000612608
0.000132469
-0.00057337
0.000253217
-0.000520431
0.000379877
-0.000458907
0.000517775
-0.000397322
0.00067342
-0.000350088
0.000856135
-0.000344223
0.00108298
-0.000433935
0.00140211
-0.000692317
0.00199784
-0.00120201
0.00303242
-0.00201505
0.00393454
-0.00208414
0.00413849
0.00276036
-0.00157466
0.00262069
0.00112064
0.00170488
0.00335237
0.00194977
0.00435527
0.00224357
0.00485937
0.00195584
0.00517378
0.00131805
0.00540137
0.000527463
0.00557861
-0.000300214
0.00567712
-0.00108704
0.00563469
-0.00176678
0.00540028
-0.0022865
0.00496207
-0.00261874
0.00434787
-0.00276152
0.00361075
-0.00273512
0.00281146
-0.00257049
0.00200085
-0.00229152
0.00122865
-0.0019437
0.000526882
-0.00155249
-5.46489e-05
-0.00119758
-0.000475325
-0.000912018
-0.000736021
-0.000719144
-0.000885801
-0.000570752
-0.000973082
-0.000444907
-0.00102299
-0.000325883
-0.00105002
-0.000210745
-0.00105909
-0.000100178
-0.00105098
4.94041e-06
-0.00102492
0.000106412
-0.000980447
0.000208739
-0.000919203
0.000318633
-0.000846001
0.000444572
-0.000770071
0.000597488
-0.000707131
0.000793192
-0.000683823
0.00105968
-0.00074118
0.00145955
-0.000881698
0.00213865
-0.00111419
0.00326537
-0.00183325
0.00465398
-0.00215155
0.00445715
0.000765412
0.00288244
0.00457213
0.00487289
0.00164902
0.00535999
0.00175646
0.0055967
0.00171913
0.00582772
0.00108704
0.00601435
0.000340834
0.00608017
-0.000365995
0.00595359
-0.000960415
0.00560084
-0.00141398
0.00503412
-0.00171975
0.00430011
-0.00188472
0.00345697
-0.00191837
0.00256399
-0.00184214
0.0016776
-0.0016841
0.000832529
-0.00144645
7.41663e-05
-0.00118534
-0.000535712
-0.000942614
-0.000957116
-0.000776165
-0.00121257
-0.000656552
-0.00136363
-0.000568063
-0.00145088
-0.000483483
-0.00150321
-0.000392574
-0.00153445
-0.000294649
-0.00155077
-0.000194436
-0.00155365
-9.73122e-05
-0.00154208
-6.64063e-06
-0.00151365
7.798e-05
-0.00146595
0.000161033
-0.00139842
0.000251101
-0.00131327
0.000359419
-0.00121569
0.000499901
-0.00111328
0.000690766
-0.00101322
0.000959576
-0.000911006
0.00135735
-0.00075028
0.00197814
-0.00039799
0.00291357
9.98124e-05
0.00415658
0.000570178
0.00398729
0.00149809
0.00793156
0.00536578
0.00581191
0.00387609
0.00556426
0.00196677
0.00563614
0.00101517
0.00560149
0.000375522
0.00535927
-0.000123716
0.0048968
-0.000497897
0.0042536
-0.000770743
0.00348281
-0.000948952
0.00263752
-0.00103942
0.00175907
-0.00103992
0.000886078
-0.00096915
5.66499e-05
-0.000854678
-0.000664971
-0.000724831
-0.00121807
-0.000632245
-0.00159319
-0.000567475
-0.00183297
-0.000536361
-0.00197657
-0.000512908
-0.00206561
-0.000478989
-0.00212367
-0.000425393
-0.00216281
-0.00035343
-0.0021883
-0.000269178
-0.0022024
-0.000180374
-0.00220563
-9.41326e-05
-0.00219712
-1.51884e-05
-0.00217439
5.52341e-05
-0.00213418
0.00012082
-0.00207296
0.000189897
-0.00198687
0.000273339
-0.00187067
0.000383694
-0.00171686
0.000536892
-0.00151262
0.000755205
-0.00122607
0.00107064
-0.000775797
0.00152777
-4.45109e-05
0.00218242
0.000933176
0.00317917
0.0014542
0.00346663
0.00312314
0.00409041
0.00152192
0.00449216
0.00347433
0.00372518
0.00273375
0.0032283
0.00151208
0.0028888
0.000715071
0.00252615
0.00023898
0.00207999
-5.17176e-05
0.00153752
-0.000228278
0.000917413
-0.000328851
0.000237349
-0.000359363
-0.000462708
-0.000339864
-0.00112051
-0.000311361
-0.00168028
-0.000294915
-0.00210676
-0.000298357
-0.00240614
-0.000332843
-0.00259648
-0.000377091
-0.00271887
-0.000413904
-0.00280431
-0.000427394
-0.00287104
-0.000412206
-0.00292613
-0.000370278
-0.00297146
-0.000308115
-0.00300675
-0.000233949
-0.00303126
-0.000155965
-0.00304456
-8.09328e-05
-0.00304725
-1.25801e-05
-0.00303889
4.68452e-05
-0.00301551
9.74557e-05
-0.00297101
0.000145463
-0.00289559
0.000197992
-0.00277475
0.0002629
-0.00258933
0.000351422
-0.00231445
0.000480169
-0.00191129
0.000667206
-0.00130959
0.000925721
-0.000400874
0.00127341
0.00092712
0.00185113
0.00165785
0.00273594
0.00495955
-0.00263368
-0.00680717
-0.00742755
-0.00747705
-0.00375528
-0.00215031
-0.00168204
0.00140112
-0.000767762
0.0018195
-0.000565025
0.00130938
-0.00064027
0.000790335
-0.000822778
0.000421492
-0.00106263
0.000188137
-0.00135398
6.3053e-05
-0.00170044
1.75868e-05
-0.00207857
1.87412e-05
-0.00245337
3.49065e-05
-0.00279872
3.39657e-05
-0.00308878
-4.86484e-06
-0.0032945
-9.26137e-05
-0.00342162
-0.000205655
-0.00350156
-0.00029705
-0.00356503
-0.000350328
-0.0036273
-0.000365027
-0.00369254
-0.000346913
-0.00375949
-0.000303333
-0.00382538
-0.000242296
-0.00388715
-0.000172312
-0.0039412
-0.000102092
-0.0039826
-3.97051e-05
-0.00400366
8.34655e-06
-0.00400258
4.57057e-05
-0.00398256
7.74678e-05
-0.00394349
0.000106505
-0.00388018
0.000134848
-0.00378134
0.000164234
-0.00362857
0.000198765
-0.00339435
0.000245962
-0.00302978
0.000302499
-0.00243855
0.000334181
-0.00155004
0.000384448
-0.000579443
0.000880035
-9.591e-06
0.00216563
0.00514412
-0.00737986
0.00102633
-0.00814495
-0.0067119
-0.00719095
-0.00310424
-0.00566683
-0.000122958
-0.00457385
0.000726543
-0.00398223
0.000717758
-0.00372267
0.000530761
-0.0036551
0.000353881
-0.00369589
0.000228872
-0.0037892
0.000156301
-0.00389376
0.000122076
-0.00398206
0.000106985
-0.0040401
9.28989e-05
-0.00407155
6.54091e-05
-0.00409386
1.74676e-05
-0.00412318
-6.32178e-05
-0.00417214
-0.000156577
-0.00424306
-0.000225993
-0.00433359
-0.000259672
-0.00443645
-0.00026208
-0.00454181
-0.000241533
-0.0046398
-0.00020541
-0.00472264
-0.000159608
-0.00478575
-0.000109412
-0.00482751
-6.05682e-05
-0.0048481
-1.93431e-05
-0.00484774
7.81521e-06
-0.00482187
1.97357e-05
-0.00477396
2.95679e-05
-0.00470584
3.84746e-05
-0.00461497
4.41549e-05
-0.00449284
4.23326e-05
-0.00432289
2.90603e-05
-0.00408146
4.75335e-06
-0.00374348
-3.52834e-05
-0.00325693
-0.000152208
-0.00239924
-0.000473121
-0.000775478
-0.000743728
7.4511e-05
0.00131536
0.00542437
0.0015681
-0.00507918
-0.00812044
-0.00818426
-0.0074037
-0.00663974
-0.00606943
-0.00568072
-0.00541997
-0.00523338
-0.00508157
-0.00494465
-0.0048211
-0.00472415
-0.00467444
-0.00470516
-0.0048294
-0.00502351
-0.00525193
-0.00548345
-0.00569504
-0.00587097
-0.0060014
-0.00608177
-0.00611332
-0.00610366
-0.00606687
-0.0060183
-0.00596022
-0.00589375
-0.00582231
-0.00575362
-0.00569928
-0.00567049
-0.00568316
-0.00581434
-0.00626813
-0.00699419
-0.00566255
)
;

boundaryField
{
    floor
    {
        type            calculated;
        value           nonuniform List<scalar> 
36
(
0
0
0
0
0
0
0
0
0
0
0
0
0
0
0
0
0
0
0
-6.43899e-06
-1.68854e-05
-2.60356e-05
-3.43153e-05
-3.49338e-05
-2.86655e-05
-2.86615e-05
-2.92e-06
-5.4416e-06
-5.68785e-06
-5.90812e-06
-4.8536e-06
-8.93895e-06
-1.02127e-05
-1.28341e-05
-1.44573e-05
-1.5445e-05
)
;
    }
    ceiling
    {
        type            calculated;
        value           nonuniform List<scalar> 
43
(
-5.78713e-05
-6.45682e-05
-6.29179e-05
-5.91062e-05
-5.39964e-05
-4.62205e-05
-3.95915e-05
-3.49074e-05
-3.1967e-05
-3.03867e-05
-2.98208e-05
-3.0006e-05
-3.06833e-05
-3.15278e-05
-3.21859e-05
-3.2407e-05
-3.22192e-05
-3.1762e-05
-3.11558e-05
-3.05279e-05
-2.99856e-05
-2.95915e-05
-2.93561e-05
-2.92492e-05
-2.92163e-05
-2.91915e-05
-2.91048e-05
-2.88911e-05
-2.85e-05
-2.79071e-05
-2.71108e-05
-2.61248e-05
-2.49709e-05
-2.36707e-05
-2.22396e-05
-2.06937e-05
-1.90932e-05
-1.7606e-05
-1.64395e-05
-1.64323e-05
1.93409e-05
1.5187e-05
-0.000246551
)
;
    }
    sWall
    {
        type            calculated;
        value           nonuniform List<scalar> 9(-0.000140237 -0.000164519 -0.000194243 -0.000225957 -0.000245162 -0.000281095 -0.00042371 -0.000453581 -0.00048388);
    }
    nWall
    {
        type            calculated;
        value           nonuniform List<scalar> 
14
(
-9.03068e-05
-9.76489e-05
-0.000102954
-0.000103913
-0.000115089
-0.000127979
-0.000142504
-0.000156307
-0.000162033
-0.00017062
-0.000178571
-0.000194278
-0.000206111
-0.000222167
)
;
    }
    sideWalls
    {
        type            empty;
        value           nonuniform 0();
    }
    glass1
    {
        type            calculated;
        value           nonuniform List<scalar> 9(-6.40348e-05 -0.000170322 -0.000257926 -0.000331212 -0.000393198 -0.000446405 -0.000492219 -0.000535501 -0.000587179);
    }
    glass2
    {
        type            calculated;
        value           nonuniform List<scalar> 2(-0.000366254 -0.000385309);
    }
    sun
    {
        type            calculated;
        value           uniform 0;
    }
    Table_master
    {
        type            calculated;
        value           nonuniform List<scalar> 9(-1.53995e-07 -1.54112e-07 -1.54144e-07 -1.54164e-07 -1.54177e-07 -1.54182e-07 -1.5418e-07 -1.54166e-07 -1.54113e-07);
    }
    Table_slave
    {
        type            calculated;
        value           nonuniform List<scalar> 9(1.53663e-07 1.5372e-07 1.53719e-07 1.53736e-07 1.53757e-07 1.53801e-07 1.53869e-07 1.53962e-07 1.5409e-07);
    }
    inlet
    {
        type            calculated;
        value           uniform -0.0116483;
    }
    outlet
    {
        type            calculated;
        value           nonuniform List<scalar> 2(0.00986461 0.012271);
    }
}


// ************************************************************************* //
