/*--------------------------------*- C++ -*----------------------------------*=========                 |
  \      /  F ield         | OpenFOAM: The Open Source CFD Toolbox
   \    /   O peration     | Website:  https://openfoam.org
    \  /    A nd           | Version:  6
     \/     M anipulation  |
\*---------------------------------------------------------------------------*/
FoamFile
{
    version     2.0;
    format      ascii;
    class       volScalarField;
    location    "740";
    object      PPD;
}
// * * * * * * * * * * * * * * * * * * * * * * * * * * * * * * * * * * * * * //

dimensions      [0 0 0 0 0 0 0];

internalField   nonuniform List<scalar> 
458
(
41.44609938763597
29.468664178099758
28.02290498741786
26.77215822702084
25.987515361369987
25.622960540487043
25.7247730514477
26.34027976721795
27.58633412399945
29.704954200589825
32.96607316890406
36.404742667374926
37.18834071858375
37.59457338560882
38.21913880483234
44.12289368793543
43.41794579282146
43.217098575693086
43.56874910854284
43.82040221893049
44.02200249766892
43.7916901402898
43.568372713229294
43.62112726948482
43.72275661536924
43.881793737487946
44.0560201014622
44.28814919542793
44.63132771261056
45.23188807709015
45.66857593603361
45.89768409334005
46.63760314640436
38.01070449511338
30.005572305542728
29.44644432207052
28.177803022763186
27.44244402103061
27.098363922804978
27.14201056368242
27.499430829673173
28.119050185496107
29.20851018411267
31.040776582279676
33.90691317111602
36.997769168343986
37.546692604037744
37.906368092765575
35.82763712813018
35.816180487078555
36.895081101145415
41.64957541552161
42.741136188615364
42.716127263273684
43.1167721574862
43.2705530954179
43.249338608851765
43.253172707455356
43.31452733248535
43.35303595022628
43.36808366086377
43.39164853152835
43.45966302252038
43.51926994635381
43.68394790757808
44.13913933117217
44.577637705694734
44.932133556559684
44.04413639285246
39.5963438613858
29.595856818808073
30.930979168697647
30.235469695768188
29.9266782470757
29.73844593346024
29.75344737896593
29.588738343888352
28.999270186518117
28.50360204981726
28.982115019297822
31.193012498139183
35.554849795731045
37.882349031339075
38.21913880483234
38.363819293562706
38.43521470215247
37.420051092578085
37.11166131233258
40.38204630540485
40.86315460738219
41.32212795152631
41.881596368668724
42.068167590350875
43.248461276267506
43.99678913318417
43.99678913318417
44.02200249766892
44.02200249766892
44.02200249766892
44.04721964420489
44.07244056398224
44.223844825987015
44.40065186218199
44.00085669232667
40.20931861755738
43.481423006825715
29.286850448332814
32.02598756813984
32.53021616222081
33.336662481002975
33.887465259545706
33.98301195284766
32.8631877753964
30.229282703477253
27.84180613870032
27.298064594852534
29.293539755253377
33.593942075517276
38.18735905828216
38.896038430955144
38.96882079712308
37.684978037373405
36.476581023870644
33.99083109355264
37.24788163667086
39.057133297636675
40.38268848749205
41.93900405047435
43.725609149374556
45.134528628948225
44.799080098428945
44.465114823471346
44.39766284896203
44.45626351323812
44.58497756321914
44.929892053587245
45.62935973235562
46.8717992355231
46.81707116579791
46.076054047637996
42.934950333352155
37.96577266703553
48.50468610307933
29.656370162779154
32.84972133792458
34.63052554632128
37.33175890579166
39.69416520455943
40.18266830561761
36.58030363929464
31.268258042649308
27.257560382640577
26.081128389502112
28.140505720324285
32.43414509095963
37.460064719848575
39.89490819153392
39.99283189365677
39.439555759795056
37.99541812563019
37.91347710899073
38.703332254945586
40.30672909125398
42.39941665338871
44.57645253463902
46.70028973114907
48.1500913253978
48.82177851093097
48.83849003200796
48.81033643591086
48.712806487067574
48.55197796080813
48.41153919195146
48.37344009559137
48.353827869678064
47.53166142950821
46.11726101834431
42.11843808368071
42.14835356780506
41.9780746036688
46.45373127003177
40.05996256260037
53.80486383792389
31.02761464178826
34.3180947377396
36.198902940014534
40.459169928942146
44.45120113400287
46.38217694124764
38.09273600808082
31.219799218294256
26.547305339690865
25.256807390116236
27.438491384206927
32.232497645141535
38.02011726739026
41.32262856449745
41.64485903382736
41.52083140837489
41.57042861611414
42.23302593401504
43.304443258396184
45.084077907319816
46.73985377850577
48.201512380418365
49.412342585216855
50.31666402752719
50.91192658209957
51.32640964985153
51.58560137012183
51.66337792940295
51.61152595088893
51.35232424297771
50.989619662001566
50.043474408428885
48.425543008462206
46.46021446893106
42.70541003658331
42.37760913816019
42.00253536882067
43.313290435856025
43.721676215559604
58.82736599078567
35.148028080075235
40.27541351384847
39.132221872678336
41.932835572155085
46.12704447255141
42.82290828844543
36.59579148660737
29.85987602271328
25.329658528774516
24.47505169312231
27.437241590005158
33.27391707496865
40.36578258219338
43.29238606124667
43.895973671987385
43.921171820173996
44.223844825987015
45.18576162084821
46.535398014194215
48.047276661258145
49.46396273809805
50.70479937321632
51.63745147406749
52.25992002535837
52.6491722312356
52.856824330031735
52.9347015129347
52.882782958866976
52.701082288208845
52.33775925790918
51.844888354471536
51.2745836389161
50.32917423051713
47.926758149888066
44.597815110688714
43.07690678884524
41.97566838345696
40.51331060384921
46.12665762902126
66.30867383090731
54.80621809820455
51.62669893710708
45.31237239740982
44.177796400060075
43.594281152964676
39.94615206065282
32.98153547020745
26.292162518923007
22.940234649309218
23.70840244366981
28.623846520660862
36.56736910183109
43.77004049757625
45.948631506691655
46.61204757426007
46.84214930872184
47.37991348356309
48.43301794149913
49.696340410565156
50.937823070914256
52.026440426164854
52.83086614722555
53.3760677724234
53.713632076981675
53.843470285371254
53.86943811279736
53.791534784680906
53.635730273804256
53.427998712303264
53.09046679530964
52.62321799149052
52.05237963018165
51.40415655344396
50.67891421192919
49.877173663847515
49.36895814978784
47.886739218608085
43.63679258754266
39.15264990647282
76.57653379882164
69.4660183656816
61.01026010369666
53.2294172636594
48.2403834310594
44.426877507766356
34.639795069039934
24.831759743014146
19.7767771177122
19.744542304594276
24.152767391260838
33.11541514865894
42.94135893550625
47.20052851765116
48.79348506569358
49.48977549016601
49.9546981456181
50.60126662423857
51.50783338485787
52.467504249998356
53.272208820528384
53.92137386914763
54.26430028745709
54.002448656150946
53.688791359560696
53.33796739816853
52.91195519694947
52.440153833819544
51.88067225439024
51.256324843630395
50.54043448185103
49.73030172769919
48.970769914426725
48.0613728660266
47.00946888123323
46.05228679011755
45.43704608406746
45.211445010028285
44.68174649803688
43.0115459185373
59.545039437898346
16.93191991078622
5.776876786116517
5.001458657208175
5.467264492705155
7.297341667859428
11.806528757954993
20.045938108342895
32.199880300431786
42.81618827390102
48.17580071740391
49.30176321076982
49.75966128493863
50.21395190285126
50.78660418258542
51.47567497596142
52.115432900679615
52.57195098731783
52.77524264284102
52.78744751363343
52.6357891041092
52.379394436773204
52.03886823420408
51.631716212862116
51.158148649865325
50.65906352882519
50.18841400088407
49.7824713488799
49.47033038589342
49.2607524518834
49.10985292822285
49.00909074435629
48.90273427465438
48.93897573493623
49.50477021067108
51.4760035372058
55.13440027774017
46.8696284578292
60.18455031982309
12.178286460631384
5.001763872268597
7.042433731180012
10.657644143323793
17.75440579582157
28.00835835499109
39.0416522223071
44.026960608289365
46.30887281054708
47.845039548469146
48.74421722986166
49.35065183218818
49.83848289748575
50.30148815030145
50.70205300291463
51.031661987380616
51.28761630586354
51.43789737079429
51.43771121691611
51.37331270213966
51.22596731556556
51.05710524895937
50.87588082930817
50.69177727641293
50.541450036505026
50.41035643331007
50.35027876747224
50.35915766997674
50.50425244297253
50.87354776649734
51.50475608290164
52.17320282935036
52.73571063490791
53.316949660743575
55.23391291195418
52.41036903335537
49.197793259625826
32.08770765161243
32.02391094051457
26.510142604205186
5.921482461435673
7.867507727022186
17.92006303439898
29.678469343201357
36.731381342810195
41.26292848887666
44.08559387388959
45.911993589611114
47.244245167045186
48.04176144040728
48.51204580606144
48.77797696140634
48.96010505616394
49.05157507537088
49.045362369532114
48.96095299449607
48.84515546412343
48.68211317762066
48.53809110332606
48.3929772967238
48.251821808862324
48.149005201114875
48.09442801770096
48.102219791168416
48.22025209157265
48.42185114997055
48.77514817809539
49.28673490727348
50.06691316762204
51.36218602691137
53.571747433082486
56.85322391667785
57.1639579213629
55.66404507955192
52.37650587412603
49.55692947293639
50.29939994170094
)
;

boundaryField
{
    ".*"
    {
        type            zeroGradient;
    }
}


// ************************************************************************* //
