/*--------------------------------*- C++ -*----------------------------------*\
  =========                 |
  \\      /  F ield         | OpenFOAM: The Open Source CFD Toolbox
   \\    /   O peration     | Website:  https://openfoam.org
    \\  /    A nd           | Version:  6
     \\/     M anipulation  |
\*---------------------------------------------------------------------------*/
FoamFile
{
    version     2.0;
    format      ascii;
    class       volVectorField;
    location    "740";
    object      U;
}
// * * * * * * * * * * * * * * * * * * * * * * * * * * * * * * * * * * * * * //

dimensions      [0 1 -1 0 0 0 0];

internalField   nonuniform List<vector> 
458
(
(0.0330874 0.0919166 0)
(-0.179721 0.0274794 0)
(-0.209067 0.0183163 0)
(-0.243035 0.0107362 0)
(-0.265889 0.00228747 0)
(-0.27542 -0.00704446 0)
(-0.268337 -0.01752 0)
(-0.243298 -0.0294773 0)
(-0.200774 -0.0413149 0)
(-0.14512 -0.0506806 0)
(-0.0842494 -0.0552961 0)
(-0.0265821 -0.0522739 0)
(0.0277159 -0.0278745 0)
(0.0444954 -0.00455633 0)
(0.0279432 0.0304886 0)
(-0.00908441 0.0104203 0)
(-0.0390673 -0.0212408 0)
(-0.012863 -0.0341026 0)
(0.0199041 -0.0279865 0)
(0.0411946 -0.0196103 0)
(0.0571626 -0.0105835 0)
(0.0663791 -0.0058579 0)
(0.0701683 -0.00413326 0)
(0.0714102 -0.00346855 0)
(0.0718954 -0.00305455 0)
(0.0720393 -0.00272594 0)
(0.071774 -0.00237618 0)
(0.0709204 -0.00183682 0)
(0.0689624 -0.000738277 0)
(0.064763 0.00140261 0)
(0.0570977 0.00372657 0)
(0.0508294 0.00588637 0)
(-0.0150913 0.0248356 0)
(0.216238 0.189738 0)
(-0.168375 0.0758053 0)
(-0.171673 0.059832 0)
(-0.208159 0.0447468 0)
(-0.23215 0.0270634 0)
(-0.243388 0.00617386 0)
(-0.238672 -0.0186437 0)
(-0.216958 -0.0459671 0)
(-0.179627 -0.0710004 0)
(-0.131576 -0.0880254 0)
(-0.080308 -0.092838 0)
(-0.0336335 -0.082216 0)
(0.0079636 -0.0499836 0)
(0.0374033 -0.0128147 0)
(0.0591192 0.0257765 0)
(0.0806119 0.0387999 0)
(0.0748681 0.0547324 0)
(-0.0081618 0.0866512 0)
(0.0783946 0.0473659 0)
(0.011099 -0.0257875 0)
(0.0285269 -0.0429992 0)
(0.0447736 -0.0395512 0)
(0.05854 -0.0295473 0)
(0.0659647 -0.0127092 0)
(0.0677988 -0.0026646 0)
(0.0677185 0.00105237 0)
(0.0677838 0.00238825 0)
(0.0680844 0.00311638 0)
(0.0683067 0.00362985 0)
(0.0683317 0.00407355 0)
(0.0681729 0.00485805 0)
(0.0673376 0.00685549 0)
(0.0635011 0.0124552 0)
(0.0538143 0.0172334 0)
(0.0526367 0.020673 0)
(-0.0655083 0.0533802 0)
(0.384775 0.284916 0)
(-0.1853 0.12128 0)
(-0.131439 0.0976572 0)
(-0.168768 0.0708457 0)
(-0.192061 0.041359 0)
(-0.204571 0.00721432 0)
(-0.20171 -0.0325043 0)
(-0.181772 -0.0756672 0)
(-0.148126 -0.113249 0)
(-0.106636 -0.135964 0)
(-0.0643419 -0.13891 0)
(-0.0273143 -0.120489 0)
(0.00487628 -0.0804624 0)
(0.0301946 -0.0383856 0)
(0.0507243 -0.00467322 0)
(0.0605103 0.0090873 0)
(0.058663 0.0284844 0)
(-0.0278051 0.0752714 0)
(0.13897 -0.00835082 0)
(0.075067 -0.0362682 0)
(0.065074 -0.0472082 0)
(0.0689856 -0.0464692 0)
(0.0744366 -0.0414649 0)
(0.077113 -0.0300331 0)
(0.0674368 -0.0190293 0)
(0.0600445 -0.01324 0)
(0.0574699 -0.0100713 0)
(0.0569858 -0.00804676 0)
(0.0569693 -0.00667 0)
(0.0572904 -0.00556169 0)
(0.058407 -0.00427115 0)
(0.0614131 -0.000616173 0)
(0.0601286 0.017028 0)
(0.0471606 0.0285837 0)
(0.0593639 0.035919 0)
(-0.112747 0.0808171 0)
(0.53908 0.362169 0)
(-0.22114 0.162005 0)
(-0.0866762 0.131989 0)
(-0.124536 0.0958658 0)
(-0.143935 0.0580119 0)
(-0.155987 0.0128611 0)
(-0.153292 -0.041848 0)
(-0.132985 -0.101408 0)
(-0.103246 -0.150026 0)
(-0.0696951 -0.176394 0)
(-0.0378506 -0.176763 0)
(-0.0112832 -0.15176 0)
(0.0116845 -0.105895 0)
(0.0303778 -0.0590962 0)
(0.0456106 -0.019152 0)
(0.0555488 0.00966664 0)
(0.0676764 0.0364449 0)
(0.0563062 0.0725065 0)
(0.100634 0.0866699 0)
(0.0945376 0.00164437 0)
(0.0799712 -0.0335605 0)
(0.075283 -0.0436927 0)
(0.0721073 -0.0441197 0)
(0.066503 -0.0385651 0)
(0.067401 -0.0234469 0)
(0.080038 -0.0154582 0)
(0.0902777 -0.0111768 0)
(0.0963548 -0.00849394 0)
(0.0998368 -0.00621964 0)
(0.10098 -0.00378906 0)
(0.0984196 -0.000746899 0)
(0.0908613 0.00331278 0)
(0.0762214 0.0090916 0)
(0.0590073 0.0282204 0)
(0.0420547 0.0445165 0)
(0.0678923 0.0568628 0)
(-0.157408 0.102587 0)
(0.676946 0.422062 0)
(-0.267183 0.194978 0)
(-0.0389432 0.1544 0)
(-0.0760009 0.11286 0)
(-0.0880279 0.070424 0)
(-0.0968048 0.0177132 0)
(-0.0896982 -0.0500548 0)
(-0.066793 -0.124988 0)
(-0.0435186 -0.179646 0)
(-0.0210349 -0.205603 0)
(-0.00232216 -0.201722 0)
(0.0117663 -0.170682 0)
(0.0230944 -0.12333 0)
(0.0332359 -0.0731193 0)
(0.0419924 -0.0295888 0)
(0.0500797 0.00403463 0)
(0.0611823 0.0299611 0)
(0.0723371 0.0407459 0)
(0.0885497 0.0086644 0)
(0.0880594 -0.0229047 0)
(0.0810259 -0.0356843 0)
(0.0722886 -0.0394135 0)
(0.0641564 -0.0381171 0)
(0.057395 -0.0317298 0)
(0.056299 -0.0186372 0)
(0.0609028 -0.0109366 0)
(0.0661375 -0.00758699 0)
(0.0705172 -0.00546993 0)
(0.0741654 -0.00271791 0)
(0.0768295 0.00159717 0)
(0.0772118 0.00751674 0)
(0.0744881 0.0151637 0)
(0.0684209 0.025208 0)
(0.0602398 0.0409682 0)
(0.0469516 0.058337 0)
(0.0787955 0.0781361 0)
(-0.0196165 0.10915 0)
(0.0504546 0.16694 0)
(-0.0973798 0.0844289 0)
(-0.29133 0.00181987 0)
(0.78284 0.471464 0)
(-0.315627 0.216698 0)
(0.00251038 0.15603 0)
(-0.025244 0.120466 0)
(-0.0282918 0.0789592 0)
(-0.0323684 0.0230788 0)
(-0.00890968 -0.0605939 0)
(0.0153627 -0.14816 0)
(0.0281886 -0.199942 0)
(0.0362436 -0.220224 0)
(0.0390338 -0.211225 0)
(0.0379927 -0.177528 0)
(0.0357122 -0.128584 0)
(0.0339032 -0.0772525 0)
(0.0334416 -0.0337418 0)
(0.0355658 -0.00220436 0)
(0.0426509 0.0183958 0)
(0.0540648 0.0224469 0)
(0.0637958 0.00493263 0)
(0.0642864 -0.0124582 0)
(0.0581719 -0.0240337 0)
(0.049509 -0.0294322 0)
(0.041235 -0.0298846 0)
(0.0347951 -0.0261911 0)
(0.0322743 -0.0193489 0)
(0.0339255 -0.014889 0)
(0.0375475 -0.0128363 0)
(0.0418875 -0.0111268 0)
(0.0465598 -0.00813185 0)
(0.0511814 -0.0026859 0)
(0.0554698 0.00560429 0)
(0.0576708 0.0160651 0)
(0.0583938 0.0286152 0)
(0.059194 0.0440321 0)
(0.0568976 0.0611324 0)
(0.0829189 0.0831353 0)
(0.0636549 0.0953588 0)
(0.102228 0.103809 0)
(0.124497 0.0579104 0)
(-0.148551 -0.0397022 0)
(0.842457 0.515826 0)
(-0.344272 0.199984 0)
(0.0363925 0.108217 0)
(0.0369983 0.108085 0)
(0.0398319 0.0759493 0)
(0.049519 0.0062421 0)
(0.0882653 -0.0890049 0)
(0.105468 -0.162012 0)
(0.106541 -0.20505 0)
(0.0977889 -0.217894 0)
(0.0821007 -0.203831 0)
(0.062716 -0.167712 0)
(0.0434797 -0.118729 0)
(0.0274038 -0.0688278 0)
(0.0164822 -0.0285454 0)
(0.0120684 -0.00257622 0)
(0.0155488 0.0113529 0)
(0.0236966 0.0131778 0)
(0.0295328 0.00327284 0)
(0.0295158 -0.0085359 0)
(0.0247493 -0.0174373 0)
(0.0176061 -0.0220296 0)
(0.0103932 -0.0230514 0)
(0.00466528 -0.0215551 0)
(0.00193529 -0.0187652 0)
(0.00244281 -0.0171301 0)
(0.00493544 -0.0166035 0)
(0.00853576 -0.0158548 0)
(0.0130329 -0.0136195 0)
(0.0184699 -0.00866083 0)
(0.0258907 0.000211745 0)
(0.0336464 0.0118737 0)
(0.0405646 0.0246661 0)
(0.0488204 0.0385845 0)
(0.0565725 0.0527449 0)
(0.0787705 0.0702154 0)
(0.0915662 0.0744002 0)
(0.126837 0.0646388 0)
(0.174684 0.0491044 0)
(-0.0113663 0.0970766 0)
(0.952234 0.517608 0)
(-0.0724152 0.180856 0)
(0.115442 0.0492015 0)
(0.162977 0.0363957 0)
(0.157209 0.00575537 0)
(0.18217 -0.0598541 0)
(0.207388 -0.120016 0)
(0.20718 -0.167034 0)
(0.187438 -0.192973 0)
(0.155408 -0.195038 0)
(0.116204 -0.175699 0)
(0.0749314 -0.13867 0)
(0.0371284 -0.0921739 0)
(0.00730823 -0.0472856 0)
(-0.0112455 -0.0149312 0)
(-0.0177097 0.000388029 0)
(-0.0161891 0.00726988 0)
(-0.0112348 0.00753286 0)
(-0.00796507 0.00166559 0)
(-0.00848262 -0.00588355 0)
(-0.0124017 -0.0119005 0)
(-0.0181726 -0.0153768 0)
(-0.0240617 -0.0168927 0)
(-0.0288364 -0.0173224 0)
(-0.0316968 -0.017458 0)
(-0.0327431 -0.0179982 0)
(-0.0326709 -0.0187453 0)
(-0.031902 -0.019096 0)
(-0.030411 -0.0184395 0)
(-0.0278152 -0.0161468 0)
(-0.023038 -0.011428 0)
(-0.0122858 -0.00346998 0)
(-0.000706253 0.00672118 0)
(0.0115597 0.0163138 0)
(0.023279 0.0235897 0)
(0.0414435 0.0315016 0)
(0.0564449 0.0259195 0)
(0.080696 0.00703224 0)
(0.150619 0.0532406 0)
(-0.477953 0.228779 0)
(1.10035 0.455783 0)
(0.542997 0.305209 0)
(0.543989 0.251187 0)
(0.517785 0.173691 0)
(0.466282 0.101207 0)
(0.423189 0.0248724 0)
(0.368699 -0.0509857 0)
(0.309459 -0.109115 0)
(0.247608 -0.139818 0)
(0.183463 -0.14271 0)
(0.118244 -0.124674 0)
(0.0559365 -0.0910243 0)
(0.00386882 -0.0506883 0)
(-0.0304785 -0.0186412 0)
(-0.0448652 -0.00399428 0)
(-0.0498432 0.00222994 0)
(-0.049103 0.00448186 0)
(-0.0466534 0.0037869 0)
(-0.0453313 0.000392852 0)
(-0.0462157 -0.00408302 0)
(-0.0493373 -0.00811163 0)
(-0.0537662 -0.0110957 0)
(-0.0585006 -0.0132113 0)
(-0.0629334 -0.0147739 0)
(-0.0668905 -0.0160243 0)
(-0.0706421 -0.0170879 0)
(-0.0746369 -0.0177618 0)
(-0.0792325 -0.0176265 0)
(-0.0847375 -0.0161497 0)
(-0.0915829 -0.0126754 0)
(-0.100455 -0.00635053 0)
(-0.112031 0.00357017 0)
(-0.123888 0.01682 0)
(-0.141193 0.0334529 0)
(-0.169723 0.0533047 0)
(-0.212094 0.0744693 0)
(-0.270265 0.091523 0)
(-0.333002 0.100313 0)
(-0.410807 0.0997942 0)
(-0.695325 0.0888511 0)
(0.231489 0.169181 0)
(0.300508 0.169071 0)
(0.311599 0.0989459 0)
(0.282886 0.0222938 0)
(0.253771 -0.0357425 0)
(0.213888 -0.0709135 0)
(0.164162 -0.0849953 0)
(0.106361 -0.0788462 0)
(0.043462 -0.0601066 0)
(-0.0205275 -0.0314471 0)
(-0.0560286 -0.0130992 0)
(-0.0736828 -0.00488535 0)
(-0.0801428 -0.00271285 0)
(-0.0814204 -0.00264943 0)
(-0.0806524 -0.00337499 0)
(-0.0793574 -0.00495234 0)
(-0.0788397 -0.00756046 0)
(-0.0795074 -0.0103949 0)
(-0.0814026 -0.0129538 0)
(-0.0841817 -0.0151847 0)
(-0.0875783 -0.0170646 0)
(-0.0915422 -0.0186085 0)
(-0.0962012 -0.0198077 0)
(-0.101763 -0.0205703 0)
(-0.108356 -0.0206043 0)
(-0.115897 -0.0193903 0)
(-0.123996 -0.0162149 0)
(-0.131886 -0.0102774 0)
(-0.138583 -0.000783616 0)
(-0.143155 0.0118776 0)
(-0.146591 0.0283863 0)
(-0.149652 0.0492261 0)
(-0.154048 0.0733377 0)
(-0.160774 0.0961551 0)
(-0.16578 0.106087 0)
(-0.15083 0.0795691 0)
(-0.108043 -0.0301952 0)
(-0.292696 -0.239446 0)
(0.13784 0.385097 0)
(0.0156285 0.22585 0)
(0.0447338 0.118404 0)
(0.0576157 0.0515815 0)
(0.0620075 0.0151066 0)
(0.0461918 -0.0109588 0)
(0.0102261 -0.0138132 0)
(-0.0375725 0.012019 0)
(-0.0756078 0.030485 0)
(-0.0985671 0.0399723 0)
(-0.107873 0.0432258 0)
(-0.110106 0.0441845 0)
(-0.109706 0.045133 0)
(-0.108391 0.0465795 0)
(-0.106763 0.0486017 0)
(-0.105153 0.0508382 0)
(-0.104068 0.0525692 0)
(-0.103712 0.0526145 0)
(-0.104068 0.0522182 0)
(-0.105129 0.052069 0)
(-0.10682 0.0520834 0)
(-0.109044 0.0521939 0)
(-0.111714 0.0522818 0)
(-0.114761 0.0521404 0)
(-0.118099 0.0515424 0)
(-0.121602 0.0502678 0)
(-0.125078 0.0480715 0)
(-0.128102 0.04452 0)
(-0.129577 0.0411481 0)
(-0.127833 0.0409798 0)
(-0.121042 0.0458262 0)
(-0.107879 0.0570458 0)
(-0.0888028 0.0747751 0)
(-0.0654185 0.094706 0)
(-0.0401641 0.108372 0)
(0.000251068 0.0965394 0)
(0.145611 0.0155986 0)
(-0.205141 -0.157627 0)
(-0.513467 -0.57533 0)
(-0.708402 -0.154366 0)
(-0.472051 0.219661 0)
(-0.363578 0.050836 0)
(-0.19659 -0.0438397 0)
(-0.132564 -0.109571 0)
(-0.116614 -0.136585 0)
(-0.122143 -0.130201 0)
(-0.138522 -0.122141 0)
(-0.145273 -0.115721 0)
(-0.14257 -0.112148 0)
(-0.136943 -0.112908 0)
(-0.130551 -0.118061 0)
(-0.12507 -0.124522 0)
(-0.120797 -0.130659 0)
(-0.117355 -0.136643 0)
(-0.114493 -0.143029 0)
(-0.112199 -0.150129 0)
(-0.110727 -0.15725 0)
(-0.110516 -0.162747 0)
(-0.111814 -0.167034 0)
(-0.114354 -0.169964 0)
(-0.117742 -0.171512 0)
(-0.121622 -0.171673 0)
(-0.125646 -0.170379 0)
(-0.129483 -0.167451 0)
(-0.132788 -0.162598 0)
(-0.135158 -0.155411 0)
(-0.136138 -0.145323 0)
(-0.135237 -0.131568 0)
(-0.131628 -0.115289 0)
(-0.123162 -0.097248 0)
(-0.106494 -0.0775322 0)
(-0.0788877 -0.0554515 0)
(-0.0409802 -0.0300868 0)
(0.0212305 0.00184582 0)
(0.0788536 0.00559269 0)
(0.132844 -0.019854 0)
(0.187756 -0.0725971 0)
(-0.151707 -0.149616 0)
)
;

boundaryField
{
    floor
    {
        type            noSlip;
    }
    ceiling
    {
        type            noSlip;
    }
    sWall
    {
        type            noSlip;
    }
    nWall
    {
        type            noSlip;
    }
    sideWalls
    {
        type            empty;
    }
    glass1
    {
        type            noSlip;
    }
    glass2
    {
        type            noSlip;
    }
    sun
    {
        type            noSlip;
    }
    Table_master
    {
        type            noSlip;
    }
    Table_slave
    {
        type            noSlip;
    }
    inlet
    {
        type            fixedValue;
        value           uniform (0.5 0 0);
    }
    outlet
    {
        type            zeroGradient;
    }
}


// ************************************************************************* //
