/*--------------------------------*- C++ -*----------------------------------*\
  =========                 |
  \\      /  F ield         | OpenFOAM: The Open Source CFD Toolbox
   \\    /   O peration     | Website:  https://openfoam.org
    \\  /    A nd           | Version:  6
     \\/     M anipulation  |
\*---------------------------------------------------------------------------*/
FoamFile
{
    version     2.0;
    format      ascii;
    class       volScalarField;
    location    "920";
    object      k;
}
// * * * * * * * * * * * * * * * * * * * * * * * * * * * * * * * * * * * * * //

dimensions      [0 2 -2 0 0 0 0];

internalField   nonuniform List<scalar> 
458
(
0.00226805
0.00268637
0.00280917
0.0030844
0.00334929
0.00361014
0.00388089
0.00416578
0.00440614
0.00456055
0.00457801
0.00441311
0.00402217
0.00325454
0.00187353
0.000457652
0.000628912
0.000808391
0.000878921
0.000851643
0.000745785
0.000636851
0.000546669
0.000474118
0.000415293
0.000367108
0.000327384
0.000294062
0.000265269
0.00023933
0.000214626
0.00020058
0.000169421
0.00412344
0.00755231
0.00415095
0.00437498
0.00471698
0.00513644
0.00563372
0.00619823
0.00680236
0.00731482
0.00759009
0.00753252
0.00712487
0.00635528
0.00513893
0.00326451
0.00224698
0.00149576
0.000450313
0.000973187
0.00130339
0.00145855
0.00147295
0.00125957
0.0010245
0.000834135
0.000688831
0.00057739
0.000490713
0.000421549
0.000364728
0.000317463
0.000283529
0.000264394
0.000493827
0.000292746
0.00609572
0.0136494
0.00491235
0.00472597
0.00494276
0.00528743
0.00575248
0.00634279
0.00699605
0.00755283
0.00789487
0.00795205
0.00769527
0.00706184
0.00603804
0.00488916
0.00391926
0.00208671
0.00106813
0.00139975
0.00160372
0.00173062
0.0017231
0.00134737
0.00103271
0.000802751
0.000637695
0.000518329
0.000430661
0.00036538
0.000316506
0.000280918
0.000262159
0.000265453
0.000780264
0.000408842
0.00835961
0.0222365
0.00592815
0.00470795
0.00474766
0.00501784
0.00547526
0.00616989
0.00689464
0.00746534
0.0078363
0.0079562
0.00775057
0.00714745
0.00628828
0.00543668
0.00463323
0.00350095
0.00276957
0.0025073
0.00237449
0.0023386
0.00229008
0.0021524
0.00170988
0.00143675
0.00126432
0.00114411
0.00104714
0.000954982
0.000871414
0.000787267
0.000694321
0.000530263
0.0004228
0.00113246
0.000542372
0.011042
0.0339571
0.00842529
0.00475093
0.00448412
0.00470949
0.00530119
0.00635699
0.00718678
0.00774142
0.00809728
0.00819962
0.00790262
0.00718428
0.00621735
0.00531024
0.00458059
0.00397925
0.00379527
0.0034801
0.00325313
0.0030713
0.00285994
0.00259102
0.00230333
0.00210719
0.00198708
0.00189234
0.00179026
0.00166147
0.00149216
0.00129934
0.00109403
0.000865783
0.000664833
0.000922216
0.00106377
0.00096941
0.00108635
0.00128347
0.0143265
0.046688
0.0149518
0.00592471
0.00474386
0.00478478
0.00570967
0.00726911
0.00803367
0.00847616
0.00874075
0.00874996
0.00832244
0.00738059
0.00612596
0.00496727
0.00418463
0.00384255
0.00381483
0.00382382
0.00373265
0.0035096
0.00319016
0.00283578
0.00254862
0.00239601
0.00232228
0.00226363
0.00218546
0.00206551
0.00187866
0.0016491
0.00140051
0.00114692
0.00093571
0.000900778
0.00103009
0.00105445
0.00165139
0.00138072
0.0179763
0.0550468
0.0270787
0.0123636
0.00831143
0.00741541
0.0085084
0.00921223
0.00948803
0.00964766
0.00973193
0.00958587
0.0089493
0.00771108
0.00611152
0.00469997
0.00388795
0.00373693
0.00389922
0.00398361
0.00385451
0.00355138
0.00317204
0.0028129
0.00256828
0.00246922
0.00245225
0.0024575
0.00245532
0.00242483
0.0023363
0.00214751
0.00191094
0.00165921
0.00145745
0.00136478
0.00145111
0.00168162
0.00223402
0.00194893
0.0189411
0.0568404
0.0383017
0.0271737
0.019746
0.0158859
0.013729
0.0122912
0.0115386
0.0112145
0.0110121
0.0106123
0.00964855
0.00799639
0.00597541
0.00439342
0.00367823
0.0036562
0.00378067
0.00375103
0.00351771
0.00317099
0.00282101
0.00255136
0.00240871
0.00238421
0.00243171
0.00251777
0.00263044
0.00276726
0.00292555
0.00306715
0.00310957
0.00313922
0.00329241
0.00386931
0.00511941
0.00681566
0.0128311
0.00467718
0.0182046
0.0264662
0.0243621
0.0217105
0.0188866
0.0164651
0.0146554
0.0135926
0.0130892
0.0127709
0.0123604
0.011599
0.0100733
0.00777047
0.0051601
0.00385844
0.00340337
0.00331033
0.00325375
0.00309209
0.00282418
0.00252847
0.00228325
0.00213485
0.00208936
0.00212356
0.00220981
0.0023332
0.0024901
0.00268167
0.00290933
0.00317121
0.00348981
0.00390104
0.00444789
0.00509753
0.0056968
0.00606933
0.00624886
0.00408135
0.00718405
0.0110937
0.0135424
0.0147744
0.0154399
0.0157115
0.0153817
0.0144569
0.0132176
0.0115889
0.00880985
0.00585867
0.00403621
0.00322568
0.00288162
0.00270052
0.00252819
0.00231835
0.00209106
0.00188823
0.00175209
0.00169312
0.00169783
0.00174765
0.00182975
0.00193921
0.00207744
0.0022511
0.00247286
0.00276576
0.00313122
0.00356701
0.00405091
0.00449042
0.00471257
0.00457281
0.00410687
0.00264226
0.00805071
0.0194725
0.0216159
0.0215062
0.0207332
0.0184811
0.0153423
0.0120178
0.00883537
0.00623657
0.00435123
0.00326383
0.00271595
0.00241189
0.00221003
0.00203193
0.00184718
0.00166428
0.00150869
0.00139848
0.00133783
0.00132594
0.00135473
0.00141855
0.00151577
0.00164779
0.00181791
0.00203042
0.00229585
0.00262427
0.0030243
0.00349675
0.00401533
0.00451211
0.00481677
0.00510141
0.00428743
0.0027114
0.00890517
0.0093506
0.00976447
0.0120864
0.0107981
0.0084793
0.00603529
0.00437074
0.00348277
0.00273216
0.00214624
0.0017367
0.00142362
0.00120705
0.00106705
0.00097022
0.000895691
0.000833959
0.000784656
0.000752234
0.000740312
0.000749246
0.000776098
0.00081643
0.00086885
0.000933077
0.0010098
0.00110069
0.00120877
0.00133949
0.00149641
0.00168138
0.00189878
0.00215354
0.00245029
0.00283117
0.00300654
0.00288466
0.00249562
0.00213476
)
;

boundaryField
{
    floor
    {
        type            kqRWallFunction;
        value           nonuniform List<scalar> 
36
(
0.00187353
0.000457652
0.000628912
0.000808391
0.000878921
0.000851643
0.000745785
0.000636851
0.000546669
0.000474118
0.000415293
0.000367108
0.000327384
0.000294062
0.000265269
0.00023933
0.000214626
0.00020058
0.000169421
0.000169421
0.000292746
0.000408842
0.000542372
0.00096941
0.00108635
0.00128347
0.00187353
0.00326451
0.00224698
0.00149576
0.000457652
0.00149576
0.000450313
0.00208671
0.00106813
0.00276957
)
;
    }
    ceiling
    {
        type            kqRWallFunction;
        value           nonuniform List<scalar> 
43
(
0.00890517
0.0093506
0.00976447
0.0120864
0.0107981
0.0084793
0.00603529
0.00437074
0.00348277
0.00273216
0.00214624
0.0017367
0.00142362
0.00120705
0.00106705
0.00097022
0.000895691
0.000833959
0.000784656
0.000752234
0.000740312
0.000749246
0.000776098
0.00081643
0.00086885
0.000933077
0.0010098
0.00110069
0.00120877
0.00133949
0.00149641
0.00168138
0.00189878
0.00215354
0.00245029
0.00283117
0.00300654
0.00288466
0.00249562
0.00213476
0.0182046
0.0264662
0.00805071
)
;
    }
    sWall
    {
        type            kqRWallFunction;
        value           uniform 0.00890517;
    }
    nWall
    {
        type            kqRWallFunction;
        value           nonuniform List<scalar> 6(0.00128347 0.00138072 0.00194893 0.00264226 0.0027114 0.00213476);
    }
    sideWalls
    {
        type            empty;
    }
    glass1
    {
        type            kqRWallFunction;
        value           nonuniform List<scalar> 9(0.00226805 0.00412344 0.00609572 0.00835961 0.011042 0.0143265 0.0179763 0.0189411 0.0182046);
    }
    glass2
    {
        type            kqRWallFunction;
        value           nonuniform List<scalar> 2(0.00467718 0.00408135);
    }
    sun
    {
        type            kqRWallFunction;
        value           nonuniform List<scalar> 
14
(
0.00226805
0.00268637
0.00280917
0.0030844
0.00334929
0.00361014
0.00388089
0.00416578
0.00440614
0.00456055
0.00457801
0.00441311
0.00402217
0.00325454
)
;
    }
    Table_master
    {
        type            kqRWallFunction;
        value           nonuniform List<scalar> 9(0.00134737 0.00103271 0.000802751 0.000637695 0.000518329 0.000430661 0.00036538 0.000316506 0.000280918);
    }
    Table_slave
    {
        type            kqRWallFunction;
        value           nonuniform List<scalar> 9(0.00170988 0.00143675 0.00126432 0.00114411 0.00104714 0.000954982 0.000871414 0.000787267 0.000694321);
    }
    inlet
    {
        type            turbulentIntensityKineticEnergyInlet;
        intensity       0.05;
        value           uniform 0.000937501;
    }
    outlet
    {
        type            zeroGradient;
    }
}


// ************************************************************************* //
