/*--------------------------------*- C++ -*----------------------------------*\
  =========                 |
  \\      /  F ield         | OpenFOAM: The Open Source CFD Toolbox
   \\    /   O peration     | Website:  https://openfoam.org
    \\  /    A nd           | Version:  6
     \\/     M anipulation  |
\*---------------------------------------------------------------------------*/
FoamFile
{
    version     2.0;
    format      ascii;
    class       volVectorField;
    location    "1370";
    object      U;
}
// * * * * * * * * * * * * * * * * * * * * * * * * * * * * * * * * * * * * * //

dimensions      [0 1 -1 0 0 0 0];

internalField   nonuniform List<vector> 
458
(
(0.034811 0.0885259 0)
(-0.172088 0.0265866 0)
(-0.199361 0.0191141 0)
(-0.233238 0.0130814 0)
(-0.258412 0.0064136 0)
(-0.273617 -0.000805385 0)
(-0.276745 -0.00877917 0)
(-0.265497 -0.0177796 0)
(-0.239437 -0.027429 0)
(-0.199722 -0.0361141 0)
(-0.150454 -0.042054 0)
(-0.0978339 -0.0436535 0)
(-0.0487315 -0.0390827 0)
(-0.00627153 -0.0236853 0)
(-0.0102662 0.00977233 0)
(-0.0102231 0.0105028 0)
(-0.0372414 -0.0175018 0)
(-0.0144895 -0.0291235 0)
(0.0137214 -0.0251943 0)
(0.0334905 -0.0178986 0)
(0.0481142 -0.00956063 0)
(0.0568754 -0.00518035 0)
(0.0607521 -0.00363565 0)
(0.0621852 -0.00308562 0)
(0.0628326 -0.00276208 0)
(0.0631404 -0.00251122 0)
(0.0630775 -0.00224307 0)
(0.0624777 -0.00179845 0)
(0.0608834 -0.000838904 0)
(0.0572773 0.00107569 0)
(0.0505513 0.00317472 0)
(0.0451318 0.00509488 0)
(-0.0141238 0.0219568 0)
(0.214256 0.181897 0)
(-0.16215 0.0709997 0)
(-0.16295 0.0577661 0)
(-0.198666 0.0457457 0)
(-0.224143 0.0319896 0)
(-0.24012 0.0161759 0)
(-0.244622 -0.00241096 0)
(-0.235124 -0.0239691 0)
(-0.211873 -0.0461734 0)
(-0.176489 -0.0649312 0)
(-0.133357 -0.0764318 0)
(-0.0881258 -0.0782035 0)
(-0.0462578 -0.068733 0)
(-0.0100246 -0.0460186 0)
(0.0194113 -0.0133818 0)
(0.0442434 0.00785028 0)
(0.0548459 0.0347578 0)
(-0.0118098 0.0706804 0)
(0.0670563 0.0439664 0)
(0.0103057 -0.0218386 0)
(0.0265239 -0.0379106 0)
(0.0407592 -0.0356605 0)
(0.053155 -0.0273558 0)
(0.0595872 -0.0120962 0)
(0.061209 -0.0027508 0)
(0.0612569 0.000749744 0)
(0.0614202 0.002027 0)
(0.0617451 0.00272647 0)
(0.0619701 0.00322638 0)
(0.0620273 0.00367923 0)
(0.0619227 0.00441168 0)
(0.0612108 0.00621054 0)
(0.0578129 0.0112307 0)
(0.0491188 0.0155456 0)
(0.0476995 0.0187229 0)
(-0.0584022 0.0475654 0)
(0.379515 0.272966 0)
(-0.180115 0.113742 0)
(-0.123516 0.0941143 0)
(-0.159201 0.0724371 0)
(-0.182603 0.0495039 0)
(-0.198413 0.0236421 0)
(-0.204064 -0.00653742 0)
(-0.195373 -0.0409845 0)
(-0.173588 -0.0757868 0)
(-0.141419 -0.103656 0)
(-0.103834 -0.11896 0)
(-0.0658873 -0.119162 0)
(-0.0318152 -0.104122 0)
(-0.00227026 -0.074398 0)
(0.0220348 -0.040073 0)
(0.0375978 -0.0152172 0)
(0.0431767 0.0131648 0)
(-0.0236637 0.0623144 0)
(0.122496 -0.00755054 0)
(0.0724851 -0.0321025 0)
(0.0642806 -0.0419415 0)
(0.0672308 -0.041776 0)
(0.0718442 -0.0380709 0)
(0.0734832 -0.0282402 0)
(0.0643587 -0.018333 0)
(0.057401 -0.0130276 0)
(0.0548031 -0.0100785 0)
(0.0541142 -0.00818511 0)
(0.0538827 -0.00689649 0)
(0.0539555 -0.00590101 0)
(0.0547575 -0.00475106 0)
(0.0572121 -0.00139453 0)
(0.0561119 0.0149998 0)
(0.0445983 0.0258887 0)
(0.0541293 0.0332722 0)
(-0.0993536 0.0728152 0)
(0.53001 0.346665 0)
(-0.216664 0.151765 0)
(-0.0801999 0.125841 0)
(-0.115537 0.0962988 0)
(-0.133414 0.0672241 0)
(-0.146925 0.0337613 0)
(-0.152509 -0.00711565 0)
(-0.14261 -0.0550618 0)
(-0.121274 -0.102317 0)
(-0.0929633 -0.137847 0)
(-0.0625161 -0.155433 0)
(-0.033557 -0.153432 0)
(-0.00878348 -0.133438 0)
(0.0128767 -0.097921 0)
(0.0304401 -0.0589673 0)
(0.0443578 -0.0228889 0)
(0.0599472 0.0131555 0)
(0.0588036 0.0534422 0)
(0.100298 0.0615139 0)
(0.098764 -0.00244003 0)
(0.0850849 -0.0293912 0)
(0.078396 -0.0376976 0)
(0.0735399 -0.0384105 0)
(0.0669352 -0.0341347 0)
(0.0665077 -0.0208503 0)
(0.0771936 -0.0138372 0)
(0.0861681 -0.0101137 0)
(0.0915792 -0.0078312 0)
(0.0948319 -0.00592416 0)
(0.0962536 -0.00386343 0)
(0.0944984 -0.00119709 0)
(0.0882458 0.00247461 0)
(0.07571 0.00773801 0)
(0.0598023 0.025096 0)
(0.044067 0.0406051 0)
(0.0629712 0.0533712 0)
(-0.131361 0.0943014 0)
(0.662664 0.403823 0)
(-0.262347 0.182686 0)
(-0.0350323 0.145261 0)
(-0.0687443 0.111319 0)
(-0.0779379 0.0792309 0)
(-0.0862832 0.0412458 0)
(-0.0890349 -0.00799424 0)
(-0.0740056 -0.068827 0)
(-0.0534587 -0.125911 0)
(-0.031554 -0.165081 0)
(-0.0112513 -0.181849 0)
(0.00618419 -0.175994 0)
(0.0193457 -0.151481 0)
(0.0303614 -0.114532 0)
(0.0402063 -0.0729459 0)
(0.049442 -0.0337053 0)
(0.0619287 0.000695693 0)
(0.0760132 0.0197386 0)
(0.0902869 -0.000540136 0)
(0.0896296 -0.021354 0)
(0.0825487 -0.0300229 0)
(0.0737317 -0.0325472 0)
(0.065479 -0.0316372 0)
(0.058528 -0.0266471 0)
(0.0567464 -0.0155237 0)
(0.0603078 -0.00903977 0)
(0.0646602 -0.00638926 0)
(0.068396 -0.0048502 0)
(0.0716525 -0.0027722 0)
(0.0741714 0.000759438 0)
(0.0750359 0.00595122 0)
(0.0731517 0.0129749 0)
(0.0682474 0.0224304 0)
(0.0612026 0.0371743 0)
(0.0500508 0.0536524 0)
(0.0748515 0.0727755 0)
(-0.00684737 0.101407 0)
(0.0557713 0.150673 0)
(-0.0835362 0.0748239 0)
(-0.277794 0.000474251 0)
(0.761873 0.451337 0)
(-0.308544 0.203345 0)
(0.00243196 0.143886 0)
(-0.0205777 0.116256 0)
(-0.0197788 0.0857167 0)
(-0.0214855 0.0472893 0)
(-0.0142908 -0.00694481 0)
(0.0103509 -0.0859485 0)
(0.0269566 -0.146203 0)
(0.0388593 -0.182429 0)
(0.0460775 -0.194558 0)
(0.0489231 -0.185053 0)
(0.0486562 -0.158117 0)
(0.0472488 -0.119908 0)
(0.0460697 -0.07792 0)
(0.0464767 -0.0396786 0)
(0.0508153 -0.00995552 0)
(0.0599436 0.00486473 0)
(0.0662041 -0.00101375 0)
(0.0649387 -0.0109843 0)
(0.0585403 -0.0187866 0)
(0.0503594 -0.0229016 0)
(0.0427143 -0.023663 0)
(0.0367346 -0.0211466 0)
(0.0341852 -0.0157873 0)
(0.0353417 -0.0123164 0)
(0.0383052 -0.0108908 0)
(0.0419719 -0.00980703 0)
(0.0460429 -0.00767342 0)
(0.0502364 -0.00341889 0)
(0.0544599 0.00365583 0)
(0.0569853 0.0131683 0)
(0.0581539 0.0249343 0)
(0.0592774 0.039576 0)
(0.0583526 0.0560211 0)
(0.0796994 0.0767226 0)
(0.0654385 0.0890102 0)
(0.0997152 0.0967421 0)
(0.117479 0.0571977 0)
(-0.136908 -0.0299421 0)
(0.815604 0.494202 0)
(-0.334116 0.187373 0)
(0.0322435 0.0937955 0)
(0.0390704 0.101044 0)
(0.0459451 0.0829873 0)
(0.0516441 0.0393545 0)
(0.0791333 -0.0311938 0)
(0.103148 -0.103723 0)
(0.113324 -0.157028 0)
(0.112899 -0.186336 0)
(0.104616 -0.192433 0)
(0.0908215 -0.178775 0)
(0.074123 -0.149764 0)
(0.0575268 -0.111549 0)
(0.0429921 -0.0708841 0)
(0.0326264 -0.0356553 0)
(0.0280953 -0.0107051 0)
(0.0294763 0.00104993 0)
(0.0310981 -0.000226902 0)
(0.0295868 -0.0065263 0)
(0.0249253 -0.0126002 0)
(0.0187988 -0.016352 0)
(0.0127688 -0.0177409 0)
(0.00796204 -0.0171168 0)
(0.0056043 -0.0152177 0)
(0.00595209 -0.0141316 0)
(0.00799739 -0.014005 0)
(0.0110016 -0.0137839 0)
(0.0148021 -0.0124057 0)
(0.0194851 -0.00878396 0)
(0.0256523 -0.0016758 0)
(0.0332769 0.00884415 0)
(0.0400475 0.0208795 0)
(0.0478549 0.03416 0)
(0.0558538 0.0479768 0)
(0.0754364 0.0644798 0)
(0.088222 0.0697899 0)
(0.119668 0.063215 0)
(0.163391 0.0513007 0)
(-0.020336 0.0954808 0)
(0.921862 0.497295 0)
(-0.0766613 0.167423 0)
(0.110616 0.0261562 0)
(0.163751 0.0227746 0)
(0.161422 0.0155191 0)
(0.162897 -0.029399 0)
(0.196532 -0.0804398 0)
(0.211314 -0.125565 0)
(0.2054 -0.15829 0)
(0.185128 -0.173985 0)
(0.155617 -0.171672 0)
(0.121112 -0.153969 0)
(0.085313 -0.124266 0)
(0.0523837 -0.0880583 0)
(0.0244727 -0.051026 0)
(0.00511498 -0.0218733 0)
(-0.00464742 -0.00435951 0)
(-0.00658334 0.00182994 0)
(-0.00647156 0.000725231 0)
(-0.00767783 -0.00361387 0)
(-0.0109819 -0.00797826 0)
(-0.0154825 -0.0110566 0)
(-0.0201176 -0.012847 0)
(-0.0239797 -0.0136998 0)
(-0.026359 -0.0141624 0)
(-0.0272488 -0.0149212 0)
(-0.0272122 -0.0159114 0)
(-0.0266303 -0.0166284 0)
(-0.0255037 -0.0165434 0)
(-0.0235255 -0.015079 0)
(-0.0199026 -0.0115044 0)
(-0.0117609 -0.00494184 0)
(-0.000127466 0.00444007 0)
(0.0110554 0.0137609 0)
(0.0226619 0.0208798 0)
(0.0398822 0.0277549 0)
(0.0554214 0.0224514 0)
(0.0795681 0.00564907 0)
(0.146406 0.0479718 0)
(-0.428345 0.212661 0)
(1.0659 0.44417 0)
(0.518242 0.298304 0)
(0.529541 0.249851 0)
(0.518411 0.18289 0)
(0.469872 0.122417 0)
(0.433207 0.0600912 0)
(0.392089 -0.00744636 0)
(0.34288 -0.0669975 0)
(0.289117 -0.10787 0)
(0.232772 -0.126608 0)
(0.175381 -0.12509 0)
(0.118914 -0.108902 0)
(0.0654607 -0.0822727 0)
(0.0202369 -0.0512398 0)
(-0.0161125 -0.0207922 0)
(-0.032967 -0.00599907 0)
(-0.040157 0.000517713 0)
(-0.0416995 0.00227963 0)
(-0.0420736 0.00107125 0)
(-0.043213 -0.00158816 0)
(-0.0458375 -0.00448131 0)
(-0.0494835 -0.00702531 0)
(-0.0535066 -0.00913749 0)
(-0.0573697 -0.0108828 0)
(-0.0608169 -0.0123948 0)
(-0.0640119 -0.0137816 0)
(-0.0673584 -0.0148855 0)
(-0.0712302 -0.015344 0)
(-0.0759807 -0.0146737 0)
(-0.082082 -0.0122216 0)
(-0.0902255 -0.00714933 0)
(-0.101136 0.00140196 0)
(-0.112778 0.013308 0)
(-0.128001 0.0284099 0)
(-0.152916 0.0467854 0)
(-0.190234 0.0673941 0)
(-0.241636 0.0862218 0)
(-0.297569 0.0999085 0)
(-0.371653 0.106895 0)
(-0.650666 0.106283 0)
(0.233936 0.0528109 0)
(0.305895 0.115926 0)
(0.321222 0.0913213 0)
(0.299647 0.0395308 0)
(0.275055 -0.0106396 0)
(0.244387 -0.0469611 0)
(0.203092 -0.0684194 0)
(0.153989 -0.075406 0)
(0.100415 -0.0686834 0)
(0.0461353 -0.0529014 0)
(-0.00866722 -0.0294894 0)
(-0.0451667 -0.0114549 0)
(-0.0636306 -0.00306904 0)
(-0.0709512 -0.000675152 0)
(-0.0731672 -0.000201891 0)
(-0.0734712 -0.00090237 0)
(-0.0737595 -0.00250991 0)
(-0.0748906 -0.00461711 0)
(-0.0770926 -0.00672268 0)
(-0.0803404 -0.00851619 0)
(-0.0841305 -0.010005 0)
(-0.0882344 -0.011141 0)
(-0.0926643 -0.011926 0)
(-0.097574 -0.0123263 0)
(-0.103113 -0.012157 0)
(-0.109313 -0.0110698 0)
(-0.11604 -0.00859648 0)
(-0.122949 -0.00419291 0)
(-0.129419 0.00270592 0)
(-0.134402 0.0123126 0)
(-0.138372 0.0256011 0)
(-0.141808 0.0431713 0)
(-0.146017 0.064222 0)
(-0.151768 0.0850551 0)
(-0.155352 0.095551 0)
(-0.141293 0.0734017 0)
(-0.110221 -0.0250127 0)
(-0.286614 -0.213745 0)
(0.120039 0.324318 0)
(0.00838183 0.203565 0)
(0.039242 0.118413 0)
(0.0584418 0.0603976 0)
(0.063077 0.021598 0)
(0.0600579 -0.00480143 0)
(0.040138 -0.019909 0)
(0.00534427 -0.0189248 0)
(-0.0366579 -0.00170368 0)
(-0.0701672 0.0128727 0)
(-0.0912682 0.020866 0)
(-0.100271 0.0232493 0)
(-0.102475 0.0233777 0)
(-0.102402 0.0234276 0)
(-0.101509 0.024132 0)
(-0.100458 0.0252478 0)
(-0.0997172 0.0263776 0)
(-0.0995782 0.0271225 0)
(-0.100098 0.0270569 0)
(-0.101231 0.0258465 0)
(-0.10302 0.0238034 0)
(-0.105396 0.0215573 0)
(-0.108294 0.0193837 0)
(-0.111622 0.0174254 0)
(-0.115242 0.0157851 0)
(-0.118936 0.0145749 0)
(-0.122394 0.0139294 0)
(-0.125133 0.0140078 0)
(-0.12634 0.0155023 0)
(-0.124843 0.0198736 0)
(-0.119062 0.0282834 0)
(-0.10761 0.0417328 0)
(-0.0903448 0.0602389 0)
(-0.0683108 0.0804264 0)
(-0.0434402 0.0948383 0)
(-0.00757246 0.0857731 0)
(0.14694 0.00930005 0)
(-0.20993 -0.129687 0)
(-0.422102 -0.516016 0)
(-0.637306 -0.14328 0)
(-0.449398 0.177734 0)
(-0.357949 0.0560532 0)
(-0.213937 -0.00556124 0)
(-0.145676 -0.0477942 0)
(-0.117252 -0.0705149 0)
(-0.113081 -0.0713249 0)
(-0.122437 -0.0626487 0)
(-0.134936 -0.0549381 0)
(-0.140407 -0.0504686 0)
(-0.138644 -0.0490197 0)
(-0.134179 -0.0498814 0)
(-0.128983 -0.0526689 0)
(-0.124495 -0.0561586 0)
(-0.121016 -0.059772 0)
(-0.11818 -0.0633969 0)
(-0.115733 -0.0670886 0)
(-0.113632 -0.0706869 0)
(-0.111951 -0.0736842 0)
(-0.110829 -0.0754769 0)
(-0.110433 -0.0756298 0)
(-0.110867 -0.0742347 0)
(-0.112088 -0.0718955 0)
(-0.113915 -0.0688376 0)
(-0.11612 -0.0652012 0)
(-0.118423 -0.0610329 0)
(-0.120459 -0.0562473 0)
(-0.121747 -0.0506428 0)
(-0.121648 -0.0438374 0)
(-0.119144 -0.0358428 0)
(-0.112325 -0.0267101 0)
(-0.0983879 -0.0158974 0)
(-0.074833 -0.00249688 0)
(-0.0415435 0.0143576 0)
(0.00932471 0.0362837 0)
(0.061872 0.0423447 0)
(0.109604 0.0240413 0)
(0.172061 -0.0159458 0)
(-0.196289 -0.082688 0)
)
;

boundaryField
{
    floor
    {
        type            noSlip;
    }
    ceiling
    {
        type            noSlip;
    }
    sWall
    {
        type            noSlip;
    }
    nWall
    {
        type            noSlip;
    }
    sideWalls
    {
        type            empty;
    }
    glass1
    {
        type            noSlip;
    }
    glass2
    {
        type            noSlip;
    }
    sun
    {
        type            noSlip;
    }
    Table_master
    {
        type            noSlip;
    }
    Table_slave
    {
        type            noSlip;
    }
    inlet
    {
        type            fixedValue;
        value           uniform (0.46194 -0.191342 0);
    }
    outlet
    {
        type            zeroGradient;
    }
}


// ************************************************************************* //
