/*--------------------------------*- C++ -*----------------------------------*\
  =========                 |
  \\      /  F ield         | OpenFOAM: The Open Source CFD Toolbox
   \\    /   O peration     | Website:  https://openfoam.org
    \\  /    A nd           | Version:  6
     \\/     M anipulation  |
\*---------------------------------------------------------------------------*/
FoamFile
{
    version     2.0;
    format      ascii;
    class       volScalarField;
    location    "38099.999998774867";
    object      alphat;
}
// * * * * * * * * * * * * * * * * * * * * * * * * * * * * * * * * * * * * * //

dimensions      [1 -1 -1 0 0 0 0];

internalField   nonuniform List<scalar> 
778
(
0.00104098
0.00111055
0.00110659
0.00115465
0.0011987
0.0012387
0.00127594
0.00131184
0.00134798
0.00138637
0.00142298
0.00145774
0.00149199
0.00152882
0.00156725
0.000736808
0.00105528
0.00106376
0.00103795
0.000994842
0.000937326
0.000880042
0.000827262
0.000779655
0.000736951
0.000698891
0.000664705
0.000633565
0.000604504
0.000576224
0.000546656
0.000522116
0.000472593
0.00152464
0.00300729
0.00263927
0.0030463
0.00334174
0.00365498
0.00396748
0.00425546
0.00448724
0.00462211
0.0047014
0.0046687
0.00443582
0.00385905
0.00281853
0.00171598
0.00163611
0.00156615
0.00131879
0.00224621
0.00311286
0.00362436
0.00364796
0.00287947
0.00246256
0.00217357
0.00195437
0.0017801
0.00163145
0.00149998
0.00137761
0.00125788
0.00115043
0.00105775
0.00119176
0.000599171
0.0019341
0.00419875
0.0031135
0.00445315
0.00497583
0.00541823
0.00582004
0.00617368
0.00647321
0.00670794
0.00693542
0.00717474
0.00739464
0.00752554
0.00743884
0.00681147
0.00498238
0.00192121
0.00166382
0.00355978
0.00496738
0.00563248
0.00512174
0.00135141
0.00117499
0.00103894
0.000932538
0.000847892
0.000779584
0.00072387
0.000678546
0.000643199
0.000707212
0.000831988
0.00131818
0.000681657
0.00232904
0.00565828
0.00297923
0.00500691
0.00578045
0.00619437
0.00649872
0.00672387
0.00689189
0.00702803
0.00722175
0.00754905
0.00802667
0.00862747
0.00923189
0.00953051
0.00895117
0.00668179
0.00191368
0.00443027
0.0065938
0.00769297
0.00796349
0.00679778
0.00153913
0.00139984
0.00129201
0.00120235
0.00112597
0.0010574
0.000992768
0.000928573
0.000859221
0.000802795
0.000832419
0.00142806
0.000750447
0.00271828
0.00749027
0.00300559
0.00475966
0.0059488
0.00630149
0.00642939
0.00643415
0.00637013
0.00631349
0.00639459
0.00671249
0.00729585
0.00812227
0.00908146
0.00996604
0.0105281
0.010523
0.00944494
0.00961107
0.00983289
0.0098645
0.00966373
0.00904456
0.00719725
0.00621647
0.00554473
0.00499887
0.00446368
0.00394535
0.00343831
0.00293203
0.00241205
0.00185258
0.00141337
0.00141329
0.00111771
0.000895364
0.00119289
0.00113686
0.0031012
0.00954042
0.00353818
0.0040137
0.00569957
0.00609066
0.00605891
0.00584043
0.00552839
0.00527118
0.00526547
0.00559835
0.00626266
0.0072204
0.00834226
0.00946438
0.0104198
0.0110311
0.0111437
0.0110332
0.0108385
0.0105614
0.0102044
0.00974986
0.00908663
0.00844778
0.00786786
0.0073071
0.00670175
0.00605554
0.00536553
0.00462592
0.00383209
0.00298979
0.00222659
0.00167167
0.00129794
0.00146641
0.00256355
0.00135675
0.00349196
0.0114357
0.00471468
0.00328809
0.00512131
0.00576101
0.00568924
0.00533573
0.00482341
0.00437308
0.00436025
0.00478045
0.0055405
0.00661079
0.00782939
0.00903697
0.0100772
0.010823
0.0111669
0.0111419
0.0108981
0.010528
0.0101037
0.00968002
0.00927016
0.00889408
0.00854077
0.00816339
0.00770757
0.00715912
0.00651007
0.00575747
0.00490435
0.0039721
0.00305965
0.00220877
0.00162596
0.00146109
0.00261289
0.00160479
0.00382772
0.0128685
0.00642733
0.00313046
0.00405722
0.00510777
0.0052533
0.00496241
0.00435776
0.00374464
0.00388364
0.00443939
0.00528947
0.00639233
0.00765813
0.00892205
0.0100008
0.0107508
0.0110921
0.0110488
0.0107337
0.0102681
0.00976704
0.00932244
0.00897963
0.00873472
0.00854366
0.00833565
0.00804596
0.00764057
0.00710377
0.0064326
0.00563371
0.00473037
0.00378909
0.00283359
0.00197199
0.00133286
0.00384489
0.00212489
0.00392893
0.0121732
0.00795024
0.00404638
0.00274947
0.00337089
0.0039449
0.00399243
0.00352497
0.00342544
0.00378114
0.00443467
0.00535433
0.00652477
0.00785216
0.0091551
0.0102293
0.0109203
0.0111629
0.0109964
0.0105388
0.00993849
0.00934283
0.00886746
0.00856571
0.00841773
0.00835078
0.00827101
0.00810446
0.00781157
0.00737685
0.00679892
0.00608543
0.00525489
0.00434065
0.00330848
0.0018896
0.00171166
0.00608969
0.00240388
0.00384946
0.00981082
0.00820749
0.00555256
0.00366701
0.00283934
0.00269007
0.00281733
0.00305342
0.0034298
0.00396443
0.00470055
0.00570215
0.00696597
0.00836708
0.00968863
0.0107055
0.0112638
0.0113201
0.0109428
0.0102807
0.00951962
0.00884034
0.00837475
0.00816141
0.00813695
0.0081839
0.0081835
0.00807594
0.007839
0.00746547
0.00695533
0.00631283
0.00554237
0.00462174
0.00331496
0.00143902
0.00315309
0.00571904
0.00244522
0.00360583
0.00838432
0.0079338
0.00635241
0.00488912
0.0039358
0.0034643
0.0033577
0.00355295
0.00391283
0.00443631
0.00521482
0.00632342
0.00771188
0.00918613
0.0104793
0.0113529
0.0116732
0.0114386
0.0107659
0.00985637
0.00894681
0.00825532
0.00790778
0.0078681
0.00798373
0.00810052
0.00810272
0.00798932
0.00776011
0.007411
0.0069376
0.00633198
0.00556557
0.00452941
0.00298823
0.00156974
0.0033369
0.0063505
0.00247524
0.0032832
0.00755954
0.00765244
0.0067231
0.0057197
0.00496392
0.00451864
0.00435878
0.00439901
0.00461702
0.00509908
0.00597136
0.00725667
0.00879791
0.0103048
0.0114659
0.012056
0.0119946
0.0113512
0.0103147
0.00916409
0.00820256
0.0076559
0.00754674
0.00764603
0.00780188
0.00790304
0.00787418
0.00774171
0.00750902
0.00716973
0.00670855
0.00608305
0.00519495
0.00385104
0.00230926
0.00184726
0.00373814
0.00645487
0.00261754
0.00299373
0.00676257
0.00730692
0.00686787
0.00622404
0.00568285
0.00532266
0.00514666
0.00509511
0.00528244
0.00589639
0.0070396
0.00859902
0.0102701
0.011678
0.0125119
0.0126143
0.0120022
0.0108525
0.00945123
0.00818642
0.00737085
0.00701088
0.00697395
0.00709173
0.00724112
0.00733001
0.00729864
0.00716105
0.00692189
0.00657116
0.00607176
0.00530948
0.00406985
0.00252092
0.00181945
0.00233305
0.00429982
0.00661207
0.0026064
0.00300399
0.00671285
0.00746557
0.00695037
0.00642928
0.0060024
0.00569459
0.00549596
0.00548977
0.0059441
0.00702887
0.00865222
0.0104843
0.0120979
0.0131165
0.0133215
0.0126974
0.0113973
0.00975421
0.00816278
0.00700438
0.00632015
0.00600956
0.00595837
0.00605312
0.00618445
0.00626083
0.00622386
0.00606604
0.00579909
0.00541133
0.00484195
0.00393821
0.00269007
0.00185049
0.00200979
0.00293698
0.00444956
0.00583627
0.00243371
0.00270996
0.00282056
0.00416496
0.00489665
0.00512409
0.00512931
0.00508178
0.00517915
0.00581065
0.00715828
0.00905924
0.0111144
0.0128712
0.01395
0.0141287
0.0133701
0.0118661
0.00991272
0.00805087
0.00658885
0.00560858
0.00505728
0.00482335
0.00477755
0.00481758
0.00486174
0.00484484
0.00473166
0.00450492
0.00419836
0.00382578
0.00337231
0.00279168
0.00216265
0.00189619
0.00231416
0.00329949
0.00448632
0.00517265
0.00230865
0.000963486
0.00173679
0.00266577
0.00341313
0.004282
0.00575067
0.00791274
0.0103164
0.0125093
0.0141509
0.0150047
0.0149137
0.0138814
0.0120232
0.00981983
0.00773753
0.00608672
0.00498898
0.00439724
0.00412304
0.00400346
0.00394488
0.00389177
0.00380413
0.00365866
0.00345869
0.00322823
0.0030004
0.00280006
0.00262727
0.00246526
0.00231833
0.0023044
0.00267502
0.00356498
0.00478461
0.00600594
0.00236645
0.0017874
0.00247122
0.00359746
0.00560614
0.00832506
0.0110456
0.0131468
0.014666
0.0155917
0.0158553
0.0153305
0.0138899
0.0117528
0.00933181
0.00710907
0.00544935
0.00448272
0.00402808
0.00383514
0.00375331
0.00371155
0.00367173
0.00360957
0.00351348
0.00338916
0.00325795
0.00314406
0.00306256
0.00301585
0.0029956
0.00299664
0.0030319
0.00315178
0.00347229
0.00420354
0.00572531
0.0064633
0.0025407
0.00323766
0.00787276
0.00726971
0.00650306
0.00824712
0.0109711
0.0132611
0.0148048
0.015622
0.0158289
0.015524
0.0146518
0.0131453
0.0110442
0.00864052
0.00646646
0.00500372
0.00426799
0.00396818
0.00386906
0.00385648
0.00387589
0.00389506
0.00389386
0.00386475
0.00381347
0.003755
0.00370516
0.00367392
0.00366481
0.00367867
0.00372126
0.00380422
0.00394989
0.00420082
0.00464061
0.00543949
0.00726921
0.0073727
0.00262993
0.00309496
0.00598223
0.00772607
0.00989055
0.0109748
0.0120848
0.0127252
0.0128737
0.012625
0.0120443
0.0111515
0.00994233
0.00845328
0.00685027
0.00541564
0.00441443
0.00386267
0.00361097
0.00353208
0.00355338
0.00363017
0.0037281
0.00381952
0.00388642
0.0039236
0.00393754
0.00394029
0.00394201
0.00394787
0.00396144
0.00399185
0.00405866
0.0041924
0.00442748
0.0047977
0.00534054
0.00608898
0.00743477
0.00776608
0.00270577
0.00289503
0.00248119
0.00246891
0.00254106
0.00260061
0.00252331
0.00237398
0.00220076
0.00202749
0.00186171
0.00170378
0.00155477
0.00142211
0.00131959
0.00125949
0.00123373
0.00123001
0.00123923
0.00125535
0.0012746
0.00129464
0.00131415
0.00133266
0.00135041
0.00136826
0.00138755
0.00140985
0.00143709
0.0014717
0.0015171
0.00157761
0.00165758
0.00175936
0.00188171
0.00202048
0.00217197
0.00233516
0.00250816
0.00268016
0.00251456
)
;

boundaryField
{
    floor
    {
        type            compressible::alphatWallFunction;
        Prt             0.85;
        value           nonuniform List<scalar> 
36
(
0.000219874
0.000104481
0.000149923
0.000151108
0.000147495
0.000141438
0.000133307
0.000125151
0.000117581
0.000110704
0.000104492
9.89196e-05
9.38831e-05
8.9268e-05
8.4936e-05
8.0696e-05
7.62353e-05
7.25108e-05
6.49272e-05
6.49264e-05
8.41391e-05
9.63849e-05
0.00010646
0.00012734
0.000169044
0.000161293
0.000219871
0.000239668
0.00022906
0.00021972
0.000104479
0.000219718
0.000186307
0.000266676
0.000232738
0.000265692
)
;
    }
    ceiling
    {
        type            compressible::alphatWallFunction;
        Prt             0.85;
        value           nonuniform List<scalar> 
43
(
0.000391216
0.00033897
0.000337411
0.000346593
0.000354159
0.000344383
0.000325373
0.000303152
0.000280733
0.000259089
0.000238274
0.000218441
0.000200599
0.000186672
0.000178434
0.000174887
0.000174363
0.000175625
0.000177839
0.000180484
0.000183236
0.000185913
0.000188448
0.000190873
0.000193306
0.000195923
0.000198938
0.000202603
0.00020724
0.000213291
0.00022132
0.000231892
0.000245303
0.000261367
0.000279509
0.000299188
0.00032023
0.000342382
0.000364275
0.000343241
0.00036828
0.000382182
0.000248618
)
;
    }
    sWall
    {
        type            compressible::alphatWallFunction;
        Prt             0.85;
        value           nonuniform List<scalar> 9(0.000507603 0.000477882 0.00043821 0.000402279 0.000403548 0.000366705 0.00043194 0.000414297 0.000389465);
    }
    nWall
    {
        type            compressible::alphatWallFunction;
        Prt             0.85;
        value           nonuniform List<scalar> 
14
(
0.000160845
0.000191014
0.000224398
0.000333833
0.000337709
0.000355698
0.000353722
0.000331873
0.000316144
0.00032414
0.000345955
0.000357226
0.000366737
0.000342547
)
;
    }
    sideWalls
    {
        type            empty;
    }
    glass1
    {
        type            compressible::alphatWallFunction;
        Prt             0.85;
        value           nonuniform List<scalar> 9(0.000143927 0.000209132 0.000262686 0.000313291 0.000362361 0.000409982 0.000457991 0.00049885 0.000511215);
    }
    glass2
    {
        type            compressible::alphatWallFunction;
        Prt             0.85;
        value           nonuniform List<scalar> 2(0.000290464 0.000326141);
    }
    sun
    {
        type            compressible::alphatWallFunction;
        Prt             0.85;
        value           nonuniform List<scalar> 
14
(
0.00014796
0.000157648
0.000157094
0.000163766
0.000169852
0.000175358
0.000180465
0.000185373
0.000190297
0.000195513
0.00020047
0.000205165
0.000209777
0.000214724
)
;
    }
    Table_master
    {
        type            compressible::alphatWallFunction;
        Prt             0.85;
        value           nonuniform List<scalar> 9(0.000191018 0.000166828 0.000147889 0.000132876 0.00012079 0.000110932 0.000102815 9.61563e-05 9.09257e-05);
    }
    Table_slave
    {
        type            compressible::alphatWallFunction;
        Prt             0.85;
        value           nonuniform List<scalar> 9(0.000216375 0.000197599 0.00018292 0.00017061 0.000160039 0.000150478 0.000141401 0.000132316 0.000122418);
    }
    inlet
    {
        type            fixedValue;
        value           uniform 1.94e-05;
    }
    outlet
    {
        type            zeroGradient;
    }
}


// ************************************************************************* //
