/*--------------------------------*- C++ -*----------------------------------*\
  =========                 |
  \\      /  F ield         | OpenFOAM: The Open Source CFD Toolbox
   \\    /   O peration     | Website:  https://openfoam.org
    \\  /    A nd           | Version:  6
     \\/     M anipulation  |
\*---------------------------------------------------------------------------*/
FoamFile
{
    version     2.0;
    format      ascii;
    class       volScalarField;
    location    "38099.999998774867";
    object      epsilon;
}
// * * * * * * * * * * * * * * * * * * * * * * * * * * * * * * * * * * * * * //

dimensions      [0 2 -3 0 0 0 0];

internalField   nonuniform List<scalar> 
778
(
0.000253118
0.000306367
0.000303046
0.000344256
0.000385159
0.000425004
0.000464481
0.000504777
0.000547625
0.00059574
0.000644145
0.000692466
0.000742355
0.000798619
0.000860298
8.94523e-05
0.000262459
0.000268816
0.000249719
0.000219886
0.000183918
0.000152224
0.000126451
0.000105857
8.94023e-05
7.62575e-05
6.56088e-05
5.68161e-05
4.93534e-05
4.27482e-05
3.65017e-05
3.18061e-05
2.35942e-05
0.000796978
0.00144324
0.000287035
0.000259656
0.000261765
0.000267743
0.000276644
0.000290077
0.000310334
0.000340536
0.000379729
0.000430807
0.000499136
0.000600271
0.000785333
0.00112886
0.000978327
0.000858072
0.000512231
0.000369522
0.00029414
0.00024274
0.000203878
0.000186681
0.000154535
0.000124896
0.000100627
8.14399e-05
6.64903e-05
5.47945e-05
4.56091e-05
3.86891e-05
3.45006e-05
3.27398e-05
6.57973e-05
4.80748e-05
0.00163057
0.00407922
0.000407443
0.000242989
0.000229169
0.000231083
0.000238298
0.000250567
0.000268468
0.000292727
0.000324831
0.000366858
0.00042119
0.000494844
0.000601191
0.000724419
0.000829489
0.00158366
0.00102837
0.000512529
0.000367788
0.000294278
0.000262002
0.000550991
0.000362159
0.000250367
0.000181054
0.000136093
0.000105781
8.46853e-05
6.97541e-05
5.94128e-05
4.50992e-05
3.79524e-05
0.000108317
7.07838e-05
0.00285339
0.00877087
0.000709956
0.000240779
0.000202535
0.000200067
0.000203234
0.000209854
0.000220663
0.000237569
0.000263239
0.000299949
0.00034911
0.00041219
0.000487849
0.00056006
0.000612259
0.000824229
0.00156481
0.000729172
0.00045989
0.000358339
0.000301921
0.00029179
0.000813996
0.000612389
0.000481499
0.000388059
0.000318704
0.000263952
0.000218447
0.000178752
0.000141618
8.36488e-05
5.47874e-05
0.000149035
9.44453e-05
0.00454577
0.0158285
0.00134651
0.00025839
0.000175778
0.000166832
0.000165833
0.0001678
0.000173955
0.000187453
0.000211681
0.000248326
0.000297678
0.000359141
0.000427549
0.000488922
0.000528336
0.000582323
0.000627346
0.000483158
0.000393502
0.000331057
0.00028231
0.000248616
0.000247805
0.000226724
0.000202864
0.000180979
0.0001626
0.000146444
0.000131785
0.000118206
0.000105059
8.44346e-05
6.40774e-05
0.000105301
0.000138846
0.000160398
0.000379377
0.000328643
0.00676327
0.0248805
0.00255381
0.000318114
0.000155572
0.000137096
0.00013215
0.00013071
0.000134473
0.000148564
0.000176708
0.000218042
0.000270687
0.000333887
0.000401399
0.000462268
0.000502657
0.000521438
0.000504621
0.000438179
0.000373812
0.00031566
0.000264745
0.000223374
0.00019327
0.000169611
0.000150798
0.000135615
0.000123281
0.000112729
0.00010327
9.45117e-05
8.60832e-05
7.59044e-05
6.52542e-05
7.75461e-05
9.97094e-05
0.000214896
0.00109901
0.000558682
0.00967172
0.03364
0.00458454
0.000465035
0.000150863
0.000116362
0.000107103
0.000103293
0.000107086
0.000127934
0.000166143
0.000215871
0.000273202
0.000339825
0.000408966
0.000470038
0.00050979
0.000520154
0.000494121
0.00043753
0.000371811
0.000307473
0.000250537
0.000204417
0.000169727
0.000144547
0.000126328
0.000112747
0.00010229
9.37123e-05
8.6208e-05
7.9325e-05
7.27911e-05
6.61437e-05
6.0265e-05
6.36045e-05
7.67962e-05
0.000179721
0.00166289
0.000924485
0.0127586
0.0404098
0.0074915
0.000871361
0.00019427
0.000115377
9.73857e-05
9.14558e-05
9.86334e-05
0.000137712
0.000189294
0.000246245
0.000306964
0.000373642
0.00044451
0.000507747
0.000547084
0.000550678
0.000515514
0.000451448
0.000375465
0.000300939
0.000236461
0.000185944
0.000149303
0.000123987
0.000106733
9.46029e-05
8.57701e-05
7.88279e-05
7.29017e-05
6.75188e-05
6.24563e-05
5.76544e-05
5.38813e-05
5.54317e-05
7.06944e-05
0.000380564
0.00585469
0.00215048
0.0138269
0.04146
0.0139351
0.00316408
0.000629927
0.000207949
0.000132635
0.000115957
0.000142385
0.000192847
0.000249231
0.000306378
0.00036731
0.000436597
0.000511029
0.000575646
0.000610756
0.000602953
0.000551949
0.000470812
0.000378408
0.000290881
0.000218249
0.000164028
0.000126801
0.000102649
8.73412e-05
7.74068e-05
7.07278e-05
6.5723e-05
6.15028e-05
5.7636e-05
5.39644e-05
5.05622e-05
4.81638e-05
5.12349e-05
9.8749e-05
0.00119645
0.0157805
0.00311541
0.0130038
0.0283701
0.0144165
0.00572646
0.00210374
0.000834169
0.000413421
0.000276689
0.000278795
0.000314381
0.000355925
0.000401647
0.000458664
0.000531146
0.000610334
0.000674249
0.000698719
0.000670413
0.000593504
0.000486435
0.000372518
0.000270679
0.000191206
0.000135847
0.000100772
7.99725e-05
6.80605e-05
6.12834e-05
5.72022e-05
5.42516e-05
5.16859e-05
4.9204e-05
4.67541e-05
4.45454e-05
4.36585e-05
5.21202e-05
0.000200492
0.00362888
0.0119271
0.00328187
0.0106888
0.0193571
0.0120389
0.00629981
0.00317374
0.00167402
0.000986141
0.000678496
0.00055955
0.000516939
0.000510145
0.000531426
0.000584072
0.000663583
0.000748497
0.000805852
0.000807515
0.000743776
0.000627491
0.000485598
0.000347368
0.000233601
0.000152675
0.000101977
7.37191e-05
5.89316e-05
5.1471e-05
4.80466e-05
4.62535e-05
4.49367e-05
4.36315e-05
4.22014e-05
4.07457e-05
3.97973e-05
4.14581e-05
5.83979e-05
0.000240348
0.00278058
0.0108051
0.00340688
0.00807187
0.0137701
0.00969212
0.00593284
0.00356897
0.00222676
0.00149012
0.00109227
0.000868657
0.000743068
0.000685655
0.000690411
0.000751669
0.000846675
0.000934351
0.000969839
0.000926297
0.000804947
0.000633971
0.000451475
0.000292841
0.000177517
0.000107237
6.96027e-05
5.25785e-05
4.44412e-05
4.06314e-05
3.92429e-05
3.86597e-05
3.82088e-05
3.76243e-05
3.68921e-05
3.63838e-05
3.75138e-05
4.52556e-05
8.36209e-05
0.000320896
0.00230181
0.00852987
0.00402507
0.00612392
0.0101688
0.00779182
0.0053126
0.00357006
0.00246895
0.00178773
0.00136795
0.00109265
0.00092582
0.000859395
0.000887831
0.000985377
0.00110111
0.00117295
0.00115194
0.00102674
0.000820569
0.00058504
0.000367956
0.00020842
0.000114643
7.21247e-05
5.21903e-05
4.27328e-05
3.8019e-05
3.57593e-05
3.49725e-05
3.46841e-05
3.4472e-05
3.4206e-05
3.41101e-05
3.53572e-05
4.22943e-05
7.17612e-05
0.000186189
0.000581917
0.00232753
0.00747452
0.00394739
0.00618346
0.00781511
0.00680643
0.00474045
0.00336617
0.00246273
0.00186595
0.00146242
0.00119456
0.00106468
0.00107135
0.0011832
0.00133442
0.00144349
0.00144265
0.00130169
0.00104982
0.000740203
0.000455916
0.000237934
0.000131029
8.16283e-05
5.95629e-05
4.86242e-05
4.25197e-05
3.88765e-05
3.67937e-05
3.5827e-05
3.54084e-05
3.52028e-05
3.5231e-05
3.62142e-05
4.12753e-05
6.23164e-05
0.000140754
0.00038877
0.00105759
0.00276135
0.00626394
0.00321722
0.00454632
0.00511621
0.0041863
0.00336249
0.00264027
0.00207055
0.00164937
0.00136199
0.00124473
0.00130098
0.0014809
0.00169273
0.00183246
0.00182364
0.00164058
0.00130136
0.000906766
0.000518409
0.000278025
0.000154789
0.00010141
7.79743e-05
6.59374e-05
5.82709e-05
5.2797e-05
4.89107e-05
4.64224e-05
4.51315e-05
4.48725e-05
4.52138e-05
4.62796e-05
4.92491e-05
5.87862e-05
9.08228e-05
0.000194003
0.000493204
0.00124952
0.00287934
0.00535197
0.00275604
0.00139825
0.00142855
0.00143107
0.00135269
0.001311
0.00142204
0.00170685
0.0020448
0.00231219
0.00241462
0.00230032
0.00198454
0.00153183
0.000978947
0.000566337
0.000311237
0.000186719
0.000133963
0.00011155
9.9556e-05
9.10924e-05
8.42499e-05
7.88019e-05
7.49982e-05
7.30884e-05
7.31145e-05
7.50752e-05
7.87873e-05
8.39843e-05
9.15473e-05
0.000105484
0.000138848
0.000228714
0.000470313
0.00107223
0.00241123
0.00536925
0.00299091
0.00118796
0.00171456
0.0019523
0.00230791
0.00275428
0.00316021
0.00334233
0.0033122
0.00309287
0.00270395
0.00213418
0.001514
0.000977302
0.000573867
0.000340997
0.000231198
0.00018661
0.000167711
0.000157248
0.00014944
0.000142864
0.000137573
0.000134193
0.000133522
0.000136253
0.000142723
0.000152701
0.000165981
0.000182427
0.000201788
0.000226575
0.000265954
0.000344567
0.000523118
0.000964612
0.00234551
0.00442319
0.00368143
0.00741472
0.00809239
0.0048173
0.00340438
0.00373474
0.00414232
0.00415226
0.00393992
0.0035847
0.00313169
0.00262797
0.00208644
0.00153544
0.00104573
0.00067883
0.000456079
0.000350312
0.000307434
0.000290388
0.000282386
0.000277132
0.000272219
0.000267009
0.000262069
0.000258844
0.00025916
0.000264675
0.00027658
0.000295694
0.000322729
0.000358513
0.00040496
0.000465511
0.000551643
0.000691912
0.00093511
0.00143729
0.0032408
0.00446472
0.00408149
0.00650075
0.00513638
0.00435934
0.00461647
0.00453954
0.0042737
0.00369367
0.00304677
0.00246032
0.00196718
0.00156438
0.00124149
0.000987557
0.000795795
0.00065696
0.000564268
0.000509514
0.000481231
0.000470425
0.000470906
0.000478065
0.000488381
0.000499495
0.000510434
0.000521691
0.000535086
0.000553534
0.000580913
0.000622099
0.000683159
0.000771736
0.000897558
0.00107275
0.00131022
0.00162807
0.00207236
0.00273171
0.00412655
0.00582661
0.00444244
0.00535917
0.0033737
0.00332577
0.00362899
0.00389599
0.00357072
0.00298286
0.00238205
0.00186576
0.00144635
0.00110974
0.000844036
0.000646299
0.000516477
0.000448962
0.000421904
0.000418001
0.000427423
0.000444319
0.000465117
0.000487482
0.000509957
0.000531901
0.000553513
0.000575803
0.000600478
0.000629821
0.000666815
0.000715748
0.000783292
0.000879661
0.00101889
0.0012171
0.00148873
0.00184407
0.00229279
0.00285197
0.00353757
0.00432177
0.00356737
)
;

boundaryField
{
    floor
    {
        Cmu             0.09;
        kappa           0.41;
        E               9.8;
        type            epsilonWallFunction;
        value           nonuniform List<scalar> 
36
(
0.000860298
8.94523e-05
0.000262459
0.000268816
0.000249719
0.000219886
0.000183918
0.000152224
0.000126451
0.000105857
8.94023e-05
7.62575e-05
6.56088e-05
5.68161e-05
4.93534e-05
4.27482e-05
3.65017e-05
3.18061e-05
2.35942e-05
2.35942e-05
4.80748e-05
7.07838e-05
9.44453e-05
0.000160398
0.000379377
0.000328643
0.000860298
0.00112886
0.000978327
0.000858072
8.94523e-05
0.000858072
0.000512231
0.00158366
0.00102837
0.00156481
)
;
    }
    ceiling
    {
        Cmu             0.09;
        kappa           0.41;
        E               9.8;
        type            epsilonWallFunction;
        value           nonuniform List<scalar> 
43
(
0.00535917
0.0033737
0.00332577
0.00362899
0.00389599
0.00357072
0.00298286
0.00238205
0.00186576
0.00144635
0.00110974
0.000844036
0.000646299
0.000516477
0.000448962
0.000421904
0.000418001
0.000427423
0.000444319
0.000465117
0.000487482
0.000509957
0.000531901
0.000553513
0.000575803
0.000600478
0.000629821
0.000666815
0.000715748
0.000783292
0.000879661
0.00101889
0.0012171
0.00148873
0.00184407
0.00229279
0.00285197
0.00353757
0.00432177
0.00356737
0.00454632
0.00511621
0.00118796
)
;
    }
    sWall
    {
        Cmu             0.09;
        kappa           0.41;
        E               9.8;
        type            epsilonWallFunction;
        value           nonuniform List<scalar> 9(0.0130038 0.0106888 0.00807187 0.00612392 0.00618346 0.00454632 0.00741472 0.00650075 0.00535917);
    }
    nWall
    {
        Cmu             0.09;
        kappa           0.41;
        E               9.8;
        type            epsilonWallFunction;
        value           nonuniform List<scalar> 
14
(
0.000328643
0.000558682
0.000924485
0.00328187
0.00340688
0.00402507
0.00394739
0.00321722
0.00275604
0.00299091
0.00368143
0.00408149
0.00444244
0.00356737
)
;
    }
    sideWalls
    {
        type            empty;
    }
    glass1
    {
        Cmu             0.09;
        kappa           0.41;
        E               9.8;
        type            epsilonWallFunction;
        value           nonuniform List<scalar> 9(0.000253118 0.000796978 0.00163057 0.00285339 0.00454577 0.00676327 0.00967172 0.0127586 0.0138269);
    }
    glass2
    {
        Cmu             0.09;
        kappa           0.41;
        E               9.8;
        type            epsilonWallFunction;
        value           nonuniform List<scalar> 2(0.00215048 0.00311541);
    }
    sun
    {
        Cmu             0.09;
        kappa           0.41;
        E               9.8;
        type            epsilonWallFunction;
        value           nonuniform List<scalar> 
14
(
0.000253118
0.000306367
0.000303046
0.000344256
0.000385159
0.000425004
0.000464481
0.000504777
0.000547625
0.00059574
0.000644145
0.000692466
0.000742355
0.000798619
)
;
    }
    Table_master
    {
        Cmu             0.09;
        kappa           0.41;
        E               9.8;
        type            epsilonWallFunction;
        value           nonuniform List<scalar> 9(0.000550991 0.000362159 0.000250367 0.000181054 0.000136093 0.000105781 8.46853e-05 6.97541e-05 5.94128e-05);
    }
    Table_slave
    {
        Cmu             0.09;
        kappa           0.41;
        E               9.8;
        type            epsilonWallFunction;
        value           nonuniform List<scalar> 9(0.000813996 0.000612389 0.000481499 0.000388059 0.000318704 0.000263952 0.000218447 0.000178752 0.000141618);
    }
    inlet
    {
        type            turbulentMixingLengthDissipationRateInlet;
        mixingLength    0.01;
        phi             phi;
        k               k;
        value           uniform 0.000471671;
    }
    outlet
    {
        type            zeroGradient;
    }
}


// ************************************************************************* //
