/*--------------------------------*- C++ -*----------------------------------*\
  =========                 |
  \\      /  F ield         | OpenFOAM: The Open Source CFD Toolbox
   \\    /   O peration     | Website:  https://openfoam.org
    \\  /    A nd           | Version:  6
     \\/     M anipulation  |
\*---------------------------------------------------------------------------*/
FoamFile
{
    version     2.0;
    format      ascii;
    class       volScalarField;
    location    "60";
    object      nut;
}
// * * * * * * * * * * * * * * * * * * * * * * * * * * * * * * * * * * * * * //

dimensions      [0 2 -1 0 0 0 0];

internalField   nonuniform List<scalar> 
458
(
0.00118893
0.00131086
0.00136028
0.00143196
0.00149872
0.00156367
0.00163133
0.00169501
0.00174555
0.00177482
0.00177427
0.0017354
0.00163441
0.00140687
0.00116222
0.000472349
0.000559335
0.000655941
0.000688807
0.000674633
0.000629929
0.000581824
0.00053684
0.000495484
0.000456774
0.000419831
0.000384868
0.000352806
0.000324856
0.000302287
0.000287191
0.000290218
0.000285269
0.00153025
0.00370593
0.00357306
0.00413829
0.00473212
0.00531632
0.00579076
0.00621433
0.00663462
0.00701397
0.00730925
0.00748209
0.00745632
0.00700294
0.00506536
0.00151541
0.00129014
0.00105115
0.000469858
0.00101186
0.00150165
0.00187544
0.00201966
0.0014866
0.00129577
0.00119201
0.00109578
0.000985759
0.000875427
0.000775319
0.000690515
0.000622933
0.000583242
0.000578233
0.000704947
0.000368146
0.00181473
0.00503873
0.00447675
0.00529451
0.00576161
0.00609673
0.00634569
0.00661344
0.00695727
0.00737615
0.007835
0.00828203
0.00858244
0.00853329
0.00788527
0.00627131
0.00456738
0.00128742
0.000635119
0.00112632
0.001647
0.00212754
0.0023163
0.000836785
0.000700823
0.000591259
0.000509832
0.000450483
0.000405505
0.000370202
0.000342621
0.000323669
0.000382188
0.000515643
0.000852408
0.00043327
0.00208866
0.00627996
0.00452067
0.00552785
0.00578607
0.00581526
0.00585193
0.00599465
0.00628068
0.00673597
0.00730745
0.00791325
0.00833318
0.00851582
0.00838434
0.00784631
0.0065317
0.00342083
0.00142344
0.00146836
0.00180346
0.00232377
0.00283469
0.00299136
0.00094575
0.000808891
0.000715687
0.000672451
0.000675467
0.000695705
0.00070886
0.000702358
0.000682463
0.000691789
0.000737448
0.00105085
0.000517215
0.00237363
0.00790661
0.00479559
0.00538382
0.005701
0.00557179
0.00546836
0.00555594
0.00581623
0.00631624
0.00694972
0.00755869
0.00798452
0.00816568
0.00813288
0.00791412
0.00726175
0.0057011
0.00455259
0.00443327
0.00447287
0.00459286
0.00467337
0.00458755
0.0040115
0.0036164
0.00364704
0.00389169
0.00402478
0.00399096
0.00387196
0.00367305
0.00321753
0.00263877
0.00212371
0.00178758
0.00114666
0.000687941
0.000715781
0.000711215
0.00268623
0.00975091
0.00636662
0.00529824
0.00562174
0.0056535
0.00545004
0.00548366
0.00570804
0.00620636
0.00688055
0.00751119
0.00789996
0.00798913
0.00787026
0.00768397
0.00742429
0.00687096
0.00644263
0.00642894
0.006388
0.00629004
0.00613607
0.00598112
0.00578979
0.005706
0.00576506
0.00574288
0.005537
0.00526868
0.00500061
0.00475117
0.00447337
0.00404386
0.00350561
0.00293829
0.00232149
0.00202932
0.00225391
0.000929483
0.00297985
0.0110426
0.00878692
0.00661555
0.00620775
0.00608866
0.00576852
0.0056097
0.00580421
0.00636464
0.00711031
0.00776075
0.0080919
0.00807221
0.00785847
0.00769283
0.00767743
0.00760385
0.00751452
0.00749675
0.00742318
0.00726937
0.00712747
0.00699751
0.00684916
0.00668903
0.00646694
0.00611598
0.00571519
0.00534246
0.00503821
0.00481757
0.00469314
0.00460444
0.00434651
0.00394569
0.00349879
0.00319083
0.00304844
0.00114103
0.00304763
0.00975128
0.00866547
0.00782799
0.00722241
0.00640953
0.00577031
0.00561275
0.00599938
0.00677832
0.00764437
0.00827075
0.0084626
0.00829678
0.00804842
0.00811846
0.00819919
0.00813
0.00801781
0.00791414
0.00778244
0.00762502
0.00745213
0.00722257
0.00690454
0.00652696
0.00610511
0.00566421
0.00526587
0.00493176
0.00467792
0.00452715
0.0045074
0.00462935
0.00477094
0.00470104
0.004629
0.00436682
0.00445096
0.00142753
0.00298075
0.00356489
0.00390572
0.00404191
0.00404044
0.00412479
0.0045076
0.00532005
0.00646712
0.00765631
0.00854872
0.00891026
0.00870975
0.00841046
0.0083186
0.00836395
0.00831991
0.00818255
0.00801911
0.00784601
0.00763474
0.00735471
0.00699012
0.00655937
0.00611637
0.00570175
0.0053213
0.00496873
0.00464405
0.00434793
0.00408656
0.00387261
0.00371113
0.00357882
0.00345161
0.00328804
0.0030416
0.00273988
0.00247435
0.00139657
0.00103061
0.00187267
0.00304643
0.00451431
0.00614493
0.00769199
0.0088622
0.00945415
0.00942672
0.00898035
0.00827325
0.00794351
0.00787694
0.00781311
0.00767849
0.00750477
0.0072905
0.00701353
0.00665734
0.00623613
0.00579885
0.00540096
0.00507201
0.004807
0.00458279
0.00437493
0.00415497
0.00392652
0.00369719
0.00347735
0.00329257
0.00316336
0.00305847
0.00291648
0.00269432
0.00238251
0.00203016
0.00118224
0.0020279
0.00514602
0.00772253
0.00931699
0.00983465
0.00989622
0.00953614
0.00878359
0.00784512
0.00704491
0.00649859
0.00616183
0.00591409
0.00571779
0.00556133
0.0054159
0.00524932
0.00504986
0.00483344
0.00463282
0.00447702
0.00437603
0.00432034
0.00429109
0.00426972
0.00424003
0.00418308
0.00407956
0.0039219
0.00372177
0.00350721
0.00331669
0.00316403
0.00301975
0.00284898
0.00263885
0.00272747
0.00123213
0.00219755
0.00228013
0.00235141
0.0026656
0.00254666
0.00230924
0.00208638
0.00192271
0.00176143
0.00158521
0.00141084
0.00126288
0.00115915
0.00109716
0.00106313
0.00104506
0.00103488
0.00102783
0.00102161
0.00101612
0.00101236
0.00101123
0.00101293
0.00101689
0.00102193
0.00102661
0.00102955
0.0010297
0.00102706
0.00102283
0.00102051
0.00102544
0.00104281
0.00107406
0.00111686
0.00116355
0.0012026
0.00117811
0.00109616
0.00101322
)
;

boundaryField
{
    floor
    {
        type            nutkWallFunction;
        Cmu             0.09;
        kappa           0.41;
        E               9.8;
        value           nonuniform List<scalar> 
36
(
0.000139654
5.61433e-05
6.72272e-05
7.92812e-05
8.33239e-05
8.15794e-05
7.60486e-05
7.00415e-05
6.43669e-05
5.90973e-05
5.41145e-05
4.93098e-05
4.47145e-05
4.04558e-05
3.67055e-05
3.36508e-05
3.15976e-05
3.20299e-05
3.1357e-05
3.13569e-05
4.25548e-05
5.11267e-05
6.19466e-05
8.33014e-05
8.67025e-05
8.6125e-05
0.000139654
0.000179878
0.000154362
0.000126734
5.61432e-05
0.000126734
5.58285e-05
0.000154046
7.67067e-05
0.0001695
)
;
    }
    ceiling
    {
        type            nutkWallFunction;
        Cmu             0.09;
        kappa           0.41;
        E               9.8;
        value           nonuniform List<scalar> 
43
(
0.000254673
0.000263553
0.000271192
0.000304682
0.000292151
0.000266852
0.000242834
0.000225013
0.000207287
0.000187713
0.000168103
0.000151251
0.000139305
0.000132108
0.000128139
0.000126025
0.000124833
0.000124007
0.000123278
0.000122633
0.000122191
0.000122058
0.000122257
0.000122721
0.000123313
0.000123863
0.000124209
0.00012423
0.000123924
0.00012343
0.00012316
0.000123738
0.000125773
0.000129426
0.000134412
0.000139826
0.000144334
0.000141504
0.000131998
0.000122293
0.000338109
0.0003986
0.000236198
)
;
    }
    sWall
    {
        type            nutkWallFunction;
        Cmu             0.09;
        kappa           0.41;
        E               9.8;
        value           uniform 0.00025474;
    }
    nWall
    {
        type            nutkWallFunction;
        Cmu             0.09;
        kappa           0.41;
        E               9.8;
        value           nonuniform List<scalar> 6(8.61235e-05 0.000112429 0.000137242 0.000141994 0.000147743 0.000122299);
    }
    sideWalls
    {
        type            empty;
    }
    glass1
    {
        type            nutkWallFunction;
        Cmu             0.09;
        kappa           0.41;
        E               9.8;
        value           nonuniform List<scalar> 9(0.000142869 0.000181772 0.000213453 0.000243448 0.000274208 0.000307504 0.00033841 0.000345508 0.000338529);
    }
    glass2
    {
        type            nutkWallFunction;
        Cmu             0.09;
        kappa           0.41;
        E               9.8;
        value           nonuniform List<scalar> 2(0.000170063 0.000166556);
    }
    sun
    {
        type            nutkWallFunction;
        Cmu             0.09;
        kappa           0.41;
        E               9.8;
        value           nonuniform List<scalar> 
14
(
0.000142734
0.000156719
0.000162347
0.00017047
0.000177994
0.000185279
0.000192833
0.000199912
0.000205509
0.000208743
0.000208684
0.000204389
0.000193183
0.000167641
)
;
    }
    Table_master
    {
        type            nutkWallFunction;
        Cmu             0.09;
        kappa           0.41;
        E               9.8;
        value           nonuniform List<scalar> 9(0.000101284 8.47877e-05 7.12154e-05 6.09309e-05 5.33067e-05 4.74445e-05 4.27859e-05 3.91076e-05 3.65605e-05);
    }
    Table_slave
    {
        type            nutkWallFunction;
        Cmu             0.09;
        kappa           0.41;
        E               9.8;
        value           nonuniform List<scalar> 9(0.000114254 9.78998e-05 8.65948e-05 8.13219e-05 8.17323e-05 8.42337e-05 8.58504e-05 8.50557e-05 8.26067e-05);
    }
    inlet
    {
        type            calculated;
        value           uniform 0.000167705;
    }
    outlet
    {
        type            calculated;
        value           nonuniform List<scalar> 2(0.00219755 0.00228013);
    }
}


// ************************************************************************* //
