/*--------------------------------*- C++ -*----------------------------------*\
  =========                 |
  \\      /  F ield         | OpenFOAM: The Open Source CFD Toolbox
   \\    /   O peration     | Website:  https://openfoam.org
    \\  /    A nd           | Version:  6
     \\/     M anipulation  |
\*---------------------------------------------------------------------------*/
FoamFile
{
    version     2.0;
    format      ascii;
    class       volScalarField;
    location    "60";
    object      T;
}
// * * * * * * * * * * * * * * * * * * * * * * * * * * * * * * * * * * * * * //

dimensions      [0 0 0 1 0 0 0];

internalField   nonuniform List<scalar> 
458
(
303.445
303.187
303.163
303.15
303.138
303.126
303.115
303.101
303.084
303.068
303.057
303.058
303.08
303.136
303.2
304.098
304.025
303.949
303.966
304.006
304.053
304.091
304.119
304.139
304.151
304.16
304.165
304.169
304.171
304.173
304.174
304.175
304.183
303.612
303.231
303.199
303.19
303.182
303.172
303.157
303.134
303.098
303.056
303.024
303.016
303.038
303.083
303.135
303.162
303.199
303.263
304.097
303.887
303.79
303.806
303.868
303.951
304.025
304.078
304.111
304.131
304.142
304.147
304.15
304.152
304.154
304.156
304.16
304.174
303.792
303.287
303.246
303.249
303.255
303.255
303.245
303.212
303.146
303.065
303.003
302.982
303.006
303.049
303.092
303.129
303.171
303.235
303.959
303.723
303.641
303.667
303.75
303.862
303.979
304.06
304.106
304.128
304.138
304.142
304.144
304.145
304.147
304.15
304.154
304.168
303.979
303.355
303.297
303.314
303.343
303.367
303.371
303.324
303.213
303.08
302.984
302.953
302.979
303.029
303.078
303.119
303.16
303.209
303.234
303.291
303.354
303.438
303.552
303.686
303.829
303.955
304.05
304.108
304.139
304.155
304.166
304.172
304.175
304.168
304.161
304.158
304.165
304.166
303.44
303.35
303.372
303.421
303.474
303.5
303.43
303.266
303.082
302.962
302.926
302.958
303.024
303.088
303.137
303.174
303.212
303.249
303.3
303.373
303.475
303.604
303.749
303.896
304.013
304.09
304.134
304.16
304.178
304.191
304.198
304.198
304.191
304.18
304.17
304.167
304.169
304.173
304.209
304.339
303.547
303.427
303.431
303.487
303.558
303.582
303.47
303.266
303.058
302.923
302.892
302.946
303.039
303.128
303.192
303.234
303.273
303.322
303.393
303.485
303.604
303.742
303.884
304.001
304.08
304.13
304.162
304.186
304.204
304.218
304.225
304.225
304.216
304.203
304.189
304.181
304.18
304.181
304.207
304.499
303.712
303.585
303.57
303.604
303.665
303.624
303.443
303.187
302.961
302.841
302.85
302.951
303.09
303.212
303.297
303.351
303.394
303.455
303.545
303.66
303.785
303.908
304.008
304.078
304.128
304.163
304.191
304.214
304.233
304.247
304.254
304.253
304.242
304.227
304.212
304.202
304.198
304.196
304.212
304.72
304.135
303.987
303.905
303.877
303.817
303.605
303.283
302.966
302.76
302.715
302.819
303.002
303.203
303.359
303.465
303.515
303.559
303.628
303.724
303.831
303.932
304.016
304.081
304.128
304.164
304.194
304.22
304.242
304.259
304.271
304.275
304.274
304.266
304.252
304.239
304.231
304.229
304.229
304.3
305.036
304.755
304.528
304.321
304.127
303.74
303.206
302.737
302.47
302.436
302.597
302.881
303.167
303.43
303.575
303.644
303.686
303.734
303.8
303.879
303.959
304.029
304.086
304.13
304.165
304.195
304.222
304.245
304.265
304.278
304.287
304.29
304.29
304.29
304.29
304.294
304.306
304.323
304.341
304.383
297.195
298.395
299.05
299.55
300.176
300.875
301.569
302.199
302.758
303.276
303.541
303.684
303.755
303.799
303.838
303.883
303.936
303.993
304.046
304.093
304.131
304.162
304.19
304.216
304.239
304.26
304.276
304.288
304.295
304.3
304.303
304.306
304.308
304.314
304.323
304.334
304.346
304.359
297.641
298.814
299.915
300.934
301.649
302.236
302.746
303.161
303.47
303.676
303.787
303.852
303.893
303.926
303.958
303.993
304.03
304.066
304.1
304.129
304.154
304.178
304.2
304.221
304.241
304.259
304.273
304.285
304.293
304.299
304.304
304.308
304.311
304.316
304.322
304.329
304.329
304.345
299.921
299.88
299.877
301.195
302.127
302.803
303.212
303.459
303.633
303.762
303.854
303.916
303.955
303.983
304.006
304.026
304.046
304.065
304.085
304.103
304.119
304.135
304.151
304.167
304.184
304.201
304.218
304.234
304.247
304.258
304.268
304.277
304.284
304.291
304.297
304.303
304.309
304.311
304.307
304.334
)
;

boundaryField
{
    floor
    {
        type            wallHeatTransfer;
        Tinf            uniform 305.2;
        alphaWall       uniform 0.24;
        value           nonuniform List<scalar> 
36
(
303.4
304.308
304.225
304.14
304.148
304.185
304.232
304.275
304.308
304.334
304.355
304.374
304.39
304.405
304.419
304.431
304.439
304.438
304.447
304.447
304.403
304.375
304.35
304.321
304.32
304.352
303.4
303.327
303.383
303.472
304.308
303.472
304.307
303.416
304.153
303.402
)
;
    }
    ceiling
    {
        type            wallHeatTransfer;
        Tinf            uniform 303.2;
        alphaWall       uniform 0.24;
        value           nonuniform List<scalar> 
43
(
300.117
300.073
300.065
301.298
302.184
302.826
303.211
303.441
303.602
303.718
303.798
303.849
303.88
303.902
303.92
303.936
303.953
303.97
303.987
304.003
304.017
304.031
304.045
304.06
304.075
304.091
304.107
304.12
304.132
304.142
304.15
304.158
304.167
304.175
304.184
304.192
304.201
304.201
304.191
304.208
304.949
304.692
297.994
)
;
    }
    sWall
    {
        type            wallHeatTransfer;
        Tinf            uniform 315.2;
        alphaWall       uniform 0.36;
        value           uniform 301.256;
    }
    nWall
    {
        type            wallHeatTransfer;
        Tinf            uniform 307.2;
        alphaWall       uniform 0.36;
        value           nonuniform List<scalar> 6(304.812 304.709 304.645 304.761 304.736 304.786);
    }
    sideWalls
    {
        type            empty;
    }
    glass1
    {
        type            wallHeatTransfer;
        Tinf            uniform 315.2;
        alphaWall       uniform 4.3;
        value           nonuniform List<scalar> 9(311.271 310.75 310.415 310.158 309.936 309.726 309.564 309.629 309.848);
    }
    glass2
    {
        type            wallHeatTransfer;
        Tinf            uniform 307.2;
        alphaWall       uniform 4.3;
        value           nonuniform List<scalar> 2(306.118 306.162);
    }
    sun
    {
        type            wallHeatTransfer;
        Tinf            uniform 305.2;
        alphaWall       uniform 0.24;
        value           nonuniform List<scalar> 
14
(
303.617
303.37
303.343
303.324
303.307
303.291
303.275
303.257
303.238
303.221
303.21
303.214
303.242
303.314
)
;
    }
    Table_master
    {
        type            zeroGradient;
    }
    Table_slave
    {
        type            zeroGradient;
    }
    inlet
    {
        type            fixedValue;
        value           uniform 295.15;
    }
    outlet
    {
        type            zeroGradient;
    }
}


// ************************************************************************* //
