/*--------------------------------*- C++ -*----------------------------------*\
  =========                 |
  \\      /  F ield         | OpenFOAM: The Open Source CFD Toolbox
   \\    /   O peration     | Website:  https://openfoam.org
    \\  /    A nd           | Version:  6
     \\/     M anipulation  |
\*---------------------------------------------------------------------------*/
FoamFile
{
    version     2.0;
    format      ascii;
    class       volScalarField;
    location    "33299.9999977969783";
    object      nut;
}
// * * * * * * * * * * * * * * * * * * * * * * * * * * * * * * * * * * * * * //

dimensions      [0 2 -1 0 0 0 0];

internalField   nonuniform List<scalar> 
778
(
0.000894301
0.000953034
0.000949544
0.000990745
0.00102851
0.00106282
0.00109477
0.00112557
0.00115659
0.00118956
0.00122101
0.00125088
0.0012803
0.00131193
0.00134491
0.000632394
0.000905347
0.000912738
0.000890707
0.000853798
0.000804439
0.000755218
0.000709861
0.000668974
0.000632327
0.000599684
0.000570369
0.000543665
0.000518738
0.000494478
0.000469108
0.000448032
0.000405551
0.00131078
0.00258102
0.00226497
0.00261425
0.00286763
0.00313627
0.00340427
0.00365132
0.00385027
0.0039662
0.00403436
0.00400639
0.00380655
0.00331146
0.00241841
0.00147249
0.0014039
0.00134379
0.00113077
0.0019264
0.00267033
0.00310993
0.00313066
0.00247069
0.00211301
0.00186521
0.00167713
0.00152746
0.00139973
0.00128685
0.00118185
0.00107914
0.000986966
0.000907494
0.00102198
0.000514094
0.00166403
0.0036042
0.00267221
0.00382224
0.00427082
0.00465043
0.00499525
0.00529882
0.00555612
0.005758
0.00595349
0.00615909
0.00634783
0.00645976
0.00638436
0.00584464
0.00427397
0.00164817
0.00142681
0.0030524
0.00425946
0.00483059
0.004393
0.00115934
0.00100817
0.000891551
0.000800284
0.000727633
0.000668976
0.00062112
0.000582193
0.000551845
0.000606714
0.000713638
0.00112959
0.000584765
0.00200526
0.0048581
0.00255722
0.0042982
0.00496249
0.00531797
0.00557942
0.00577294
0.00591751
0.00603485
0.0062014
0.00648256
0.0068925
0.00740754
0.00792473
0.00817844
0.00767759
0.00572437
0.00164155
0.00380437
0.00565698
0.00659723
0.00682895
0.00582957
0.00132008
0.00120072
0.00110836
0.00103157
0.000966115
0.000907319
0.000851874
0.000796801
0.000737324
0.000688912
0.000714018
0.00122248
0.000643771
0.00234199
0.00643266
0.00258012
0.00408647
0.00510797
0.00541126
0.00552156
0.00552613
0.00547164
0.00542349
0.00549343
0.00576668
0.00626764
0.00697652
0.00779824
0.00855482
0.00903472
0.0090288
0.00810344
0.00824588
0.00843421
0.00845988
0.00828744
0.00775692
0.00617297
0.00533241
0.00475676
0.00428872
0.00383
0.00338575
0.00295112
0.00251693
0.00207072
0.00159071
0.00121406
0.00121201
0.000958986
0.000767331
0.00100923
0.000966822
0.00267362
0.00819576
0.00303763
0.00344638
0.00489464
0.00523124
0.00520474
0.00501786
0.00475052
0.00453001
0.00452535
0.00481158
0.00538237
0.00620421
0.0071659
0.00812611
0.00894416
0.00946681
0.00956197
0.0094657
0.00929706
0.00905816
0.00875162
0.00836202
0.00779376
0.00724648
0.00674968
0.0062691
0.00575057
0.005197
0.00460571
0.00397152
0.00329038
0.0025678
0.00191407
0.00143726
0.0011154
0.00125089
0.00217059
0.0011571
0.00301216
0.00982725
0.00404817
0.00282362
0.00439838
0.00494865
0.004888
0.00458532
0.00414601
0.00375935
0.00374823
0.00410935
0.00476243
0.00568057
0.00672571
0.0077601
0.00865066
0.00928883
0.00958248
0.0095595
0.00934892
0.00903026
0.00866569
0.00830227
0.00795095
0.00762869
0.00732608
0.00700287
0.00661283
0.00614346
0.00558765
0.0049426
0.00421093
0.0034118
0.00263163
0.0019039
0.00140187
0.00125302
0.00219949
0.00136283
0.0033035
0.0110643
0.00552047
0.00268863
0.00348466
0.00438734
0.00451336
0.00426451
0.0037455
0.00321907
0.0033385
0.00381591
0.00454574
0.00549166
0.00657643
0.00765914
0.00858324
0.00922581
0.00951797
0.00947996
0.0092084
0.00880787
0.00837726
0.00799554
0.00770134
0.00749119
0.00732741
0.00714932
0.00690179
0.00655534
0.00609611
0.00552124
0.00483654
0.00406338
0.00326148
0.00245102
0.00172161
0.00113776
0.0031725
0.00177968
0.00339332
0.0104839
0.00683671
0.00347683
0.00236281
0.00289603
0.00338851
0.00342994
0.00302883
0.00294447
0.00325057
0.00381162
0.00459991
0.00560207
0.00673827
0.00785412
0.0087752
0.00936863
0.00957759
0.00943478
0.00904127
0.008525
0.00801298
0.00760467
0.00734552
0.00721821
0.00716051
0.00709209
0.00694995
0.00669993
0.00632831
0.00583359
0.00522265
0.00451357
0.00373796
0.0028695
0.00171492
0.00137687
0.00481993
0.002021
0.00332467
0.00845851
0.00706634
0.00477561
0.00315279
0.0024413
0.00231264
0.00242153
0.00262531
0.00294982
0.00340931
0.00403999
0.00489617
0.00597554
0.00717289
0.00830442
0.00917781
0.00965983
0.00971105
0.00938836
0.00881941
0.00816465
0.00758067
0.00718087
0.00699762
0.00697595
0.00701544
0.00701461
0.00692263
0.00672009
0.00640032
0.00596294
0.00541254
0.00475509
0.00395924
0.00279875
0.00136145
0.00229019
0.00497632
0.00206645
0.00311444
0.00723156
0.00683531
0.00546819
0.00420672
0.00338621
0.0029809
0.00288976
0.00305841
0.00336801
0.00381653
0.00448094
0.005425
0.00660731
0.0078652
0.0089731
0.00972663
0.0100082
0.00981221
0.00923668
0.00845444
0.00767168
0.0070779
0.00678006
0.00674519
0.00684222
0.00694052
0.00694221
0.00684525
0.00664874
0.00634831
0.00593988
0.00542023
0.0047651
0.00379339
0.00219278
0.00144917
0.00289456
0.00487113
0.00205352
0.00283612
0.00652112
0.00659538
0.00579066
0.00492453
0.00427323
0.0038902
0.00375351
0.00378874
0.00397545
0.00438609
0.00512676
0.00621694
0.00752587
0.00881075
0.00980863
0.0103248
0.010284
0.00973925
0.00885088
0.00786033
0.0070343
0.00656782
0.00647244
0.00655177
0.00668041
0.00676652
0.00674306
0.0066309
0.00643177
0.00613817
0.00573955
0.00521906
0.00449053
0.00309568
0.00154016
0.00188136
0.00321431
0.00447238
0.00199225
0.00258646
0.00583306
0.00629823
0.00591737
0.0053612
0.00489445
0.00458443
0.00443334
0.00438838
0.00454666
0.00506656
0.00603332
0.00735198
0.00876914
0.00997195
0.0106972
0.0108043
0.0102966
0.00931732
0.00811481
0.00702911
0.00633343
0.00602423
0.00597883
0.00606044
0.00617843
0.00625996
0.00624196
0.00613283
0.00593236
0.00563125
0.00521585
0.00465572
0.00379467
0.00232586
0.00149973
0.00218084
0.0033629
0.00415629
0.00192602
0.00259425
0.005789
0.00643481
0.00598934
0.00553917
0.00517078
0.00490531
0.00473297
0.0047245
0.0051084
0.00602545
0.00739529
0.00894217
0.0103122
0.0111915
0.0113918
0.0108877
0.009793
0.00838683
0.00702864
0.00604513
0.00545988
0.00517149
0.005087
0.00512976
0.00522977
0.00531647
0.00531205
0.00519933
0.00497443
0.00463046
0.00416975
0.00360174
0.00289397
0.00201543
0.00159175
0.00227128
0.00348556
0.00468224
0.00194664
0.00234164
0.00243533
0.00359195
0.00421899
0.00441222
0.00441444
0.00437081
0.00445025
0.00498684
0.00613054
0.00773728
0.00947057
0.0109556
0.0118803
0.0120591
0.0114517
0.0102033
0.00854844
0.00696934
0.00573369
0.00489437
0.00439505
0.00414478
0.00404573
0.00403296
0.00406376
0.00409014
0.00404274
0.00387678
0.00359134
0.00320559
0.00277827
0.00238924
0.00208836
0.00187294
0.00183393
0.00241165
0.00381573
0.00473618
0.00207276
0.000807905
0.0014661
0.0022627
0.00290354
0.00364469
0.00490056
0.00674527
0.00878891
0.0106467
0.0120354
0.0127641
0.0127089
0.0118713
0.010335
0.00850097
0.00675716
0.00536706
0.00441993
0.00387965
0.003594
0.00343183
0.00332701
0.00325169
0.003189
0.00311552
0.0029948
0.00279782
0.00254231
0.00228239
0.00208811
0.00200063
0.00201787
0.00212868
0.00237334
0.00295563
0.00451138
0.00497326
0.00210243
0.0014972
0.00207805
0.00303454
0.00474353
0.0070636
0.00938707
0.0111897
0.0124898
0.0132758
0.0134975
0.0130604
0.0118695
0.0101077
0.00811637
0.00628731
0.00490157
0.00406235
0.00362723
0.00339426
0.00324798
0.00314457
0.00306843
0.00301004
0.0029573
0.00289208
0.00279385
0.00266174
0.00252296
0.00241966
0.00239061
0.00244992
0.002589
0.00280408
0.0031327
0.00369775
0.00499503
0.00540961
0.00212497
0.00275748
0.00666431
0.00612264
0.00547968
0.00697805
0.00932075
0.0113024
0.0126412
0.0133462
0.0135217
0.0132541
0.0125099
0.0112543
0.00954893
0.00763802
0.0058921
0.00465831
0.00397654
0.00362051
0.00340608
0.003258
0.00315661
0.00309881
0.00308099
0.003093
0.00311698
0.00312998
0.00311315
0.00307998
0.00305551
0.00305897
0.0031045
0.00319593
0.00332537
0.00348136
0.00366341
0.0038955
0.00421983
0.00436097
0.00202433
0.00263912
0.0050999
0.00658714
0.00841057
0.00934612
0.0103202
0.0108933
0.0110376
0.0108296
0.0103255
0.00955094
0.00852373
0.00730473
0.00604941
0.00498491
0.00424163
0.00375217
0.00343308
0.00320578
0.00303782
0.00292475
0.0028712
0.00288003
0.00294679
0.00305693
0.00318528
0.00329926
0.00336827
0.00341246
0.00345944
0.00352541
0.00361823
0.00373932
0.00388638
0.00405863
0.00426055
0.00449709
0.00480586
0.00489201
0.00198624
0.00247411
0.00211941
0.00210881
0.00216985
0.00222025
0.00215328
0.00202327
0.00187161
0.0017203
0.00157807
0.00144735
0.0013299
0.00122968
0.00115237
0.00110118
0.00107432
0.00106639
0.00106741
0.00107555
0.00109046
0.0011116
0.00113762
0.00116659
0.00119653
0.00122596
0.00125418
0.00128142
0.00130878
0.00133674
0.00136719
0.00140194
0.00144217
0.00148835
0.00154029
0.00159692
0.00165659
0.00172283
0.00181972
0.00196206
0.00192753
)
;

boundaryField
{
    floor
    {
        type            nutkWallFunction;
        Cmu             0.09;
        kappa           0.41;
        E               9.8;
        value           nonuniform List<scalar> 
36
(
0.000160581
7.6385e-05
0.000109519
0.000110398
0.000107776
0.000103365
9.74305e-05
9.14701e-05
8.59367e-05
8.09124e-05
7.63777e-05
7.23117e-05
6.86371e-05
6.52696e-05
6.21079e-05
5.90126e-05
5.57554e-05
5.30326e-05
4.7494e-05
4.74939e-05
6.15163e-05
7.04442e-05
7.77972e-05
9.29409e-05
0.000121788
0.000116804
0.000160581
0.000175019
0.000167274
0.000160453
7.6385e-05
0.000160453
0.000135989
0.000194679
0.000169864
0.000193942
)
;
    }
    ceiling
    {
        type            nutkWallFunction;
        Cmu             0.09;
        kappa           0.41;
        E               9.8;
        value           nonuniform List<scalar> 
43
(
0.000284363
0.000246296
0.00024515
0.000251754
0.000257197
0.000249988
0.000235906
0.000219343
0.000202664
0.000186838
0.000172154
0.000158838
0.00014738
0.000138477
0.00013255
0.000129426
0.000128504
0.000128622
0.000129565
0.000131294
0.000133747
0.000136768
0.000140129
0.0001436
0.000147006
0.000150265
0.000153402
0.000156541
0.000159739
0.000163207
0.000167152
0.000171706
0.000176921
0.000182771
0.000189127
0.000195788
0.000203085
0.000213656
0.000229197
0.000225622
0.000270418
0.00028043
0.000177592
)
;
    }
    sWall
    {
        type            nutkWallFunction;
        Cmu             0.09;
        kappa           0.41;
        E               9.8;
        value           nonuniform List<scalar> 9(0.000373891 0.000352082 0.000322976 0.000296616 0.000297439 0.000270508 0.000314391 0.000301928 0.000284464);
    }
    nWall
    {
        type            nutkWallFunction;
        Cmu             0.09;
        kappa           0.41;
        E               9.8;
        value           nonuniform List<scalar> 
14
(
0.000116811
0.000139055
0.000162632
0.00024065
0.000239205
0.000232509
0.000225328
0.000227797
0.000241371
0.000244573
0.000246879
0.000235975
0.000231992
0.000225656
)
;
    }
    sideWalls
    {
        type            empty;
    }
    glass1
    {
        type            nutkWallFunction;
        Cmu             0.09;
        kappa           0.41;
        E               9.8;
        value           nonuniform List<scalar> 9(0.000108247 0.000156882 0.000196737 0.00023435 0.000270793 0.000306142 0.000341756 0.000372076 0.000381376);
    }
    glass2
    {
        type            nutkWallFunction;
        Cmu             0.09;
        kappa           0.41;
        E               9.8;
        value           nonuniform List<scalar> 2(0.000209357 0.000235861);
    }
    sun
    {
        type            nutkWallFunction;
        Cmu             0.09;
        kappa           0.41;
        E               9.8;
        value           nonuniform List<scalar> 
14
(
0.000108206
0.000115177
0.000114764
0.000119628
0.000124066
0.000128081
0.000131807
0.000135387
0.000138982
0.00014279
0.000146412
0.000149842
0.000153212
0.000156824
)
;
    }
    Table_master
    {
        type            nutkWallFunction;
        Cmu             0.09;
        kappa           0.41;
        E               9.8;
        value           nonuniform List<scalar> 9(0.000139291 0.000121672 0.000107874 9.69287e-05 8.81115e-05 8.09164e-05 7.49903e-05 7.01291e-05 6.63118e-05);
    }
    Table_slave
    {
        type            nutkWallFunction;
        Cmu             0.09;
        kappa           0.41;
        E               9.8;
        value           nonuniform List<scalar> 9(0.000157742 0.000144066 0.00013338 0.000124418 0.000116718 0.000109751 0.000103132 9.65081e-05 8.92934e-05);
    }
    inlet
    {
        type            calculated;
        value           uniform 0.000167705;
    }
    outlet
    {
        type            calculated;
        value           nonuniform List<scalar> 2(0.00275748 0.00666431);
    }
}


// ************************************************************************* //
