/*--------------------------------*- C++ -*----------------------------------*\
  =========                 |
  \\      /  F ield         | OpenFOAM: The Open Source CFD Toolbox
   \\    /   O peration     | Website:  https://openfoam.org
    \\  /    A nd           | Version:  6
     \\/     M anipulation  |
\*---------------------------------------------------------------------------*/
FoamFile
{
    version     2.0;
    format      ascii;
    class       volVectorField;
    location    "33299.9999977969783";
    object      U;
}
// * * * * * * * * * * * * * * * * * * * * * * * * * * * * * * * * * * * * * //

dimensions      [0 1 -1 0 0 0 0];

internalField   nonuniform List<vector> 
778
(
(0.0655947 0.07941 0)
(-0.155181 0.0157697 0)
(-0.164317 0.0146308 0)
(-0.192444 0.0122822 0)
(-0.216893 0.00873261 0)
(-0.236968 0.00475128 0)
(-0.252109 0.000422872 0)
(-0.261892 -0.00436508 0)
(-0.265801 -0.00981097 0)
(-0.262833 -0.016195 0)
(-0.25103 -0.0242727 0)
(-0.226323 -0.0348965 0)
(-0.186187 -0.050424 0)
(-0.144238 -0.0752038 0)
(-0.150139 -0.108611 0)
(0.0546092 0.0354789 0)
(0.0156826 -0.0268575 0)
(0.044839 -0.0232527 0)
(0.0692071 -0.0161501 0)
(0.0842408 -0.0103453 0)
(0.0914359 -0.00641248 0)
(0.0942679 -0.00433549 0)
(0.0952997 -0.00331214 0)
(0.0957477 -0.00272533 0)
(0.0959122 -0.0023132 0)
(0.0957835 -0.00195018 0)
(0.0952564 -0.00151146 0)
(0.0940017 -0.000759502 0)
(0.0911619 0.000841773 0)
(0.084972 0.00405952 0)
(0.0734602 0.00775854 0)
(0.0598433 0.0115946 0)
(-0.00797646 0.0299518 0)
(0.25839 0.167399 0)
(-0.161239 0.0484025 0)
(-0.141618 0.0459943 0)
(-0.174032 0.0416321 0)
(-0.199407 0.0356879 0)
(-0.220143 0.0291507 0)
(-0.236188 0.0220791 0)
(-0.247456 0.0142464 0)
(-0.253646 0.0053092 0)
(-0.253975 -0.00514719 0)
(-0.247826 -0.0170861 0)
(-0.234122 -0.030863 0)
(-0.214215 -0.0480975 0)
(-0.197643 -0.0699915 0)
(-0.194134 -0.0826853 0)
(-0.166506 -0.0426042 0)
(-0.105405 -0.0364363 0)
(-0.0983431 -0.0445302 0)
(0.109326 -0.0419785 0)
(0.0644149 -0.0410868 0)
(0.0718067 -0.0322112 0)
(0.0857453 -0.0206709 0)
(0.0936088 -0.0104313 0)
(0.0958256 -0.0036325 0)
(0.0955865 -0.000191766 0)
(0.0952017 0.00125882 0)
(0.095166 0.0019076 0)
(0.0952457 0.00227807 0)
(0.0952509 0.00259478 0)
(0.0951493 0.00313182 0)
(0.0948579 0.00440828 0)
(0.0936022 0.00771717 0)
(0.0880125 0.0167352 0)
(0.0742772 0.025293 0)
(0.0629786 0.0328821 0)
(-0.0520622 0.0634645 0)
(0.429965 0.253964 0)
(-0.194235 0.0847774 0)
(-0.112794 0.0784549 0)
(-0.148269 0.0669833 0)
(-0.170712 0.0555325 0)
(-0.188818 0.043763 0)
(-0.202669 0.0313804 0)
(-0.212374 0.0180404 0)
(-0.217738 0.00342422 0)
(-0.218106 -0.0126181 0)
(-0.212856 -0.0303232 0)
(-0.201754 -0.0499207 0)
(-0.186118 -0.0715927 0)
(-0.16959 -0.0932467 0)
(-0.151228 -0.104608 0)
(-0.120385 -0.0931971 0)
(-0.0796763 -0.0950208 0)
(-0.0715858 -0.107695 0)
(0.0920627 -0.088026 0)
(0.062498 -0.065634 0)
(0.0742696 -0.046026 0)
(0.0878684 -0.0291549 0)
(0.094656 -0.0148108 0)
(0.0917116 -0.0120118 0)
(0.0874841 -0.00797601 0)
(0.0851149 -0.00580242 0)
(0.0844207 -0.00456754 0)
(0.0844022 -0.00379711 0)
(0.0846642 -0.00322265 0)
(0.0853192 -0.00259746 0)
(0.0870789 -0.00144116 0)
(0.091756 0.00291454 0)
(0.0899073 0.025077 0)
(0.0731172 0.0422851 0)
(0.0699016 0.0573353 0)
(-0.0901695 0.100695 0)
(0.578526 0.325855 0)
(-0.240102 0.121836 0)
(-0.0808518 0.109254 0)
(-0.121601 0.089891 0)
(-0.139044 0.074113 0)
(-0.153116 0.0586838 0)
(-0.163887 0.0428016 0)
(-0.171493 0.0258537 0)
(-0.175714 0.00723253 0)
(-0.175789 -0.0135104 0)
(-0.171106 -0.0364633 0)
(-0.161544 -0.0614594 0)
(-0.147689 -0.0873813 0)
(-0.13073 -0.110312 0)
(-0.109795 -0.12322 0)
(-0.0823375 -0.124578 0)
(-0.0527498 -0.126433 0)
(-0.0336456 -0.123236 0)
(0.0160075 -0.0568191 0)
(0.0605914 -0.0929512 0)
(0.0683076 -0.0790757 0)
(0.0789591 -0.0587119 0)
(0.0914631 -0.0394697 0)
(0.10282 -0.0208028 0)
(0.115562 -0.0131636 0)
(0.126676 -0.00880636 0)
(0.132243 -0.00560418 0)
(0.133202 -0.00309807 0)
(0.130656 -0.000872916 0)
(0.125175 0.00129694 0)
(0.116635 0.00367606 0)
(0.104271 0.00672606 0)
(0.0850277 0.0111468 0)
(0.0711753 0.0367954 0)
(0.059906 0.0604576 0)
(0.0760092 0.0831675 0)
(-0.117939 0.136772 0)
(0.705702 0.383699 0)
(-0.287675 0.157038 0)
(-0.0477158 0.133822 0)
(-0.0963218 0.106967 0)
(-0.107781 0.087652 0)
(-0.116824 0.0692359 0)
(-0.123624 0.0505113 0)
(-0.128293 0.0306466 0)
(-0.130661 0.00877054 0)
(-0.12986 -0.0157906 0)
(-0.125364 -0.0430632 0)
(-0.116747 -0.0726753 0)
(-0.10404 -0.102811 0)
(-0.0875942 -0.129062 0)
(-0.0676717 -0.145764 0)
(-0.0443577 -0.152263 0)
(-0.0205155 -0.1524 0)
(1.42029e-06 -0.143773 0)
(0.0305466 -0.115007 0)
(0.0567485 -0.109323 0)
(0.0703716 -0.0923656 0)
(0.0805451 -0.0711703 0)
(0.090625 -0.0507031 0)
(0.100191 -0.0326624 0)
(0.10929 -0.0193129 0)
(0.116287 -0.00994931 0)
(0.119678 -0.0032607 0)
(0.119842 0.00198478 0)
(0.117401 0.00651928 0)
(0.112726 0.0108568 0)
(0.105848 0.0155098 0)
(0.096699 0.0211824 0)
(0.0847776 0.0291754 0)
(0.0732241 0.0471695 0)
(0.0627155 0.071179 0)
(0.0942123 0.0992179 0)
(0.0162017 0.13797 0)
(0.0954452 0.182879 0)
(0.141106 0.14696 0)
(-0.224552 0.203451 0)
(0.81041 0.431997 0)
(-0.331312 0.190714 0)
(-0.0173337 0.150302 0)
(-0.0734007 0.117582 0)
(-0.0786343 0.0955818 0)
(-0.0822666 0.0750205 0)
(-0.084531 0.0544183 0)
(-0.0855768 0.0327892 0)
(-0.0853273 0.00891725 0)
(-0.0826553 -0.0183705 0)
(-0.0774901 -0.048997 0)
(-0.068869 -0.0824692 0)
(-0.0568891 -0.116454 0)
(-0.0418602 -0.146237 0)
(-0.0248934 -0.165939 0)
(-0.00653314 -0.174469 0)
(0.0118501 -0.17276 0)
(0.0277589 -0.161041 0)
(0.0459352 -0.139351 0)
(0.0624104 -0.122348 0)
(0.0731135 -0.102462 0)
(0.0808199 -0.0803778 0)
(0.0875926 -0.0590095 0)
(0.0937745 -0.0401215 0)
(0.0990923 -0.0249504 0)
(0.102754 -0.013602 0)
(0.104324 -0.00492044 0)
(0.103857 0.00225601 0)
(0.10167 0.00870128 0)
(0.0980121 0.014934 0)
(0.0930458 0.0214847 0)
(0.0870023 0.0289944 0)
(0.0801375 0.0383884 0)
(0.0743755 0.0528234 0)
(0.0690818 0.0728469 0)
(0.090994 0.0985746 0)
(0.0725893 0.107269 0)
(0.0889577 0.0477966 0)
(0.146172 -0.0373411 0)
(-0.3299 0.106049 0)
(0.879895 0.47471 0)
(-0.368632 0.221005 0)
(0.00371032 0.155627 0)
(-0.0526969 0.121647 0)
(-0.0522528 0.0979357 0)
(-0.0510851 0.0759095 0)
(-0.0490923 0.0541308 0)
(-0.0465846 0.0316142 0)
(-0.0434034 0.00683834 0)
(-0.0374434 -0.0222481 0)
(-0.0303701 -0.0553251 0)
(-0.0205951 -0.0918823 0)
(-0.00880716 -0.128805 0)
(0.00437284 -0.161124 0)
(0.0174194 -0.18179 0)
(0.0301936 -0.190165 0)
(0.0419953 -0.187226 0)
(0.0523002 -0.174449 0)
(0.0622807 -0.154102 0)
(0.0708775 -0.132428 0)
(0.0764277 -0.109373 0)
(0.0799095 -0.0858276 0)
(0.0825175 -0.0636095 0)
(0.084749 -0.0440794 0)
(0.0865597 -0.0279641 0)
(0.0876167 -0.0151666 0)
(0.0877032 -0.00490882 0)
(0.0866733 0.00372694 0)
(0.0847273 0.0114207 0)
(0.0820167 0.0186966 0)
(0.0787248 0.0260611 0)
(0.075136 0.0340303 0)
(0.0716509 0.0431859 0)
(0.0696238 0.0548564 0)
(0.0683859 0.0694668 0)
(0.0811876 0.0887381 0)
(0.0837551 0.0922292 0)
(0.0883387 0.0545333 0)
(0.180731 0.0242519 0)
(-0.28252 0.153511 0)
(0.927958 0.517165 0)
(-0.383165 0.234224 0)
(0.0169018 0.133072 0)
(-0.0273613 0.116751 0)
(-0.0265964 0.0950199 0)
(-0.0228035 0.0725287 0)
(-0.0177054 0.0502009 0)
(-0.0124408 0.0273363 0)
(-0.0054951 0.00193382 0)
(0.00449397 -0.0306934 0)
(0.0142093 -0.0652792 0)
(0.0254958 -0.103252 0)
(0.0371151 -0.140731 0)
(0.0477668 -0.171987 0)
(0.0568368 -0.1922 0)
(0.0643101 -0.199737 0)
(0.070021 -0.195377 0)
(0.0739747 -0.181229 0)
(0.0766846 -0.160161 0)
(0.0780648 -0.136151 0)
(0.0777284 -0.111097 0)
(0.0762438 -0.0865169 0)
(0.0744336 -0.0638961 0)
(0.0728162 -0.044245 0)
(0.071525 -0.0279478 0)
(0.0704247 -0.0147267 0)
(0.0693249 -0.00388896 0)
(0.0679372 0.00533857 0)
(0.0663912 0.0135329 0)
(0.0646667 0.0211812 0)
(0.0628585 0.0287166 0)
(0.0611684 0.0365094 0)
(0.0599129 0.0448858 0)
(0.0599614 0.0543846 0)
(0.0611226 0.0650901 0)
(0.0698158 0.078735 0)
(0.0787685 0.0827889 0)
(0.0766122 0.0623971 0)
(0.238743 0.051327 0)
(-0.559613 0.230117 0)
(1.01131 0.506844 0)
(-0.13737 0.296374 0)
(0.0410746 0.161577 0)
(0.0405532 0.122172 0)
(0.0130352 0.0920689 0)
(0.00860968 0.0654611 0)
(0.0140237 0.041481 0)
(0.0206393 0.017057 0)
(0.0324476 -0.010967 0)
(0.0439102 -0.0421091 0)
(0.0557751 -0.0768588 0)
(0.0680375 -0.114543 0)
(0.0791519 -0.15095 0)
(0.0876253 -0.180384 0)
(0.0928177 -0.19843 0)
(0.0948448 -0.203657 0)
(0.0941197 -0.197087 0)
(0.0911941 -0.181111 0)
(0.0867459 -0.158752 0)
(0.0812251 -0.13332 0)
(0.0749198 -0.107249 0)
(0.0684221 -0.082376 0)
(0.0624458 -0.0600724 0)
(0.0575003 -0.0410746 0)
(0.0537672 -0.0254792 0)
(0.0511397 -0.0128009 0)
(0.0493526 -0.00227678 0)
(0.0480074 0.00677783 0)
(0.0470999 0.0148578 0)
(0.0464114 0.0224042 0)
(0.0459099 0.0297573 0)
(0.0456702 0.03715 0)
(0.0458661 0.0447237 0)
(0.0469997 0.0526428 0)
(0.0491018 0.0608123 0)
(0.0553195 0.0701588 0)
(0.0635815 0.0721381 0)
(0.0535653 0.0496811 0)
(0.294183 0.0721268 0)
(-0.778429 0.299182 0)
(0.779348 0.395785 0)
(0.000705455 0.31953 0)
(0.0933602 0.218948 0)
(0.110568 0.155222 0)
(0.0771321 0.106888 0)
(0.059757 0.0676166 0)
(0.0581726 0.0358275 0)
(0.0623333 0.00646618 0)
(0.0737607 -0.023397 0)
(0.0853299 -0.0550132 0)
(0.0975167 -0.0897047 0)
(0.109363 -0.126159 0)
(0.118709 -0.159878 0)
(0.123781 -0.185561 0)
(0.123983 -0.199655 0)
(0.119744 -0.201317 0)
(0.112019 -0.191886 0)
(0.101884 -0.173879 0)
(0.0903831 -0.150301 0)
(0.0783584 -0.124176 0)
(0.0664976 -0.0980383 0)
(0.0555275 -0.0738183 0)
(0.0461661 -0.0527804 0)
(0.0388682 -0.035378 0)
(0.0337178 -0.0214131 0)
(0.0304673 -0.010126 0)
(0.0286597 -0.000628216 0)
(0.0278279 0.00769115 0)
(0.0277272 0.0152698 0)
(0.0280304 0.022477 0)
(0.0286128 0.0295436 0)
(0.0294234 0.0365879 0)
(0.030457 0.0436316 0)
(0.0318476 0.0506544 0)
(0.0333743 0.0575376 0)
(0.0358176 0.065091 0)
(0.0277568 0.0698516 0)
(0.0212674 0.0815418 0)
(0.136815 0.159316 0)
(-0.653664 0.301884 0)
(0.61729 0.220936 0)
(0.00459134 0.29816 0)
(0.113028 0.241571 0)
(0.148295 0.177587 0)
(0.130857 0.123552 0)
(0.117833 0.077883 0)
(0.114966 0.0389378 0)
(0.117128 0.00343661 0)
(0.12349 -0.0306872 0)
(0.131713 -0.0649753 0)
(0.141389 -0.100436 0)
(0.150245 -0.135244 0)
(0.155343 -0.165052 0)
(0.154759 -0.185561 0)
(0.148181 -0.194481 0)
(0.136509 -0.191827 0)
(0.121217 -0.179318 0)
(0.103814 -0.159494 0)
(0.0856757 -0.135236 0)
(0.0679166 -0.109324 0)
(0.0514875 -0.0842248 0)
(0.0372602 -0.0618183 0)
(0.0259711 -0.0432065 0)
(0.0178725 -0.028446 0)
(0.0127199 -0.0169574 0)
(0.00986224 -0.00762559 0)
(0.00857798 0.000474512 0)
(0.00850396 0.00782874 0)
(0.0091376 0.0147861 0)
(0.0102389 0.0216019 0)
(0.0116485 0.0284178 0)
(0.0132124 0.0353017 0)
(0.0147372 0.0422491 0)
(0.0160515 0.0491981 0)
(0.0170106 0.0561314 0)
(0.0171178 0.0648896 0)
(-0.00591811 0.0849154 0)
(-0.00172463 0.118271 0)
(0.136051 0.176755 0)
(-0.560856 0.240349 0)
(0.570768 0.11858 0)
(-0.0203129 0.258672 0)
(0.113746 0.229909 0)
(0.165089 0.176091 0)
(0.166744 0.12623 0)
(0.164395 0.0811506 0)
(0.165372 0.0400214 0)
(0.168285 0.00166871 0)
(0.17225 -0.0353601 0)
(0.177827 -0.0718696 0)
(0.183989 -0.107487 0)
(0.187655 -0.139456 0)
(0.185813 -0.163943 0)
(0.17709 -0.178167 0)
(0.161933 -0.181346 0)
(0.141881 -0.174364 0)
(0.118881 -0.159234 0)
(0.0946974 -0.138359 0)
(0.0709347 -0.114431 0)
(0.0488481 -0.0899389 0)
(0.0296223 -0.0672506 0)
(0.01426 -0.048114 0)
(0.00334257 -0.0332782 0)
(-0.00359293 -0.0219335 0)
(-0.00732304 -0.0133442 0)
(-0.00918875 -0.00596931 0)
(-0.00979659 0.000802847 0)
(-0.00938653 0.00724571 0)
(-0.00831406 0.0135782 0)
(-0.006697 0.0199651 0)
(-0.00469114 0.0265389 0)
(-0.00252518 0.0334256 0)
(-0.00058507 0.0407418 0)
(0.000581694 0.0485648 0)
(0.000819021 0.0573324 0)
(-0.00409958 0.072866 0)
(-0.0347508 0.108217 0)
(-0.025543 0.144479 0)
(0.0693503 0.183224 0)
(-0.526328 0.188761 0)
(0.628407 0.0537347 0)
(0.00937839 0.197324 0)
(0.113886 0.196983 0)
(0.175182 0.157985 0)
(0.191415 0.117751 0)
(0.19805 0.0773357 0)
(0.203365 0.0373249 0)
(0.208567 -0.00147877 0)
(0.213085 -0.0396461 0)
(0.217414 -0.0764934 0)
(0.219235 -0.10984 0)
(0.215382 -0.13655 0)
(0.203971 -0.154063 0)
(0.185091 -0.161419 0)
(0.160355 -0.159191 0)
(0.131929 -0.148778 0)
(0.102074 -0.132243 0)
(0.0725216 -0.111644 0)
(0.0450771 -0.0894888 0)
(0.020996 -0.0679703 0)
(0.00187167 -0.0493889 0)
(-0.0113866 -0.0352893 0)
(-0.0190725 -0.0255226 0)
(-0.0234062 -0.0178899 0)
(-0.0256793 -0.0113143 0)
(-0.0267624 -0.0051937 0)
(-0.0269581 0.000657328 0)
(-0.0263592 0.00635195 0)
(-0.0250791 0.0120475 0)
(-0.023135 0.017919 0)
(-0.0206528 0.024178 0)
(-0.0178879 0.0310982 0)
(-0.0153588 0.039044 0)
(-0.0139619 0.0485846 0)
(-0.014281 0.0614007 0)
(-0.020273 0.085593 0)
(-0.0485733 0.131548 0)
(-0.0429323 0.173072 0)
(-0.0203455 0.173313 0)
(-0.541911 0.107341 0)
(0.472634 0.0747873 0)
(-0.132022 0.137612 0)
(0.0942838 0.133359 0)
(0.172764 0.116881 0)
(0.203848 0.0954287 0)
(0.218106 0.064467 0)
(0.228074 0.0284332 0)
(0.237158 -0.00895785 0)
(0.243575 -0.04533 0)
(0.245115 -0.0782422 0)
(0.239147 -0.10502 0)
(0.224313 -0.123631 0)
(0.201129 -0.133265 0)
(0.171498 -0.1344 0)
(0.137996 -0.128309 0)
(0.102916 -0.116265 0)
(0.0686158 -0.100139 0)
(0.0363155 -0.0815254 0)
(0.00850176 -0.0629406 0)
(-0.013962 -0.0463846 0)
(-0.027778 -0.035217 0)
(-0.0359774 -0.0273518 0)
(-0.0404574 -0.0211812 0)
(-0.0429008 -0.0155657 0)
(-0.0441757 -0.0101466 0)
(-0.0447272 -0.0048323 0)
(-0.0446555 0.000320678 0)
(-0.0439527 0.00531696 0)
(-0.0425597 0.0102945 0)
(-0.0403676 0.0154947 0)
(-0.0374263 0.0212514 0)
(-0.0339235 0.0280169 0)
(-0.0303134 0.0364364 0)
(-0.0274823 0.0476102 0)
(-0.0255235 0.0639582 0)
(-0.0226466 0.0920422 0)
(-0.0327803 0.141743 0)
(-0.0257326 0.200498 0)
(0.0879163 0.191533 0)
(-0.516969 0.0310164 0)
(0.724113 0.134439 0)
(0.0818331 0.115249 0)
(0.149744 0.0992583 0)
(0.222379 0.080569 0)
(0.244012 0.0700299 0)
(0.248787 0.0477549 0)
(0.255093 0.0175914 0)
(0.261241 -0.0147279 0)
(0.260315 -0.0447733 0)
(0.24987 -0.0695662 0)
(0.229652 -0.0873968 0)
(0.201223 -0.097827 0)
(0.16694 -0.1012 0)
(0.129325 -0.0985452 0)
(0.0908869 -0.0911646 0)
(0.05307 -0.0797447 0)
(0.0187169 -0.0659856 0)
(-0.0126187 -0.0510587 0)
(-0.0344369 -0.0397731 0)
(-0.0486733 -0.0320461 0)
(-0.0568361 -0.0269802 0)
(-0.0613856 -0.0228335 0)
(-0.0638476 -0.0187289 0)
(-0.0651497 -0.0142921 0)
(-0.0657531 -0.00958251 0)
(-0.0658829 -0.00480429 0)
(-0.0655753 -0.000183717 0)
(-0.0647711 0.00417775 0)
(-0.063388 0.00838546 0)
(-0.0611494 0.0127422 0)
(-0.058005 0.0176963 0)
(-0.0539939 0.0238574 0)
(-0.0492843 0.0320962 0)
(-0.0442046 0.0437369 0)
(-0.0381157 0.0608794 0)
(-0.0265479 0.0872872 0)
(-0.0140902 0.129752 0)
(-0.0045607 0.190993 0)
(0.157334 0.187729 0)
(-0.384911 0.0795668 0)
(0.191735 0.0880421 0)
(0.225611 0.0998542 0)
(0.246398 0.070269 0)
(0.242476 0.0399473 0)
(0.239708 0.0122181 0)
(0.234771 -0.0128584 0)
(0.22013 -0.0333664 0)
(0.196494 -0.0484592 0)
(0.166167 -0.0581155 0)
(0.131567 -0.0628291 0)
(0.0944628 -0.0629392 0)
(0.056777 -0.0592192 0)
(0.0205158 -0.0526177 0)
(-0.0150409 -0.0433752 0)
(-0.0423553 -0.0350511 0)
(-0.0626158 -0.0288263 0)
(-0.0757 -0.0254315 0)
(-0.0836043 -0.0235295 0)
(-0.0881862 -0.0219914 0)
(-0.0908995 -0.0198781 0)
(-0.0924963 -0.0169454 0)
(-0.0933669 -0.0132779 0)
(-0.0937295 -0.00913221 0)
(-0.093719 -0.00482466 0)
(-0.0933762 -0.00066067 0)
(-0.0926878 0.00317658 0)
(-0.0916635 0.00669227 0)
(-0.0899689 0.0101704 0)
(-0.087436 0.0141228 0)
(-0.0838153 0.0192246 0)
(-0.0787043 0.0263288 0)
(-0.0715973 0.0364928 0)
(-0.0613851 0.0509881 0)
(-0.0444669 0.0713641 0)
(-0.0186963 0.100226 0)
(0.00583778 0.147963 0)
(0.181123 0.160087 0)
(-0.349052 0.137552 0)
(0.450835 0.209869 0)
(0.205829 0.178834 0)
(0.152394 0.118815 0)
(0.139462 0.0639991 0)
(0.128265 0.0257861 0)
(0.11438 0.00165938 0)
(0.0990834 -0.0130445 0)
(0.0780683 -0.022057 0)
(0.0532977 -0.0274239 0)
(0.0258897 -0.0295519 0)
(-0.00447157 -0.0283441 0)
(-0.0342454 -0.0248897 0)
(-0.0607721 -0.0208018 0)
(-0.0828432 -0.0176249 0)
(-0.0988158 -0.0167616 0)
(-0.10942 -0.0175645 0)
(-0.116028 -0.0191956 0)
(-0.1203 -0.0203226 0)
(-0.123267 -0.0202922 0)
(-0.125453 -0.018896 0)
(-0.127074 -0.0162241 0)
(-0.128227 -0.0125212 0)
(-0.128961 -0.00814894 0)
(-0.129307 -0.00356866 0)
(-0.129284 0.000688431 0)
(-0.128952 0.00415559 0)
(-0.128454 0.00692214 0)
(-0.127566 0.00940441 0)
(-0.126021 0.0120729 0)
(-0.12334 0.0154139 0)
(-0.118762 0.0199529 0)
(-0.1114 0.0262689 0)
(-0.100088 0.0347699 0)
(-0.0819684 0.0451975 0)
(-0.0521702 0.0570802 0)
(-0.010753 0.0776865 0)
(0.188356 0.123267 0)
(-0.397279 0.204626 0)
(0.358406 -0.417358 0)
(-0.346421 -0.512828 0)
(-0.218432 -0.0271156 0)
(-0.0935033 0.111055 0)
(-0.0539709 0.0925552 0)
(-0.0315456 0.0544647 0)
(-0.0266294 0.028237 0)
(-0.0314947 0.0114967 0)
(-0.0401745 0.000732948 0)
(-0.0507021 -0.00615952 0)
(-0.0644802 -0.0101277 0)
(-0.0802096 -0.0120126 0)
(-0.0967734 -0.0131293 0)
(-0.112709 -0.0150205 0)
(-0.1268 -0.0180759 0)
(-0.138056 -0.0214929 0)
(-0.145777 -0.0244796 0)
(-0.150524 -0.0267206 0)
(-0.153697 -0.0281994 0)
(-0.156288 -0.0288813 0)
(-0.158697 -0.0287458 0)
(-0.161011 -0.0277998 0)
(-0.163198 -0.0261203 0)
(-0.165207 -0.0238372 0)
(-0.167003 -0.0210853 0)
(-0.168539 -0.0179236 0)
(-0.169652 -0.0142649 0)
(-0.170053 -0.00988511 0)
(-0.169594 -0.00550785 0)
(-0.168455 -0.0014246 0)
(-0.166636 0.00257456 0)
(-0.163949 0.00673704 0)
(-0.160039 0.0113242 0)
(-0.154729 0.0166672 0)
(-0.148109 0.0229973 0)
(-0.138957 0.0302526 0)
(-0.120777 0.0402378 0)
(-0.0776401 0.0653859 0)
(-0.0146345 0.12819 0)
(-0.532057 0.228492 0)
(0.122105 -0.186472 0)
(-0.388817 -0.298205 0)
(-0.343737 -0.0962866 0)
(-0.265358 0.0517556 0)
(-0.211659 0.08354 0)
(-0.179548 0.0745111 0)
(-0.163312 0.0610384 0)
(-0.157334 0.0511874 0)
(-0.157378 0.0462645 0)
(-0.160604 0.0460608 0)
(-0.165126 0.0497102 0)
(-0.169435 0.0559667 0)
(-0.172693 0.0634349 0)
(-0.174727 0.0704002 0)
(-0.175936 0.0748524 0)
(-0.176925 0.0742771 0)
(-0.178424 0.0679966 0)
(-0.180683 0.0608344 0)
(-0.183786 0.0547118 0)
(-0.187622 0.050238 0)
(-0.19194 0.0475292 0)
(-0.196393 0.0465315 0)
(-0.200586 0.047067 0)
(-0.204147 0.0488064 0)
(-0.206804 0.0512051 0)
(-0.208443 0.0534437 0)
(-0.20907 0.0544261 0)
(-0.208633 0.0529466 0)
(-0.207012 0.0504378 0)
(-0.204271 0.0477673 0)
(-0.200477 0.0450569 0)
(-0.195484 0.0423589 0)
(-0.188982 0.0397877 0)
(-0.180967 0.0374333 0)
(-0.171961 0.0348211 0)
(-0.16024 0.0300413 0)
(-0.134044 0.0216149 0)
(-0.0663047 0.0201716 0)
(0.126889 0.0696545 0)
(-0.593326 0.164997 0)
(1.1492 -0.0111388 0)
(-0.29794 -0.323647 0)
(-0.353599 -0.233113 0)
(-0.353326 -0.148776 0)
(-0.329636 -0.107565 0)
(-0.298176 -0.0991568 0)
(-0.271169 -0.101492 0)
(-0.25166 -0.107299 0)
(-0.238583 -0.114901 0)
(-0.22973 -0.124135 0)
(-0.223068 -0.135252 0)
(-0.217222 -0.148405 0)
(-0.211601 -0.163127 0)
(-0.206339 -0.177979 0)
(-0.202155 -0.190546 0)
(-0.200245 -0.198076 0)
(-0.201831 -0.199146 0)
(-0.207278 -0.196787 0)
(-0.215666 -0.192029 0)
(-0.225816 -0.185624 0)
(-0.236582 -0.178279 0)
(-0.24696 -0.170691 0)
(-0.256117 -0.163422 0)
(-0.263394 -0.156752 0)
(-0.268314 -0.150633 0)
(-0.270632 -0.144743 0)
(-0.270466 -0.138614 0)
(-0.268348 -0.131848 0)
(-0.265171 -0.125342 0)
(-0.261243 -0.118981 0)
(-0.25656 -0.112325 0)
(-0.250957 -0.105164 0)
(-0.244319 -0.0975443 0)
(-0.23738 -0.0897025 0)
(-0.232371 -0.0821269 0)
(-0.229383 -0.0752371 0)
(-0.21448 -0.065972 0)
(-0.166061 -0.0399412 0)
(-0.158178 0.018736 0)
(-0.666871 0.0840225 0)
)
;

boundaryField
{
    floor
    {
        type            noSlip;
    }
    ceiling
    {
        type            noSlip;
    }
    sWall
    {
        type            noSlip;
    }
    nWall
    {
        type            noSlip;
    }
    sideWalls
    {
        type            empty;
    }
    glass1
    {
        type            noSlip;
    }
    glass2
    {
        type            noSlip;
    }
    sun
    {
        type            noSlip;
    }
    Table_master
    {
        type            noSlip;
    }
    Table_slave
    {
        type            noSlip;
    }
    inlet
    {
        type            fixedValue;
        value           uniform (0.5 0 0);
    }
    outlet
    {
        type            zeroGradient;
    }
}


// ************************************************************************* //
