/*--------------------------------*- C++ -*----------------------------------*\
  =========                 |
  \\      /  F ield         | OpenFOAM: The Open Source CFD Toolbox
   \\    /   O peration     | Website:  https://openfoam.org
    \\  /    A nd           | Version:  6
     \\/     M anipulation  |
\*---------------------------------------------------------------------------*/
FoamFile
{
    version     2.0;
    format      ascii;
    class       volScalarField;
    location    "46400.0000004657995";
    object      k;
}
// * * * * * * * * * * * * * * * * * * * * * * * * * * * * * * * * * * * * * //

dimensions      [0 2 -2 0 0 0 0];

internalField   nonuniform List<scalar> 
778
(
0.00158589
0.00180114
0.00178809
0.00194673
0.00209805
0.0022404
0.00237712
0.00251275
0.00265307
0.00280636
0.00295648
0.00310263
0.00324998
0.00341222
0.00358572
0.00079294
0.00162449
0.00165076
0.00157172
0.00144398
0.00128193
0.00113006
0.000998569
0.000886932
0.000792435
0.000712717
0.000644722
0.000585755
0.000533275
0.000484569
0.000436136
0.000397881
0.000326045
0.00340687
0.00643334
0.00268766
0.00274634
0.0028881
0.00305475
0.00323515
0.00343095
0.00364416
0.00387441
0.00412631
0.00437978
0.00459515
0.00469999
0.00459402
0.00429759
0.00390655
0.00357935
0.00253629
0.00281171
0.00295327
0.00289513
0.00266212
0.00226341
0.00190454
0.00160862
0.00136916
0.00117551
0.0010168
0.00088506
0.000773832
0.000681038
0.000615031
0.000574483
0.000864332
0.000523936
0.00549054
0.0127808
0.0034781
0.00321241
0.00329779
0.00345568
0.0036371
0.00384128
0.00407157
0.00432807
0.00463595
0.00501094
0.00545056
0.00595941
0.00652979
0.00685803
0.00627597
0.00538472
0.00403775
0.00416916
0.00417176
0.00397363
0.00357535
0.0026631
0.00201333
0.00157427
0.00126845
0.00104869
0.000886555
0.000764364
0.000671633
0.000603481
0.000551331
0.00054855
0.00116615
0.000677954
0.00797308
0.0217578
0.00449122
0.00339102
0.00334184
0.00343843
0.00354981
0.00366927
0.00380947
0.0039917
0.0042594
0.00464849
0.00517078
0.00582422
0.00655327
0.00713293
0.00722688
0.00724302
0.00534265
0.00554972
0.00537611
0.00512538
0.0047865
0.00434739
0.00345489
0.00285773
0.00243445
0.00210844
0.00184916
0.00163084
0.00143758
0.00125766
0.00107681
0.000799877
0.000659207
0.00142342
0.000821454
0.0108756
0.0336335
0.00621258
0.00342522
0.00315856
0.00316725
0.00318985
0.00321012
0.00325236
0.00336132
0.00359489
0.00398913
0.00455294
0.00527563
0.00608538
0.0068158
0.00728172
0.00764285
0.0075162
0.00665343
0.00607302
0.00557895
0.00509892
0.00462898
0.00412239
0.00366463
0.00327389
0.00293617
0.00262998
0.00234661
0.00207813
0.00181746
0.00155397
0.00122079
0.000928914
0.00119038
0.0012158
0.00116901
0.00207081
0.00187835
0.0141737
0.0475975
0.00928314
0.00349012
0.00290874
0.00282293
0.00276456
0.00269967
0.00266433
0.00273468
0.00298091
0.00341416
0.00402288
0.00479624
0.00565142
0.00645849
0.00706614
0.00740504
0.00732192
0.00678876
0.0062145
0.00563693
0.00507414
0.00455571
0.00409088
0.00369514
0.00336254
0.00307306
0.00280609
0.00255076
0.00229812
0.00204129
0.00177297
0.00147046
0.00117671
0.00111133
0.00111008
0.00173304
0.00517833
0.00267552
0.0179904
0.0606053
0.0143584
0.00381932
0.00271528
0.00252947
0.00241184
0.00229404
0.00222104
0.00231166
0.0026305
0.00313934
0.00380136
0.00462944
0.00552567
0.00636328
0.00699745
0.00732518
0.00725226
0.00681666
0.00621461
0.00555442
0.00491165
0.00434255
0.00387228
0.00350028
0.00320666
0.00296174
0.00274126
0.00252884
0.00231295
0.00208641
0.00184443
0.00158225
0.00132593
0.00115723
0.00109038
0.00158023
0.00641633
0.00374197
0.0216392
0.0704819
0.0214343
0.00510095
0.00274248
0.00237168
0.00221
0.00208176
0.00202615
0.00221951
0.00265008
0.00323114
0.00393668
0.00477283
0.00569618
0.00656999
0.00722004
0.00751078
0.00738189
0.00689463
0.00619727
0.00542645
0.00469126
0.00406434
0.00357443
0.00321264
0.00294799
0.00274143
0.00256468
0.00239613
0.00222198
0.0020348
0.00183131
0.00161234
0.00139585
0.00122429
0.00115063
0.00218395
0.0148115
0.00656151
0.0228317
0.0694951
0.0325322
0.0110517
0.00406438
0.00258642
0.002235
0.0021026
0.00218955
0.00251234
0.00300074
0.00360227
0.00433208
0.00521116
0.00618259
0.00708433
0.00771367
0.00791973
0.0076618
0.0070235
0.00616404
0.00524795
0.00440741
0.00372258
0.00321698
0.00286941
0.00263632
0.00246997
0.00233727
0.0022122
0.0020798
0.00193299
0.00176961
0.00159216
0.00141376
0.00127277
0.00131854
0.00429329
0.0306797
0.00827312
0.0219172
0.0516384
0.0336424
0.0174277
0.00858077
0.00475435
0.00325844
0.00272859
0.00285195
0.00321028
0.00367222
0.00424617
0.00499463
0.00593699
0.00697224
0.00788513
0.00843877
0.00848046
0.00800012
0.0071209
0.0060395
0.0049534
0.00401179
0.00329148
0.00279879
0.00248965
0.0023034
0.00218565
0.00209784
0.00201305
0.00191774
0.00180634
0.00167796
0.00153585
0.00139105
0.00128766
0.00160435
0.00925545
0.0267916
0.00868588
0.0192332
0.0394414
0.0302383
0.0195621
0.0121765
0.00793314
0.00571252
0.00466556
0.00435922
0.0043975
0.00465075
0.00514359
0.00593323
0.00697929
0.00808733
0.00896323
0.00934152
0.00909335
0.00826886
0.00705628
0.00570886
0.00445927
0.0034628
0.00277019
0.0023497
0.00211629
0.00199187
0.001925
0.00187559
0.00182209
0.00175461
0.00166963
0.00156778
0.00145431
0.00134333
0.00130551
0.00191859
0.00850592
0.0268103
0.00892474
0.0159502
0.0315908
0.0266527
0.0195374
0.0139728
0.0102801
0.00802301
0.00674643
0.00604476
0.00572738
0.00577951
0.00627099
0.00720646
0.0084161
0.00956711
0.0102847
0.0103114
0.00959105
0.00828034
0.00665877
0.00505208
0.00372018
0.00279419
0.00223519
0.00195549
0.0018159
0.00174746
0.00171426
0.00168717
0.00165183
0.00160125
0.00153312
0.00144919
0.00136089
0.00129583
0.00142898
0.00268322
0.00906608
0.0239804
0.00951738
0.0132673
0.0256773
0.0233552
0.0186909
0.0145829
0.0115862
0.00954077
0.00820662
0.00729702
0.00683698
0.00695435
0.00771527
0.00897506
0.0103645
0.0114096
0.0117114
0.0111096
0.00969106
0.00777893
0.00575329
0.00402733
0.00283457
0.00219366
0.00186118
0.00169763
0.00161735
0.00157801
0.0015573
0.00153652
0.00150618
0.00146139
0.00140131
0.00133215
0.0012781
0.00134687
0.00202798
0.00429647
0.0101193
0.0214424
0.00861112
0.0133492
0.0224271
0.0220644
0.0177635
0.0143941
0.0118943
0.0100832
0.00876814
0.00791688
0.00777157
0.00846836
0.00986311
0.0115234
0.0128762
0.0134139
0.012855
0.0112815
0.00897605
0.00651171
0.00430262
0.00295859
0.00222
0.00184953
0.00166255
0.00156477
0.00151057
0.00147799
0.00145472
0.00142878
0.00139406
0.00134788
0.00129211
0.00124061
0.00124958
0.00154216
0.00274765
0.00566669
0.0107874
0.0168777
0.00778831
0.0108751
0.0117666
0.0129251
0.012554
0.0113764
0.0100771
0.00894967
0.00820551
0.00830212
0.00941114
0.0112844
0.0133553
0.0149554
0.0155459
0.014861
0.0128956
0.0101526
0.00701299
0.00463104
0.00312952
0.00234049
0.00195022
0.00174982
0.00163323
0.00155638
0.00150098
0.00145811
0.00142181
0.00138502
0.0013445
0.00130145
0.00126261
0.00124948
0.00133138
0.00172249
0.00294723
0.00571482
0.0104438
0.0170827
0.00757468
0.00354086
0.00482171
0.00599771
0.00660836
0.00729036
0.00879952
0.0113081
0.0141309
0.016547
0.0179918
0.0181004
0.0167891
0.0142619
0.0106283
0.007321
0.0048241
0.00332057
0.00255104
0.00218677
0.0019984
0.00187889
0.00178689
0.00170872
0.00164093
0.00158382
0.0015389
0.00150855
0.00149394
0.00149995
0.00153192
0.00160292
0.00176108
0.00215045
0.00312325
0.00537017
0.0100335
0.0163061
0.00883552
0.00444568
0.006296
0.00811973
0.0110363
0.0147077
0.0181615
0.0203898
0.0214497
0.0213825
0.0201763
0.0176477
0.014178
0.0105102
0.00720424
0.00486856
0.00352125
0.00287097
0.00257485
0.00242481
0.00232988
0.00225652
0.00219298
0.00213678
0.00209088
0.00206208
0.00205936
0.00209193
0.00216569
0.00228078
0.00243433
0.00262965
0.00289789
0.00333529
0.00417005
0.00597713
0.0114108
0.0155695
0.00934168
0.0150678
0.0244564
0.0181114
0.0144091
0.0170302
0.0207212
0.0228421
0.0235335
0.0230713
0.0217131
0.0197038
0.017071
0.013903
0.0105728
0.00758987
0.00540673
0.00416466
0.00358043
0.00332508
0.00321031
0.00315735
0.00313124
0.0031121
0.0030887
0.00305979
0.00303502
0.00303152
0.00306662
0.00315124
0.00329316
0.0034953
0.00376301
0.00411382
0.0045962
0.00531509
0.00648211
0.00863773
0.0149699
0.0178128
0.00985083
0.0138054
0.0170497
0.0178643
0.0207762
0.0217212
0.0221431
0.0211474
0.0193344
0.0172155
0.0150423
0.012916
0.010882
0.0089866
0.0073225
0.00599245
0.00503462
0.00444151
0.00411129
0.00395401
0.00391577
0.00396061
0.00405734
0.00417633
0.00429275
0.004392
0.00447398
0.00455267
0.00465078
0.00479256
0.00499933
0.00529244
0.00569814
0.00625687
0.00703446
0.00813228
0.00967248
0.0118515
0.0161762
0.0215381
0.0101089
0.0121401
0.00891399
0.00882904
0.00935537
0.00980561
0.00924527
0.00819401
0.00704952
0.00599252
0.00506746
0.00426536
0.00357644
0.00301206
0.00259862
0.00235364
0.00224912
0.00222447
0.00225025
0.00230784
0.00238444
0.00247046
0.00255891
0.00264548
0.00272867
0.00280978
0.00289263
0.00298272
0.00308625
0.0032098
0.00336156
0.00355454
0.00381062
0.00416346
0.00465601
0.00532942
0.00620912
0.00730073
0.0085903
0.00998856
0.00868548
)
;

boundaryField
{
    floor
    {
        type            kqRWallFunction;
        value           nonuniform List<scalar> 
36
(
0.00358572
0.00079294
0.00162449
0.00165076
0.00157172
0.00144398
0.00128193
0.00113006
0.000998569
0.000886932
0.000792435
0.000712717
0.000644722
0.000585755
0.000533275
0.000484569
0.000436136
0.000397881
0.000326045
0.000326045
0.000523936
0.000677954
0.000821454
0.00116901
0.00207081
0.00187835
0.00358572
0.00429759
0.00390655
0.00357935
0.00079294
0.00357935
0.00253629
0.00538472
0.00403775
0.00534265
)
;
    }
    ceiling
    {
        type            kqRWallFunction;
        value           nonuniform List<scalar> 
43
(
0.0121401
0.00891399
0.00882904
0.00935537
0.00980561
0.00924527
0.00819401
0.00704952
0.00599252
0.00506746
0.00426536
0.00357644
0.00301206
0.00259862
0.00235364
0.00224912
0.00222447
0.00225025
0.00230784
0.00238444
0.00247046
0.00255891
0.00264548
0.00272867
0.00280978
0.00289263
0.00298272
0.00308625
0.0032098
0.00336156
0.00355454
0.00381062
0.00416346
0.00465601
0.00532942
0.00620912
0.00730073
0.0085903
0.00998856
0.00868548
0.0108751
0.0117666
0.00444568
)
;
    }
    sWall
    {
        type            kqRWallFunction;
        value           nonuniform List<scalar> 9(0.0219172 0.0192332 0.0159502 0.0132673 0.0133492 0.0108751 0.0150678 0.0138054 0.0121401);
    }
    nWall
    {
        type            kqRWallFunction;
        value           nonuniform List<scalar> 
14
(
0.00187835
0.00267552
0.00374197
0.00868588
0.00892474
0.00951738
0.00861112
0.00778831
0.00757468
0.00883552
0.00934168
0.00985083
0.0101089
0.00868548
)
;
    }
    sideWalls
    {
        type            empty;
    }
    glass1
    {
        type            kqRWallFunction;
        value           nonuniform List<scalar> 9(0.00158589 0.00340687 0.00549054 0.00797308 0.0108756 0.0141737 0.0179904 0.0216392 0.0228317);
    }
    glass2
    {
        type            kqRWallFunction;
        value           nonuniform List<scalar> 2(0.00656151 0.00827312);
    }
    sun
    {
        type            kqRWallFunction;
        value           nonuniform List<scalar> 
14
(
0.00158589
0.00180114
0.00178809
0.00194673
0.00209805
0.0022404
0.00237712
0.00251275
0.00265307
0.00280636
0.00295648
0.00310263
0.00324998
0.00341222
)
;
    }
    Table_master
    {
        type            kqRWallFunction;
        value           nonuniform List<scalar> 9(0.0026631 0.00201333 0.00157427 0.00126845 0.00104869 0.000886555 0.000764364 0.000671633 0.000603481);
    }
    Table_slave
    {
        type            kqRWallFunction;
        value           nonuniform List<scalar> 9(0.00345489 0.00285773 0.00243445 0.00210844 0.00184916 0.00163084 0.00143758 0.00125766 0.00107681);
    }
    inlet
    {
        type            turbulentIntensityKineticEnergyInlet;
        intensity       0.05;
        value           uniform 0.0009375;
    }
    outlet
    {
        type            zeroGradient;
    }
}


// ************************************************************************* //
