/*--------------------------------*- C++ -*----------------------------------*\
  =========                 |
  \\      /  F ield         | OpenFOAM: The Open Source CFD Toolbox
   \\    /   O peration     | Website:  https://openfoam.org
    \\  /    A nd           | Version:  6
     \\/     M anipulation  |
\*---------------------------------------------------------------------------*/
FoamFile
{
    version     2.0;
    format      ascii;
    class       volScalarField;
    location    "24999.9999989320313";
    object      nut;
}
// * * * * * * * * * * * * * * * * * * * * * * * * * * * * * * * * * * * * * //

dimensions      [0 2 -1 0 0 0 0];

internalField   nonuniform List<scalar> 
778
(
0.000894294
0.000953034
0.000949558
0.000990772
0.00102855
0.00106287
0.00109483
0.00112564
0.00115666
0.00118963
0.00122106
0.00125092
0.00128032
0.00131192
0.00134489
0.000632418
0.00090522
0.000912583
0.000890529
0.000853616
0.000804289
0.000755108
0.000709778
0.000668902
0.000632256
0.000599613
0.000570298
0.000543597
0.000518675
0.00049442
0.000469058
0.000447997
0.000405528
0.00131076
0.00258099
0.00226496
0.00261422
0.00286762
0.00313631
0.00340438
0.00365149
0.00385047
0.00396637
0.00403448
0.00400641
0.00380644
0.00331126
0.00241823
0.0014724
0.00140383
0.00134373
0.00113074
0.00192629
0.00266992
0.0031092
0.00312978
0.00247027
0.0021126
0.00186484
0.00167684
0.00152727
0.0013996
0.00128675
0.00118176
0.00107905
0.000986884
0.000907409
0.00102205
0.000514048
0.00166401
0.00360414
0.00267225
0.00382219
0.00427078
0.00465046
0.00499537
0.00529904
0.0055564
0.00575825
0.00595369
0.00615914
0.00634759
0.00645915
0.00638335
0.00584339
0.00427299
0.00164805
0.00142686
0.00305282
0.00425968
0.00483024
0.00439211
0.00115907
0.00100789
0.000891302
0.000800076
0.000727468
0.000668848
0.000621021
0.000582111
0.000551772
0.000606694
0.000713655
0.00112996
0.000584699
0.00200522
0.00485797
0.00255728
0.00429823
0.00496246
0.005318
0.00557953
0.00577315
0.00591781
0.00603518
0.00620175
0.00648282
0.0068925
0.00740715
0.00792391
0.00817723
0.0076761
0.00572307
0.00164155
0.00380515
0.00565835
0.00659832
0.00682936
0.00582918
0.00131999
0.00120057
0.00110817
0.00103137
0.000965916
0.000907128
0.000851693
0.000796627
0.000737147
0.000688813
0.000714057
0.00122332
0.000643625
0.00234194
0.00643246
0.00258011
0.00408663
0.00510798
0.00541127
0.00552162
0.00552627
0.00547185
0.00542377
0.00549376
0.00576695
0.00626764
0.00697609
0.00779745
0.00855384
0.0090338
0.0090281
0.00810313
0.00824624
0.00843505
0.00846071
0.00828788
0.0077567
0.00617221
0.00533142
0.00475568
0.0042874
0.00382868
0.00338454
0.00295002
0.00251596
0.00206991
0.00158999
0.00121336
0.00121204
0.000958784
0.000767382
0.00101409
0.000968524
0.00267356
0.00819553
0.0030375
0.00344661
0.00489473
0.00523125
0.00520474
0.00501787
0.00475057
0.00453013
0.00452552
0.00481165
0.00538205
0.00620328
0.00716452
0.00812462
0.00894289
0.00946602
0.00956164
0.00946588
0.00929762
0.00905882
0.00875207
0.00836206
0.00779333
0.00724572
0.00674872
0.00626778
0.00574906
0.00519541
0.0046041
0.00396996
0.00328897
0.00256648
0.00191251
0.00143603
0.0011144
0.00125459
0.00218276
0.0011578
0.00301208
0.00982704
0.00404791
0.00282377
0.00439861
0.0049487
0.00488793
0.00458518
0.00414584
0.00375926
0.00374828
0.00410932
0.00476188
0.00567918
0.00672371
0.00775787
0.00864866
0.00928737
0.00958162
0.00955919
0.00934904
0.00903059
0.00866603
0.00830245
0.00795093
0.00762851
0.00732575
0.00700222
0.00661189
0.00614226
0.00558622
0.00494102
0.00420932
0.00341016
0.00262938
0.00190066
0.00139908
0.00125434
0.00221455
0.00136592
0.00330343
0.0110642
0.00552012
0.00268852
0.00348511
0.00438771
0.00451343
0.00426434
0.00374565
0.00321897
0.00333859
0.0038159
0.00454514
0.00549017
0.00657418
0.00765654
0.00858075
0.00922376
0.00951645
0.00947898
0.00920789
0.00880773
0.00837735
0.00799572
0.00770154
0.0074914
0.00732761
0.00714934
0.00690156
0.00655478
0.00609519
0.00552001
0.00483516
0.00406177
0.0032587
0.00244469
0.00171225
0.00113534
0.00323882
0.0017932
0.00339326
0.0104839
0.00683642
0.00347625
0.00236273
0.00289682
0.0033893
0.00343032
0.00302918
0.00294464
0.00325079
0.00381166
0.00459939
0.00560074
0.00673625
0.00785174
0.00877278
0.00936639
0.00957562
0.00943315
0.00904009
0.00852433
0.00801279
0.00760479
0.00734579
0.00721859
0.00716102
0.00709259
0.00695036
0.00670011
0.00632817
0.00583317
0.00522209
0.00451263
0.0037353
0.00286271
0.00169353
0.00138329
0.00501586
0.00202192
0.00332464
0.00845875
0.00706624
0.00477502
0.00315202
0.00244078
0.00231261
0.00242182
0.00262543
0.0029499
0.00340941
0.00403997
0.00489577
0.00597469
0.00717169
0.00830299
0.00917616
0.00965789
0.00970886
0.00938614
0.00881758
0.00816352
0.00758025
0.00718084
0.00699772
0.0069762
0.00701592
0.00701527
0.00692345
0.00672094
0.00640115
0.00596392
0.00541387
0.00475621
0.00396214
0.00282961
0.00136422
0.00225037
0.00513264
0.00207599
0.00311446
0.00723196
0.00683541
0.0054678
0.00420597
0.00338532
0.00298005
0.00288899
0.00305773
0.00336753
0.00381622
0.00448074
0.00542493
0.00660751
0.00786568
0.00897356
0.0097265
0.010007
0.00980991
0.00923385
0.00845203
0.00767021
0.00707713
0.00677937
0.00674451
0.00684201
0.00694095
0.00694271
0.00684608
0.00664977
0.00634963
0.0059421
0.00542341
0.00476536
0.00380184
0.00228843
0.00142342
0.00281376
0.00526241
0.00207855
0.00283621
0.00652159
0.00659568
0.00579052
0.00492403
0.00427247
0.00388927
0.00375229
0.00378765
0.00397455
0.00438542
0.00512659
0.0062178
0.00752814
0.00881418
0.00981213
0.0103269
0.0102837
0.00973674
0.00884738
0.00785758
0.00703225
0.00656517
0.00646966
0.00655003
0.00668053
0.00676693
0.0067437
0.00663158
0.00643208
0.00613846
0.00574108
0.00521894
0.00446454
0.00309306
0.00158692
0.00180465
0.00321829
0.00497551
0.00203036
0.00258659
0.00583397
0.00629896
0.00591755
0.00536097
0.00489392
0.00458364
0.00443246
0.00438746
0.00454568
0.00506584
0.00603389
0.00735508
0.00877528
0.00998012
0.0107049
0.0108089
0.0102969
0.00931445
0.00811081
0.0070256
0.00632801
0.00601623
0.00597188
0.00605898
0.00618288
0.00626539
0.00624577
0.00613472
0.00593204
0.00563015
0.00521412
0.00463035
0.00364735
0.00212028
0.00150892
0.00221589
0.00340487
0.00433897
0.00195518
0.00259427
0.00579034
0.00643565
0.00598968
0.00553915
0.00517047
0.00490478
0.0047325
0.00472373
0.00510728
0.00602515
0.00739802
0.0089498
0.0103248
0.0112064
0.0114046
0.0108943
0.00979312
0.00838423
0.00702294
0.00603413
0.00544226
0.00515316
0.00507705
0.00513412
0.00524635
0.00533468
0.0053225
0.00520309
0.00497451
0.00463561
0.00418636
0.00360168
0.00277203
0.00181827
0.00161668
0.00240103
0.00352792
0.00447182
0.00192195
0.00234165
0.00243557
0.00359193
0.00421884
0.00441209
0.0044144
0.00437093
0.00445001
0.00498553
0.00612909
0.00773865
0.00947813
0.0109711
0.0119023
0.0120821
0.0114688
0.0102103
0.00854798
0.00696119
0.0057146
0.0048652
0.00436353
0.00412069
0.00403797
0.0040462
0.00409313
0.00411982
0.00405591
0.0038763
0.00358937
0.00322408
0.00283093
0.00245734
0.00211221
0.00181123
0.00181102
0.00250455
0.00375909
0.0048089
0.002058
0.00080766
0.00146577
0.00226277
0.00290453
0.00364638
0.00490019
0.00674354
0.00878904
0.0106533
0.0120519
0.012791
0.0127418
0.0119021
0.0103555
0.00850625
0.00674559
0.00533749
0.00437839
0.00383531
0.00355523
0.00340623
0.00331996
0.00326361
0.00321187
0.00313248
0.0029917
0.00278031
0.00253174
0.00230068
0.00213603
0.00205487
0.00204754
0.00211267
0.00231956
0.00291484
0.00440472
0.00498757
0.00210861
0.00149729
0.00207897
0.00303682
0.00474665
0.00706554
0.00938915
0.0111916
0.0124958
0.0132909
0.0135243
0.0130981
0.0119117
0.0101446
0.00813477
0.00627615
0.00486082
0.00400238
0.00356053
0.00333286
0.00320202
0.00311999
0.00306533
0.00302205
0.00297192
0.00289478
0.00278003
0.00264469
0.00252308
0.00245001
0.0024444
0.00250428
0.00262109
0.00280468
0.00311075
0.00369101
0.00513515
0.00539401
0.00214762
0.00275712
0.0066662
0.0061264
0.00548405
0.00698265
0.00932311
0.011302
0.0126402
0.0133484
0.0135297
0.0132712
0.0125373
0.0112884
0.00957838
0.00764144
0.00584468
0.00457149
0.00386805
0.00351013
0.00331294
0.00319791
0.00313867
0.00312275
0.00313641
0.00316098
0.00317515
0.0031624
0.00312389
0.00308605
0.00306745
0.00308009
0.00312853
0.00321003
0.00332145
0.00347235
0.00370031
0.00409249
0.00484798
0.00522497
0.00205544
0.00263897
0.00510065
0.00658868
0.00841317
0.00934955
0.0103226
0.0108944
0.0110382
0.0108321
0.0103346
0.00957159
0.00855677
0.00734155
0.00606973
0.00496225
0.00415587
0.00362391
0.00328959
0.00307462
0.00294329
0.0028843
0.00289194
0.00295638
0.00306003
0.00317786
0.0032818
0.0033497
0.00338431
0.00341536
0.00345842
0.00352125
0.00360657
0.00371454
0.0038471
0.00401083
0.00420481
0.00443978
0.00494846
0.00557409
0.00201728
0.0024743
0.00211964
0.00210926
0.00217059
0.00222138
0.00215517
0.00202644
0.00187669
0.00172772
0.0015877
0.00145815
0.00133986
0.00123659
0.00115484
0.00109992
0.00107254
0.00106408
0.00106638
0.00107696
0.00109417
0.00111619
0.00114096
0.00116659
0.00119171
0.0012157
0.00123867
0.00126148
0.00128507
0.00131063
0.00133961
0.00137285
0.00141072
0.00145351
0.00150218
0.00155999
0.00163504
0.00173793
0.00187143
0.00202335
0.00193003
)
;

boundaryField
{
    floor
    {
        type            nutkWallFunction;
        Cmu             0.09;
        kappa           0.41;
        E               9.8;
        value           nonuniform List<scalar> 
36
(
0.000160579
7.63881e-05
0.000109504
0.00011038
0.000107755
0.000103343
9.74126e-05
9.14569e-05
8.59266e-05
8.09035e-05
7.6369e-05
7.23029e-05
6.86283e-05
6.52611e-05
6.20999e-05
5.90053e-05
5.57489e-05
5.30281e-05
4.7491e-05
4.7491e-05
6.15105e-05
7.04358e-05
7.77789e-05
9.29465e-05
0.000122356
0.000117001
0.000160579
0.00017501
0.000167266
0.000160446
7.63881e-05
0.000160446
0.000135986
0.000194667
0.00016987
0.000193942
)
;
    }
    ceiling
    {
        type            nutkWallFunction;
        Cmu             0.09;
        kappa           0.41;
        E               9.8;
        value           nonuniform List<scalar> 
43
(
0.000284383
0.000246321
0.000245199
0.000251833
0.000257317
0.00025019
0.000236246
0.000219895
0.000203484
0.000187915
0.000173378
0.000159986
0.000148192
0.000138783
0.000132419
0.000129226
0.000128239
0.000128501
0.000129728
0.000131729
0.00013429
0.000137171
0.000140149
0.000143066
0.000145844
0.000148499
0.000151126
0.000153835
0.00015676
0.000160066
0.000163849
0.000168148
0.00017299
0.000178465
0.000184906
0.000193184
0.000204479
0.000219096
0.000235679
0.000225676
0.000270419
0.000280455
0.000177602
)
;
    }
    sWall
    {
        type            nutkWallFunction;
        Cmu             0.09;
        kappa           0.41;
        E               9.8;
        value           nonuniform List<scalar> 9(0.000373889 0.000352084 0.000322985 0.000296629 0.00029744 0.000270509 0.000314354 0.000301913 0.000284484);
    }
    nWall
    {
        type            nutkWallFunction;
        Cmu             0.09;
        kappa           0.41;
        E               9.8;
        value           nonuniform List<scalar> 
14
(
0.000117008
0.000139133
0.000162977
0.00024168
0.000241909
0.000236625
0.000228436
0.000224938
0.000239878
0.00024523
0.000249443
0.000239407
0.000235147
0.00022571
)
;
    }
    sideWalls
    {
        type            empty;
    }
    glass1
    {
        type            nutkWallFunction;
        Cmu             0.09;
        kappa           0.41;
        E               9.8;
        value           nonuniform List<scalar> 9(0.000108246 0.00015688 0.000196734 0.000234345 0.000270787 0.000306135 0.000341748 0.000372068 0.00038137);
    }
    glass2
    {
        type            nutkWallFunction;
        Cmu             0.09;
        kappa           0.41;
        E               9.8;
        value           nonuniform List<scalar> 2(0.000210837 0.000235945);
    }
    sun
    {
        type            nutkWallFunction;
        Cmu             0.09;
        kappa           0.41;
        E               9.8;
        value           nonuniform List<scalar> 
14
(
0.000108205
0.000115177
0.000114766
0.000119631
0.00012407
0.000128087
0.000131813
0.000135395
0.000138989
0.000142798
0.000146418
0.000149847
0.000153214
0.000156823
)
;
    }
    Table_master
    {
        type            nutkWallFunction;
        Cmu             0.09;
        kappa           0.41;
        E               9.8;
        value           nonuniform List<scalar> 9(0.00013926 0.00012164 0.000107844 9.69037e-05 8.80914e-05 8.09007e-05 7.49779e-05 7.01189e-05 6.63028e-05);
    }
    Table_slave
    {
        type            nutkWallFunction;
        Cmu             0.09;
        kappa           0.41;
        E               9.8;
        value           nonuniform List<scalar> 9(0.000157732 0.000144049 0.000133358 0.000124394 0.000116695 0.000109728 0.000103111 9.64872e-05 8.9272e-05);
    }
    inlet
    {
        type            calculated;
        value           uniform 0.000167705;
    }
    outlet
    {
        type            calculated;
        value           nonuniform List<scalar> 2(0.00275712 0.0066662);
    }
}


// ************************************************************************* //
