/*--------------------------------*- C++ -*----------------------------------*\
  =========                 |
  \\      /  F ield         | OpenFOAM: The Open Source CFD Toolbox
   \\    /   O peration     | Website:  https://openfoam.org
    \\  /    A nd           | Version:  6
     \\/     M anipulation  |
\*---------------------------------------------------------------------------*/
FoamFile
{
    version     2.0;
    format      ascii;
    class       volScalarField;
    location    "3750";
    object      epsilon;
}
// * * * * * * * * * * * * * * * * * * * * * * * * * * * * * * * * * * * * * //

dimensions      [0 2 -3 0 0 0 0];

internalField   nonuniform List<scalar> 
458
(
0.000432798
0.000557902
0.000596576
0.000686362
0.000776642
0.00086911
0.000968729
0.00107731
0.00117187
0.00123402
0.00124117
0.00117483
0.00102236
0.000744283
0.000324955
3.92325e-05
6.32072e-05
9.21124e-05
0.000104418
9.95917e-05
8.16162e-05
6.44054e-05
5.12229e-05
4.13709e-05
3.39155e-05
2.81883e-05
2.37378e-05
2.02074e-05
1.73133e-05
1.48367e-05
1.25996e-05
1.13836e-05
8.83705e-06
0.00106107
0.00158339
0.000518414
0.000502586
0.000518423
0.000550882
0.00060622
0.000688411
0.000779645
0.00085386
0.000881953
0.000847721
0.000756822
0.000623962
0.000502
0.00074734
0.00042675
0.00023178
3.82919e-05
7.53658e-05
9.27343e-05
9.34135e-05
8.97153e-05
9.00217e-05
7.05477e-05
5.34843e-05
4.0799e-05
3.15308e-05
2.47358e-05
1.97182e-05
1.59638e-05
1.31653e-05
1.14034e-05
1.06881e-05
3.04939e-05
2.00774e-05
0.00190708
0.00384819
0.000603722
0.000458248
0.000465972
0.000508088
0.000580367
0.00068354
0.000796983
0.000884208
0.000917872
0.000887788
0.000801887
0.000667085
0.000517562
0.000416349
0.000352998
0.000381822
0.000139946
0.000139209
0.00012555
0.000111485
0.000103491
0.000198143
0.000132963
9.11223e-05
6.4517e-05
4.72792e-05
3.58074e-05
2.79826e-05
2.25611e-05
1.88653e-05
1.48255e-05
1.31276e-05
6.48869e-05
3.31352e-05
0.00306325
0.00799444
0.000903757
0.000438969
0.000429201
0.000481206
0.000574917
0.000717866
0.000862507
0.000957863
0.000989088
0.000952783
0.000855141
0.000703256
0.000548452
0.000432309
0.000365821
0.000380465
0.000583829
0.000375793
0.000245129
0.000178236
0.000140438
0.000122964
0.000283199
0.000218124
0.000180053
0.000154992
0.000135709
0.000118217
0.000103048
8.84925e-05
7.32971e-05
4.53971e-05
2.92889e-05
0.000114643
5.06219e-05
0.0046497
0.014428
0.00174036
0.000470831
0.000395587
0.000451544
0.000588826
0.00083273
0.00101848
0.00111177
0.00112825
0.00106912
0.00093737
0.000753676
0.000564834
0.000420036
0.000331642
0.000302665
0.000303803
0.000253569
0.000209346
0.000175084
0.000146265
0.000122038
0.000113034
0.000103785
9.75186e-05
9.21765e-05
8.61835e-05
7.87588e-05
7.08776e-05
6.31504e-05
5.58976e-05
4.60254e-05
3.61877e-05
7.47632e-05
0.000114606
0.000120974
0.000143505
0.000184282
0.00687176
0.021736
0.00400157
0.000790655
0.000465036
0.000473996
0.000700603
0.00111968
0.00130603
0.00136568
0.00134335
0.0012459
0.00106702
0.000825128
0.000577563
0.000388664
0.000278773
0.00023847
0.000228172
0.000218185
0.000201081
0.000176717
0.000149256
0.000123719
0.000107295
0.000100879
9.97265e-05
9.93258e-05
9.71891e-05
9.16532e-05
8.17019e-05
7.04412e-05
5.97968e-05
5.01404e-05
4.34341e-05
5.55229e-05
8.83481e-05
0.00010613
0.000206707
0.000205618
0.00966063
0.0261944
0.00879539
0.00280027
0.00145403
0.00114081
0.00148275
0.00172637
0.00178581
0.00174894
0.00164956
0.00148321
0.00122971
0.000907957
0.00058813
0.000355816
0.000234425
0.000200152
0.000202313
0.00020296
0.000189982
0.000166803
0.000141298
0.00012017
0.000109039
0.000108525
0.00011364
0.000120131
0.000125706
0.000128156
0.000124075
0.000111068
9.74718e-05
8.5918e-05
8.043e-05
8.87077e-05
0.000120572
0.000176759
0.000327312
0.000344784
0.0104477
0.0301005
0.0160957
0.00965277
0.00597002
0.00418042
0.00338347
0.00287594
0.00253812
0.00228111
0.00203893
0.00176075
0.00139704
0.000968276
0.00056128
0.000300427
0.000190355
0.000174355
0.000179608
0.000177092
0.000162181
0.000141933
0.000124112
0.000113525
0.000112222
0.000119058
0.000131173
0.000146862
0.000165763
0.000187756
0.000212054
0.000232934
0.000245997
0.000273126
0.000329079
0.000480073
0.000820529
0.00137763
0.00411035
0.00128189
0.00984347
0.0172564
0.0132407
0.00999031
0.00750808
0.00579393
0.00458954
0.00379058
0.00325086
0.0028234
0.00242648
0.00200603
0.00148353
0.000913919
0.000406992
0.000216063
0.00015886
0.000147513
0.00014444
0.000136917
0.000124586
0.000112488
0.000104968
0.000104105
0.000109947
0.000121519
0.000138068
0.0001599
0.000188371
0.000225732
0.000275054
0.000339948
0.000427261
0.000551987
0.000734105
0.000976849
0.00125106
0.00149864
0.00170332
0.00104489
0.00347903
0.0047205
0.00512301
0.00502769
0.00473223
0.00431887
0.00378243
0.00315707
0.00254686
0.00194781
0.00116388
0.000536656
0.000254603
0.000159707
0.000129176
0.000118205
0.000110938
0.000103126
9.54801e-05
8.99937e-05
8.84665e-05
9.13264e-05
9.81847e-05
0.000108632
0.000122683
0.000140911
0.000164565
0.000195768
0.000237994
0.000297015
0.000378476
0.000488603
0.000629973
0.000786497
0.000911358
0.00094484
0.000871211
0.000544327
0.00289523
0.00861974
0.0082797
0.00717075
0.0060731
0.00478796
0.0034772
0.00225641
0.00128255
0.000709916
0.000375251
0.000215445
0.000151303
0.000124236
0.000111158
0.000102269
9.42814e-05
8.7108e-05
8.17582e-05
7.89725e-05
7.90391e-05
8.20686e-05
8.80184e-05
9.70675e-05
0.000109733
0.000126933
0.000150053
0.000181164
0.000223229
0.000280003
0.000356642
0.000458322
0.000585885
0.000728717
0.000842174
0.000956426
0.000733691
0.000565772
0.00336778
0.00362363
0.00386705
0.00532556
0.00449791
0.00313091
0.00187993
0.00115779
0.000823425
0.000572118
0.000398374
0.000290033
0.00021532
0.000168136
0.000139757
0.00012118
0.000107494
9.6577e-05
8.81409e-05
8.27359e-05
8.07786e-05
8.22491e-05
8.6708e-05
9.35507e-05
0.0001027
0.000114291
0.000128657
0.000146414
0.000168506
0.000196573
0.000232094
0.000276421
0.000331711
0.000400645
0.000486214
0.000603844
0.000660796
0.000621033
0.00049975
0.000395349
)
;

boundaryField
{
    floor
    {
        Cmu             0.09;
        kappa           0.41;
        E               9.8;
        type            epsilonWallFunction;
        value           nonuniform List<scalar> 
36
(
0.000324955
3.92325e-05
6.32072e-05
9.21124e-05
0.000104418
9.95917e-05
8.16162e-05
6.44054e-05
5.12229e-05
4.13709e-05
3.39155e-05
2.81883e-05
2.37378e-05
2.02074e-05
1.73133e-05
1.48367e-05
1.25996e-05
1.13836e-05
8.83705e-06
8.83705e-06
2.00774e-05
3.31352e-05
5.06219e-05
0.000120974
0.000143505
0.000184282
0.000324955
0.00074734
0.00042675
0.00023178
3.92325e-05
0.00023178
3.82919e-05
0.000381822
0.000139946
0.000583829
)
;
    }
    ceiling
    {
        Cmu             0.09;
        kappa           0.41;
        E               9.8;
        type            epsilonWallFunction;
        value           nonuniform List<scalar> 
43
(
0.00336778
0.00362363
0.00386705
0.00532556
0.00449791
0.00313091
0.00187993
0.00115779
0.000823425
0.000572118
0.000398374
0.000290033
0.00021532
0.000168136
0.000139757
0.00012118
0.000107494
9.6577e-05
8.81409e-05
8.27359e-05
8.07786e-05
8.22491e-05
8.6708e-05
9.35507e-05
0.0001027
0.000114291
0.000128657
0.000146414
0.000168506
0.000196573
0.000232094
0.000276421
0.000331711
0.000400645
0.000486214
0.000603844
0.000660796
0.000621033
0.00049975
0.000395349
0.00984347
0.0172564
0.00289523
)
;
    }
    sWall
    {
        Cmu             0.09;
        kappa           0.41;
        E               9.8;
        type            epsilonWallFunction;
        value           uniform 0.00336778;
    }
    nWall
    {
        Cmu             0.09;
        kappa           0.41;
        E               9.8;
        type            epsilonWallFunction;
        value           nonuniform List<scalar> 6(0.000184282 0.000205618 0.000344784 0.000544327 0.000565772 0.000395349);
    }
    sideWalls
    {
        type            empty;
    }
    glass1
    {
        Cmu             0.09;
        kappa           0.41;
        E               9.8;
        type            epsilonWallFunction;
        value           nonuniform List<scalar> 9(0.000432798 0.00106107 0.00190708 0.00306325 0.0046497 0.00687176 0.00966063 0.0104477 0.00984347);
    }
    glass2
    {
        Cmu             0.09;
        kappa           0.41;
        E               9.8;
        type            epsilonWallFunction;
        value           nonuniform List<scalar> 2(0.00128189 0.00104489);
    }
    sun
    {
        Cmu             0.09;
        kappa           0.41;
        E               9.8;
        type            epsilonWallFunction;
        value           nonuniform List<scalar> 
14
(
0.000432798
0.000557902
0.000596576
0.000686362
0.000776642
0.00086911
0.000968729
0.00107731
0.00117187
0.00123402
0.00124117
0.00117483
0.00102236
0.000744283
)
;
    }
    Table_master
    {
        Cmu             0.09;
        kappa           0.41;
        E               9.8;
        type            epsilonWallFunction;
        value           nonuniform List<scalar> 9(0.000198143 0.000132963 9.11223e-05 6.4517e-05 4.72792e-05 3.58074e-05 2.79826e-05 2.25611e-05 1.88653e-05);
    }
    Table_slave
    {
        Cmu             0.09;
        kappa           0.41;
        E               9.8;
        type            epsilonWallFunction;
        value           nonuniform List<scalar> 9(0.000283199 0.000218124 0.000180053 0.000154992 0.000135709 0.000118217 0.000103048 8.84925e-05 7.32971e-05);
    }
    inlet
    {
        type            turbulentMixingLengthDissipationRateInlet;
        mixingLength    0.01;
        phi             phi;
        k               k;
        value           uniform 0.000471672;
    }
    outlet
    {
        type            zeroGradient;
    }
}


// ************************************************************************* //
