/*--------------------------------*- C++ -*----------------------------------*\
  =========                 |
  \\      /  F ield         | OpenFOAM: The Open Source CFD Toolbox
   \\    /   O peration     | Website:  https://openfoam.org
    \\  /    A nd           | Version:  6
     \\/     M anipulation  |
\*---------------------------------------------------------------------------*/
FoamFile
{
    version     2.0;
    format      ascii;
    class       volScalarField;
    location    "25699.9999988199816";
    object      epsilon;
}
// * * * * * * * * * * * * * * * * * * * * * * * * * * * * * * * * * * * * * //

dimensions      [0 2 -3 0 0 0 0];

internalField   nonuniform List<scalar> 
778
(
0.000253128
0.000306382
0.000303056
0.00034426
0.000385153
0.000424984
0.000464443
0.000504718
0.000547541
0.000595629
0.00064401
0.000692313
0.000742194
0.000798459
0.000860145
8.94225e-05
0.000262559
0.000268901
0.000249789
0.000219935
0.000183942
0.000152234
0.000126461
0.000105871
8.94177e-05
7.62719e-05
6.56212e-05
5.68261e-05
4.93613e-05
4.27543e-05
3.65063e-05
3.1809e-05
2.35959e-05
0.000797014
0.0014433
0.000287036
0.000259644
0.000261747
0.000267718
0.000276611
0.000290036
0.000310281
0.000340466
0.000379643
0.000430707
0.000499028
0.000600167
0.000785245
0.00112879
0.000978259
0.000858061
0.000512469
0.000369686
0.000294275
0.000242841
0.000203949
0.000186732
0.00015455
0.000124898
0.000100627
8.14423e-05
6.64937e-05
5.47987e-05
4.56134e-05
3.86932e-05
3.45054e-05
3.27475e-05
6.58168e-05
4.80908e-05
0.00163067
0.00407949
0.000407462
0.000242976
0.00022915
0.00023106
0.000238272
0.000250534
0.000268428
0.000292678
0.000324773
0.000366799
0.000421141
0.000494817
0.000601201
0.000724456
0.000829481
0.00158391
0.00102833
0.000512637
0.000367896
0.000294367
0.000262082
0.000551331
0.000362388
0.000250499
0.000181124
0.000136129
0.000105801
8.46981e-05
6.97647e-05
5.94223e-05
4.5109e-05
3.79636e-05
0.000108337
7.08278e-05
0.0028536
0.00877155
0.000710033
0.000240771
0.000202519
0.000200048
0.000203212
0.000209828
0.000220633
0.000237532
0.000263198
0.000299911
0.000349088
0.0004122
0.000487895
0.000560125
0.000612244
0.000824086
0.00156456
0.000729264
0.000459951
0.000358372
0.000301936
0.000291796
0.00081416
0.000612588
0.000481693
0.000388206
0.000318813
0.000264035
0.000218515
0.000178811
0.000141673
8.37118e-05
5.48303e-05
0.000149059
9.4552e-05
0.00454617
0.0158297
0.00134672
0.000258396
0.000175767
0.000166816
0.000165815
0.000167781
0.000173933
0.000187428
0.000211654
0.000248304
0.000297676
0.000359176
0.000427619
0.000489012
0.000528371
0.00058227
0.000627174
0.000483086
0.000393456
0.000331029
0.000282298
0.000248617
0.000247815
0.000226737
0.000202872
0.000180968
0.000162579
0.000146423
0.000131769
0.000118201
0.000105067
8.44676e-05
6.41292e-05
0.000105364
0.000138924
0.000160555
0.000377987
0.000329725
0.00676392
0.0248822
0.00255429
0.000318149
0.000155568
0.000137086
0.000132138
0.000130696
0.000134459
0.000148549
0.000176692
0.000218037
0.000270712
0.000333967
0.000401517
0.000462406
0.000502739
0.000521441
0.000504557
0.000438119
0.000373765
0.000315633
0.000264735
0.000223377
0.000193279
0.000169618
0.000150799
0.000135605
0.000123265
0.000112711
0.000103256
9.45065e-05
8.60884e-05
7.59196e-05
6.52901e-05
7.75947e-05
9.98021e-05
0.000213899
0.00109343
0.000561598
0.00967275
0.0336413
0.00458542
0.000465137
0.000150872
0.000116358
0.000107096
0.000103283
0.000107075
0.000127921
0.000166132
0.000215878
0.000273258
0.000339969
0.000409163
0.000470247
0.000509952
0.000520233
0.000494132
0.000437517
0.0003718
0.000307472
0.000250543
0.000204425
0.000169734
0.000144549
0.000126325
0.000112739
0.000102277
9.3696e-05
8.61953e-05
7.93218e-05
7.27984e-05
6.61518e-05
6.02727e-05
6.36595e-05
7.68795e-05
0.00017892
0.00165484
0.000926602
0.0127599
0.0404099
0.00749269
0.000871675
0.000194328
0.00011539
9.73854e-05
9.14488e-05
9.86314e-05
0.000137691
0.000189274
0.00024626
0.000307059
0.000373848
0.000444812
0.00050807
0.000547344
0.000550838
0.000515596
0.000451496
0.000375509
0.000300982
0.000236496
0.000185966
0.000149313
0.000123988
0.000106727
9.45944e-05
8.57561e-05
7.88096e-05
7.28849e-05
6.75108e-05
6.24593e-05
5.76562e-05
5.38645e-05
5.55245e-05
7.10043e-05
0.000375383
0.00566967
0.00213101
0.0138278
0.0414576
0.0139368
0.00316569
0.000630484
0.000208088
0.000132673
0.000115963
0.000142387
0.000192822
0.000249204
0.000306404
0.000367457
0.000436905
0.000511463
0.000576094
0.000611111
0.000603184
0.000552097
0.000470933
0.000378527
0.00029099
0.000218329
0.000164074
0.000126821
0.000102654
8.73378e-05
7.74009e-05
7.07149e-05
6.57024e-05
6.14781e-05
5.76135e-05
5.39468e-05
5.05388e-05
4.81214e-05
5.15433e-05
0.000101894
0.00118172
0.0149481
0.00316947
0.0130039
0.0283666
0.0144171
0.00572822
0.00210497
0.000834783
0.000413687
0.000276791
0.000278849
0.000314382
0.000355919
0.000401717
0.000458906
0.000531599
0.000610921
0.000674811
0.000699134
0.00067068
0.000593708
0.000486648
0.000372748
0.000270882
0.000191346
0.000135923
0.000100806
7.99866e-05
6.80664e-05
6.12855e-05
5.71961e-05
5.42352e-05
5.16591e-05
4.91669e-05
4.67019e-05
4.44542e-05
4.35112e-05
5.28891e-05
0.000224868
0.00388423
0.011089
0.0032888
0.010688
0.0193539
0.0120385
0.00630076
0.00317469
0.00167469
0.000986571
0.000678758
0.0005597
0.000517006
0.000510203
0.000531596
0.000584476
0.00066423
0.000749232
0.000806458
0.000807887
0.000744007
0.000627743
0.000485943
0.000347754
0.000233921
0.000152865
0.000102071
7.37638e-05
5.89613e-05
5.15039e-05
4.80656e-05
4.62642e-05
4.49393e-05
4.36252e-05
4.21816e-05
4.06957e-05
3.96365e-05
4.09263e-05
5.77011e-05
0.000275244
0.00323376
0.00967575
0.00333322
0.00807051
0.0137681
0.00969146
0.00593305
0.00356937
0.00222714
0.00149044
0.0010926
0.000868867
0.000743198
0.000685808
0.000690753
0.000752317
0.000847536
0.000935134
0.000970286
0.000926418
0.000805033
0.000634285
0.00045201
0.000293396
0.000177902
0.000107384
6.96916e-05
5.26377e-05
4.44949e-05
4.06821e-05
3.9282e-05
3.86943e-05
3.82418e-05
3.76627e-05
3.69458e-05
3.64453e-05
3.73374e-05
4.34879e-05
7.39677e-05
0.000303949
0.00241301
0.00790131
0.0038814
0.00612305
0.0101687
0.00779149
0.00531254
0.00357011
0.00246908
0.00178791
0.00136812
0.00109279
0.000925963
0.000859681
0.000888445
0.000986329
0.00110207
0.00117344
0.0011518
0.00102627
0.000820418
0.000585478
0.000368668
0.000208911
0.000114887
7.21921e-05
5.22164e-05
4.27786e-05
3.80963e-05
3.58479e-05
3.50418e-05
3.47431e-05
3.45264e-05
3.42866e-05
3.42808e-05
3.55921e-05
4.1563e-05
6.31756e-05
0.000139699
0.000439501
0.00225907
0.00632732
0.00428507
0.00618527
0.00781455
0.00680616
0.00474021
0.00336604
0.00246272
0.00186603
0.00146248
0.00119463
0.00106488
0.00107189
0.00118422
0.00133559
0.00144407
0.00144207
0.00130025
0.00104842
0.000739895
0.00045645
0.000238315
0.000131085
8.14698e-05
5.93651e-05
4.85097e-05
4.25417e-05
3.90207e-05
3.69875e-05
3.59631e-05
3.54956e-05
3.52404e-05
3.53008e-05
3.65941e-05
4.24585e-05
6.38501e-05
0.000133513
0.000330806
0.000852917
0.0024209
0.00624499
0.00365205
0.00454738
0.00511665
0.00418637
0.00336237
0.00264005
0.0020703
0.00164912
0.00136178
0.00124468
0.00130135
0.00148191
0.00169409
0.00183319
0.00182262
0.00163767
0.00129812
0.000904547
0.000518127
0.000277713
0.000154201
0.000100619
7.71597e-05
6.52955e-05
5.7955e-05
5.28733e-05
4.93208e-05
4.69733e-05
4.55513e-05
4.50369e-05
4.51046e-05
4.6017e-05
4.95656e-05
6.1904e-05
0.000101925
0.000221122
0.000537734
0.00128956
0.00283676
0.00517441
0.00306846
0.00139849
0.00142847
0.00143039
0.00135152
0.0013096
0.00142107
0.00170652
0.00204541
0.00231342
0.00241528
0.00229891
0.00198035
0.00152605
0.000975287
0.000563477
0.000309328
0.000184898
0.000132056
0.000109682
9.79627e-05
9.00473e-05
8.39908e-05
7.94424e-05
7.64376e-05
7.49755e-05
7.48809e-05
7.57798e-05
7.82881e-05
8.21085e-05
8.89755e-05
0.000105132
0.000148698
0.000266827
0.000568974
0.00127257
0.00274967
0.00543658
0.00284235
0.0011882
0.00171261
0.00194975
0.00230503
0.00275158
0.00315792
0.00334125
0.00331201
0.00309254
0.00270227
0.00213093
0.00150849
0.000970935
0.000568261
0.000336243
0.000227178
0.000183088
0.000164666
0.000154807
0.000147851
0.000142456
0.000138672
0.000136989
0.000137935
0.000141811
0.000148487
0.000157288
0.000166947
0.000177922
0.000191817
0.000212561
0.000254097
0.000349969
0.0005783
0.00112215
0.00244119
0.00492983
0.00367032
0.00741863
0.00811309
0.00482087
0.00340175
0.00372948
0.00413668
0.00414658
0.00393512
0.00358159
0.00313026
0.00262693
0.00208283
0.00152902
0.00103673
0.000669989
0.000449937
0.000346881
0.000306208
0.000290775
0.00028367
0.000278679
0.000273793
0.00026892
0.000265026
0.000263589
0.000266116
0.00027383
0.000287606
0.000308054
0.00033544
0.000369133
0.000407976
0.00045593
0.000534702
0.000667256
0.000912063
0.00143947
0.00315304
0.00457566
0.0041756
0.00650166
0.00514077
0.00435625
0.00461301
0.00453404
0.00426775
0.00368796
0.0030417
0.0024561
0.00196374
0.00156135
0.00123799
0.000980197
0.000782851
0.000640774
0.000551698
0.000503772
0.000482346
0.000476669
0.000479826
0.000487241
0.000496048
0.000504942
0.000514117
0.000525086
0.000540442
0.000563663
0.000599029
0.000651631
0.000727364
0.000832639
0.000973259
0.00115149
0.00136229
0.00163386
0.00202693
0.00265545
0.00406468
0.00554407
0.00460627
0.0053574
0.00337376
0.00332592
0.00362977
0.00389757
0.00357346
0.00298538
0.0023821
0.00186105
0.00143546
0.00109306
0.000824142
0.000627547
0.000503036
0.000441517
0.000418132
0.000416907
0.000427392
0.000443666
0.00046242
0.000481776
0.000500854
0.000519665
0.000539079
0.000560766
0.00058718
0.000621742
0.000669341
0.00073696
0.00083385
0.000970403
0.00115556
0.00139451
0.00169051
0.00205434
0.00249827
0.00301552
0.0036287
0.00430729
0.00365062
)
;

boundaryField
{
    floor
    {
        Cmu             0.09;
        kappa           0.41;
        E               9.8;
        type            epsilonWallFunction;
        value           nonuniform List<scalar> 
36
(
0.000860145
8.94225e-05
0.000262559
0.000268901
0.000249789
0.000219935
0.000183942
0.000152234
0.000126461
0.000105871
8.94177e-05
7.62719e-05
6.56212e-05
5.68261e-05
4.93613e-05
4.27543e-05
3.65063e-05
3.1809e-05
2.35959e-05
2.35959e-05
4.80908e-05
7.08278e-05
9.4552e-05
0.000160555
0.000377987
0.000329725
0.000860145
0.00112879
0.000978259
0.000858061
8.94225e-05
0.000858061
0.000512469
0.00158391
0.00102833
0.00156456
)
;
    }
    ceiling
    {
        Cmu             0.09;
        kappa           0.41;
        E               9.8;
        type            epsilonWallFunction;
        value           nonuniform List<scalar> 
43
(
0.0053574
0.00337376
0.00332592
0.00362977
0.00389757
0.00357346
0.00298538
0.0023821
0.00186105
0.00143546
0.00109306
0.000824142
0.000627547
0.000503036
0.000441517
0.000418132
0.000416907
0.000427392
0.000443666
0.00046242
0.000481776
0.000500854
0.000519665
0.000539079
0.000560766
0.00058718
0.000621742
0.000669341
0.00073696
0.00083385
0.000970403
0.00115556
0.00139451
0.00169051
0.00205434
0.00249827
0.00301552
0.0036287
0.00430729
0.00365062
0.00454738
0.00511665
0.0011882
)
;
    }
    sWall
    {
        Cmu             0.09;
        kappa           0.41;
        E               9.8;
        type            epsilonWallFunction;
        value           nonuniform List<scalar> 9(0.0130039 0.010688 0.00807051 0.00612305 0.00618527 0.00454738 0.00741863 0.00650166 0.0053574);
    }
    nWall
    {
        Cmu             0.09;
        kappa           0.41;
        E               9.8;
        type            epsilonWallFunction;
        value           nonuniform List<scalar> 
14
(
0.000329725
0.000561598
0.000926602
0.0032888
0.00333322
0.0038814
0.00428507
0.00365205
0.00306846
0.00284235
0.00367032
0.0041756
0.00460627
0.00365062
)
;
    }
    sideWalls
    {
        type            empty;
    }
    glass1
    {
        Cmu             0.09;
        kappa           0.41;
        E               9.8;
        type            epsilonWallFunction;
        value           nonuniform List<scalar> 9(0.000253128 0.000797014 0.00163067 0.0028536 0.00454617 0.00676392 0.00967275 0.0127599 0.0138278);
    }
    glass2
    {
        Cmu             0.09;
        kappa           0.41;
        E               9.8;
        type            epsilonWallFunction;
        value           nonuniform List<scalar> 2(0.00213101 0.00316947);
    }
    sun
    {
        Cmu             0.09;
        kappa           0.41;
        E               9.8;
        type            epsilonWallFunction;
        value           nonuniform List<scalar> 
14
(
0.000253128
0.000306382
0.000303056
0.00034426
0.000385153
0.000424984
0.000464443
0.000504718
0.000547541
0.000595629
0.00064401
0.000692313
0.000742194
0.000798459
)
;
    }
    Table_master
    {
        Cmu             0.09;
        kappa           0.41;
        E               9.8;
        type            epsilonWallFunction;
        value           nonuniform List<scalar> 9(0.000551331 0.000362388 0.000250499 0.000181124 0.000136129 0.000105801 8.46981e-05 6.97647e-05 5.94223e-05);
    }
    Table_slave
    {
        Cmu             0.09;
        kappa           0.41;
        E               9.8;
        type            epsilonWallFunction;
        value           nonuniform List<scalar> 9(0.00081416 0.000612588 0.000481693 0.000388206 0.000318813 0.000264035 0.000218515 0.000178811 0.000141673);
    }
    inlet
    {
        type            turbulentMixingLengthDissipationRateInlet;
        mixingLength    0.01;
        phi             phi;
        k               k;
        value           uniform 0.000471671;
    }
    outlet
    {
        type            zeroGradient;
    }
}


// ************************************************************************* //
