/*--------------------------------*- C++ -*----------------------------------*\
  =========                 |
  \\      /  F ield         | OpenFOAM: The Open Source CFD Toolbox
   \\    /   O peration     | Website:  https://openfoam.org
    \\  /    A nd           | Version:  6
     \\/     M anipulation  |
\*---------------------------------------------------------------------------*/
FoamFile
{
    version     2.0;
    format      ascii;
    class       surfaceScalarField;
    location    "2070";
    object      phi;
}
// * * * * * * * * * * * * * * * * * * * * * * * * * * * * * * * * * * * * * //

dimensions      [1 0 -1 0 0 0 0];

internalField   nonuniform List<scalar> 
850
(
-0.00305309
0.00311355
-0.00414576
0.00109267
-0.00501483
0.000869072
-0.00570367
0.000688844
-0.00617575
0.000472078
-0.00639701
0.000221257
-0.00632782
-6.91859e-05
-0.00592404
-0.000403778
-0.00517385
-0.000750189
-0.00412875
-0.0010451
-0.00290051
-0.00122824
-0.00164174
-0.00125877
-0.000539235
-0.00110251
0.000135788
-0.000675023
0.000138139
-0.00092241
0.000926067
-0.000689991
-0.00023242
-6.07086e-05
-0.000629282
0.000542738
-0.000603446
0.0010019
-0.000459166
0.00125847
-0.000256563
0.00136658
-0.000108115
0.0014194
-5.28176e-05
0.00144976
-3.03577e-05
0.00146482
-1.50637e-05
0.00146843
-3.60774e-06
0.00146143
6.99546e-06
0.00143818
2.3253e-05
0.00137965
5.85248e-05
0.00125373
0.000125927
0.00105013
0.000203598
0.000793462
0.000256668
0.000798301
-0.00220745
0.0054844
-0.00329508
0.0021803
-0.00420828
0.00178227
-0.00490603
0.0013866
-0.00538754
0.000953583
-0.00563048
0.000464202
-0.00559448
-0.000105193
-0.00524031
-0.000757939
-0.00456686
-0.00142365
-0.00364286
-0.00196909
-0.00258821
-0.00228289
-0.0015417
-0.00230529
-0.000628855
-0.00201535
9.27551e-05
-0.00139663
0.000872579
-0.000641686
0.00114851
-0.000272148
0.000956805
0.000196066
0.000969493
4.16021e-05
0.000895465
0.000421887
-0.000612705
0.000786744
-0.000994139
0.00109971
-0.000916409
0.00135055
-0.00071001
0.00140701
-0.000313026
0.00141515
-0.000116251
0.00142587
-6.35407e-05
0.00143486
-3.9346e-05
0.00144013
-2.03309e-05
0.0014423
-5.77708e-06
0.0014419
7.38948e-06
0.00143643
2.87309e-05
0.00139997
9.49835e-05
0.00124708
0.000278815
0.000978602
0.000472076
0.000644634
0.000590635
0.00145531
-0.00156233
0.00729715
-0.00251035
0.00312832
-0.00334297
0.00261489
-0.00396552
0.00200915
-0.00441309
0.00140115
-0.00466162
0.000712726
-0.00465597
-0.000110841
-0.00433471
-0.0010792
-0.00371322
-0.00204515
-0.00288883
-0.00279348
-0.00198675
-0.00318498
-0.00112282
-0.00316921
-0.000373615
-0.00276456
0.000240371
-0.00201062
0.000751875
-0.00115319
0.000899263
-0.000419536
0.000707424
0.000387905
0.00168818
0.00143729
-0.000527984
0.0016328
-0.000808222
0.00157521
-0.000936543
0.00160849
-0.000949697
0.00181176
-0.00091327
0.00149888
0.00138279
0.0013194
0.00128021
0.00126003
0.00125441
0.00126195
0.00129083
0.00138597
0.00115893
0.000505854
0.000870037
0.000760972
0.000498909
0.000961763
0.00197279
-0.00109548
0.00871728
-0.00185228
0.00388512
-0.0024366
0.00319921
-0.00288268
0.00245523
-0.0032278
0.00174628
-0.00344067
0.000925589
-0.00344208
-0.000109423
-0.0031237
-0.00139758
-0.00254786
-0.00262099
-0.00184617
-0.00349517
-0.00113054
-0.00390061
-0.000480819
-0.00381893
6.56562e-05
-0.00331103
0.000526236
-0.0024712
0.000902326
-0.00152928
0.00111942
-0.000636628
0.00130362
0.000203698
0.0022574
0.000734404
0.00216772
0.000101617
0.00199492
-0.000355178
0.00190896
-0.000722267
0.00179817
-0.000825756
0.00166599
-0.000817508
0.00143504
-0.000682328
0.00175864
-0.000323753
0.0019363
-0.000177814
0.00206723
-0.000131078
0.00216801
-0.000100932
0.00222822
-6.03673e-05
0.00222565
2.41579e-06
0.00213275
9.27511e-05
0.00191318
0.000219411
0.00150702
0.000406006
0.00126965
0.000743222
0.000902415
0.00112821
0.000384101
0.00148008
0.00238053
-0.000756058
0.00986106
-0.00132708
0.00445614
-0.00150966
0.00338179
-0.00168826
0.00263383
-0.00185324
0.00191126
-0.00196227
0.00103462
-0.00191382
-0.000157877
-0.00155681
-0.00175458
-0.0010558
-0.003122
-0.000537895
-0.00401307
-7.34003e-05
-0.00436511
0.000305256
-0.00419758
0.000596423
-0.0036022
0.000849289
-0.00272406
0.00106862
-0.00174861
0.00127602
-0.000844034
0.00158672
-0.000106996
0.00203031
0.000290814
0.00206421
6.77187e-05
0.0019969
-0.000287874
0.00181241
-0.000537774
0.00162454
-0.000637891
0.00144746
-0.000640425
0.00131878
-0.000553652
0.00137755
-0.000382514
0.00146561
-0.000265877
0.00155008
-0.000215548
0.00163156
-0.000182417
0.0017017
-0.0001305
0.00174072
-3.66064e-05
0.00172464
0.000108826
0.00163837
0.000305679
0.00148614
0.000558246
0.00133006
0.000899302
0.00115109
0.00130718
0.000804073
0.00182709
0.00101981
0.00216479
-0.0010952
0.00213613
-0.00179345
0.000717867
-0.00172068
-0.00063876
0.0109406
-0.00101442
0.0048318
-0.00063348
0.00300085
-0.000448756
0.00244911
-0.000384153
0.00184666
-0.000303811
0.000954275
-5.20363e-05
-0.000409651
0.000334373
-0.00214099
0.000692074
-0.0034797
0.00095195
-0.00427295
0.001095
-0.00450815
0.00114533
-0.00424792
0.00113923
-0.0035961
0.00111603
-0.00270086
0.00110054
-0.00173312
0.00113269
-0.000876186
0.00126976
-0.000244064
0.00148455
7.60251e-05
0.00153581
1.64513e-05
0.00143784
-0.000189903
0.00126347
-0.000363397
0.00108381
-0.000458233
0.000926516
-0.000483131
0.000821498
-0.000448635
0.000810706
-0.000371722
0.000860059
-0.00031523
0.000936228
-0.000291718
0.00102698
-0.000273165
0.00112581
-0.000229331
0.00122281
-0.000133605
0.00129571
3.5921e-05
0.00133277
0.000268623
0.00134806
0.00054295
0.00138208
0.000865283
0.00148254
0.00120672
0.00168604
0.0016236
0.0020368
0.00181403
0.00233694
0.001836
0.00182998
0.00122483
0.000174728
-0.000763861
0.0121918
-0.000621499
0.00468944
0.000492227
0.00188712
0.000960549
0.00198078
0.00121788
0.00158933
0.00159935
0.000572805
0.00210262
-0.000912924
0.00243982
-0.00247819
0.00257366
-0.00361354
0.00250617
-0.00420545
0.00227299
-0.00427497
0.00193606
-0.00391099
0.00155913
-0.00321918
0.00120036
-0.00234209
0.000896593
-0.00142934
0.000705027
-0.000684621
0.00065343
-0.000192467
0.000704592
2.48635e-05
0.000712674
8.36908e-06
0.000636414
-0.000113642
0.000509088
-0.000236071
0.000368793
-0.000317938
0.000242899
-0.000357236
0.000156796
-0.000362533
0.000133845
-0.00034877
0.000162861
-0.000344246
0.000222497
-0.000351353
0.000302959
-0.000353628
0.000405249
-0.000331621
0.000534338
-0.000262694
0.000687237
-0.000116978
0.000845165
0.000110694
0.00100716
0.000380952
0.00120901
0.000663436
0.00148361
0.000932117
0.001884
0.00122321
0.00241742
0.00128061
0.00318505
0.00106837
0.00336164
0.00104823
0.00360518
0.00273592
0.00999917
0.00339168
0.00403368
0.0034493
0.0018295
0.00353494
0.00189514
0.00374617
0.00137809
0.00422206
9.69166e-05
0.00469322
-0.00138408
0.00478829
-0.00257326
0.00451401
-0.00333927
0.00396093
-0.00365237
0.00322983
-0.00354387
0.00242488
-0.00310604
0.00162805
-0.00242235
0.000922107
-0.00163615
0.000347366
-0.000854604
-2.55596e-06
-0.000334699
-0.000140877
-5.41464e-05
-0.000155314
3.93005e-05
-0.000163175
1.62303e-05
-0.000215311
-6.15063e-05
-0.000306133
-0.000145249
-0.000412361
-0.000211711
-0.000511671
-0.000257926
-0.000585928
-0.000288275
-0.000623916
-0.000310783
-0.000633123
-0.000335039
-0.000625291
-0.000359185
-0.000604721
-0.000374198
-0.000566434
-0.000369908
-0.000494207
-0.000334921
-0.000356736
-0.000254449
-0.000146609
-9.94323e-05
0.000104151
0.000130191
0.000388845
0.000378742
0.000707288
0.000613673
0.00108957
0.000840931
0.00150688
0.0008633
0.00189863
0.000676618
0.00120602
0.00174084
0.00509762
0.0105981
0.0146276
0.0125614
0.00389569
0.0112292
0.00322736
0.0103407
0.00226661
0.00953383
0.00090375
0.00853143
-0.000381677
0.00735254
-0.00139437
0.00607931
-0.00206603
0.00476055
-0.0023336
0.00342941
-0.00221273
0.00216441
-0.00184104
0.00100958
-0.00126753
5.64784e-05
-0.00068304
-0.000566031
-0.000232094
-0.000859641
-4.10892e-05
-0.000956781
4.29933e-05
-0.000976457
5.89761e-05
-0.000991861
3.16349e-05
-0.0010353
-1.80628e-05
-0.00110789
-7.26616e-05
-0.00119693
-0.000122677
-0.00128873
-0.000166122
-0.00137435
-0.000202655
-0.00145154
-0.000233592
-0.00152708
-0.0002595
-0.00161024
-0.000276027
-0.00170955
-0.000274883
-0.00183469
-0.000244775
-0.00199853
-0.000171073
-0.00221652
-3.64596e-05
-0.00248301
0.000167055
-0.00280697
0.000454155
-0.00327094
0.000842712
-0.00398815
0.00133088
-0.00502969
0.00188247
-0.0065169
0.00235051
-0.00825535
0.00241507
-0.0077718
0.00125729
-0.00235717
0.00895045
0.00560362
0.00747188
0.00470593
0.00708001
0.00265848
0.00672917
0.00125459
0.00611921
0.00022829
0.00524683
-0.000521995
0.00417827
-0.000997473
0.00298293
-0.00113826
0.0016914
-0.000921204
0.000430541
-0.00058018
-0.000609373
-0.000227618
-0.00127065
-2.17631e-05
-0.00156315
6.04056e-05
-0.00167783
7.35964e-05
-0.0017078
7.29599e-05
-0.00171358
6.47538e-05
-0.00172861
4.66701e-05
-0.00176744
2.07659e-05
-0.00183138
-8.72416e-06
-0.00191294
-4.11195e-05
-0.00200445
-7.46089e-05
-0.00210376
-0.000103342
-0.00221222
-0.000125137
-0.00233325
-0.000138472
-0.00246898
-0.000140293
-0.00261829
-0.000125575
-0.00277575
-8.73143e-05
-0.00292902
-1.78061e-05
-0.00306256
9.70833e-05
-0.00317483
0.000279321
-0.00327576
0.000555091
-0.00337726
0.000944215
-0.00348609
0.0014397
-0.00356959
0.00196598
-0.00356797
0.00234888
-0.00331
0.0021571
-0.00195001
-0.000102698
-0.00422386
-0.000826086
0.00648302
0.000742147
0.0031377
0.00140789
0.00199274
0.00164683
0.00101564
0.00158303
0.000292088
0.00121205
-0.000151021
0.000529883
-0.000315301
-0.000363534
-0.000244846
-0.00124088
-4.38527e-05
-0.00188623
6.51698e-05
-0.002227
0.000113152
-0.00235792
0.000109157
-0.00238095
8.34268e-05
-0.00237072
6.3368e-05
-0.00234969
5.19281e-05
-0.00232917
4.42382e-05
-0.00231823
3.57275e-05
-0.00232215
2.46846e-05
-0.00234154
1.06744e-05
-0.00237541
-7.25311e-06
-0.00242402
-2.60044e-05
-0.00248538
-4.19818e-05
-0.0025574
-5.31137e-05
-0.00263756
-5.83069e-05
-0.00272181
-5.60487e-05
-0.00280355
-4.38336e-05
-0.00287332
-1.75442e-05
-0.00291856
2.74377e-05
-0.00291854
9.70589e-05
-0.00284797
0.000208751
-0.00267232
0.000379437
-0.00236025
0.000632151
-0.00190394
0.000983384
-0.00128937
0.00135141
-0.000299685
0.0013592
0.00114764
0.00070978
0.0016426
-0.00059766
-0.00248957
-0.0120486
-0.0155771
-0.00905361
-0.00588849
-0.00387348
-0.00283923
-0.00253211
-0.00267113
-0.0029765
-0.00321284
-0.00324903
-0.00317657
-0.00305628
-0.00294001
-0.00284946
-0.00277895
-0.00271984
-0.00266838
-0.00262539
-0.0025934
-0.00257541
-0.00257538
-0.0025942
-0.0026291
-0.00267526
-0.00272675
-0.00277615
-0.00281351
-0.00282477
-0.00279126
-0.00268834
-0.00247396
-0.00208915
-0.00145189
-0.000463694
0.000892136
0.00225548
0.00296931
0.00237583
)
;

boundaryField
{
    floor
    {
        type            calculated;
        value           nonuniform List<scalar> 
36
(
0
0
0
0
0
0
0
0
0
0
0
0
0
0
0
0
0
0
0
-4.83915e-06
-1.23784e-05
-1.85697e-05
-2.364e-05
-2.11164e-05
-1.96192e-05
-1.84536e-05
-2.35097e-06
-3.78399e-06
-4.35944e-06
-5.04474e-06
-3.65663e-06
-7.64388e-06
-1.10004e-05
-1.12619e-05
-1.38369e-05
-1.19391e-05
)
;
    }
    ceiling
    {
        type            calculated;
        value           nonuniform List<scalar> 
43
(
-4.18433e-05
-4.1178e-05
-4.04781e-05
-2.74141e-05
-2.22702e-05
-1.86058e-05
-1.503e-05
-1.20048e-05
-9.92951e-06
-8.50213e-06
-7.66648e-06
-7.28631e-06
-7.13854e-06
-7.11145e-06
-7.12455e-06
-7.14607e-06
-7.17802e-06
-7.22086e-06
-7.26745e-06
-7.30793e-06
-7.3153e-06
-7.2763e-06
-7.19282e-06
-7.08147e-06
-6.95273e-06
-6.80946e-06
-6.64868e-06
-6.47525e-06
-6.28392e-06
-6.07891e-06
-5.85924e-06
-5.62536e-06
-5.3766e-06
-5.10604e-06
-4.81151e-06
-4.42495e-06
-4.13956e-06
-4.04932e-06
-4.1815e-06
-3.60384e-06
6.94078e-06
4.17892e-06
-5.33143e-05
)
;
    }
    sWall
    {
        type            calculated;
        value           uniform -0.000241396;
    }
    nWall
    {
        type            calculated;
        value           nonuniform List<scalar> 6(-5.43172e-05 -6.5434e-05 -6.88138e-05 -8.33262e-05 -9.16832e-05 -0.000110141);
    }
    sideWalls
    {
        type            empty;
        value           nonuniform 0();
    }
    glass1
    {
        type            calculated;
        value           nonuniform List<scalar> 9(-6.04583e-05 -0.000163403 -0.000250424 -0.00032465 -0.000387723 -0.000440784 -0.000487283 -0.000543337 -0.000605862);
    }
    glass2
    {
        type            calculated;
        value           nonuniform List<scalar> 2(-0.000286411 -0.000317011);
    }
    sun
    {
        type            calculated;
        value           uniform 0;
    }
    Table_master
    {
        type            calculated;
        value           nonuniform List<scalar> 9(-1.5364e-07 -1.53789e-07 -1.53839e-07 -1.53869e-07 -1.53889e-07 -1.53902e-07 -1.53906e-07 -1.539e-07 -1.5387e-07);
    }
    Table_slave
    {
        type            calculated;
        value           nonuniform List<scalar> 9(1.5353e-07 1.53515e-07 1.53468e-07 1.53431e-07 1.53408e-07 1.53408e-07 1.53413e-07 1.53451e-07 1.53535e-07);
    }
    inlet
    {
        type            calculated;
        value           uniform -0.0106584;
    }
    outlet
    {
        type            calculated;
        value           nonuniform List<scalar> 2(0.0123319 0.00356967);
    }
}


// ************************************************************************* //
