/*--------------------------------*- C++ -*----------------------------------*\
  =========                 |
  \\      /  F ield         | OpenFOAM: The Open Source CFD Toolbox
   \\    /   O peration     | Website:  https://openfoam.org
    \\  /    A nd           | Version:  6
     \\/     M anipulation  |
\*---------------------------------------------------------------------------*/
FoamFile
{
    version     2.0;
    format      ascii;
    class       volVectorField;
    location    "2070";
    object      U;
}
// * * * * * * * * * * * * * * * * * * * * * * * * * * * * * * * * * * * * * //

dimensions      [0 1 -1 0 0 0 0];

internalField   nonuniform List<vector> 
458
(
(0.0348281 0.0885212 0)
(-0.172079 0.0265829 0)
(-0.199344 0.0191128 0)
(-0.233219 0.0130811 0)
(-0.258391 0.0064141 0)
(-0.273596 -0.000804076 0)
(-0.276726 -0.00877695 0)
(-0.26548 -0.0177763 0)
(-0.239425 -0.0274248 0)
(-0.199717 -0.0361092 0)
(-0.150454 -0.0420491 0)
(-0.0978387 -0.0436496 0)
(-0.0487387 -0.0390809 0)
(-0.00628112 -0.0236894 0)
(-0.0102705 0.00976912 0)
(-0.0102367 0.0105118 0)
(-0.0372581 -0.017489 0)
(-0.0145079 -0.0291061 0)
(0.0136746 -0.0251833 0)
(0.0334444 -0.0178889 0)
(0.0480607 -0.00955468 0)
(0.0568197 -0.00517637 0)
(0.0606982 -0.00363258 0)
(0.0621338 -0.00308297 0)
(0.0627832 -0.00275999 0)
(0.063093 -0.00250951 0)
(0.0630322 -0.00224168 0)
(0.0624345 -0.00179763 0)
(0.060843 -0.000838926 0)
(0.057241 0.00107448 0)
(0.0505212 0.00317087 0)
(0.0451155 0.0050869 0)
(-0.0141456 0.0219486 0)
(0.214277 0.181888 0)
(-0.162148 0.0709907 0)
(-0.162939 0.0577609 0)
(-0.198654 0.0457425 0)
(-0.224129 0.0319882 0)
(-0.240106 0.0161765 0)
(-0.244609 -0.00240796 0)
(-0.235115 -0.0239634 0)
(-0.211869 -0.0461656 0)
(-0.176489 -0.0649222 0)
(-0.133362 -0.0764231 0)
(-0.0881346 -0.0781971 0)
(-0.0462681 -0.0687305 0)
(-0.0100365 -0.0460223 0)
(0.0194022 -0.0133877 0)
(0.0442351 0.00784561 0)
(0.0548432 0.0347566 0)
(-0.0118127 0.0706823 0)
(0.0670407 0.0439803 0)
(0.0102952 -0.0218334 0)
(0.0265218 -0.037899 0)
(0.0407501 -0.0356448 0)
(0.0531389 -0.0273404 0)
(0.0595611 -0.0120929 0)
(0.0611812 -0.00275334 0)
(0.0612309 0.000745592 0)
(0.0613955 0.00202292 0)
(0.0617208 0.00272191 0)
(0.0619459 0.00322172 0)
(0.0620034 0.00367493 0)
(0.0618994 0.00440725 0)
(0.0611883 0.00620537 0)
(0.0577915 0.0112242 0)
(0.0491003 0.0155337 0)
(0.047694 0.0187056 0)
(-0.0584266 0.047551 0)
(0.379539 0.272953 0)
(-0.180118 0.11373 0)
(-0.123511 0.0941071 0)
(-0.159195 0.0724332 0)
(-0.182597 0.0495028 0)
(-0.198407 0.023644 0)
(-0.204061 -0.00653171 0)
(-0.195373 -0.0409744 0)
(-0.173593 -0.0757742 0)
(-0.141429 -0.103642 0)
(-0.103847 -0.118947 0)
(-0.0659018 -0.119153 0)
(-0.0318299 -0.104119 0)
(-0.00228499 -0.0744025 0)
(0.0220229 -0.0400792 0)
(0.0375895 -0.0152242 0)
(0.0431731 0.0131591 0)
(-0.0236672 0.0623155 0)
(0.122493 -0.00753971 0)
(0.0725123 -0.032095 0)
(0.0643144 -0.0419305 0)
(0.0672632 -0.0417567 0)
(0.0718734 -0.0380428 0)
(0.073492 -0.028227 0)
(0.0643692 -0.0183285 0)
(0.057415 -0.0130267 0)
(0.0548163 -0.0100785 0)
(0.0541249 -0.00818582 0)
(0.0538908 -0.0068974 0)
(0.0539611 -0.00590254 0)
(0.0547604 -0.00475349 0)
(0.0572114 -0.00139862 0)
(0.0561059 0.0149945 0)
(0.0445896 0.0258707 0)
(0.0541332 0.033249 0)
(-0.0993749 0.0727959 0)
(0.530035 0.34665 0)
(-0.216671 0.151752 0)
(-0.080199 0.125833 0)
(-0.115538 0.0962951 0)
(-0.133416 0.0672238 0)
(-0.146929 0.0337647 0)
(-0.152515 -0.00710727 0)
(-0.142622 -0.0550471 0)
(-0.12129 -0.1023 0)
(-0.0929825 -0.137831 0)
(-0.0625366 -0.155418 0)
(-0.0335778 -0.153423 0)
(-0.00880392 -0.133438 0)
(0.0128589 -0.0979267 0)
(0.0304254 -0.058978 0)
(0.0443494 -0.0229025 0)
(0.0599486 0.0131435 0)
(0.0588172 0.0534345 0)
(0.100331 0.0615008 0)
(0.0988154 -0.00244641 0)
(0.0851508 -0.0293921 0)
(0.0784673 -0.0376916 0)
(0.0736163 -0.0383939 0)
(0.0670214 -0.0341066 0)
(0.0666025 -0.0208381 0)
(0.0772781 -0.0138298 0)
(0.0862406 -0.010107 0)
(0.0916394 -0.00782396 0)
(0.0948785 -0.00591622 0)
(0.0962842 -0.00385519 0)
(0.0945156 -0.00118976 0)
(0.088253 0.00248061 0)
(0.0757104 0.00774318 0)
(0.0597971 0.0250987 0)
(0.0440609 0.0405849 0)
(0.062977 0.053347 0)
(-0.131383 0.0942808 0)
(0.662688 0.403808 0)
(-0.262356 0.182675 0)
(-0.0350346 0.145254 0)
(-0.0687506 0.111317 0)
(-0.0779475 0.0792329 0)
(-0.086295 0.0412514 0)
(-0.0890506 -0.00798304 0)
(-0.0740322 -0.068806 0)
(-0.0534864 -0.125892 0)
(-0.0315833 -0.165063 0)
(-0.0112792 -0.181834 0)
(0.00615746 -0.175987 0)
(0.0193215 -0.151482 0)
(0.030339 -0.114541 0)
(0.0401881 -0.0729626 0)
(0.049432 -0.0337287 0)
(0.0619306 0.000667999 0)
(0.0760344 0.019709 0)
(0.0903243 -0.000574688 0)
(0.0896822 -0.0213783 0)
(0.0826159 -0.0300376 0)
(0.0738094 -0.0325512 0)
(0.065565 -0.0316296 0)
(0.0586211 -0.0266316 0)
(0.0568401 -0.0155113 0)
(0.0603937 -0.009026 0)
(0.064735 -0.00637153 0)
(0.0684581 -0.00482908 0)
(0.0717006 -0.00274889 0)
(0.0742073 0.000781842 0)
(0.0750563 0.00596892 0)
(0.073162 0.012987 0)
(0.0682525 0.022438 0)
(0.0612055 0.0371779 0)
(0.0500538 0.0536303 0)
(0.0748576 0.0727499 0)
(-0.00684597 0.101384 0)
(0.0557868 0.150675 0)
(-0.0835214 0.0748389 0)
(-0.277797 0.000486679 0)
(0.761895 0.451323 0)
(-0.308553 0.203336 0)
(0.00242842 0.143883 0)
(-0.0205866 0.116257 0)
(-0.0197933 0.0857219 0)
(-0.0215031 0.0472965 0)
(-0.0143185 -0.00693301 0)
(0.0103095 -0.0859153 0)
(0.0269199 -0.146183 0)
(0.0388227 -0.182414 0)
(0.0460439 -0.194546 0)
(0.048893 -0.185047 0)
(0.0486286 -0.15812 0)
(0.0472234 -0.11992 0)
(0.0460486 -0.0779428 0)
(0.0464644 -0.0397126 0)
(0.0508159 -0.00999789 0)
(0.059965 0.00481652 0)
(0.0662418 -0.0010586 0)
(0.0649886 -0.0110193 0)
(0.0586033 -0.0188102 0)
(0.0504326 -0.0229133 0)
(0.042795 -0.0236616 0)
(0.0368194 -0.0211346 0)
(0.0342684 -0.0157703 0)
(0.035418 -0.012294 0)
(0.0383721 -0.0108625 0)
(0.0420283 -0.00977427 0)
(0.0460882 -0.007638 0)
(0.0502707 -0.0033836 0)
(0.0544811 0.00368473 0)
(0.0569978 0.0131872 0)
(0.0581638 0.0249444 0)
(0.0592887 0.0395784 0)
(0.0583651 0.0560005 0)
(0.0797074 0.0766966 0)
(0.065447 0.0889868 0)
(0.0997216 0.096733 0)
(0.117478 0.057199 0)
(-0.136897 -0.0299294 0)
(0.815617 0.494188 0)
(-0.334124 0.187369 0)
(0.0322382 0.0937988 0)
(0.0390593 0.101054 0)
(0.0459265 0.083001 0)
(0.0516181 0.0393729 0)
(0.0790902 -0.0311662 0)
(0.103103 -0.103696 0)
(0.113281 -0.157008 0)
(0.112858 -0.186324 0)
(0.104581 -0.192426 0)
(0.0907908 -0.178773 0)
(0.0740962 -0.149769 0)
(0.0575024 -0.111563 0)
(0.0429713 -0.0709121 0)
(0.0326143 -0.0357001 0)
(0.0280973 -0.0107634 0)
(0.0294976 0.000983105 0)
(0.0311332 -0.000287449 0)
(0.0296318 -0.00657434 0)
(0.0249802 -0.0126342 0)
(0.0188609 -0.0163718 0)
(0.0128357 -0.0177437 0)
(0.00802976 -0.017105 0)
(0.00566904 -0.0151957 0)
(0.00601147 -0.0141013 0)
(0.008051 -0.0139677 0)
(0.0110495 -0.0137417 0)
(0.0148449 -0.0123608 0)
(0.0195228 -0.00873876 0)
(0.0256918 -0.00163421 0)
(0.0333009 0.00886995 0)
(0.0400671 0.0208907 0)
(0.0478758 0.0341601 0)
(0.0558753 0.04796 0)
(0.0754505 0.0644575 0)
(0.0882319 0.0697721 0)
(0.11967 0.06321 0)
(0.163391 0.0513055 0)
(-0.0203504 0.0954875 0)
(0.921873 0.497287 0)
(-0.0766826 0.167418 0)
(0.110605 0.0261615 0)
(0.163733 0.022795 0)
(0.161393 0.0155506 0)
(0.162858 -0.0293574 0)
(0.19648 -0.0804046 0)
(0.211264 -0.125537 0)
(0.205355 -0.158272 0)
(0.185089 -0.173977 0)
(0.155586 -0.171671 0)
(0.121089 -0.153972 0)
(0.085295 -0.124274 0)
(0.0523683 -0.0880744 0)
(0.0244607 -0.0510593 0)
(0.00511278 -0.0219317 0)
(-0.00463425 -0.00443477 0)
(-0.00656131 0.00175065 0)
(-0.00644269 0.000656205 0)
(-0.0076437 -0.00366867 0)
(-0.0109438 -0.00801714 0)
(-0.0154422 -0.01108 0)
(-0.0200763 -0.0128493 0)
(-0.0239403 -0.0136851 0)
(-0.0263221 -0.0141359 0)
(-0.0272135 -0.0148869 0)
(-0.0271773 -0.0158707 0)
(-0.0265954 -0.0165841 0)
(-0.0254678 -0.0164981 0)
(-0.0234883 -0.0150352 0)
(-0.0198626 -0.0114642 0)
(-0.0117092 -0.00490803 0)
(-9.52961e-05 0.00446011 0)
(0.0110851 0.0137607 0)
(0.0226886 0.0208656 0)
(0.0398988 0.0277367 0)
(0.0554295 0.0224389 0)
(0.0795694 0.00564793 0)
(0.146408 0.0479775 0)
(-0.428338 0.212665 0)
(1.06591 0.444167 0)
(0.518239 0.298302 0)
(0.529533 0.24986 0)
(0.518389 0.182908 0)
(0.469832 0.122442 0)
(0.43315 0.0601167 0)
(0.392041 -0.00741917 0)
(0.342838 -0.0669753 0)
(0.289081 -0.107858 0)
(0.232745 -0.12661 0)
(0.175367 -0.125099 0)
(0.118911 -0.108913 0)
(0.0654648 -0.0822861 0)
(0.0202435 -0.0512611 0)
(-0.0160981 -0.0208416 0)
(-0.032947 -0.00607405 0)
(-0.0401246 0.000435545 0)
(-0.0416821 0.00220002 0)
(-0.042061 0.00100168 0)
(-0.0432035 -0.00164479 0)
(-0.045832 -0.00452123 0)
(-0.0494813 -0.00704777 0)
(-0.0535065 -0.00913674 0)
(-0.0573711 -0.0108649 0)
(-0.0608186 -0.0123665 0)
(-0.0640117 -0.0137478 0)
(-0.0673542 -0.0148459 0)
(-0.0712217 -0.0153021 0)
(-0.075968 -0.0146314 0)
(-0.0820662 -0.0121809 0)
(-0.0902083 -0.00711356 0)
(-0.101118 0.00142941 0)
(-0.112752 0.0133227 0)
(-0.127984 0.0284142 0)
(-0.152907 0.0467844 0)
(-0.190232 0.0673933 0)
(-0.241633 0.0862251 0)
(-0.297562 0.0999178 0)
(-0.371646 0.106911 0)
(-0.650669 0.106303 0)
(0.233923 0.0528356 0)
(0.30589 0.115968 0)
(0.321217 0.0913737 0)
(0.299642 0.0395839 0)
(0.275045 -0.0105979 0)
(0.244387 -0.0469362 0)
(0.2031 -0.0684113 0)
(0.154007 -0.0754163 0)
(0.100444 -0.0687012 0)
(0.0461735 -0.0529194 0)
(-0.0086204 -0.0295154 0)
(-0.0451277 -0.0114915 0)
(-0.0635885 -0.00313225 0)
(-0.0709196 -0.00075838 0)
(-0.0731556 -0.000289923 0)
(-0.0734738 -0.000988773 0)
(-0.0737761 -0.00258892 0)
(-0.0749149 -0.00468291 0)
(-0.0771313 -0.00677012 0)
(-0.0803872 -0.00854928 0)
(-0.0841838 -0.0100204 0)
(-0.0882911 -0.0111417 0)
(-0.0927206 -0.0119161 0)
(-0.097626 -0.0123101 0)
(-0.103158 -0.0121333 0)
(-0.109348 -0.0110408 0)
(-0.116066 -0.00856337 0)
(-0.122967 -0.00415706 0)
(-0.129429 0.00273928 0)
(-0.134402 0.0123371 0)
(-0.13837 0.0256177 0)
(-0.141807 0.0431792 0)
(-0.146018 0.0642222 0)
(-0.151772 0.0850514 0)
(-0.155358 0.0955476 0)
(-0.141303 0.0734015 0)
(-0.110247 -0.0250084 0)
(-0.286611 -0.213741 0)
(0.120027 0.324338 0)
(0.00839212 0.203596 0)
(0.0392676 0.118454 0)
(0.0584828 0.060439 0)
(0.0631321 0.0216266 0)
(0.0601186 -0.00478536 0)
(0.0402061 -0.019914 0)
(0.00543073 -0.0189592 0)
(-0.0365871 -0.00172455 0)
(-0.0701084 0.0128766 0)
(-0.0912228 0.0208826 0)
(-0.100237 0.02327 0)
(-0.102458 0.0233973 0)
(-0.102402 0.0234453 0)
(-0.101531 0.0241554 0)
(-0.100501 0.025282 0)
(-0.0997804 0.0264236 0)
(-0.0996549 0.0271741 0)
(-0.100181 0.027109 0)
(-0.101324 0.0259043 0)
(-0.103119 0.0238719 0)
(-0.105495 0.0216284 0)
(-0.108388 0.0194493 0)
(-0.111706 0.0174807 0)
(-0.115314 0.0158321 0)
(-0.118997 0.014613 0)
(-0.122446 0.0139603 0)
(-0.125177 0.014031 0)
(-0.126373 0.015522 0)
(-0.124865 0.0198903 0)
(-0.119076 0.0282966 0)
(-0.107619 0.0417408 0)
(-0.0903518 0.0602413 0)
(-0.0683171 0.0804256 0)
(-0.0434461 0.094838 0)
(-0.00758412 0.085778 0)
(0.14694 0.00930475 0)
(-0.209928 -0.129684 0)
(-0.422123 -0.516032 0)
(-0.63732 -0.143274 0)
(-0.449398 0.177764 0)
(-0.357931 0.0560842 0)
(-0.213892 -0.00553549 0)
(-0.1456 -0.0477881 0)
(-0.117153 -0.0705416 0)
(-0.112972 -0.0713667 0)
(-0.122333 -0.0626923 0)
(-0.134853 -0.0549796 0)
(-0.14034 -0.0505075 0)
(-0.138582 -0.0490666 0)
(-0.134119 -0.049949 0)
(-0.128933 -0.0527695 0)
(-0.124466 -0.0563001 0)
(-0.121021 -0.0599511 0)
(-0.118225 -0.0635987 0)
(-0.115817 -0.0672938 0)
(-0.113752 -0.070893 0)
(-0.112104 -0.0739066 0)
(-0.111007 -0.0756844 0)
(-0.110621 -0.0757903 0)
(-0.111052 -0.0743584 0)
(-0.112259 -0.0719878 0)
(-0.114071 -0.0689161 0)
(-0.116262 -0.065276 0)
(-0.11855 -0.0610882 0)
(-0.120567 -0.0562788 0)
(-0.121832 -0.0506326 0)
(-0.121711 -0.0438024 0)
(-0.119187 -0.035815 0)
(-0.112354 -0.0266904 0)
(-0.0984067 -0.0158837 0)
(-0.074845 -0.00248748 0)
(-0.0415512 0.0143631 0)
(0.00931564 0.0362841 0)
(0.0618657 0.0423473 0)
(0.109598 0.0240446 0)
(0.172058 -0.0159432 0)
(-0.196291 -0.0826856 0)
)
;

boundaryField
{
    floor
    {
        type            noSlip;
    }
    ceiling
    {
        type            noSlip;
    }
    sWall
    {
        type            noSlip;
    }
    nWall
    {
        type            noSlip;
    }
    sideWalls
    {
        type            empty;
    }
    glass1
    {
        type            noSlip;
    }
    glass2
    {
        type            noSlip;
    }
    sun
    {
        type            noSlip;
    }
    Table_master
    {
        type            noSlip;
    }
    Table_slave
    {
        type            noSlip;
    }
    inlet
    {
        type            fixedValue;
        value           uniform (0.46194 -0.191342 0);
    }
    outlet
    {
        type            zeroGradient;
    }
}


// ************************************************************************* //
