/*--------------------------------*- C++ -*----------------------------------*\
  =========                 |
  \\      /  F ield         | OpenFOAM: The Open Source CFD Toolbox
   \\    /   O peration     | Website:  https://openfoam.org
    \\  /    A nd           | Version:  6
     \\/     M anipulation  |
\*---------------------------------------------------------------------------*/
FoamFile
{
    version     2.0;
    format      ascii;
    class       volScalarField;
    location    "44300.0000000379732";
    object      nut;
}
// * * * * * * * * * * * * * * * * * * * * * * * * * * * * * * * * * * * * * //

dimensions      [0 2 -1 0 0 0 0];

internalField   nonuniform List<scalar> 
778
(
0.000894301
0.000953064
0.000949609
0.000990838
0.00102862
0.00106294
0.00109489
0.00112568
0.00115668
0.00118962
0.00122101
0.00125081
0.00128016
0.00131172
0.00134465
0.000632315
0.000905138
0.000912404
0.000890275
0.000853318
0.000804003
0.000754881
0.000709613
0.000668781
0.000632155
0.000599516
0.000570201
0.000543499
0.000518579
0.000494329
0.000468974
0.000447935
0.00040549
0.00131076
0.00258111
0.00226502
0.00261432
0.00286785
0.00313667
0.00340484
0.00365199
0.00385089
0.00396661
0.00403456
0.00400631
0.00380621
0.003311
0.00241803
0.0014721
0.00140352
0.00134347
0.00113108
0.00192645
0.00266968
0.00310836
0.00312863
0.00246962
0.00211204
0.00186422
0.00167626
0.00152681
0.00139931
0.00128654
0.00118159
0.00107891
0.000986762
0.000907299
0.00102228
0.000514043
0.00166401
0.00360435
0.00267234
0.00382222
0.00427096
0.00465082
0.00499588
0.00529957
0.0055568
0.00575833
0.00595348
0.00615856
0.00634664
0.00645798
0.00638237
0.00584303
0.00427336
0.00164788
0.001427
0.00305315
0.00426019
0.00483042
0.00439219
0.00115894
0.00100767
0.000891018
0.000799784
0.000727202
0.000668625
0.000620843
0.000581971
0.000551658
0.000606593
0.000713633
0.00113068
0.000584769
0.00200522
0.00485832
0.00255741
0.00429819
0.00496253
0.00531825
0.00557992
0.0057736
0.00591816
0.00603524
0.00620152
0.00648214
0.00689127
0.00740551
0.00792233
0.00817653
0.00767757
0.00572927
0.00164138
0.00380097
0.00565631
0.00659834
0.00682989
0.00582978
0.00132
0.00120052
0.00110805
0.00103117
0.000965674
0.000906872
0.000851439
0.000796381
0.000736898
0.000688555
0.000714002
0.0012249
0.000643731
0.00234194
0.006433
0.00258032
0.00408656
0.00510797
0.00541138
0.00552182
0.00552649
0.00547201
0.0054237
0.0054934
0.00576606
0.00626601
0.00697378
0.00779483
0.00855152
0.00903177
0.00902621
0.00810114
0.00824379
0.00843386
0.0084607
0.00828828
0.00775703
0.00617249
0.00533131
0.00475522
0.00428692
0.00382795
0.00338351
0.00294876
0.00251462
0.00206869
0.00158886
0.0012122
0.0012122
0.00095877
0.000768004
0.00102315
0.000974725
0.00267357
0.00819627
0.00303789
0.00344655
0.00489469
0.00523124
0.00520473
0.00501781
0.00475039
0.00452983
0.00452506
0.00481073
0.0053803
0.00620072
0.00716125
0.00812154
0.00893928
0.00946247
0.00955841
0.00946341
0.00929634
0.00905855
0.00875231
0.00836234
0.00779341
0.00724546
0.00674808
0.00626697
0.00574778
0.00519361
0.00460188
0.00396757
0.0032867
0.00256427
0.00190972
0.00143384
0.00111323
0.00125867
0.00220016
0.0011632
0.00301212
0.00982785
0.00404868
0.00282373
0.00439859
0.00494868
0.00488781
0.00458488
0.00414537
0.00375887
0.00374806
0.0041089
0.00476075
0.00567759
0.00672102
0.00775462
0.00864501
0.00928357
0.00957808
0.00955649
0.00934749
0.00903009
0.00866617
0.00830283
0.0079513
0.00762873
0.0073257
0.00700191
0.00661094
0.00614056
0.00558388
0.00493834
0.00420655
0.00340699
0.00262452
0.00189461
0.00139463
0.00125422
0.00224128
0.00137596
0.00330348
0.0110648
0.00552127
0.00268859
0.00348508
0.00438793
0.00451352
0.00426422
0.00374543
0.00321895
0.00333878
0.00381613
0.00454514
0.00548982
0.00657336
0.00765506
0.00857844
0.00922075
0.00951329
0.00947638
0.00920636
0.0088073
0.0083777
0.00799645
0.00770246
0.00749239
0.00732851
0.00715001
0.00690154
0.00655385
0.00609341
0.00551765
0.00483237
0.00405772
0.00325086
0.00243122
0.00169262
0.00114101
0.00331342
0.00182376
0.00339326
0.0104831
0.00683724
0.00347673
0.00236214
0.00289644
0.00338975
0.00343086
0.00302971
0.00294485
0.00325102
0.00381223
0.00460055
0.00560262
0.00673844
0.00785333
0.00877295
0.00936499
0.00957336
0.0094311
0.00903911
0.00852462
0.00801397
0.00760639
0.00734761
0.00722064
0.00716317
0.00709467
0.00695183
0.00670066
0.00632778
0.00583204
0.00522012
0.00450818
0.0037249
0.00284082
0.0016288
0.00145259
0.00526479
0.00205537
0.00332457
0.00845764
0.00706635
0.00477546
0.00315191
0.00244014
0.002312
0.0024216
0.00262508
0.00294935
0.00340914
0.00404073
0.00489846
0.00597965
0.00717798
0.00830868
0.0091795
0.00965843
0.00970766
0.00938494
0.00881776
0.00816532
0.00758297
0.00718379
0.00700077
0.00697965
0.00701979
0.00701933
0.00692711
0.00672396
0.0064036
0.00596606
0.00541524
0.00475499
0.00396509
0.00285212
0.00125944
0.00259339
0.00501579
0.00209792
0.00311431
0.00723129
0.00683534
0.00546793
0.00420577
0.00338462
0.0029789
0.00288746
0.00305597
0.00336587
0.00381536
0.00448207
0.0054301
0.00661688
0.00787732
0.00898405
0.00973296
0.0100089
0.00980927
0.00923344
0.00845384
0.00767398
0.00708117
0.00678312
0.00674881
0.00684765
0.00694768
0.00694936
0.00685222
0.00665566
0.00635607
0.00594995
0.00543089
0.00477254
0.00387076
0.00253166
0.00136816
0.00278652
0.00560003
0.00212774
0.00283605
0.00652178
0.00659605
0.00579079
0.00492395
0.00427196
0.00388826
0.00375073
0.00378559
0.00397255
0.00438474
0.00512981
0.00622737
0.00754389
0.00883239
0.00982731
0.0103351
0.0102851
0.00973527
0.00884715
0.00786049
0.00703598
0.00656723
0.00647301
0.0065573
0.00669067
0.00677737
0.00675274
0.00663933
0.00643955
0.00614792
0.00575286
0.00521778
0.00445045
0.003254
0.00190397
0.00161361
0.00323558
0.00563856
0.00223554
0.0025866
0.0058362
0.00630097
0.00591877
0.00536156
0.00489397
0.00458311
0.00443129
0.00438579
0.00454406
0.00506667
0.00604133
0.00737192
0.00879963
0.0100052
0.0107228
0.0108152
0.0102941
0.0093098
0.00810825
0.00702371
0.00632384
0.00601345
0.00597918
0.00607865
0.00620744
0.00628547
0.00625914
0.0061419
0.00593653
0.00563518
0.0052089
0.00455967
0.00347539
0.0020987
0.00154175
0.00205675
0.00364419
0.00570155
0.00215799
0.00259478
0.00579358
0.00643873
0.00599165
0.00554035
0.00517098
0.00490463
0.00473173
0.00472225
0.00510636
0.0060294
0.00741306
0.00897714
0.0103588
0.011236
0.0114194
0.0108915
0.00978044
0.00837193
0.00700705
0.0060126
0.00542236
0.00515063
0.00510207
0.00518219
0.00529821
0.00536899
0.00533891
0.00520492
0.00497503
0.00464307
0.00416742
0.00342384
0.00235758
0.00159199
0.00172102
0.0025363
0.00374751
0.00475317
0.00203343
0.00234197
0.00243604
0.00359171
0.00421825
0.00441131
0.00441351
0.00436999
0.00444841
0.00498289
0.00612947
0.0077495
0.00950447
0.0110103
0.0119426
0.0121082
0.01147
0.010188
0.0085152
0.00691818
0.00566201
0.00481597
0.0043359
0.00412808
0.00408412
0.00411908
0.00416352
0.00415728
0.00406238
0.00386724
0.00359894
0.00327587
0.00289832
0.00243441
0.00191203
0.00163805
0.00194805
0.00278851
0.00382619
0.0045446
0.00196146
0.000806355
0.00146277
0.0022585
0.00290068
0.00364323
0.00489506
0.00673952
0.00879413
0.0106746
0.0120901
0.0128373
0.0127784
0.0119114
0.0103304
0.00844635
0.00666028
0.00523984
0.0042905
0.00377426
0.00353089
0.00342218
0.00336987
0.00332782
0.00326037
0.00314254
0.00297223
0.00276678
0.00256229
0.00238513
0.00224188
0.00212104
0.00201756
0.00200164
0.00227495
0.00301361
0.00412356
0.00513587
0.00208166
0.00149729
0.0020769
0.00303327
0.00474067
0.0070569
0.00938369
0.0111919
0.0125084
0.0133197
0.0135658
0.0131386
0.0119256
0.0101104
0.00804312
0.00613666
0.0047048
0.00386328
0.00346031
0.0032833
0.00320488
0.00316566
0.00313347
0.00308595
0.00300913
0.00290333
0.00278549
0.00267968
0.00260492
0.00256608
0.00255734
0.00257241
0.00261834
0.00273193
0.00300224
0.00361302
0.00499134
0.00553403
0.0021785
0.00275664
0.00667718
0.00613799
0.00548353
0.00697382
0.00930791
0.0112835
0.0126257
0.0133456
0.0135402
0.013295
0.0125645
0.011293
0.0095152
0.00746902
0.00560066
0.00432861
0.00367515
0.00339606
0.00329273
0.00327019
0.0032836
0.0033051
0.00331447
0.00330043
0.0032636
0.00321556
0.00317196
0.00314427
0.00313684
0.00315172
0.00319065
0.00326115
0.0033827
0.00359308
0.00396145
0.00463589
0.00625059
0.00632774
0.00224996
0.00263852
0.00509856
0.00657509
0.00840139
0.00933549
0.0103045
0.0108741
0.0110193
0.0108192
0.010331
0.00957458
0.00854927
0.00728872
0.00593163
0.00471515
0.00384303
0.00334311
0.00309736
0.00300261
0.00300095
0.00305729
0.0031434
0.00323375
0.00330828
0.00335696
0.00338181
0.00339346
0.00340367
0.00341929
0.00344208
0.00347463
0.00352613
0.00361649
0.00377503
0.00403426
0.00442845
0.005006
0.00613215
0.00664947
0.0023041
0.00247419
0.00212034
0.00211023
0.00217239
0.00222428
0.00216029
0.0020343
0.00188728
0.00174002
0.00159933
0.00146568
0.00133976
0.00122724
0.00113906
0.00108558
0.00106227
0.00105786
0.00106506
0.0010789
0.00109608
0.0011144
0.00113249
0.00114971
0.00116605
0.00118208
0.00119877
0.00121735
0.00123918
0.00126582
0.00129947
0.00134333
0.00140165
0.00147865
0.00157658
0.00169428
0.00182819
0.0019748
0.00213129
0.00228731
0.00213977
)
;

boundaryField
{
    floor
    {
        type            nutkWallFunction;
        Cmu             0.09;
        kappa           0.41;
        E               9.8;
        value           nonuniform List<scalar> 
36
(
0.000160552
7.63757e-05
0.000109494
0.000110358
0.000107724
0.000103307
9.73777e-05
9.14289e-05
8.59062e-05
8.08884e-05
7.63561e-05
7.22904e-05
6.86157e-05
6.52484e-05
6.20874e-05
5.89933e-05
5.57379e-05
5.30199e-05
4.74859e-05
4.74859e-05
6.15096e-05
7.0444e-05
7.77909e-05
9.30212e-05
0.000123431
0.000117732
0.000160552
0.000174976
0.000167232
0.000160417
7.63757e-05
0.000160417
0.000136025
0.000194647
0.000169886
0.000193923
)
;
    }
    ceiling
    {
        type            nutkWallFunction;
        Cmu             0.09;
        kappa           0.41;
        E               9.8;
        value           nonuniform List<scalar> 
43
(
0.000284373
0.000246396
0.000245305
0.00025203
0.00025763
0.000250745
0.000237105
0.000221065
0.000204861
0.000189241
0.000174266
0.000160021
0.000147164
0.000136987
0.000130761
0.000128033
0.000127509
0.000128345
0.00012996
0.000131965
0.000134103
0.000136213
0.000138219
0.000140118
0.000141974
0.000143902
0.00014604
0.000148542
0.000151582
0.000155401
0.000160354
0.000166907
0.000175524
0.000186444
0.000199518
0.000214316
0.000230414
0.000247466
0.000264331
0.000248399
0.000270453
0.000280506
0.000177602
)
;
    }
    sWall
    {
        type            nutkWallFunction;
        Cmu             0.09;
        kappa           0.41;
        E               9.8;
        value           nonuniform List<scalar> 9(0.000373881 0.000352069 0.000322969 0.000296631 0.000297494 0.000270543 0.000314302 0.000301866 0.000284474);
    }
    nWall
    {
        type            nutkWallFunction;
        Cmu             0.09;
        kappa           0.41;
        E               9.8;
        value           nonuniform List<scalar> 
14
(
0.00011774
0.000139751
0.000164118
0.000244066
0.000247305
0.000258798
0.00025005
0.000236763
0.000229159
0.000242588
0.000252775
0.000260433
0.000266155
0.000248437
)
;
    }
    sideWalls
    {
        type            empty;
    }
    glass1
    {
        type            nutkWallFunction;
        Cmu             0.09;
        kappa           0.41;
        E               9.8;
        value           nonuniform List<scalar> 9(0.000108247 0.00015688 0.000196734 0.000234345 0.000270787 0.000306136 0.000341752 0.000372073 0.000381369);
    }
    glass2
    {
        type            nutkWallFunction;
        Cmu             0.09;
        kappa           0.41;
        E               9.8;
        value           nonuniform List<scalar> 2(0.000214235 0.000239526);
    }
    sun
    {
        type            nutkWallFunction;
        Cmu             0.09;
        kappa           0.41;
        E               9.8;
        value           nonuniform List<scalar> 
14
(
0.000108206
0.000115181
0.000114772
0.000119639
0.000124079
0.000128095
0.000131821
0.000135401
0.000138992
0.000142797
0.000146412
0.000149835
0.000153196
0.000156801
)
;
    }
    Table_master
    {
        type            nutkWallFunction;
        Cmu             0.09;
        kappa           0.41;
        E               9.8;
        value           nonuniform List<scalar> 9(0.000139244 0.000121612 0.000107809 9.68677e-05 8.80584e-05 8.08728e-05 7.49555e-05 7.0101e-05 6.6288e-05);
    }
    Table_slave
    {
        type            nutkWallFunction;
        Cmu             0.09;
        kappa           0.41;
        E               9.8;
        value           nonuniform List<scalar> 9(0.000157732 0.000144043 0.000133343 0.00012437 0.000116665 0.000109697 0.00010308 9.64569e-05 8.9241e-05);
    }
    inlet
    {
        type            calculated;
        value           uniform 0.000167705;
    }
    outlet
    {
        type            calculated;
        value           nonuniform List<scalar> 2(0.00275664 0.00667718);
    }
}


// ************************************************************************* //
