/*--------------------------------*- C++ -*----------------------------------*\
  =========                 |
  \\      /  F ield         | OpenFOAM: The Open Source CFD Toolbox
   \\    /   O peration     | Website:  https://openfoam.org
    \\  /    A nd           | Version:  6
     \\/     M anipulation  |
\*---------------------------------------------------------------------------*/
FoamFile
{
    version     2.0;
    format      ascii;
    class       surfaceScalarField;
    location    "23700";
    object      phi;
}
// * * * * * * * * * * * * * * * * * * * * * * * * * * * * * * * * * * * * * //

dimensions      [1 0 -1 0 0 0 0];

internalField   nonuniform List<scalar> 
1482
(
-0.00279972
0.00286375
-0.00348387
0.000684145
-0.00414451
0.000660648
-0.00475853
0.000614017
-0.00527979
0.000521253
-0.00569151
0.000411725
-0.00598248
0.000290968
-0.00613965
0.000157168
-0.00614572
6.06788e-06
-0.00597474
-0.000170978
-0.00559682
-0.00037792
-0.00498097
-0.000615845
-0.00405706
-0.000923917
-0.00257887
-0.00147818
-0.00257595
-6.31732e-05
6.80281e-05
0.000781244
-0.000844418
0.0014342
-0.000652955
0.00183388
-0.000399686
0.00205569
-0.000221804
0.00216015
-0.000104458
0.00220763
-4.74811e-05
0.00223064
-2.30135e-05
0.00224054
-9.90056e-06
0.00224149
-9.48467e-07
0.0022344
7.08896e-06
0.00221532
1.90772e-05
0.00217098
4.43481e-05
0.00206814
0.000102835
0.00185135
0.000216792
0.00149368
0.000357672
0.001022
0.000471674
0.00102844
-0.00204032
0.00507439
-0.00290835
0.00155218
-0.00369414
0.00144644
-0.00434512
0.00126499
-0.00488227
0.0010584
-0.00531086
0.000840314
-0.0056291
0.000609204
-0.00583019
0.000358259
-0.00590348
7.93634e-05
-0.0058412
-0.000233262
-0.00563755
-0.000581564
-0.00528125
-0.000972144
-0.00477113
-0.00143404
-0.00428516
-0.00196415
-0.00470069
-0.00216043
-0.00311514
-0.00158011
-0.00163291
-0.00147653
-0.00161806
0.00131861
-0.00124037
0.00166348
-0.00118929
0.00191543
-0.000904909
0.00210672
-0.000590969
0.00221412
-0.00032921
0.00222295
-0.000113287
0.00222488
-4.94086e-05
0.0022265
-2.46369e-05
0.00222751
-1.0905e-05
0.00222756
-1.00301e-06
0.00222622
8.42823e-06
0.00222202
2.32794e-05
0.00220936
5.70046e-05
0.00214738
0.000164821
0.00189751
0.000466657
0.0014677
0.000787485
0.000903924
0.00103545
0.00194925
-0.00148818
0.00682049
-0.00235895
0.00242296
-0.00312886
0.00221634
-0.003713
0.00184914
-0.00418355
0.00152895
-0.00455483
0.00121159
-0.00482863
0.000883007
-0.00500173
0.000531353
-0.00506773
0.000145367
-0.0050176
-0.000283392
-0.00484062
-0.000758539
-0.00452939
-0.00128338
-0.00411471
-0.00184872
-0.00371721
-0.00236164
-0.00329687
-0.00258076
-0.00236593
-0.00251105
-0.00127272
-0.00256974
-0.00287795
0.00115091
-0.00237682
0.00165473
-0.00169311
0.00195329
-0.00120347
0.00214624
-0.000783922
0.00217667
-0.000359642
0.00206354
0.00201428
0.0019898
0.00197905
0.0019782
0.00198678
0.00201022
0.00206738
0.00223235
0.00187357
0.00082544
0.00142501
0.00123604
0.000805286
0.00165517
0.00278056
-0.00110597
0.00825767
-0.00192774
0.00324473
-0.00256965
0.00285825
-0.00302987
0.00230936
-0.00339729
0.00189637
-0.00368593
0.00150024
-0.00389879
0.00109586
-0.004034
0.000666563
-0.00408405
0.00019542
-0.00403577
-0.000331668
-0.0038769
-0.000917404
-0.00360334
-0.00155695
-0.00323764
-0.00221441
-0.00281564
-0.00278365
-0.00227621
-0.00312019
-0.0015566
-0.00323066
-0.000868326
-0.00325801
-0.000687564
-0.00305871
0.00144859
-0.0021207
0.0013786
-0.00230684
0.00169341
-0.00200792
0.00200561
-0.00151566
0.00227167
-0.00104998
0.00254738
-0.000635361
0.00286158
-0.000314347
0.00302918
-0.000167755
0.00309465
-6.56271e-05
0.00307848
1.60163e-05
0.00298936
8.89654e-05
0.00282813
0.000161076
0.00258678
0.000241194
0.00224222
0.000344408
0.00173705
0.000505015
0.00159992
0.000962572
0.00127158
0.00156439
0.000744232
0.00218252
0.0035591
-0.000803672
0.00945453
-0.00157967
0.00402073
-0.00204813
0.00332671
-0.00236368
0.00262492
-0.00260793
0.00214062
-0.00279335
0.00168566
-0.00292495
0.00122745
-0.00300341
0.000745028
-0.00302217
0.000214184
-0.00296461
-0.000389233
-0.00281746
-0.00106455
-0.00257374
-0.00180066
-0.00224002
-0.00254813
-0.00182344
-0.00320024
-0.00131799
-0.00362563
-0.000741377
-0.00380728
-0.000209986
-0.0037894
0.000267359
-0.00353606
0.00112791
-0.00298125
0.00149273
-0.00267166
0.00175063
-0.00226581
0.00200244
-0.00176748
0.00223196
-0.0012795
0.0024461
-0.000849498
0.00264754
-0.000515786
0.00275838
-0.000278595
0.00279567
-0.000102914
0.00277103
4.06553e-05
0.00269074
0.000169255
0.00255714
0.000294674
0.00236888
0.00042945
0.00212346
0.000589835
0.00182891
0.000799561
0.00162263
0.00116885
0.00148093
0.00170609
0.00130191
0.00236153
0.00229321
0.0025678
0.00133852
0.000989596
0.001915
-0.000547994
0.00203337
-0.000575761
0.0104767
-0.00132452
0.00476948
-0.00158385
0.00358604
-0.00174957
0.00279064
-0.00186345
0.00225449
-0.0019349
0.00175711
-0.00197036
0.00126292
-0.00197411
0.000748779
-0.00194293
0.00018301
-0.00185503
-0.000477132
-0.00170054
-0.00121905
-0.00146942
-0.00203178
-0.00116457
-0.00285299
-0.000791893
-0.00357292
-0.000371748
-0.00404578
6.88027e-05
-0.00424783
0.00047409
-0.00419469
0.000848336
-0.0039103
0.00129867
-0.00343158
0.00159648
-0.00296947
0.00179874
-0.00246807
0.00196944
-0.00193818
0.00212071
-0.00143077
0.0022552
-0.000983985
0.00236051
-0.000621097
0.00241959
-0.000337678
0.00243197
-0.000115298
0.00240275
6.98773e-05
0.00233656
0.000235444
0.00223701
0.000394228
0.0021079
0.000558557
0.00195605
0.000741684
0.00179578
0.000959828
0.00170353
0.0012611
0.00175923
0.0016504
0.00197023
0.00215053
0.00221624
0.00232179
0.00173711
0.00146873
0.000808057
0.000381056
0.00293865
-0.000543421
0.0115123
-0.00124345
0.00546951
-0.00119137
0.00353396
-0.00119948
0.00279875
-0.00119173
0.00224674
-0.00115827
0.00172365
-0.00110125
0.0012059
-0.00102639
0.000673915
-0.000928231
8.48509e-05
-0.00077953
-0.000625834
-0.000590357
-0.00140822
-0.000350019
-0.00227212
-6.56311e-05
-0.00313738
0.000239938
-0.00387849
0.000550589
-0.00435644
0.000846208
-0.00454345
0.00110934
-0.00445783
0.00134247
-0.00414343
0.00157353
-0.00366264
0.00173215
-0.00312809
0.00183094
-0.00256686
0.00190006
-0.00200729
0.00195533
-0.00148604
0.00200197
-0.00103063
0.00203476
-0.00065389
0.00204796
-0.000350872
0.00203804
-0.000105383
0.00200562
0.000102304
0.00195353
0.000287525
0.00188528
0.000462484
0.00180566
0.000638175
0.00172275
0.000824601
0.0016511
0.00103147
0.00163383
0.00127837
0.00171647
0.00156776
0.0019232
0.0019438
0.00218001
0.00206498
0.00221044
0.00143831
0.0016326
0.000958896
0.00467356
-0.000483648
0.0125315
-0.00105136
0.00603722
-0.000696849
0.00317945
-0.000635727
0.00273763
-0.000567232
0.00217824
-0.000462579
0.001619
-0.000333734
0.00107705
-0.000182837
0.000523018
6.04226e-06
-0.000104028
0.000223861
-0.000843653
0.000463521
-0.00164788
0.000721605
-0.0025302
0.000979342
-0.00339512
0.00120895
-0.0041081
0.00140933
-0.00455682
0.00157133
-0.00470546
0.00168954
-0.00457605
0.00176864
-0.00422253
0.00182108
-0.00371509
0.00183017
-0.00313719
0.00180435
-0.00254104
0.00176279
-0.00196573
0.00172054
-0.00144379
0.0016852
-0.000995284
0.00165686
-0.000625557
0.00163169
-0.0003257
0.00160483
-7.85202e-05
0.00157391
0.000133225
0.00153892
0.000322517
0.00150084
0.00050056
0.00146232
0.000676694
0.0014288
0.000858117
0.00141013
0.00105014
0.00142855
0.00125995
0.00151171
0.0014846
0.00171217
0.00174334
0.00200208
0.00177507
0.00217731
0.00126308
0.00175593
0.00138027
0.00679378
0.00297898
0.0101396
0.00202345
0.00699275
0.000869839
0.00433306
0.000371461
0.00323601
0.000214696
0.00233501
0.000271102
0.00156259
0.000424813
0.000923342
0.000638343
0.000309487
0.000897233
-0.000362919
0.00116174
-0.00110816
0.00144022
-0.00192636
0.0017077
-0.00279769
0.00193474
-0.00362216
0.00209684
-0.00427021
0.00218788
-0.00464787
0.00221029
-0.00472787
0.00217273
-0.0045385
0.00208883
-0.00413863
0.00197383
-0.0036001
0.00183348
-0.00299683
0.00168009
-0.00238765
0.0015307
-0.00181634
0.00140013
-0.00131322
0.0012968
-0.000891957
0.00122223
-0.000550989
0.00117185
-0.000275314
0.00113847
-4.51408e-05
0.00111669
0.000154998
0.0011028
0.000336415
0.00109421
0.000509142
0.00109039
0.000680518
0.00109297
0.000855543
0.00110578
0.00103733
0.00113754
0.00122819
0.00120016
0.00142197
0.00133415
0.00160935
0.00156163
0.0015476
0.00165381
0.00117092
0.000338244
0.00269583
0.00751408
0.00403263
0.00624726
0.00366894
0.00735645
0.00254308
0.00545892
0.0018896
0.0038895
0.00153304
0.00269157
0.00138821
0.00170742
0.00142191
0.000889645
0.00159603
0.00013537
0.00184769
-0.000614579
0.0021245
-0.00138498
0.00240423
-0.00220609
0.00264971
-0.00304316
0.00281921
-0.00379165
0.00288552
-0.00433652
0.00284518
-0.00460752
0.00271183
-0.00459452
0.00250764
-0.00433432
0.00225688
-0.00388788
0.00198231
-0.00332553
0.00170108
-0.00271561
0.0014305
-0.00211707
0.00118848
-0.00157433
0.000990035
-0.00111477
0.000841841
-0.000743763
0.000743357
-0.000452506
0.000686164
-0.000218121
0.000659532
-1.85088e-05
0.000654526
0.000160005
0.000663942
0.000326999
0.000682702
0.000490382
0.000707989
0.00065523
0.000738059
0.000825473
0.000770312
0.00100508
0.000798742
0.00119976
0.000801324
0.00141938
0.000704859
0.00170582
0.000133945
0.00211853
-0.00183847
0.00314371
-0.00333137
0.00418885
0.00428553
0.00240961
0.00400217
0.00330478
0.00646129
0.00324872
0.00551498
0.00303797
0.00410025
0.00284707
0.00288248
0.00272387
0.00183062
0.0027099
0.000903623
0.00279861
4.66598e-05
0.00296014
-0.000776117
0.00317046
-0.00159529
0.00338799
-0.00242362
0.0035528
-0.00320797
0.00361003
-0.00384887
0.00353282
-0.00425931
0.00332647
-0.00440117
0.00301703
-0.00428507
0.00263882
-0.00395611
0.00222519
-0.00347425
0.00180568
-0.00290603
0.00140374
-0.00231367
0.00104093
-0.00175426
0.000736647
-0.00127005
0.000505282
-0.000883407
0.000346244
-0.000584724
0.000251858
-0.00035812
0.000206362
-0.000172625
0.000195915
-8.0618e-06
0.000209789
0.00014613
0.00023992
0.000296868
0.000281243
0.00044906
0.000330594
0.000605879
0.000384971
0.000771096
0.000439471
0.00095058
0.000484607
0.00115463
0.000492759
0.00141123
0.000399053
0.00179951
4.9587e-05
0.00246798
-0.000649584
0.0038433
-0.00103366
0.00457327
0.00336529
0.00145583
0.0027406
0.00274697
0.00517015
0.00343142
0.00483052
0.00371811
0.00381357
0.00381717
0.00278342
0.00384563
0.00180216
0.00388177
0.000867484
0.00395059
-2.2164e-05
0.00406003
-0.000885549
0.0041996
-0.00173486
0.00431824
-0.00254225
0.00434534
-0.00323506
0.00422917
-0.0037327
0.00395742
-0.00398755
0.00355251
-0.00399625
0.00305426
-0.00378682
0.00250653
-0.00340839
0.00194797
-0.00291569
0.00141251
-0.00237058
0.000926237
-0.0018274
0.000515911
-0.00134393
0.000199453
-0.000953588
-1.62938e-05
-0.000667661
-0.000146048
-0.000454971
-0.000213211
-0.000290957
-0.000238328
-0.000147508
-0.000233505
-1.28854e-05
-0.000206591
0.000119216
-0.000162983
0.000253261
-0.000106305
0.000392382
-3.91997e-05
0.000538775
3.59317e-05
0.000695964
0.000116086
0.000870426
0.000197763
0.00107295
0.000267151
0.00134184
0.000267459
0.00179915
0.00021987
0.00251538
0.000504409
0.00355876
0.000661879
0.00441591
0.00414661
0.0021665
0.000800063
0.00293864
0.00439802
0.00359123
0.00417793
0.00416322
0.00324158
0.00449231
0.00245433
0.00466747
0.001627
0.00478451
0.000750451
0.00488862
-0.000126279
0.00499382
-0.000990745
0.0050708
-0.00181184
0.00505441
-0.00252585
0.00488449
-0.00306514
0.00453843
-0.00338663
0.00403514
-0.00348424
0.00341971
-0.00338082
0.00274315
-0.00311025
0.00205401
-0.00271925
0.00139008
-0.00225176
0.00078983
-0.00177033
0.000277914
-0.00131548
-0.000109066
-0.000956954
-0.00036613
-0.000696525
-0.000518996
-0.000514796
-0.000602557
-0.000371411
-0.000643742
-0.000249775
-0.000654146
-0.000137105
-0.000640103
-2.6929e-05
-0.000605756
8.48679e-05
-0.000554178
0.000201683
-0.000488383
0.000326588
-0.000411612
0.000462004
-0.000327055
0.000611409
-0.00023723
0.000780602
-0.000146054
0.000981774
-7.71381e-05
0.0012729
-8.16886e-05
0.00180354
-3.11014e-05
0.00246434
0.000612415
0.0029148
0.001065
0.00396296
0.0053395
-0.00157718
0.00262235
0.00111692
0.00170392
0.00334919
0.00194566
0.00435333
0.00223744
0.00485904
0.00194862
0.00517477
0.00131127
0.00540274
0.000522477
0.00557916
-0.000302701
0.00567649
-0.00108808
0.00563339
-0.00176874
0.00539915
-0.00229161
0.00496197
-0.00262794
0.00434976
-0.00277439
0.0036158
-0.00275027
0.00282076
-0.00258577
0.00201515
-0.00230463
0.00124721
-0.00195131
0.000547418
-0.00155197
-3.85358e-05
-0.00118438
-0.000470018
-0.000883995
-0.000744645
-0.000682325
-0.000907683
-0.000533488
-0.00100479
-0.00041769
-0.00105875
-0.000317462
-0.00108298
-0.000225544
-0.00108303
-0.000137066
-0.00106169
-4.82652e-05
-0.00102111
4.42861e-05
-0.000963469
0.000144042
-0.000892108
0.000255228
-0.000812327
0.000382224
-0.000731903
0.000530987
-0.0006635
0.000712206
-0.000631706
0.000950005
-0.00067537
0.00131659
-0.000803058
0.00193114
-0.000955213
0.00261608
-0.00097157
0.00293045
-0.000794881
0.00378553
0.00468889
0.00288406
0.0045728
0.00487221
0.00164624
0.00536012
0.00174953
0.00559842
0.00171031
0.00583027
0.00107941
0.00601608
0.000336661
0.00607988
-0.000366518
0.0059513
-0.000959518
0.0055972
-0.00141464
0.00503012
-0.00172452
0.0042972
-0.001895
0.00345722
-0.00193439
0.00257002
-0.00186305
0.00169158
-0.00170731
0.00085595
-0.00146899
0.000105096
-0.00120044
-0.000504671
-0.000942192
-0.000935594
-0.000753443
-0.00120602
-0.00061356
-0.00137522
-0.000513131
-0.00147959
-0.000429121
-0.00154471
-0.000352589
-0.00158182
-0.000280372
-0.00159568
-0.000211699
-0.00158783
-0.000144913
-0.00155908
-7.70162e-05
-0.00151148
-3.31441e-06
-0.0014472
7.97649e-05
-0.00136896
0.000176993
-0.00128357
0.000296837
-0.00120258
0.000449988
-0.00114509
0.000654726
-0.0011427
0.000947686
-0.0012287
0.00140279
-0.00141732
0.00212006
-0.0019015
0.00310047
-0.00300389
0.00403287
-0.00325068
0.00403218
0.00159954
0.00793762
0.00535751
0.00582013
0.00386702
0.00557183
0.00195857
0.00564147
0.00100968
0.00560357
0.000374477
0.00535808
-0.000121086
0.00489277
-0.000494226
0.00424759
-0.000769457
0.0034764
-0.000953325
0.00263319
-0.00105176
0.00176079
-0.00106197
0.000898875
-0.00100111
8.43545e-05
-0.000892773
-0.000623735
-0.00076089
-0.00117098
-0.000653176
-0.00155063
-0.000562514
-0.00180412
-0.000499938
-0.00196799
-0.000449695
-0.00207968
-0.000401454
-0.00215862
-0.000350217
-0.00221366
-0.000297593
-0.00224787
-0.000246208
-0.00226208
-0.000197516
-0.002256
-0.000150994
-0.00222884
-0.00010417
-0.00217937
-5.27583e-05
-0.00210835
8.77096e-06
-0.00201677
8.54241e-05
-0.00190626
0.000186318
-0.00178404
0.000327737
-0.00166232
0.000532959
-0.00155455
0.000839935
-0.0014609
0.0013093
-0.00135174
0.0020113
-0.00122004
0.00296931
-0.00128006
0.00409337
-0.00118875
0.00394135
0.000585409
0.0041177
0.00148637
0.00451727
0.00346743
0.00374191
0.00273387
0.00323595
0.00151555
0.00288899
0.000721371
0.00252181
0.000246059
0.00207312
-4.55452e-05
0.0015294
-0.000225734
0.000910649
-0.00033456
0.000236499
-0.000377592
-0.00045111
-0.000374348
-0.00109077
-0.00036143
-0.0016313
-0.000352205
-0.00204356
-0.000348596
-0.00234025
-0.000356438
-0.00254212
-0.000360621
-0.00268707
-0.000354982
-0.00280092
-0.000335868
-0.00289633
-0.000306099
-0.00297607
-0.000270562
-0.00303965
-0.000234101
-0.0030861
-0.00019983
-0.00311462
-0.000169027
-0.00312396
-0.000141653
-0.00311127
-0.000116813
-0.00307124
-9.27113e-05
-0.00299679
-6.55911e-05
-0.0028834
-2.79233e-05
-0.00272856
3.14762e-05
-0.00253151
0.000130606
-0.0022951
0.000296431
-0.00201806
0.00056275
-0.00167093
0.000962105
-0.0011815
0.00152201
-0.00047069
0.00225888
0.000442473
0.00318059
0.00114039
0.00324388
0.00190215
-0.00259622
-0.00675345
-0.0074021
-0.00745498
-0.00374717
-0.00216852
-0.00166884
0.00138905
-0.000755444
0.0018204
-0.000556814
0.00131685
-0.000636863
0.000801375
-0.000824446
0.000433611
-0.00106775
0.000197733
-0.00135856
6.50687e-05
-0.0017001
6.97401e-06
-0.00206871
-8.96985e-06
-0.00243096
-1.20761e-05
-0.00276063
-3.17098e-05
-0.003024
-8.87709e-05
-0.00320651
-0.000166025
-0.00333223
-0.000230665
-0.00343249
-0.000260348
-0.0035297
-0.000257806
-0.00363042
-0.000235227
-0.00373245
-0.000204195
-0.0038303
-0.000172844
-0.00391833
-0.000146204
-0.00399175
-0.00012649
-0.00404712
-0.000113694
-0.00408187
-0.000106861
-0.00409295
-0.000105627
-0.00407475
-0.000110761
-0.00401714
-0.000123021
-0.0039051
-0.000139806
-0.00372372
-0.00014979
-0.00346282
-0.000130287
-0.00312069
-4.58203e-05
-0.00269874
0.000140565
-0.00217057
0.000433633
-0.00144113
0.000792319
-0.000401414
0.00121908
0.000867185
0.0019121
0.00134954
0.00276174
0.0034333
-0.00734219
0.00104215
-0.00811213
-0.00668506
-0.00716825
-0.00311242
-0.00564992
-0.000129311
-0.00455707
0.00072748
-0.0039645
0.000724206
-0.003704
0.000540814
-0.00363606
0.000365621
-0.00367735
0.000238993
-0.00377198
0.000159686
-0.00387748
0.00011249
-0.00396477
7.83578e-05
-0.00402046
4.36803e-05
-0.00405339
1.29619e-06
-0.00408552
-5.65516e-05
-0.00413299
-0.000118486
-0.00420226
-0.000161372
-0.00428862
-0.000174021
-0.00438303
-0.000163492
-0.00447683
-0.000141569
-0.00456389
-0.000117301
-0.00464061
-9.6291e-05
-0.00470515
-8.17997e-05
-0.00475658
-7.5143e-05
-0.00479428
-7.59991e-05
-0.00481757
-8.34938e-05
-0.00482512
-9.79272e-05
-0.00481391
-0.000121738
-0.00477858
-0.000158058
-0.00471123
-0.000206847
-0.00460101
-0.000259713
-0.00443316
-0.000297904
-0.00418476
-0.000294143
-0.00382465
-0.000219686
-0.00333554
-5.58496e-05
-0.00268525
0.000141544
-0.00166262
0.00019599
0.000103682
0.000145499
0.00114946
0.0017159
0.0047692
0.00158373
-0.00503687
-0.0080864
-0.00815653
-0.00737489
-0.00660421
-0.00602348
-0.00562259
-0.00535128
-0.0051609
-0.00501836
-0.00490986
-0.00483544
-0.0048027
-0.00482744
-0.00491408
-0.0050438
-0.0051864
-0.00531864
-0.00542904
-0.00551518
-0.00558029
-0.00563091
-0.00567496
-0.00572007
-0.00577307
-0.00584112
-0.00593383
-0.00606395
-0.00624419
-0.00647884
-0.0067533
-0.00702557
-0.00722477
-0.00726124
-0.00710122
-0.00688745
-0.00672481
-0.00499236
)
;

boundaryField
{
    floor
    {
        type            calculated;
        value           nonuniform List<scalar> 
36
(
0
0
0
0
0
0
0
0
0
0
0
0
0
0
0
0
0
0
0
-6.43924e-06
-1.68843e-05
-2.60301e-05
-3.4303e-05
-3.49031e-05
-2.84829e-05
-2.85156e-05
-2.92051e-06
-5.44248e-06
-5.68885e-06
-5.90897e-06
-4.85439e-06
-8.94024e-06
-1.02098e-05
-1.28336e-05
-1.44557e-05
-1.5445e-05
)
;
    }
    ceiling
    {
        type            calculated;
        value           nonuniform List<scalar> 
43
(
-5.77876e-05
-6.44831e-05
-6.29685e-05
-5.92653e-05
-5.42597e-05
-4.65745e-05
-4.00067e-05
-3.53399e-05
-3.23599e-05
-3.06886e-05
-3.00043e-05
-3.00748e-05
-3.06462e-05
-3.13415e-05
-3.1743e-05
-3.18044e-05
-3.16665e-05
-3.14887e-05
-3.13625e-05
-3.13087e-05
-3.13054e-05
-3.13094e-05
-3.12694e-05
-3.11329e-05
-3.08506e-05
-3.03817e-05
-2.96974e-05
-2.87817e-05
-2.76341e-05
-2.62775e-05
-2.4775e-05
-2.32393e-05
-2.18114e-05
-2.06018e-05
-1.96389e-05
-1.88621e-05
-1.81584e-05
-1.74384e-05
-1.6715e-05
-1.68178e-05
1.93383e-05
1.51849e-05
-0.00024657
)
;
    }
    sWall
    {
        type            calculated;
        value           nonuniform List<scalar> 9(-0.000140239 -0.000164528 -0.00019426 -0.000225965 -0.000245109 -0.000281049 -0.000423466 -0.000453408 -0.000483785);
    }
    nWall
    {
        type            calculated;
        value           nonuniform List<scalar> 
14
(
-8.98681e-05
-9.72338e-05
-0.000102319
-0.000102891
-0.000113433
-0.000119503
-0.000128346
-0.000144698
-0.000161503
-0.000174015
-0.000176015
-0.000181469
-0.000186446
-0.000206389
)
;
    }
    sideWalls
    {
        type            empty;
        value           nonuniform 0();
    }
    glass1
    {
        type            calculated;
        value           nonuniform List<scalar> 9(-6.40343e-05 -0.000170321 -0.000257924 -0.000331208 -0.000393192 -0.000446397 -0.000492207 -0.000535487 -0.00058717);
    }
    glass2
    {
        type            calculated;
        value           nonuniform List<scalar> 2(-0.000364318 -0.000382179);
    }
    sun
    {
        type            calculated;
        value           uniform 0;
    }
    Table_master
    {
        type            calculated;
        value           nonuniform List<scalar> 9(-1.53992e-07 -1.54109e-07 -1.54141e-07 -1.54161e-07 -1.54174e-07 -1.54179e-07 -1.54177e-07 -1.54163e-07 -1.5411e-07);
    }
    Table_slave
    {
        type            calculated;
        value           nonuniform List<scalar> 9(1.53662e-07 1.53718e-07 1.53717e-07 1.53734e-07 1.53754e-07 1.53798e-07 1.53865e-07 1.53958e-07 1.54086e-07);
    }
    inlet
    {
        type            calculated;
        value           uniform -0.0116489;
    }
    outlet
    {
        type            calculated;
        value           nonuniform List<scalar> 2(0.00977317 0.0122609);
    }
}


// ************************************************************************* //
