/*--------------------------------*- C++ -*----------------------------------*\
  =========                 |
  \\      /  F ield         | OpenFOAM: The Open Source CFD Toolbox
   \\    /   O peration     | Website:  https://openfoam.org
    \\  /    A nd           | Version:  6
     \\/     M anipulation  |
\*---------------------------------------------------------------------------*/
FoamFile
{
    version     2.0;
    format      ascii;
    class       volScalarField;
    location    "40399.9999992434387";
    object      k;
}
// * * * * * * * * * * * * * * * * * * * * * * * * * * * * * * * * * * * * * //

dimensions      [0 2 -2 0 0 0 0];

internalField   nonuniform List<scalar> 
778
(
0.00158588
0.00180106
0.00178794
0.00194651
0.00209778
0.00224011
0.00237683
0.00251249
0.00265288
0.00280627
0.00295656
0.0031029
0.00325047
0.00341293
0.00358662
0.000793082
0.0016249
0.00165145
0.0015726
0.00144494
0.00128277
0.00113068
0.000998995
0.000887243
0.000792692
0.000712953
0.000644945
0.000585966
0.00053347
0.000484743
0.000436286
0.000397985
0.000326104
0.0034069
0.00643318
0.0026875
0.00274613
0.00288783
0.00305443
0.00323483
0.00343064
0.00364394
0.00387436
0.00412653
0.00438034
0.0045961
0.00470124
0.00459535
0.004299
0.00390788
0.00358045
0.00253535
0.00281147
0.00295368
0.00289617
0.00266354
0.00226481
0.0019057
0.00160952
0.00136981
0.00117597
0.00101713
0.000885304
0.000774033
0.000681215
0.000615193
0.000574663
0.000864175
0.00052399
0.00549062
0.0127804
0.0034779
0.0032122
0.00329754
0.00345541
0.00363682
0.00384105
0.00407145
0.00432819
0.00463634
0.00501173
0.0054518
0.00596107
0.00653165
0.00685987
0.00627765
0.0053859
0.0040371
0.0041684
0.00417135
0.00397383
0.0035761
0.00266406
0.00201445
0.00157535
0.00126938
0.00104943
0.000887112
0.000764775
0.000671942
0.000603725
0.000551519
0.000548701
0.00116518
0.000677924
0.00797325
0.0217568
0.00449091
0.00339082
0.00334162
0.00343821
0.00354962
0.00366915
0.00380946
0.00399188
0.00425982
0.00464927
0.00517202
0.00582585
0.006555
0.00713435
0.00722781
0.00724207
0.00534343
0.00555076
0.00537598
0.00512497
0.00478628
0.00434746
0.00345507
0.0028582
0.00243519
0.00210936
0.00185013
0.00163178
0.00143844
0.00125845
0.00107754
0.000800471
0.000659637
0.00142093
0.000821462
0.0108759
0.0336316
0.00621205
0.00342502
0.00315836
0.00316708
0.00318974
0.00321009
0.00325243
0.0033615
0.00359525
0.00398984
0.00455416
0.00527738
0.00608743
0.00681772
0.00728361
0.00764467
0.00751857
0.00665477
0.00607351
0.00557895
0.00509885
0.00462906
0.00412264
0.00366511
0.00327457
0.00293699
0.0026309
0.00234755
0.00207904
0.00181825
0.0015546
0.00122151
0.000929978
0.00118967
0.0012156
0.00116768
0.00203781
0.0018595
0.014174
0.0475942
0.00928209
0.0034899
0.00290855
0.00282279
0.00276451
0.00269972
0.00266444
0.0027348
0.00298111
0.00341462
0.00402388
0.00479787
0.00565363
0.00646067
0.00706867
0.00740753
0.00732431
0.00679037
0.00621531
0.00563722
0.00507426
0.00455588
0.00409114
0.00369548
0.00336294
0.00307353
0.0028067
0.00255149
0.00229892
0.002042
0.00177345
0.00147099
0.00117817
0.00111221
0.00111048
0.00171803
0.00511824
0.00265777
0.0179906
0.0606012
0.0143562
0.00381906
0.00271511
0.00252937
0.00241185
0.00229417
0.00222125
0.00231172
0.00263044
0.00313936
0.00380182
0.00463033
0.00552738
0.00636543
0.00699985
0.00732765
0.00725454
0.00681831
0.00621552
0.00555481
0.00491183
0.00434271
0.00387243
0.00350039
0.00320673
0.00296183
0.00274154
0.00252936
0.00231367
0.00208711
0.00184488
0.00158268
0.00132765
0.0011598
0.00109142
0.00156299
0.00630127
0.00369823
0.0216392
0.0704778
0.0214306
0.00510056
0.0027424
0.00237166
0.00221011
0.00208204
0.00202652
0.00221974
0.00265002
0.00323088
0.00393649
0.00477289
0.00569657
0.00657086
0.0072215
0.00751272
0.00738388
0.00689614
0.00619806
0.00542665
0.00469119
0.00406421
0.00357427
0.00321237
0.00294763
0.00274106
0.00256453
0.00239634
0.00222255
0.00203555
0.00183197
0.00161308
0.00139832
0.00122995
0.00115237
0.0021183
0.0144043
0.00636892
0.0228321
0.0694972
0.0325272
0.0110493
0.00406414
0.00258658
0.00223531
0.0021031
0.00219029
0.00251308
0.00300112
0.0036021
0.00433125
0.00520966
0.00618074
0.00708292
0.00771344
0.00792076
0.00766342
0.0070248
0.00616444
0.00524752
0.00440658
0.00372169
0.00321613
0.00286852
0.00263535
0.00246897
0.00233648
0.00221181
0.0020799
0.00193352
0.00177043
0.00159369
0.0014184
0.00128522
0.00132046
0.00396979
0.0287406
0.00810468
0.0219181
0.0516424
0.0336409
0.0174261
0.00858098
0.00475559
0.00325988
0.00273002
0.00285373
0.00321205
0.0036734
0.00424617
0.00499278
0.00593302
0.00696698
0.00788041
0.00843628
0.00848056
0.0080016
0.00712208
0.00603923
0.00495177
0.00400954
0.00328932
0.00279694
0.00248795
0.0023017
0.00218389
0.00209619
0.00201166
0.0019167
0.00180568
0.00167782
0.00153736
0.00139805
0.00130967
0.00162951
0.00773858
0.0266943
0.00854023
0.0192343
0.0394436
0.0302382
0.019562
0.0121774
0.007935
0.00571501
0.00466855
0.00436246
0.00440045
0.00465268
0.00514329
0.00592922
0.00697115
0.00807692
0.00895417
0.00933679
0.00909328
0.00827102
0.00705762
0.00570744
0.00445569
0.00345868
0.00276675
0.00234707
0.00211397
0.00198942
0.00192255
0.0018731
0.0018196
0.00175198
0.0016666
0.00156442
0.00145248
0.00135058
0.00136443
0.00225048
0.00871914
0.0244222
0.00855201
0.015951
0.0315903
0.0266518
0.0195373
0.0139736
0.0102817
0.00802522
0.00674942
0.00604819
0.00573055
0.00578122
0.0062688
0.00719779
0.00840087
0.00954938
0.0102709
0.0103058
0.00959298
0.00828466
0.00666053
0.00504867
0.00371462
0.00278968
0.00223224
0.00195311
0.00181331
0.00174455
0.00171116
0.00168414
0.00164885
0.00159784
0.0015283
0.00144252
0.00135343
0.00130651
0.00164356
0.00370442
0.00963654
0.0208214
0.00815089
0.0132667
0.0256705
0.0233499
0.0186886
0.0145822
0.0115865
0.00954181
0.00820839
0.00729929
0.00683923
0.00695418
0.00770808
0.00895732
0.0103381
0.0113828
0.0116944
0.0111073
0.00969899
0.00778663
0.00575525
0.00402192
0.00283156
0.00219279
0.00186131
0.00169701
0.00161518
0.00157462
0.00155358
0.00153333
0.001504
0.00145994
0.00139923
0.00132691
0.00126853
0.00134564
0.00216758
0.0049538
0.0101805
0.0167568
0.00755864
0.0133456
0.0224154
0.0220548
0.0177582
0.014391
0.0118926
0.0100827
0.00876838
0.00791818
0.00777267
0.00846379
0.00984553
0.0114902
0.0128347
0.0133791
0.0128414
0.0112908
0.00899412
0.0065201
0.00430786
0.00296196
0.00222585
0.00185704
0.00166915
0.00156805
0.00150964
0.001474
0.00144986
0.00142512
0.00139309
0.0013502
0.00129664
0.00124142
0.0012226
0.00139392
0.00232685
0.0050576
0.00991511
0.0165802
0.00732671
0.0108731
0.0117627
0.0129233
0.0125533
0.0113758
0.0100766
0.00894917
0.00820614
0.00830481
0.00941072
0.0112701
0.0133191
0.0149009
0.0154904
0.0148276
0.0128987
0.0101827
0.00703654
0.00465076
0.00314657
0.0023596
0.00197242
0.00177251
0.00165237
0.0015682
0.00150386
0.00145369
0.00141465
0.00137841
0.00134117
0.00130376
0.00127245
0.00126239
0.00131248
0.0015431
0.00233303
0.0045658
0.00924633
0.0158325
0.00842027
0.003546
0.00482862
0.00600456
0.0066128
0.00729289
0.00880625
0.0113144
0.0141233
0.0165129
0.0179301
0.0180274
0.0167323
0.0142463
0.0106519
0.00736361
0.00486447
0.00335973
0.0025929
0.00223255
0.0020461
0.0019247
0.00182601
0.00173608
0.00165299
0.00158087
0.0015267
0.00149019
0.00147507
0.00149196
0.0015529
0.00166779
0.00185651
0.00219452
0.00291243
0.00465115
0.0100208
0.0143695
0.00881316
0.00444551
0.00630078
0.00812465
0.0110445
0.014722
0.0181703
0.0203864
0.0214233
0.0213279
0.0201018
0.0175772
0.0141283
0.0104967
0.0072301
0.004924
0.00359433
0.00295267
0.00265752
0.00250284
0.00240027
0.00231772
0.00224262
0.00217036
0.00210247
0.00204689
0.00201737
0.00202531
0.00208674
0.00221822
0.00243026
0.00272731
0.00312308
0.00367743
0.00456639
0.00629042
0.0114747
0.0147237
0.00914044
0.0150741
0.0244171
0.018087
0.0144103
0.0170467
0.0207516
0.0228817
0.0235713
0.0230942
0.0217188
0.0196912
0.0170501
0.0138978
0.0106159
0.00771037
0.00557311
0.00433216
0.00372783
0.00343655
0.00327591
0.00317806
0.00311948
0.0030869
0.00306719
0.00304846
0.0030261
0.00300911
0.00301714
0.00307327
0.00319934
0.00341224
0.00372507
0.00414876
0.00470318
0.00544356
0.00651198
0.0082608
0.0116706
0.0156664
0.00836385
0.0138096
0.0170468
0.0178928
0.0207992
0.0217441
0.0221668
0.0211699
0.0193536
0.0172286
0.0150465
0.0129112
0.0108762
0.0090027
0.00740048
0.00617604
0.00532106
0.004738
0.00435401
0.00410295
0.00395509
0.00389933
0.00392642
0.00402103
0.00416017
0.00431561
0.00445997
0.00457505
0.00466786
0.00478099
0.00494473
0.00518228
0.00551479
0.00596803
0.00658576
0.00745015
0.00867689
0.0104138
0.0134784
0.0181371
0.00803605
0.0121398
0.00890899
0.00882177
0.00934203
0.00978412
0.00920898
0.00814088
0.00698103
0.00591559
0.00499468
0.00421241
0.00355706
0.0030309
0.00264475
0.00240006
0.00228191
0.00224603
0.00225521
0.00229946
0.00237306
0.00246958
0.00258108
0.00269954
0.0028186
0.00293479
0.00304818
0.00316261
0.00328288
0.00341523
0.00356817
0.00374777
0.00395798
0.00420225
0.00448742
0.00483318
0.00529456
0.00596323
0.00690119
0.00806735
0.0073687
)
;

boundaryField
{
    floor
    {
        type            kqRWallFunction;
        value           nonuniform List<scalar> 
36
(
0.00358662
0.000793082
0.0016249
0.00165145
0.0015726
0.00144494
0.00128277
0.00113068
0.000998995
0.000887243
0.000792692
0.000712953
0.000644945
0.000585966
0.00053347
0.000484743
0.000436286
0.000397985
0.000326104
0.000326104
0.00052399
0.000677924
0.000821462
0.00116768
0.00203781
0.0018595
0.00358662
0.004299
0.00390788
0.00358045
0.000793082
0.00358045
0.00253535
0.0053859
0.0040371
0.00534343
)
;
    }
    ceiling
    {
        type            kqRWallFunction;
        value           nonuniform List<scalar> 
43
(
0.0121398
0.00890899
0.00882177
0.00934203
0.00978412
0.00920898
0.00814088
0.00698103
0.00591559
0.00499468
0.00421241
0.00355706
0.0030309
0.00264475
0.00240006
0.00228191
0.00224603
0.00225521
0.00229946
0.00237306
0.00246958
0.00258108
0.00269954
0.0028186
0.00293479
0.00304818
0.00316261
0.00328288
0.00341523
0.00356817
0.00374777
0.00395798
0.00420225
0.00448742
0.00483318
0.00529456
0.00596323
0.00690119
0.00806735
0.0073687
0.0108731
0.0117627
0.00444551
)
;
    }
    sWall
    {
        type            kqRWallFunction;
        value           nonuniform List<scalar> 9(0.0219181 0.0192343 0.015951 0.0132667 0.0133456 0.0108731 0.0150741 0.0138096 0.0121398);
    }
    nWall
    {
        type            kqRWallFunction;
        value           nonuniform List<scalar> 
14
(
0.0018595
0.00265777
0.00369823
0.00854023
0.00855201
0.00815089
0.00755864
0.00732671
0.00842027
0.00881316
0.00914044
0.00836385
0.00803605
0.0073687
)
;
    }
    sideWalls
    {
        type            empty;
    }
    glass1
    {
        type            kqRWallFunction;
        value           nonuniform List<scalar> 9(0.00158588 0.0034069 0.00549062 0.00797325 0.0108759 0.014174 0.0179906 0.0216392 0.0228321);
    }
    glass2
    {
        type            kqRWallFunction;
        value           nonuniform List<scalar> 2(0.00636892 0.00810468);
    }
    sun
    {
        type            kqRWallFunction;
        value           nonuniform List<scalar> 
14
(
0.00158588
0.00180106
0.00178794
0.00194651
0.00209778
0.00224011
0.00237683
0.00251249
0.00265288
0.00280627
0.00295656
0.0031029
0.00325047
0.00341293
)
;
    }
    Table_master
    {
        type            kqRWallFunction;
        value           nonuniform List<scalar> 9(0.00266406 0.00201445 0.00157535 0.00126938 0.00104943 0.000887112 0.000764775 0.000671942 0.000603725);
    }
    Table_slave
    {
        type            kqRWallFunction;
        value           nonuniform List<scalar> 9(0.00345507 0.0028582 0.00243519 0.00210936 0.00185013 0.00163178 0.00143844 0.00125845 0.00107754);
    }
    inlet
    {
        type            turbulentIntensityKineticEnergyInlet;
        intensity       0.05;
        value           uniform 0.0009375;
    }
    outlet
    {
        type            zeroGradient;
    }
}


// ************************************************************************* //
