/*--------------------------------*- C++ -*----------------------------------*\
  =========                 |
  \\      /  F ield         | OpenFOAM: The Open Source CFD Toolbox
   \\    /   O peration     | Website:  https://openfoam.org
    \\  /    A nd           | Version:  6
     \\/     M anipulation  |
\*---------------------------------------------------------------------------*/
FoamFile
{
    version     2.0;
    format      ascii;
    class       volScalarField;
    location    "40399.9999992434387";
    object      nut;
}
// * * * * * * * * * * * * * * * * * * * * * * * * * * * * * * * * * * * * * //

dimensions      [0 2 -1 0 0 0 0];

internalField   nonuniform List<scalar> 
778
(
0.000894294
0.000953034
0.000949557
0.000990771
0.00102855
0.00106287
0.00109482
0.00112563
0.00115666
0.00118962
0.00122106
0.00125092
0.00128032
0.00131192
0.00134489
0.000632417
0.000905224
0.000912589
0.000890537
0.000853624
0.000804295
0.000755113
0.000709781
0.000668905
0.000632259
0.000599617
0.000570301
0.0005436
0.000518678
0.000494423
0.00046906
0.000447999
0.000405529
0.00131076
0.00258099
0.00226496
0.00261422
0.00286762
0.00313631
0.00340437
0.00365148
0.00385046
0.00396636
0.00403448
0.00400641
0.00380645
0.00331127
0.00241823
0.0014724
0.00140383
0.00134373
0.00113074
0.00192629
0.00266994
0.00310923
0.00312982
0.00247029
0.00211262
0.00186485
0.00167686
0.00152728
0.00139961
0.00128675
0.00118176
0.00107906
0.000986887
0.000907413
0.00102204
0.000514049
0.00166401
0.00360414
0.00267225
0.00382219
0.00427078
0.00465045
0.00499537
0.00529903
0.00555639
0.00575824
0.00595368
0.00615914
0.00634761
0.00645917
0.00638339
0.00584343
0.00427302
0.00164806
0.00142686
0.0030528
0.00425967
0.00483025
0.00439214
0.00115908
0.00100791
0.000891312
0.000800085
0.000727475
0.000668854
0.000621025
0.000582115
0.000551775
0.000606695
0.000713655
0.00112994
0.000584701
0.00200522
0.00485797
0.00255728
0.00429823
0.00496246
0.00531799
0.00557953
0.00577314
0.0059178
0.00603517
0.00620174
0.00648281
0.00689251
0.00740718
0.00792395
0.00817727
0.00767615
0.00572309
0.00164155
0.00380514
0.00565831
0.00659829
0.00682934
0.0058292
0.00131999
0.00120058
0.00110818
0.00103138
0.000965925
0.000907136
0.000851701
0.000796635
0.000737155
0.000688818
0.000714056
0.00122329
0.00064363
0.00234194
0.00643246
0.00258011
0.00408662
0.00510798
0.00541127
0.00552162
0.00552626
0.00547185
0.00542376
0.00549376
0.00576694
0.00626765
0.00697611
0.00779749
0.00855389
0.00903384
0.00902813
0.00810315
0.00824624
0.00843503
0.00846069
0.00828787
0.00775671
0.00617223
0.00533145
0.00475572
0.00428745
0.00382873
0.00338458
0.00295006
0.002516
0.00206994
0.00159002
0.00121339
0.00121204
0.000958791
0.000767377
0.00101388
0.000968434
0.00267356
0.00819554
0.0030375
0.00344661
0.00489473
0.00523125
0.00520474
0.00501787
0.00475057
0.00453012
0.00452552
0.00481166
0.00538207
0.00620333
0.00716458
0.00812468
0.00894295
0.00946607
0.00956167
0.00946589
0.00929761
0.0090588
0.00875205
0.00836206
0.00779334
0.00724575
0.00674876
0.00626783
0.00574911
0.00519548
0.00460417
0.00397003
0.00328903
0.00256654
0.00191257
0.00143608
0.00111444
0.00125444
0.00218227
0.00115775
0.00301208
0.00982704
0.00404791
0.00282377
0.00439861
0.0049487
0.00488794
0.00458519
0.00414585
0.00375926
0.00374828
0.00410933
0.00476191
0.00567924
0.00672379
0.00775796
0.00864875
0.00928744
0.00958167
0.00955922
0.00934904
0.00903058
0.00866602
0.00830245
0.00795093
0.00762851
0.00732576
0.00700224
0.00661192
0.00614231
0.00558628
0.00494109
0.00420939
0.00341023
0.00262948
0.0019008
0.0013992
0.0012543
0.00221391
0.00136576
0.00330343
0.0110642
0.00552013
0.00268852
0.00348509
0.0043877
0.00451342
0.00426435
0.00374564
0.00321897
0.00333858
0.00381589
0.00454516
0.00549022
0.00657425
0.00765663
0.00858084
0.00922384
0.00951652
0.00947902
0.00920791
0.00880774
0.00837735
0.00799571
0.00770153
0.00749139
0.0073276
0.00714934
0.00690157
0.00655481
0.00609523
0.00552007
0.00483522
0.00406185
0.00325884
0.00244497
0.00171266
0.00113539
0.00323615
0.00179258
0.00339326
0.0104839
0.00683642
0.00347627
0.00236273
0.00289679
0.00338927
0.00343031
0.00302917
0.00294463
0.00325078
0.00381166
0.00459939
0.00560077
0.0067363
0.0078518
0.00877286
0.00936646
0.0095757
0.00943321
0.00904013
0.00852435
0.00801279
0.00760477
0.00734576
0.00721857
0.00716099
0.00709257
0.00695034
0.0067001
0.00632818
0.00583319
0.00522213
0.00451269
0.00373545
0.00286305
0.00169459
0.00138271
0.00500774
0.00202177
0.00332465
0.00845875
0.00706624
0.00477503
0.00315204
0.0024408
0.00231261
0.00242181
0.00262543
0.0029499
0.00340941
0.00403996
0.00489577
0.00597469
0.00717169
0.008303
0.00917619
0.00965795
0.00970894
0.00938621
0.00881764
0.00816355
0.00758024
0.00718082
0.0069977
0.00697617
0.00701588
0.00701522
0.0069234
0.0067209
0.00640111
0.00596387
0.00541382
0.00475619
0.00396203
0.00282846
0.00136466
0.00225004
0.00512793
0.00207557
0.00311446
0.00723195
0.00683541
0.00546781
0.004206
0.00338536
0.00298009
0.00288903
0.00305776
0.00336756
0.00381623
0.00448073
0.0054249
0.00660744
0.0078656
0.00897348
0.00972646
0.010007
0.00980999
0.00923394
0.00845209
0.00767023
0.00707713
0.00677937
0.0067445
0.00684198
0.00694089
0.00694266
0.00684602
0.00664971
0.00634956
0.00594199
0.00542327
0.00476531
0.0038011
0.002284
0.00142408
0.00281739
0.00524682
0.00207746
0.00283621
0.00652158
0.00659566
0.00579053
0.00492404
0.0042725
0.0038893
0.00375234
0.0037877
0.0039746
0.00438544
0.00512657
0.00621771
0.00752797
0.00881396
0.00981193
0.0103267
0.0102837
0.00973683
0.00884749
0.00785764
0.00703229
0.00656524
0.00646972
0.00655004
0.00668047
0.00676686
0.00674363
0.00663151
0.00643204
0.0061384
0.00574097
0.00521895
0.00446539
0.00309187
0.00158378
0.00180836
0.00321809
0.00495174
0.00202861
0.00258658
0.00583393
0.00629892
0.00591754
0.00536098
0.00489394
0.00458367
0.0044325
0.0043875
0.00454572
0.00506586
0.00603383
0.00735488
0.00877494
0.00997971
0.0107046
0.0108087
0.0102969
0.00931457
0.00811095
0.00702572
0.0063282
0.00601649
0.00597204
0.0060589
0.00618259
0.0062651
0.00624557
0.00613462
0.00593204
0.00563016
0.00521422
0.00463168
0.00365339
0.00212638
0.00150836
0.00221575
0.0034022
0.0043246
0.0019535
0.00259426
0.00579028
0.00643561
0.00598966
0.00553915
0.00517047
0.0049048
0.00473252
0.00472377
0.00510732
0.00602513
0.00739784
0.00894939
0.0103242
0.0112058
0.0114041
0.0108941
0.0097932
0.00838439
0.00702322
0.00603461
0.00544292
0.00515374
0.00507719
0.00513367
0.00524551
0.00533391
0.00532209
0.00520297
0.00497451
0.0046354
0.00418592
0.00360273
0.00277885
0.00182563
0.00161479
0.0023964
0.00352591
0.00448255
0.00192207
0.00234165
0.00243556
0.00359193
0.00421885
0.00441209
0.00441441
0.00437093
0.00445003
0.00498558
0.00612913
0.00773853
0.00947773
0.0109704
0.0119013
0.0120812
0.0114682
0.0102102
0.0085482
0.00696172
0.00571554
0.00486641
0.00436467
0.00412137
0.0040379
0.00404533
0.00409178
0.00411868
0.00405548
0.00387639
0.00358938
0.00322319
0.00282886
0.00245522
0.00211271
0.00181475
0.00181087
0.00249966
0.00376142
0.00480592
0.00205966
0.000807671
0.00146579
0.00226279
0.00290451
0.00364634
0.00490023
0.00674361
0.008789
0.0106529
0.0120511
0.0127898
0.0127406
0.0119011
0.010355
0.00850646
0.00674649
0.00533904
0.00438024
0.00383707
0.00355657
0.00340691
0.00331985
0.00326281
0.00321084
0.00313191
0.00299195
0.00278094
0.00253185
0.00229959
0.00213397
0.00205282
0.00204668
0.00211372
0.00232169
0.00291569
0.00441026
0.00498671
0.00210837
0.00149729
0.00207895
0.00303676
0.00474658
0.00706552
0.00938911
0.0111915
0.0124956
0.0132903
0.0135233
0.0130967
0.0119103
0.0101436
0.00813477
0.0062774
0.0048631
0.00400514
0.00356323
0.00333505
0.00320339
0.00312042
0.00306494
0.00302123
0.00297122
0.0028947
0.00278051
0.00264505
0.00252257
0.00244838
0.00244215
0.00250234
0.00262023
0.00280519
0.00311231
0.00369237
0.00513321
0.00539342
0.00214725
0.00275714
0.00666608
0.00612623
0.00548392
0.00698256
0.00932313
0.0113021
0.0126403
0.0133484
0.0135294
0.0132705
0.0125363
0.0112873
0.00957778
0.0076423
0.0058477
0.00457574
0.00387265
0.00351427
0.00331592
0.00319926
0.00313823
0.00312078
0.00313353
0.00315806
0.00317299
0.00316133
0.00312342
0.00308559
0.00306669
0.00307905
0.00312752
0.00320944
0.00332126
0.00347164
0.00369675
0.00408131
0.00481295
0.0051766
0.00205443
0.00263897
0.00510063
0.0065887
0.00841315
0.00934953
0.0103226
0.0108944
0.0110383
0.0108321
0.0103343
0.00957094
0.00855582
0.00734076
0.00606997
0.00496442
0.00416053
0.00362969
0.00329526
0.00307912
0.0029458
0.00288438
0.00288961
0.00295219
0.00305499
0.00317321
0.0032786
0.00334822
0.00338371
0.00341507
0.00345822
0.00352116
0.00360669
0.00371489
0.00384756
0.00401177
0.0042067
0.00444028
0.00493889
0.00554003
0.00201471
0.00247429
0.00211963
0.00210924
0.00217055
0.00222133
0.00215508
0.00202629
0.00187646
0.00172741
0.00158733
0.00145777
0.00133955
0.00123643
0.00115487
0.00110006
0.00107266
0.0010642
0.00106642
0.0010769
0.00109404
0.00111607
0.00114092
0.00116671
0.00119203
0.00121621
0.00123937
0.00126232
0.00128603
0.00131166
0.00134069
0.00137399
0.00141196
0.00145483
0.00150344
0.00156065
0.00163437
0.00173561
0.00186787
0.00201952
0.00192859
)
;

boundaryField
{
    floor
    {
        type            nutkWallFunction;
        Cmu             0.09;
        kappa           0.41;
        E               9.8;
        value           nonuniform List<scalar> 
36
(
0.000160579
7.6388e-05
0.000109505
0.000110381
0.000107755
0.000103344
9.74134e-05
9.14575e-05
8.59271e-05
8.09039e-05
7.63694e-05
7.23032e-05
6.86286e-05
6.52615e-05
6.21003e-05
5.90056e-05
5.57492e-05
5.30283e-05
4.74912e-05
4.74911e-05
6.15107e-05
7.0436e-05
7.77795e-05
9.29459e-05
0.000122332
0.00011699
0.000160579
0.00017501
0.000167267
0.000160446
7.6388e-05
0.000160446
0.000135986
0.000194667
0.00016987
0.000193942
)
;
    }
    ceiling
    {
        type            nutkWallFunction;
        Cmu             0.09;
        kappa           0.41;
        E               9.8;
        value           nonuniform List<scalar> 
43
(
0.000284382
0.00024632
0.000245197
0.00025183
0.000257312
0.00025018
0.00023623
0.00021987
0.00020345
0.000187874
0.000173335
0.00015995
0.000148173
0.000138786
0.000132435
0.00012924
0.000128252
0.000128506
0.000129721
0.000131714
0.000134275
0.000137166
0.000140163
0.000143101
0.000145903
0.000148578
0.000151222
0.000153945
0.000156878
0.000160189
0.000163979
0.000168289
0.00017314
0.00017861
0.000184989
0.000193119
0.000204232
0.000218714
0.000235272
0.000225526
0.000270419
0.000280454
0.000177602
)
;
    }
    sWall
    {
        type            nutkWallFunction;
        Cmu             0.09;
        kappa           0.41;
        E               9.8;
        value           nonuniform List<scalar> 9(0.000373889 0.000352084 0.000322985 0.000296629 0.00029744 0.000270509 0.000314355 0.000301913 0.000284484);
    }
    nWall
    {
        type            nutkWallFunction;
        Cmu             0.09;
        kappa           0.41;
        E               9.8;
        value           nonuniform List<scalar> 
14
(
0.000116998
0.000139127
0.00016296
0.000241635
0.000241791
0.000236436
0.000228255
0.000224955
0.000240048
0.000245203
0.000249402
0.000239298
0.000234879
0.000225561
)
;
    }
    sideWalls
    {
        type            empty;
    }
    glass1
    {
        type            nutkWallFunction;
        Cmu             0.09;
        kappa           0.41;
        E               9.8;
        value           nonuniform List<scalar> 9(0.000108246 0.00015688 0.000196734 0.000234345 0.000270787 0.000306135 0.000341748 0.000372068 0.00038137);
    }
    glass2
    {
        type            nutkWallFunction;
        Cmu             0.09;
        kappa           0.41;
        E               9.8;
        value           nonuniform List<scalar> 2(0.000210768 0.00023593);
    }
    sun
    {
        type            nutkWallFunction;
        Cmu             0.09;
        kappa           0.41;
        E               9.8;
        value           nonuniform List<scalar> 
14
(
0.000108205
0.000115177
0.000114766
0.000119631
0.00012407
0.000128087
0.000131813
0.000135395
0.000138989
0.000142797
0.000146418
0.000149846
0.000153214
0.000156823
)
;
    }
    Table_master
    {
        type            nutkWallFunction;
        Cmu             0.09;
        kappa           0.41;
        E               9.8;
        value           nonuniform List<scalar> 9(0.000139261 0.000121641 0.000107845 9.69048e-05 8.80923e-05 8.09014e-05 7.49785e-05 7.01193e-05 6.63032e-05);
    }
    Table_slave
    {
        type            nutkWallFunction;
        Cmu             0.09;
        kappa           0.41;
        E               9.8;
        value           nonuniform List<scalar> 9(0.000157732 0.00014405 0.000133359 0.000124395 0.000116696 0.000109729 0.000103111 9.64881e-05 8.92729e-05);
    }
    inlet
    {
        type            calculated;
        value           uniform 0.000167705;
    }
    outlet
    {
        type            calculated;
        value           nonuniform List<scalar> 2(0.00275714 0.00666608);
    }
}


// ************************************************************************* //
