/*--------------------------------*- C++ -*----------------------------------*\
  =========                 |
  \\      /  F ield         | OpenFOAM: The Open Source CFD Toolbox
   \\    /   O peration     | Website:  https://openfoam.org
    \\  /    A nd           | Version:  6
     \\/     M anipulation  |
\*---------------------------------------------------------------------------*/
FoamFile
{
    version     2.0;
    format      ascii;
    class       volScalarField;
    location    "41099.9999993860474";
    object      alphat;
}
// * * * * * * * * * * * * * * * * * * * * * * * * * * * * * * * * * * * * * //

dimensions      [1 -1 -1 0 0 0 0];

internalField   nonuniform List<scalar> 
778
(
0.00104099
0.00111057
0.0011066
0.00115465
0.00119869
0.00123868
0.00127591
0.00131179
0.00134791
0.00138629
0.00142288
0.00145764
0.00149188
0.00152872
0.00156717
0.00073673
0.00105541
0.00106386
0.00103804
0.000994915
0.000937365
0.000880062
0.000827284
0.000779688
0.000736992
0.000698934
0.000664746
0.000633602
0.000604535
0.000576251
0.000546678
0.000522132
0.000472604
0.00152466
0.00300737
0.00263933
0.0030464
0.00334187
0.00365513
0.0039676
0.00425552
0.00448723
0.00462205
0.0047013
0.00466862
0.00443581
0.00385912
0.00281861
0.00171595
0.00163608
0.00156614
0.00131899
0.00224647
0.00311332
0.00362493
0.00364853
0.00287965
0.00246277
0.00217372
0.00195441
0.00178009
0.00163146
0.00150001
0.00137765
0.00125793
0.00115047
0.00105781
0.00119178
0.000599235
0.00193414
0.0041989
0.00311349
0.00445324
0.00497599
0.0054184
0.00582017
0.0061737
0.00647309
0.00670769
0.00693508
0.00717441
0.00739447
0.00752576
0.00743964
0.00681285
0.00498368
0.0019213
0.0016638
0.00355942
0.00496739
0.00563309
0.00512292
0.00135167
0.00117523
0.00103912
0.000932654
0.000847964
0.000779631
0.000723906
0.000678579
0.000643233
0.000707182
0.000831945
0.00131803
0.000681793
0.00232909
0.00565855
0.00297921
0.00500687
0.00578055
0.0061945
0.00649881
0.00672385
0.00689171
0.00702766
0.00722121
0.00754838
0.00802602
0.00862709
0.00923206
0.00953153
0.00895327
0.0066851
0.00191358
0.00442782
0.00659122
0.00769154
0.00796322
0.00679849
0.00153923
0.00139998
0.00129218
0.0012025
0.0011261
0.00105751
0.000992867
0.000928672
0.00085933
0.000802816
0.000832345
0.00142771
0.000750718
0.00271835
0.00749068
0.00300569
0.00475945
0.0059488
0.00630155
0.00642943
0.00643411
0.00636994
0.0063131
0.00639398
0.00671168
0.00729496
0.00812151
0.00908094
0.00996585
0.0105279
0.0105227
0.00944407
0.00960934
0.00983118
0.0098634
0.00966338
0.00904498
0.00719821
0.00621761
0.00554589
0.00500038
0.00446513
0.00394656
0.00343923
0.0029327
0.00241258
0.00185306
0.0014138
0.00141338
0.00111802
0.000895641
0.00119144
0.00113803
0.0031013
0.00954091
0.0035385
0.0040134
0.00569944
0.00609065
0.00605891
0.00584037
0.00552822
0.00527087
0.005265
0.00559775
0.00626206
0.00722007
0.00834206
0.00946433
0.0104192
0.0110301
0.0111423
0.0110315
0.0108371
0.0105604
0.010204
0.00974994
0.0090872
0.00844861
0.00786881
0.00730846
0.00670319
0.00605684
0.00536662
0.00462683
0.00383289
0.00299053
0.0022274
0.00167228
0.00129874
0.00146344
0.00255614
0.00135899
0.00349208
0.0114361
0.00471531
0.00328789
0.00512101
0.00576093
0.00568924
0.00533572
0.00482334
0.00437296
0.00436007
0.00478025
0.00554053
0.00661148
0.00783027
0.0090378
0.0100775
0.0108226
0.0111659
0.0111407
0.0108971
0.0105272
0.0101033
0.00967996
0.00927038
0.00889445
0.00854121
0.00816414
0.00770841
0.00715993
0.00651085
0.00575827
0.00490516
0.0039728
0.00306032
0.00221016
0.00162748
0.00145878
0.00260647
0.00160592
0.00382784
0.0128688
0.00642816
0.00313064
0.00405664
0.00510741
0.00525325
0.00496251
0.00435746
0.00374474
0.00388364
0.00443954
0.00529018
0.00639391
0.00766038
0.00892435
0.0100025
0.0107515
0.0110921
0.0110485
0.0107333
0.010268
0.00976706
0.00932257
0.00897986
0.00873501
0.00854395
0.00833608
0.00804638
0.00764095
0.00710418
0.00643313
0.00563426
0.00473056
0.00378881
0.00283519
0.00197438
0.00133771
0.00378696
0.00211854
0.00392901
0.0121728
0.00795088
0.00404734
0.00274934
0.00336977
0.00394418
0.00399224
0.00352482
0.00342533
0.00378101
0.00443494
0.00535564
0.00652745
0.00785584
0.00915888
0.0102324
0.0109222
0.011164
0.0109972
0.0105396
0.00993936
0.00934365
0.00886817
0.00856637
0.0084184
0.00835143
0.00827167
0.00810493
0.00781185
0.00737703
0.00679908
0.00608533
0.0052539
0.00433857
0.00330638
0.00188557
0.00173453
0.00592304
0.00241689
0.00384947
0.00980999
0.00820761
0.00555352
0.00366791
0.00283964
0.00268978
0.00281685
0.00305305
0.0034294
0.00396416
0.00470104
0.00570419
0.00696983
0.00837209
0.00969357
0.0107094
0.0112664
0.0113221
0.0109447
0.010283
0.0095219
0.0088423
0.00837638
0.00816299
0.00813865
0.00818562
0.00818519
0.00807722
0.00783984
0.00746598
0.00695545
0.00631201
0.00554017
0.00461912
0.00328551
0.00140584
0.00335602
0.00547909
0.00244675
0.00360574
0.00838338
0.00793357
0.00635295
0.00488992
0.00393648
0.0034647
0.00335779
0.00355279
0.00391248
0.00443621
0.00521587
0.00632651
0.007717
0.00919213
0.0104847
0.0113567
0.0116757
0.011441
0.010769
0.00986016
0.00895059
0.00825843
0.00791067
0.00787137
0.0079873
0.00810379
0.00810622
0.00799215
0.00776244
0.0074131
0.00693905
0.00633213
0.00556813
0.00455567
0.00302183
0.00151673
0.00357309
0.00589
0.00245767
0.00328302
0.00755894
0.00765221
0.00672339
0.00572025
0.00496454
0.00451922
0.00435939
0.00439922
0.00461699
0.00509952
0.00597343
0.00726114
0.00880412
0.0103108
0.0114701
0.0120581
0.0119958
0.0113533
0.0103186
0.00916887
0.008207
0.00766007
0.00755181
0.00765223
0.00780781
0.00790822
0.00787926
0.00774596
0.00751334
0.00717466
0.00671109
0.00608475
0.00521533
0.00396498
0.00246824
0.00178861
0.00371733
0.0061615
0.00258592
0.00299359
0.00676273
0.00730715
0.00686832
0.00622463
0.00568353
0.00532335
0.00514717
0.00509534
0.00528271
0.0058977
0.00704318
0.00860492
0.0102765
0.0116821
0.0125123
0.0126121
0.0120003
0.0108532
0.00945452
0.00818943
0.00737476
0.00701836
0.00698591
0.00710465
0.00725041
0.00733471
0.00730279
0.00716386
0.00692547
0.00657556
0.00607262
0.00531214
0.00414313
0.00271166
0.00190048
0.00221701
0.00427804
0.00621845
0.00267244
0.00300427
0.00671306
0.00746619
0.00695098
0.00642993
0.00600307
0.0056952
0.00549616
0.00548981
0.00594476
0.00703153
0.00865755
0.0104907
0.0121018
0.0131147
0.0133142
0.0126878
0.0113902
0.00975058
0.00816099
0.00700527
0.00632898
0.00602868
0.0059837
0.00607561
0.00619576
0.00626057
0.00622261
0.0060636
0.00579896
0.00540727
0.00480954
0.0038615
0.00264618
0.00187703
0.00199555
0.0028464
0.00459128
0.00634639
0.00253272
0.00271016
0.00282063
0.00416505
0.00489675
0.00512405
0.00512898
0.00508106
0.00517827
0.00581025
0.00715972
0.00906365
0.0111205
0.0128748
0.013946
0.014115
0.01335
0.0118456
0.00989583
0.00803772
0.00658243
0.00561438
0.0050774
0.00485497
0.00481255
0.00484369
0.00486906
0.00483527
0.00472024
0.00450093
0.00420475
0.00383116
0.0033386
0.00268574
0.00205826
0.00189769
0.00238205
0.00336215
0.00455454
0.00523132
0.00238972
0.000963646
0.00173665
0.00266434
0.00341004
0.00427769
0.00574727
0.00791153
0.0103187
0.0125141
0.0141538
0.014999
0.0148939
0.0138483
0.0119847
0.00978196
0.00770643
0.00606881
0.00498842
0.00441366
0.00415325
0.00404084
0.00397914
0.00391223
0.00380629
0.00364917
0.0034521
0.00324171
0.00302986
0.0028322
0.00263661
0.00242534
0.00224095
0.0022741
0.00275169
0.00367432
0.00477365
0.00559309
0.00232974
0.00178752
0.00246916
0.00359267
0.00559865
0.00831752
0.0110398
0.0131448
0.0146671
0.0155925
0.0158486
0.015307
0.0138433
0.0116876
0.00926162
0.00704942
0.0054137
0.00447573
0.00404761
0.00387494
0.00380383
0.00376141
0.00371113
0.00363482
0.00352995
0.00340864
0.00329043
0.00319077
0.00311232
0.00305266
0.00300639
0.00297306
0.00297505
0.00308346
0.0034438
0.00423082
0.00555045
0.00642415
0.00253771
0.00323818
0.00787552
0.00726999
0.00649749
0.00823695
0.0109601
0.0132515
0.014798
0.0156186
0.0158272
0.0155175
0.0146258
0.0130907
0.0109577
0.00854123
0.00639094
0.00497415
0.0042883
0.00403129
0.00396147
0.0039603
0.00397253
0.00397044
0.00394263
0.00389084
0.00382587
0.0037614
0.00370836
0.00367324
0.00366011
0.00367249
0.00371598
0.00380394
0.00394891
0.00420508
0.00465818
0.00546914
0.00716161
0.00731859
0.00264901
0.0030951
0.00598062
0.00771865
0.00988201
0.0109635
0.0120723
0.0127128
0.0128626
0.0126153
0.0120336
0.0111329
0.00990552
0.00838224
0.00674282
0.00530041
0.00434653
0.00386114
0.00367238
0.00364137
0.00368843
0.0037657
0.00384128
0.00389559
0.00392141
0.00392201
0.00390614
0.00388262
0.00385839
0.0038416
0.00384682
0.00389749
0.00402294
0.00425034
0.00458945
0.00504527
0.00560508
0.00639404
0.00773409
0.00778674
0.00273691
0.00289472
0.00248122
0.00246898
0.00254127
0.00260099
0.00252396
0.00237463
0.00220075
0.00202581
0.00185715
0.00169547
0.0015429
0.00140875
0.00130853
0.00125278
0.00123022
0.001229
0.00123923
0.00125479
0.00127226
0.00128981
0.00130665
0.00132283
0.00133911
0.00135682
0.00137775
0.00140419
0.00143903
0.0014858
0.0015481
0.00162823
0.00172574
0.00183732
0.00195913
0.00209074
0.0022318
0.00237643
0.00252778
0.00267647
0.00253249
)
;

boundaryField
{
    floor
    {
        type            compressible::alphatWallFunction;
        Prt             0.85;
        value           nonuniform List<scalar> 
36
(
0.000219861
0.000104469
0.000149941
0.000151123
0.000147508
0.000141448
0.000133312
0.000125154
0.000117584
0.000110708
0.000104498
9.89258e-05
9.3889e-05
8.92733e-05
8.49406e-05
8.06999e-05
7.62386e-05
7.25131e-05
6.49289e-05
6.49281e-05
8.41486e-05
9.64049e-05
0.000106499
0.00012738
0.000168855
0.000161462
0.000219859
0.000239664
0.000229055
0.000219719
0.000104468
0.000219717
0.000186334
0.000266688
0.000232736
0.000265679
)
;
    }
    ceiling
    {
        type            compressible::alphatWallFunction;
        Prt             0.85;
        value           nonuniform List<scalar> 
43
(
0.000391177
0.000338974
0.00033742
0.000346621
0.000354209
0.000344469
0.000325463
0.000303162
0.000280527
0.000258506
0.000237188
0.000216863
0.000198796
0.000185155
0.00017751
0.000174397
0.00017422
0.000175623
0.000177762
0.000180165
0.000182577
0.000184889
0.000187104
0.000189326
0.000191732
0.000194564
0.000198125
0.000202797
0.000209044
0.000217338
0.000227979
0.00024089
0.000255611
0.000271603
0.000288763
0.000307058
0.000325701
0.000345076
0.000363971
0.000345627
0.000368306
0.000382192
0.000248634
)
;
    }
    sWall
    {
        type            compressible::alphatWallFunction;
        Prt             0.85;
        value           nonuniform List<scalar> 9(0.000507605 0.000477872 0.000438188 0.000402262 0.000403583 0.000366731 0.000432006 0.000414314 0.000389426);
    }
    nWall
    {
        type            compressible::alphatWallFunction;
        Prt             0.85;
        value           nonuniform List<scalar> 
14
(
0.000161013
0.000191323
0.00022456
0.000334064
0.000335544
0.000351991
0.000362693
0.000344601
0.000326468
0.000319117
0.000345752
0.000359656
0.0003707
0.000344932
)
;
    }
    sideWalls
    {
        type            empty;
    }
    glass1
    {
        type            compressible::alphatWallFunction;
        Prt             0.85;
        value           nonuniform List<scalar> 9(0.000143928 0.000209135 0.000262691 0.000313298 0.000362371 0.000409994 0.000458006 0.000498866 0.000511224);
    }
    glass2
    {
        type            compressible::alphatWallFunction;
        Prt             0.85;
        value           nonuniform List<scalar> 2(0.000289687 0.000327854);
    }
    sun
    {
        type            compressible::alphatWallFunction;
        Prt             0.85;
        value           nonuniform List<scalar> 
14
(
0.000147962
0.00015765
0.000157096
0.000163767
0.000169852
0.000175356
0.000180461
0.000185366
0.000190288
0.000195502
0.000200457
0.000205151
0.000209763
0.000214711
)
;
    }
    Table_master
    {
        type            compressible::alphatWallFunction;
        Prt             0.85;
        value           nonuniform List<scalar> 9(0.000191054 0.00016686 0.000147913 0.000132893 0.0001208 0.000110939 0.00010282 9.61611e-05 9.09306e-05);
    }
    Table_slave
    {
        type            compressible::alphatWallFunction;
        Prt             0.85;
        value           nonuniform List<scalar> 9(0.000216388 0.000197618 0.000182943 0.00017063 0.000160056 0.000150493 0.000141414 0.00013233 0.000122434);
    }
    inlet
    {
        type            fixedValue;
        value           uniform 1.94e-05;
    }
    outlet
    {
        type            zeroGradient;
    }
}


// ************************************************************************* //
