/*--------------------------------*- C++ -*----------------------------------*\
  =========                 |
  \\      /  F ield         | OpenFOAM: The Open Source CFD Toolbox
   \\    /   O peration     | Website:  https://openfoam.org
    \\  /    A nd           | Version:  6
     \\/     M anipulation  |
\*---------------------------------------------------------------------------*/
FoamFile
{
    version     2.0;
    format      ascii;
    class       volScalarField;
    location    "17500";
    object      k;
}
// * * * * * * * * * * * * * * * * * * * * * * * * * * * * * * * * * * * * * //

dimensions      [0 2 -2 0 0 0 0];

internalField   nonuniform List<scalar> 
778
(
0.00158597
0.00180125
0.0017882
0.00194682
0.00209809
0.00224037
0.00237699
0.0025125
0.00265268
0.00280582
0.00295577
0.00310178
0.00324903
0.00341121
0.00358471
0.00079258
0.00162506
0.00165113
0.00157194
0.00144406
0.00128188
0.00112998
0.000998543
0.000886976
0.000792518
0.000712802
0.000644795
0.000585812
0.000533315
0.000484597
0.000436154
0.00039789
0.000326054
0.00340704
0.00643382
0.00268776
0.00274637
0.00288811
0.0030547
0.00323503
0.00343069
0.00364371
0.00387373
0.00412539
0.00437868
0.00459401
0.00469897
0.00459325
0.00429678
0.00390574
0.00357886
0.00253805
0.00281318
0.00295468
0.00289621
0.00266281
0.00226362
0.00190448
0.00160848
0.00136901
0.0011754
0.00101677
0.000885064
0.000773855
0.000681069
0.000615081
0.000574575
0.000864639
0.000524119
0.00549089
0.0127822
0.00347829
0.00321237
0.00329773
0.00345557
0.00363691
0.00384096
0.00407105
0.0043273
0.00463495
0.00500981
0.0054495
0.00595874
0.00652989
0.00685897
0.00627689
0.00538536
0.00403793
0.00416991
0.00417303
0.00397502
0.00357681
0.00266472
0.00201445
0.00157488
0.00126872
0.00104879
0.000886578
0.000764378
0.000671661
0.000603522
0.00055136
0.000548624
0.0011666
0.000678446
0.00797372
0.0217608
0.00449174
0.00339096
0.00334173
0.00343827
0.00354957
0.00366892
0.00380895
0.00399096
0.00425845
0.0046474
0.00516976
0.0058236
0.0065534
0.00713398
0.00722816
0.00724587
0.00534156
0.00554729
0.00537498
0.00512517
0.00478668
0.00434788
0.00345568
0.00285869
0.00243537
0.00210908
0.00184959
0.00163115
0.00143783
0.00125791
0.00107706
0.00080023
0.000659453
0.00142421
0.00082251
0.0108766
0.0336387
0.00621386
0.00342521
0.00315844
0.00316707
0.00318961
0.0032098
0.00325192
0.00336069
0.00359408
0.00398818
0.00455203
0.00527507
0.00608528
0.0068162
0.00728154
0.00764158
0.00751315
0.00665122
0.00607144
0.00557811
0.00509868
0.00462921
0.00412299
0.00366528
0.0032744
0.00293656
0.00263019
0.00234667
0.00207814
0.00181752
0.0015542
0.00122127
0.000929463
0.00119129
0.00121672
0.00117073
0.00207317
0.0018914
0.0141752
0.0476044
0.00928593
0.00349028
0.00290868
0.00282279
0.00276436
0.0026994
0.00266398
0.00273426
0.0029804
0.00341361
0.00402251
0.00479646
0.00565194
0.00645936
0.00706595
0.00740366
0.00731957
0.00678664
0.00621294
0.00563604
0.00507382
0.0045558
0.00409121
0.0036955
0.00336279
0.00307326
0.00280614
0.00255067
0.00229803
0.00204135
0.00177327
0.00147091
0.00117718
0.00111198
0.0011114
0.00172833
0.00516534
0.00269695
0.0179928
0.0606119
0.0143636
0.00381994
0.00271533
0.00252941
0.00241171
0.00229382
0.00222076
0.00231138
0.00263025
0.00313928
0.00380182
0.00463115
0.00552777
0.00636536
0.00699865
0.00732503
0.00725111
0.00681537
0.00621369
0.005554
0.00491159
0.00434268
0.00387248
0.00350046
0.00320673
0.00296177
0.00274114
0.00252857
0.00231269
0.00208638
0.00184474
0.00158257
0.00132581
0.00115784
0.00109189
0.00157818
0.00641696
0.00376706
0.0216419
0.0704862
0.0214416
0.005103
0.00274285
0.00237175
0.00220994
0.00208159
0.00202589
0.00221921
0.00264986
0.00323143
0.00393814
0.0047759
0.00570057
0.00657449
0.00722335
0.00751236
0.0073822
0.00689459
0.0061975
0.00542701
0.00469191
0.00406487
0.00357479
0.00321286
0.00294808
0.00274148
0.00256451
0.00239571
0.00222149
0.00203451
0.00183135
0.00161226
0.00139464
0.00122462
0.0011555
0.00219066
0.0143535
0.00657227
0.0228332
0.0694893
0.0325406
0.0110601
0.00406746
0.00258711
0.00223509
0.00210245
0.00218929
0.00251179
0.00300026
0.00360273
0.00433459
0.00521637
0.00618981
0.00709167
0.00771927
0.00792302
0.00766358
0.00702499
0.00616594
0.00525013
0.00440936
0.00372398
0.00321788
0.00287001
0.00263672
0.00247031
0.00233729
0.00221183
0.00207914
0.00193226
0.00176888
0.00159085
0.00141065
0.00127373
0.00135051
0.00442734
0.0292267
0.00854691
0.0219171
0.0516277
0.0336449
0.0174358
0.00858701
0.00475746
0.0032595
0.0027286
0.0028516
0.00320945
0.00367159
0.00424713
0.00499881
0.00594506
0.00698282
0.00789531
0.00844617
0.00848485
0.00800307
0.00712418
0.00604376
0.00495799
0.00401567
0.00329421
0.0028006
0.00249099
0.00230451
0.00218665
0.00209847
0.0020132
0.0019174
0.00180551
0.00167634
0.00153233
0.00138429
0.00128573
0.00172424
0.0110957
0.0242463
0.00876791
0.019231
0.0394314
0.030237
0.0195663
0.0121812
0.00793658
0.00571454
0.00466635
0.00435908
0.00439676
0.00465051
0.0051459
0.00594023
0.00699124
0.00810149
0.00897539
0.00934914
0.00909737
0.00827239
0.00706171
0.00571637
0.00446698
0.00346874
0.0027742
0.00235251
0.00211868
0.00199453
0.0019271
0.00187731
0.00182347
0.00175574
0.00167038
0.0015674
0.00145078
0.00133376
0.00128831
0.00196286
0.0103777
0.0236165
0.0088681
0.0159468
0.0315851
0.0266508
0.0195389
0.0139751
0.0102824
0.00802488
0.0067482
0.00604526
0.00572725
0.00578049
0.00627606
0.00721795
0.00843282
0.00958397
0.0102961
0.0103158
0.00959214
0.00828373
0.00666689
0.00506326
0.00373024
0.00280005
0.0022397
0.00195934
0.00181962
0.00175105
0.00171752
0.00169016
0.00165482
0.00160477
0.00153721
0.00145379
0.00136269
0.00128358
0.00132412
0.00227933
0.00921201
0.0217129
0.00985333
0.0132654
0.0256799
0.0233567
0.0186926
0.0145846
0.0115881
0.00954255
0.00820775
0.00729745
0.00683753
0.00695769
0.00772523
0.00899287
0.0103856
0.0114254
0.0117159
0.0111046
0.00968596
0.00778189
0.00576354
0.00403811
0.00284174
0.00219761
0.00186461
0.00170189
0.00162236
0.00158288
0.00156164
0.00154014
0.00150955
0.0014657
0.0014082
0.00134192
0.00128176
0.0012843
0.00161799
0.00310313
0.00963849
0.0196458
0.0104566
0.0133546
0.02243
0.0220682
0.0177658
0.014396
0.0118962
0.0100849
0.00876881
0.00791706
0.00777332
0.00847618
0.00988074
0.011548
0.012897
0.013419
0.0128418
0.0112592
0.00896278
0.00651346
0.00430588
0.00295896
0.00221741
0.0018473
0.00166337
0.00156932
0.00151759
0.00148524
0.00146025
0.00143222
0.00139565
0.00134876
0.00129471
0.00124905
0.001269
0.0015538
0.00254752
0.00491217
0.0104043
0.0194578
0.00930689
0.0108785
0.0117686
0.0129256
0.0125537
0.0113753
0.0100755
0.00894754
0.00820318
0.00830076
0.00941536
0.0113
0.0133817
0.0149811
0.0155526
0.0148378
0.012852
0.010108
0.00699258
0.00461431
0.0031121
0.00232203
0.00193364
0.00173894
0.00163048
0.00156179
0.00151198
0.00147041
0.00143097
0.00138995
0.00134484
0.00129684
0.00125588
0.00125652
0.00140667
0.00198584
0.00348279
0.00644271
0.0111432
0.0160487
0.0082945
0.00353985
0.00481745
0.00598832
0.00659561
0.00727623
0.00878797
0.011303
0.0141394
0.01657
0.0180182
0.0181087
0.0167595
0.0141942
0.0105598
0.0072535
0.0047709
0.00327393
0.00250879
0.00215043
0.0019708
0.00186283
0.00178425
0.00171958
0.00166297
0.00161229
0.00156747
0.0015292
0.00150414
0.00149085
0.00149821
0.00155981
0.00177458
0.00237878
0.00381012
0.00660001
0.011117
0.0172085
0.00795627
0.00444618
0.00628314
0.00809928
0.0110093
0.0146797
0.0181394
0.0203822
0.0214572
0.0213972
0.0201815
0.0176259
0.014113
0.0104098
0.00709261
0.0047615
0.00343009
0.00279918
0.00252332
0.00239261
0.00231542
0.00225877
0.00221223
0.00217455
0.00214894
0.00214019
0.00215169
0.00218232
0.0022245
0.00228013
0.00235435
0.0024669
0.00269324
0.00320099
0.00431924
0.00665037
0.0113646
0.0172821
0.00946082
0.0150753
0.024539
0.0181346
0.0143894
0.0169863
0.0206703
0.0227896
0.0234887
0.023043
0.021701
0.0196968
0.0170389
0.0138207
0.0104192
0.0073986
0.00524433
0.00405972
0.00353817
0.00334013
0.00326883
0.00323916
0.00321605
0.00318699
0.00315273
0.00312274
0.00311019
0.0031271
0.00318141
0.00327698
0.0034146
0.00359141
0.00380536
0.00407776
0.00450096
0.00518785
0.00637327
0.00865501
0.0147211
0.0178492
0.01026
0.0138063
0.0170613
0.0178268
0.0207389
0.0216719
0.0220902
0.0210959
0.0192877
0.0171753
0.0150064
0.0128755
0.0108192
0.00886281
0.00711146
0.00570754
0.004792
0.00430857
0.0041045
0.00405825
0.0040962
0.0041719
0.00425455
0.00432651
0.00438331
0.00443209
0.00448768
0.00456809
0.00469194
0.00487898
0.00515278
0.00554298
0.00608361
0.00680447
0.00770592
0.00886993
0.0104297
0.0127453
0.0173195
0.0203567
0.0109413
0.0121353
0.0089155
0.00883102
0.00936096
0.00981586
0.00926382
0.00821758
0.00707029
0.00599914
0.00504801
0.0042122
0.00349177
0.00291253
0.00251196
0.00230104
0.00221751
0.0022121
0.00224874
0.00230589
0.00237137
0.0024383
0.00250346
0.00256668
0.00263057
0.00270015
0.00278258
0.00288731
0.00302713
0.00321935
0.00348542
0.00384668
0.00431666
0.00489545
0.00557479
0.00635866
0.00726288
0.00825601
0.00936264
0.010513
0.0093883
)
;

boundaryField
{
    floor
    {
        type            kqRWallFunction;
        value           nonuniform List<scalar> 
36
(
0.00358471
0.00079258
0.00162506
0.00165113
0.00157194
0.00144406
0.00128188
0.00112998
0.000998543
0.000886976
0.000792518
0.000712802
0.000644795
0.000585812
0.000533315
0.000484597
0.000436154
0.00039789
0.000326054
0.000326054
0.000524119
0.000678446
0.00082251
0.00117073
0.00207317
0.0018914
0.00358471
0.00429678
0.00390574
0.00357886
0.00079258
0.00357886
0.00253805
0.00538536
0.00403793
0.00534156
)
;
    }
    ceiling
    {
        type            kqRWallFunction;
        value           nonuniform List<scalar> 
43
(
0.0121353
0.0089155
0.00883102
0.00936096
0.00981586
0.00926382
0.00821758
0.00707029
0.00599914
0.00504801
0.0042122
0.00349177
0.00291253
0.00251196
0.00230104
0.00221751
0.0022121
0.00224874
0.00230589
0.00237137
0.0024383
0.00250346
0.00256668
0.00263057
0.00270015
0.00278258
0.00288731
0.00302713
0.00321935
0.00348542
0.00384668
0.00431666
0.00489545
0.00557479
0.00635866
0.00726288
0.00825601
0.00936264
0.010513
0.0093883
0.0108785
0.0117686
0.00444618
)
;
    }
    sWall
    {
        type            kqRWallFunction;
        value           nonuniform List<scalar> 9(0.0219171 0.019231 0.0159468 0.0132654 0.0133546 0.0108785 0.0150753 0.0138063 0.0121353);
    }
    nWall
    {
        type            kqRWallFunction;
        value           nonuniform List<scalar> 
14
(
0.0018914
0.00269695
0.00376706
0.00876791
0.0088681
0.00985333
0.0104566
0.00930689
0.0082945
0.00795627
0.00946082
0.01026
0.0109413
0.0093883
)
;
    }
    sideWalls
    {
        type            empty;
    }
    glass1
    {
        type            kqRWallFunction;
        value           nonuniform List<scalar> 9(0.00158597 0.00340704 0.00549089 0.00797372 0.0108766 0.0141752 0.0179928 0.0216419 0.0228332);
    }
    glass2
    {
        type            kqRWallFunction;
        value           nonuniform List<scalar> 2(0.00657227 0.00854691);
    }
    sun
    {
        type            kqRWallFunction;
        value           nonuniform List<scalar> 
14
(
0.00158597
0.00180125
0.0017882
0.00194682
0.00209809
0.00224037
0.00237699
0.0025125
0.00265268
0.00280582
0.00295577
0.00310178
0.00324903
0.00341121
)
;
    }
    Table_master
    {
        type            kqRWallFunction;
        value           nonuniform List<scalar> 9(0.00266472 0.00201445 0.00157488 0.00126872 0.00104879 0.000886578 0.000764378 0.000671661 0.000603522);
    }
    Table_slave
    {
        type            kqRWallFunction;
        value           nonuniform List<scalar> 9(0.00345568 0.00285869 0.00243537 0.00210908 0.00184959 0.00163115 0.00143783 0.00125791 0.00107706);
    }
    inlet
    {
        type            turbulentIntensityKineticEnergyInlet;
        intensity       0.05;
        value           uniform 0.0009375;
    }
    outlet
    {
        type            zeroGradient;
    }
}


// ************************************************************************* //
