/*--------------------------------*- C++ -*----------------------------------*\
  =========                 |
  \\      /  F ield         | OpenFOAM: The Open Source CFD Toolbox
   \\    /   O peration     | Website:  https://openfoam.org
    \\  /    A nd           | Version:  6
     \\/     M anipulation  |
\*---------------------------------------------------------------------------*/
FoamFile
{
    version     2.0;
    format      ascii;
    class       volScalarField;
    location    "590";
    object      alphat;
}
// * * * * * * * * * * * * * * * * * * * * * * * * * * * * * * * * * * * * * //

dimensions      [1 -1 -1 0 0 0 0];

internalField   nonuniform List<scalar> 
458
(
0.00124725
0.00135904
0.00139013
0.00145681
0.00151825
0.00157647
0.00163477
0.00169387
0.00174215
0.00177241
0.00177567
0.00174308
0.00166345
0.0014938
0.0011353
0.000560442
0.000656954
0.000745229
0.0007776
0.000765609
0.000716271
0.000661699
0.000612904
0.000570674
0.000534012
0.000502015
0.000474028
0.000449228
0.000426655
0.000405256
0.000383775
0.00037088
0.000340738
0.0016795
0.00378988
0.00349801
0.00400853
0.00451852
0.00504272
0.00551238
0.00587693
0.00625108
0.00660094
0.00688113
0.0070503
0.00706344
0.00681126
0.00552331
0.00149894
0.0012439
0.00101441
0.000555475
0.00132034
0.00192595
0.00239468
0.00254275
0.00185143
0.00156208
0.0013652
0.00121987
0.00110862
0.00102038
0.000944633
0.000873496
0.000802425
0.00073883
0.000685671
0.00083857
0.000447087
0.00203987
0.00509434
0.0042104
0.00513005
0.00551936
0.00579317
0.00600383
0.00619937
0.00647061
0.00680004
0.00715981
0.00751128
0.00778545
0.00787491
0.00741354
0.00604203
0.00457398
0.00119974
0.00085376
0.00147529
0.00215035
0.00282234
0.00301498
0.000963237
0.000843051
0.000743058
0.00066207
0.00059671
0.00054375
0.000500694
0.000465877
0.000438803
0.000486148
0.000563249
0.000984834
0.000528061
0.00238645
0.0065022
0.00409855
0.00531506
0.00552871
0.0055093
0.00549162
0.00558632
0.00580743
0.00613448
0.00655008
0.00701214
0.00741136
0.00765571
0.00759327
0.00719757
0.00617418
0.00338867
0.00138122
0.00175286
0.0024098
0.00321822
0.00392141
0.00395936
0.00108586
0.000995119
0.000933116
0.000887223
0.000848373
0.000809927
0.000773413
0.00073485
0.000689825
0.000649534
0.000640201
0.00117402
0.000608086
0.00274027
0.00839416
0.00429976
0.00504678
0.00535133
0.00517241
0.00502715
0.005112
0.00534423
0.00568482
0.00613416
0.00664188
0.00703143
0.00722132
0.00721144
0.00707068
0.00665999
0.00550557
0.00497915
0.00501729
0.0053122
0.00566405
0.00588171
0.00578818
0.0049396
0.00450122
0.00425852
0.00408437
0.00390829
0.00367993
0.00329661
0.00280423
0.00224494
0.00170695
0.00128046
0.00119442
0.00103434
0.000812579
0.000860205
0.000935141
0.00311895
0.0105237
0.00588328
0.00467738
0.00509527
0.00508915
0.00490005
0.00497159
0.00520654
0.00554773
0.00600447
0.00649063
0.00685231
0.00696223
0.00684721
0.00668779
0.00661536
0.00651736
0.00670797
0.00704797
0.00728909
0.00733598
0.00718018
0.00684821
0.00638078
0.00599915
0.00570069
0.00543689
0.00517728
0.00490111
0.00454393
0.0040572
0.00344397
0.00275275
0.00211483
0.00153494
0.00126036
0.00109807
0.00138196
0.000970154
0.00349101
0.0121259
0.00875854
0.00575026
0.00501223
0.00508807
0.00514552
0.00517662
0.00530974
0.00561302
0.00606459
0.00654723
0.00687761
0.00690641
0.00669208
0.00654129
0.00679253
0.00734423
0.00790668
0.00822874
0.00823444
0.00796703
0.00750977
0.00695054
0.00639009
0.00593521
0.00558767
0.00530428
0.00505579
0.00483261
0.00462982
0.00436576
0.00393612
0.00336465
0.00277261
0.00220516
0.00183431
0.00167946
0.00159999
0.00115349
0.00358024
0.0112247
0.00954373
0.00802575
0.00686729
0.00635737
0.00585753
0.00552331
0.00552336
0.00581851
0.00628861
0.00676522
0.00703934
0.0069631
0.00670261
0.00677198
0.00748704
0.00806956
0.00837707
0.00837008
0.00804584
0.00747918
0.00677786
0.00606573
0.00546848
0.00504528
0.00475725
0.00454921
0.00439457
0.00428954
0.00424121
0.0042403
0.00412503
0.00378667
0.00345753
0.00327405
0.00335306
0.00353751
0.00419759
0.00178473
0.00350573
0.00423062
0.00467538
0.004925
0.00496387
0.00489151
0.00490064
0.00511928
0.00555488
0.00610879
0.00666969
0.00709958
0.00722208
0.00695695
0.00689592
0.00725846
0.00767567
0.00782046
0.00772173
0.00736588
0.00676218
0.0060109
0.00525451
0.00462786
0.00419028
0.00390965
0.00372094
0.00357784
0.00345639
0.00334302
0.00322749
0.00310135
0.00298758
0.00288934
0.00282388
0.00278634
0.00271575
0.00257197
0.00239793
0.00166622
0.00157453
0.00275329
0.00377423
0.00458232
0.00532769
0.00605705
0.00663977
0.00703652
0.00728198
0.00729404
0.00702885
0.00671741
0.00672283
0.00685053
0.00676536
0.00649912
0.00607429
0.00549845
0.00483467
0.00418003
0.00365456
0.00329891
0.00308052
0.00294684
0.00285867
0.00279496
0.00274647
0.00271091
0.00269102
0.00269754
0.00271331
0.00272733
0.00272789
0.00268441
0.00255104
0.00231661
0.00202633
0.00134084
0.0023809
0.00466948
0.00599134
0.00685438
0.00752561
0.00758082
0.00720106
0.00682089
0.00643975
0.00575825
0.00528873
0.00517805
0.00511086
0.00491542
0.00461531
0.00423955
0.00379703
0.0033304
0.00291003
0.00258646
0.00236226
0.00223383
0.00217463
0.00216297
0.00218555
0.00223398
0.00230116
0.00237859
0.00246923
0.00257269
0.00268315
0.00279146
0.00287948
0.00292339
0.00288206
0.00284597
0.00262315
0.00135841
0.00249253
0.00255477
0.00261092
0.00289524
0.00273041
0.00241503
0.00203775
0.00173735
0.00155074
0.0013719
0.00121307
0.00108881
0.000982889
0.000903655
0.000849064
0.000809247
0.000777207
0.000749666
0.000726983
0.000711756
0.000706178
0.000710543
0.000723553
0.000742497
0.000766323
0.00079448
0.000826815
0.000863524
0.000905224
0.000953204
0.00100774
0.00106844
0.00113564
0.00120966
0.00129053
0.00138745
0.00142954
0.00140007
0.00130226
0.00120425
)
;

boundaryField
{
    floor
    {
        type            compressible::alphatWallFunction;
        Prt             0.85;
        value           nonuniform List<scalar> 
36
(
0.000161172
7.84033e-05
9.28264e-05
0.000105793
0.000110502
0.000108761
0.000101562
9.35296e-05
8.62789e-05
7.99465e-05
7.44019e-05
6.95243e-05
6.52258e-05
6.139e-05
5.78755e-05
5.45216e-05
5.1132e-05
4.90856e-05
4.42659e-05
4.42652e-05
6.10582e-05
7.34985e-05
8.55607e-05
0.000115571
0.000122425
0.000133113
0.00016117
0.000210809
0.000176163
0.00014429
7.84023e-05
0.000144288
7.76523e-05
0.000170084
0.000121485
0.000194909
)
;
    }
    ceiling
    {
        type            compressible::alphatWallFunction;
        Prt             0.85;
        value           nonuniform List<scalar> 
43
(
0.000340392
0.000348298
0.000355416
0.000391287
0.000370621
0.000330656
0.000282092
0.000242723
0.000217894
0.000193779
0.000172062
0.000154845
0.000139988
0.000128753
0.000120944
0.000115212
0.000110574
0.000106569
0.000103258
0.000101028
0.00010021
0.00010085
0.000102756
0.000105525
0.000108994
0.000113078
0.000117746
0.00012302
0.000128978
0.000135794
0.000143493
0.000152006
0.000161365
0.000171599
0.000182702
0.000195903
0.000201604
0.000197615
0.000184307
0.000170859
0.000467236
0.000555362
0.00032606
)
;
    }
    sWall
    {
        type            compressible::alphatWallFunction;
        Prt             0.85;
        value           uniform 0.00033915;
    }
    nWall
    {
        type            compressible::alphatWallFunction;
        Prt             0.85;
        value           nonuniform List<scalar> 6(0.000132895 0.000137848 0.000163481 0.000189227 0.000191616 0.000170518);
    }
    sideWalls
    {
        type            empty;
    }
    glass1
    {
        type            compressible::alphatWallFunction;
        Prt             0.85;
        value           nonuniform List<scalar> 9(0.000172083 0.000229567 0.000276368 0.000320627 0.000365177 0.000412238 0.000457942 0.000468966 0.000460114);
    }
    glass2
    {
        type            compressible::alphatWallFunction;
        Prt             0.85;
        value           nonuniform List<scalar> 2(0.000247021 0.000231482);
    }
    sun
    {
        type            compressible::alphatWallFunction;
        Prt             0.85;
        value           nonuniform List<scalar> 
14
(
0.00017664
0.000191895
0.000196116
0.000205135
0.000213405
0.000221206
0.000228986
0.000236842
0.000243236
0.000247234
0.000247664
0.000243359
0.0002328
0.000210116
)
;
    }
    Table_master
    {
        type            compressible::alphatWallFunction;
        Prt             0.85;
        value           nonuniform List<scalar> 9(0.000137228 0.000120095 0.000105619 9.37229e-05 8.39924e-05 7.60115e-05 6.94517e-05 6.40952e-05 5.98949e-05);
    }
    Table_slave
    {
        type            compressible::alphatWallFunction;
        Prt             0.85;
        value           nonuniform List<scalar> 9(0.000154456 0.000141733 0.000132962 0.000126427 0.000120862 0.000115327 0.00011004 0.000104424 9.78209e-05);
    }
    inlet
    {
        type            fixedValue;
        value           uniform 1.94e-05;
    }
    outlet
    {
        type            zeroGradient;
    }
}


// ************************************************************************* //
