/*--------------------------------*- C++ -*----------------------------------*\
  =========                 |
  \\      /  F ield         | OpenFOAM: The Open Source CFD Toolbox
   \\    /   O peration     | Website:  https://openfoam.org
    \\  /    A nd           | Version:  6
     \\/     M anipulation  |
\*---------------------------------------------------------------------------*/
FoamFile
{
    version     2.0;
    format      ascii;
    class       volScalarField;
    location    "590";
    object      epsilon;
}
// * * * * * * * * * * * * * * * * * * * * * * * * * * * * * * * * * * * * * //

dimensions      [0 2 -3 0 0 0 0];

internalField   nonuniform List<scalar> 
458
(
0.000436124
0.000562665
0.000602095
0.000692931
0.000784335
0.00087804
0.000979066
0.00108908
0.00118481
0.00124752
0.00125431
0.00118646
0.0010312
0.00074688
0.000328009
3.95158e-05
6.36336e-05
9.28792e-05
0.000105522
0.000100723
8.24823e-05
6.50331e-05
5.16838e-05
4.17219e-05
3.4188e-05
2.84051e-05
2.39154e-05
2.03558e-05
1.74399e-05
1.4946e-05
1.26938e-05
1.14576e-05
8.88704e-06
0.0010669
0.00158844
0.000522986
0.000507371
0.000523649
0.000556769
0.000613085
0.000696456
0.000788772
0.000863582
0.000891518
0.00085633
0.000763982
0.000628694
0.000505622
0.000754787
0.000431399
0.000234021
3.84792e-05
7.57194e-05
9.36389e-05
9.45114e-05
9.08605e-05
9.11832e-05
7.14085e-05
5.40897e-05
4.12301e-05
3.18429e-05
2.49682e-05
1.98943e-05
1.60999e-05
1.32717e-05
1.14883e-05
1.07557e-05
3.03957e-05
2.00734e-05
0.00191542
0.00385284
0.000608288
0.000462454
0.000470644
0.000513609
0.00058715
0.000691929
0.000806736
0.000894759
0.000928519
0.000897634
0.000810244
0.000673401
0.000522909
0.00042101
0.000357219
0.000387142
0.000139664
0.000139865
0.000126702
0.000112842
0.000104915
0.000200608
0.000134497
9.2092e-05
6.51431e-05
4.76923e-05
3.60876e-05
2.8176e-05
2.26977e-05
1.89663e-05
1.48975e-05
1.31759e-05
6.45783e-05
3.30751e-05
0.00307328
0.00799923
0.000909471
0.000442792
0.000433351
0.000486388
0.00058184
0.000727199
0.000873271
0.000969404
0.00100094
0.00096386
0.000864237
0.000710683
0.000554525
0.000437402
0.000370243
0.000384279
0.000590821
0.000379806
0.000248129
0.000180706
0.000142564
0.000124934
0.00028756
0.000221361
0.000182533
0.000156922
0.00013721
0.000119397
0.000103971
8.91853e-05
7.37769e-05
4.5612e-05
2.93734e-05
0.000114166
5.05109e-05
0.00466233
0.0144314
0.00175
0.000475153
0.000399574
0.000456784
0.000597152
0.000845079
0.00103097
0.00112468
0.00114158
0.00108135
0.000947559
0.000761508
0.000570898
0.000424997
0.000335906
0.000306361
0.000307542
0.000256987
0.000212457
0.000177926
0.000148794
0.000124206
0.000114975
0.000105433
9.88991e-05
9.3325e-05
8.71245e-05
7.9532e-05
7.15083e-05
6.36396e-05
5.62458e-05
4.62274e-05
3.62834e-05
7.45791e-05
0.000114073
0.000120646
0.00014324
0.000184033
0.00688718
0.0217398
0.00402108
0.000799223
0.000471157
0.000481107
0.000715728
0.00113765
0.00132187
0.00138133
0.00135914
0.00126056
0.00107875
0.000833457
0.00058354
0.000393323
0.000282723
0.000242143
0.000231892
0.000221842
0.000204603
0.000179951
0.000152047
0.000125968
0.000109042
0.000102235
0.000100778
0.000100126
9.77728e-05
9.20692e-05
8.20334e-05
7.07159e-05
6.00232e-05
5.03114e-05
4.35584e-05
5.55106e-05
8.81362e-05
0.000105903
0.000206346
0.000205406
0.00967312
0.0262017
0.00882157
0.00282476
0.00147456
0.00116288
0.00151146
0.00174981
0.00180613
0.00176849
0.00166905
0.00150094
0.00124315
0.000916754
0.000593805
0.000360032
0.000238117
0.000203807
0.000206137
0.000206823
0.000193625
0.00017
0.000143892
0.000122123
0.000110442
0.000109522
0.000114334
0.000120578
0.000125937
0.000128223
0.00012404
0.000111123
9.76271e-05
8.61427e-05
8.06982e-05
8.8969e-05
0.000120801
0.000176991
0.00032742
0.000345172
0.0104586
0.0300624
0.0160958
0.00967335
0.00600431
0.00422381
0.00341804
0.00290284
0.00256203
0.00230525
0.00206345
0.0017824
0.00141191
0.000976726
0.000565776
0.000303668
0.00019355
0.000177728
0.000183114
0.000180499
0.000165184
0.000144381
0.000125949
0.000114818
0.00011309
0.000119618
0.000131501
0.000146993
0.000165708
0.000187561
0.000211775
0.00023268
0.000246021
0.000273399
0.000329576
0.00048074
0.000821036
0.00137727
0.00410256
0.00128092
0.0098517
0.0172594
0.0132402
0.0099909
0.00751386
0.00580558
0.00460465
0.0038108
0.00327678
0.00285439
0.00245868
0.00203217
0.00149756
0.000919401
0.000407712
0.000218078
0.000161062
0.000149849
0.000146728
0.000138978
0.000126268
0.000113731
0.000105808
0.00010462
0.000110232
0.000121645
0.000138075
0.000159807
0.00018819
0.000225469
0.000274713
0.000339539
0.000426842
0.000551474
0.00073323
0.000975346
0.00124889
0.00149604
0.00170067
0.00104411
0.00346521
0.00470602
0.00511971
0.00504185
0.00476088
0.00435834
0.00382754
0.00320352
0.00258685
0.00197064
0.00115988
0.000533266
0.000252765
0.000159128
0.000129044
0.000118164
0.000110811
0.000102826
9.50577e-05
8.94383e-05
8.78016e-05
9.06007e-05
9.7439e-05
0.000107897
0.000121967
0.000140226
0.000163917
0.000195157
0.000237398
0.000296415
0.000377825
0.00048786
0.000629051
0.000785353
0.000910133
0.000943925
0.000870936
0.000544033
0.00289508
0.0086694
0.00835271
0.00724698
0.00614661
0.00484727
0.00352195
0.00227346
0.00129678
0.000712784
0.000372562
0.000212237
0.000148084
0.000120865
0.000107702
9.87999e-05
9.08935e-05
8.39171e-05
7.88666e-05
7.64517e-05
7.68421e-05
8.01423e-05
8.63159e-05
9.55451e-05
0.000108353
0.000125649
0.000148828
0.000179967
0.000222024
0.000278751
0.00035528
0.000456808
0.000584148
0.000726697
0.000839747
0.00095344
0.000733948
0.000565629
0.00337183
0.00362931
0.00387378
0.00533703
0.00450515
0.00313388
0.00189161
0.00117617
0.000838014
0.00058098
0.000401969
0.000290795
0.000213976
0.000166316
0.000137973
0.000119468
0.000105838
9.49848e-05
8.66242e-05
8.12959e-05
7.94006e-05
8.08823e-05
8.54071e-05
9.22924e-05
0.000101465
0.000113065
0.000127439
0.000145177
0.00016724
0.000195267
0.000230734
0.000274996
0.000330222
0.000399096
0.000484641
0.000602287
0.000658856
0.000618988
0.000498133
0.000394073
)
;

boundaryField
{
    floor
    {
        Cmu             0.09;
        kappa           0.41;
        E               9.8;
        type            epsilonWallFunction;
        value           nonuniform List<scalar> 
36
(
0.000328009
3.95158e-05
6.36336e-05
9.28792e-05
0.000105522
0.000100723
8.24823e-05
6.50331e-05
5.16838e-05
4.17219e-05
3.4188e-05
2.84051e-05
2.39154e-05
2.03558e-05
1.74399e-05
1.4946e-05
1.26938e-05
1.14576e-05
8.88704e-06
8.88704e-06
2.00734e-05
3.30751e-05
5.05109e-05
0.000120646
0.00014324
0.000184033
0.000328009
0.000754787
0.000431399
0.000234021
3.95158e-05
0.000234021
3.84792e-05
0.000387142
0.000139664
0.000590821
)
;
    }
    ceiling
    {
        Cmu             0.09;
        kappa           0.41;
        E               9.8;
        type            epsilonWallFunction;
        value           nonuniform List<scalar> 
43
(
0.00337183
0.00362931
0.00387378
0.00533703
0.00450515
0.00313388
0.00189161
0.00117617
0.000838014
0.00058098
0.000401969
0.000290795
0.000213976
0.000166316
0.000137973
0.000119468
0.000105838
9.49848e-05
8.66242e-05
8.12959e-05
7.94006e-05
8.08823e-05
8.54071e-05
9.22924e-05
0.000101465
0.000113065
0.000127439
0.000145177
0.00016724
0.000195267
0.000230734
0.000274996
0.000330222
0.000399096
0.000484641
0.000602287
0.000658856
0.000618988
0.000498133
0.000394073
0.0098517
0.0172594
0.00289508
)
;
    }
    sWall
    {
        Cmu             0.09;
        kappa           0.41;
        E               9.8;
        type            epsilonWallFunction;
        value           uniform 0.00337183;
    }
    nWall
    {
        Cmu             0.09;
        kappa           0.41;
        E               9.8;
        type            epsilonWallFunction;
        value           nonuniform List<scalar> 6(0.000184033 0.000205406 0.000345172 0.000544033 0.000565629 0.000394073);
    }
    sideWalls
    {
        type            empty;
    }
    glass1
    {
        Cmu             0.09;
        kappa           0.41;
        E               9.8;
        type            epsilonWallFunction;
        value           nonuniform List<scalar> 9(0.000436124 0.0010669 0.00191542 0.00307328 0.00466233 0.00688718 0.00967312 0.0104586 0.0098517);
    }
    glass2
    {
        Cmu             0.09;
        kappa           0.41;
        E               9.8;
        type            epsilonWallFunction;
        value           nonuniform List<scalar> 2(0.00128092 0.00104411);
    }
    sun
    {
        Cmu             0.09;
        kappa           0.41;
        E               9.8;
        type            epsilonWallFunction;
        value           nonuniform List<scalar> 
14
(
0.000436124
0.000562665
0.000602095
0.000692931
0.000784335
0.00087804
0.000979066
0.00108908
0.00118481
0.00124752
0.00125431
0.00118646
0.0010312
0.00074688
)
;
    }
    Table_master
    {
        Cmu             0.09;
        kappa           0.41;
        E               9.8;
        type            epsilonWallFunction;
        value           nonuniform List<scalar> 9(0.000200608 0.000134497 9.2092e-05 6.51431e-05 4.76923e-05 3.60876e-05 2.8176e-05 2.26977e-05 1.89663e-05);
    }
    Table_slave
    {
        Cmu             0.09;
        kappa           0.41;
        E               9.8;
        type            epsilonWallFunction;
        value           nonuniform List<scalar> 9(0.00028756 0.000221361 0.000182533 0.000156922 0.00013721 0.000119397 0.000103971 8.91853e-05 7.37769e-05);
    }
    inlet
    {
        type            turbulentMixingLengthDissipationRateInlet;
        mixingLength    0.01;
        phi             phi;
        k               k;
        value           uniform 0.000471672;
    }
    outlet
    {
        type            zeroGradient;
    }
}


// ************************************************************************* //
