/*--------------------------------*- C++ -*----------------------------------*\
  =========                 |
  \\      /  F ield         | OpenFOAM: The Open Source CFD Toolbox
   \\    /   O peration     | Website:  https://openfoam.org
    \\  /    A nd           | Version:  6
     \\/     M anipulation  |
\*---------------------------------------------------------------------------*/
FoamFile
{
    version     2.0;
    format      ascii;
    class       volScalarField;
    location    "590";
    object      k;
}
// * * * * * * * * * * * * * * * * * * * * * * * * * * * * * * * * * * * * * //

dimensions      [0 2 -2 0 0 0 0];

internalField   nonuniform List<scalar> 
458
(
0.00227933
0.00270127
0.00282603
0.00310356
0.00337082
0.00363421
0.00390789
0.00419541
0.00443777
0.00459302
0.00460968
0.00444192
0.00404542
0.00326263
0.00188506
0.000459813
0.000631721
0.000812855
0.000885042
0.000857995
0.000751002
0.000640949
0.000549925
0.000476771
0.000417494
0.000368976
0.000328993
0.000295479
0.00026654
0.000240482
0.000215672
0.000201432
0.000170048
0.00413824
0.00757972
0.00417823
0.00440548
0.00475179
0.00517618
0.00567895
0.00624965
0.00685925
0.00737501
0.00765042
0.00758934
0.00717514
0.00639182
0.00516201
0.00328562
0.00226284
0.00150512
0.000451736
0.0009769
0.00131205
0.00146985
0.00148509
0.00126948
0.00103192
0.000839605
0.000692922
0.000580523
0.00049317
0.000423565
0.000366411
0.000318856
0.000284664
0.000265348
0.000493313
0.00029274
0.00611286
0.0136876
0.00494402
0.00475845
0.00497933
0.00532919
0.00580068
0.0063987
0.00705842
0.00761983
0.00796431
0.00802022
0.00775761
0.00711298
0.00608181
0.00492667
0.00394853
0.0021053
0.0010669
0.00140343
0.00161268
0.00174361
0.00173774
0.00135821
0.00104042
0.000808255
0.000641672
0.000521234
0.000432819
0.00036699
0.000317728
0.000281874
0.00026295
0.000266182
0.000779238
0.000408385
0.00837791
0.022284
0.00596488
0.00473979
0.00478253
0.00505808
0.00552347
0.00622801
0.00695821
0.00753384
0.00790941
0.00802993
0.00781702
0.00720486
0.00633855
0.00548101
0.00467052
0.00352514
0.00279064
0.00252065
0.00238896
0.00235612
0.00231022
0.00217321
0.00172671
0.00145033
0.00127535
0.00115307
0.00105436
0.000961013
0.000876347
0.000791157
0.000697185
0.00053191
0.000423753
0.00113128
0.000541575
0.0110612
0.0340126
0.00847544
0.00478473
0.00451849
0.00475008
0.0053547
0.00642367
0.0072537
0.00781239
0.00817445
0.00827763
0.00797257
0.00724342
0.00626785
0.00535515
0.00462063
0.00401215
0.00382296
0.00350815
0.00328236
0.00310188
0.00289077
0.00262021
0.00232896
0.00212904
0.00200571
0.00190815
0.00180352
0.00167206
0.00150063
0.00130565
0.00109824
0.00086815
0.000666112
0.000922306
0.00106148
0.000967705
0.00108503
0.00128233
0.014347
0.0467503
0.0150296
0.0059744
0.004788
0.00483586
0.0057884
0.00735112
0.00810785
0.00855334
0.00882469
0.00883483
0.00839749
0.00744082
0.00617504
0.00501067
0.00422525
0.00388128
0.00385351
0.00386362
0.00377364
0.00355061
0.00322909
0.00287056
0.0025781
0.00242061
0.00234281
0.00228059
0.00219918
0.00207638
0.00188716
0.00165563
0.0014053
0.00115022
0.000938024
0.000902089
0.00102998
0.0010539
0.00165044
0.00137978
0.0179934
0.0551084
0.0271683
0.0124558
0.00840214
0.00751828
0.00862075
0.0093036
0.009571
0.00973459
0.00982754
0.00968204
0.00903126
0.00777269
0.0061586
0.00474163
0.00392973
0.0037805
0.00394511
0.00403155
0.00390239
0.00359692
0.00321302
0.0028478
0.00259679
0.00249227
0.00247079
0.0024722
0.00246666
0.00243337
0.00234257
0.00215303
0.00191612
0.00166405
0.00146199
0.00136894
0.0014548
0.00168498
0.00223695
0.00195026
0.0189547
0.056837
0.0383359
0.0272471
0.0198545
0.0160221
0.013835
0.0123785
0.0116252
0.011314
0.0111256
0.0107242
0.00973726
0.00805631
0.00601696
0.00443147
0.00372025
0.00370119
0.00382792
0.00379908
0.00356343
0.00321218
0.00285614
0.00257986
0.0024311
0.00240162
0.00244516
0.00252802
0.00263811
0.0027729
0.00292977
0.00307057
0.00311407
0.00314515
0.00329959
0.00387775
0.00512833
0.0068224
0.0128269
0.00467465
0.0182142
0.0264699
0.0243621
0.0217117
0.018897
0.0164854
0.0146902
0.0136511
0.0131789
0.0128945
0.0125036
0.0117295
0.0101582
0.0078141
0.00518197
0.00388863
0.00343674
0.00334618
0.00329029
0.00312768
0.00285656
0.00255609
0.00230517
0.00215119
0.00210118
0.00213208
0.00221601
0.00233773
0.0024934
0.00268406
0.00291104
0.00317245
0.00349116
0.00390249
0.0044487
0.00509686
0.00569428
0.00606544
0.00624464
0.00407911
0.00715839
0.0110629
0.0135336
0.0148093
0.0155213
0.0158395
0.0155472
0.014649
0.0133979
0.0117088
0.00882217
0.00584958
0.00402944
0.00322754
0.00288846
0.00270915
0.00253637
0.00232465
0.0020959
0.00189039
0.00175135
0.00169028
0.0016939
0.00174338
0.00182563
0.00193558
0.00207448
0.00224884
0.00247119
0.00276467
0.00313046
0.00356644
0.00405028
0.00448953
0.00471166
0.00457276
0.00410817
0.0026413
0.00805084
0.0195569
0.0217751
0.0217105
0.0209619
0.0186939
0.01554
0.0121592
0.00892778
0.006261
0.00433894
0.00324077
0.00268954
0.00238297
0.00217977
0.00200099
0.00181636
0.00163453
0.00148121
0.0013749
0.00131732
0.00130823
0.00133957
0.00140559
0.00150463
0.00163813
0.00180944
0.00202295
0.00228934
0.00261838
0.00301885
0.00349157
0.00401018
0.00450687
0.00481054
0.00509385
0.0042907
0.00271075
0.00891206
0.00936017
0.00977593
0.0121042
0.0108112
0.0084877
0.00606208
0.00441619
0.0035229
0.00275957
0.00215872
0.00173964
0.0014179
0.00119865
0.00105828
0.000961397
0.00088681
0.000825098
0.000775941
0.000743787
0.000732181
0.000741262
0.000768656
0.000809431
0.000862209
0.00092673
0.0010037
0.0010948
0.00120308
0.001334
0.001491
0.00167605
0.00189353
0.00214842
0.00244539
0.00282664
0.00300097
0.00287866
0.00249057
0.00213036
)
;

boundaryField
{
    floor
    {
        type            kqRWallFunction;
        value           nonuniform List<scalar> 
36
(
0.00188506
0.000459813
0.000631721
0.000812855
0.000885042
0.000857995
0.000751002
0.000640949
0.000549925
0.000476771
0.000417494
0.000368976
0.000328993
0.000295479
0.00026654
0.000240482
0.000215672
0.000201432
0.000170048
0.000170048
0.00029274
0.000408385
0.000541575
0.000967705
0.00108503
0.00128233
0.00188506
0.00328562
0.00226284
0.00150512
0.000459813
0.00150512
0.000451736
0.0021053
0.0010669
0.00279064
)
;
    }
    ceiling
    {
        type            kqRWallFunction;
        value           nonuniform List<scalar> 
43
(
0.00891206
0.00936017
0.00977593
0.0121042
0.0108112
0.0084877
0.00606208
0.00441619
0.0035229
0.00275957
0.00215872
0.00173964
0.0014179
0.00119865
0.00105828
0.000961397
0.00088681
0.000825098
0.000775941
0.000743787
0.000732181
0.000741262
0.000768656
0.000809431
0.000862209
0.00092673
0.0010037
0.0010948
0.00120308
0.001334
0.001491
0.00167605
0.00189353
0.00214842
0.00244539
0.00282664
0.00300097
0.00287866
0.00249057
0.00213036
0.0182142
0.0264699
0.00805084
)
;
    }
    sWall
    {
        type            kqRWallFunction;
        value           uniform 0.00891206;
    }
    nWall
    {
        type            kqRWallFunction;
        value           nonuniform List<scalar> 6(0.00128233 0.00137978 0.00195026 0.0026413 0.00271075 0.00213036);
    }
    sideWalls
    {
        type            empty;
    }
    glass1
    {
        type            kqRWallFunction;
        value           nonuniform List<scalar> 9(0.00227933 0.00413824 0.00611286 0.00837791 0.0110612 0.014347 0.0179934 0.0189547 0.0182142);
    }
    glass2
    {
        type            kqRWallFunction;
        value           nonuniform List<scalar> 2(0.00467465 0.00407911);
    }
    sun
    {
        type            kqRWallFunction;
        value           nonuniform List<scalar> 
14
(
0.00227933
0.00270127
0.00282603
0.00310356
0.00337082
0.00363421
0.00390789
0.00419541
0.00443777
0.00459302
0.00460968
0.00444192
0.00404542
0.00326263
)
;
    }
    Table_master
    {
        type            kqRWallFunction;
        value           nonuniform List<scalar> 9(0.00135821 0.00104042 0.000808255 0.000641672 0.000521234 0.000432819 0.00036699 0.000317728 0.000281874);
    }
    Table_slave
    {
        type            kqRWallFunction;
        value           nonuniform List<scalar> 9(0.00172671 0.00145033 0.00127535 0.00115307 0.00105436 0.000961013 0.000876347 0.000791157 0.000697185);
    }
    inlet
    {
        type            turbulentIntensityKineticEnergyInlet;
        intensity       0.05;
        value           uniform 0.000937501;
    }
    outlet
    {
        type            zeroGradient;
    }
}


// ************************************************************************* //
