/*--------------------------------*- C++ -*----------------------------------*\
  =========                 |
  \\      /  F ield         | OpenFOAM: The Open Source CFD Toolbox
   \\    /   O peration     | Website:  https://openfoam.org
    \\  /    A nd           | Version:  6
     \\/     M anipulation  |
\*---------------------------------------------------------------------------*/
FoamFile
{
    version     2.0;
    format      ascii;
    class       volScalarField;
    location    "590";
    object      nut;
}
// * * * * * * * * * * * * * * * * * * * * * * * * * * * * * * * * * * * * * //

dimensions      [0 2 -1 0 0 0 0];

internalField   nonuniform List<scalar> 
458
(
0.00107213
0.00116715
0.0011938
0.00125105
0.0013038
0.00135378
0.00140383
0.00145456
0.00149598
0.00152192
0.00152468
0.00149668
0.00142832
0.00128271
0.000975003
0.000481542
0.000564425
0.00064025
0.000668075
0.000657787
0.000615409
0.000568532
0.000526617
0.000490341
0.000458847
0.000431362
0.000407321
0.000386017
0.000366627
0.000348245
0.000329792
0.000318719
0.00029284
0.00144461
0.0032552
0.00300426
0.00344274
0.00388076
0.00433098
0.00473432
0.00504732
0.0053684
0.00566844
0.00590858
0.00605355
0.00606485
0.0058486
0.00474301
0.00128722
0.00106824
0.000871222
0.000477294
0.00113432
0.00165459
0.00205733
0.00218461
0.00159068
0.00134209
0.00117295
0.00104808
0.000952509
0.000876697
0.000811625
0.000750511
0.000689454
0.000634822
0.000589162
0.000720569
0.000384225
0.00175577
0.00437638
0.00361654
0.00440662
0.00474123
0.0049766
0.00515764
0.00532555
0.00555809
0.0058402
0.0061482
0.00644935
0.00668471
0.00676195
0.00636623
0.00518868
0.00392808
0.00103039
0.000733511
0.00126741
0.00184737
0.00242479
0.00259046
0.000827611
0.000724349
0.000638436
0.000568852
0.000512696
0.000467193
0.0004302
0.000400287
0.000377026
0.000417712
0.000483969
0.000846245
0.000453816
0.00205548
0.00558703
0.00352092
0.00456626
0.00475027
0.00473403
0.00471914
0.00480052
0.00498986
0.00526952
0.005625
0.00602077
0.00636344
0.00657382
0.00652081
0.00618135
0.00530257
0.00291038
0.0011863
0.00150559
0.00207005
0.00276481
0.00336931
0.00340225
0.000933151
0.000855217
0.000801968
0.000762555
0.000729187
0.000696158
0.000664785
0.000631648
0.00059295
0.000558265
0.000550191
0.0010089
0.000522606
0.00236182
0.00721466
0.00369427
0.00433634
0.00459867
0.00444564
0.00432142
0.00439452
0.00459322
0.00488408
0.0052681
0.0057028
0.00603717
0.00620091
0.00619328
0.00607295
0.00572039
0.00472893
0.00427698
0.0043101
0.00456397
0.0048669
0.00505458
0.00497478
0.00424586
0.00386932
0.00366089
0.00351133
0.00336005
0.00316377
0.00283421
0.00241085
0.00192996
0.00146735
0.0011006
0.00102654
0.000888966
0.000698581
0.000739718
0.000804163
0.00268983
0.00904809
0.00505583
0.00401942
0.0043791
0.0043747
0.00421319
0.00427505
0.00447575
0.00476669
0.00515676
0.00557285
0.00588332
0.00597861
0.00588101
0.00574492
0.00568311
0.00559912
0.00576327
0.00605602
0.00626399
0.00630512
0.006172
0.00588729
0.00548592
0.00515815
0.00490175
0.00467508
0.00445191
0.00421445
0.00390723
0.00348859
0.00296116
0.00236666
0.00181802
0.00131937
0.00108329
0.000943921
0.00118808
0.000834161
0.00301232
0.0104315
0.00753045
0.00494315
0.00430882
0.00437467
0.00442524
0.00445198
0.00456465
0.00482255
0.00520791
0.005621
0.00590492
0.00593105
0.00574861
0.00562026
0.00583682
0.00631133
0.00679525
0.00707277
0.00707851
0.00684946
0.00645705
0.00597674
0.00549519
0.00510425
0.0048055
0.00456186
0.00434816
0.00415617
0.00398165
0.00375437
0.00338469
0.00289307
0.00238378
0.00189571
0.0015768
0.00144372
0.00137547
0.000991723
0.00309174
0.00967121
0.00821753
0.00690726
0.0059088
0.00546985
0.00503993
0.00475064
0.0047474
0.00499751
0.00539874
0.00580722
0.00604377
0.00598057
0.00575908
0.00582021
0.00643569
0.00693694
0.00720187
0.00719654
0.00691846
0.0064318
0.00582916
0.00521702
0.00470353
0.00433963
0.00409192
0.00391298
0.00377993
0.00368952
0.00364784
0.0036469
0.00354754
0.00325634
0.00297308
0.0028151
0.00288291
0.00304157
0.00360935
0.00153539
0.00303074
0.0036536
0.0040344
0.00424644
0.00427726
0.00421302
0.00421794
0.00440109
0.0047704
0.00524253
0.00572288
0.00609316
0.00620149
0.00597717
0.00592761
0.00624056
0.00659995
0.00672491
0.00664047
0.00633491
0.00581613
0.00517028
0.00451988
0.00398097
0.00360462
0.00336322
0.00320088
0.00307776
0.00297324
0.00287568
0.00277627
0.00266774
0.00256989
0.00248542
0.00242922
0.00239712
0.00233665
0.00221322
0.00206365
0.00143426
0.00133089
0.0023406
0.00321977
0.00391488
0.00455419
0.00518087
0.00568366
0.00602884
0.0062452
0.00626126
0.00603922
0.00577495
0.00578117
0.00589169
0.00581883
0.00559013
0.005225
0.00472991
0.00415909
0.00359604
0.00314404
0.00283811
0.00265023
0.00253523
0.00245937
0.00240455
0.00236284
0.00233224
0.00231514
0.00232076
0.00233436
0.00234648
0.00234707
0.00230982
0.00219526
0.00199371
0.00174403
0.00115413
0.00201495
0.00397058
0.00510901
0.00585361
0.00643381
0.00648855
0.00617109
0.00585281
0.00553174
0.00494963
0.00454791
0.00445367
0.00439632
0.00422846
0.00397046
0.00364733
0.00326673
0.00286534
0.00250371
0.00222535
0.00203247
0.00192198
0.00187104
0.00186101
0.00188045
0.00192212
0.00197992
0.00204654
0.00212453
0.00221357
0.00230863
0.00240187
0.00247769
0.00251559
0.00248018
0.00244929
0.00225753
0.0011692
0.00211999
0.00217263
0.00222036
0.00247065
0.00233497
0.0020689
0.00174846
0.00149234
0.00133289
0.00117968
0.00104338
0.000936642
0.000845605
0.000777484
0.000730542
0.000696302
0.000668747
0.000645059
0.000625549
0.00061245
0.000607654
0.00061141
0.000622605
0.000638904
0.000659405
0.000683632
0.000711455
0.00074304
0.000778921
0.000820206
0.000867128
0.000919366
0.000977195
0.00104089
0.0011105
0.00119393
0.0012302
0.00120487
0.00112071
0.00103651
)
;

boundaryField
{
    floor
    {
        type            nutkWallFunction;
        Cmu             0.09;
        kappa           0.41;
        E               9.8;
        value           nonuniform List<scalar> 
36
(
0.000117773
5.73519e-05
6.78872e-05
7.73594e-05
8.08004e-05
7.95302e-05
7.42719e-05
6.8404e-05
6.31069e-05
5.84804e-05
5.44292e-05
5.08651e-05
4.77239e-05
4.49207e-05
4.23521e-05
3.99008e-05
3.74232e-05
3.59276e-05
3.24051e-05
3.24051e-05
4.46832e-05
5.37777e-05
6.25962e-05
8.45522e-05
8.95826e-05
9.73974e-05
0.000117773
0.000154006
0.000128716
0.00010545
5.73519e-05
0.00010545
5.6806e-05
0.000124287
8.88262e-05
0.000142417
)
;
    }
    ceiling
    {
        type            nutkWallFunction;
        Cmu             0.09;
        kappa           0.41;
        E               9.8;
        value           nonuniform List<scalar> 
43
(
0.00024628
0.000251965
0.000257108
0.000283963
0.000269513
0.000240857
0.000205793
0.000177257
0.000159219
0.000141655
0.000125811
0.000113238
0.000102383
9.41713e-05
8.84634e-05
8.42725e-05
8.08821e-05
7.7954e-05
7.55327e-05
7.3902e-05
7.33037e-05
7.37723e-05
7.51665e-05
7.71912e-05
7.97289e-05
8.27157e-05
8.61302e-05
8.99873e-05
9.43455e-05
9.93309e-05
0.000104962
0.000111188
0.000118034
0.000125521
0.000133644
0.000143303
0.000147478
0.000144564
0.00013483
0.000125008
0.000343282
0.000407629
0.000234814
)
;
    }
    sWall
    {
        type            nutkWallFunction;
        Cmu             0.09;
        kappa           0.41;
        E               9.8;
        value           uniform 0.000246347;
    }
    nWall
    {
        type            nutkWallFunction;
        Cmu             0.09;
        kappa           0.41;
        E               9.8;
        value           nonuniform List<scalar> 6(9.7398e-05 0.000101011 0.000119751 0.000138715 0.000140459 0.000125015);
    }
    sideWalls
    {
        type            empty;
    }
    glass1
    {
        type            nutkWallFunction;
        Cmu             0.09;
        kappa           0.41;
        E               9.8;
        value           nonuniform List<scalar> 9(0.000129278 0.000172108 0.000206926 0.000239825 0.000272923 0.000307861 0.000341777 0.000350081 0.00034373);
    }
    glass2
    {
        type            nutkWallFunction;
        Cmu             0.09;
        kappa           0.41;
        E               9.8;
        value           nonuniform List<scalar> 2(0.000182189 0.000170799);
    }
    sun
    {
        type            nutkWallFunction;
        Cmu             0.09;
        kappa           0.41;
        E               9.8;
        value           nonuniform List<scalar> 
14
(
0.000129173
0.000140205
0.000143282
0.000149864
0.0001559
0.000161594
0.000167272
0.000173004
0.000177668
0.000180582
0.000180891
0.000177746
0.000170041
0.00015349
)
;
    }
    Table_master
    {
        type            nutkWallFunction;
        Cmu             0.09;
        kappa           0.41;
        E               9.8;
        value           nonuniform List<scalar> 9(0.000100221 8.77089e-05 7.7137e-05 6.84487e-05 6.13423e-05 5.55137e-05 5.0723e-05 4.68111e-05 4.37437e-05);
    }
    Table_slave
    {
        type            nutkWallFunction;
        Cmu             0.09;
        kappa           0.41;
        E               9.8;
        value           nonuniform List<scalar> 9(0.000112822 0.000103535 9.71324e-05 9.23614e-05 8.82994e-05 8.42569e-05 8.03958e-05 7.62937e-05 7.14701e-05);
    }
    inlet
    {
        type            calculated;
        value           uniform 0.000167705;
    }
    outlet
    {
        type            calculated;
        value           nonuniform List<scalar> 2(0.00211999 0.00217263);
    }
}


// ************************************************************************* //
