/*--------------------------------*- C++ -*----------------------------------*\
  =========                 |
  \\      /  F ield         | OpenFOAM: The Open Source CFD Toolbox
   \\    /   O peration     | Website:  https://openfoam.org
    \\  /    A nd           | Version:  6
     \\/     M anipulation  |
\*---------------------------------------------------------------------------*/
FoamFile
{
    version     2.0;
    format      ascii;
    class       surfaceScalarField;
    location    "590";
    object      phi;
}
// * * * * * * * * * * * * * * * * * * * * * * * * * * * * * * * * * * * * * //

dimensions      [1 0 -1 0 0 0 0];

internalField   nonuniform List<scalar> 
850
(
-0.00305538
0.00311578
-0.00415205
0.00109667
-0.00502258
0.000870536
-0.0057115
0.00068892
-0.0061825
0.000470996
-0.00640151
0.000219009
-0.00632882
-7.26929e-05
-0.00592043
-0.000408392
-0.00516528
-0.000755143
-0.00411586
-0.00104943
-0.00288481
-0.00123105
-0.00162554
-0.00125927
-0.000525457
-0.00110008
0.000141792
-0.00066725
0.000144134
-0.000924224
0.000927866
-0.000694336
-0.000229889
-6.67522e-05
-0.000627585
0.000537729
-0.000604482
0.000998862
-0.000461134
0.00125686
-0.000257996
0.0013658
-0.000108943
0.00141921
-5.34088e-05
0.00145021
-3.10037e-05
0.00146572
-1.55111e-05
0.00146958
-3.8648e-06
0.00146299
6.59225e-06
0.00144022
2.27701e-05
0.00138217
5.80465e-05
0.00125662
0.000125543
0.00105295
0.000203673
0.000794612
0.000258334
0.000799431
-0.0022087
0.00548775
-0.00329823
0.00218619
-0.00421186
0.00178417
-0.00490926
0.00138632
-0.00538953
0.000951266
-0.00563027
0.000459748
-0.00559091
-0.000112047
-0.00523238
-0.000766929
-0.00455453
-0.00143299
-0.00362714
-0.00197682
-0.00257073
-0.00228746
-0.00152447
-0.00230553
-0.0006137
-0.00201085
0.000106063
-0.00138701
0.000884801
-0.000634604
0.0011548
-0.000266229
0.000957632
0.000201508
0.000970272
3.62325e-05
0.000902598
0.000417096
-0.000610754
0.000784565
-0.000995055
0.00109867
-0.00091859
0.00135016
-0.000712627
0.00140687
-0.000314702
0.00141504
-0.000117113
0.00142574
-6.41153e-05
0.00143481
-4.00699e-05
0.00144009
-2.07967e-05
0.00144249
-6.26493e-06
0.00144216
6.91965e-06
0.00143674
2.81892e-05
0.00140032
9.447e-05
0.00124764
0.000278222
0.000979395
0.000471912
0.000645192
0.000592535
0.00145696
-0.00156259
0.00730058
-0.00251096
0.00313457
-0.00334313
0.00261633
-0.00396481
0.002008
-0.00441089
0.00139734
-0.00465721
0.000706068
-0.00464819
-0.000121066
-0.00432228
-0.00109284
-0.00369679
-0.00205848
-0.00286987
-0.00280374
-0.0019669
-0.00319043
-0.00110385
-0.00316858
-0.000356596
-0.00275811
0.000257091
-0.0020007
0.000766741
-0.00114425
0.000911689
-0.000411177
0.000716709
0.000396488
0.00169819
0.00143829
-0.000521874
0.00163503
-0.000807498
0.00157826
-0.000938286
0.00161186
-0.000952195
0.00181543
-0.000916193
0.00150088
0.00138392
0.00131996
0.00128004
0.00125939
0.00125328
0.00126035
0.0012887
0.00138332
0.00115664
0.000504899
0.000868456
0.000760094
0.000498514
0.000962476
0.001974
-0.00109499
0.00872002
-0.00185085
0.00389043
-0.00243394
0.00319943
-0.00287849
0.00245254
-0.0032216
0.00174045
-0.00343209
0.000916556
-0.00343007
-0.000123095
-0.00310617
-0.00141674
-0.00252716
-0.00263749
-0.00182419
-0.00350671
-0.00110866
-0.00390595
-0.000460371
-0.00381688
8.43709e-05
-0.00330285
0.000544243
-0.00246058
0.000918963
-0.00151898
0.00113502
-0.000627234
0.0013197
0.00021181
0.00227589
0.000741994
0.00218023
0.00010755
0.00200939
-0.000351037
0.00192151
-0.000719622
0.0018083
-0.000825071
0.00167378
-0.000817677
0.00144016
-0.000682573
0.0017631
-0.000323096
0.00193946
-0.00017652
0.00206892
-0.000129613
0.0021682
-9.94333e-05
0.00222705
-5.90051e-05
0.00222348
3.41436e-06
0.00212994
9.33836e-05
0.00191008
0.000219705
0.00150398
0.000405942
0.00126656
0.000742315
0.000899964
0.00112669
0.000383929
0.00147851
0.0023815
-0.000755321
0.00986284
-0.00132452
0.00445963
-0.00150534
0.00338024
-0.00168147
0.00262867
-0.00184353
0.00190251
-0.00194952
0.00102255
-0.00189724
-0.000175377
-0.00153413
-0.00177984
-0.00103173
-0.00313989
-0.000514122
-0.00402432
-5.10495e-05
-0.00436902
0.000325625
-0.00419355
0.000615409
-0.00359264
0.000867079
-0.00271225
0.00108513
-0.00173703
0.00129169
-0.000833795
0.00160177
-9.82713e-05
0.00204506
0.000298709
0.00207814
7.44631e-05
0.00201005
-0.000282942
0.00182454
-0.000534113
0.00163464
-0.00063517
0.00145501
-0.000638056
0.00132368
-0.000551241
0.00138019
-0.000379609
0.00146619
-0.000262519
0.00154863
-0.000212053
0.00162835
-0.000179156
0.00169721
-0.00012787
0.00173539
-3.47715e-05
0.00171896
0.000109812
0.00163289
0.000305775
0.00148128
0.000557556
0.00132592
0.000897672
0.00114782
0.00130478
0.000802499
0.00182383
0.00102071
0.00216329
-0.00109187
0.00213363
-0.00179
0.000717689
-0.00171738
-0.000638107
0.0109415
-0.00101175
0.00483327
-0.00062915
0.00299764
-0.000440715
0.00244023
-0.000371729
0.00183352
-0.000285979
0.000936796
-2.79385e-05
-0.000433418
0.000360573
-0.00216836
0.00071787
-0.00349719
0.000975694
-0.00428215
0.00111581
-0.00450914
0.00116392
-0.00424167
0.00115594
-0.00358465
0.00113109
-0.0026874
0.0011142
-0.00172015
0.00114533
-0.00086493
0.00128164
-0.000234575
0.00149582
8.45219e-05
0.0015469
2.33881e-05
0.00144823
-0.000184281
0.00127267
-0.000358546
0.00109111
-0.000453614
0.000931425
-0.000478374
0.000823907
-0.000443725
0.00081083
-0.000366534
0.000858191
-0.000309882
0.000932584
-0.000286448
0.00102197
-0.000268541
0.00111984
-0.000225741
0.0012162
-0.000131133
0.00128902
3.6987e-05
0.00132655
0.000268239
0.00134268
0.000541428
0.00137758
0.000862762
0.00147886
0.00120351
0.001683
0.0016197
0.00203497
0.00181131
0.00233533
0.00183326
0.00182898
0.00122404
0.000176917
-0.000761166
0.0121898
-0.000617696
0.0046898
0.000497595
0.00188235
0.000970526
0.0019673
0.00123399
0.00157005
0.00162346
0.000547334
0.00213195
-0.000941917
0.00246668
-0.00250309
0.00259875
-0.00362926
0.00252756
-0.00421095
0.00229016
-0.00427174
0.00194976
-0.00390127
0.00157011
-0.003205
0.00120943
-0.00232672
0.000904347
-0.00141506
0.000712104
-0.000672688
0.000660179
-0.000182652
0.000711221
3.34793e-05
0.000719133
1.54744e-05
0.000642272
-0.000107422
0.000513845
-0.00023012
0.000372016
-0.000311787
0.000244341
-0.000350701
0.000156488
-0.000355874
0.000132051
-0.000342098
0.000159911
-0.000337744
0.000218688
-0.000345227
0.000298589
-0.000348444
0.000400461
-0.000327615
0.000529271
-0.000259945
0.000682065
-0.000115809
0.000840151
0.000110151
0.00100279
0.000378787
0.00120521
0.000660339
0.00148025
0.000928464
0.00188079
0.00121916
0.00241467
0.00127743
0.00318174
0.00106618
0.00335742
0.00104835
0.003603
0.00273929
0.00999362
0.00339713
0.00403196
0.00345898
0.0018205
0.00355119
0.00187509
0.00377027
0.00135098
0.00425368
6.3921e-05
0.00472524
-0.00141348
0.00481603
-0.00259387
0.00453575
-0.00334898
0.00397571
-0.00365091
0.00323836
-0.0035344
0.00242894
-0.00309185
0.00162883
-0.00240488
0.00092139
-0.00161929
0.000345965
-0.000839635
-3.37151e-06
-0.000323353
-0.000140976
-4.50489e-05
-0.000154746
4.72473e-05
-0.000162377
2.31033e-05
-0.000214793
-5.50073e-05
-0.000306196
-0.000138719
-0.000413166
-0.000204819
-0.000513136
-0.000250733
-0.000587879
-0.000281134
-0.000626072
-0.000303907
-0.000635246
-0.000328573
-0.000627155
-0.00035332
-0.000606333
-0.000369268
-0.000567973
-0.000365979
-0.000495816
-0.000332104
-0.000358676
-0.000252951
-0.000148928
-9.95986e-05
0.0001017
0.000128157
0.000386248
0.000375788
0.000704404
0.000610305
0.00108616
0.000837399
0.00150324
0.000860357
0.00189474
0.000674678
0.00120415
0.00173894
0.005093
0.0105923
0.0146201
0.0125666
0.00387404
0.0112478
0.00319388
0.0103718
0.00222697
0.00956641
0.000869311
0.00855787
-0.000404948
0.00737103
-0.00140703
0.00608895
-0.0020669
0.00476003
-0.00232198
0.00342127
-0.00219564
0.00215256
-0.00182314
0.000994984
-0.00124731
4.2476e-05
-0.000666781
-0.000577655
-0.000219506
-0.000868877
-3.21337e-05
-0.000964255
5.03274e-05
-0.000982313
6.53031e-05
-0.000996812
3.76006e-05
-0.00103983
-1.19958e-05
-0.00111205
-6.64942e-05
-0.00120074
-0.000116139
-0.00129198
-0.000159488
-0.00137686
-0.000196258
-0.00145313
-0.000227642
-0.00152765
-0.000254052
-0.00160977
-0.000271207
-0.00170822
-0.00027082
-0.00183272
-0.000241475
-0.00199616
-0.000168666
-0.00221393
-3.51894e-05
-0.00248043
0.000166899
-0.00280469
0.000452415
-0.00326848
0.000839577
-0.00398473
0.00132655
-0.00502456
0.00187723
-0.00650935
0.00234514
-0.00824546
0.00241078
-0.00776246
0.00125595
-0.00235311
0.00895265
0.00558104
0.00747313
0.0046734
0.00707826
0.00262184
0.0067253
0.00122228
0.00611043
0.000209931
0.00522993
-0.00052653
0.0041539
-0.000990867
0.00294897
-0.00111705
0.00165386
-0.000900532
0.00039408
-0.000563358
-0.000640513
-0.000212717
-0.00129442
-1.28798e-05
-0.0015814
6.74751e-05
-0.00169269
7.91555e-05
-0.00172046
7.80908e-05
-0.00172491
6.97501e-05
-0.00173894
5.16332e-05
-0.00177653
2.55907e-05
-0.00183922
-3.81132e-06
-0.00191977
-3.55851e-05
-0.00200998
-6.92861e-05
-0.00210773
-9.85028e-05
-0.00221448
-0.000120902
-0.00233372
-0.000134815
-0.00246768
-0.00013725
-0.00261536
-0.000123143
-0.00277141
-8.54208e-05
-0.00292364
-1.64449e-05
-0.00305662
9.77908e-05
-0.00316874
0.000279015
-0.00326986
0.000553539
-0.00337161
0.000941326
-0.00348046
0.00143539
-0.00356359
0.00196036
-0.00356138
0.00234293
-0.00330257
0.00215197
-0.00194374
-0.000102877
-0.00421373
-0.000828554
0.00646299
0.000727846
0.003117
0.00138083
0.00196886
0.00160713
0.000995988
0.00153289
0.000284169
0.00115469
-0.000148329
0.000466003
-0.000302184
-0.000425389
-0.000225665
-0.00129156
-3.43672e-05
-0.00192573
7.0815e-05
-0.00225554
0.000117091
-0.00238037
0.000111947
-0.0023993
8.64016e-05
-0.00238713
6.698e-05
-0.00236482
5.57816e-05
-0.00234325
4.81716e-05
-0.00233127
3.965e-05
-0.00233411
2.84364e-05
-0.0023523
1.43746e-05
-0.00238424
-3.65271e-06
-0.00243074
-2.27843e-05
-0.00249001
-3.92416e-05
-0.00256009
-5.08248e-05
-0.00263845
-5.6453e-05
-0.00272104
-5.46633e-05
-0.00280126
-4.29207e-05
-0.00286961
-1.7079e-05
-0.00291357
2.75108e-05
-0.00291261
9.68324e-05
-0.00284169
0.000208092
-0.0026663
0.000378144
-0.00235505
0.000630078
-0.00189987
0.000980209
-0.00128618
0.00134667
-0.000297888
0.00135464
0.00114682
0.00070726
0.00164141
-0.000597471
-0.00248086
-0.0120329
-0.0155641
-0.00906064
-0.00591632
-0.00392535
-0.002911
-0.0026121
-0.00274871
-0.00304123
-0.00325865
-0.0032856
-0.00320775
-0.00308378
-0.00296499
-0.00287175
-0.00279791
-0.00273526
-0.00268017
-0.00263358
-0.00259816
-0.0025768
-0.00257351
-0.00258943
-0.0026219
-0.00266607
-0.00271601
-0.00276431
-0.00280104
-0.00281209
-0.00277875
-0.00267629
-0.0024628
-0.00207948
-0.00144449
-0.000459656
0.000891258
0.00224986
0.00296099
0.00236751
)
;

boundaryField
{
    floor
    {
        type            calculated;
        value           nonuniform List<scalar> 
36
(
0
0
0
0
0
0
0
0
0
0
0
0
0
0
0
0
0
0
0
-4.82027e-06
-1.23421e-05
-1.85202e-05
-2.35774e-05
-2.10563e-05
-1.95555e-05
-1.83924e-05
-2.34327e-06
-3.76988e-06
-4.3418e-06
-5.02595e-06
-3.64338e-06
-7.61569e-06
-1.0966e-05
-1.1209e-05
-1.38163e-05
-1.1887e-05
)
;
    }
    ceiling
    {
        type            calculated;
        value           nonuniform List<scalar> 
43
(
-4.17896e-05
-4.1122e-05
-4.04211e-05
-2.73212e-05
-2.21134e-05
-1.83653e-05
-1.47381e-05
-1.17254e-05
-9.66692e-06
-8.24474e-06
-7.41925e-06
-7.03698e-06
-6.88136e-06
-6.8445e-06
-6.84688e-06
-6.85823e-06
-6.87875e-06
-6.91199e-06
-6.95217e-06
-6.98199e-06
-6.98289e-06
-6.94588e-06
-6.87273e-06
-6.77334e-06
-6.65319e-06
-6.51623e-06
-6.36506e-06
-6.20116e-06
-6.02469e-06
-5.83365e-06
-5.62761e-06
-5.40718e-06
-5.1706e-06
-4.91438e-06
-4.6311e-06
-4.24918e-06
-3.96657e-06
-3.8719e-06
-3.99302e-06
-3.40483e-06
6.95135e-06
4.19074e-06
-5.33948e-05
)
;
    }
    sWall
    {
        type            calculated;
        value           uniform -0.00024127;
    }
    nWall
    {
        type            calculated;
        value           nonuniform List<scalar> 6(-5.42269e-05 -6.53215e-05 -6.86571e-05 -8.31299e-05 -9.1463e-05 -0.000109949);
    }
    sideWalls
    {
        type            empty;
        value           nonuniform 0();
    }
    glass1
    {
        type            calculated;
        value           nonuniform List<scalar> 9(-6.04032e-05 -0.000163271 -0.000250244 -0.000324446 -0.000387507 -0.000440562 -0.000487085 -0.000543146 -0.000605676);
    }
    glass2
    {
        type            calculated;
        value           nonuniform List<scalar> 2(-0.000285855 -0.000316354);
    }
    sun
    {
        type            calculated;
        value           uniform 0;
    }
    Table_master
    {
        type            calculated;
        value           nonuniform List<scalar> 9(-1.53633e-07 -1.53783e-07 -1.53833e-07 -1.53863e-07 -1.53884e-07 -1.53896e-07 -1.539e-07 -1.53894e-07 -1.53865e-07);
    }
    Table_slave
    {
        type            calculated;
        value           nonuniform List<scalar> 9(1.53522e-07 1.53507e-07 1.53461e-07 1.53423e-07 1.53401e-07 1.53401e-07 1.53406e-07 1.53444e-07 1.53527e-07);
    }
    inlet
    {
        type            calculated;
        value           uniform -0.0106596;
    }
    outlet
    {
        type            calculated;
        value           nonuniform List<scalar> 2(0.0123159 0.0035723);
    }
}


// ************************************************************************* //
