/*--------------------------------*- C++ -*----------------------------------*\
  =========                 |
  \\      /  F ield         | OpenFOAM: The Open Source CFD Toolbox
   \\    /   O peration     | Website:  https://openfoam.org
    \\  /    A nd           | Version:  6
     \\/     M anipulation  |
\*---------------------------------------------------------------------------*/
FoamFile
{
    version     2.0;
    format      ascii;
    class       volScalarField;
    location    "590";
    object      T;
}
// * * * * * * * * * * * * * * * * * * * * * * * * * * * * * * * * * * * * * //

dimensions      [0 0 0 1 0 0 0];

internalField   nonuniform List<scalar> 
458
(
302.742
302.464
302.451
302.447
302.444
302.44
302.437
302.432
302.425
302.417
302.409
302.404
302.408
302.423
302.464
302.608
302.586
302.578
302.584
302.591
302.596
302.602
302.607
302.613
302.618
302.623
302.629
302.634
302.639
302.644
302.65
302.658
302.682
302.928
302.497
302.472
302.473
302.474
302.475
302.472
302.467
302.453
302.43
302.406
302.392
302.393
302.407
302.428
302.438
302.448
302.47
302.614
302.564
302.56
302.568
302.578
302.582
302.584
302.586
302.588
302.59
302.592
302.594
302.596
302.599
302.604
302.612
302.624
302.665
303.124
302.542
302.502
302.511
302.524
302.534
302.538
302.534
302.509
302.464
302.416
302.385
302.382
302.402
302.423
302.435
302.443
302.462
302.572
302.551
302.553
302.568
302.587
302.587
302.588
302.588
302.589
302.59
302.59
302.591
302.592
302.593
302.598
302.604
302.615
302.659
303.325
302.6
302.534
302.552
302.581
302.609
302.628
302.629
302.588
302.511
302.429
302.377
302.372
302.399
302.427
302.444
302.451
302.46
302.469
302.487
302.516
302.55
302.584
302.615
302.639
302.656
302.67
302.682
302.691
302.698
302.704
302.708
302.71
302.682
302.653
302.635
302.661
303.522
302.675
302.568
302.584
302.628
302.677
302.721
302.732
302.67
302.555
302.438
302.368
302.362
302.397
302.438
302.466
302.476
302.482
302.496
302.522
302.557
302.596
302.635
302.67
302.699
302.721
302.737
302.75
302.759
302.763
302.762
302.758
302.749
302.727
302.693
302.661
302.663
302.753
302.833
302.834
303.7
302.773
302.622
302.614
302.654
302.713
302.788
302.813
302.722
302.573
302.434
302.356
302.352
302.399
302.459
302.503
302.525
302.536
302.557
302.588
302.626
302.666
302.705
302.738
302.764
302.784
302.798
302.807
302.813
302.813
302.807
302.797
302.782
302.759
302.728
302.692
302.677
302.716
302.745
302.787
303.856
302.936
302.766
302.715
302.724
302.768
302.849
302.848
302.728
302.551
302.399
302.325
302.34
302.411
302.497
302.56
302.596
302.617
302.642
302.674
302.71
302.746
302.779
302.806
302.826
302.841
302.85
302.854
302.855
302.852
302.843
302.828
302.81
302.787
302.759
302.726
302.706
302.713
302.727
302.758
304.087
303.4
303.202
303.06
302.986
302.975
302.983
302.873
302.664
302.448
302.306
302.27
302.333
302.447
302.564
302.644
302.687
302.71
302.735
302.763
302.793
302.822
302.846
302.864
302.876
302.884
302.887
302.887
302.884
302.878
302.869
302.855
302.837
302.817
302.795
302.773
302.761
302.767
302.787
302.939
304.417
304.099
303.852
303.611
303.419
303.284
303.072
302.727
302.398
302.193
302.14
302.21
302.366
302.535
302.682
302.746
302.777
302.798
302.819
302.841
302.863
302.882
302.896
302.906
302.911
302.913
302.912
302.909
302.906
302.901
302.897
302.895
302.896
302.901
302.914
302.938
302.973
303.01
303.039
303.105
297.633
299.34
300.39
300.831
300.996
301.183
301.415
301.693
301.985
302.261
302.542
302.716
302.798
302.834
302.854
302.87
302.887
302.902
302.914
302.924
302.93
302.934
302.935
302.935
302.935
302.934
302.934
302.934
302.935
302.936
302.94
302.948
302.962
302.983
303.01
303.038
303.063
303.086
297.991
299.408
300.256
300.701
301.028
301.378
301.748
302.136
302.463
302.664
302.788
302.853
302.883
302.901
302.914
302.924
302.934
302.942
302.947
302.951
302.953
302.954
302.955
302.955
302.955
302.956
302.956
302.957
302.958
302.959
302.963
302.969
302.978
302.993
303.011
303.033
303.033
303.067
299.475
299.435
299.432
300.467
301.108
301.638
302.115
302.447
302.637
302.768
302.849
302.894
302.923
302.941
302.953
302.961
302.967
302.971
302.975
302.977
302.978
302.979
302.978
302.978
302.977
302.977
302.976
302.976
302.975
302.975
302.975
302.975
302.977
302.979
302.984
302.993
303.004
303.012
303.016
303.057
)
;

boundaryField
{
    floor
    {
        type            wallHeatTransfer;
        Tinf            uniform 305.2;
        alphaWall       uniform 0.24;
        value           nonuniform List<scalar> 
36
(
302.776
303.094
303.026
302.983
302.976
302.986
303.009
303.037
303.065
303.092
303.117
303.142
303.166
303.188
303.21
303.233
303.257
303.275
303.325
303.325
303.214
303.154
303.112
303.109
303.163
303.145
302.776
302.692
302.74
302.807
303.094
302.807
303.101
302.761
302.94
302.737
)
;
    }
    ceiling
    {
        type            wallHeatTransfer;
        Tinf            uniform 303.2;
        alphaWall       uniform 0.24;
        value           nonuniform List<scalar> 
43
(
299.704
299.662
299.655
300.615
301.227
301.737
302.194
302.508
302.688
302.81
302.887
302.93
302.958
302.976
302.987
302.995
303.001
303.006
303.01
303.012
303.014
303.014
303.013
303.012
303.011
303.01
303.008
303.007
303.005
303.004
303.003
303.002
303.002
303.003
303.006
303.013
303.023
303.031
303.035
303.072
304.36
304.064
298.323
)
;
    }
    sWall
    {
        type            wallHeatTransfer;
        Tinf            uniform 315.2;
        alphaWall       uniform 0.36;
        value           uniform 300.887;
    }
    nWall
    {
        type            wallHeatTransfer;
        Tinf            uniform 307.2;
        alphaWall       uniform 0.36;
        value           nonuniform List<scalar> 6(303.642 303.583 303.468 303.676 303.654 303.699);
    }
    sideWalls
    {
        type            empty;
    }
    glass1
    {
        type            wallHeatTransfer;
        Tinf            uniform 315.2;
        alphaWall       uniform 4.3;
        value           nonuniform List<scalar> 9(311.275 310.628 310.217 309.902 309.639 309.397 309.195 309.255 309.48);
    }
    glass2
    {
        type            wallHeatTransfer;
        Tinf            uniform 307.2;
        alphaWall       uniform 4.3;
        value           nonuniform List<scalar> 2(305.546 305.667);
    }
    sun
    {
        type            wallHeatTransfer;
        Tinf            uniform 305.2;
        alphaWall       uniform 0.24;
        value           nonuniform List<scalar> 
14
(
303.003
302.736
302.719
302.706
302.695
302.685
302.675
302.664
302.653
302.642
302.634
302.633
302.645
302.679
)
;
    }
    Table_master
    {
        type            zeroGradient;
    }
    Table_slave
    {
        type            zeroGradient;
    }
    inlet
    {
        type            fixedValue;
        value           uniform 295.15;
    }
    outlet
    {
        type            zeroGradient;
    }
}


// ************************************************************************* //
