/*--------------------------------*- C++ -*----------------------------------*\
  =========                 |
  \\      /  F ield         | OpenFOAM: The Open Source CFD Toolbox
   \\    /   O peration     | Website:  https://openfoam.org
    \\  /    A nd           | Version:  6
     \\/     M anipulation  |
\*---------------------------------------------------------------------------*/
FoamFile
{
    version     2.0;
    format      ascii;
    class       surfaceScalarField;
    location    "380";
    object      phi;
}
// * * * * * * * * * * * * * * * * * * * * * * * * * * * * * * * * * * * * * //

dimensions      [1 0 -1 0 0 0 0];

internalField   nonuniform List<scalar> 
850
(
-0.0032066
0.00327048
-0.00440471
0.00119811
-0.00531303
0.00090832
-0.00597806
0.000665024
-0.006351
0.000372937
-0.00638148
3.04813e-05
-0.00601107
-0.000370417
-0.00520361
-0.000807461
-0.00399944
-0.00120417
-0.00252759
-0.00147186
-0.00098721
-0.00154038
0.000341027
-0.00132824
0.00101845
-0.000677431
0.00103541
-1.69623e-05
0.00103848
-0.00101714
0.00102164
-0.000716982
-0.000300165
2.10221e-05
-0.00073801
0.000704514
-0.000683498
0.00121093
-0.000506426
0.00148664
-0.00027571
0.00160117
-0.000114542
0.00165637
-5.52059e-05
0.00168724
-3.08802e-05
0.00170131
-1.40792e-05
0.00170277
-1.46141e-06
0.00169259
1.01733e-05
0.00166376
2.8815e-05
0.00159457
6.91892e-05
0.00144819
0.00014637
0.00121214
0.000236045
0.000906112
0.000306015
0.00091199
-0.00232229
0.0057656
-0.00350041
0.00237623
-0.00445946
0.00186736
-0.00514868
0.00135424
-0.00555133
0.000775588
-0.00562447
0.000103619
-0.00531592
-0.000678973
-0.00460237
-0.00152102
-0.00355424
-0.00225229
-0.00232961
-0.0026965
-0.00112414
-0.00274585
-0.000100631
-0.00235175
0.000663409
-0.00144147
0.00118502
-0.000538582
0.00201093
0.000212573
0.00173633
0.00027973
0.00120909
0.000532956
0.00122541
3.54725e-05
0.000999786
0.000457502
-0.000722201
0.000864357
-0.00114487
0.00122143
-0.00104058
0.0015053
-0.000790295
0.00157056
-0.000340983
0.00157993
-0.000123919
0.00159095
-6.62327e-05
0.00160011
-4.00445e-05
0.00160529
-1.92734e-05
0.00160735
-3.52588e-06
0.00160626
1.12549e-05
0.0015991
3.59662e-05
0.00155725
0.000111032
0.00138298
0.000320629
0.00108423
0.000534789
0.000718611
0.000671626
0.00164573
-0.00164518
0.00767604
-0.00266822
0.00339926
-0.00355771
0.00275685
-0.00419346
0.00198999
-0.00459135
0.00117348
-0.00470226
0.000214526
-0.00444441
-0.000936828
-0.00379606
-0.00216938
-0.00287281
-0.00317554
-0.00184664
-0.00372267
-0.000882271
-0.00371022
-9.06161e-05
-0.00314341
0.000568776
-0.00210087
0.00109352
-0.00106333
0.00149576
-0.000189672
0.00140438
0.000371108
0.000974509
0.000962822
0.00221493
0.00151972
-0.000501982
0.00170785
-0.000910343
0.00164448
-0.0010815
0.00169373
-0.00108984
0.00192578
-0.00102236
0.00158495
0.00146117
0.00139509
0.00135519
0.00133607
0.00133269
0.00134409
0.0013802
0.00149138
0.00123053
0.000581469
0.000915119
0.00085019
0.000536877
0.00104986
0.00220534
-0.0011472
0.00916779
-0.00195634
0.00420839
-0.00260578
0.0034063
-0.00308474
0.00246895
-0.00341367
0.0015024
-0.00352884
0.000329688
-0.00328838
-0.00117729
-0.00268523
-0.00277253
-0.00190501
-0.00395577
-0.00110542
-0.00452226
-0.000397713
-0.00441793
0.000165534
-0.00370666
0.000653145
-0.00258849
0.0010377
-0.00144789
0.00131627
-0.000468243
0.00140887
0.000278498
0.00147367
0.000898024
0.00245206
0.00123653
0.00213555
0.000333035
0.00197971
-0.000346147
0.00191428
-0.000844923
0.00182354
-0.000990767
0.0017073
-0.000973599
0.00148337
-0.000798437
0.00185902
-0.000375806
0.00205884
-0.000199984
0.00219748
-0.000138803
0.00229477
-9.7458e-05
0.00233934
-4.47327e-05
0.00230995
2.92237e-05
0.00218129
0.000128498
0.00191764
0.000263488
0.00145677
0.000460699
0.00121707
0.000821159
0.000840019
0.00122723
0.000317932
0.00157194
0.00255238
-0.000778386
0.0103585
-0.00137589
0.00480589
-0.00161795
0.00364836
-0.00183733
0.00268832
-0.00200926
0.00167433
-0.00205467
0.000375086
-0.00176102
-0.00147094
-0.00121453
-0.00331901
-0.000640535
-0.00452976
-0.00013471
-0.00502809
0.000262537
-0.00481518
0.000558647
-0.00400278
0.000810792
-0.00284064
0.00100913
-0.00164623
0.00117758
-0.000636705
0.00134834
0.000107739
0.0016305
0.000615858
0.00208359
0.000783441
0.00211769
0.000298924
0.00205754
-0.000285997
0.00186308
-0.000650466
0.00166218
-0.000789874
0.00147381
-0.000785239
0.00133884
-0.000663479
0.00140848
-0.000445459
0.00150454
-0.000296048
0.00159168
-0.00022596
0.0016713
-0.000177086
0.00173432
-0.000107766
0.00175747
6.06244e-06
0.00171727
0.000168689
0.00160379
0.000376956
0.00142525
0.000639222
0.00125278
0.000993621
0.00106323
0.00141677
0.000668602
0.00196656
0.000897258
0.00232372
-0.00134887
0.00227193
-0.00202066
0.00069602
-0.00193728
-0.000639578
0.0114677
-0.00101433
0.00518064
-0.000665468
0.00329949
-0.000525124
0.00254797
-0.000488904
0.00163811
-0.000292822
0.000178999
0.000147303
-0.00191107
0.00056265
-0.00373436
0.000851858
-0.00481897
0.000994656
-0.00517088
0.0010243
-0.00484483
0.000989988
-0.00396847
0.000933078
-0.00278373
0.000878829
-0.00159198
0.000872449
-0.000630331
0.000959094
2.10893e-05
0.00116611
0.000408833
0.00146367
0.000485875
0.00158268
0.000179915
0.00149552
-0.00019885
0.00130657
-0.000461516
0.0011021
-0.000585418
0.000918706
-0.00060185
0.000794242
-0.000539025
0.000776877
-0.000428105
0.000827415
-0.000346598
0.000907846
-0.000306403
0.00100357
-0.000272823
0.0011055
-0.000209713
0.00119893
-8.73748e-05
0.00126191
0.000105691
0.00129038
0.000348473
0.00129857
0.00063102
0.00133035
0.000961833
0.00144122
0.00130588
0.00166426
0.00174351
0.00206407
0.0019239
0.00242432
0.00191167
0.0018997
0.00122062
3.51564e-05
-0.000750638
0.0127382
-0.000570887
0.00500089
0.000541724
0.00218688
0.000991237
0.00209846
0.0013347
0.00129464
0.00187818
-0.000364486
0.00235635
-0.00238924
0.00253936
-0.00391738
0.00246784
-0.00474744
0.00218535
-0.00488839
0.00177514
-0.00443463
0.00131983
-0.00351316
0.000887002
-0.00235091
0.000539895
-0.00124489
0.000341644
-0.000432087
0.000327946
3.47808e-05
0.000466909
0.000269865
0.000662225
0.000290552
0.000738689
0.000103443
0.000669909
-0.000130077
0.000519185
-0.000310801
0.000343513
-0.000409757
0.000182556
-0.000440904
7.09206e-05
-0.000427401
3.71372e-05
-0.000394334
6.70186e-05
-0.000376492
0.000134482
-0.00037388
0.000227264
-0.000365618
0.000345783
-0.000328245
0.000494343
-0.000235949
0.000657184
-5.71639e-05
0.000818679
0.000186964
0.000989911
0.000459775
0.00120491
0.000746823
0.00149889
0.00101189
0.00193374
0.00130864
0.00252538
0.00133225
0.00340454
0.0010325
0.0036651
0.000960056
0.00377614
0.00295073
0.010367
0.00366529
0.00428633
0.00352746
0.0023247
0.00362734
0.00199857
0.00410945
0.000812526
0.00473166
-0.000986711
0.00492889
-0.00258647
0.00467142
-0.0036599
0.00405002
-0.00412604
0.00319245
-0.00403082
0.00223991
-0.0034821
0.00130341
-0.00257667
0.00048343
-0.00153094
-9.68421e-05
-0.000664624
-0.000376041
-0.000152896
-0.000423177
8.19084e-05
-0.000335963
0.000182643
-0.000219734
0.000174314
-0.000181652
6.53522e-05
-0.000238619
-7.31209e-05
-0.000358725
-0.000190706
-0.000500846
-0.000267649
-0.000631327
-0.000310437
-0.000726054
-0.000332688
-0.000772564
-0.000347838
-0.000781792
-0.000367278
-0.000768399
-0.000387287
-0.000737543
-0.000396489
-0.000682884
-0.000382918
-0.000584898
-0.000333949
-0.000408983
-0.000233094
-0.000172549
-4.94833e-05
9.42169e-05
0.000192994
0.000396921
0.000444106
0.000721431
0.000687363
0.00110408
0.000925979
0.00150701
0.000929306
0.00186212
0.000677373
0.00106732
0.00175484
0.00516721
0.011011
0.0152975
0.0126679
0.00495433
0.0112999
0.00336656
0.0103393
0.00177318
0.00928617
6.63744e-05
0.00797941
-0.00127971
0.00652507
-0.00220556
0.00498197
-0.00258293
0.00340533
-0.00245418
0.00191066
-0.00198743
0.000554288
-0.00122031
-0.000441057
-0.000535609
-0.000977067
-0.000128626
-0.00117247
4.24998e-05
-0.00120232
0.000111743
-0.00115472
0.000135033
-0.00109781
0.000117399
-0.00108867
5.61984e-05
-0.00113798
-2.38296e-05
-0.00122985
-9.88463e-05
-0.00133976
-0.000157753
-0.00144828
-0.000201931
-0.0015452
-0.000235778
-0.00163004
-0.00026302
-0.00171241
-0.000284915
-0.0018032
-0.000296519
-0.00191154
-0.000288157
-0.00204711
-0.000247366
-0.00222222
-0.000158848
-0.00245418
-1.15071e-06
-0.00273117
0.000227494
-0.00308349
0.000545303
-0.00361407
0.000974673
-0.00443402
0.0015073
-0.00560203
0.00209398
-0.00722891
0.00255618
-0.00909449
0.00254293
-0.00847313
0.00113347
-0.0029471
0.00922342
0.00728382
0.00734063
0.00524937
0.00676071
0.00235313
0.00623463
0.000592486
0.00539039
-0.000435442
0.00427841
-0.00109356
0.00292924
-0.00123376
0.00141617
-0.000941125
-3.03874e-05
-0.000540896
-0.00111326
-0.000137452
-0.00167992
3.10351e-05
-0.00190397
9.5411e-05
-0.00196641
0.000104924
-0.00195832
0.000103642
-0.00192289
9.95897e-05
-0.00189059
8.5088e-05
-0.00188772
5.33214e-05
-0.00192073
9.16455e-06
-0.00197841
-4.1187e-05
-0.00205163
-8.45396e-05
-0.002136
-0.00011758
-0.00223172
-0.000140076
-0.00234231
-0.000152445
-0.0024722
-0.000155035
-0.00262244
-0.000146292
-0.00278865
-0.00012196
-0.00296029
-7.5743e-05
-0.00311578
-3.37627e-06
-0.00323865
0.000121706
-0.00333831
0.00032715
-0.00343075
0.000637721
-0.00353133
0.00107525
-0.00365127
0.00162722
-0.0037433
0.00218599
-0.00370864
0.00252151
-0.00333529
0.00216957
-0.00192437
-0.000277464
-0.00477903
-0.000681773
0.00803009
0.000980822
0.00358679
0.00147959
0.00185438
0.00145861
0.000613471
0.00107969
-5.65183e-05
0.000302753
-0.000316638
-0.000717695
-0.000213339
-0.00166083
1.98488e-06
-0.00230455
0.000102809
-0.00258767
0.000145657
-0.00268158
0.000124932
-0.00268084
9.46495e-05
-0.00265136
7.54317e-05
-0.00261131
6.35831e-05
-0.00256628
5.45473e-05
-0.00252314
4.1928e-05
-0.00249229
2.24593e-05
-0.00248201
-1.13359e-06
-0.00248823
-3.49839e-05
-0.002509
-6.37769e-05
-0.00254364
-8.29626e-05
-0.00259025
-9.34786e-05
-0.00264696
-9.57454e-05
-0.00271198
-9.00287e-05
-0.00278249
-7.57971e-05
-0.00285333
-5.11328e-05
-0.00291724
-1.1856e-05
-0.00296249
4.18636e-05
-0.00295664
0.00011584
-0.0028703
0.000240799
-0.00266572
0.000433129
-0.0023114
0.000720919
-0.00181314
0.00112894
-0.00116471
0.00153755
-0.000118716
0.00147551
0.00130478
0.000746055
0.00164949
-0.000622184
-0.00302787
-0.013424
-0.0172944
-0.00921178
-0.00558876
-0.00370383
-0.00306424
-0.00309819
-0.00339447
-0.00358886
-0.00356867
-0.00344801
-0.00328457
-0.00314176
-0.00302916
-0.00293574
-0.00285411
-0.0027814
-0.00272109
-0.00267994
-0.00266203
-0.00267766
-0.00272183
-0.00278501
-0.0028586
-0.00293444
-0.00300461
-0.0030607
-0.00309235
-0.00308505
-0.00302447
-0.00289043
-0.00263201
-0.00218191
-0.00144472
-0.000300241
0.00125186
0.00274139
0.0035015
0.00289403
)
;

boundaryField
{
    floor
    {
        type            calculated;
        value           nonuniform List<scalar> 
36
(
0
0
0
0
0
0
0
0
0
0
0
0
0
0
0
0
0
0
0
-5.88721e-06
-1.51417e-05
-2.27407e-05
-2.91183e-05
-2.58129e-05
-2.42408e-05
-2.29113e-05
-3.07086e-06
-5.13144e-06
-5.72373e-06
-6.49848e-06
-4.50256e-06
-9.82482e-06
-1.36281e-05
-1.50138e-05
-1.79541e-05
-1.65253e-05
)
;
    }
    ceiling
    {
        type            calculated;
        value           nonuniform List<scalar> 
43
(
-5.42261e-05
-5.33271e-05
-5.24892e-05
-3.62357e-05
-3.05669e-05
-2.61447e-05
-2.25931e-05
-2.03797e-05
-1.89678e-05
-1.82187e-05
-1.7864e-05
-1.7804e-05
-1.78886e-05
-1.7966e-05
-1.8009e-05
-1.8062e-05
-1.81774e-05
-1.83929e-05
-1.87069e-05
-1.90617e-05
-1.93668e-05
-1.96186e-05
-1.97986e-05
-1.9902e-05
-1.99266e-05
-1.98694e-05
-1.97265e-05
-1.9494e-05
-1.91667e-05
-1.87323e-05
-1.82172e-05
-1.76304e-05
-1.69844e-05
-1.62882e-05
-1.55485e-05
-1.45646e-05
-1.40401e-05
-1.40645e-05
-1.47263e-05
-1.48607e-05
1.95515e-06
-1.78866e-07
-6.44885e-05
)
;
    }
    sWall
    {
        type            calculated;
        value           uniform -0.000250043;
    }
    nWall
    {
        type            calculated;
        value           nonuniform List<scalar> 6(-6.04789e-05 -7.27472e-05 -7.58977e-05 -9.24526e-05 -0.00010168 -0.000118995);
    }
    sideWalls
    {
        type            empty;
        value           nonuniform 0();
    }
    glass1
    {
        type            calculated;
        value           nonuniform List<scalar> 9(-6.38887e-05 -0.000172829 -0.000265266 -0.000344543 -0.000412316 -0.000469611 -0.000519839 -0.000579563 -0.000646002);
    }
    glass2
    {
        type            calculated;
        value           nonuniform List<scalar> 2(-0.000323757 -0.000358824);
    }
    sun
    {
        type            calculated;
        value           uniform 0;
    }
    Table_master
    {
        type            calculated;
        value           nonuniform List<scalar> 9(-1.54384e-07 -1.54551e-07 -1.54604e-07 -1.54636e-07 -1.54655e-07 -1.54667e-07 -1.54668e-07 -1.54658e-07 -1.54622e-07);
    }
    Table_slave
    {
        type            calculated;
        value           nonuniform List<scalar> 9(1.54235e-07 1.54213e-07 1.54157e-07 1.54116e-07 1.54095e-07 1.54094e-07 1.54106e-07 1.54154e-07 1.54252e-07);
    }
    inlet
    {
        type            calculated;
        value           uniform -0.0115529;
    }
    outlet
    {
        type            calculated;
        value           nonuniform List<scalar> 2(0.0137283 0.00392365);
    }
}


// ************************************************************************* //
