/*--------------------------------*- C++ -*----------------------------------*=========                 |
  \      /  F ield         | OpenFOAM: The Open Source CFD Toolbox
   \    /   O peration     | Website:  https://openfoam.org
    \  /    A nd           | Version:  6
     \/     M anipulation  |
\*---------------------------------------------------------------------------*/
FoamFile
{
    version     2.0;
    format      ascii;
    class       volScalarField;
    location    "380";
    object      PMV;
}
// * * * * * * * * * * * * * * * * * * * * * * * * * * * * * * * * * * * * * //

dimensions      [0 0 0 0 0 0 0];

internalField   nonuniform List<scalar> 
458
(
1.3264002666361099
1.079917579495637
1.0465624169495304
1.017767724838342
0.9995994647018309
0.9915010334743548
0.99494084663388
1.0104115894253003
1.0413244968998652
1.0914478734494921
1.1646488349837703
1.2286318289715539
1.2443895861220353
1.252506902440058
1.2644437256764958
1.3875987740888414
1.3737591385074361
1.3699411425665453
1.3770998268207837
1.38282659337278
1.3866443470947047
1.3814329405892525
1.377863108160433
1.3786564353341035
1.3813350182895467
1.384174173709723
1.3877620136218287
1.392911940829289
1.3996833311189507
1.4108128321394642
1.4229092419870568
1.4281575214799689
1.4429472903034781
1.2587851609863299
1.0930082523837308
1.0803152427013099
1.0521074913851107
1.0356454975106772
1.0277720168061588
1.0297340729935889
1.0380511666631802
1.0528768790676792
1.0778318950959127
1.1195379237302303
1.1829151898495047
1.2424795976030125
1.252506902440058
1.2484151586083831
1.210272276000411
1.2146090749829772
1.240595039032555
1.3449484521777244
1.359441294074846
1.359441294074846
1.3680321182360107
1.3703911043270924
1.3706958412385994
1.371213966733722
1.3732259990605171
1.374374532646755
1.3751046617932525
1.3764707576355877
1.3777350567363054
1.3797760833935815
1.383346917231331
1.3928369218188774
1.40334614702745
1.4109807707191377
1.3969851705008165
1.2893255752328727
1.0851540115912428
1.1139837915893982
1.0995894288132482
1.0932632042024475
1.090153627929959
1.0902123076781565
1.085753586943434
1.0703488409291964
1.0579155629049353
1.0711283828951934
1.1241677623540904
1.219399354866297
1.259669055463824
1.2658761111523418
1.2649506480804742
1.260967297275806
1.2487353684968463
1.252712501805132
1.3120604631719317
1.3205646211751196
1.3304437231201842
1.3428735877521163
1.3473754897608514
1.3710934386478941
1.3875987740888414
1.388075985862517
1.3890304059557887
1.3899848214340407
1.3909392322856733
1.391893638499027
1.3933252390968522
1.3966655995842945
1.4009602639632914
1.3947656164991735
1.324281682054186
1.362846884321548
1.079377378237667
1.1384328135100188
1.1511139698539448
1.1699352842422515
1.1819238278839126
1.1835510954986792
1.1540442048623492
1.0924591729207183
1.0388547119342444
1.0307523103744671
1.083611812773732
1.177940153660958
1.2674913069156681
1.2801995613123178
1.2816318651181766
1.2464117093010942
1.2220873424827248
1.1759214082844138
1.2407055038349948
1.2786687192341002
1.3077936254227074
1.3410247906658
1.3779400185460933
1.4065751272400653
1.4026451861028033
1.399262613519632
1.3999530153947504
1.4029628359992454
1.4072921601829629
1.4159268751662748
1.430493332257359
1.4546349728467607
1.4516931057731706
1.4343598344629938
1.3765967376961252
1.2808482462226543
1.4562465074296282
1.0880265522216805
1.1567139673727316
1.1968374891167282
1.2545649648899317
1.302997629693787
1.3081931113604968
1.2242564851990811
1.1094575566022686
1.0211863096112905
1.0011772941474992
1.0572213352410347
1.1554341198480764
1.2577455926161545
1.3016833014976652
1.3026380928762362
1.2819331272032704
1.2540346114699537
1.254610269030613
1.2726187189293028
1.3064562961736819
1.3500105834222853
1.3947570937201164
1.4379834358037917
1.4715689956164788
1.4832909553093854
1.486700804310322
1.4883135946680692
1.4889653139359196
1.4872129857792997
1.486267197352169
1.4863549875992919
1.4855402055451379
1.4689017762817973
1.4393746383580677
1.363166061270301
1.360885089306076
1.3641048919286802
1.4493131016446656
1.329052928429635
1.5537657215451424
1.1189467925264587
1.1888229189498707
1.2300382223855786
1.3187874177077998
1.3914164359728682
1.4043258579050584
1.2469127227255237
1.1034879193734028
1.0022015990421018
0.9805595677225961
1.0426568132222813
1.1546468049586927
1.274364880626908
1.3322347785892934
1.336530763883388
1.3341441153160196
1.335576107444751
1.3421882326905297
1.3655373787139475
1.4023436382796852
1.4415160771909021
1.4715689956164788
1.4968472665921644
1.5159224216296605
1.5292735402118465
1.5383325068417961
1.5435768997528398
1.5464373925624235
1.5454839016723552
1.541193109737976
1.5345182771431474
1.518874725162059
1.4877519972885382
1.4491391134811988
1.376652216093122
1.3682506950475675
1.3629665620702769
1.3884354687661402
1.3971259147051134
1.64653385927748
1.2059999762046185
1.309866172143226
1.2910551867854374
1.3494219749158591
1.4305430521673403
1.3424437648217284
1.2142435142641035
1.0698658671723442
0.9704799846360457
0.9615650490959207
1.045543448794993
1.1827402512021494
1.3285681516946999
1.3742363830298638
1.3837810386419853
1.3837810386419853
1.3899848214340407
1.4095493024097758
1.4376994509896381
1.4682300530799877
1.4978010824038017
1.5230749622244348
1.54262338875168
1.556448637739326
1.565505777641754
1.5702724397102537
1.5721790549920929
1.5717024038377752
1.568365796058135
1.5616923215476963
1.5526349186190203
1.541193109737976
1.52438462427866
1.478882176710834
1.4151848392169197
1.3848230481851134
1.3638573205388052
1.3365608402780118
1.4412144331418535
1.7865221036848313
1.5774934066560093
1.5199872599574609
1.4058440352657522
1.3850607003081647
1.3699530070521084
1.2869900642093401
1.1334036332538333
0.9835072350313189
0.911015693404327
0.947793233984748
1.0812805317688676
1.260600134119479
1.3909392322856733
1.429111737592192
1.440084852211753
1.4439014257653333
1.4548735991433461
1.4763387928692318
1.5025700707267493
1.5283199305527055
1.5507280180535763
1.5678891307259464
1.5798052300645253
1.5869529481328823
1.5902890645645111
1.5912422240560595
1.5898124820411317
1.5869529481328823
1.5826635233343609
1.5764688350390073
1.5674124636298126
1.556448637739326
1.5435768997528398
1.528796736191339
1.513061306047543
1.5032238502600814
1.475410149003387
1.3981496727952227
1.311733343395948
1.9961243076082895
1.8499231225227486
1.689387941612821
1.548733533829986
1.4580805196568998
1.3797550771408178
1.1603974306760076
0.9329509324612303
0.8129231904850975
0.8329750492816854
0.9734529374667465
1.19737852625431
1.386167131877138
1.4596438856642615
1.4868318397687639
1.4982779880487265
1.5073389065993907
1.5206908216762764
1.539762815752189
1.5593088548683194
1.5764688350390073
1.5902890645645111
1.594908352341487
1.5913826153965795
1.5866058206534073
1.5803412241131605
1.5732012503054873
1.5642290091490805
1.5540049625564096
1.5424667223182682
1.5291656352342107
1.514111323874947
1.4994699766244923
1.4824070301778993
1.4624662681539935
1.4443934673738212
1.4332403248809333
1.4286926882896316
1.418920046798641
1.3883041841319694
-1.6923708022168016
-0.811619794742022
-0.27861564052819976
-0.09952512353934277
0.06956561328484724
0.29063293513054206
0.5718745293569859
0.877483442415868
1.1885177824778583
1.3990515360783062
1.4800298793592293
1.4935860779289738
1.503185990210645
1.512419781957935
1.5247792866965197
1.539099202922725
1.5532575693835602
1.5630987155062825
1.568694646306688
1.56988003188701
1.5677879961217616
1.5630339067862578
1.5569272864054557
1.549742728608575
1.5414155817913329
1.5326229310417347
1.524279055536011
1.5164866058474895
1.5107187318195012
1.5061568583653788
1.5029959137236957
1.5007716751414144
1.498551005115778
1.4985547577400702
1.5092738146528808
1.5461049707779544
1.6150522198588546
1.4641416653541957
-1.701593850738861
-0.626062057708892
-0.04040960775003957
0.2748725902162076
0.5159374492900682
0.8006176749337166
1.1097103831322725
1.3231652149393702
1.3978768571726323
1.4476949084396247
1.476022971919824
1.4926873225042967
1.5041248711471589
1.514074064527558
1.5235150524822265
1.5322365039399701
1.5394707520061368
1.5442403573929901
1.5477024489124425
1.5482372965690039
1.5472016992883142
1.5451686049955622
1.5422428384125877
1.5390381452349322
1.53520877094799
1.5323972261161276
1.5298391515839649
1.5280013400774195
1.5278200722120772
1.530118382256078
1.5364631445618044
1.5470117475945593
1.5591257973373571
1.5689822193143481
1.5798054884390456
1.6150937838574846
1.562388687141431
1.5061314272131812
-1.1242542490639662
-1.1251210568290375
-1.0009845669790163
-0.18544081716118552
0.4154088163829239
0.849331735509468
1.1419308560171568
1.2816259565806905
1.3673216298928763
1.4191261792801382
1.4528734810263135
1.4764637128838187
1.4914282313174636
1.5006678622873186
1.506651044471021
1.510980444341972
1.5134450164239932
1.513792030584544
1.5127027975411353
1.5099809803831743
1.5065314790076236
1.5034746003111872
1.4999644795504539
1.4976144783804513
1.4954779007627013
1.4942035433824026
1.4940143074804355
1.495252961625323
1.4984243476173122
1.5042468277016352
1.5132599450728288
1.5266991454352379
1.5496306160106563
1.589406546841036
1.6422250483829743
1.647941319591741
1.6193889671582558
1.5627747815747424
1.5130082047954507
1.5262679184571328
)
;

boundaryField
{
    ".*"
    {
        type            zeroGradient;
    }
}


// ************************************************************************* //
