/*--------------------------------*- C++ -*----------------------------------*=========                 |
  \      /  F ield         | OpenFOAM: The Open Source CFD Toolbox
   \    /   O peration     | Website:  https://openfoam.org
    \  /    A nd           | Version:  6
     \/     M anipulation  |
\*---------------------------------------------------------------------------*/
FoamFile
{
    version     2.0;
    format      ascii;
    class       volScalarField;
    location    "380";
    object      PPD;
}
// * * * * * * * * * * * * * * * * * * * * * * * * * * * * * * * * * * * * * //

dimensions      [0 0 0 0 0 0 0];

internalField   nonuniform List<scalar> 
458
(
41.62861998582504
29.59990212526027
28.118154101019357
26.871377438495657
26.100574831546496
25.761014247249904
25.90493782561549
26.557792305811418
27.889095245089166
30.121226544376654
33.53462096102547
36.65395155513044
37.439822044375916
37.84719510713344
38.449305628258045
44.84586790703794
44.1125367826789
43.910784655879304
44.289267036867166
44.59265216965946
44.795196525300085
44.518772173423706
44.32967230363172
44.37167821062766
44.513582313313854
44.664119333944754
44.85453586541956
45.128206560429945
45.48865341890858
46.082529324694626
46.72991700946562
47.011384072251055
47.80633058140673
38.163432023816625
30.19212952878705
29.61780496934368
28.361728872878302
27.64187782477012
27.301088281335296
27.385798752513935
27.746457107973356
28.395612948971916
29.506094824718588
31.410280573328052
34.41292185377095
37.344216785528744
37.84719510713344
37.64163520639403
35.74683218451449
35.960262619729264
37.24997825233597
42.59644584710092
43.357241296317724
43.357241296317724
43.81000005628001
43.93454889836905
43.950645203407056
43.97801638225638
44.08434965403725
44.145078636078686
44.18369583409925
44.255973668717154
44.32289307092884
44.430979978468145
44.62024343429781
45.12421708318366
45.68390903058558
46.09150387839092
45.34494631793027
39.715607626744415
29.83608809496353
31.15329587442544
30.492093373441833
30.20372238580555
30.062480101685765
30.06514235585888
29.86319235383236
29.17078690935729
28.61804428095091
29.205625428057715
31.6252800449886
36.19662190870816
38.20803400489708
38.52179691024114
38.47495454546598
38.27357983220601
37.6577062666745
37.85753529395854
40.8851702026329
41.32555106056944
41.83902170672376
42.48784779408264
42.723580333074906
43.97164880087556
44.84586790703794
44.871208842356985
44.92190115682257
44.972607336236024
45.02332730832616
45.07406100072825
45.15018710640062
45.32793272839552
45.556701490265745
45.226811230091755
41.51851209270756
43.53656975504128
29.57559104379213
32.2921290193466
32.89043921253395
33.78776631705814
34.364995802228165
34.4436792837852
33.02941598201559
30.167170039649505
27.78143602792926
27.42981645750629
29.76642912310797
34.17270708108151
38.60360079243421
39.24944417493591
39.32247789118038
37.54114407185792
36.32952974425586
34.07544601822525
37.255499535236204
39.171439781440306
40.66479759244688
42.391151538235405
44.33374418302804
45.85619721937561
45.64652757220346
45.46623848114803
45.50302298322998
45.66346661160929
45.89447578421539
46.35599229543563
47.13676316986954
48.43624218090708
48.27755666540504
47.344448313481024
44.26264061705422
39.282514846273756
48.52320539311208
29.96605652456354
33.15627358319573
35.08904712062754
37.95074970950725
40.41756873344629
40.68541341007937
36.436928260496835
30.944632114039976
27.017796481997493
26.167021969894634
28.587343670020942
33.09543193557363
38.11099979667832
40.34990491381449
40.3990553707736
39.33784553721497
37.92405381959639
37.95303047253559
38.86370966219573
40.59580887745766
42.86173876879982
45.226357749768454
47.5392445765571
49.351262152745896
49.98608113436483
50.170940879671875
50.25840433469362
50.29375287503032
50.198715114014654
50.14742896219716
50.15218919702641
50.108011500692186
49.20697032043293
47.6140721340697
43.55338719457054
43.43324221766861
43.60286456975609
48.14924235492195
41.7666142084757
53.81859703551587
31.382880746671077
34.69912885526925
36.72382116402999
41.23339393466243
45.04869244401476
45.736167679797504
37.56626467401066
30.67047909955423
26.210209006854953
25.30622804285491
27.947263979747333
33.058029877923175
38.95243681488259
41.9323248241827
42.15637985511422
42.03186021229925
42.10655866869695
42.451994514730245
43.67838785275605
45.630448534788194
47.72929443839476
49.351262152745896
50.721481675814665
51.758095704422864
52.48460686528068
52.97787638076475
53.26352369724522
53.419346636982525
53.36740466557018
53.13367892852348
52.77016231932254
51.91868985961024
50.227946233843426
48.13986433156484
44.265576653685045
43.82153638581166
43.54287536791849
44.89030047220427
45.352439858806356
58.862851399297064
35.537095218938376
40.77179081463962
39.80417588453625
42.83086666087324
47.13943269594854
42.465361225224314
35.94225160714504
29.149213086829732
24.891346729154108
24.527689274223277
28.073515623623535
34.40446255066175
41.74138495841458
44.13777277610537
44.643266939154714
44.643266939154714
44.972607336236024
46.01501932298584
47.52397279064019
49.170640862498495
50.773268638089945
52.147226236642474
53.21158486802751
53.96477437244179
54.45825884301522
54.71796282253343
54.82183638094778
54.795868490753115
54.614084333813686
54.25048060425519
53.756987137486284
53.13367892852348
52.21849870754477
49.747192158002385
46.31629169561622
44.69854184791617
43.589815793625476
42.15794975989457
47.71306109099895
66.3114029456055
55.111341942408934
51.97921670179788
45.81717554608768
44.711150860850275
43.911411221573
39.59612276405706
32.056274735243505
25.428296752043067
22.52498260777837
23.972022788780208
29.661285340588137
38.25503815853241
45.02332730832616
47.062595466098436
47.65228025589862
47.85770008207574
48.44911755888808
49.60944682879479
51.03227821577271
52.43269503038688
53.65309518101662
54.58811402093369
55.23726769737557
55.62653796689001
55.808182879189864
55.8600747797262
55.782235789151066
55.62653796689001
55.39294596536186
55.0555303364196
54.562143453008375
53.96477437244179
53.26352369724522
52.45865064480537
51.602497300719165
51.06779578322424
49.5591657598263
45.406955883416266
40.86826129364906
76.57522195429313
69.5575235881978
61.17325666636136
53.54443522392249
48.62220489047719
44.42986720182424
33.33166404226529
23.381545607079914
18.935185909026544
19.63652167422012
25.013306344300133
35.11543672637755
44.76986609689214
48.70662040838582
50.17804640910473
50.79916403406413
51.29140494640292
52.017496079953034
53.055776005336945
54.12061504885086
55.0555303364196
55.808182879189864
56.05964012256119
55.867717737160476
55.60763586692355
55.266462088011835
54.87752457404582
54.38869390615859
53.83163179408119
53.203051217916574
52.47873268219704
51.659597087192004
50.86389342279967
49.938174178559194
48.859075911271766
47.88419486356802
47.28429687473901
47.04010433568734
46.516207405340374
44.88332789753627
61.33329328617932
18.89018339741861
6.612250831466341
5.2051340868463
5.100199127032724
6.7548162615991885
11.850718033972356
21.25318061028169
34.68432084875687
45.45499370062144
49.809366162549175
50.54445907774978
51.06573891460958
51.56761378704666
52.23997761280614
53.01963280198446
53.790911104768796
54.327109199978445
54.63200109109795
54.69658376390559
54.58260385048932
54.32357804876025
53.99085366601543
53.599415862300525
53.14579652540601
52.66695943751207
52.21275337977994
51.78878239265872
51.47512670963522
51.22716422989796
51.055412518165355
50.93458988041484
50.813989134490086
50.81419290881317
51.39657652075478
53.40123762095692
57.15523906816474
48.94960987423482
61.827384289563
13.224558266485857
5.033805069920788
6.569089913598091
10.566079422233116
18.513168074068105
30.95626955371327
41.4605237301891
45.39242669679103
48.06203332242618
49.59234605297881
50.49568490847624
51.11674892870153
51.65757084599735
52.17117549362197
52.64591938439488
53.03986884930203
53.29966387719796
53.48826322806411
53.517400785716944
53.46098359482822
53.35022898394221
53.190856294137255
53.01630738364815
52.807762450454256
52.654670282345464
52.51539845946676
52.415352482441904
52.405485264824115
52.53059998417828
52.876071036998326
53.45063556860933
54.11064099125636
54.64766887049709
55.23728177058466
57.15749772377055
54.288422729359134
51.22578220334426
31.629303019690994
31.66963662031999
26.158900592235582
5.712929857073831
8.59707221720295
20.221080041737324
32.45665772501543
39.32217651288367
43.77250666176993
46.527245340323184
48.34121617920044
49.616211098627794
50.42736458370403
50.928951351684766
51.254020865695786
51.48935528625235
51.62336282992187
51.642233450968725
51.583002810568516
51.43501898982334
51.247522942910116
51.08141878112489
50.890749189678345
50.76313663505418
50.647142266385856
50.57797101851623
50.56770028952697
50.63493198971457
50.80711145066338
51.123375256985746
51.613298875993266
52.34447054324298
53.59330794574565
55.7601345176104
58.629560244714696
58.939021650382486
57.39085405226563
54.30945940992467
51.59960979584056
52.320998909968
)
;

boundaryField
{
    ".*"
    {
        type            zeroGradient;
    }
}


// ************************************************************************* //
