/*--------------------------------*- C++ -*----------------------------------*\
  =========                 |
  \\      /  F ield         | OpenFOAM: The Open Source CFD Toolbox
   \\    /   O peration     | Website:  https://openfoam.org
    \\  /    A nd           | Version:  6
     \\/     M anipulation  |
\*---------------------------------------------------------------------------*/
FoamFile
{
    version     2.0;
    format      ascii;
    class       volScalarField;
    location    "8000";
    object      alphat;
}
// * * * * * * * * * * * * * * * * * * * * * * * * * * * * * * * * * * * * * //

dimensions      [1 -1 -1 0 0 0 0];

internalField   nonuniform List<scalar> 
778
(
0.00104102
0.00111058
0.00110657
0.00115458
0.00119858
0.00123854
0.00127574
0.0013116
0.00134771
0.00138609
0.00142271
0.00145752
0.00149183
0.00152874
0.00156725
0.000736696
0.00105578
0.00106432
0.00103855
0.00099542
0.000937771
0.000880346
0.000827493
0.000779872
0.000737179
0.000699125
0.000664937
0.000633786
0.000604706
0.000576406
0.000546815
0.000522228
0.000472666
0.0015247
0.00300742
0.0026394
0.00304653
0.00334192
0.00365502
0.0039673
0.00425503
0.00448663
0.0046215
0.00470086
0.00466843
0.00443598
0.00385958
0.00281908
0.00171624
0.00163634
0.00156639
0.00131892
0.00224676
0.00311453
0.00362714
0.00365114
0.00288088
0.0024639
0.00217473
0.00195517
0.00178056
0.00163178
0.00150028
0.0013779
0.00125816
0.0011507
0.00105804
0.00119149
0.000599356
0.0019342
0.00419899
0.00311341
0.00445344
0.00497617
0.00541836
0.00581983
0.00617306
0.00647226
0.00670693
0.00693446
0.00717424
0.00739511
0.00752744
0.00744232
0.00681597
0.00498588
0.00192156
0.00166352
0.00355811
0.00496659
0.00563394
0.00512511
0.00135236
0.00117598
0.00103981
0.000933235
0.000848419
0.000779975
0.00072417
0.000678796
0.000643424
0.000707252
0.000831889
0.0013168
0.000681954
0.00232918
0.00565874
0.00297908
0.00500688
0.00578071
0.00619449
0.00649851
0.00672322
0.00689079
0.00702663
0.0072201
0.00754753
0.00802588
0.00862803
0.00923407
0.00953423
0.00895579
0.00668557
0.00191348
0.0044269
0.00658791
0.00768826
0.00796171
0.00679908
0.00153943
0.00140034
0.00129267
0.00120305
0.00112665
0.00105803
0.000993355
0.00092914
0.00085981
0.000803126
0.000832255
0.00142502
0.000751086
0.00271847
0.00749096
0.00300569
0.00475912
0.00594884
0.00630156
0.00642926
0.00643369
0.00636924
0.00631218
0.00639289
0.00671077
0.00729481
0.00812257
0.00908299
0.00996824
0.0105299
0.0105239
0.0094443
0.00960799
0.0098284
0.00986053
0.00966169
0.00904518
0.00719983
0.00622007
0.00554877
0.00500387
0.00446873
0.00395002
0.00344243
0.00293552
0.0024149
0.00185509
0.00141581
0.00141325
0.0011186
0.000895452
0.00117694
0.00113299
0.00310143
0.00954122
0.00353874
0.00401287
0.00569922
0.00609064
0.00605889
0.00584028
0.00552802
0.00527047
0.00526446
0.00559748
0.00626293
0.00722275
0.00834609
0.0094686
0.0104228
0.0110322
0.0111429
0.0110306
0.010835
0.010558
0.0102023
0.00974951
0.00908817
0.00845062
0.00787151
0.00731214
0.00670752
0.00606148
0.00537132
0.00463133
0.00383688
0.00299415
0.00223179
0.00167586
0.00130165
0.00145258
0.00251624
0.00135673
0.00349222
0.0114364
0.00471574
0.00328757
0.0051204
0.00576077
0.00568937
0.00533604
0.00482373
0.00437317
0.00435995
0.00478044
0.00554232
0.00661582
0.0078366
0.0090448
0.0100837
0.010827
0.0111684
0.0111413
0.0108964
0.0105259
0.010102
0.00967923
0.00927036
0.00889498
0.0085422
0.00816598
0.00771114
0.00716344
0.00651501
0.00576279
0.0049096
0.00397721
0.00306655
0.00221966
0.00163585
0.00145524
0.00255942
0.00159603
0.00382796
0.0128689
0.00642861
0.00313097
0.00405545
0.0051063
0.005253
0.00496291
0.00435708
0.00374501
0.00388345
0.00443977
0.00529238
0.00639904
0.00766801
0.008933
0.0100106
0.0107581
0.0110968
0.0110514
0.0107347
0.0102683
0.00976672
0.00932204
0.00897936
0.00873452
0.0085435
0.00833607
0.00804705
0.00764253
0.00710678
0.00643654
0.00563794
0.00473467
0.00379644
0.00285441
0.002004
0.0013429
0.00361369
0.00207438
0.00392911
0.0121731
0.00795125
0.00404871
0.00274981
0.00336775
0.00394195
0.00399112
0.00352383
0.0034248
0.0037804
0.00443507
0.00535789
0.00653257
0.00786334
0.00916742
0.0102407
0.0109296
0.0111703
0.0110023
0.0105433
0.00994157
0.0093445
0.00886814
0.00856593
0.00841766
0.00835032
0.00827043
0.0081038
0.00781123
0.00737723
0.00679997
0.00608636
0.00525574
0.00434596
0.00332854
0.00195515
0.00169234
0.00541508
0.0023843
0.00384954
0.00980976
0.00820772
0.00555493
0.00367006
0.00284118
0.00268986
0.00281594
0.00305258
0.00342905
0.00396381
0.00470144
0.00570635
0.00697402
0.00837769
0.00969971
0.0107157
0.0112731
0.0113292
0.0109518
0.010289
0.00952602
0.00884433
0.00837723
0.00816353
0.00813883
0.00818496
0.00818383
0.00807505
0.00783722
0.00746316
0.00695192
0.00630713
0.00553549
0.00460884
0.00317781
0.00144338
0.00332369
0.00516417
0.00240705
0.00360572
0.00838233
0.00793314
0.0063539
0.004892
0.00393899
0.00346709
0.0033599
0.00355463
0.00391373
0.00443706
0.00521694
0.0063281
0.00771865
0.00919323
0.0104854
0.0113584
0.01168
0.0114483
0.0107782
0.00986844
0.00895635
0.00826203
0.00791408
0.00787507
0.00798972
0.0081039
0.00810586
0.00799028
0.00775936
0.00740863
0.0069313
0.00632198
0.0055658
0.00454315
0.00266791
0.00166839
0.00374781
0.00486864
0.00236762
0.00328282
0.00755716
0.007651
0.00672358
0.00572159
0.00496661
0.00452181
0.00436284
0.00440234
0.00461954
0.00510158
0.00597474
0.00726052
0.00880013
0.0103034
0.0114617
0.0120527
0.0119969
0.0113609
0.0103299
0.00917855
0.0082147
0.00766945
0.0075621
0.00766054
0.00781077
0.00790765
0.00787946
0.00774497
0.00751232
0.00717258
0.00670374
0.00608705
0.00528864
0.00418906
0.00243018
0.00182481
0.0038757
0.00522559
0.00233228
0.00299324
0.00675959
0.00730466
0.00686759
0.00622512
0.00568493
0.00532555
0.00514976
0.00509806
0.00528559
0.00590015
0.00704286
0.00859834
0.0102614
0.0116603
0.0124903
0.012598
0.0119986
0.0108613
0.00946697
0.00820034
0.00739113
0.0070437
0.00701149
0.00711662
0.00724415
0.00732018
0.00729426
0.00715857
0.00692524
0.00657755
0.00607816
0.00538079
0.00446024
0.00336342
0.00224489
0.00200077
0.0039759
0.00544935
0.00246513
0.00300422
0.0067089
0.00746365
0.00694993
0.00642986
0.00600387
0.00569671
0.00549756
0.00549196
0.00594805
0.00703322
0.00865172
0.0104712
0.0120671
0.0130715
0.0132755
0.0126659
0.0113873
0.00975655
0.00817592
0.00703476
0.00638014
0.00608846
0.00602578
0.00607834
0.00615888
0.00621006
0.00619192
0.00604924
0.00579447
0.00538953
0.00476704
0.00390085
0.00294597
0.00224452
0.00201604
0.00242694
0.00439351
0.00545776
0.00252592
0.00271017
0.00282004
0.00416559
0.00489773
0.00512504
0.00512967
0.00508107
0.00517896
0.00581388
0.00716441
0.00906166
0.0111014
0.0128314
0.0138814
0.0140449
0.0132958
0.0118201
0.00989225
0.00805534
0.00663006
0.00569428
0.00517291
0.00493832
0.00485379
0.00482352
0.00479519
0.00474604
0.00466315
0.00449313
0.00420766
0.00377503
0.00316043
0.00248331
0.00203728
0.00199719
0.00233429
0.00311778
0.00496054
0.0058346
0.0025355
0.000964542
0.00173885
0.00266666
0.00340947
0.0042736
0.00574829
0.00791693
0.0103206
0.0124987
0.0141077
0.014918
0.0147907
0.0137499
0.0119174
0.00975833
0.00772911
0.00614102
0.00509811
0.00453933
0.00427189
0.00412786
0.00401546
0.00389578
0.00375843
0.00360769
0.00345149
0.0032881
0.00307593
0.00280669
0.00247993
0.00219558
0.00213743
0.0024013
0.00295093
0.0037458
0.00475423
0.0053547
0.00242105
0.00178735
0.00246717
0.00358659
0.00558881
0.0083104
0.011033
0.0131412
0.0146539
0.0155503
0.0157632
0.0151792
0.0136988
0.0115629
0.0091928
0.00706224
0.00550906
0.00462957
0.00422947
0.00405401
0.0039521
0.0038609
0.00376026
0.00364926
0.00353492
0.00342514
0.00332352
0.00322518
0.00311465
0.00298639
0.00285044
0.00275053
0.00278882
0.00306636
0.00358882
0.00424991
0.00479172
0.00483035
0.00235069
0.0032389
0.00786561
0.00725302
0.00648184
0.00822128
0.0109504
0.01325
0.0147995
0.0156119
0.0157999
0.0154443
0.0145047
0.0129449
0.0108405
0.00852
0.0065001
0.0052011
0.00458887
0.00435186
0.00424972
0.00417378
0.00408666
0.00398177
0.00386572
0.00375109
0.00365251
0.00358337
0.00355223
0.00355874
0.00358785
0.00361441
0.00364267
0.00370482
0.00385015
0.00414317
0.00463682
0.00533306
0.0061377
0.00649336
0.00251823
0.00309559
0.00597849
0.00771599
0.00987417
0.0109512
0.0120618
0.0127062
0.0128591
0.0126092
0.0120122
0.0110785
0.00979865
0.00824061
0.00664219
0.00535229
0.00457073
0.00421542
0.00408444
0.0040356
0.00399942
0.0039478
0.00387361
0.00378074
0.00367969
0.00358615
0.00352028
0.00350444
0.00355831
0.00369203
0.00389708
0.00413027
0.00432461
0.00451098
0.00475437
0.00511671
0.00564841
0.00638357
0.00744382
0.0070491
0.00276428
0.00289432
0.00248083
0.00246817
0.00253965
0.0025983
0.00251911
0.0023663
0.00218707
0.00200498
0.00182865
0.00166143
0.00150922
0.00138334
0.00129563
0.00124876
0.00123328
0.00123424
0.00124219
0.00125261
0.00126393
0.00127631
0.00129107
0.00131037
0.00133676
0.00137261
0.00141921
0.00147605
0.00154075
0.00160993
0.00168062
0.00175163
0.00182409
0.00189779
0.00197624
0.00206419
0.00216414
0.00227428
0.00239596
0.00253949
0.00251732
)
;

boundaryField
{
    floor
    {
        type            compressible::alphatWallFunction;
        Prt             0.85;
        value           nonuniform List<scalar> 
36
(
0.000219873
0.000104464
0.000149994
0.000151187
0.000147579
0.000141519
0.00013337
0.000125194
0.000117614
0.000110735
0.000104525
9.89539e-05
9.39172e-05
8.93007e-05
8.49662e-05
8.07232e-05
7.62592e-05
7.25278e-05
6.49385e-05
6.49377e-05
8.4167e-05
9.64294e-05
0.000106554
0.000127355
0.000166861
0.000160777
0.00021987
0.000239702
0.00022909
0.000219753
0.000104462
0.00021975
0.000186326
0.000266723
0.000232699
0.000265665
)
;
    }
    ceiling
    {
        type            compressible::alphatWallFunction;
        Prt             0.85;
        value           nonuniform List<scalar> 
43
(
0.000391126
0.000338924
0.000337317
0.000346418
0.000353873
0.000343861
0.000324412
0.000301415
0.000277833
0.000254767
0.000232658
0.000212307
0.000195294
0.000183336
0.000176913
0.000174788
0.000174923
0.000176024
0.000177462
0.00017902
0.000180716
0.000182729
0.000185348
0.000188918
0.000193759
0.000200045
0.000207703
0.000216405
0.000225687
0.000235142
0.000244601
0.000254211
0.000263941
0.000274232
0.000285699
0.00029866
0.000312868
0.000328488
0.000346769
0.00034384
0.000368308
0.000382119
0.000248612
)
;
    }
    sWall
    {
        type            compressible::alphatWallFunction;
        Prt             0.85;
        value           nonuniform List<scalar> 9(0.000507613 0.000477869 0.000438162 0.000402217 0.000403578 0.000366733 0.000432095 0.000414374 0.000389375);
    }
    nWall
    {
        type            compressible::alphatWallFunction;
        Prt             0.85;
        value           nonuniform List<scalar> 
14
(
0.000160329
0.000191033
0.000223258
0.000329027
0.000324017
0.000319595
0.000336717
0.000344358
0.000345412
0.000330746
0.000321821
0.000343791
0.000374403
0.000343147
)
;
    }
    sideWalls
    {
        type            empty;
    }
    glass1
    {
        type            compressible::alphatWallFunction;
        Prt             0.85;
        value           nonuniform List<scalar> 9(0.000143932 0.00020914 0.000262699 0.00031331 0.000362386 0.000410011 0.000458022 0.00049888 0.000511237);
    }
    glass2
    {
        type            compressible::alphatWallFunction;
        Prt             0.85;
        value           nonuniform List<scalar> 2(0.000283995 0.00032377);
    }
    sun
    {
        type            compressible::alphatWallFunction;
        Prt             0.85;
        value           nonuniform List<scalar> 
14
(
0.000147966
0.000157651
0.000157092
0.000163757
0.000169837
0.000175336
0.000180438
0.00018534
0.00019026
0.000195474
0.000200434
0.000205134
0.000209755
0.000214713
)
;
    }
    Table_master
    {
        type            compressible::alphatWallFunction;
        Prt             0.85;
        value           nonuniform List<scalar> 9(0.000191149 0.000166964 0.000148011 0.000132975 0.000120866 0.000110989 0.000102859 9.61931e-05 9.0959e-05);
    }
    Table_slave
    {
        type            compressible::alphatWallFunction;
        Prt             0.85;
        value           nonuniform List<scalar> 9(0.000216415 0.000197668 0.00018301 0.000170705 0.000160132 0.000150566 0.000141483 0.000132397 0.000122503);
    }
    inlet
    {
        type            fixedValue;
        value           uniform 1.94e-05;
    }
    outlet
    {
        type            zeroGradient;
    }
}


// ************************************************************************* //
