/*--------------------------------*- C++ -*----------------------------------*\
  =========                 |
  \\      /  F ield         | OpenFOAM: The Open Source CFD Toolbox
   \\    /   O peration     | Website:  https://openfoam.org
    \\  /    A nd           | Version:  6
     \\/     M anipulation  |
\*---------------------------------------------------------------------------*/
FoamFile
{
    version     2.0;
    format      ascii;
    class       volScalarField;
    location    "8000";
    object      k;
}
// * * * * * * * * * * * * * * * * * * * * * * * * * * * * * * * * * * * * * //

dimensions      [0 2 -2 0 0 0 0];

internalField   nonuniform List<scalar> 
778
(
0.00139626
0.00156513
0.00301307
0.00155983
0.00558111
0.00489428
0.0016927
0.00216931
0.0112095
0.00719757
0.0018158
0.00220469
0.00275026
0.0195568
0.00996395
0.0019288
0.0022848
0.00255066
0.00355423
0.0310767
0.0131739
0.00203465
0.00238531
0.00259208
0.00268706
0.00502314
0.0450516
0.0169463
0.00213701
0.0024983
0.0026942
0.00263366
0.00270378
0.00781903
0.058364
0.0207274
0.00224017
0.00262608
0.00281494
0.00269699
0.00248776
0.00274598
0.0127183
0.0685592
0.0220535
0.00234968
0.00277138
0.00295138
0.00276508
0.00248962
0.0022871
0.00301584
0.0198822
0.0688365
0.0213642
0.00246256
0.00293585
0.00310323
0.00283034
0.00249067
0.00222227
0.00213013
0.0041517
0.0313234
0.0513771
0.0189489
0.00257772
0.00312168
0.00326917
0.00289945
0.00247882
0.00216448
0.0019934
0.00214369
0.00984343
0.0329783
0.0392779
0.0158442
0.00270211
0.00331987
0.00345916
0.00298837
0.00247048
0.00209014
0.00189464
0.00186714
0.00329432
0.0165164
0.0298367
0.0313865
0.0132064
0.00284882
0.00351147
0.00370168
0.00312465
0.00249864
0.00202481
0.00178441
0.00173896
0.00204428
0.00775946
0.0189717
0.0263571
0.0253744
0.0132091
0.00301719
0.00364842
0.00401141
0.00335112
0.00260586
0.00202444
0.00169497
0.00162206
0.00176283
0.00409906
0.0115489
0.0191519
0.0230818
0.0221584
0.0107903
0.00366616
0.00440754
0.00369204
0.00282789
0.00215172
0.00171341
0.00155253
0.00164038
0.00270744
0.00733921
0.0135458
0.0184149
0.0218525
0.0116443
0.00360701
0.00488869
0.00416473
0.00318074
0.0024113
0.0019134
0.00166135
0.00166586
0.00220803
0.00515309
0.00984299
0.0142957
0.0175559
0.012216
0.00343149
0.00523773
0.0047469
0.00367671
0.00278989
0.00225028
0.00197245
0.0019236
0.00227022
0.00411576
0.00758308
0.011288
0.0141734
0.0117241
0.0196555
0.00330913
0.00499706
0.00529922
0.00430652
0.00329348
0.00267024
0.00238079
0.00231311
0.0025898
0.0038081
0.00629728
0.0092306
0.011654
0.0105968
0.00550427
0.0145722
0.00468604
0.00561818
0.00499679
0.0039328
0.00318633
0.00282863
0.00273672
0.00295964
0.00381064
0.00559266
0.00787301
0.00981321
0.0093254
0.00301367
0.00573296
0.0106233
0.00593044
0.00568189
0.00466516
0.00383782
0.00334366
0.00317538
0.003315
0.00391251
0.00517009
0.00688602
0.00842374
0.00812203
0.00257158
0.00296314
0.00570902
0.0173883
0.0126076
0.00502503
0.00649275
0.0054344
0.004591
0.00398839
0.00369438
0.00370046
0.00406973
0.00491157
0.00611839
0.00719919
0.00687753
0.00221175
0.0025755
0.00787275
0.0142227
0.0116579
0.0134
0.00677615
0.00553411
0.00695983
0.00616039
0.00536272
0.00476117
0.00437076
0.00422818
0.00437462
0.00486441
0.00562536
0.00628308
0.00587799
0.00232885
0.00456078
0.0134318
0.0154425
0.00715497
0.0111183
0.00731941
0.00405303
0.00538177
0.00623535
0.0064879
0.00600854
0.00554919
0.0051889
0.00497254
0.0049548
0.00517803
0.00560178
0.00597577
0.00569137
0.00388693
0.00929755
0.0175822
0.0170595
0.00758533
0.0106748
0.00275746
0.00429483
0.00517376
0.00583427
0.00622474
0.0063158
0.00616964
0.00600247
0.00586874
0.00582977
0.0059397
0.00620547
0.00652036
0.0066512
0.00682164
0.0143286
0.0198888
0.0174202
0.00751925
0.00152982
0.0029877
0.00433958
0.00484704
0.00545555
0.00586306
0.00620446
0.00644377
0.00659618
0.00670883
0.00683306
0.00703392
0.00736569
0.00786192
0.00861517
0.0104369
0.0177989
0.0204989
0.0167078
0.00698469
0.00162355
0.00313273
0.00412403
0.00440395
0.00503491
0.00541925
0.0058396
0.00631654
0.00679442
0.00723866
0.00766663
0.00813512
0.00873125
0.00957663
0.010949
0.0136905
0.0193064
0.0198916
0.0154137
0.00624053
0.00164569
0.00304744
0.00369803
0.00348067
0.00459206
0.00492898
0.00532421
0.00587777
0.00655393
0.007286
0.00804151
0.00884907
0.0097912
0.0110227
0.0128075
0.0156287
0.0190645
0.0184066
0.0138987
0.00548814
0.00159439
0.00279096
0.00274526
0.00288247
0.00408722
0.00444498
0.00475486
0.00525647
0.00596703
0.0068363
0.00781431
0.00889031
0.0101171
0.0116008
0.0135146
0.0157956
0.0171012
0.0161389
0.0123116
0.0048002
0.00148901
0.00237594
0.00206871
0.00246355
0.00362811
0.00399219
0.00421444
0.00458569
0.00519166
0.00602142
0.00703394
0.00820305
0.00952717
0.0110463
0.0127324
0.0142972
0.0140129
0.0132562
0.0106931
0.004173
0.00133856
0.00200649
0.0016151
0.00213947
0.00323809
0.00360013
0.00375024
0.00397126
0.00439215
0.0050422
0.00590663
0.00694979
0.00815148
0.00944363
0.0107061
0.0112843
0.0106055
0.0102072
0.00908871
0.00360408
0.00119147
0.00170293
0.00130119
0.001882
0.00290666
0.0032718
0.0033774
0.00347083
0.00369198
0.00409685
0.00468957
0.00545202
0.00631672
0.0072337
0.00787881
0.00794612
0.00745853
0.00750631
0.00760633
0.00312244
0.00106139
0.00145661
0.00107692
0.00166559
0.00260872
0.00299292
0.00308546
0.00309498
0.00315159
0.00331989
0.00361855
0.00402334
0.00451586
0.00489911
0.00520411
0.00531294
0.00513711
0.00558236
0.00638514
0.00277366
0.000949254
0.00125515
0.000912149
0.00147393
0.00233483
0.00273949
0.00285006
0.00282296
0.00277263
0.00276361
0.00281993
0.00294191
0.00305
0.00324541
0.00344051
0.0036072
0.00375493
0.00449874
0.00555623
0.00258239
0.000853831
0.001089
0.0007884
0.00129508
0.0020771
0.00250044
0.00264488
0.0026197
0.0025212
0.00240771
0.00231523
0.00225049
0.00224916
0.00231514
0.00246756
0.00270243
0.00306102
0.00399977
0.005096
0.00249928
0.000772072
0.000950115
0.00069498
0.00111451
0.00182802
0.002266
0.00245203
0.00245515
0.00235072
0.00219666
0.00203388
0.00190038
0.00183795
0.00185518
0.00198516
0.00226465
0.00274192
0.00379965
0.00489282
0.002488
0.000701363
0.000831644
0.000627372
0.000835631
0.00157622
0.00202793
0.00225805
0.00230512
0.002226
0.00207181
0.00188971
0.0017325
0.00163913
0.00162946
0.00174439
0.00204166
0.00258257
0.00372016
0.00484193
0.00251863
0.000639315
0.000731244
0.000577767
0.000692852
0.00125153
0.00177703
0.00205352
0.00215276
0.0021169
0.00199091
0.00181906
0.0016545
0.00154447
0.00151502
0.00161005
0.00190567
0.00248304
0.00367538
0.00486936
0.00257043
0.000583496
0.000659661
0.000579877
0.00146749
0.000960838
0.00148722
0.00183112
0.00198769
0.00200431
0.00192071
0.00177814
0.0016218
0.00150021
0.00145314
0.0015249
0.00180561
0.00240626
0.00362967
0.00492554
0.00263047
0.000531213
0.000616359
0.00120638
0.000854901
0.00123304
0.00119724
0.00158282
0.00180366
0.00187774
0.0018431
0.00173869
0.00160337
0.00148073
0.00141681
0.00146437
0.00172375
0.00234156
0.00357309
0.00497978
0.00269145
0.000478767
0.000901368
0.000707045
0.00124509
0.00114224
0.00133114
0.00159823
0.00173203
0.00174923
0.0016872
0.00158088
0.00146689
0.00139279
0.00141679
0.00165389
0.00228874
0.00351066
0.00501845
0.00275042
0.000434918
0.000552269
0.00119946
0.0011389
0.00117175
0.00138632
0.00156662
0.00163544
0.00161735
0.00154512
0.00144734
0.00137078
0.00137601
0.001594
0.00225143
0.00345537
0.00504304
0.00280821
0.000355635
0.00208943
0.00174155
0.00111017
0.00122211
0.00139222
0.00150227
0.00152685
0.00149133
0.00141604
0.00134361
0.00133874
0.00154363
0.00223329
0.00342164
0.00506591
0.00286893
0.00191692
0.00518316
0.00159192
0.00115811
0.00125971
0.00135959
0.001418
0.0014177
0.00137051
0.00130789
0.00130106
0.00150247
0.00223473
0.00342073
0.00510477
0.00293934
0.00273078
0.00641716
0.00215873
0.00133848
0.0012648
0.00130365
0.00133092
0.00131287
0.00126477
0.00126223
0.00147817
0.00225089
0.00345901
0.00517846
0.00302857
0.00379458
0.0141746
0.00428851
0.00170437
0.00125884
0.00124954
0.00125372
0.00122632
0.00123103
0.00146604
0.00227093
0.00353839
0.00530591
0.00314836
0.00655332
0.0285636
0.0110295
0.00201583
0.00126983
0.00123448
0.00123837
0.00124168
0.00147666
0.00230459
0.00365602
0.005508
0.0033137
0.00859174
0.0239909
0.0107534
0.00219489
0.00145688
0.00145745
0.0013998
0.00155056
0.00236128
0.00380127
0.00580964
0.00354244
0.0088113
0.0227648
0.00937018
0.00280572
0.0022618
0.00196805
0.00180003
0.0024703
0.00397292
0.00623845
0.00385208
0.00884714
0.0216318
0.00952514
0.00438025
0.00340238
0.00247826
0.00272472
0.00421968
0.00681592
0.00425392
0.00957641
0.0191587
0.0102421
0.00629153
0.00402962
0.00331671
0.00464188
0.00753488
0.00474848
0.010478
0.0195109
0.0112079
0.00699771
0.00460973
0.00535223
0.00839081
0.00532855
0.00998919
0.0170503
0.0116491
0.00719165
0.00662491
0.00946738
0.00599302
0.00882555
0.0167371
0.0118005
0.00908238
0.0109873
0.00676352
0.00817455
0.01833
0.0150086
0.0133638
0.00761457
0.00927559
0.0183973
0.0181051
0.00853208
0.0105137
0.0204395
0.00954611
0.0112644
0.0106075
0.00957726
)
;

boundaryField
{
    floor
    {
        type            kqRWallFunction;
        value           nonuniform List<scalar> 
36
(
0.00301719
0.00152982
0.00162355
0.00164569
0.00159439
0.00148901
0.00133856
0.00119147
0.00106139
0.000949254
0.000853831
0.000772072
0.000701363
0.000639315
0.000583496
0.000531213
0.000478767
0.000434918
0.000355635
0.000355635
0.000552269
0.000707045
0.000854901
0.00119946
0.00208943
0.00191692
0.00301719
0.00360701
0.00343149
0.00330913
0.00152982
0.00330913
0.00275746
0.00468604
0.00405303
0.00502503
)
;
    }
    ceiling
    {
        type            kqRWallFunction;
        value           nonuniform List<scalar> 
43
(
0.0106748
0.00731941
0.00677615
0.00715497
0.00758533
0.00751925
0.00698469
0.00624053
0.00548814
0.0048002
0.004173
0.00360408
0.00312244
0.00277366
0.00258239
0.00249928
0.002488
0.00251863
0.00257043
0.00263047
0.00269145
0.00275042
0.00280821
0.00286893
0.00293934
0.00302857
0.00314836
0.0033137
0.00354244
0.00385208
0.00425392
0.00474848
0.00532855
0.00599302
0.00676352
0.00761457
0.00853208
0.00954611
0.0106075
0.00957726
0.0107903
0.0116443
0.0145722
)
;
    }
    sWall
    {
        type            kqRWallFunction;
        value           nonuniform List<scalar> 9(0.0213642 0.0189489 0.0158442 0.0132064 0.0132091 0.0107903 0.0116579 0.0111183 0.0106748);
    }
    nWall
    {
        type            kqRWallFunction;
        value           nonuniform List<scalar> 
14
(
0.00191692
0.00273078
0.00379458
0.0088113
0.00884714
0.00957641
0.010478
0.00998919
0.00882555
0.00817455
0.00927559
0.0105137
0.0112644
0.00957726
)
;
    }
    sideWalls
    {
        type            empty;
    }
    glass1
    {
        type            kqRWallFunction;
        value           nonuniform List<scalar> 9(0.00139626 0.00301307 0.00489428 0.00719757 0.00996395 0.0131739 0.0169463 0.0207274 0.0220535);
    }
    glass2
    {
        type            kqRWallFunction;
        value           nonuniform List<scalar> 2(0.00655332 0.00859174);
    }
    sun
    {
        type            kqRWallFunction;
        value           nonuniform List<scalar> 
14
(
0.00139626
0.00156513
0.00155983
0.0016927
0.0018158
0.0019288
0.00203465
0.00213701
0.00224017
0.00234968
0.00246256
0.00257772
0.00270211
0.00284882
)
;
    }
    Table_master
    {
        type            kqRWallFunction;
        value           nonuniform List<scalar> 9(0.00274526 0.00206871 0.0016151 0.00130119 0.00107692 0.000912149 0.0007884 0.00069498 0.000627372);
    }
    Table_slave
    {
        type            kqRWallFunction;
        value           nonuniform List<scalar> 9(0.00348067 0.00288247 0.00246355 0.00213947 0.001882 0.00166559 0.00147393 0.00129508 0.00111451);
    }
    inlet
    {
        type            turbulentIntensityKineticEnergyInlet;
        intensity       0.5;
        value           uniform 0.09375;
    }
    outlet
    {
        type            zeroGradient;
    }
}


// ************************************************************************* //
