/*--------------------------------*- C++ -*----------------------------------*\
  =========                 |
  \\      /  F ield         | OpenFOAM: The Open Source CFD Toolbox
   \\    /   O peration     | Website:  https://openfoam.org
    \\  /    A nd           | Version:  6
     \\/     M anipulation  |
\*---------------------------------------------------------------------------*/
FoamFile
{
    version     2.0;
    format      ascii;
    class       volVectorField;
    location    "8000";
    object      U;
}
// * * * * * * * * * * * * * * * * * * * * * * * * * * * * * * * * * * * * * //

dimensions      [0 1 -1 0 0 0 0];

internalField   nonuniform List<vector> 
662
(
(0.0430125 0.0859769 0)
(-0.167842 0.0223325 0)
(-0.187932 0.0166034 0)
(-0.218035 0.0119409 0)
(-0.241774 0.0068877 0)
(-0.258743 0.00151271 0)
(-0.267805 -0.00446006 0)
(-0.266711 -0.0114077 0)
(-0.253049 -0.0198969 0)
(-0.224922 -0.0296848 0)
(-0.182507 -0.039147 0)
(-0.130145 -0.0451151 0)
(-0.0760681 -0.0435554 0)
(-0.0299228 -0.0320775 0)
(-0.0167165 -0.00317866 0)
(-0.00882746 0.0104389 0)
(-0.0373684 -0.0183819 0)
(-0.0141002 -0.0299151 0)
(0.0145065 -0.0249487 0)
(0.033624 -0.0174005 0)
(0.0478538 -0.00927584 0)
(0.0562966 -0.00503873 0)
(0.0599896 -0.00353623 0)
(0.0613442 -0.00299619 0)
(0.0619522 -0.00267468 0)
(0.0622286 -0.00242751 0)
(0.0621485 -0.00217209 0)
(0.061563 -0.00175134 0)
(0.0600315 -0.000831863 0)
(0.0565624 0.00101486 0)
(0.0500855 0.00297241 0)
(0.045756 0.00458485 0)
(-0.0168666 0.0221971 0)
(0.235651 0.177508 0)
(-0.159231 0.0605492 0)
(-0.1473 0.0503054 0)
(-0.178239 0.0413532 0)
(-0.201098 0.0317079 0)
(-0.217768 0.0209881 0)
(-0.2274 0.00827049 0)
(-0.227876 -0.00750509 0)
(-0.216836 -0.0269383 0)
(-0.192843 -0.048903 0)
(-0.156091 -0.0694563 0)
(-0.110949 -0.0815725 0)
(-0.0652399 -0.0782273 0)
(-0.0251143 -0.0596506 0)
(0.00793189 -0.0295312 0)
(0.0357327 -0.00067265 0)
(0.0522412 0.0326666 0)
(-0.0158364 0.0724449 0)
(0.0721021 0.0442319 0)
(0.0119096 -0.0215838 0)
(0.0272658 -0.0378782 0)
(0.0413136 -0.0350809 0)
(0.0532138 -0.0263429 0)
(0.0593289 -0.011573 0)
(0.0608526 -0.00261234 0)
(0.0608812 0.000757067 0)
(0.0610305 0.00199512 0)
(0.0613394 0.00268566 0)
(0.0615559 0.00317532 0)
(0.0616131 0.00360557 0)
(0.0615157 0.0043024 0)
(0.0608254 0.00604315 0)
(0.0574791 0.0109699 0)
(0.0488603 0.0150714 0)
(0.0489809 0.0177489 0)
(-0.0635845 0.048243 0)
(0.413126 0.265137 0)
(-0.184355 0.0965094 0)
(-0.103946 0.0802109 0)
(-0.134075 0.063542 0)
(-0.15284 0.0475629 0)
(-0.167342 0.0303361 0)
(-0.176876 0.0101066 0)
(-0.178937 -0.0145168 0)
(-0.170234 -0.0444402 0)
(-0.149704 -0.0781356 0)
(-0.117827 -0.108899 0)
(-0.0795319 -0.125346 0)
(-0.0428934 -0.117988 0)
(-0.0112315 -0.0912742 0)
(0.0147009 -0.0545175 0)
(0.0317413 -0.0242383 0)
(0.0391454 0.00817804 0)
(-0.0303548 0.0612252 0)
(0.126888 -0.0100537 0)
(0.0742119 -0.0331357 0)
(0.0651864 -0.0417677 0)
(0.0676334 -0.0407018 0)
(0.0716598 -0.0363708 0)
(0.0729928 -0.0270059 0)
(0.0642348 -0.0175774 0)
(0.0576233 -0.0125367 0)
(0.0551591 -0.00973841 0)
(0.0545086 -0.0079382 0)
(0.0543031 -0.0067189 0)
(0.0543925 -0.00578089 0)
(0.0551763 -0.00470087 0)
(0.0575541 -0.00146877 0)
(0.0562475 0.0146882 0)
(0.0443568 0.0252844 0)
(0.0562935 0.0319354 0)
(-0.106732 0.0736097 0)
(0.567784 0.335559 0)
(-0.229791 0.128488 0)
(-0.0585624 0.103803 0)
(-0.087833 0.0810153 0)
(-0.0991322 0.0616606 0)
(-0.108541 0.0410729 0)
(-0.1161 0.015867 0)
(-0.118711 -0.0163548 0)
(-0.111285 -0.0564446 0)
(-0.0933751 -0.101817 0)
(-0.0668994 -0.142324 0)
(-0.0372464 -0.162038 0)
(-0.0120863 -0.15005 0)
(0.0100931 -0.115574 0)
(0.0272379 -0.0742373 0)
(0.0410866 -0.0335865 0)
(0.0573632 0.00678439 0)
(0.0565359 0.0500269 0)
(0.100047 0.0605164 0)
(0.0993862 -0.00416552 0)
(0.0848536 -0.0298978 0)
(0.0776855 -0.0369344 0)
(0.0727212 -0.036879 0)
(0.0662782 -0.0321734 0)
(0.065689 -0.0195376 0)
(0.0755211 -0.0130034 0)
(0.0838042 -0.00955967 0)
(0.0888182 -0.00746898 0)
(0.0918905 -0.00571353 0)
(0.0932873 -0.0037703 0)
(0.0916163 -0.00119161 0)
(0.0855242 0.00240685 0)
(0.0731211 0.00758726 0)
(0.057764 0.0249337 0)
(0.041986 0.0401556 0)
(0.0649691 0.0522038 0)
(-0.144392 0.0945549 0)
(0.68789 0.393163 0)
(-0.281287 0.145884 0)
(-0.0164434 0.114635 0)
(-0.0410435 0.0890538 0)
(-0.0436196 0.068846 0)
(-0.0461679 0.0477013 0)
(-0.0498611 0.0207562 0)
(-0.0504633 -0.0162051 0)
(-0.0420064 -0.0652551 0)
(-0.0255389 -0.12057 0)
(-0.00581216 -0.167462 0)
(0.0125533 -0.186716 0)
(0.0238987 -0.168452 0)
(0.0331206 -0.131566 0)
(0.0410421 -0.0873115 0)
(0.0487706 -0.0441925 0)
(0.0605156 -0.00655714 0)
(0.0749866 0.0149616 0)
(0.0892076 -0.0036577 0)
(0.0882079 -0.0228096 0)
(0.0806803 -0.0300903 0)
(0.0715666 -0.0315763 0)
(0.0632739 -0.0300856 0)
(0.0564088 -0.0249442 0)
(0.0544908 -0.0142576 0)
(0.057702 -0.00818574 0)
(0.0617291 -0.00583503 0)
(0.0652822 -0.00454723 0)
(0.0685067 -0.00270225 0)
(0.0711194 0.000639719 0)
(0.0722227 0.00571393 0)
(0.070604 0.0126534 0)
(0.0659465 0.0219803 0)
(0.0591994 0.0365706 0)
(0.0477741 0.0529163 0)
(0.0760897 0.0720965 0)
(-0.0126165 0.101064 0)
(0.054003 0.15538 0)
(-0.0873804 0.0788432 0)
(-0.282038 0.0017104 0)
(0.745187 0.45109 0)
(-0.298269 0.045184 0)
(0.0376969 0.0752283 0)
(0.0159072 0.0719591 0)
(0.0184025 0.0637431 0)
(0.0194412 0.0470298 0)
(0.018298 0.0205438 0)
(0.0220456 -0.0202409 0)
(0.0331279 -0.0760648 0)
(0.0475905 -0.135427 0)
(0.0589323 -0.180895 0)
(0.0634909 -0.196135 0)
(0.0604452 -0.17318 0)
(0.0550404 -0.13405 0)
(0.0499402 -0.089563 0)
(0.0473869 -0.0481414 0)
(0.0498606 -0.0155162 0)
(0.0581422 0.00127845 0)
(0.0636088 -0.0028163 0)
(0.0620205 -0.0116267 0)
(0.055469 -0.0185216 0)
(0.0472912 -0.0218938 0)
(0.0397671 -0.0221904 0)
(0.0339374 -0.0195286 0)
(0.0314337 -0.0143669 0)
(0.0325035 -0.0112278 0)
(0.0353403 -0.0101408 0)
(0.038932 -0.00940607 0)
(0.0430269 -0.00763776 0)
(0.047365 -0.00372293 0)
(0.0519419 0.00316281 0)
(0.054848 0.0125912 0)
(0.0563628 0.0242214 0)
(0.0578922 0.0386413 0)
(0.0570488 0.0548795 0)
(0.0806127 0.0759889 0)
(0.0649721 0.0881649 0)
(0.100612 0.0974804 0)
(0.119754 0.0568921 0)
(-0.139882 -0.0323361 0)
(0.812117 0.23111 0)
(0.249604 0.234473 0)
(0.203573 0.101555 0)
(0.143104 0.078941 0)
(0.110072 0.0683992 0)
(0.0918233 0.0524345 0)
(0.0854159 0.0258133 0)
(0.0910104 -0.0143731 0)
(0.104295 -0.0685317 0)
(0.116595 -0.127403 0)
(0.12107 -0.174213 0)
(0.11366 -0.192231 0)
(0.0906617 -0.158296 0)
(0.0674054 -0.120029 0)
(0.0469552 -0.0781245 0)
(0.0327523 -0.0410362 0)
(0.026171 -0.0144191 0)
(0.0263701 -0.00141233 0)
(0.0277692 -0.00162315 0)
(0.0262244 -0.0070623 0)
(0.0216311 -0.0123697 0)
(0.015656 -0.0154776 0)
(0.00982608 -0.016428 0)
(0.00521338 -0.0156222 0)
(0.00298026 -0.0138014 0)
(0.0033497 -0.0129739 0)
(0.00534541 -0.0131839 0)
(0.00828621 -0.0133672 0)
(0.0120576 -0.0124556 0)
(0.016797 -0.00933826 0)
(0.0230166 -0.00268506 0)
(0.0313808 0.00782819 0)
(0.0387427 0.019774 0)
(0.0471402 0.0327585 0)
(0.0556929 0.046156 0)
(0.0768195 0.0627952 0)
(0.0904034 0.0681485 0)
(0.122702 0.0622615 0)
(0.167476 0.0498191 0)
(-0.0184162 0.0946049 0)
(0.588249 0.00208516 0)
(0.289484 0.197482 0)
(0.406125 0.149155 0)
(0.374981 0.140631 0)
(0.313465 0.119145 0)
(0.263377 0.083643 0)
(0.231268 0.0392596 0)
(0.214903 -0.0149618 0)
(0.207617 -0.0738498 0)
(0.199153 -0.127094 0)
(0.180111 -0.161301 0)
(0.147935 -0.166405 0)
(0.0914623 -0.123383 0)
(0.0549738 -0.0899263 0)
(0.0234662 -0.0540392 0)
(0.00236241 -0.0248146 0)
(-0.00747222 -0.00727886 0)
(-0.00946264 -0.000410069 0)
(-0.00939546 -0.00068883 0)
(-0.010623 -0.00420645 0)
(-0.0138016 -0.00782951 0)
(-0.0181018 -0.0103063 0)
(-0.0224976 -0.0116694 0)
(-0.0261371 -0.012312 0)
(-0.0283626 -0.0127729 0)
(-0.0291954 -0.0136888 0)
(-0.0291879 -0.0149476 0)
(-0.0286965 -0.0160395 0)
(-0.0276943 -0.0164124 0)
(-0.0258373 -0.0154717 0)
(-0.0223463 -0.01248 0)
(-0.0147841 -0.0065656 0)
(-0.00147752 0.00246469 0)
(0.0105333 0.0118535 0)
(0.0229245 0.018573 0)
(0.0416059 0.0254876 0)
(0.0585309 0.0216147 0)
(0.082519 0.00951288 0)
(0.14966 0.0564279 0)
(-0.462155 0.214111 0)
(0.402846 0.138615 0)
(0.407191 0.167352 0)
(0.373979 0.164683 0)
(0.343927 0.124933 0)
(0.316291 0.0681775 0)
(0.293957 0.00607508 0)
(0.268324 -0.0534104 0)
(0.233804 -0.0990156 0)
(0.187929 -0.121718 0)
(0.134639 -0.118937 0)
(0.0552 -0.0780119 0)
(0.0128465 -0.0515974 0)
(-0.0203261 -0.0248279 0)
(-0.0355724 -0.0103852 0)
(-0.041967 -0.00298595 0)
(-0.0435848 -0.000122232 0)
(-0.0439615 -0.000402686 0)
(-0.0451779 -0.00233158 0)
(-0.0476946 -0.00460354 0)
(-0.0511057 -0.00661429 0)
(-0.054821 -0.00830247 0)
(-0.0583803 -0.00978502 0)
(-0.0615888 -0.0112 0)
(-0.0646469 -0.0126316 0)
(-0.0679687 -0.013893 0)
(-0.0719218 -0.0146141 0)
(-0.0768296 -0.0143116 0)
(-0.0830979 -0.012372 0)
(-0.0913274 -0.00800405 0)
(-0.102141 -0.000368057 0)
(-0.114154 0.0106699 0)
(-0.128374 0.0246191 0)
(-0.151864 0.0413764 0)
(-0.187027 0.060063 0)
(-0.236266 0.07711 0)
(-0.293137 0.0897856 0)
(-0.374371 0.0964981 0)
(-0.659938 0.092027 0)
(0.17904 -0.115351 0)
(0.249452 0.224967 0)
(0.239295 0.184399 0)
(0.241352 0.140764 0)
(0.238404 0.0849524 0)
(0.226072 0.0267878 0)
(0.202454 -0.0212443 0)
(0.163784 -0.0533572 0)
(0.114723 -0.0677184 0)
(0.0622418 -0.0642141 0)
(-0.0152025 -0.0329976 0)
(-0.0451872 -0.0192349 0)
(-0.0616927 -0.0108589 0)
(-0.0694526 -0.00703005 0)
(-0.0726694 -0.00528236 0)
(-0.0735799 -0.005053 0)
(-0.074032 -0.00604241 0)
(-0.0750749 -0.00771159 0)
(-0.0771057 -0.00946477 0)
(-0.0798696 -0.0110848 0)
(-0.0830982 -0.0124419 0)
(-0.0866592 -0.0134865 0)
(-0.0905989 -0.0142207 0)
(-0.0950932 -0.0146195 0)
(-0.100307 -0.0145131 0)
(-0.106274 -0.0135635 0)
(-0.112838 -0.0112833 0)
(-0.119598 -0.00709051 0)
(-0.125897 -0.000354963 0)
(-0.130855 0.00908832 0)
(-0.134593 0.0218828 0)
(-0.137492 0.0387278 0)
(-0.14069 0.0591899 0)
(-0.144502 0.0806594 0)
(-0.14457 0.0957068 0)
(-0.124846 0.089935 0)
(-0.0681836 0.0344713 0)
(-0.206905 -0.181726 0)
(0.401336 -0.330786 0)
(-0.0889681 -0.487465 0)
(-0.286865 -0.0178775 0)
(-0.119047 0.171849 0)
(-0.0302517 0.153686 0)
(0.0205598 0.119758 0)
(0.0494701 0.0779076 0)
(0.0596741 0.0348053 0)
(0.0523442 0.00151268 0)
(0.0313256 -0.0166703 0)
(-0.00304427 -0.0235253 0)
(-0.038038 -0.0220442 0)
(-0.0733405 0.0162669 0)
(-0.0885256 0.0253086 0)
(-0.0952609 0.029051 0)
(-0.0979647 0.03143 0)
(-0.0986936 0.0336112 0)
(-0.0984735 0.0357762 0)
(-0.098074 0.0378874 0)
(-0.0979256 0.0395825 0)
(-0.0981597 0.0402447 0)
(-0.0988527 0.0400489 0)
(-0.100031 0.0391568 0)
(-0.101697 0.0377397 0)
(-0.103837 0.0359796 0)
(-0.10642 0.0340112 0)
(-0.109375 0.0319434 0)
(-0.112558 0.0298729 0)
(-0.115745 0.0278735 0)
(-0.118541 0.0259363 0)
(-0.120165 0.0247814 0)
(-0.119416 0.026166 0)
(-0.114726 0.0313932 0)
(-0.10472 0.0414272 0)
(-0.0893274 0.0563783 0)
(-0.0699285 0.0733815 0)
(-0.0463534 0.0832985 0)
(0.0206571 0.0503472 0)
(0.150923 -0.0560993 0)
(-0.0521618 -0.0616213 0)
(0.288525 -0.237206 0)
(-0.276109 -0.136226 0)
(-0.410644 -0.0176508 0)
(-0.369704 0.0721008 0)
(-0.276629 0.0876291 0)
(-0.191725 0.0767525 0)
(-0.12777 0.0569273 0)
(-0.0903994 0.036564 0)
(-0.0786807 0.0231126 0)
(-0.0833403 0.0194583 0)
(-0.0928264 0.018123 0)
(-0.100529 -0.00200189 0)
(-0.115496 -0.0867486 0)
(-0.115334 -0.0896875 0)
(-0.114375 -0.0922371 0)
(-0.112983 -0.095945 0)
(-0.111669 -0.099986 0)
(-0.11047 -0.104391 0)
(-0.109423 -0.108986 0)
(-0.108629 -0.113168 0)
(-0.108279 -0.116103 0)
(-0.108535 -0.117563 0)
(-0.109411 -0.117513 0)
(-0.11083 -0.11602 0)
(-0.112658 -0.113228 0)
(-0.114714 -0.109261 0)
(-0.116766 -0.104167 0)
(-0.118499 -0.0978786 0)
(-0.119492 -0.0901795 0)
(-0.11922 -0.0806641 0)
(-0.116886 -0.0696108 0)
(-0.110867 -0.0575174 0)
(-0.0985548 -0.044199 0)
(-0.0773809 -0.0291115 0)
(-0.0470008 -0.0116302 0)
(-0.00674149 0.00830879 0)
(0.0376765 0.00720393 0)
(0.106454 -0.0518326 0)
(0.12395 -0.0964104 0)
(-0.522309 0.00434169 0)
(0.47451 0.385935 0)
(0.195442 0.133642 0)
(0.17255 0.0876272 0)
(0.123301 0.0735424 0)
(0.0984738 0.0625624 0)
(0.0864027 0.0417883 0)
(0.0855571 0.00798508 0)
(0.0974649 -0.0399177 0)
(0.111007 -0.0979331 0)
(0.120013 -0.15309 0)
(0.118515 -0.187317 0)
(0.105782 -0.188269 0)
(0.285909 0.0904984 0)
(0.37001 0.173207 0)
(0.400063 0.142408 0)
(0.343967 0.132785 0)
(0.286235 0.102538 0)
(0.244981 0.0627203 0)
(0.221789 0.0133653 0)
(0.210701 -0.044298 0)
(0.204223 -0.101864 0)
(0.191311 -0.147299 0)
(0.165466 -0.167693 0)
(0.128894 -0.157666 0)
(0.383139 0.142929 0)
(0.39165 0.172551 0)
(0.358789 0.147893 0)
(0.329482 0.0978534 0)
(0.304568 0.0372321 0)
(0.281962 -0.0246563 0)
(0.252475 -0.0786479 0)
(0.212162 -0.113542 0)
(0.161815 -0.123432 0)
(0.108045 -0.109104 0)
(0.298975 0.244109 0)
(0.2399 0.203008 0)
(0.240456 0.164381 0)
(0.240864 0.113908 0)
(0.233609 0.055343 0)
(0.215959 0.000990091 0)
(0.184788 -0.039436 0)
(0.140145 -0.0628241 0)
(0.088493 -0.0681 0)
(0.0374989 -0.0565143 0)
(0.0226211 -0.43007 0)
(-0.256113 -0.362864 0)
(-0.165415 0.135873 0)
(-0.0669602 0.167485 0)
(-0.00178028 0.137952 0)
(0.0373302 0.099633 0)
(0.056885 0.0558366 0)
(0.0578944 0.0162318 0)
(0.0440394 -0.00928495 0)
(0.0155165 -0.0212496 0)
(-0.0218068 -0.0240096 0)
(-0.0500915 -0.0127082 0)
(-0.239986 -0.168204 0)
(-0.368285 -0.0824393 0)
(-0.405926 0.0384666 0)
(-0.32353 0.0855658 0)
(-0.232107 0.0838893 0)
(-0.156658 0.0674337 0)
(-0.105638 0.0462938 0)
(-0.0817198 0.0286283 0)
(-0.0797523 0.0202249 0)
(-0.0879528 0.0193927 0)
(-0.0973496 0.0128381 0)
(-0.104072 -0.0326074 0)
(0.763366 0.465968 0)
(0.317369 0.264232 0)
(0.350011 0.154971 0)
(0.277401 0.114194 0)
(0.217873 0.0907792 0)
(0.177204 0.0641303 0)
(0.155896 0.0291972 0)
(0.150883 -0.0181692 0)
(0.156066 -0.0743331 0)
(0.160217 -0.130389 0)
(0.15455 -0.170927 0)
(0.135111 -0.182235 0)
(0.788381 -0.173377 0)
(0.153861 0.238706 0)
(0.399391 0.167243 0)
(0.428159 0.168123 0)
(0.373963 0.149342 0)
(0.326781 0.106967 0)
(0.2917 0.0540285 0)
(0.268635 -0.00579146 0)
(0.249573 -0.0665002 0)
(0.226869 -0.116608 0)
(0.193193 -0.144721 0)
(0.148903 -0.144916 0)
(0.307578 0.0937031 0)
(0.357234 0.193134 0)
(0.327755 0.175419 0)
(0.313265 0.136083 0)
(0.297328 0.0787536 0)
(0.279014 0.0171891 0)
(0.252815 -0.0374846 0)
(0.212387 -0.0766882 0)
(0.160937 -0.0948208 0)
(0.105554 -0.0909755 0)
(0.441768 0.224428 0)
(0.0668559 0.218071 0)
(0.11205 0.178047 0)
(0.137967 0.135772 0)
(0.149861 0.0851678 0)
(0.146542 0.0332418 0)
(0.129922 -0.00763759 0)
(0.0991914 -0.0327288 0)
(0.0573727 -0.0435524 0)
(0.013386 -0.04116 0)
(0.498532 -0.25938 0)
(-0.192881 -0.256943 0)
(-0.351153 -0.0668943 0)
(-0.26439 0.100522 0)
(-0.167019 0.112575 0)
(-0.0960388 0.0935519 0)
(-0.0471884 0.0635068 0)
(-0.0213462 0.0312636 0)
(-0.0185395 0.00676959 0)
(-0.0318786 -0.00451533 0)
(-0.056178 -0.00744277 0)
(-0.0770615 -0.00705699 0)
(0.329072 -0.250418 0)
(-0.349158 -0.158624 0)
(-0.476026 -0.102317 0)
(-0.452663 -0.0535044 0)
(-0.362862 -0.0383146 0)
(-0.269612 -0.0404282 0)
(-0.196142 -0.0486584 0)
(-0.149407 -0.056258 0)
(-0.1249 -0.0600862 0)
(-0.111441 -0.0630821 0)
(-0.100987 -0.070554 0)
(-0.104991 -0.0766769 0)
(0.344272 0.290964 0)
(0.354395 0.201869 0)
(0.31419 0.128796 0)
(0.24532 0.102546 0)
(0.194757 0.078433 0)
(0.164037 0.048345 0)
(0.151402 0.00735874 0)
(0.153005 -0.0450254 0)
(0.158893 -0.102614 0)
(0.158973 -0.153093 0)
(0.146442 -0.180453 0)
(0.121788 -0.175721 0)
(-0.224636 0.189774 0)
(0.297416 0.192307 0)
(0.435922 0.161308 0)
(0.401691 0.163739 0)
(0.34903 0.129791 0)
(0.307511 0.0815821 0)
(0.279287 0.0248519 0)
(0.258966 -0.036679 0)
(0.239266 -0.0936367 0)
(0.211583 -0.133958 0)
(0.172039 -0.148345 0)
(0.124916 -0.134849 0)
(0.375295 0.194155 0)
(0.339154 0.185505 0)
(0.320354 0.158911 0)
(0.30554 0.108771 0)
(0.28861 0.0476745 0)
(0.267844 -0.0116099 0)
(0.234272 -0.0594823 0)
(0.187664 -0.0885423 0)
(0.1332 -0.0955552 0)
(0.0777951 -0.0815885 0)
(0.0752226 0.215573 0)
(0.0913701 0.198537 0)
(0.126875 0.157842 0)
(0.145733 0.111301 0)
(0.150142 0.0586251 0)
(0.139102 0.010834 0)
(0.116323 -0.0220131 0)
(0.0792747 -0.0399061 0)
(0.0348701 -0.0439168 0)
(-0.00816327 -0.0344355 0)
(-0.17375 -0.283424 0)
(-0.309071 -0.187793 0)
(-0.318877 0.0425219 0)
(-0.211501 0.114317 0)
(-0.128712 0.104921 0)
(-0.0688672 0.0794343 0)
(-0.0313094 0.0470273 0)
(-0.017266 0.01746 0)
(-0.0235104 -0.000381949 0)
(-0.0432143 -0.00652924 0)
(-0.0687808 -0.00780645 0)
(-0.0786624 -0.00256587 0)
(-0.288167 -0.182621 0)
(-0.4332 -0.130879 0)
(-0.479395 -0.0749456 0)
(-0.41076 -0.0425015 0)
(-0.314697 -0.0381285 0)
(-0.229681 -0.0442321 0)
(-0.169474 -0.052873 0)
(-0.135014 -0.0585908 0)
(-0.117492 -0.0613061 0)
(-0.105906 -0.0662187 0)
(-0.0990468 -0.0744063 0)
(-0.116428 -0.0820519 0)
)
;

boundaryField
{
    floor
    {
        type            noSlip;
    }
    ceiling
    {
        type            noSlip;
    }
    sWall
    {
        type            noSlip;
    }
    nWall
    {
        type            noSlip;
    }
    sideWalls
    {
        type            empty;
    }
    glass1
    {
        type            noSlip;
    }
    glass2
    {
        type            noSlip;
    }
    sun
    {
        type            noSlip;
    }
    Table_master
    {
        type            noSlip;
    }
    Table_slave
    {
        type            noSlip;
    }
    inlet
    {
        type            fixedValue;
        value           uniform (0.5 0 0);
    }
    outlet
    {
        type            zeroGradient;
    }
}


// ************************************************************************* //
