/*--------------------------------*- C++ -*----------------------------------*\
  =========                 |
  \\      /  F ield         | OpenFOAM: The Open Source CFD Toolbox
   \\    /   O peration     | Website:  https://openfoam.org
    \\  /    A nd           | Version:  6
     \\/     M anipulation  |
\*---------------------------------------------------------------------------*/
FoamFile
{
    version     2.0;
    format      ascii;
    class       volScalarField;
    location    "840";
    object      k;
}
// * * * * * * * * * * * * * * * * * * * * * * * * * * * * * * * * * * * * * //

dimensions      [0 2 -2 0 0 0 0];

internalField   nonuniform List<scalar> 
458
(
0.00226811
0.00268645
0.00280925
0.00308448
0.00334937
0.00361024
0.003881
0.00416591
0.00440628
0.00456069
0.00457814
0.0044132
0.00402221
0.00325454
0.00187357
0.000457662
0.000628924
0.000808408
0.000878947
0.000851672
0.000745806
0.000636866
0.000546681
0.000474128
0.000415302
0.000367114
0.00032739
0.000294067
0.000265274
0.000239334
0.000214631
0.000200584
0.000169424
0.00412356
0.00755252
0.00415108
0.0043751
0.00471714
0.00513664
0.00563396
0.00619851
0.00680268
0.00731515
0.0075904
0.00753279
0.00712506
0.00635538
0.00513903
0.00326459
0.00224704
0.0014958
0.000450321
0.000973203
0.00130343
0.00145861
0.00147302
0.00125963
0.00102454
0.000834163
0.000688852
0.000577405
0.000490723
0.000421557
0.000364736
0.000317469
0.000283534
0.000264398
0.000493813
0.000292743
0.00609593
0.0136499
0.00491256
0.00472613
0.00494295
0.00528767
0.00575278
0.00634316
0.00699646
0.00755327
0.00789532
0.00795249
0.00769563
0.00706207
0.00603822
0.00488933
0.00391941
0.0020868
0.00106813
0.00139977
0.00160377
0.00173068
0.00172318
0.00134743
0.00103275
0.000802781
0.000637718
0.000518346
0.000430673
0.000365388
0.000316513
0.000280922
0.000262162
0.000265455
0.000780243
0.000408836
0.00835986
0.0222374
0.00592847
0.00470812
0.00474784
0.00501807
0.00547555
0.00617025
0.00689506
0.0074658
0.00783681
0.00795672
0.00775102
0.00714777
0.00628852
0.0054369
0.00463343
0.00350113
0.00276969
0.00250738
0.00237458
0.0023387
0.00229019
0.00215252
0.00170998
0.00143684
0.00126439
0.00114417
0.00104718
0.00095502
0.000871445
0.000787291
0.000694337
0.000530273
0.000422806
0.00113246
0.000542362
0.0110423
0.0339582
0.00842575
0.00475114
0.00448433
0.00470974
0.00530151
0.00635736
0.00718714
0.00774183
0.00809776
0.00820013
0.00790308
0.00718463
0.00621761
0.00531045
0.00458078
0.00397944
0.00379543
0.00348025
0.00325328
0.00307146
0.0028601
0.00259118
0.00230347
0.00210731
0.00198718
0.00189243
0.00179033
0.00166153
0.00149221
0.00129938
0.00109406
0.000865801
0.000664846
0.000922227
0.00106377
0.000969405
0.00108635
0.00128346
0.0143268
0.0466891
0.0149525
0.00592503
0.00474412
0.00478508
0.00571011
0.0072695
0.00803401
0.00847654
0.0087412
0.00875046
0.00832291
0.00738096
0.00612624
0.00496751
0.00418485
0.00384276
0.00381502
0.00382401
0.00373285
0.00350981
0.00319038
0.00283598
0.00254879
0.00239615
0.0023224
0.00226373
0.00218555
0.00206558
0.00187872
0.00164915
0.00140055
0.00114695
0.000935735
0.000900794
0.00103011
0.00105446
0.00165139
0.00138072
0.0179766
0.0550478
0.0270794
0.0123642
0.00831198
0.00741596
0.00850897
0.00921265
0.00948838
0.00964803
0.00973238
0.00958636
0.00894977
0.00771145
0.0061118
0.00470022
0.00388819
0.00373716
0.00389944
0.00398383
0.00385474
0.00355161
0.00317228
0.00281312
0.00256845
0.00246936
0.00245236
0.0024576
0.00245541
0.00242489
0.00233634
0.00214757
0.00191099
0.00165927
0.0014575
0.00136483
0.00145115
0.00168166
0.00223405
0.00194894
0.0189414
0.0568407
0.038302
0.0271743
0.0197468
0.0158868
0.0137296
0.0122916
0.0115389
0.0112149
0.0110126
0.0106128
0.00964897
0.00799671
0.00597564
0.00439364
0.00367845
0.00365642
0.00378089
0.00375124
0.00351794
0.0031712
0.00282122
0.00255153
0.00240884
0.00238432
0.00243179
0.00251783
0.00263049
0.00276729
0.00292559
0.0030672
0.00310963
0.00313931
0.00329254
0.00386945
0.00511955
0.00681584
0.0128314
0.00467716
0.0182047
0.0264663
0.0243621
0.0217105
0.0188866
0.0164652
0.0146557
0.0135929
0.0130896
0.0127715
0.012361
0.0115996
0.0100737
0.00777071
0.00516028
0.00385863
0.00340356
0.00331051
0.00325393
0.00309227
0.00282436
0.00252863
0.00228339
0.00213496
0.00208945
0.00212362
0.00220986
0.00233324
0.00249012
0.00268169
0.00290933
0.00317122
0.00348984
0.00390108
0.00444795
0.00509755
0.00569677
0.00606924
0.00624878
0.00408131
0.00718378
0.0110934
0.0135423
0.0147747
0.0154403
0.0157121
0.0153824
0.0144579
0.0132184
0.0115894
0.00880981
0.00585863
0.00403623
0.00322574
0.00288169
0.0027006
0.00252825
0.00231841
0.00209111
0.00188826
0.0017521
0.00169312
0.00169782
0.00174763
0.00182973
0.00193919
0.00207742
0.00225108
0.00247284
0.00276576
0.00313123
0.00356703
0.00405094
0.00449045
0.00471262
0.00457286
0.00410692
0.00264226
0.00805066
0.0194733
0.0216168
0.0215071
0.0207341
0.0184819
0.0153432
0.0120185
0.00883596
0.00623679
0.00435128
0.00326381
0.00271588
0.00241177
0.00220988
0.00203176
0.00184702
0.00166412
0.00150855
0.00139837
0.00133773
0.00132585
0.00135466
0.00141849
0.00151572
0.00164776
0.00181788
0.0020304
0.00229583
0.00262425
0.00302429
0.00349673
0.00401532
0.00451213
0.00481678
0.00510141
0.00428745
0.0027114
0.00890521
0.00935062
0.00976447
0.0120864
0.0107978
0.00847902
0.00603524
0.00437093
0.00348298
0.00273233
0.00214633
0.00173673
0.00142359
0.00120701
0.00106701
0.000970179
0.000895645
0.000833912
0.000784615
0.000752197
0.000740275
0.000749203
0.000776055
0.000816388
0.000868809
0.000933038
0.00100976
0.00110065
0.00120873
0.00133945
0.00149637
0.00168135
0.00189874
0.0021535
0.00245025
0.00283113
0.00300648
0.0028846
0.00249559
0.00213474
)
;

boundaryField
{
    floor
    {
        type            kqRWallFunction;
        value           nonuniform List<scalar> 
36
(
0.00187357
0.000457662
0.000628924
0.000808408
0.000878947
0.000851672
0.000745806
0.000636866
0.000546681
0.000474128
0.000415302
0.000367114
0.00032739
0.000294067
0.000265274
0.000239334
0.000214631
0.000200584
0.000169424
0.000169424
0.000292743
0.000408836
0.000542362
0.000969405
0.00108635
0.00128346
0.00187357
0.00326459
0.00224704
0.0014958
0.000457662
0.0014958
0.000450321
0.0020868
0.00106813
0.00276969
)
;
    }
    ceiling
    {
        type            kqRWallFunction;
        value           nonuniform List<scalar> 
43
(
0.00890521
0.00935062
0.00976447
0.0120864
0.0107978
0.00847902
0.00603524
0.00437093
0.00348298
0.00273233
0.00214633
0.00173673
0.00142359
0.00120701
0.00106701
0.000970179
0.000895645
0.000833912
0.000784615
0.000752197
0.000740275
0.000749203
0.000776055
0.000816388
0.000868809
0.000933038
0.00100976
0.00110065
0.00120873
0.00133945
0.00149637
0.00168135
0.00189874
0.0021535
0.00245025
0.00283113
0.00300648
0.0028846
0.00249559
0.00213474
0.0182047
0.0264663
0.00805066
)
;
    }
    sWall
    {
        type            kqRWallFunction;
        value           uniform 0.00890521;
    }
    nWall
    {
        type            kqRWallFunction;
        value           nonuniform List<scalar> 6(0.00128346 0.00138072 0.00194894 0.00264226 0.0027114 0.00213474);
    }
    sideWalls
    {
        type            empty;
    }
    glass1
    {
        type            kqRWallFunction;
        value           nonuniform List<scalar> 9(0.00226811 0.00412356 0.00609593 0.00835986 0.0110423 0.0143268 0.0179766 0.0189414 0.0182047);
    }
    glass2
    {
        type            kqRWallFunction;
        value           nonuniform List<scalar> 2(0.00467716 0.00408131);
    }
    sun
    {
        type            kqRWallFunction;
        value           nonuniform List<scalar> 
14
(
0.00226811
0.00268645
0.00280925
0.00308448
0.00334937
0.00361024
0.003881
0.00416591
0.00440628
0.00456069
0.00457814
0.0044132
0.00402221
0.00325454
)
;
    }
    Table_master
    {
        type            kqRWallFunction;
        value           nonuniform List<scalar> 9(0.00134743 0.00103275 0.000802781 0.000637718 0.000518346 0.000430673 0.000365388 0.000316513 0.000280922);
    }
    Table_slave
    {
        type            kqRWallFunction;
        value           nonuniform List<scalar> 9(0.00170998 0.00143684 0.00126439 0.00114417 0.00104718 0.00095502 0.000871445 0.000787291 0.000694337);
    }
    inlet
    {
        type            turbulentIntensityKineticEnergyInlet;
        intensity       0.05;
        value           uniform 0.000937501;
    }
    outlet
    {
        type            zeroGradient;
    }
}


// ************************************************************************* //
