/*--------------------------------*- C++ -*----------------------------------*\
  =========                 |
  \\      /  F ield         | OpenFOAM: The Open Source CFD Toolbox
   \\    /   O peration     | Website:  https://openfoam.org
    \\  /    A nd           | Version:  6
     \\/     M anipulation  |
\*---------------------------------------------------------------------------*/
FoamFile
{
    version     2.0;
    format      ascii;
    class       volScalarField;
    location    "840";
    object      nut;
}
// * * * * * * * * * * * * * * * * * * * * * * * * * * * * * * * * * * * * * //

dimensions      [0 2 -1 0 0 0 0];

internalField   nonuniform List<scalar> 
458
(
0.00106949
0.00116395
0.00119025
0.0012472
0.00129965
0.00134931
0.001399
0.00144944
0.00149067
0.00151656
0.00151946
0.00149184
0.00142422
0.00128112
0.00097203
0.000480416
0.000563175
0.000638498
0.000665773
0.000655361
0.000613278
0.00056672
0.000525063
0.000488981
0.000457643
0.000430274
0.000406328
0.000385095
0.000365756
0.000347414
0.000328996
0.000318048
0.000292302
0.00144205
0.00324171
0.00298995
0.00342591
0.00386066
0.00430789
0.0047092
0.00501957
0.0053383
0.00563655
0.00587568
0.00602083
0.00603414
0.00582387
0.00473309
0.00128309
0.00106451
0.000868524
0.000476547
0.00113089
0.00164809
0.00204854
0.00217521
0.0015853
0.0013383
0.00117023
0.00104619
0.000951158
0.000875751
0.000810719
0.000749633
0.00068865
0.00063418
0.000588508
0.000719964
0.000384227
0.00175333
0.00435753
0.00359588
0.00438434
0.00471597
0.00494892
0.00512795
0.00529316
0.00552293
0.00580208
0.00610711
0.00640612
0.0066422
0.00672457
0.00633604
0.00516387
0.00391351
0.00102585
0.000733934
0.00126646
0.00184284
0.00241619
0.00258001
0.000824322
0.000721676
0.000636272
0.000567099
0.000511275
0.000466035
0.000429261
0.000399522
0.000376389
0.000417079
0.000483039
0.000844776
0.000454066
0.00205326
0.00556657
0.00349841
0.00454263
0.00472443
0.00470674
0.00469022
0.00476945
0.00495628
0.00523236
0.00558326
0.0059749
0.006318
0.00653357
0.00648457
0.006149
0.00527735
0.00289752
0.00118184
0.00150464
0.00206849
0.00275912
0.00335799
0.00338775
0.000928624
0.000851232
0.000798519
0.000759608
0.0007267
0.000693986
0.000662925
0.000630104
0.000591738
0.000557312
0.000549176
0.00100697
0.000522985
0.0023598
0.00719337
0.00367001
0.00431255
0.00457225
0.00441794
0.00429229
0.00436426
0.00456151
0.00484865
0.00522689
0.00565634
0.00599267
0.00616022
0.00615608
0.00603847
0.00569041
0.00470568
0.00426507
0.00429587
0.00454631
0.00484481
0.00502826
0.00494613
0.00422024
0.00384703
0.0036414
0.0034941
0.003345
0.00315299
0.00282611
0.00240522
0.00192654
0.00146541
0.0010991
0.00102403
0.000888903
0.000699193
0.000740167
0.000804517
0.00268794
0.00902625
0.00502682
0.00399329
0.00435217
0.00434352
0.0041831
0.00424341
0.00444447
0.00473151
0.00511506
0.0055266
0.00583807
0.00593811
0.00584426
0.00570954
0.00564882
0.0055677
0.00573523
0.00602594
0.00623017
0.00626708
0.0061305
0.00584396
0.0054433
0.00511767
0.00486411
0.00464065
0.00442106
0.00418788
0.00388663
0.00347361
0.00295125
0.00236054
0.00181382
0.00131525
0.00108098
0.000942967
0.00118744
0.000834445
0.00301091
0.0104114
0.00750184
0.00490959
0.0042722
0.0043336
0.0043891
0.00442079
0.0045341
0.00478681
0.00516401
0.00557188
0.00585766
0.00589034
0.00571211
0.0055831
0.0057976
0.00627274
0.00675656
0.0070298
0.00703097
0.00679772
0.00640215
0.00592033
0.00544002
0.00505336
0.00476049
0.00452292
0.00431497
0.00412815
0.00395821
0.00373599
0.00337078
0.00288283
0.00237605
0.00188926
0.00157157
0.00143969
0.00137231
0.000991388
0.00309065
0.00966268
0.00820324
0.00688405
0.00587614
0.00543016
0.00501113
0.00472564
0.00471904
0.00495961
0.00534974
0.00575294
0.00599405
0.00594056
0.00572252
0.00577863
0.00639113
0.00689362
0.00715554
0.00714395
0.00686073
0.0063704
0.00576688
0.00515785
0.00465146
0.00429641
0.00405687
0.00388478
0.00375728
0.00367131
0.00363306
0.00363468
0.00353726
0.00324715
0.00296446
0.00280679
0.0028751
0.00303513
0.00360554
0.0015358
0.00302996
0.00365335
0.00403426
0.00424614
0.00427551
0.00421054
0.00421089
0.00438535
0.00474121
0.00519609
0.00566287
0.0060319
0.00615226
0.00594344
0.0058864
0.0061979
0.00655713
0.00668024
0.00659128
0.00627992
0.00575774
0.00511261
0.00446834
0.00393933
0.00357309
0.00333978
0.00318326
0.00306427
0.00296277
0.00286749
0.00276984
0.00266268
0.00256552
0.00248145
0.00242577
0.00239446
0.00233493
0.00221226
0.0020631
0.00143464
0.00133515
0.00234652
0.00322173
0.00390663
0.00453214
0.00514152
0.00562602
0.00595329
0.00616819
0.00620154
0.00600263
0.00575808
0.00576091
0.00586455
0.00578576
0.00555302
0.00518593
0.00469165
0.00412302
0.00356725
0.00312464
0.00282647
0.00264355
0.00253128
0.00245674
0.00240237
0.00236066
0.00232991
0.00231266
0.00231806
0.00233162
0.00234374
0.00234447
0.0023075
0.00219325
0.00199182
0.00174219
0.00115434
0.00201493
0.00395782
0.00507615
0.00580155
0.00636616
0.0064159
0.00608815
0.00575859
0.00547434
0.00492917
0.00454177
0.00445262
0.00439193
0.00422024
0.0039613
0.00364022
0.0032638
0.00286765
0.00251043
0.0022326
0.00204088
0.0019303
0.00187845
0.00186724
0.00188548
0.00192606
0.00198286
0.00204858
0.0021255
0.00221381
0.00230833
0.00240118
0.00247678
0.00251459
0.00247955
0.00244901
0.00225474
0.00116934
0.00211917
0.00217152
0.00221906
0.00246884
0.00233353
0.00206784
0.00174458
0.00148468
0.00132532
0.00117384
0.00104038
0.000935859
0.000847301
0.000780189
0.000733547
0.000699472
0.000672067
0.000648492
0.000629032
0.0006159
0.000611
0.000614673
0.000625591
0.000641642
0.000661922
0.000685953
0.000713598
0.000745021
0.000780745
0.000821877
0.00086869
0.000920817
0.000978538
0.00104212
0.0011116
0.00119488
0.00123133
0.00120611
0.00112184
0.00103757
)
;

boundaryField
{
    floor
    {
        type            nutkWallFunction;
        Cmu             0.09;
        kappa           0.41;
        E               9.8;
        value           nonuniform List<scalar> 
36
(
0.000117422
5.72072e-05
6.77298e-05
7.71419e-05
8.05161e-05
7.923e-05
7.40062e-05
6.81759e-05
6.29094e-05
5.83061e-05
5.42734e-05
5.07233e-05
4.75937e-05
4.47989e-05
4.22363e-05
3.97896e-05
3.73158e-05
3.58368e-05
3.23316e-05
3.23315e-05
4.46836e-05
5.38102e-05
6.26445e-05
8.46275e-05
8.96373e-05
9.74401e-05
0.000117422
0.000153534
0.00012828
0.000105127
5.72071e-05
0.000105127
5.67098e-05
0.000123755
8.88778e-05
0.000141903
)
;
    }
    ceiling
    {
        type            nutkWallFunction;
        Cmu             0.09;
        kappa           0.41;
        E               9.8;
        value           nonuniform List<scalar> 
43
(
0.000246192
0.000251845
0.000256967
0.000283769
0.000269357
0.000240741
0.000205364
0.000176394
0.000158356
0.000140981
0.00012546
0.000113145
0.000102587
9.44992e-05
8.88304e-05
8.46619e-05
8.12918e-05
7.83796e-05
7.59661e-05
7.43323e-05
7.37216e-05
7.41795e-05
7.55384e-05
7.7531e-05
8.00401e-05
8.30014e-05
8.63928e-05
9.02287e-05
9.45666e-05
9.95322e-05
0.000105148
0.000111361
0.000118193
0.000125665
0.000133772
0.000143412
0.000147608
0.000144707
0.000134962
0.000125133
0.0003432
0.000407604
0.000234812
)
;
    }
    sWall
    {
        type            nutkWallFunction;
        Cmu             0.09;
        kappa           0.41;
        E               9.8;
        value           uniform 0.000246258;
    }
    nWall
    {
        type            nutkWallFunction;
        Cmu             0.09;
        kappa           0.41;
        E               9.8;
        value           nonuniform List<scalar> 6(9.74407e-05 0.000101045 0.000119712 0.000138739 0.000140475 0.00012514);
    }
    sideWalls
    {
        type            empty;
    }
    glass1
    {
        type            nutkWallFunction;
        Cmu             0.09;
        kappa           0.41;
        E               9.8;
        value           nonuniform List<scalar> 9(0.000128969 0.000171818 0.000206656 0.000239584 0.000272706 0.000307661 0.00034163 0.000349967 0.000343648);
    }
    glass2
    {
        type            nutkWallFunction;
        Cmu             0.09;
        kappa           0.41;
        E               9.8;
        value           nonuniform List<scalar> 2(0.000182235 0.000170843);
    }
    sun
    {
        type            nutkWallFunction;
        Cmu             0.09;
        kappa           0.41;
        E               9.8;
        value           nonuniform List<scalar> 
14
(
0.000128865
0.000139835
0.000142872
0.000149422
0.000155426
0.000161085
0.000166724
0.000172426
0.00017707
0.00017998
0.000180305
0.000177201
0.000169577
0.000153307
)
;
    }
    Table_master
    {
        type            nutkWallFunction;
        Cmu             0.09;
        kappa           0.41;
        E               9.8;
        value           nonuniform List<scalar> 9(9.98255e-05 8.73821e-05 7.68684e-05 6.8228e-05 6.11612e-05 5.53644e-05 5.06007e-05 4.67106e-05 4.36594e-05);
    }
    Table_slave
    {
        type            nutkWallFunction;
        Cmu             0.09;
        kappa           0.41;
        E               9.8;
        value           nonuniform List<scalar> 9(0.000112285 0.000103057 9.67156e-05 9.20032e-05 8.79956e-05 8.399e-05 8.0166e-05 7.61018e-05 7.13185e-05);
    }
    inlet
    {
        type            calculated;
        value           uniform 0.000167705;
    }
    outlet
    {
        type            calculated;
        value           nonuniform List<scalar> 2(0.00211917 0.00217152);
    }
}


// ************************************************************************* //
