/*--------------------------------*- C++ -*----------------------------------*\
  =========                 |
  \\      /  F ield         | OpenFOAM: The Open Source CFD Toolbox
   \\    /   O peration     | Website:  https://openfoam.org
    \\  /    A nd           | Version:  6
     \\/     M anipulation  |
\*---------------------------------------------------------------------------*/
FoamFile
{
    version     2.0;
    format      ascii;
    class       surfaceScalarField;
    location    "4430";
    object      phi;
}
// * * * * * * * * * * * * * * * * * * * * * * * * * * * * * * * * * * * * * //

dimensions      [1 0 -1 0 0 0 0];

internalField   nonuniform List<scalar> 
850
(
-0.00305311
0.00311357
-0.00414582
0.0010927
-0.0050149
0.000869087
-0.00570375
0.000688851
-0.00617583
0.000472075
-0.00639707
0.00022124
-0.00632785
-6.92191e-05
-0.00592402
-0.00040383
-0.00517376
-0.000750256
-0.00412859
-0.00104517
-0.00290029
-0.0012283
-0.00164149
-0.0012588
-0.000538991
-0.0011025
0.000135919
-0.00067491
0.00013827
-0.00092242
0.000926077
-0.000690026
-0.000232394
-6.07954e-05
-0.000629231
0.000542645
-0.000603441
0.00100183
-0.00045918
0.0012584
-0.000256574
0.00136651
-0.000108115
0.00141933
-5.28166e-05
0.00144968
-3.03533e-05
0.00146475
-1.50658e-05
0.00146836
-3.61067e-06
0.00146136
6.99988e-06
0.00143811
2.3254e-05
0.00137959
5.85212e-05
0.00125367
0.000125919
0.00105009
0.00020358
0.000793442
0.000256644
0.000798282
-0.00220745
0.00548442
-0.0032951
0.00218035
-0.00420832
0.00178231
-0.00490609
0.00138662
-0.0053876
0.000953583
-0.00563053
0.000464175
-0.0055945
-0.000105253
-0.00524029
-0.000758036
-0.00456677
-0.00142377
-0.00364272
-0.00196923
-0.00258803
-0.002283
-0.00154149
-0.00230533
-0.000628659
-0.00201533
9.29393e-05
-0.00139651
0.000872757
-0.000641547
0.0011486
-0.000272064
0.000956838
0.000196126
0.000969526
4.1522e-05
0.000895555
0.000421778
-0.00061265
0.000786658
-0.000994111
0.00109963
-0.000916408
0.00135047
-0.00071003
0.00140694
-0.00031304
0.00141508
-0.000116251
0.0014258
-6.35414e-05
0.00143479
-3.93388e-05
0.00144006
-2.03336e-05
0.00144222
-5.77423e-06
0.00144183
7.39113e-06
0.00143635
2.87324e-05
0.00139989
9.49773e-05
0.00124701
0.000278798
0.000978552
0.000472042
0.000644611
0.000590585
0.00145527
-0.00156234
0.00729718
-0.00251037
0.00312839
-0.003343
0.00261494
-0.00396557
0.00200918
-0.00441314
0.00140116
-0.00466166
0.000712693
-0.00465599
-0.000110923
-0.00433469
-0.00107933
-0.00371314
-0.00204532
-0.00288871
-0.00279366
-0.00198659
-0.00318512
-0.00112266
-0.00316927
-0.000373455
-0.00276453
0.000240545
-0.00201051
0.000752044
-0.00115305
0.000899394
-0.000419414
0.000707504
0.000388016
0.00168829
0.00143724
-0.000527845
0.00163274
-0.000808148
0.00157514
-0.000936512
0.00160842
-0.000949694
0.00181169
-0.000913295
0.0014988
0.0013827
0.00131932
0.00128013
0.00125995
0.00125433
0.00126188
0.00129076
0.00138589
0.00115887
0.000505824
0.000869988
0.000760922
0.00049889
0.000961683
0.00197273
-0.00109547
0.0087173
-0.00185227
0.00388519
-0.0024366
0.00319926
-0.00288268
0.00245526
-0.00322781
0.00174628
-0.00344067
0.000925556
-0.00344208
-0.00010952
-0.00312366
-0.00139775
-0.00254779
-0.00262119
-0.00184607
-0.00349538
-0.00113041
-0.00390077
-0.000480687
-0.00381899
6.57864e-05
-0.00331101
0.000526382
-0.0024711
0.000902481
-0.00152915
0.00111955
-0.000636487
0.00130374
0.000203833
0.0022575
0.000734532
0.0021677
0.000101742
0.00199492
-0.000355067
0.00190895
-0.000722181
0.00179815
-0.000825713
0.00166595
-0.000817495
0.00143499
-0.000682333
0.0017586
-0.000323763
0.00193627
-0.000177825
0.0020672
-0.000131086
0.002168
-0.000100947
0.00222823
-6.0385e-05
0.00222567
2.40099e-06
0.00213278
9.27359e-05
0.00191323
0.0002194
0.00150707
0.000406004
0.00126968
0.000743216
0.000902425
0.00112818
0.000384083
0.00148003
0.00238045
-0.000756067
0.00986109
-0.00132705
0.00445617
-0.00150962
0.00338183
-0.00168822
0.00263386
-0.00185321
0.00191127
-0.00196224
0.00103459
-0.00191377
-0.000157982
-0.00155674
-0.00175478
-0.00105572
-0.00312221
-0.000537809
-0.00401329
-7.33154e-05
-0.00436527
0.000305338
-0.00419764
0.000596507
-0.00360218
0.000849389
-0.00272399
0.00106873
-0.00174849
0.00127614
-0.000843893
0.00158681
-0.000106841
0.00203037
0.000290977
0.00206424
6.78697e-05
0.00199693
-0.000287754
0.00181243
-0.000537684
0.00162456
-0.000637838
0.00144747
-0.000640406
0.00131879
-0.000553654
0.00137755
-0.000382524
0.00146561
-0.000265889
0.00155009
-0.000215561
0.00163158
-0.000182439
0.00170172
-0.000130523
0.00174075
-3.66322e-05
0.00172469
0.0001088
0.00163843
0.000305663
0.00148619
0.000558239
0.00133011
0.0008993
0.00115113
0.00130716
0.000804094
0.00182706
0.00101982
0.00216473
-0.00109517
0.00213611
-0.00179343
0.000717876
-0.00172066
-0.000638709
0.0109406
-0.00101437
0.00483183
-0.000633431
0.0030009
-0.000448694
0.00244913
-0.000384077
0.00184665
-0.000303722
0.00095423
-5.19354e-05
-0.000409769
0.000334471
-0.00214119
0.000692154
-0.0034799
0.000952003
-0.00427314
0.00109502
-0.00450829
0.00114535
-0.00424797
0.00113925
-0.00359608
0.00111607
-0.0027008
0.0011006
-0.00173302
0.00113277
-0.000876062
0.00126984
-0.000243906
0.00148461
7.62049e-05
0.00153587
1.6608e-05
0.0014379
-0.000189781
0.00126352
-0.000363308
0.00108386
-0.000458175
0.00092656
-0.000483107
0.000821539
-0.000448633
0.000810743
-0.000371728
0.000860091
-0.000315237
0.000936263
-0.000291733
0.00102701
-0.000273187
0.00112584
-0.000229356
0.00122285
-0.000133637
0.00129576
3.58886e-05
0.00133282
0.000268603
0.00134812
0.000542939
0.00138214
0.00086528
0.00148259
0.0012067
0.00168608
0.00162358
0.00203682
0.00181399
0.00233694
0.00183598
0.00182999
0.00122483
0.000174762
-0.00076386
0.0121917
-0.000621481
0.00468946
0.000492277
0.00188714
0.00096063
0.00198077
0.00121799
0.00158929
0.00159949
0.000572729
0.00210277
-0.000913052
0.00243994
-0.00247835
0.00257374
-0.0036137
0.00250619
-0.00420559
0.00227297
-0.00427507
0.00193601
-0.00391101
0.00155908
-0.00321915
0.00120034
-0.00234206
0.00089662
-0.0014293
0.000705088
-0.00068453
0.000653498
-0.000192315
0.00070466
2.50426e-05
0.00071274
8.52757e-06
0.000636479
-0.000113519
0.000509154
-0.000235984
0.000368858
-0.000317879
0.000242959
-0.000357208
0.00015685
-0.000362524
0.000133891
-0.000348769
0.000162899
-0.000344245
0.000222529
-0.000351363
0.000302986
-0.000353644
0.000405273
-0.000331644
0.000534363
-0.000262727
0.000687268
-0.000117017
0.00084521
0.000110661
0.00100721
0.000380936
0.00120906
0.00066343
0.00148366
0.00093211
0.00188404
0.0012232
0.00241744
0.00128059
0.00318504
0.00106838
0.00336162
0.00104826
0.00360519
0.00273593
0.00999912
0.0033917
0.00403368
0.00344936
0.00182948
0.00353504
0.00189509
0.00374632
0.00137802
0.00422223
9.68174e-05
0.00469337
-0.00138419
0.00478839
-0.00257338
0.00451406
-0.00333937
0.0039609
-0.00365243
0.00322974
-0.0035439
0.00242475
-0.00310603
0.00162793
-0.00242233
0.000922026
-0.00163616
0.000347368
-0.000854645
-2.51127e-06
-0.000334651
-0.000140824
-5.40025e-05
-0.000155252
3.94707e-05
-0.000163105
1.63806e-05
-0.000215235
-6.13885e-05
-0.000306055
-0.000145164
-0.000412281
-0.000211652
-0.0005116
-0.00025789
-0.000585869
-0.000288255
-0.000623867
-0.000310771
-0.00063308
-0.000335032
-0.000625255
-0.000359188
-0.000604693
-0.000374206
-0.000566413
-0.000369924
-0.000494195
-0.000334945
-0.000356731
-0.00025448
-0.000146597
-9.94724e-05
0.000104173
0.000130166
0.000388869
0.000378734
0.000707311
0.000613668
0.00108958
0.000840922
0.00150689
0.000863286
0.00189864
0.000676623
0.00120605
0.00174085
0.00509765
0.010598
0.0146275
0.0125614
0.00389561
0.0112292
0.00322726
0.0103407
0.00226651
0.00953391
0.000903652
0.00853148
-0.000381757
0.00735255
-0.00139445
0.00607927
-0.00206609
0.00476044
-0.0023336
0.00342924
-0.00221271
0.00216421
-0.00184099
0.00100939
-0.00126751
5.6366e-05
-0.000683128
-0.000566046
-0.000232233
-0.000859634
-4.10633e-05
-0.00095677
4.31338e-05
-0.000976429
5.91299e-05
-0.000991819
3.17706e-05
-0.00103525
-1.79542e-05
-0.00110783
-7.25832e-05
-0.00119687
-0.000122618
-0.00128868
-0.000166081
-0.0013743
-0.000202629
-0.0014515
-0.000233575
-0.00152704
-0.000259492
-0.0016102
-0.000276026
-0.00170952
-0.000274886
-0.00183466
-0.000244785
-0.00199852
-0.000171089
-0.00221651
-3.64835e-05
-0.00248301
0.000167028
-0.00280698
0.000454136
-0.00327095
0.000842702
-0.00398815
0.00133087
-0.0050297
0.00188246
-0.00651691
0.0023505
-0.00825536
0.00241507
-0.00777181
0.0012573
-0.00235714
0.00895045
0.00560355
0.00747188
0.00470583
0.00708001
0.00265838
0.00672918
0.00125448
0.00611919
0.000228231
0.00524677
-0.000522027
0.00417818
-0.000997492
0.00298278
-0.00113821
0.0016912
-0.000921124
0.000430344
-0.000580139
-0.000609526
-0.00022764
-0.00127074
-2.1917e-05
-0.00156322
6.02456e-05
-0.00167789
7.36096e-05
-0.00170786
7.31029e-05
-0.00171363
6.49005e-05
-0.00172865
4.67941e-05
-0.00176746
2.08584e-05
-0.00183139
-8.65944e-06
-0.00191294
-4.10689e-05
-0.00200444
-7.45769e-05
-0.00210375
-0.000103322
-0.0022122
-0.000125123
-0.00233322
-0.000138467
-0.00246896
-0.000140292
-0.00261827
-0.000125575
-0.00277574
-8.73196e-05
-0.00292901
-1.78162e-05
-0.00306256
9.70682e-05
-0.00317484
0.000279303
-0.00327578
0.000555079
-0.00337729
0.00094421
-0.00348611
0.00143969
-0.00356962
0.00196597
-0.003568
0.00234888
-0.00331004
0.00215711
-0.00195005
-0.000102687
-0.00422387
-0.000826095
0.00648296
0.000742106
0.00313763
0.00140782
0.00199267
0.00164673
0.00101557
0.0015829
0.000292056
0.00121189
-0.000151013
0.000529669
-0.000315271
-0.000363757
-0.000244784
-0.00124108
-4.38035e-05
-0.00188638
6.51637e-05
-0.00222712
0.000113101
-0.00235808
0.000109045
-0.00238118
8.33415e-05
-0.00237095
6.33799e-05
-0.00234988
5.20346e-05
-0.00232932
4.43371e-05
-0.00231833
3.58064e-05
-0.00232221
2.47386e-05
-0.00234158
1.07134e-05
-0.00237543
-7.22693e-06
-0.00242401
-2.59873e-05
-0.00248537
-4.19699e-05
-0.00255738
-5.3107e-05
-0.00263754
-5.83078e-05
-0.00272178
-5.60504e-05
-0.00280353
-4.3834e-05
-0.0028733
-1.75468e-05
-0.00291855
2.74311e-05
-0.00291853
9.70504e-05
-0.00284797
0.000208742
-0.00267232
0.000379431
-0.00236026
0.00063215
-0.00190395
0.000983385
-0.00128938
0.0013514
-0.000299693
0.0013592
0.00114765
0.000709773
0.00164262
-0.000597657
-0.00248957
-0.0120486
-0.0155771
-0.00905364
-0.0058886
-0.00387366
-0.00283948
-0.0025324
-0.00267141
-0.00297675
-0.00321303
-0.00324917
-0.00317672
-0.00305648
-0.00294032
-0.00284986
-0.00277933
-0.00272012
-0.00266856
-0.00262549
-0.00259344
-0.00257541
-0.00257537
-0.00259416
-0.00262905
-0.0026752
-0.0027267
-0.0027761
-0.00281346
-0.00282473
-0.00279122
-0.00268831
-0.00247394
-0.00208913
-0.00145188
-0.000463681
0.000892144
0.00225548
0.0029693
0.00237583
)
;

boundaryField
{
    floor
    {
        type            calculated;
        value           nonuniform List<scalar> 
36
(
0
0
0
0
0
0
0
0
0
0
0
0
0
0
0
0
0
0
0
-4.83914e-06
-1.23781e-05
-1.85697e-05
-2.36404e-05
-2.11162e-05
-1.96191e-05
-1.84535e-05
-2.35097e-06
-3.78399e-06
-4.35946e-06
-5.04476e-06
-3.65657e-06
-7.64391e-06
-1.10004e-05
-1.12624e-05
-1.38364e-05
-1.19395e-05
)
;
    }
    ceiling
    {
        type            calculated;
        value           nonuniform List<scalar> 
43
(
-4.1844e-05
-4.11787e-05
-4.04782e-05
-2.74141e-05
-2.22701e-05
-1.86048e-05
-1.50289e-05
-1.20046e-05
-9.92942e-06
-8.50214e-06
-7.66632e-06
-7.28567e-06
-7.13794e-06
-7.11116e-06
-7.12496e-06
-7.14628e-06
-7.17747e-06
-7.22029e-06
-7.2666e-06
-7.30719e-06
-7.31479e-06
-7.2761e-06
-7.19261e-06
-7.08108e-06
-6.95225e-06
-6.80912e-06
-6.64849e-06
-6.4752e-06
-6.28369e-06
-6.07857e-06
-5.85894e-06
-5.62507e-06
-5.37645e-06
-5.1058e-06
-4.81119e-06
-4.4248e-06
-4.13948e-06
-4.04924e-06
-4.18129e-06
-3.60358e-06
6.94074e-06
4.17887e-06
-5.3314e-05
)
;
    }
    sWall
    {
        type            calculated;
        value           uniform -0.0002414;
    }
    nWall
    {
        type            calculated;
        value           nonuniform List<scalar> 6(-5.43171e-05 -6.54339e-05 -6.88139e-05 -8.33267e-05 -9.16858e-05 -0.00011014);
    }
    sideWalls
    {
        type            empty;
        value           nonuniform 0();
    }
    glass1
    {
        type            calculated;
        value           nonuniform List<scalar> 9(-6.04583e-05 -0.000163401 -0.000250424 -0.000324644 -0.000387723 -0.000440785 -0.00048727 -0.000543331 -0.000605862);
    }
    glass2
    {
        type            calculated;
        value           nonuniform List<scalar> 2(-0.000286411 -0.000317012);
    }
    sun
    {
        type            calculated;
        value           uniform 0;
    }
    Table_master
    {
        type            calculated;
        value           nonuniform List<scalar> 9(-1.5364e-07 -1.53789e-07 -1.53839e-07 -1.53869e-07 -1.53889e-07 -1.53902e-07 -1.53906e-07 -1.539e-07 -1.5387e-07);
    }
    Table_slave
    {
        type            calculated;
        value           nonuniform List<scalar> 9(1.5353e-07 1.53515e-07 1.53468e-07 1.53431e-07 1.53408e-07 1.53408e-07 1.53413e-07 1.53451e-07 1.53535e-07);
    }
    inlet
    {
        type            calculated;
        value           uniform -0.0106584;
    }
    outlet
    {
        type            calculated;
        value           nonuniform List<scalar> 2(0.0123318 0.00356968);
    }
}


// ************************************************************************* //
