/*--------------------------------*- C++ -*----------------------------------*\
  =========                 |
  \\      /  F ield         | OpenFOAM: The Open Source CFD Toolbox
   \\    /   O peration     | Website:  https://openfoam.org
    \\  /    A nd           | Version:  6
     \\/     M anipulation  |
\*---------------------------------------------------------------------------*/
FoamFile
{
    version     2.0;
    format      ascii;
    class       volScalarField;
    location    "3200";
    object      k;
}
// * * * * * * * * * * * * * * * * * * * * * * * * * * * * * * * * * * * * * //

dimensions      [0 2 -2 0 0 0 0];

internalField   nonuniform List<scalar> 
458
(
0.00226773
0.002686
0.00280874
0.00308392
0.00334874
0.00360953
0.00388028
0.00416507
0.00440537
0.00455978
0.00457737
0.00441277
0.00402215
0.00325495
0.00187334
0.000457608
0.000628884
0.000808358
0.00087884
0.000851545
0.00074572
0.000636807
0.000546641
0.000474088
0.000415267
0.000367091
0.000327362
0.000294041
0.000265249
0.000239309
0.000214605
0.000200564
0.00016941
0.00412312
0.00755258
0.00415031
0.00437424
0.00471604
0.00513526
0.00563216
0.00619636
0.00680025
0.0073126
0.00758795
0.00753074
0.00712355
0.00635467
0.00513877
0.00326398
0.00224656
0.0014955
0.00045027
0.000973117
0.00130321
0.0014583
0.00147264
0.00125931
0.0010243
0.000833978
0.000688718
0.000577306
0.000490657
0.000421509
0.000364693
0.000317431
0.000283503
0.000264379
0.000493907
0.000292773
0.0060951
0.0136498
0.00491143
0.00472496
0.0049415
0.00528578
0.00575051
0.00634043
0.0069933
0.00754987
0.00789179
0.00794907
0.00769273
0.0070602
0.00603675
0.00488807
0.00391832
0.00208603
0.00106833
0.00139967
0.00160351
0.00173029
0.0017227
0.00134706
0.0010325
0.000802579
0.000637561
0.000518227
0.000430582
0.000365315
0.000316458
0.000280879
0.000262125
0.000265438
0.000780383
0.000408878
0.00835944
0.0222367
0.00592694
0.00470722
0.0047467
0.0050166
0.00547373
0.00616801
0.00689204
0.00746243
0.00783308
0.00795282
0.00774759
0.00714511
0.00628647
0.00543518
0.00463188
0.00350001
0.00276865
0.00250677
0.00237395
0.00233798
0.00228935
0.00215164
0.00170927
0.00143622
0.00126383
0.00114366
0.00104672
0.000954702
0.000871177
0.000787074
0.000694172
0.000530208
0.000422746
0.00113249
0.000542373
0.0110412
0.0339576
0.00842364
0.00474991
0.00448305
0.00470824
0.00529961
0.00635505
0.00718493
0.00773939
0.00809487
0.00819688
0.00790004
0.00718224
0.00621584
0.00530901
0.0045795
0.00397828
0.00379452
0.00347936
0.00325239
0.00307051
0.00285905
0.00259012
0.00230259
0.00210654
0.00198652
0.00189183
0.00178979
0.00166103
0.00149184
0.0012991
0.00109385
0.000865681
0.000664762
0.000922202
0.00106384
0.000969453
0.00108637
0.00128348
0.0143256
0.0466888
0.0149489
0.00592284
0.00474234
0.00478321
0.00570725
0.00726651
0.00803165
0.00847404
0.00873822
0.0087472
0.00831975
0.0073783
0.00612408
0.00496574
0.00418325
0.00384128
0.00381366
0.00382272
0.00373153
0.0035084
0.00318885
0.00283451
0.00254753
0.00239511
0.00232151
0.00226292
0.00218486
0.00206506
0.00187828
0.0016488
0.00140027
0.00114674
0.000935561
0.00090067
0.00103002
0.00105444
0.00165137
0.00138073
0.0179773
0.0550459
0.0270744
0.012358
0.00830715
0.00741136
0.00850397
0.00920898
0.00948527
0.00964501
0.00972908
0.00958291
0.00894651
0.00770868
0.00610951
0.00469827
0.00388633
0.00373537
0.00389772
0.00398219
0.00385314
0.00354996
0.00317055
0.00281152
0.00256714
0.00246831
0.00245147
0.00245679
0.00245472
0.00242431
0.00233578
0.00214704
0.00191045
0.00165884
0.00145713
0.00136452
0.0014509
0.00168145
0.00223389
0.0019488
0.018941
0.0568497
0.0383019
0.0271706
0.019741
0.0158798
0.0137247
0.0122881
0.0115359
0.0112118
0.0110092
0.0106094
0.00964613
0.0079944
0.00597381
0.00439198
0.00367695
0.00365496
0.00377945
0.0037498
0.0035165
0.00316979
0.00281983
0.00255033
0.00240793
0.00238367
0.0024313
0.00251746
0.00263036
0.00276728
0.00292559
0.0030669
0.00310916
0.00313897
0.00329211
0.00386915
0.00511972
0.00681604
0.0128318
0.00467701
0.018204
0.0264668
0.0243623
0.0217106
0.0188863
0.0164643
0.0146538
0.0135901
0.0130861
0.012767
0.0123561
0.0115953
0.0100706
0.00776854
0.00515889
0.00385717
0.00340216
0.00330915
0.00325261
0.00309094
0.00282309
0.00252745
0.00228241
0.00213418
0.00208889
0.00212324
0.00220959
0.00233308
0.00249007
0.0026817
0.00290935
0.00317117
0.00348968
0.00390102
0.00444803
0.00509779
0.0056969
0.00606903
0.00624812
0.00408114
0.0071847
0.0110953
0.0135431
0.0147731
0.0154366
0.015707
0.0153762
0.0144498
0.0132103
0.0115849
0.00881001
0.00585902
0.00403631
0.00322546
0.00288131
0.00270022
0.00252793
0.00231818
0.00209088
0.00188811
0.00175207
0.00169317
0.00169793
0.00174775
0.00182983
0.0019393
0.00207753
0.00225115
0.00247287
0.00276577
0.00313121
0.00356696
0.00405088
0.00449035
0.00471251
0.00457269
0.00410662
0.00264226
0.00805109
0.0194682
0.0216078
0.0214977
0.0207252
0.0184746
0.0153359
0.0120142
0.00883208
0.00623531
0.00435105
0.00326394
0.00271635
0.00241274
0.00221107
0.00203305
0.00184828
0.00166528
0.00150956
0.00139915
0.00133841
0.00132646
0.00135521
0.00141897
0.00151613
0.00164811
0.00181816
0.0020306
0.00229593
0.00262432
0.00302433
0.00349673
0.00401525
0.00451211
0.00481677
0.00510138
0.0042872
0.00271126
0.00890501
0.00935047
0.0097646
0.0120868
0.0107996
0.00848209
0.00603687
0.00437006
0.00348191
0.00273144
0.00214583
0.00173654
0.00142377
0.00120732
0.00106736
0.000970529
0.000896006
0.00083426
0.00078494
0.000752512
0.000740596
0.000749563
0.000776415
0.000816745
0.000869165
0.000933395
0.00101008
0.00110097
0.0012091
0.00133988
0.00149679
0.00168177
0.00189916
0.00215392
0.00245062
0.00283145
0.0030068
0.00288493
0.00249592
0.00213495
)
;

boundaryField
{
    floor
    {
        type            kqRWallFunction;
        value           nonuniform List<scalar> 
36
(
0.00187334
0.000457608
0.000628884
0.000808358
0.00087884
0.000851545
0.00074572
0.000636807
0.000546641
0.000474088
0.000415267
0.000367091
0.000327362
0.000294041
0.000265249
0.000239309
0.000214605
0.000200564
0.00016941
0.00016941
0.000292773
0.000408878
0.000542373
0.000969453
0.00108637
0.00128348
0.00187334
0.00326398
0.00224656
0.0014955
0.000457608
0.0014955
0.00045027
0.00208603
0.00106833
0.00276865
)
;
    }
    ceiling
    {
        type            kqRWallFunction;
        value           nonuniform List<scalar> 
43
(
0.00890501
0.00935047
0.0097646
0.0120868
0.0107996
0.00848209
0.00603687
0.00437006
0.00348191
0.00273144
0.00214583
0.00173654
0.00142377
0.00120732
0.00106736
0.000970529
0.000896006
0.00083426
0.00078494
0.000752512
0.000740596
0.000749563
0.000776415
0.000816745
0.000869165
0.000933395
0.00101008
0.00110097
0.0012091
0.00133988
0.00149679
0.00168177
0.00189916
0.00215392
0.00245062
0.00283145
0.0030068
0.00288493
0.00249592
0.00213495
0.018204
0.0264668
0.00805109
)
;
    }
    sWall
    {
        type            kqRWallFunction;
        value           uniform 0.00890501;
    }
    nWall
    {
        type            kqRWallFunction;
        value           nonuniform List<scalar> 6(0.00128348 0.00138073 0.0019488 0.00264226 0.00271126 0.00213495);
    }
    sideWalls
    {
        type            empty;
    }
    glass1
    {
        type            kqRWallFunction;
        value           nonuniform List<scalar> 9(0.00226773 0.00412312 0.0060951 0.00835944 0.0110412 0.0143256 0.0179773 0.018941 0.018204);
    }
    glass2
    {
        type            kqRWallFunction;
        value           nonuniform List<scalar> 2(0.00467701 0.00408114);
    }
    sun
    {
        type            kqRWallFunction;
        value           nonuniform List<scalar> 
14
(
0.00226773
0.002686
0.00280874
0.00308392
0.00334874
0.00360953
0.00388028
0.00416507
0.00440537
0.00455978
0.00457737
0.00441277
0.00402215
0.00325495
)
;
    }
    Table_master
    {
        type            kqRWallFunction;
        value           nonuniform List<scalar> 9(0.00134706 0.0010325 0.000802579 0.000637561 0.000518227 0.000430582 0.000365315 0.000316458 0.000280879);
    }
    Table_slave
    {
        type            kqRWallFunction;
        value           nonuniform List<scalar> 9(0.00170927 0.00143622 0.00126383 0.00114366 0.00104672 0.000954702 0.000871177 0.000787074 0.000694172);
    }
    inlet
    {
        type            turbulentIntensityKineticEnergyInlet;
        intensity       0.05;
        value           uniform 0.000937501;
    }
    outlet
    {
        type            zeroGradient;
    }
}


// ************************************************************************* //
