/*--------------------------------*- C++ -*----------------------------------*\
  =========                 |
  \\      /  F ield         | OpenFOAM: The Open Source CFD Toolbox
   \\    /   O peration     | Website:  https://openfoam.org
    \\  /    A nd           | Version:  6
     \\/     M anipulation  |
\*---------------------------------------------------------------------------*/
FoamFile
{
    version     2.0;
    format      ascii;
    class       volVectorField;
    location    "1680";
    object      U;
}
// * * * * * * * * * * * * * * * * * * * * * * * * * * * * * * * * * * * * * //

dimensions      [0 1 -1 0 0 0 0];

internalField   nonuniform List<vector> 
458
(
(0.0348258 0.088522 0)
(-0.17208 0.0265837 0)
(-0.199348 0.0191136 0)
(-0.233223 0.0130816 0)
(-0.258396 0.00641438 0)
(-0.273601 -0.000803996 0)
(-0.276732 -0.00877708 0)
(-0.265486 -0.0177767 0)
(-0.23943 -0.0274252 0)
(-0.199721 -0.0361096 0)
(-0.150458 -0.0420491 0)
(-0.097843 -0.0436492 0)
(-0.0487429 -0.0390807 0)
(-0.00628619 -0.0236916 0)
(-0.0102743 0.00976665 0)
(-0.0102228 0.0105028 0)
(-0.0372394 -0.0175019 0)
(-0.0144873 -0.0291223 0)
(0.01372 -0.0251887 0)
(0.0334836 -0.0178922 0)
(0.0481028 -0.00955719 0)
(0.0568615 -0.00517853 0)
(0.0607378 -0.00363446 0)
(0.0621713 -0.00308458 0)
(0.0628193 -0.00276136 0)
(0.063128 -0.00251067 0)
(0.0630658 -0.00224249 0)
(0.0624666 -0.00179797 0)
(0.0608729 -0.000838594 0)
(0.0572677 0.0010759 0)
(0.0505429 0.00317404 0)
(0.0451269 0.00509291 0)
(-0.0141307 0.0219545 0)
(0.214275 0.181889 0)
(-0.162149 0.0709924 0)
(-0.162941 0.0577628 0)
(-0.198657 0.045744 0)
(-0.224133 0.0319893 0)
(-0.24011 0.0161771 0)
(-0.244613 -0.00240798 0)
(-0.235119 -0.023964 0)
(-0.211872 -0.0461665 0)
(-0.176492 -0.064923 0)
(-0.133365 -0.0764234 0)
(-0.0881372 -0.0781967 0)
(-0.0462711 -0.0687303 0)
(-0.010041 -0.046024 0)
(0.0193972 -0.0133905 0)
(0.0442287 0.00784454 0)
(0.0548379 0.0347557 0)
(-0.0118193 0.0706802 0)
(0.0670555 0.0439649 0)
(0.0103219 -0.0218355 0)
(0.0265323 -0.0379057 0)
(0.0407651 -0.0356515 0)
(0.0531565 -0.0273443 0)
(0.059584 -0.0120918 0)
(0.0612048 -0.00275059 0)
(0.0612532 0.000748511 0)
(0.0614169 0.00202573 0)
(0.0617418 0.00272465 0)
(0.0619668 0.0032245 0)
(0.0620241 0.00367765 0)
(0.0619197 0.00441026 0)
(0.061208 0.00620924 0)
(0.0578098 0.0112302 0)
(0.0491154 0.0155427 0)
(0.0476989 0.0187189 0)
(-0.0584079 0.0475618 0)
(0.379538 0.272955 0)
(-0.180118 0.113733 0)
(-0.123511 0.0941097 0)
(-0.159196 0.0724352 0)
(-0.182599 0.0495042 0)
(-0.198409 0.0236448 0)
(-0.204062 -0.00653193 0)
(-0.195374 -0.0409757 0)
(-0.173593 -0.0757758 0)
(-0.141428 -0.103643 0)
(-0.103846 -0.118947 0)
(-0.0659017 -0.119152 0)
(-0.0318305 -0.104118 0)
(-0.00228754 -0.0744024 0)
(0.0220179 -0.0400791 0)
(0.0375818 -0.0152242 0)
(0.0431641 0.0131563 0)
(-0.0236805 0.0623051 0)
(0.122497 -0.00756857 0)
(0.0724956 -0.0321122 0)
(0.0642955 -0.0419412 0)
(0.0672465 -0.0417662 0)
(0.0718583 -0.0380529 0)
(0.0734887 -0.0282296 0)
(0.0643668 -0.0183279 0)
(0.057412 -0.0130252 0)
(0.0548144 -0.010077 0)
(0.0541246 -0.00818449 0)
(0.0538921 -0.00689616 0)
(0.0539641 -0.00590099 0)
(0.0547654 -0.00475132 0)
(0.0572194 -0.00139527 0)
(0.0561154 0.0150016 0)
(0.0445987 0.0258825 0)
(0.0541323 0.0332668 0)
(-0.0993533 0.0728116 0)
(0.530034 0.346652 0)
(-0.216672 0.151754 0)
(-0.0801984 0.125836 0)
(-0.115537 0.0962972 0)
(-0.133415 0.0672252 0)
(-0.146928 0.0337653 0)
(-0.152514 -0.00710791 0)
(-0.142619 -0.0550495 0)
(-0.121286 -0.102302 0)
(-0.0929781 -0.137832 0)
(-0.0625325 -0.155418 0)
(-0.0335743 -0.153422 0)
(-0.00880141 -0.133435 0)
(0.0128592 -0.0979236 0)
(0.0304221 -0.0589739 0)
(0.0443406 -0.0228984 0)
(0.0599325 0.0131438 0)
(0.0587922 0.0534271 0)
(0.100296 0.0615013 0)
(0.0987731 -0.00245593 0)
(0.0851 -0.0294018 0)
(0.0784156 -0.0376999 0)
(0.0735653 -0.0384034 0)
(0.066969 -0.0341186 0)
(0.0665486 -0.0208426 0)
(0.0772299 -0.0138328 0)
(0.0861989 -0.01011 0)
(0.0916045 -0.00782732 0)
(0.0948508 -0.00591974 0)
(0.0962642 -0.00385855 0)
(0.0945012 -0.0011924 0)
(0.088242 0.00247897 0)
(0.0756999 0.00774275 0)
(0.0597892 0.0251046 0)
(0.0440571 0.0405961 0)
(0.0629711 0.053363 0)
(-0.13136 0.0943 0)
(0.662689 0.40381 0)
(-0.262357 0.182676 0)
(-0.0350328 0.145257 0)
(-0.0687482 0.111319 0)
(-0.0779438 0.0792336 0)
(-0.0862906 0.0412515 0)
(-0.0890454 -0.00798432 0)
(-0.0740231 -0.0688103 0)
(-0.0534773 -0.125894 0)
(-0.031574 -0.165065 0)
(-0.011271 -0.181833 0)
(0.00616486 -0.175984 0)
(0.0193276 -0.151478 0)
(0.0303433 -0.114535 0)
(0.0401884 -0.0729533 0)
(0.0494252 -0.0337168 0)
(0.0619139 0.000679126 0)
(0.0760043 0.0197165 0)
(0.0902835 -0.000567345 0)
(0.0896322 -0.0213772 0)
(0.0825584 -0.0300399 0)
(0.0737483 -0.0325565 0)
(0.0655028 -0.0316376 0)
(0.0585587 -0.0266412 0)
(0.0567802 -0.0155191 0)
(0.06034 -0.00903496 0)
(0.0646888 -0.00638245 0)
(0.06842 -0.0048411 0)
(0.0716705 -0.00276087 0)
(0.0741836 0.000771514 0)
(0.0750396 0.0059617 0)
(0.0731493 0.0129832 0)
(0.0682413 0.0224372 0)
(0.0611949 0.0371813 0)
(0.0500446 0.0536385 0)
(0.0748511 0.0727623 0)
(-0.00684666 0.101404 0)
(0.0557807 0.150676 0)
(-0.0835289 0.0748307 0)
(-0.277795 0.000480069 0)
(0.761897 0.451325 0)
(-0.308554 0.203337 0)
(0.00243073 0.143884 0)
(-0.0205834 0.116257 0)
(-0.0197877 0.0857213 0)
(-0.0214959 0.0472962 0)
(-0.0143079 -0.0069336 0)
(0.0103256 -0.0859238 0)
(0.0269341 -0.146185 0)
(0.0388366 -0.182414 0)
(0.0460564 -0.194544 0)
(0.0489042 -0.185043 0)
(0.048639 -0.158114 0)
(0.0472325 -0.119911 0)
(0.0460541 -0.0779281 0)
(0.0464621 -0.0396915 0)
(0.0508021 -0.00997414 0)
(0.059935 0.00483921 0)
(0.0661995 -0.0010418 0)
(0.0649382 -0.0110115 0)
(0.0585471 -0.0188095 0)
(0.0503736 -0.0229176 0)
(0.0427352 -0.0236697 0)
(0.0367602 -0.0211455 0)
(0.0342127 -0.015783 0)
(0.0353685 -0.0123095 0)
(0.0383299 -0.0108808 0)
(0.0419934 -0.00979345 0)
(0.0460602 -0.00765648 0)
(0.0502485 -0.00340005 0)
(0.0544649 0.00367275 0)
(0.0569854 0.0131809 0)
(0.0581526 0.0249429 0)
(0.0592774 0.0395811 0)
(0.0583536 0.056007 0)
(0.0796998 0.0767064 0)
(0.0654398 0.089002 0)
(0.0997186 0.0967398 0)
(0.117479 0.0571992 0)
(-0.136902 -0.0299357 0)
(0.81562 0.49419 0)
(-0.334127 0.187369 0)
(0.0322403 0.0937977 0)
(0.0390628 0.101051 0)
(0.0459336 0.0829967 0)
(0.051629 0.0393678 0)
(0.079108 -0.0311728 0)
(0.103122 -0.103702 0)
(0.113299 -0.15701 0)
(0.112876 -0.186322 0)
(0.104596 -0.192422 0)
(0.0908052 -0.178768 0)
(0.07411 -0.149763 0)
(0.0575159 -0.111554 0)
(0.0429822 -0.0708931 0)
(0.0326167 -0.0356689 0)
(0.0280859 -0.0107256 0)
(0.0294691 0.00102112 0)
(0.0310939 -0.000260305 0)
(0.029587 -0.00656076 0)
(0.0249324 -0.0126301 0)
(0.0188117 -0.0163747 0)
(0.0127864 -0.0177517 0)
(0.00798143 -0.0171176 0)
(0.005624 -0.0152134 0)
(0.00597182 -0.0141236 0)
(0.00801691 -0.0139933 0)
(0.0110206 -0.0137675 0)
(0.0148199 -0.012385 0)
(0.0195008 -0.00876037 0)
(0.0256696 -0.00165189 0)
(0.0332856 0.00886053 0)
(0.040054 0.0208883 0)
(0.0478632 0.0341625 0)
(0.0558625 0.0479651 0)
(0.0754412 0.064465 0)
(0.0882248 0.0697812 0)
(0.119668 0.0632132 0)
(0.163391 0.0513032 0)
(-0.0203428 0.0954839 0)
(0.921877 0.497289 0)
(-0.0766841 0.167417 0)
(0.110606 0.0261565 0)
(0.163738 0.0227858 0)
(0.161403 0.015538 0)
(0.162873 -0.0293723 0)
(0.196502 -0.0804161 0)
(0.211287 -0.125545 0)
(0.205376 -0.158274 0)
(0.185108 -0.173974 0)
(0.155602 -0.171665 0)
(0.121104 -0.153967 0)
(0.0853095 -0.124269 0)
(0.0523832 -0.0880648 0)
(0.0244734 -0.0510359 0)
(0.00511514 -0.0218871 0)
(-0.00464799 -0.00438117 0)
(-0.00658489 0.0017998 0)
(-0.00647207 0.000688279 0)
(-0.00767532 -0.00365399 0)
(-0.0109756 -0.00801228 0)
(-0.0154742 -0.0110831 0)
(-0.0201076 -0.0128582 0)
(-0.0239704 -0.0137002 0)
(-0.02635 -0.0141583 0)
(-0.0272383 -0.0149141 0)
(-0.0271995 -0.0159007 0)
(-0.0266154 -0.0166128 0)
(-0.0254871 -0.0165236 0)
(-0.0235076 -0.0150567 0)
(-0.0198827 -0.0114817 0)
(-0.0117333 -0.00492139 0)
(-0.000111323 0.00445324 0)
(0.0110716 0.013762 0)
(0.0226758 0.0208699 0)
(0.0398895 0.0277429 0)
(0.0554241 0.022445 0)
(0.0795679 0.00564887 0)
(0.146406 0.0479748 0)
(-0.428342 0.212663 0)
(1.06591 0.444169 0)
(0.51824 0.298304 0)
(0.529536 0.249857 0)
(0.518397 0.182901 0)
(0.469848 0.122431 0)
(0.433173 0.060106 0)
(0.392063 -0.00742949 0)
(0.342859 -0.066982 0)
(0.289102 -0.107859 0)
(0.232763 -0.126603 0)
(0.175379 -0.12509 0)
(0.11892 -0.108906 0)
(0.0654737 -0.0822801 0)
(0.0202522 -0.0512496 0)
(-0.0160957 -0.0208048 0)
(-0.0329542 -0.0060125 0)
(-0.040144 0.000497654 0)
(-0.0416921 0.00225086 0)
(-0.0420686 0.0010334 0)
(-0.0432098 -0.00163032 0)
(-0.045838 -0.0045158 0)
(-0.0494882 -0.00705227 0)
(-0.0535126 -0.00914774 0)
(-0.0573761 -0.0108832 0)
(-0.060822 -0.0123933 0)
(-0.0640135 -0.0137783 0)
(-0.067356 -0.0148782 0)
(-0.0712242 -0.0153308 0)
(-0.0759724 -0.0146556 0)
(-0.0820726 -0.0122007 0)
(-0.0902161 -0.00712904 0)
(-0.101127 0.0014184 0)
(-0.112763 0.0133173 0)
(-0.127991 0.0284129 0)
(-0.152912 0.0467847 0)
(-0.190235 0.0673933 0)
(-0.241636 0.0862231 0)
(-0.297566 0.0999125 0)
(-0.371651 0.106902 0)
(-0.650668 0.106292 0)
(0.233933 0.0528247 0)
(0.305894 0.115949 0)
(0.321221 0.0913508 0)
(0.299647 0.0395614 0)
(0.275053 -0.0106149 0)
(0.244392 -0.0469453 0)
(0.203103 -0.0684115 0)
(0.154008 -0.0754072 0)
(0.10044 -0.0686899 0)
(0.0461666 -0.0529111 0)
(-0.00862795 -0.029504 0)
(-0.0451385 -0.0114636 0)
(-0.0636056 -0.00307779 0)
(-0.0709297 -0.00068765 0)
(-0.0731498 -0.000221928 0)
(-0.0734581 -0.000932238 0)
(-0.0737525 -0.00254858 0)
(-0.0748901 -0.00465597 0)
(-0.0771067 -0.00675082 0)
(-0.0803646 -0.00854009 0)
(-0.0841587 -0.0100181 0)
(-0.0882609 -0.0111478 0)
(-0.0926863 -0.0119321 0)
(-0.0975908 -0.0123305 0)
(-0.103126 -0.012156 0)
(-0.109323 -0.0110615 0)
(-0.116048 -0.00858169 0)
(-0.122955 -0.004173 0)
(-0.129423 0.002726 0)
(-0.134401 0.0123277 0)
(-0.13837 0.0256117 0)
(-0.141806 0.0431766 0)
(-0.146017 0.0642223 0)
(-0.15177 0.0850528 0)
(-0.155355 0.0955488 0)
(-0.141297 0.0734014 0)
(-0.110232 -0.0250107 0)
(-0.286613 -0.213744 0)
(0.120035 0.324328 0)
(0.00838799 0.203581 0)
(0.0392575 0.118435 0)
(0.058467 0.0604205 0)
(0.0631111 0.0216123 0)
(0.0600957 -0.00479386 0)
(0.0401812 -0.0199111 0)
(0.00540239 -0.018943 0)
(-0.0366082 -0.00171975 0)
(-0.0701248 0.0128654 0)
(-0.0912355 0.020866 0)
(-0.100245 0.023254 0)
(-0.102452 0.0233833 0)
(-0.102382 0.0234326 0)
(-0.101494 0.024135 0)
(-0.10045 0.0252476 0)
(-0.0997229 0.0263748 0)
(-0.0995981 0.0271216 0)
(-0.100128 0.0270606 0)
(-0.10127 0.0258525 0)
(-0.103061 0.0238206 0)
(-0.105433 0.0215797 0)
(-0.108325 0.0194051 0)
(-0.111649 0.0174465 0)
(-0.115266 0.0158067 0)
(-0.11896 0.0145954 0)
(-0.122418 0.0139482 0)
(-0.125155 0.0140233 0)
(-0.126358 0.0155156 0)
(-0.124855 0.0198845 0)
(-0.119069 0.028292 0)
(-0.107614 0.0417381 0)
(-0.0903473 0.0602405 0)
(-0.068313 0.0804256 0)
(-0.0434425 0.0948375 0)
(-0.00757729 0.0857748 0)
(0.14694 0.0093018 0)
(-0.209929 -0.129686 0)
(-0.422113 -0.516024 0)
(-0.637314 -0.143277 0)
(-0.449398 0.17775 0)
(-0.35794 0.0560714 0)
(-0.213914 -0.0055443 0)
(-0.145636 -0.0477877 0)
(-0.117201 -0.0705277 0)
(-0.113025 -0.0713409 0)
(-0.122383 -0.062663 0)
(-0.134891 -0.0549494 0)
(-0.14037 -0.0504766 0)
(-0.138611 -0.0490277 0)
(-0.134146 -0.0498907 0)
(-0.12895 -0.0526821 0)
(-0.124462 -0.0561784 0)
(-0.120986 -0.0597993 0)
(-0.118156 -0.0634323 0)
(-0.115719 -0.0671316 0)
(-0.113633 -0.0707335 0)
(-0.111966 -0.0737256 0)
(-0.110855 -0.0755125 0)
(-0.110468 -0.0756714 0)
(-0.110913 -0.0742936 0)
(-0.112144 -0.0719757 0)
(-0.113982 -0.0689335 0)
(-0.116195 -0.0652927 0)
(-0.1185 -0.0611025 0)
(-0.120529 -0.0562915 0)
(-0.121803 -0.0506446 0)
(-0.121689 -0.0438143 0)
(-0.119171 -0.0358243 0)
(-0.112342 -0.0266975 0)
(-0.0983976 -0.0158889 0)
(-0.0748382 -0.00249086 0)
(-0.0415461 0.0143612 0)
(0.00932209 0.0362837 0)
(0.0618699 0.0423451 0)
(0.109602 0.024042 0)
(0.172059 -0.0159449 0)
(-0.19629 -0.0826865 0)
)
;

boundaryField
{
    floor
    {
        type            noSlip;
    }
    ceiling
    {
        type            noSlip;
    }
    sWall
    {
        type            noSlip;
    }
    nWall
    {
        type            noSlip;
    }
    sideWalls
    {
        type            empty;
    }
    glass1
    {
        type            noSlip;
    }
    glass2
    {
        type            noSlip;
    }
    sun
    {
        type            noSlip;
    }
    Table_master
    {
        type            noSlip;
    }
    Table_slave
    {
        type            noSlip;
    }
    inlet
    {
        type            fixedValue;
        value           uniform (0.46194 -0.191342 0);
    }
    outlet
    {
        type            zeroGradient;
    }
}


// ************************************************************************* //
