/*--------------------------------*- C++ -*----------------------------------*\
  =========                 |
  \\      /  F ield         | OpenFOAM: The Open Source CFD Toolbox
   \\    /   O peration     | Website:  https://openfoam.org
    \\  /    A nd           | Version:  6
     \\/     M anipulation  |
\*---------------------------------------------------------------------------*/
FoamFile
{
    version     2.0;
    format      ascii;
    class       volScalarField;
    location    "38399.999998835985";
    object      k;
}
// * * * * * * * * * * * * * * * * * * * * * * * * * * * * * * * * * * * * * //

dimensions      [0 2 -2 0 0 0 0];

internalField   nonuniform List<scalar> 
778
(
0.0015859
0.00180105
0.0017879
0.00194644
0.00209768
0.00223998
0.00237668
0.00251233
0.00265271
0.0028061
0.00295642
0.00310281
0.00325044
0.00341297
0.00358672
0.000793052
0.00162517
0.00165179
0.00157299
0.00144532
0.00128306
0.00113089
0.000999142
0.000887362
0.000792801
0.000713056
0.000645042
0.000586056
0.000533549
0.000484812
0.000436344
0.000398024
0.000326126
0.00340694
0.00643323
0.00268746
0.00274604
0.00288771
0.00305429
0.00323466
0.00343046
0.00364375
0.00387418
0.0041264
0.00438031
0.00459621
0.00470148
0.00459567
0.00429932
0.00390815
0.00358068
0.0025354
0.00281167
0.00295411
0.00289678
0.00266421
0.00226537
0.00190612
0.00160982
0.00137002
0.00117611
0.00101723
0.00088539
0.000774109
0.000681286
0.000615265
0.000574749
0.000864185
0.000524044
0.00549072
0.0127806
0.00347786
0.0032121
0.00329742
0.00345526
0.00363666
0.00384087
0.00407128
0.00432805
0.00463627
0.00501177
0.00545204
0.00596153
0.00653236
0.00686073
0.00627841
0.00538635
0.00403693
0.00416827
0.00417145
0.00397418
0.00357668
0.00266478
0.00201511
0.00157588
0.00126978
0.00104972
0.000887322
0.000764928
0.00067206
0.000603823
0.000551595
0.000548771
0.00116491
0.00067801
0.00797343
0.0217572
0.00449093
0.00339072
0.0033415
0.00343808
0.00354949
0.00366901
0.00380932
0.00399177
0.00425975
0.00464931
0.00517226
0.00582635
0.00655571
0.00713517
0.00722852
0.00724256
0.00534347
0.00555054
0.00537567
0.00512474
0.00478621
0.00434759
0.00345533
0.00285861
0.00243568
0.00210985
0.00185059
0.0016322
0.00143881
0.00125878
0.00107786
0.000800745
0.000659831
0.00142019
0.000821672
0.0108761
0.0336322
0.00621217
0.00342493
0.00315825
0.00316696
0.00318964
0.00321001
0.00325235
0.00336143
0.00359521
0.0039899
0.00455444
0.00527797
0.00608825
0.00681864
0.00728438
0.00764513
0.00751878
0.00665475
0.00607332
0.00557874
0.00509875
0.00462913
0.00412286
0.00366542
0.00327493
0.00293738
0.00263128
0.00234791
0.00207938
0.00181856
0.00155488
0.00122185
0.000930453
0.00118958
0.0012157
0.00116755
0.00202582
0.00185522
0.0141744
0.0475949
0.00928238
0.00348985
0.00290846
0.0028227
0.00276444
0.00269968
0.00266441
0.00273475
0.00298106
0.00341468
0.00402421
0.00479862
0.00565469
0.00646185
0.00706971
0.00740824
0.00732472
0.00679051
0.00621526
0.00563712
0.00507422
0.00455596
0.0040913
0.00369568
0.00336314
0.00307375
0.00280692
0.00255175
0.0022992
0.00204228
0.00177369
0.00147127
0.00117877
0.00111264
0.00111089
0.00171154
0.00509265
0.00265538
0.0179911
0.0606015
0.0143567
0.0038191
0.00271505
0.00252931
0.00241182
0.00229417
0.00222126
0.00231168
0.00263036
0.00313936
0.00380213
0.00463117
0.00552864
0.00636687
0.00700118
0.00732866
0.00725521
0.00681869
0.00621569
0.00555488
0.00491189
0.0043428
0.00387254
0.00350046
0.00320676
0.00296186
0.0027416
0.00252949
0.00231388
0.00208738
0.00184512
0.0015829
0.00132822
0.00116084
0.00109212
0.00155644
0.00625899
0.00368745
0.0216398
0.0704778
0.0214311
0.00510089
0.00274246
0.00237168
0.00221015
0.00208211
0.00202661
0.00221976
0.00264994
0.00323085
0.00393678
0.00477369
0.00569785
0.00657236
0.00722295
0.00751394
0.0073848
0.00689678
0.00619846
0.00542688
0.00469132
0.00406429
0.00357428
0.00321231
0.00294749
0.00274091
0.00256441
0.00239631
0.00222265
0.00203577
0.00183222
0.00161332
0.00139896
0.0012321
0.00115417
0.00209796
0.0141724
0.00630895
0.0228326
0.0694968
0.0325276
0.0110504
0.00406478
0.00258681
0.00223546
0.00210326
0.00219053
0.00251324
0.00300115
0.00360213
0.00433152
0.00521033
0.00618178
0.00708417
0.00771474
0.007922
0.00766454
0.00702572
0.0061651
0.0052479
0.00440672
0.00372168
0.003216
0.00286829
0.00263504
0.00246863
0.00233615
0.00221155
0.00207977
0.00193354
0.00177057
0.00159397
0.00141952
0.00129017
0.00132859
0.0038911
0.0278225
0.00809701
0.0219183
0.0516414
0.0336411
0.0174274
0.00858251
0.0047568
0.0032607
0.00273059
0.00285437
0.00321256
0.00367372
0.00424639
0.00499303
0.00593336
0.00696741
0.00788098
0.00843708
0.00848167
0.00800294
0.0071234
0.00604021
0.00495225
0.00400958
0.00328911
0.00279662
0.00248757
0.00230125
0.00218338
0.00209565
0.00201112
0.00191619
0.00180521
0.00167739
0.00153717
0.0013994
0.0013182
0.00166711
0.0076818
0.026081
0.00849187
0.0192342
0.0394421
0.0302379
0.0195628
0.0121789
0.00793657
0.0057165
0.00466993
0.00436373
0.00440146
0.00465339
0.0051437
0.00592925
0.0069707
0.00807611
0.00895344
0.00933671
0.00909422
0.00827279
0.00705956
0.00570877
0.00445616
0.00345845
0.00276633
0.00234667
0.00211358
0.00198908
0.001922
0.00187245
0.00181888
0.00175118
0.00166558
0.001563
0.00145092
0.00135142
0.00138716
0.0024795
0.00904845
0.023138
0.00842606
0.0159504
0.0315888
0.026651
0.0195376
0.0139745
0.0102829
0.00802658
0.00675107
0.00604968
0.0057318
0.00578214
0.0062691
0.00719697
0.00839866
0.00954622
0.010268
0.0103046
0.00959402
0.00828729
0.00666333
0.0050501
0.00371485
0.0027893
0.00223214
0.00195307
0.00181312
0.00174416
0.00171059
0.00168352
0.00164827
0.00159727
0.00152747
0.00144092
0.00135093
0.00130856
0.00170093
0.00399359
0.00982595
0.0192707
0.00796151
0.0132659
0.0256681
0.023348
0.0186881
0.0145823
0.011587
0.00954267
0.00820935
0.00730029
0.00684028
0.00695491
0.00770751
0.00895429
0.0103323
0.0113756
0.0116885
0.0111051
0.00970095
0.00779059
0.0057587
0.00402244
0.00283212
0.00219344
0.00186225
0.00169784
0.00161549
0.00157432
0.00155293
0.00153271
0.00150374
0.00146028
0.00140007
0.0013273
0.00126561
0.00132692
0.00210393
0.00492596
0.0100969
0.016094
0.0074078
0.0133454
0.0224111
0.022052
0.0177568
0.0143903
0.0118925
0.0100829
0.00876863
0.00791879
0.00777364
0.00846387
0.00984253
0.0114825
0.0128227
0.0133662
0.0128325
0.011289
0.0089982
0.00652406
0.00431082
0.0029634
0.00222763
0.00185966
0.00167223
0.00157069
0.00151105
0.00147394
0.00144891
0.00142408
0.00139275
0.00135118
0.00129915
0.00124417
0.0012184
0.00134937
0.00214581
0.00473181
0.00949667
0.0168209
0.00740547
0.010873
0.0117613
0.0129224
0.0125527
0.0113753
0.010076
0.00894861
0.00820609
0.00830596
0.00941195
0.0112682
0.0133105
0.0148846
0.0154692
0.0148084
0.0128892
0.0101838
0.00704103
0.00465447
0.00314901
0.00236274
0.0019775
0.00177944
0.00166007
0.00157502
0.00150821
0.00145485
0.00141339
0.00137622
0.00133929
0.00130333
0.001275
0.00126935
0.0013199
0.0015236
0.00220001
0.00423731
0.00910993
0.0152275
0.00850979
0.00354678
0.00482938
0.00600459
0.00661168
0.00729107
0.00880709
0.0113167
0.0141229
0.0165044
0.0179105
0.0179989
0.0167017
0.0142236
0.0106447
0.00736392
0.00486714
0.00336348
0.0025991
0.00224233
0.00205938
0.0019406
0.00184298
0.00175188
0.00166492
0.00158682
0.00152663
0.0014859
0.00146799
0.0014853
0.00155412
0.00168796
0.00190331
0.00226
0.00295899
0.00460561
0.0100874
0.0140083
0.00877741
0.00444523
0.00629948
0.00812185
0.0110416
0.0147212
0.0181688
0.0203835
0.0214138
0.0213074
0.0200702
0.0175415
0.014092
0.0104672
0.00721223
0.00491849
0.00360021
0.00296783
0.00267929
0.00252846
0.00242765
0.00234574
0.00227045
0.00219626
0.00212313
0.00205821
0.00201647
0.00201175
0.00206115
0.00218692
0.00240797
0.0027351
0.00318126
0.00379743
0.00474413
0.0064806
0.0113557
0.0150341
0.00905507
0.0150764
0.0244189
0.0180824
0.0144048
0.0170418
0.0207508
0.0228846
0.0235756
0.0230957
0.021716
0.0196817
0.0170349
0.0138808
0.0106035
0.00771412
0.00560073
0.0043746
0.00377821
0.00348737
0.00331976
0.00320983
0.00313813
0.00309583
0.0030726
0.00305615
0.00303755
0.00301945
0.00302046
0.00306274
0.00317347
0.00337625
0.00369265
0.00414034
0.00473828
0.00552601
0.00660529
0.00823105
0.0109596
0.0142948
0.00822727
0.0138106
0.0170472
0.0178938
0.0207985
0.0217407
0.022163
0.0211663
0.0193502
0.0172241
0.0150382
0.0128963
0.0108543
0.00897802
0.00738439
0.00618723
0.00537754
0.00482582
0.00445332
0.00419386
0.00402139
0.00393158
0.00392381
0.00399164
0.00411931
0.00428205
0.0044499
0.00459472
0.00470277
0.00481582
0.0049722
0.00520125
0.00552679
0.00597298
0.00657484
0.00739816
0.00855674
0.0102016
0.012877
0.0163271
0.00784799
0.0121388
0.00890771
0.00881939
0.00933801
0.0097778
0.00919866
0.00812481
0.00695762
0.00588467
0.00495861
0.00417622
0.00352734
0.00301301
0.0026403
0.00240511
0.00228733
0.00225224
0.00225775
0.00229571
0.0023637
0.00245848
0.00257395
0.00270203
0.00283486
0.00296678
0.00309565
0.00322361
0.00335594
0.0034964
0.0036555
0.0038424
0.00406349
0.00432259
0.00462126
0.00495961
0.00534509
0.00585026
0.00662713
0.0077384
0.0073103
)
;

boundaryField
{
    floor
    {
        type            kqRWallFunction;
        value           nonuniform List<scalar> 
36
(
0.00358672
0.000793052
0.00162517
0.00165179
0.00157299
0.00144532
0.00128306
0.00113089
0.000999142
0.000887362
0.000792801
0.000713056
0.000645042
0.000586056
0.000533549
0.000484812
0.000436344
0.000398024
0.000326126
0.000326126
0.000524044
0.00067801
0.000821672
0.00116755
0.00202582
0.00185522
0.00358672
0.00429932
0.00390815
0.00358068
0.000793052
0.00358068
0.0025354
0.00538635
0.00403693
0.00534347
)
;
    }
    ceiling
    {
        type            kqRWallFunction;
        value           nonuniform List<scalar> 
43
(
0.0121388
0.00890771
0.00881939
0.00933801
0.0097778
0.00919866
0.00812481
0.00695762
0.00588467
0.00495861
0.00417622
0.00352734
0.00301301
0.0026403
0.00240511
0.00228733
0.00225224
0.00225775
0.00229571
0.0023637
0.00245848
0.00257395
0.00270203
0.00283486
0.00296678
0.00309565
0.00322361
0.00335594
0.0034964
0.0036555
0.0038424
0.00406349
0.00432259
0.00462126
0.00495961
0.00534509
0.00585026
0.00662713
0.0077384
0.0073103
0.010873
0.0117613
0.00444523
)
;
    }
    sWall
    {
        type            kqRWallFunction;
        value           nonuniform List<scalar> 9(0.0219183 0.0192342 0.0159504 0.0132659 0.0133454 0.010873 0.0150764 0.0138106 0.0121388);
    }
    nWall
    {
        type            kqRWallFunction;
        value           nonuniform List<scalar> 
14
(
0.00185522
0.00265538
0.00368745
0.00849187
0.00842606
0.00796151
0.0074078
0.00740547
0.00850979
0.00877741
0.00905507
0.00822727
0.00784799
0.0073103
)
;
    }
    sideWalls
    {
        type            empty;
    }
    glass1
    {
        type            kqRWallFunction;
        value           nonuniform List<scalar> 9(0.0015859 0.00340694 0.00549072 0.00797343 0.0108761 0.0141744 0.0179911 0.0216398 0.0228326);
    }
    glass2
    {
        type            kqRWallFunction;
        value           nonuniform List<scalar> 2(0.00630895 0.00809701);
    }
    sun
    {
        type            kqRWallFunction;
        value           nonuniform List<scalar> 
14
(
0.0015859
0.00180105
0.0017879
0.00194644
0.00209768
0.00223998
0.00237668
0.00251233
0.00265271
0.0028061
0.00295642
0.00310281
0.00325044
0.00341297
)
;
    }
    Table_master
    {
        type            kqRWallFunction;
        value           nonuniform List<scalar> 9(0.00266478 0.00201511 0.00157588 0.00126978 0.00104972 0.000887322 0.000764928 0.00067206 0.000603823);
    }
    Table_slave
    {
        type            kqRWallFunction;
        value           nonuniform List<scalar> 9(0.00345533 0.00285861 0.00243568 0.00210985 0.00185059 0.0016322 0.00143881 0.00125878 0.00107786);
    }
    inlet
    {
        type            turbulentIntensityKineticEnergyInlet;
        intensity       0.05;
        value           uniform 0.0009375;
    }
    outlet
    {
        type            zeroGradient;
    }
}


// ************************************************************************* //
