/*--------------------------------*- C++ -*----------------------------------*\
  =========                 |
  \\      /  F ield         | OpenFOAM: The Open Source CFD Toolbox
   \\    /   O peration     | Website:  https://openfoam.org
    \\  /    A nd           | Version:  6
     \\/     M anipulation  |
\*---------------------------------------------------------------------------*/
FoamFile
{
    version     2.0;
    format      ascii;
    class       volScalarField;
    location    "38399.999998835985";
    object      T;
}
// * * * * * * * * * * * * * * * * * * * * * * * * * * * * * * * * * * * * * //

dimensions      [0 0 0 1 0 0 0];

internalField   nonuniform List<scalar> 
778
(
302.565
302.246
302.23
302.225
302.221
302.216
302.212
302.207
302.202
302.198
302.192
302.184
302.175
302.164
302.154
302.223
302.094
302.086
302.085
302.087
302.091
302.095
302.1
302.105
302.11
302.115
302.12
302.125
302.13
302.135
302.142
302.15
302.182
302.778
302.277
302.245
302.244
302.245
302.245
302.245
302.243
302.239
302.234
302.226
302.211
302.192
302.166
302.138
302.119
302.105
302.101
302.082
302.063
302.056
302.053
302.053
302.054
302.056
302.057
302.059
302.061
302.063
302.065
302.068
302.072
302.079
302.09
302.106
302.158
302.994
302.324
302.272
302.278
302.289
302.299
302.307
302.313
302.315
302.313
302.304
302.284
302.254
302.212
302.167
302.127
302.095
302.075
302.048
302.041
302.039
302.039
302.04
302.041
302.042
302.044
302.045
302.046
302.047
302.048
302.05
302.052
302.057
302.067
302.084
302.145
303.204
302.385
302.303
302.315
302.336
302.358
302.378
302.395
302.407
302.411
302.403
302.378
302.334
302.274
302.207
302.146
302.097
302.062
302.047
302.036
302.032
302.032
302.033
302.034
302.035
302.035
302.036
302.036
302.036
302.037
302.037
302.037
302.037
302.043
302.053
302.071
302.137
303.405
302.459
302.335
302.349
302.38
302.414
302.448
302.479
302.503
302.517
302.513
302.484
302.426
302.341
302.248
302.164
302.099
302.057
302.035
302.028
302.026
302.028
302.031
302.034
302.036
302.037
302.038
302.039
302.039
302.039
302.039
302.038
302.038
302.039
302.045
302.061
302.114
302.125
302.138
302.236
303.594
302.544
302.372
302.377
302.415
302.458
302.503
302.547
302.587
302.613
302.617
302.587
302.512
302.4
302.28
302.174
302.095
302.05
302.028
302.021
302.022
302.027
302.032
302.037
302.04
302.042
302.043
302.043
302.043
302.043
302.042
302.041
302.04
302.039
302.042
302.052
302.085
302.098
302.112
302.248
303.757
302.639
302.42
302.401
302.439
302.485
302.535
302.585
302.635
302.675
302.692
302.664
302.575
302.436
302.292
302.172
302.087
302.038
302.017
302.014
302.019
302.028
302.036
302.042
302.046
302.048
302.049
302.049
302.048
302.047
302.045
302.044
302.042
302.04
302.04
302.047
302.067
302.079
302.096
302.229
303.91
302.783
302.516
302.436
302.457
302.499
302.545
302.592
302.642
302.701
302.732
302.7
302.597
302.445
302.286
302.154
302.065
302.018
302.003
302.007
302.019
302.033
302.044
302.051
302.055
302.057
302.057
302.055
302.053
302.051
302.049
302.046
302.043
302.041
302.04
302.043
302.055
302.067
302.107
302.41
304.118
303.232
302.843
302.588
302.504
302.516
302.552
302.593
302.65
302.719
302.754
302.712
302.589
302.418
302.246
302.112
302.028
301.992
301.989
302.003
302.024
302.042
302.055
302.063
302.066
302.066
302.064
302.061
302.058
302.055
302.051
302.048
302.045
302.042
302.041
302.042
302.05
302.073
302.154
302.569
304.103
303.535
303.162
302.863
302.686
302.618
302.609
302.634
302.703
302.773
302.786
302.707
302.546
302.349
302.171
302.045
301.98
301.963
301.978
302.007
302.036
302.058
302.071
302.076
302.076
302.074
302.07
302.065
302.061
302.057
302.053
302.049
302.045
302.042
302.041
302.043
302.06
302.169
302.319
302.568
304.107
303.67
303.355
303.095
302.915
302.816
302.778
302.787
302.836
302.865
302.815
302.665
302.45
302.231
302.06
301.96
301.926
301.94
301.979
302.022
302.057
302.079
302.088
302.089
302.085
302.079
302.073
302.067
302.062
302.057
302.053
302.049
302.045
302.043
302.042
302.048
302.102
302.246
302.375
302.575
304.139
303.757
303.493
303.282
303.128
303.033
302.991
302.99
302.994
302.938
302.78
302.536
302.273
302.055
301.919
301.868
301.883
301.935
301.997
302.051
302.087
302.104
302.105
302.098
302.09
302.081
302.074
302.067
302.062
302.057
302.053
302.049
302.045
302.043
302.045
302.07
302.175
302.322
302.437
302.593
304.204
303.877
303.634
303.45
303.319
303.233
303.186
303.158
303.07
302.872
302.576
302.255
301.99
301.826
301.769
301.796
301.87
301.96
302.04
302.096
302.123
302.127
302.118
302.106
302.094
302.084
302.076
302.069
302.063
302.058
302.054
302.05
302.047
302.046
302.053
302.096
302.225
302.384
302.5
302.621
304.14
303.889
303.681
303.54
303.424
303.333
303.256
303.126
302.85
302.467
302.08
301.784
301.624
301.595
301.661
301.78
301.911
302.027
302.107
302.149
302.156
302.147
302.133
302.118
302.104
302.092
302.082
302.074
302.068
302.063
302.059
302.057
302.056
302.057
302.066
302.106
302.221
302.377
302.491
302.608
304.28
304.088
303.618
303.297
303.094
302.928
302.737
302.366
301.892
301.494
301.264
301.213
301.301
301.468
301.666
301.861
302.017
302.13
302.181
302.193
302.187
302.173
302.158
302.142
302.127
302.113
302.101
302.091
302.085
302.08
302.078
302.078
302.082
302.088
302.098
302.126
302.205
302.35
302.446
302.539
294.644
296.448
298.147
299.051
299.396
299.58
299.827
300.152
300.523
300.902
301.262
301.577
301.835
302.044
302.163
302.222
302.24
302.238
302.229
302.217
302.205
302.191
302.176
302.16
302.146
302.135
302.128
302.125
302.128
302.136
302.147
302.159
302.171
302.188
302.23
302.338
302.411
302.511
294.924
295.752
296.652
297.515
298.285
299.006
299.687
300.299
300.821
301.259
301.634
301.911
302.097
302.215
302.273
302.295
302.299
302.297
302.293
302.287
302.28
302.27
302.257
302.242
302.227
302.215
302.207
302.207
302.215
302.23
302.249
302.269
302.286
302.302
302.324
302.373
302.423
302.52
299.758
298.685
297.305
296.758
297.516
298.519
299.419
300.151
300.723
301.163
301.52
301.808
302.032
302.188
302.283
302.334
302.355
302.363
302.367
302.37
302.373
302.373
302.371
302.365
302.354
302.34
302.325
302.311
302.303
302.302
302.309
302.325
302.348
302.374
302.401
302.428
302.453
302.478
302.501
302.564
300.12
299.994
299.408
298.888
299.295
300.015
300.676
301.194
301.577
301.856
302.058
302.204
302.303
302.364
302.397
302.414
302.423
302.43
302.438
302.446
302.452
302.456
302.455
302.45
302.439
302.426
302.412
302.399
302.391
302.388
302.393
302.404
302.421
302.442
302.466
302.491
302.514
302.532
302.547
302.626
300.84
300.838
300.899
300.991
301.148
301.492
301.814
302.055
302.221
302.331
302.401
302.445
302.471
302.485
302.493
302.498
302.504
302.512
302.521
302.53
302.536
302.539
302.537
302.532
302.523
302.514
302.504
302.497
302.492
302.492
302.497
302.505
302.518
302.535
302.556
302.58
302.606
302.628
302.646
302.685
)
;

boundaryField
{
    floor
    {
        type            wallHeatTransfer;
        Tinf            uniform 305.2;
        alphaWall       uniform 0.36;
        value           nonuniform List<scalar> 
36
(
302.544
302.868
302.622
302.613
302.621
302.639
302.665
302.693
302.722
302.751
302.779
302.806
302.832
302.858
302.883
302.91
302.94
302.968
303.04
303.04
302.909
302.841
302.792
302.711
302.62
302.717
302.544
302.487
302.488
302.497
302.868
302.497
302.535
302.417
302.434
302.394
)
;
    }
    ceiling
    {
        type            wallHeatTransfer;
        Tinf            uniform 303.2;
        alphaWall       uniform 0.36;
        value           nonuniform List<scalar> 
43
(
301.028
301.05
301.107
301.186
301.325
301.644
301.943
302.169
302.325
302.429
302.498
302.542
302.57
302.587
302.597
302.604
302.61
302.616
302.623
302.63
302.634
302.635
302.631
302.625
302.616
302.606
302.597
302.589
302.584
302.582
302.584
302.59
302.599
302.612
302.629
302.648
302.669
302.686
302.699
302.735
304.19
304.016
295.884
)
;
    }
    sWall
    {
        type            wallHeatTransfer;
        Tinf            uniform 315.2;
        alphaWall       uniform 0.54;
        value           nonuniform List<scalar> 9(305.123 305.181 305.292 305.436 305.376 305.601 301.387 301.768 302.493);
    }
    nWall
    {
        type            wallHeatTransfer;
        Tinf            uniform 308.2;
        alphaWall       uniform 0.54;
        value           nonuniform List<scalar> 
14
(
303.582
303.44
303.296
303.312
303.32
303.352
303.396
303.385
303.286
303.253
303.252
303.317
303.385
303.455
)
;
    }
    sideWalls
    {
        type            empty;
    }
    glass1
    {
        type            wallHeatTransfer;
        Tinf            uniform 315.2;
        alphaWall       uniform 4.3;
        value           nonuniform List<scalar> 9(311.626 310.812 310.3 309.912 309.605 309.359 309.142 308.996 309.046);
    }
    glass2
    {
        type            wallHeatTransfer;
        Tinf            uniform 308.2;
        alphaWall       uniform 4.3;
        value           nonuniform List<scalar> 2(305.775 305.692);
    }
    sun
    {
        type            wallHeatTransfer;
        Tinf            uniform 305.2;
        alphaWall       uniform 0.36;
        value           nonuniform List<scalar> 
14
(
303.017
302.731
302.719
302.7
302.684
302.669
302.656
302.643
302.631
302.618
302.605
302.591
302.576
302.56
)
;
    }
    Table_master
    {
        type            zeroGradient;
    }
    Table_slave
    {
        type            zeroGradient;
    }
    inlet
    {
        type            fixedValue;
        value           uniform 293.15;
    }
    outlet
    {
        type            zeroGradient;
    }
}


// ************************************************************************* //
