/*--------------------------------*- C++ -*----------------------------------*\
  =========                 |
  \\      /  F ield         | OpenFOAM: The Open Source CFD Toolbox
   \\    /   O peration     | Website:  https://openfoam.org
    \\  /    A nd           | Version:  6
     \\/     M anipulation  |
\*---------------------------------------------------------------------------*/
FoamFile
{
    version     2.0;
    format      ascii;
    class       volVectorField;
    location    "38399.999998835985";
    object      U;
}
// * * * * * * * * * * * * * * * * * * * * * * * * * * * * * * * * * * * * * //

dimensions      [0 1 -1 0 0 0 0];

internalField   nonuniform List<vector> 
778
(
(0.0655949 0.0794101 0)
(-0.155181 0.01577 0)
(-0.164317 0.0146312 0)
(-0.192445 0.0122825 0)
(-0.216895 0.00873268 0)
(-0.23697 0.00475099 0)
(-0.252111 0.000422201 0)
(-0.261893 -0.0043661 0)
(-0.2658 -0.00981225 0)
(-0.26283 -0.0161964 0)
(-0.251025 -0.024274 0)
(-0.226317 -0.0348974 0)
(-0.18618 -0.0504242 0)
(-0.144233 -0.0752028 0)
(-0.150137 -0.108608 0)
(0.0546089 0.0354713 0)
(0.0156801 -0.0268523 0)
(0.044831 -0.0232476 0)
(0.0691917 -0.0161453 0)
(0.0842178 -0.0103416 0)
(0.0914077 -0.00641139 0)
(0.0942384 -0.00433583 0)
(0.0952715 -0.00331256 0)
(0.0957209 -0.00272543 0)
(0.0958858 -0.00231305 0)
(0.0957569 -0.00194992 0)
(0.0952295 -0.00151129 0)
(0.0939748 -0.000759624 0)
(0.0911357 0.000841137 0)
(0.0849476 0.00405798 0)
(0.0734397 0.00775509 0)
(0.0598314 0.0115884 0)
(-0.00799021 0.0299466 0)
(0.25839 0.167399 0)
(-0.161239 0.0484028 0)
(-0.141618 0.0459953 0)
(-0.174033 0.0416332 0)
(-0.199409 0.0356887 0)
(-0.220145 0.0291508 0)
(-0.236191 0.0220783 0)
(-0.247458 0.0142447 0)
(-0.253646 0.00530665 0)
(-0.253972 -0.00515025 0)
(-0.247821 -0.0170889 0)
(-0.234116 -0.0308648 0)
(-0.214208 -0.0480977 0)
(-0.197635 -0.0699898 0)
(-0.194124 -0.082683 0)
(-0.166496 -0.042605 0)
(-0.105397 -0.036437 0)
(-0.0983441 -0.0445284 0)
(0.109325 -0.0419743 0)
(0.0644146 -0.0410775 0)
(0.0718008 -0.0321996 0)
(0.0857318 -0.0206581 0)
(0.0935866 -0.0104196 0)
(0.0957975 -0.0036291 0)
(0.0955568 -0.000193355 0)
(0.0951725 0.00125665 0)
(0.0951376 0.0019065 0)
(0.0952178 0.00227802 0)
(0.0952233 0.00259519 0)
(0.0951217 0.00313206 0)
(0.0948303 0.00440782 0)
(0.0935748 0.00771549 0)
(0.0879856 0.0167312 0)
(0.0742525 0.0252842 0)
(0.0629645 0.0328659 0)
(-0.0520907 0.0634511 0)
(0.429966 0.253964 0)
(-0.194235 0.0847777 0)
(-0.112794 0.0784566 0)
(-0.14827 0.0669851 0)
(-0.170713 0.0555338 0)
(-0.18882 0.0437632 0)
(-0.202671 0.0313791 0)
(-0.212376 0.0180374 0)
(-0.217739 0.0034198 0)
(-0.218105 -0.0126232 0)
(-0.212853 -0.0303281 0)
(-0.201749 -0.0499241 0)
(-0.186112 -0.0715937 0)
(-0.169585 -0.0932452 0)
(-0.151223 -0.104605 0)
(-0.120382 -0.0931946 0)
(-0.0796755 -0.0950182 0)
(-0.0715931 -0.107689 0)
(0.0920547 -0.088023 0)
(0.0624911 -0.0656231 0)
(0.0742604 -0.0460097 0)
(0.0878543 -0.0291343 0)
(0.094634 -0.0147873 0)
(0.0916826 -0.0119971 0)
(0.0874568 -0.00797096 0)
(0.085089 -0.00580221 0)
(0.0843937 -0.00456871 0)
(0.084374 -0.00379809 0)
(0.0846358 -0.00322302 0)
(0.0852911 -0.00259751 0)
(0.0870507 -0.00144141 0)
(0.0917269 0.00291343 0)
(0.0898755 0.0250734 0)
(0.0730826 0.0422737 0)
(0.0698816 0.0573078 0)
(-0.0902268 0.100664 0)
(0.578528 0.325854 0)
(-0.240101 0.121836 0)
(-0.0808512 0.109256 0)
(-0.121601 0.0898934 0)
(-0.139045 0.0741149 0)
(-0.153117 0.0586845 0)
(-0.163889 0.0428004 0)
(-0.171495 0.0258503 0)
(-0.175716 0.00722715 0)
(-0.175789 -0.0135169 0)
(-0.171104 -0.0364695 0)
(-0.161542 -0.0614638 0)
(-0.147685 -0.0873825 0)
(-0.130727 -0.11031 0)
(-0.109792 -0.123217 0)
(-0.0823357 -0.124574 0)
(-0.0527494 -0.126428 0)
(-0.0336455 -0.123228 0)
(0.0160016 -0.056814 0)
(0.0605844 -0.0929473 0)
(0.0682971 -0.0790639 0)
(0.0789473 -0.0586939 0)
(0.0914509 -0.0394472 0)
(0.10281 -0.0207782 0)
(0.11555 -0.0131456 0)
(0.126653 -0.00879564 0)
(0.132211 -0.00559818 0)
(0.133164 -0.00309495 0)
(0.130616 -0.000871513 0)
(0.125134 0.00129762 0)
(0.116593 0.00367687 0)
(0.104227 0.00672749 0)
(0.0849796 0.0111489 0)
(0.0711264 0.0367972 0)
(0.0598505 0.0604488 0)
(0.0759727 0.0831321 0)
(-0.118066 0.1367 0)
(0.705705 0.383698 0)
(-0.287675 0.157038 0)
(-0.0477144 0.133825 0)
(-0.096321 0.10697 0)
(-0.107781 0.0876546 0)
(-0.116825 0.0692373 0)
(-0.123625 0.0505107 0)
(-0.128295 0.0306434 0)
(-0.130663 0.00876477 0)
(-0.129862 -0.015798 0)
(-0.125365 -0.0430707 0)
(-0.116747 -0.0726808 0)
(-0.104039 -0.102813 0)
(-0.0875921 -0.12906 0)
(-0.0676686 -0.145759 0)
(-0.0443548 -0.152257 0)
(-0.0205133 -0.152393 0)
(1.73594e-06 -0.143766 0)
(0.030544 -0.114998 0)
(0.0567419 -0.109314 0)
(0.0703609 -0.0923511 0)
(0.080532 -0.0711511 0)
(0.0906105 -0.0506806 0)
(0.100175 -0.0326398 0)
(0.10927 -0.0192964 0)
(0.116261 -0.00993804 0)
(0.119646 -0.00325298 0)
(0.119806 0.0019897 0)
(0.117362 0.00652215 0)
(0.112685 0.0108588 0)
(0.105806 0.0155122 0)
(0.0966544 0.0211864 0)
(0.0847276 0.0291813 0)
(0.0731648 0.0471773 0)
(0.0626366 0.0711812 0)
(0.0941288 0.0991956 0)
(0.0160408 0.137895 0)
(0.0952829 0.182909 0)
(0.141156 0.146615 0)
(-0.22421 0.203416 0)
(0.810415 0.431995 0)
(-0.331313 0.190713 0)
(-0.0173314 0.150304 0)
(-0.0733993 0.117585 0)
(-0.0786329 0.0955851 0)
(-0.0822662 0.075023 0)
(-0.0845319 0.0544189 0)
(-0.0855792 0.032787 0)
(-0.0853311 0.00891227 0)
(-0.0826603 -0.0183779 0)
(-0.0774952 -0.0490053 0)
(-0.0688732 -0.0824762 0)
(-0.0568915 -0.116458 0)
(-0.0418598 -0.146236 0)
(-0.0248894 -0.165936 0)
(-0.00652736 -0.174463 0)
(0.0118561 -0.172752 0)
(0.0277627 -0.161031 0)
(0.0459356 -0.139339 0)
(0.0624062 -0.122334 0)
(0.0731046 -0.102444 0)
(0.0808072 -0.080356 0)
(0.0875765 -0.0589847 0)
(0.0937549 -0.0400961 0)
(0.0990682 -0.0249282 0)
(0.102724 -0.0135845 0)
(0.104289 -0.00490778 0)
(0.103819 0.00226418 0)
(0.101629 0.00870587 0)
(0.0979718 0.0149368 0)
(0.093006 0.0214885 0)
(0.0869616 0.0290022 0)
(0.0800916 0.0384031 0)
(0.0743163 0.0528469 0)
(0.0689918 0.0728748 0)
(0.0908777 0.0985904 0)
(0.0723957 0.107231 0)
(0.0887463 0.0476509 0)
(0.146165 -0.0376009 0)
(-0.330315 0.106242 0)
(0.879903 0.474708 0)
(-0.368634 0.221003 0)
(0.00371423 0.155629 0)
(-0.0526949 0.12165 0)
(-0.0522507 0.0979397 0)
(-0.0510842 0.0759133 0)
(-0.0490931 0.054133 0)
(-0.0465875 0.0316138 0)
(-0.0434092 0.00683506 0)
(-0.0374523 -0.0222544 0)
(-0.0303806 -0.0553337 0)
(-0.0206053 -0.0918914 0)
(-0.0088143 -0.128813 0)
(0.00437116 -0.161128 0)
(0.0174245 -0.181792 0)
(0.030203 -0.190161 0)
(0.0420062 -0.187217 0)
(0.0523098 -0.174436 0)
(0.0622866 -0.154085 0)
(0.0708784 -0.132409 0)
(0.0764229 -0.109351 0)
(0.0798992 -0.0858011 0)
(0.0825014 -0.0635799 0)
(0.0847269 -0.0440489 0)
(0.0865312 -0.0279359 0)
(0.0875819 -0.0151436 0)
(0.0876633 -0.00489237 0)
(0.0866304 0.00373667 0)
(0.0846845 0.0114248 0)
(0.0819768 0.0186975 0)
(0.0786893 0.026063 0)
(0.0751045 0.0340393 0)
(0.0716186 0.0432094 0)
(0.0695794 0.0549021 0)
(0.0683037 0.069537 0)
(0.0810503 0.0888195 0)
(0.0835144 0.0922565 0)
(0.0880123 0.0543813 0)
(0.180754 0.0238637 0)
(-0.283022 0.153443 0)
(0.927968 0.517162 0)
(-0.383168 0.234222 0)
(0.0169069 0.133074 0)
(-0.0273592 0.116755 0)
(-0.0265939 0.0950249 0)
(-0.0228024 0.0725341 0)
(-0.0177067 0.0502054 0)
(-0.012445 0.0273391 0)
(-0.00550643 0.00193748 0)
(0.00448119 -0.0306966 0)
(0.0141933 -0.0652866 0)
(0.02548 -0.103263 0)
(0.0371038 -0.140745 0)
(0.0477634 -0.171999 0)
(0.0568422 -0.192208 0)
(0.0643224 -0.199737 0)
(0.0700371 -0.195369 0)
(0.073991 -0.181214 0)
(0.076698 -0.16014 0)
(0.0780731 -0.136126 0)
(0.0777302 -0.111068 0)
(0.0762381 -0.0864834 0)
(0.0744195 -0.0638592 0)
(0.072793 -0.0442068 0)
(0.0714924 -0.0279121 0)
(0.0703835 -0.0146974 0)
(0.0692778 -0.00386884 0)
(0.0678873 0.00534865 0)
(0.0663435 0.0135338 0)
(0.064626 0.0211758 0)
(0.0628288 0.0287108 0)
(0.061152 0.0365125 0)
(0.0599075 0.044912 0)
(0.0599547 0.0544533 0)
(0.0610787 0.065221 0)
(0.0696741 0.0789315 0)
(0.0784339 0.0829569 0)
(0.0759576 0.0622474 0)
(0.238881 0.0506031 0)
(-0.560076 0.229718 0)
(1.01132 0.506841 0)
(-0.13738 0.29637 0)
(0.0410755 0.161576 0)
(0.0405514 0.122175 0)
(0.0130342 0.092075 0)
(0.00860936 0.0654694 0)
(0.0140209 0.0414898 0)
(0.0206328 0.0170647 0)
(0.0324352 -0.0109613 0)
(0.0438934 -0.042108 0)
(0.0557548 -0.0768647 0)
(0.0680176 -0.114557 0)
(0.0791373 -0.150971 0)
(0.0876199 -0.180406 0)
(0.0928229 -0.198447 0)
(0.0948592 -0.203664 0)
(0.0941403 -0.197082 0)
(0.091217 -0.181095 0)
(0.0867676 -0.158728 0)
(0.0812426 -0.133289 0)
(0.0749307 -0.107212 0)
(0.068424 -0.0823333 0)
(0.0624364 -0.0600248 0)
(0.0574775 -0.0410249 0)
(0.05373 -0.0254326 0)
(0.0510898 -0.0127632 0)
(0.0492943 -0.00225229 0)
(0.0479456 0.00678718 0)
(0.0470423 0.014852 0)
(0.0463657 0.0223861 0)
(0.0458843 0.0297334 0)
(0.045673 0.0371319 0)
(0.045904 0.0447333 0)
(0.0470691 0.0527189 0)
(0.0491655 0.0610175 0)
(0.0552481 0.0705734 0)
(0.063097 0.0727574 0)
(0.0520364 0.0502562 0)
(0.294286 0.0718884 0)
(-0.783056 0.298653 0)
(0.779354 0.395784 0)
(0.00069121 0.319527 0)
(0.0933551 0.218947 0)
(0.110562 0.155223 0)
(0.0771247 0.106892 0)
(0.05975 0.0676248 0)
(0.0581648 0.035839 0)
(0.0623226 0.00647898 0)
(0.0737438 -0.0233856 0)
(0.0853083 -0.0550072 0)
(0.0974921 -0.0897091 0)
(0.109339 -0.126176 0)
(0.118691 -0.159907 0)
(0.123774 -0.185594 0)
(0.123987 -0.199683 0)
(0.119759 -0.201333 0)
(0.112042 -0.191887 0)
(0.101913 -0.173865 0)
(0.0904131 -0.150275 0)
(0.0783867 -0.12414 0)
(0.0665207 -0.0979934 0)
(0.0555409 -0.0737641 0)
(0.0461646 -0.0527182 0)
(0.0388468 -0.0353114 0)
(0.033674 -0.0213499 0)
(0.0304039 -0.0100758 0)
(0.0285828 -0.000597345 0)
(0.0277462 0.00769933 0)
(0.0276511 0.0152539 0)
(0.0279707 0.0224388 0)
(0.0285824 0.0294874 0)
(0.0294406 0.0365225 0)
(0.0305484 0.0435792 0)
(0.0320468 0.0506677 0)
(0.0337043 0.0577315 0)
(0.0361854 0.0656952 0)
(0.0283056 0.0711089 0)
(0.0203116 0.0826082 0)
(0.137665 0.158849 0)
(-0.656875 0.299425 0)
(0.617294 0.220943 0)
(0.00457754 0.298161 0)
(0.113023 0.241571 0)
(0.148288 0.177588 0)
(0.130848 0.123556 0)
(0.117823 0.0778916 0)
(0.114955 0.0389506 0)
(0.117113 0.00345243 0)
(0.123469 -0.0306709 0)
(0.131687 -0.0649651 0)
(0.14136 -0.100439 0)
(0.150218 -0.135266 0)
(0.155322 -0.16509 0)
(0.154748 -0.185606 0)
(0.148182 -0.194521 0)
(0.136522 -0.191854 0)
(0.121241 -0.179327 0)
(0.103846 -0.159485 0)
(0.0857142 -0.135212 0)
(0.0679585 -0.109285 0)
(0.0515282 -0.0841729 0)
(0.0372911 -0.0617504 0)
(0.0259815 -0.0431239 0)
(0.0178518 -0.0283533 0)
(0.0126638 -0.0168678 0)
(0.00977557 -0.00755458 0)
(0.00846554 0.000515654 0)
(0.00839009 0.00783511 0)
(0.00903045 0.0147574 0)
(0.0101501 0.0215383 0)
(0.0115923 0.0283175 0)
(0.0132134 0.0351608 0)
(0.0148441 0.0420677 0)
(0.0163562 0.0490032 0)
(0.017661 0.0560287 0)
(0.0183197 0.0651302 0)
(-0.00283635 0.0846022 0)
(-0.00160166 0.117473 0)
(0.152088 0.175542 0)
(-0.563091 0.239135 0)
(0.570768 0.118592 0)
(-0.0203242 0.258674 0)
(0.113744 0.229908 0)
(0.165086 0.176092 0)
(0.166741 0.126235 0)
(0.16439 0.0811621 0)
(0.165364 0.0400389 0)
(0.168268 0.00169067 0)
(0.172227 -0.0353377 0)
(0.177797 -0.071855 0)
(0.183956 -0.10749 0)
(0.187623 -0.139483 0)
(0.185787 -0.163989 0)
(0.177073 -0.178222 0)
(0.161926 -0.181398 0)
(0.141887 -0.174403 0)
(0.118899 -0.159254 0)
(0.0947302 -0.13836 0)
(0.0709833 -0.114415 0)
(0.0489097 -0.0899047 0)
(0.0296904 -0.0671953 0)
(0.0143167 -0.048029 0)
(0.00336788 -0.0331646 0)
(-0.00361896 -0.0217969 0)
(-0.00740074 -0.0132125 0)
(-0.009309 -0.00586703 0)
(-0.0099443 0.000858425 0)
(-0.00954234 0.00725125 0)
(-0.00846293 0.0135376 0)
(-0.00683011 0.0198791 0)
(-0.00480165 0.0263997 0)
(-0.0026001 0.0332088 0)
(-0.000584734 0.0403998 0)
(0.000778454 0.0480416 0)
(0.00144906 0.0565244 0)
(-0.00263263 0.0716789 0)
(-0.031685 0.105555 0)
(-0.0230656 0.13999 0)
(0.0917128 0.182501 0)
(-0.527421 0.197009 0)
(0.628392 0.053767 0)
(0.00934186 0.19733 0)
(0.113885 0.196978 0)
(0.175186 0.157983 0)
(0.191421 0.117757 0)
(0.198055 0.07735 0)
(0.203366 0.0373484 0)
(0.208561 -0.00144714 0)
(0.213066 -0.0396132 0)
(0.217385 -0.0764711 0)
(0.2192 -0.109841 0)
(0.215345 -0.136579 0)
(0.203937 -0.154116 0)
(0.185061 -0.161483 0)
(0.160333 -0.159254 0)
(0.131918 -0.148831 0)
(0.102081 -0.13228 0)
(0.0725541 -0.111666 0)
(0.0451427 -0.0894942 0)
(0.0210915 -0.0679523 0)
(0.00198508 -0.0493369 0)
(-0.0112986 -0.0351729 0)
(-0.0190353 -0.0253534 0)
(-0.02344 -0.0176926 0)
(-0.0257863 -0.0111272 0)
(-0.0269283 -0.00505269 0)
(-0.027158 0.000730073 0)
(-0.0265694 0.00635658 0)
(-0.0252774 0.0119959 0)
(-0.0233189 0.0178207 0)
(-0.0208339 0.0240308 0)
(-0.0180927 0.0308726 0)
(-0.0156253 0.0386688 0)
(-0.014288 0.0479366 0)
(-0.0146622 0.0603555 0)
(-0.0215275 0.0843135 0)
(-0.050454 0.128501 0)
(-0.0457309 0.166244 0)
(-0.0174468 0.174487 0)
(-0.540403 0.129032 0)
(0.472736 0.0748005 0)
(-0.132039 0.137606 0)
(0.0942947 0.133344 0)
(0.17278 0.116872 0)
(0.203867 0.0954316 0)
(0.218124 0.0644842 0)
(0.228086 0.0284649 0)
(0.237157 -0.00891291 0)
(0.243559 -0.0452833 0)
(0.245087 -0.0782099 0)
(0.239112 -0.105015 0)
(0.224272 -0.123659 0)
(0.201083 -0.133318 0)
(0.171447 -0.134467 0)
(0.137946 -0.12838 0)
(0.102878 -0.116333 0)
(0.0686071 -0.100203 0)
(0.0363545 -0.081584 0)
(0.00860785 -0.0629917 0)
(-0.0138075 -0.0463932 0)
(-0.0276116 -0.03515 0)
(-0.0358447 -0.0271896 0)
(-0.0403966 -0.020938 0)
(-0.0429376 -0.0152822 0)
(-0.0443143 -0.00988069 0)
(-0.0449472 -0.00463802 0)
(-0.044917 0.000413912 0)
(-0.0442255 0.00531562 0)
(-0.0428037 0.0102266 0)
(-0.0405826 0.0153924 0)
(-0.0376415 0.0211381 0)
(-0.0342068 0.027891 0)
(-0.0307892 0.0362584 0)
(-0.0283145 0.0473094 0)
(-0.0268307 0.0635625 0)
(-0.025597 0.0920509 0)
(-0.0390526 0.141648 0)
(-0.0299165 0.196187 0)
(0.0604333 0.185354 0)
(-0.537689 0.0336131 0)
(0.724139 0.134452 0)
(0.0818343 0.115256 0)
(0.149761 0.0992452 0)
(0.222404 0.0805552 0)
(0.244043 0.0700305 0)
(0.248816 0.0477767 0)
(0.255111 0.0176347 0)
(0.261247 -0.0146684 0)
(0.26031 -0.0447127 0)
(0.249853 -0.0695221 0)
(0.229622 -0.0873816 0)
(0.201177 -0.0978436 0)
(0.166873 -0.101241 0)
(0.129241 -0.0986048 0)
(0.0907974 -0.0912385 0)
(0.0529977 -0.0798325 0)
(0.0187004 -0.0660938 0)
(-0.0125375 -0.0511877 0)
(-0.0342607 -0.0398846 0)
(-0.0484362 -0.0320821 0)
(-0.0565903 -0.0268933 0)
(-0.0611869 -0.0226065 0)
(-0.0637436 -0.0183865 0)
(-0.0651725 -0.0138943 0)
(-0.0659106 -0.00921159 0)
(-0.0661524 -0.00453984 0)
(-0.0659042 -6.91258e-05 0)
(-0.0651123 0.00415421 0)
(-0.0636692 0.00827446 0)
(-0.0613533 0.0126111 0)
(-0.0581484 0.0176114 0)
(-0.0541344 0.0238679 0)
(-0.0495414 0.0322203 0)
(-0.044771 0.0439781 0)
(-0.0390875 0.0613644 0)
(-0.0281754 0.088589 0)
(-0.0181832 0.132486 0)
(-0.00823963 0.194233 0)
(0.149982 0.189184 0)
(-0.397603 0.0687624 0)
(0.191754 0.0880228 0)
(0.225629 0.0998312 0)
(0.246421 0.0702669 0)
(0.242498 0.0399764 0)
(0.23972 0.012274 0)
(0.234785 -0.0127893 0)
(0.220141 -0.0332969 0)
(0.196492 -0.0484025 0)
(0.166141 -0.0580818 0)
(0.131506 -0.0628221 0)
(0.0943609 -0.0629551 0)
(0.0566467 -0.0592617 0)
(0.0203839 -0.0526994 0)
(-0.0151289 -0.0435188 0)
(-0.0423238 -0.035269 0)
(-0.0624536 -0.0290776 0)
(-0.0754218 -0.0256435 0)
(-0.0832584 -0.0236193 0)
(-0.0878365 -0.0218998 0)
(-0.0906115 -0.0195911 0)
(-0.0923256 -0.0165014 0)
(-0.0933511 -0.0127612 0)
(-0.0938811 -0.00865386 0)
(-0.0940187 -0.0044927 0)
(-0.0937778 -0.000538781 0)
(-0.0931289 0.00309735 0)
(-0.0920384 0.00647516 0)
(-0.0902097 0.00991444 0)
(-0.0874873 0.0139342 0)
(-0.0836324 0.0191974 0)
(-0.0782862 0.0265355 0)
(-0.0710184 0.0370132 0)
(-0.0606751 0.05204 0)
(-0.0434915 0.0735349 0)
(-0.0182261 0.104389 0)
(0.00483963 0.154124 0)
(0.179136 0.162456 0)
(-0.353837 0.126364 0)
(0.450836 0.209836 0)
(0.205819 0.178807 0)
(0.152387 0.118805 0)
(0.139462 0.0640199 0)
(0.128274 0.0258349 0)
(0.114378 0.0017233 0)
(0.0990919 -0.0129729 0)
(0.0780587 -0.0219803 0)
(0.0532482 -0.0273516 0)
(0.0257868 -0.029494 0)
(-0.0046401 -0.0283163 0)
(-0.0344198 -0.0249359 0)
(-0.0609041 -0.0209784 0)
(-0.0828699 -0.0179764 0)
(-0.0986893 -0.0172576 0)
(-0.109135 -0.0180989 0)
(-0.115614 -0.0196215 0)
(-0.11982 -0.0205033 0)
(-0.122803 -0.0201438 0)
(-0.125084 -0.0184033 0)
(-0.126863 -0.015442 0)
(-0.128209 -0.0115682 0)
(-0.129144 -0.00719236 0)
(-0.12967 -0.0027967 0)
(-0.129796 0.00112405 0)
(-0.129579 0.00421839 0)
(-0.129082 0.00670856 0)
(-0.128076 0.00901516 0)
(-0.126269 0.0115959 0)
(-0.12314 0.0149257 0)
(-0.117921 0.0195447 0)
(-0.10974 0.026102 0)
(-0.0973734 0.0351953 0)
(-0.077991 0.0469479 0)
(-0.0475345 0.0613057 0)
(-0.00667594 0.0856519 0)
(0.189272 0.124076 0)
(-0.379852 0.192165 0)
(0.358278 -0.417353 0)
(-0.346346 -0.512732 0)
(-0.218361 -0.0271196 0)
(-0.0934992 0.111037 0)
(-0.053957 0.0925552 0)
(-0.0315222 0.054495 0)
(-0.0265996 0.0282943 0)
(-0.0314722 0.0115777 0)
(-0.0401961 0.000846995 0)
(-0.0507704 -0.00601119 0)
(-0.0646067 -0.00995797 0)
(-0.080396 -0.0118453 0)
(-0.0969956 -0.013004 0)
(-0.112925 -0.0149688 0)
(-0.126959 -0.0180851 0)
(-0.138091 -0.0214806 0)
(-0.14558 -0.024482 0)
(-0.150098 -0.0267233 0)
(-0.153113 -0.0281631 0)
(-0.155652 -0.0287633 0)
(-0.15812 -0.0285265 0)
(-0.160584 -0.0274982 0)
(-0.162988 -0.0257939 0)
(-0.165256 -0.0235657 0)
(-0.167322 -0.0209392 0)
(-0.169088 -0.0179338 0)
(-0.17034 -0.0144212 0)
(-0.170777 -0.0102344 0)
(-0.170327 -0.00617938 0)
(-0.169191 -0.00236715 0)
(-0.167334 0.00140855 0)
(-0.164501 0.00536627 0)
(-0.160255 0.00978106 0)
(-0.154238 0.0150797 0)
(-0.14615 0.0216358 0)
(-0.134293 0.029374 0)
(-0.112045 0.0395682 0)
(-0.0625243 0.0634037 0)
(0.0291975 0.124069 0)
(-0.51777 0.230038 0)
(0.122026 -0.186484 0)
(-0.388801 -0.298193 0)
(-0.343693 -0.0962979 0)
(-0.265333 0.0517001 0)
(-0.211633 0.0834961 0)
(-0.179514 0.0744873 0)
(-0.163264 0.0610355 0)
(-0.157271 0.0512028 0)
(-0.157304 0.046288 0)
(-0.160528 0.0460705 0)
(-0.165053 0.0496728 0)
(-0.169359 0.0558439 0)
(-0.172606 0.0631992 0)
(-0.174617 0.0700067 0)
(-0.175796 0.0741571 0)
(-0.176753 0.0729057 0)
(-0.178259 0.0662875 0)
(-0.180593 0.0591617 0)
(-0.183834 0.0534407 0)
(-0.187829 0.0496466 0)
(-0.192272 0.0477674 0)
(-0.196768 0.0476103 0)
(-0.200906 0.0488657 0)
(-0.204333 0.0510803 0)
(-0.206831 0.0535995 0)
(-0.20834 0.05554 0)
(-0.208897 0.0558372 0)
(-0.20839 0.0537571 0)
(-0.206739 0.0510636 0)
(-0.20407 0.048243 0)
(-0.200437 0.045332 0)
(-0.195655 0.0423421 0)
(-0.189346 0.0393421 0)
(-0.181383 0.0363651 0)
(-0.172086 0.0327904 0)
(-0.159603 0.0261727 0)
(-0.132952 0.0137714 0)
(-0.0642891 0.00875997 0)
(0.140284 0.0651701 0)
(-0.603688 0.193721 0)
(1.14927 -0.0110873 0)
(-0.297988 -0.323548 0)
(-0.353572 -0.232952 0)
(-0.353319 -0.148627 0)
(-0.329643 -0.107433 0)
(-0.298185 -0.0990121 0)
(-0.271159 -0.101314 0)
(-0.251598 -0.107058 0)
(-0.238425 -0.114564 0)
(-0.229428 -0.123682 0)
(-0.222594 -0.134707 0)
(-0.216588 -0.147863 0)
(-0.210878 -0.162727 0)
(-0.205642 -0.177815 0)
(-0.20165 -0.190505 0)
(-0.200158 -0.197716 0)
(-0.202383 -0.198481 0)
(-0.208485 -0.195772 0)
(-0.217354 -0.190713 0)
(-0.227672 -0.184201 0)
(-0.238236 -0.17704 0)
(-0.248067 -0.169923 0)
(-0.25641 -0.163303 0)
(-0.262716 -0.157316 0)
(-0.266637 -0.151787 0)
(-0.268096 -0.146332 0)
(-0.267384 -0.140483 0)
(-0.265165 -0.134068 0)
(-0.262207 -0.127894 0)
(-0.258641 -0.121635 0)
(-0.25445 -0.114977 0)
(-0.249512 -0.107876 0)
(-0.243818 -0.100488 0)
(-0.238306 -0.0930746 0)
(-0.235607 -0.0859985 0)
(-0.236218 -0.0792152 0)
(-0.225681 -0.0681441 0)
(-0.183957 -0.0377881 0)
(-0.185712 0.0279819 0)
(-0.67714 0.108884 0)
)
;

boundaryField
{
    floor
    {
        type            noSlip;
    }
    ceiling
    {
        type            noSlip;
    }
    sWall
    {
        type            noSlip;
    }
    nWall
    {
        type            noSlip;
    }
    sideWalls
    {
        type            empty;
    }
    glass1
    {
        type            noSlip;
    }
    glass2
    {
        type            noSlip;
    }
    sun
    {
        type            noSlip;
    }
    Table_master
    {
        type            noSlip;
    }
    Table_slave
    {
        type            noSlip;
    }
    inlet
    {
        type            fixedValue;
        value           uniform (0.5 0 0);
    }
    outlet
    {
        type            zeroGradient;
    }
}


// ************************************************************************* //
