/*--------------------------------*- C++ -*----------------------------------*\
  =========                 |
  \\      /  F ield         | OpenFOAM: The Open Source CFD Toolbox
   \\    /   O peration     | Website:  https://openfoam.org
    \\  /    A nd           | Version:  6
     \\/     M anipulation  |
\*---------------------------------------------------------------------------*/
FoamFile
{
    version     2.0;
    format      ascii;
    class       surfaceScalarField;
    location    "16800";
    object      phi;
}
// * * * * * * * * * * * * * * * * * * * * * * * * * * * * * * * * * * * * * //

dimensions      [1 0 -1 0 0 0 0];

internalField   nonuniform List<scalar> 
1482
(
-0.00279983
0.00286386
-0.00348419
0.000684361
-0.00414511
0.00066092
-0.00475947
0.00061436
-0.00528113
0.000521664
-0.00569331
0.000412183
-0.00598475
0.000291434
-0.00614234
0.000157591
-0.00614873
6.39007e-06
-0.00597793
-0.000170797
-0.0056
-0.00037793
-0.00498393
-0.000616076
-0.00405954
-0.000924386
-0.00258053
-0.00147901
-0.00257761
-6.52195e-05
7.00728e-05
0.000777532
-0.000842752
0.00142928
-0.000651745
0.00182796
-0.000398682
0.002049
-0.00022104
0.0021532
-0.000104201
0.00220056
-4.73632e-05
0.00222336
-2.27965e-05
0.00223302
-9.66182e-06
0.00223381
-7.85126e-07
0.00222667
7.13818e-06
0.00220765
1.90179e-05
0.00216347
4.41803e-05
0.00206098
0.000102491
0.00184491
0.000216074
0.00148858
0.000356331
0.0010189
0.000469673
0.00102534
-0.00204044
0.00507462
-0.00290869
0.00155261
-0.00369473
0.00144697
-0.00434604
0.00126566
-0.00488359
0.00105922
-0.00531266
0.000841248
-0.00563141
0.000610185
-0.00583301
0.000359189
-0.00590675
8.01305e-05
-0.00584479
-0.000232758
-0.00564134
-0.000581384
-0.0052851
-0.00097231
-0.00477493
-0.00143456
-0.00428888
-0.00196507
-0.0047048
-0.00216169
-0.00311789
-0.00158146
-0.0016339
-0.0014783
-0.00161906
0.00131718
-0.0012369
0.00166026
-0.00118583
0.00191057
-0.00090205
0.0021004
-0.000588513
0.00220654
-0.000327183
0.0022152
-0.000112853
0.00221727
-4.94409e-05
0.00221898
-2.4506e-05
0.00221999
-1.06706e-05
0.00221999
-7.85937e-07
0.00221859
8.53908e-06
0.00221436
2.32528e-05
0.00220171
5.6825e-05
0.00213984
0.000164365
0.0018905
0.000465417
0.00146198
0.000784842
0.000900355
0.0010313
0.00194258
-0.00148832
0.00682087
-0.00235933
0.00242362
-0.0031295
0.00221713
-0.00371396
0.00185012
-0.00418488
0.00153015
-0.00455659
0.00121296
-0.00483085
0.000884449
-0.00500441
0.000532743
-0.00507083
0.000146548
-0.00502103
-0.000282555
-0.0048443
-0.000758119
-0.00453324
-0.00128336
-0.00411875
-0.00184905
-0.00372154
-0.00236227
-0.00330147
-0.00258176
-0.00237026
-0.00251268
-0.00127609
-0.00257247
-0.00288231
0.00114864
-0.00237108
0.00165135
-0.00168854
0.00194881
-0.00119952
0.0021403
-0.000780005
0.00216787
-0.000354745
0.00205517
0.00200588
0.00198153
0.00197101
0.00197038
0.00197907
0.00200248
0.00205946
0.00222398
0.00186531
0.000824083
0.00141797
0.00123219
0.000800436
0.00164883
0.00276905
-0.00110613
0.00825821
-0.00192815
0.00324564
-0.00257036
0.00285935
-0.00303089
0.00231065
-0.00339864
0.0018979
-0.00368765
0.00150196
-0.00390088
0.00109768
-0.00403649
0.000668347
-0.00408692
0.000196979
-0.00403898
-0.000330496
-0.00388041
-0.000916687
-0.00360718
-0.00155659
-0.00324199
-0.00221424
-0.00282071
-0.00278355
-0.00228204
-0.00312043
-0.00156308
-0.00323163
-0.000875542
-0.00326001
-0.000697301
-0.00306055
0.00143879
-0.00212065
0.0013725
-0.00230479
0.00168857
-0.00200461
0.00200123
-0.00151218
0.00226759
-0.00104637
0.00254472
-0.000631872
0.00285686
-0.000312292
0.00302301
-0.000166309
0.00308713
-6.42693e-05
0.00306966
1.73162e-05
0.00297935
9.01592e-05
0.00281716
0.000162036
0.00257525
0.000241756
0.00223069
0.000344406
0.00172631
0.000504222
0.00159007
0.000960324
0.00126276
0.0015595
0.000737492
0.0021741
0.00354086
-0.000803824
0.00945523
-0.00158007
0.00402189
-0.0020489
0.00332817
-0.00236478
0.00262654
-0.00260934
0.00214245
-0.00279506
0.00168768
-0.00292694
0.00122957
-0.0030057
0.000747105
-0.00302476
0.000216039
-0.00296749
-0.00038777
-0.00282066
-0.00106351
-0.00257744
-0.00179981
-0.00224452
-0.00254717
-0.00182905
-0.00319901
-0.00132467
-0.00362482
-0.000748986
-0.00380731
-0.000218464
-0.00379053
0.000258632
-0.00353765
0.00111985
-0.00298186
0.00148613
-0.00267106
0.00174546
-0.00226394
0.00199812
-0.00176485
0.00222811
-0.00127635
0.00244237
-0.000846129
0.00264278
-0.000512704
0.00275216
-0.000275691
0.0027879
-0.000100013
0.00276173
4.34861e-05
0.00268008
0.000171812
0.00254545
0.00029667
0.00235663
0.000430579
0.00211118
0.000589852
0.00181705
0.000798355
0.00161109
0.00116628
0.00146883
0.00170176
0.00128779
0.00235515
0.00226914
0.00255951
0.00131478
0.000989301
0.0018938
-0.00055034
0.0020128
-0.000575874
0.0104775
-0.00132487
0.00477088
-0.00158466
0.00358797
-0.00175077
0.00279264
-0.00186496
0.00225664
-0.00193667
0.00175939
-0.00197235
0.00126525
-0.00197627
0.000751026
-0.00194526
0.000185025
-0.00185753
-0.000475494
-0.00170336
-0.00121769
-0.0014729
-0.00203026
-0.00116914
-0.00285093
-0.000797943
-0.0035702
-0.000379104
-0.00404365
6.05346e-05
-0.00424695
0.000465392
-0.00419538
0.000839643
-0.00391189
0.00129081
-0.00343302
0.00158989
-0.00297015
0.00179352
-0.00246757
0.00196517
-0.0019365
0.00211689
-0.00142807
0.00225126
-0.000980501
0.00235569
-0.000617134
0.00241334
-0.000333343
0.00242404
-0.000110708
0.00239304
7.4479e-05
0.0023252
0.000239658
0.00222432
0.000397545
0.00209444
0.000560457
0.0019425
0.000741792
0.00178272
0.000958144
0.00169082
0.00125818
0.00174513
0.00164744
0.00195102
0.00214926
0.00218641
0.00232412
0.00169837
0.00147734
0.000784008
0.000364026
0.00289448
-0.000543362
0.0115131
-0.00124363
0.00547115
-0.00119216
0.0035365
-0.00120077
0.00280126
-0.00119339
0.00224927
-0.00116022
0.00172621
-0.00110339
0.00120842
-0.00102861
0.00067624
-0.000930508
8.69242e-05
-0.000781825
-0.000624177
-0.000592947
-0.00140657
-0.000353448
-0.00226976
-7.04545e-05
-0.00313393
0.000233619
-0.00387427
0.000542988
-0.00435302
0.000837704
-0.00454167
0.00110039
-0.00445806
0.00133371
-0.00414521
0.00156568
-0.00366499
0.00172562
-0.00313008
0.00182578
-0.00256773
0.00189596
-0.00200668
0.00195177
-0.00148388
0.00199831
-0.00102704
0.00203025
-0.000649071
0.00204193
-0.000345025
0.00203004
-9.88177e-05
0.00199539
0.000109128
0.00194111
0.000293933
0.00187102
0.000467639
0.00179029
0.000641192
0.00170732
0.000824754
0.00163685
0.00102862
0.00162139
0.00127364
0.00170433
0.0015645
0.00190555
0.00194804
0.00214485
0.00208483
0.0021527
0.00146949
0.00162794
0.000888789
0.00462542
-0.000483503
0.0125321
-0.00105156
0.0060392
-0.000697643
0.00318259
-0.000637112
0.00274072
-0.00056905
0.0021812
-0.000464732
0.00162189
-0.000336118
0.00107981
-0.000185382
0.000525504
3.51651e-06
-0.000101974
0.000221375
-0.000842035
0.000460677
-0.00164587
0.000717852
-0.00252694
0.000974237
-0.00339031
0.0012025
-0.00410254
0.00140153
-0.00455205
0.0015626
-0.00470274
0.00168045
-0.00457591
0.00175986
-0.00422462
0.00181327
-0.00371841
0.00182376
-0.00314056
0.00179943
-0.00254339
0.00175912
-0.00196637
0.00171763
-0.00144239
0.00168233
-0.00099174
0.00165318
-0.000619915
0.0016263
-0.000318146
0.00159698
-6.94945e-05
0.0015631
0.000143005
0.00152502
0.000332008
0.00148419
0.000508471
0.00144385
0.000681537
0.00141024
0.000858365
0.00139412
0.00104473
0.00141815
0.00124961
0.00150795
0.0014747
0.00170724
0.00174875
0.00196482
0.00182724
0.00206274
0.00137158
0.00164649
0.00130505
0.00663839
0.00297613
0.0101431
0.00202064
0.0069947
0.000867875
0.00433535
0.000369597
0.003239
0.000212633
0.00233817
0.000268778
0.00156575
0.0004223
0.000926286
0.000635754
0.00031205
0.00089462
-0.00036084
0.0011589
-0.00110632
0.00143689
-0.00192386
0.00170346
-0.00279351
0.00192923
-0.00361609
0.00208999
-0.00426331
0.00217982
-0.00464189
0.0022014
-0.00472433
0.00216359
-0.0045381
0.00208009
-0.00414113
0.00196614
-0.00360445
0.0018273
-0.00300172
0.00167563
-0.00239172
0.00152786
-0.0018186
0.00139847
-0.00131301
0.00129554
-0.000888803
0.00122024
-0.000544616
0.00116785
-0.000265764
0.00113128
-3.29236e-05
0.00110544
0.000168847
0.00108706
0.00035039
0.00107412
0.000521413
0.00106687
0.000688784
0.00106836
0.000856869
0.00108486
0.00102823
0.00112858
0.00120589
0.00121401
0.00138927
0.00137069
0.00159207
0.00155669
0.00164125
0.00160948
0.00131878
0.000257101
0.00265748
0.00728097
0.00403043
0.00625295
0.00366618
0.00735894
0.00254076
0.00546077
0.00188762
0.00389214
0.00153103
0.00269475
0.00138607
0.00171071
0.00141962
0.000892742
0.00159358
0.00013809
0.00184504
-0.000612309
0.00212152
-0.0013828
0.00240062
-0.00220296
0.00264509
-0.00303797
0.00281331
-0.00378432
0.00287833
-0.00432834
0.00283689
-0.00460046
0.00270281
-0.00459026
0.00249845
-0.00433374
0.00224814
-0.00389082
0.00197468
-0.00333099
0.00169518
-0.00272223
0.00142675
-0.00212329
0.00118708
-0.00157893
0.00099069
-0.00111662
0.000843546
-0.00074166
0.000744495
-0.000445565
0.000684878
-0.000206147
0.000653991
-2.03712e-06
0.000643319
0.000179518
0.000646218
0.00034749
0.000658043
0.000509589
0.000676642
0.000670185
0.000701867
0.000831643
0.000735077
0.000995025
0.000779171
0.00116179
0.000831974
0.00133647
0.000860818
0.00156322
0.000577617
0.00192442
-0.000706395
0.0026027
-0.00200231
0.00395347
0.00538274
0.00240917
0.0040083
0.00330384
0.00646427
0.00324776
0.00551685
0.00303693
0.00410296
0.00284576
0.00288592
0.00272227
0.0018342
0.00270808
0.000906931
0.00279657
4.95913e-05
0.00295788
-0.000773616
0.00316783
-0.00159275
0.00338462
-0.00241975
0.00354827
-0.00320163
0.00360413
-0.00384019
0.0035256
-0.00424982
0.00331813
-0.004393
0.00300789
-0.00428003
0.00262937
-0.00395523
0.00221609
-0.00347755
0.00179771
-0.0029126
0.00139794
-0.00232246
0.00103823
-0.00176358
0.000737785
-0.00127848
0.000510159
-0.000888995
0.000353205
-0.000584706
0.000258269
-0.000350629
0.000209242
-0.00015712
0.000193015
1.41896e-05
0.000199466
0.000173067
0.000220656
0.0003263
0.000251721
0.000478523
0.000289252
0.000632653
0.000330321
0.000790573
0.000371927
0.000953419
0.000411254
0.00112247
0.000442043
0.00130568
0.000400685
0.00160457
0.000105518
0.00221939
-0.000262054
0.00296986
-0.000440302
0.00413151
0.00505777
0.00145679
0.00274575
0.0027482
0.00517286
0.00343243
0.00483263
0.00371846
0.00381693
0.00381675
0.00278762
0.00384453
0.00180642
0.00388017
0.000871285
0.00394882
-1.90605e-05
0.00405834
-0.000883135
0.00419778
-0.00173219
0.00431573
-0.0025377
0.00434161
-0.00322751
0.00422397
-0.00372257
0.0039507
-0.00397656
0.00354432
-0.00398663
0.00304476
-0.00378048
0.00249618
-0.00340666
0.00193753
-0.00291891
0.00140313
-0.0023782
0.000920068
-0.0018394
0.000514986
-0.00135849
0.000205441
-0.000968939
-4.19787e-06
-0.000679355
-0.000130883
-0.00045802
-0.000199041
-0.000282471
-0.000228995
-0.000127166
-0.000231932
1.71263e-05
-0.000214767
0.000155901
-0.000182352
0.000293885
-0.000138569
0.000434739
-8.77149e-05
0.000581799
-3.55424e-05
0.000738401
9.64174e-06
0.000908235
3.60423e-05
0.00109607
1.90205e-05
0.00132271
-0.000129191
0.00175275
-0.000466848
0.00255679
-0.00068745
0.00319002
-0.000632624
0.00407628
0.00455348
0.00217123
0.000800472
0.00294378
0.00440031
0.00359472
0.00418168
0.00416504
0.00324661
0.00449266
0.00246
0.00466667
0.0016324
0.0047831
0.00075486
0.00488733
-0.000123297
0.0049931
-0.000988896
0.00507037
-0.00180945
0.0050535
-0.00252082
0.00488244
-0.00305644
0.00453477
-0.00337489
0.00402943
-0.00347124
0.00341158
-0.00336879
0.00273239
-0.0031013
0.00204105
-0.00271532
0.00137612
-0.00225398
0.000777064
-0.00177915
0.000270999
-0.00133333
-0.000106293
-0.000981202
-0.000352529
-0.000722701
-0.000497108
-0.000534775
-0.000576848
-0.000378279
-0.000619699
-0.00023962
-0.000636805
-0.000110062
-0.000633022
1.33418e-05
-0.00061079
0.000133669
-0.000571959
0.000255053
-0.000519365
0.000382145
-0.000458064
0.000520498
-0.000396674
0.000677009
-0.000349951
0.000861512
-0.000345605
0.00109173
-0.00043851
0.00141566
-0.00070097
0.00201535
-0.00122575
0.00308166
-0.00209867
0.00406282
-0.00220585
0.00418325
0.00249053
-0.00157492
0.00262056
0.00112059
0.00170479
0.00335234
0.00194993
0.00435517
0.00224378
0.0048592
0.00195596
0.00517363
0.00131798
0.00540132
0.000527169
0.00557874
-0.000300713
0.00567744
-0.00108757
0.00563511
-0.0017671
0.00540075
-0.00228644
0.00496257
-0.00261825
0.00434835
-0.00276067
0.00361115
-0.00273404
0.00281165
-0.0025693
0.00200067
-0.00229033
0.00122795
-0.0019426
0.000525541
-0.00155157
-5.64228e-05
-0.00119719
-0.00047705
-0.0009127
-0.000737153
-0.000721093
-0.000885976
-0.000573871
-0.000972101
-0.000448644
-0.00102093
-0.000329447
-0.00104722
-0.000213331
-0.00105603
-0.000101254
-0.00104813
5.43571e-06
-0.00102258
0.000108114
-0.000978637
0.00021111
-0.000917648
0.000321155
-0.000844096
0.000446945
-0.000766882
0.000599793
-0.000701292
0.000795918
-0.000672864
0.0010633
-0.000720102
0.00146297
-0.000841276
0.00213682
-0.00101559
0.00325645
-0.00161523
0.00466286
-0.00189648
0.00446491
0.000750852
0.00288232
0.00457192
0.00487271
0.00164914
0.00535973
0.00175676
0.00559638
0.00171932
0.00582744
0.00108692
0.00601426
0.000340364
0.00608027
-0.000366689
0.00595386
-0.000961106
0.00560126
-0.00141444
0.00503469
-0.00171984
0.00430082
-0.00188437
0.00345777
-0.00191762
0.00256473
-0.001841
0.00167802
-0.0016826
0.000832267
-0.00144457
7.28772e-05
-0.00118321
-0.000537983
-0.000940714
-0.000959855
-0.000775312
-0.00121515
-0.000657396
-0.00136538
-0.000570839
-0.00145134
-0.000487895
-0.00150215
-0.000397821
-0.00153197
-0.000299628
-0.00154728
-0.000198031
-0.00154979
-9.876e-05
-0.00153853
-5.8433e-06
-0.0015109
8.04831e-05
-0.00146417
0.000164373
-0.00139735
0.00025434
-0.00131221
0.000361799
-0.00121341
0.000500992
-0.00110792
0.0006904
-0.00100172
0.000957068
-0.000887838
0.00134908
-0.000706043
0.0019552
-0.000317394
0.00286826
0.000236135
0.00410973
0.000727279
0.00397426
0.0016403
0.00793127
0.00536617
0.0058115
0.00387651
0.00556388
0.00196693
0.00563591
0.0010149
0.00560141
0.000374906
0.00535929
-0.00012451
0.00489697
-0.000498735
0.00425399
-0.00077144
0.00348351
-0.000949343
0.00263851
-0.00103937
0.00176025
-0.00103935
0.000887096
-0.000967846
5.69288e-05
-0.000852432
-0.000665965
-0.000721683
-0.00122054
-0.00062864
-0.0015968
-0.000564438
-0.00183703
-0.000535054
-0.00198027
-0.000514126
-0.00206818
-0.000482886
-0.00212461
-0.00043144
-0.00216189
-0.000360531
-0.00218562
-0.000275913
-0.00219836
-0.000185322
-0.0022009
-9.62711e-05
-0.00219252
-1.42557e-05
-0.00217076
5.87055e-05
-0.00213215
0.000125758
-0.00207294
0.000195145
-0.00198903
0.000277898
-0.00187479
0.000386745
-0.00172199
0.000537543
-0.00151687
0.000751819
-0.00122709
0.00105912
-0.000770753
0.00149875
-2.70481e-05
0.00212465
0.000981941
0.003101
0.00149608
0.00346045
0.00330731
0.00408983
0.00152289
0.00449166
0.00347467
0.0037249
0.0027337
0.00322821
0.00151163
0.00288887
0.000714297
0.00252632
0.000238089
0.0020803
-5.26971e-05
0.00153816
-0.000229306
0.000918496
-0.000329684
0.000238809
-0.000359696
-0.000461272
-0.00033928
-0.00111977
-0.000309367
-0.00168093
-0.000291281
-0.00210923
-0.000293392
-0.00241036
-0.000327488
-0.00260185
-0.000372905
-0.00272445
-0.000412398
-0.00280905
-0.000429442
-0.0028741
-0.000417778
-0.002927
-0.000378498
-0.00297004
-0.000317498
-0.00300327
-0.000242741
-0.00302615
-0.000162534
-0.00303837
-8.41574e-05
-0.00304058
-1.21339e-05
-0.00303273
5.08216e-05
-0.00301109
0.00010412
-0.00296975
0.000153865
-0.00289915
0.000207378
-0.00278483
0.00027248
-0.00260716
0.000359838
-0.00234047
0.000484979
-0.00194628
0.00066466
-0.00135656
0.000908664
-0.000454341
0.0012221
0.00091247
0.0017341
0.0016389
0.00273402
0.00512479
-0.00263455
-0.0068085
-0.00742868
-0.00747785
-0.00375568
-0.00215006
-0.00168247
0.00140148
-0.00076817
0.00181944
-0.000565391
0.00130889
-0.000640509
0.000789437
-0.00082263
0.000420218
-0.00106192
0.00018659
-0.00135272
6.14818e-05
-0.00169878
1.6355e-05
-0.00207684
1.83397e-05
-0.00245202
3.58589e-05
-0.0027981
3.66933e-05
-0.00308948
8.57324e-08
-0.00329812
-8.47311e-05
-0.00342779
-0.000197764
-0.00350904
-0.000291561
-0.00357229
-0.000349039
-0.00363302
-0.000368604
-0.00369583
-0.000354904
-0.00375986
-0.000314446
-0.00382274
-0.000254684
-0.00388177
-0.000183837
-0.0039338
-0.000110672
-0.00397435
-4.3784e-05
-0.0039957
9.07201e-06
-0.00399491
4.99533e-05
-0.0039753
8.4519e-05
-0.0039374
0.000116064
-0.003877
0.000147136
-0.00378417
0.000179833
-0.0036424
0.000218205
-0.0034267
0.000269323
-0.00309266
0.000330509
-0.00255243
0.000368153
-0.00175084
0.00042006
-0.000937185
0.000919954
-0.00037173
0.0021681
0.00494741
-0.00738074
0.0010259
-0.00814594
-0.00671259
-0.00719175
-0.0031042
-0.00566749
-0.00012272
-0.00457457
0.000726543
-0.00398309
0.000717431
-0.00372373
0.000530068
-0.00365633
0.000352783
-0.00369721
0.000227418
-0.0037905
0.000154712
-0.00389499
0.000120767
-0.00398327
0.000106561
-0.00404147
9.40043e-05
-0.00407327
6.84778e-05
-0.0040956
2.24327e-05
-0.00412463
-5.56345e-05
-0.00417254
-0.000149739
-0.00424177
-0.000222198
-0.00433055
-0.000260124
-0.0044323
-0.000266751
-0.00453763
-0.000249532
-0.00463667
-0.000215461
-0.00472119
-0.000170291
-0.00478604
-0.00011919
-0.00482914
-6.78123e-05
-0.00485053
-2.26293e-05
-0.0048508
9.14371e-06
-0.00482483
2.387e-05
-0.00477574
3.54112e-05
-0.00470582
4.62178e-05
-0.00461343
5.49132e-05
-0.00449141
5.8032e-05
-0.00432494
5.19784e-05
-0.00409143
3.60468e-05
-0.00376499
4.25779e-06
-0.00329547
-0.0001012
-0.00246867
-0.000406623
-0.000877125
-0.000671581
7.80524e-06
0.00128291
0.00516175
0.0015677
-0.00508024
-0.00812144
-0.00818499
-0.00740441
-0.00664076
-0.00607114
-0.00568353
-0.00542426
-0.00523928
-0.0050888
-0.00495231
-0.00482767
-0.00472766
-0.00467298
-0.00469608
-0.00481342
-0.00500365
-0.00523245
-0.00546858
-0.00568816
-0.00587419
-0.0060154
-0.00610569
-0.00614466
-0.00613845
-0.00610049
-0.00604793
-0.0059841
-0.00590994
-0.00582777
-0.00574335
-0.00566605
-0.00560589
-0.00557887
-0.00565884
-0.0060459
-0.0066996
-0.00540028
)
;

boundaryField
{
    floor
    {
        type            calculated;
        value           nonuniform List<scalar> 
36
(
0
0
0
0
0
0
0
0
0
0
0
0
0
0
0
0
0
0
0
-6.43895e-06
-1.68852e-05
-2.60354e-05
-3.43147e-05
-3.49347e-05
-2.86858e-05
-2.867e-05
-2.91998e-06
-5.44153e-06
-5.68778e-06
-5.90805e-06
-4.85361e-06
-8.93885e-06
-1.02127e-05
-1.2834e-05
-1.44574e-05
-1.5445e-05
)
;
    }
    ceiling
    {
        type            calculated;
        value           nonuniform List<scalar> 
43
(
-5.78803e-05
-6.45905e-05
-6.29409e-05
-5.91236e-05
-5.40067e-05
-4.62224e-05
-3.95845e-05
-3.48924e-05
-3.19471e-05
-3.03661e-05
-2.98038e-05
-2.99951e-05
-3.06787e-05
-3.15307e-05
-3.22028e-05
-3.24509e-05
-3.22836e-05
-3.18376e-05
-3.12233e-05
-3.05646e-05
-2.99749e-05
-2.9528e-05
-2.92458e-05
-2.91056e-05
-2.90563e-05
-2.90327e-05
-2.89635e-05
-2.87802e-05
-2.84271e-05
-2.7874e-05
-2.71154e-05
-2.61639e-05
-2.50421e-05
-2.37746e-05
-2.23816e-05
-2.08762e-05
-1.92887e-05
-1.77574e-05
-1.64951e-05
-1.63116e-05
1.93406e-05
1.51872e-05
-0.000246553
)
;
    }
    sWall
    {
        type            calculated;
        value           nonuniform List<scalar> 9(-0.000140237 -0.000164519 -0.000194244 -0.000225958 -0.000245163 -0.000281096 -0.000423721 -0.000453601 -0.000483897);
    }
    nWall
    {
        type            calculated;
        value           nonuniform List<scalar> 
14
(
-9.03321e-05
-9.76639e-05
-0.000102994
-0.000104004
-0.0001153
-0.000128363
-0.000142952
-0.000156459
-0.000161747
-0.00017072
-0.000178622
-0.000194501
-0.000206906
-0.000222595
)
;
    }
    sideWalls
    {
        type            empty;
        value           nonuniform 0();
    }
    glass1
    {
        type            calculated;
        value           nonuniform List<scalar> 9(-6.40348e-05 -0.000170322 -0.000257926 -0.000331211 -0.000393197 -0.000446404 -0.000492219 -0.000535501 -0.000587179);
    }
    glass2
    {
        type            calculated;
        value           nonuniform List<scalar> 2(-0.00036647 -0.000385413);
    }
    sun
    {
        type            calculated;
        value           uniform 0;
    }
    Table_master
    {
        type            calculated;
        value           nonuniform List<scalar> 9(-1.53995e-07 -1.54112e-07 -1.54144e-07 -1.54164e-07 -1.54177e-07 -1.54182e-07 -1.5418e-07 -1.54166e-07 -1.54113e-07);
    }
    Table_slave
    {
        type            calculated;
        value           nonuniform List<scalar> 9(1.53663e-07 1.5372e-07 1.53719e-07 1.53736e-07 1.53757e-07 1.53801e-07 1.53868e-07 1.53962e-07 1.54089e-07);
    }
    inlet
    {
        type            calculated;
        value           uniform -0.0116483;
    }
    outlet
    {
        type            calculated;
        value           nonuniform List<scalar> 2(0.00986682 0.012272);
    }
}


// ************************************************************************* //
