/*--------------------------------*- C++ -*----------------------------------*\
  =========                 |
  \\      /  F ield         | OpenFOAM: The Open Source CFD Toolbox
   \\    /   O peration     | Website:  https://openfoam.org
    \\  /    A nd           | Version:  6
     \\/     M anipulation  |
\*---------------------------------------------------------------------------*/
FoamFile
{
    version     2.0;
    format      ascii;
    class       volScalarField;
    location    "48200.0000008325078";
    object      alphat;
}
// * * * * * * * * * * * * * * * * * * * * * * * * * * * * * * * * * * * * * //

dimensions      [1 -1 -1 0 0 0 0];

internalField   nonuniform List<scalar> 
778
(
0.00104101
0.00111058
0.0011066
0.00115464
0.00119867
0.00123864
0.00127585
0.00131172
0.00134783
0.0013862
0.00142279
0.00145755
0.00149181
0.00152867
0.00156713
0.000736679
0.00105557
0.00106403
0.00103821
0.000995066
0.000937475
0.000880134
0.000827341
0.000779747
0.000737057
0.000699
0.000664811
0.000633663
0.000604591
0.0005763
0.000546721
0.000522162
0.000472624
0.00152469
0.00300742
0.00263938
0.00304649
0.00334197
0.0036552
0.00396761
0.00425546
0.0044871
0.00462189
0.00470115
0.00466852
0.00443583
0.00385926
0.00281876
0.001716
0.00163612
0.0015662
0.00131908
0.00224669
0.00311386
0.00362576
0.00364944
0.00288003
0.00246314
0.00217402
0.0019546
0.00178018
0.00163154
0.00150009
0.00137773
0.001258
0.00115055
0.00105789
0.00119172
0.000599299
0.00193417
0.004199
0.00311347
0.00445334
0.00497613
0.0054185
0.00582018
0.00617357
0.00647284
0.00670738
0.00693475
0.00717419
0.00739452
0.00752625
0.00744069
0.00681431
0.00498487
0.00192141
0.00166372
0.00355893
0.00496722
0.00563363
0.00512408
0.00135198
0.00117553
0.00103937
0.000932848
0.000848105
0.000779731
0.000723983
0.000678645
0.000643294
0.00070718
0.000831905
0.00131766
0.000681908
0.00232914
0.00565873
0.00297918
0.00500686
0.00578065
0.00619458
0.0064988
0.00672371
0.00689141
0.00702722
0.00722064
0.0075478
0.00802561
0.00862707
0.00923258
0.00953264
0.00895488
0.00668681
0.00191349
0.00442632
0.00658905
0.00768999
0.00796272
0.00679901
0.00153933
0.00140014
0.00129238
0.0012027
0.00112629
0.00105769
0.000993029
0.000928831
0.000859498
0.0008029
0.000832284
0.00142689
0.000750957
0.00271842
0.00749094
0.00300575
0.00475927
0.00594881
0.00630159
0.00642942
0.00643399
0.00636967
0.00631266
0.00639338
0.006711
0.00729439
0.00812127
0.00908104
0.00996619
0.0105282
0.0105226
0.00944354
0.00960802
0.00982956
0.00986211
0.00966279
0.00904526
0.00719908
0.00621879
0.00554718
0.00500202
0.00446678
0.00394805
0.00344049
0.00293373
0.0024134
0.00185379
0.0014145
0.00141341
0.00111832
0.000895761
0.00118745
0.00113763
0.00310138
0.00954122
0.00353873
0.00401312
0.00569932
0.00609064
0.0060589
0.00584031
0.00552808
0.00527059
0.00526461
0.00559732
0.00626187
0.00722042
0.00834277
0.00946517
0.0104196
0.0110299
0.0111415
0.0110303
0.0108357
0.0105592
0.0102033
0.00974988
0.00908773
0.00844953
0.00786995
0.00731007
0.00670501
0.00605865
0.00536831
0.00462837
0.00383425
0.00299177
0.00222885
0.00167343
0.00129985
0.00145929
0.00254274
0.00135984
0.00349217
0.0114364
0.00471573
0.00328772
0.00512071
0.00576085
0.00568927
0.00533578
0.00482337
0.00437293
0.00435994
0.00478018
0.00554092
0.0066128
0.00783214
0.00903978
0.010079
0.0108233
0.0111659
0.0111401
0.0108962
0.0105265
0.0101027
0.00967976
0.0092705
0.00889479
0.00854169
0.00816499
0.00770952
0.00716119
0.00651223
0.00575974
0.00490662
0.00397419
0.00306209
0.00221307
0.00163021
0.00145658
0.00259221
0.00160426
0.00382793
0.0128689
0.00642867
0.00313082
0.00405605
0.00510695
0.00525316
0.00496265
0.00435721
0.00374484
0.00388361
0.00443968
0.00529109
0.00639597
0.00766338
0.00892759
0.0100052
0.0107534
0.0110931
0.0110489
0.0107334
0.0102679
0.00976698
0.00932254
0.00897989
0.00873508
0.00854404
0.00833636
0.0080468
0.00764153
0.007105
0.0064342
0.0056354
0.00473158
0.00379031
0.00284038
0.00198251
0.0013414
0.00371543
0.00210337
0.00392907
0.0121727
0.00795127
0.00404818
0.00274938
0.00336869
0.00394328
0.00399188
0.00352453
0.00342515
0.00378081
0.00443515
0.00535694
0.00653019
0.0078597
0.00916302
0.010236
0.010925
0.011166
0.0109987
0.0105408
0.00994035
0.00934432
0.00886859
0.00856669
0.00841868
0.00835162
0.00827184
0.00810501
0.0078119
0.0073772
0.00679939
0.0060855
0.00525369
0.00433894
0.00331049
0.00190007
0.00173615
0.00571352
0.00241202
0.0038495
0.00980948
0.00820768
0.00555437
0.00366891
0.00284015
0.00268962
0.00281637
0.00305273
0.00342908
0.00396392
0.00470144
0.00570594
0.00697312
0.00837638
0.00969792
0.0107131
0.0112695
0.0113248
0.0109474
0.0102856
0.00952415
0.00884393
0.00837757
0.00816409
0.00813977
0.00818658
0.008186
0.00807759
0.00783982
0.0074657
0.00695476
0.00631044
0.00553777
0.00461564
0.00324716
0.00139094
0.00344779
0.00528174
0.00243713
0.00360569
0.00838259
0.00793332
0.00635347
0.00489084
0.00393741
0.00346543
0.00335828
0.00355308
0.00391253
0.00443632
0.00521676
0.00632879
0.00772056
0.00919611
0.0104881
0.0113594
0.0116782
0.0114439
0.0107728
0.0098642
0.00895411
0.0082611
0.00791318
0.00787419
0.00799006
0.0081059
0.00810839
0.00799358
0.00776326
0.00741343
0.00693819
0.00633
0.00556902
0.00457065
0.00296715
0.00146948
0.00374531
0.00540131
0.0024249
0.00328288
0.00755814
0.00765178
0.00672359
0.00572086
0.00496533
0.0045201
0.00436047
0.00439999
0.00461751
0.00510022
0.00597502
0.00726383
0.00880719
0.0103131
0.011471
0.0120582
0.0119967
0.0113562
0.0103234
0.00917381
0.00821133
0.00766457
0.00755706
0.00765783
0.00781222
0.00791134
0.00788262
0.00774854
0.00751586
0.00717717
0.0067108
0.00608652
0.00524245
0.00407631
0.00258423
0.00172915
0.0037686
0.00590584
0.00248305
0.00299344
0.00676214
0.00730676
0.00686843
0.00622508
0.00568421
0.00532423
0.00514803
0.00509606
0.00528347
0.00589901
0.00704536
0.00860728
0.0102773
0.0116801
0.012508
0.0126078
0.0119988
0.0108553
0.0094591
0.00819352
0.0073805
0.00702811
0.00699852
0.00711523
0.00725517
0.00733493
0.00730394
0.00716474
0.0069277
0.0065786
0.00607453
0.00532949
0.00424997
0.00294894
0.00203472
0.00211356
0.00412714
0.00584717
0.00262311
0.00300443
0.00671231
0.00746605
0.00695113
0.00643028
0.00600363
0.00569588
0.00549658
0.00549026
0.0059458
0.0070335
0.00865969
0.0104907
0.012097
0.0131046
0.0133015
0.0126773
0.0113852
0.0097496
0.00816302
0.00701183
0.00634472
0.00605255
0.006008
0.00609045
0.00619591
0.00625085
0.0062161
0.00605938
0.00579772
0.00540053
0.00478113
0.00382935
0.00268812
0.0019546
0.00197317
0.00270087
0.0046752
0.0061406
0.00262669
0.0027103
0.00282057
0.00416527
0.00489707
0.00512429
0.00512898
0.00508065
0.00517783
0.00581062
0.00716146
0.00906597
0.0111205
0.0128682
0.0139301
0.0140918
0.0133262
0.0118277
0.00988486
0.00803347
0.00658827
0.00563405
0.00510904
0.00489147
0.00484281
0.0048562
0.00485947
0.00481183
0.00469839
0.00449691
0.00420875
0.00382239
0.00327829
0.00257553
0.00199697
0.00192363
0.00240966
0.00334899
0.0046728
0.00562058
0.00247503
0.000963979
0.00173723
0.0026643
0.00340829
0.00427422
0.00574524
0.00791169
0.0103205
0.0125142
0.0141464
0.0149788
0.01486
0.0138071
0.0119471
0.00975418
0.00769251
0.00607289
0.0050104
0.00444916
0.00419581
0.00408131
0.00400719
0.00392122
0.00379855
0.00363664
0.00344998
0.00325838
0.00305759
0.00284877
0.00261293
0.00234746
0.00216349
0.00228874
0.00285041
0.00375297
0.00468396
0.005032
0.00235707
0.00178759
0.0024676
0.00358859
0.00559202
0.00831134
0.0110347
0.0131429
0.0146656
0.0155851
0.0158271
0.0152653
0.0137835
0.0116212
0.00920482
0.00701629
0.00541186
0.00450287
0.00409625
0.00393502
0.00386382
0.00381102
0.00374504
0.00365544
0.00354634
0.00343078
0.00332246
0.00322792
0.00314228
0.00306086
0.00298223
0.00291263
0.0028908
0.0030243
0.00346771
0.00428808
0.00535769
0.00630256
0.00243265
0.00323864
0.00787463
0.00726597
0.00649072
0.00822755
0.0109514
0.0132452
0.0147942
0.0156154
0.0158209
0.0154973
0.0145824
0.0130227
0.0108765
0.00847504
0.00636759
0.00500323
0.00436269
0.0041354
0.00407604
0.00406591
0.0040541
0.00402087
0.0039633
0.00388838
0.00380744
0.00373182
0.00367108
0.00363333
0.00362516
0.00364794
0.00370013
0.00378191
0.00392174
0.0041803
0.00464775
0.00546169
0.00695046
0.00717586
0.00265962
0.00309528
0.00597926
0.00771401
0.00987539
0.0109542
0.0120624
0.0127037
0.012855
0.0126084
0.0120237
0.0111127
0.00986175
0.00830671
0.00664948
0.00523913
0.00435144
0.0039338
0.00379503
0.00378871
0.00383331
0.00388427
0.00391768
0.00392401
0.00390405
0.00386434
0.00381333
0.00376068
0.00371974
0.00371023
0.00375734
0.003886
0.00411086
0.00441678
0.00476426
0.0051561
0.00570071
0.00649965
0.00781622
0.00771256
0.00276715
0.00289447
0.00248117
0.00246889
0.00254109
0.00260069
0.00252336
0.00237332
0.00219796
0.00202055
0.00184857
0.00168342
0.0015287
0.00139557
0.00129962
0.00124786
0.0012287
0.00122938
0.00123973
0.00125401
0.00126933
0.00128444
0.00129915
0.00131414
0.00133081
0.00135116
0.0013778
0.00141376
0.00146217
0.00152522
0.001603
0.00169305
0.00179151
0.00189553
0.0020058
0.00212138
0.00224107
0.00236609
0.00250117
0.00264377
0.00253703
)
;

boundaryField
{
    floor
    {
        type            compressible::alphatWallFunction;
        Prt             0.85;
        value           nonuniform List<scalar> 
36
(
0.000219857
0.000104461
0.000149963
0.000151146
0.000147531
0.000141469
0.000133328
0.000125164
0.000117592
0.000110717
0.000104507
9.89355e-05
9.38985e-05
8.92823e-05
8.49488e-05
8.07072e-05
7.6245e-05
7.25176e-05
6.4932e-05
6.49312e-05
8.41583e-05
9.64221e-05
0.000106534
0.000127398
0.000168312
0.000161412
0.000219855
0.00023967
0.00022906
0.000219727
0.00010446
0.000219725
0.000186347
0.000266703
0.000232725
0.000265668
)
;
    }
    ceiling
    {
        type            compressible::alphatWallFunction;
        Prt             0.85;
        value           nonuniform List<scalar> 
43
(
0.000391145
0.000338967
0.000337408
0.0003466
0.000354173
0.000344397
0.000325302
0.000302811
0.000279855
0.00025739
0.000235598
0.000214959
0.000197
0.000183927
0.000176822
0.000174178
0.000174265
0.000175689
0.000177656
0.000179764
0.000181841
0.000183859
0.000185908
0.000188175
0.00019093
0.00019452
0.000199351
0.000205836
0.000214264
0.000224639
0.000236617
0.000249667
0.00026339
0.000277847
0.000292934
0.000308453
0.00032455
0.000341821
0.0003599
0.000346228
0.000368323
0.000382185
0.000248643
)
;
    }
    sWall
    {
        type            compressible::alphatWallFunction;
        Prt             0.85;
        value           nonuniform List<scalar> 9(0.000507607 0.000477865 0.00043817 0.000402242 0.000403604 0.000366748 0.000432063 0.000414337 0.000389394);
    }
    nWall
    {
        type            compressible::alphatWallFunction;
        Prt             0.85;
        value           nonuniform List<scalar> 
14
(
0.000160964
0.000191445
0.000224348
0.000332877
0.000331395
0.00033914
0.000356711
0.000356816
0.000337445
0.000322449
0.000332652
0.000361035
0.000374516
0.000345533
)
;
    }
    sideWalls
    {
        type            empty;
    }
    glass1
    {
        type            compressible::alphatWallFunction;
        Prt             0.85;
        value           nonuniform List<scalar> 9(0.00014393 0.000209137 0.000262695 0.000313305 0.000362379 0.000410004 0.000458017 0.000498876 0.000511232);
    }
    glass2
    {
        type            compressible::alphatWallFunction;
        Prt             0.85;
        value           nonuniform List<scalar> 2(0.000287753 0.000327294);
    }
    sun
    {
        type            compressible::alphatWallFunction;
        Prt             0.85;
        value           nonuniform List<scalar> 
14
(
0.000147964
0.000157652
0.000157096
0.000163765
0.000169848
0.00017535
0.000180453
0.000185356
0.000190277
0.000195489
0.000200445
0.000205139
0.000209753
0.000214704
)
;
    }
    Table_master
    {
        type            compressible::alphatWallFunction;
        Prt             0.85;
        value           nonuniform List<scalar> 9(0.000191095 0.000166902 0.000147949 0.00013292 0.00012082 0.000110953 0.000102832 9.61708e-05 9.09396e-05);
    }
    Table_slave
    {
        type            compressible::alphatWallFunction;
        Prt             0.85;
        value           nonuniform List<scalar> 9(0.000216402 0.00019764 0.00018297 0.000170657 0.000160082 0.000150517 0.000141437 0.000132353 0.000122458);
    }
    inlet
    {
        type            fixedValue;
        value           uniform 1.94e-05;
    }
    outlet
    {
        type            zeroGradient;
    }
}


// ************************************************************************* //
