/*--------------------------------*- C++ -*----------------------------------*\
  =========                 |
  \\      /  F ield         | OpenFOAM: The Open Source CFD Toolbox
   \\    /   O peration     | Website:  https://openfoam.org
    \\  /    A nd           | Version:  6
     \\/     M anipulation  |
\*---------------------------------------------------------------------------*/
FoamFile
{
    version     2.0;
    format      ascii;
    class       volScalarField;
    location    "48200.0000008325078";
    object      epsilon;
}
// * * * * * * * * * * * * * * * * * * * * * * * * * * * * * * * * * * * * * //

dimensions      [0 2 -3 0 0 0 0];

internalField   nonuniform List<scalar> 
778
(
0.000253138
0.000306391
0.000303057
0.00034425
0.00038513
0.000424945
0.000464385
0.000504641
0.000547445
0.000595516
0.000643888
0.000692194
0.000742088
0.000798376
0.000860092
8.94044e-05
0.000262674
0.00026902
0.000249903
0.000220031
0.000184003
0.000152269
0.000126486
0.000105894
8.94403e-05
7.62928e-05
6.56397e-05
5.68419e-05
4.93742e-05
4.27647e-05
3.65145e-05
3.18143e-05
2.35988e-05
0.000797046
0.00144334
0.000287029
0.000259625
0.000261721
0.000267686
0.000276573
0.00028999
0.000310226
0.000340402
0.000379574
0.000430643
0.000498981
0.00060015
0.000785275
0.00112888
0.000978335
0.000858158
0.000512573
0.000369804
0.000294401
0.000242958
0.000204047
0.000186822
0.000154598
0.000124923
0.000100642
8.14531e-05
6.65027e-05
5.48068e-05
4.56209e-05
3.87001e-05
3.45127e-05
3.27576e-05
6.58273e-05
4.81057e-05
0.00163075
0.00407965
0.000407468
0.000242957
0.000229126
0.000231032
0.000238241
0.0002505
0.000268389
0.000292635
0.000324732
0.000366769
0.000421134
0.000494847
0.000601275
0.000724562
0.000829564
0.00158417
0.00102818
0.000512675
0.000367968
0.000294446
0.000262174
0.000551689
0.000362654
0.000250674
0.000181232
0.000136193
0.00010584
8.4724e-05
6.97841e-05
5.94384e-05
4.51228e-05
3.79775e-05
0.000108316
7.08624e-05
0.00285378
0.00877194
0.000710077
0.000240757
0.000202498
0.000200024
0.000203187
0.000209803
0.000220606
0.000237504
0.000263173
0.000299898
0.000349101
0.00041225
0.00048798
0.000560218
0.00061227
0.00082402
0.00156436
0.000729252
0.000459958
0.000358379
0.000301943
0.000291806
0.000814309
0.000612789
0.000481908
0.000388395
0.000318968
0.00026416
0.000218617
0.000178899
0.000141753
8.37831e-05
5.48818e-05
0.000148976
9.46391e-05
0.00454649
0.0158304
0.00134684
0.000258394
0.000175751
0.000166798
0.000165797
0.000167763
0.000173916
0.000187409
0.000211638
0.000248301
0.000297703
0.00035925
0.000427731
0.000489138
0.000528446
0.000582265
0.000627083
0.000483035
0.000393414
0.000330998
0.000282283
0.000248617
0.000247827
0.000226756
0.000202891
0.000180975
0.00016258
0.000146421
0.00013177
0.000118206
0.000105079
8.45027e-05
6.41923e-05
0.000105384
0.00013897
0.000160618
0.000374386
0.000329411
0.00676442
0.0248828
0.00255455
0.000318167
0.000155559
0.000137073
0.000132125
0.000130685
0.000134448
0.000148538
0.000176683
0.000218042
0.000270757
0.000334078
0.000401678
0.000462586
0.000502873
0.000521501
0.000504551
0.000438092
0.000373733
0.000315608
0.000264725
0.00022338
0.000193288
0.000169626
0.000150802
0.000135601
0.000123255
0.0001127
0.000103249
9.45046e-05
8.60897e-05
7.59287e-05
6.53361e-05
7.76416e-05
9.98745e-05
0.000212252
0.00108299
0.000562642
0.00967347
0.0336415
0.00458585
0.000465203
0.000150875
0.000116352
0.000107088
0.000103276
0.000107068
0.000127909
0.000166119
0.000215885
0.000273321
0.000340126
0.000409391
0.000470497
0.000510161
0.000520364
0.000494191
0.000437536
0.000371802
0.000307474
0.000250549
0.000204435
0.000169742
0.000144552
0.000126321
0.000112729
0.000102264
9.36839e-05
8.61884e-05
7.93225e-05
7.28023e-05
6.61522e-05
6.02911e-05
6.37349e-05
7.69356e-05
0.000177222
0.0016362
0.000923913
0.0127608
0.0404093
0.00749313
0.000871889
0.000194376
0.000115402
9.73879e-05
9.14473e-05
9.86367e-05
0.000137676
0.000189256
0.00024627
0.000307146
0.000374049
0.000445112
0.0005084
0.000547627
0.000551034
0.000515715
0.000451569
0.00037556
0.000301022
0.000236525
0.000185984
0.00014932
0.000123986
0.000106717
9.458e-05
8.57387e-05
7.87925e-05
7.28734e-05
6.75093e-05
6.24646e-05
5.76573e-05
5.38697e-05
5.56794e-05
7.11403e-05
0.000365206
0.00548714
0.00208762
0.0138284
0.0414559
0.0139372
0.00316659
0.000630892
0.000208214
0.000132722
0.000115986
0.000142417
0.000192828
0.000249197
0.000306431
0.000367583
0.000437169
0.000511838
0.000576492
0.000611448
0.000603429
0.000552272
0.000471071
0.000378644
0.000291081
0.000218388
0.000164103
0.000126827
0.000102647
8.73221e-05
7.73824e-05
7.0692e-05
6.56767e-05
6.14544e-05
5.75971e-05
5.39381e-05
5.05312e-05
4.81426e-05
5.2049e-05
0.000103887
0.00113137
0.0140711
0.00315194
0.0130042
0.0283643
0.014417
0.00572933
0.00210596
0.000835374
0.000413996
0.000276952
0.000278979
0.000314457
0.000355964
0.000401798
0.000459102
0.000531942
0.000611356
0.000675235
0.000699473
0.000670943
0.000593942
0.000486878
0.000372959
0.000271043
0.000191439
0.000135961
0.000100812
7.99787e-05
6.80521e-05
6.12677e-05
5.71714e-05
5.42031e-05
5.1621e-05
4.91244e-05
4.66521e-05
4.43894e-05
4.35021e-05
5.43227e-05
0.000253382
0.00388174
0.0104405
0.00325224
0.0106876
0.0193514
0.0120381
0.00630146
0.00317556
0.00167539
0.000987077
0.000679127
0.000559973
0.000517187
0.000510336
0.000531769
0.000584769
0.000664641
0.000749664
0.000806805
0.000808134
0.000744244
0.000628052
0.000486313
0.000348095
0.000234158
0.000152974
0.000102108
7.3773e-05
5.89651e-05
5.15083e-05
4.8059e-05
4.62482e-05
4.49143e-05
4.35899e-05
4.21304e-05
4.06121e-05
3.94646e-05
4.06374e-05
6.02368e-05
0.000396733
0.00347473
0.00859192
0.00320741
0.00806949
0.0137661
0.00969071
0.00593323
0.0035698
0.00222756
0.00149083
0.00109302
0.000869187
0.000743434
0.000686021
0.00069103
0.000752695
0.000847927
0.00093538
0.000970339
0.000926411
0.000805204
0.000634723
0.000452581
0.000293856
0.000178163
0.00010744
6.97374e-05
5.26739e-05
4.45294e-05
4.07103e-05
3.92928e-05
3.86972e-05
3.82402e-05
3.76614e-05
3.69456e-05
3.64114e-05
3.70267e-05
4.20455e-05
6.99866e-05
0.000334851
0.00253732
0.00749493
0.00345825
0.00612215
0.0101677
0.00779068
0.00531234
0.00357013
0.00246918
0.00178808
0.00136829
0.00109297
0.000926155
0.000859941
0.000888801
0.000986677
0.00110216
0.00117309
0.00115119
0.00102582
0.000820551
0.000586125
0.0003694
0.000209234
0.000115046
7.22294e-05
5.22495e-05
4.28411e-05
3.81804e-05
3.5925e-05
3.50825e-05
3.47669e-05
3.45481e-05
3.43376e-05
3.43975e-05
3.56501e-05
4.05302e-05
5.61892e-05
0.000110365
0.00038158
0.00218244
0.00568841
0.00406517
0.00618625
0.00781268
0.0068051
0.00473963
0.00336568
0.00246252
0.00186598
0.00146245
0.00119467
0.00106505
0.00107222
0.00118455
0.00133554
0.0014432
0.0014404
0.00129854
0.00104747
0.000740155
0.00045713
0.000238727
0.000131109
8.13401e-05
5.92587e-05
4.85206e-05
4.26824e-05
3.92417e-05
3.71992e-05
3.60741e-05
3.55326e-05
3.52457e-05
3.53829e-05
3.6962e-05
4.3103e-05
6.24843e-05
0.000117337
0.000258297
0.000643937
0.00220473
0.00524394
0.00406552
0.00454803
0.00511637
0.00418617
0.00336216
0.00263979
0.00207001
0.00164881
0.00136154
0.00124468
0.00130164
0.00148228
0.00169396
0.00183179
0.00181961
0.00163381
0.00129531
0.000903433
0.00051836
0.000277665
0.000153742
0.000100001
7.66356e-05
6.50457e-05
5.80704e-05
5.33375e-05
5.00012e-05
4.76476e-05
4.59937e-05
4.50786e-05
4.49036e-05
4.58792e-05
5.0378e-05
6.55752e-05
0.000110786
0.000231031
0.000516114
0.00115319
0.00255468
0.00509824
0.00339717
0.00139906
0.00142892
0.0014304
0.00135096
0.00130862
0.00142061
0.0017066
0.00204576
0.00231317
0.00241329
0.00229457
0.00197419
0.00152012
0.000972591
0.000561709
0.00030805
0.000183514
0.000130652
0.000108513
9.72837e-05
9.00687e-05
8.48304e-05
8.10644e-05
7.86016e-05
7.7222e-05
7.65619e-05
7.62252e-05
7.72726e-05
8.01479e-05
8.76492e-05
0.000108617
0.000166036
0.000313166
0.000659951
0.00141338
0.002853
0.00485341
0.00293736
0.00118833
0.00171145
0.00194783
0.00230284
0.00274987
0.00315629
0.00334018
0.00331076
0.0030899
0.00269737
0.00212473
0.00150078
0.000963789
0.00056289
0.00033218
0.00022411
0.000180788
0.000163142
0.000154184
0.000148323
0.000144238
0.000141918
0.000141682
0.000143765
0.000148057
0.000153939
0.000160225
0.00016531
0.000170966
0.000181406
0.000203252
0.000256032
0.000382539
0.000673597
0.00130766
0.00261594
0.00537475
0.0032515
0.00742158
0.00812478
0.00482136
0.00339905
0.0037256
0.00413313
0.00414345
0.00393282
0.00358019
0.00312942
0.0026243
0.00207731
0.00152175
0.00102909
0.000664387
0.000447327
0.000346756
0.000307879
0.00029351
0.000286787
0.000281797
0.000277005
0.000272727
0.000270078
0.0002704
0.000274911
0.000284534
0.000299786
0.000320532
0.000345411
0.000371099
0.00039673
0.00043929
0.000514565
0.000651453
0.00092115
0.00150147
0.00309523
0.00476463
0.00422495
0.00650266
0.00514349
0.0043559
0.00461153
0.00453021
0.00426297
0.0036831
0.00303741
0.00245274
0.00196133
0.00155947
0.00123411
0.000971848
0.000770673
0.000630082
0.000547267
0.000506498
0.000490583
0.00048783
0.000491357
0.000497239
0.000503619
0.000510307
0.000518484
0.000530411
0.000549173
0.000578475
0.000622484
0.00068555
0.000771518
0.000882184
0.00101455
0.00115665
0.00132198
0.00155348
0.00192195
0.00256021
0.00402064
0.00534841
0.00475461
0.00535601
0.00337344
0.00332538
0.00362886
0.00389611
0.00357093
0.00298065
0.00237353
0.00184735
0.00141663
0.00107099
0.000802576
0.000610787
0.00049322
0.000436497
0.000416602
0.000417228
0.000427852
0.000442843
0.000459334
0.000475994
0.000492589
0.000509851
0.000529437
0.000553935
0.000587017
0.00063369
0.000700374
0.000794274
0.000921707
0.00108612
0.00128772
0.00152671
0.00181047
0.00214425
0.00253043
0.00298002
0.00352173
0.0041588
0.00366993
)
;

boundaryField
{
    floor
    {
        Cmu             0.09;
        kappa           0.41;
        E               9.8;
        type            epsilonWallFunction;
        value           nonuniform List<scalar> 
36
(
0.000860092
8.94044e-05
0.000262674
0.00026902
0.000249903
0.000220031
0.000184003
0.000152269
0.000126486
0.000105894
8.94403e-05
7.62928e-05
6.56397e-05
5.68419e-05
4.93742e-05
4.27647e-05
3.65145e-05
3.18143e-05
2.35988e-05
2.35988e-05
4.81057e-05
7.08624e-05
9.46391e-05
0.000160618
0.000374386
0.000329411
0.000860092
0.00112888
0.000978335
0.000858158
8.94044e-05
0.000858158
0.000512573
0.00158417
0.00102818
0.00156436
)
;
    }
    ceiling
    {
        Cmu             0.09;
        kappa           0.41;
        E               9.8;
        type            epsilonWallFunction;
        value           nonuniform List<scalar> 
43
(
0.00535601
0.00337344
0.00332538
0.00362886
0.00389611
0.00357093
0.00298065
0.00237353
0.00184735
0.00141663
0.00107099
0.000802576
0.000610787
0.00049322
0.000436497
0.000416602
0.000417228
0.000427852
0.000442843
0.000459334
0.000475994
0.000492589
0.000509851
0.000529437
0.000553935
0.000587017
0.00063369
0.000700374
0.000794274
0.000921707
0.00108612
0.00128772
0.00152671
0.00181047
0.00214425
0.00253043
0.00298002
0.00352173
0.0041588
0.00366993
0.00454803
0.00511637
0.00118833
)
;
    }
    sWall
    {
        Cmu             0.09;
        kappa           0.41;
        E               9.8;
        type            epsilonWallFunction;
        value           nonuniform List<scalar> 9(0.0130042 0.0106876 0.00806949 0.00612215 0.00618625 0.00454803 0.00742158 0.00650266 0.00535601);
    }
    nWall
    {
        Cmu             0.09;
        kappa           0.41;
        E               9.8;
        type            epsilonWallFunction;
        value           nonuniform List<scalar> 
14
(
0.000329411
0.000562642
0.000923913
0.00325224
0.00320741
0.00345825
0.00406517
0.00406552
0.00339717
0.00293736
0.0032515
0.00422495
0.00475461
0.00366993
)
;
    }
    sideWalls
    {
        type            empty;
    }
    glass1
    {
        Cmu             0.09;
        kappa           0.41;
        E               9.8;
        type            epsilonWallFunction;
        value           nonuniform List<scalar> 9(0.000253138 0.000797046 0.00163075 0.00285378 0.00454649 0.00676442 0.00967347 0.0127608 0.0138284);
    }
    glass2
    {
        Cmu             0.09;
        kappa           0.41;
        E               9.8;
        type            epsilonWallFunction;
        value           nonuniform List<scalar> 2(0.00208762 0.00315194);
    }
    sun
    {
        Cmu             0.09;
        kappa           0.41;
        E               9.8;
        type            epsilonWallFunction;
        value           nonuniform List<scalar> 
14
(
0.000253138
0.000306391
0.000303057
0.00034425
0.00038513
0.000424945
0.000464385
0.000504641
0.000547445
0.000595516
0.000643888
0.000692194
0.000742088
0.000798376
)
;
    }
    Table_master
    {
        Cmu             0.09;
        kappa           0.41;
        E               9.8;
        type            epsilonWallFunction;
        value           nonuniform List<scalar> 9(0.000551689 0.000362654 0.000250674 0.000181232 0.000136193 0.00010584 8.4724e-05 6.97841e-05 5.94384e-05);
    }
    Table_slave
    {
        Cmu             0.09;
        kappa           0.41;
        E               9.8;
        type            epsilonWallFunction;
        value           nonuniform List<scalar> 9(0.000814309 0.000612789 0.000481908 0.000388395 0.000318968 0.00026416 0.000218617 0.000178899 0.000141753);
    }
    inlet
    {
        type            turbulentMixingLengthDissipationRateInlet;
        mixingLength    0.01;
        phi             phi;
        k               k;
        value           uniform 0.000471671;
    }
    outlet
    {
        type            zeroGradient;
    }
}


// ************************************************************************* //
