/*--------------------------------*- C++ -*----------------------------------*\
  =========                 |
  \\      /  F ield         | OpenFOAM: The Open Source CFD Toolbox
   \\    /   O peration     | Website:  https://openfoam.org
    \\  /    A nd           | Version:  6
     \\/     M anipulation  |
\*---------------------------------------------------------------------------*/
FoamFile
{
    version     2.0;
    format      ascii;
    class       volScalarField;
    location    "48200.0000008325078";
    object      T;
}
// * * * * * * * * * * * * * * * * * * * * * * * * * * * * * * * * * * * * * //

dimensions      [0 0 0 1 0 0 0];

internalField   nonuniform List<scalar> 
778
(
302.565
302.246
302.23
302.225
302.22
302.216
302.212
302.207
302.202
302.198
302.191
302.184
302.175
302.164
302.154
302.223
302.094
302.086
302.085
302.087
302.091
302.095
302.1
302.105
302.11
302.115
302.12
302.125
302.13
302.135
302.142
302.15
302.182
302.778
302.277
302.245
302.244
302.245
302.245
302.245
302.243
302.239
302.234
302.226
302.212
302.192
302.166
302.138
302.119
302.105
302.101
302.082
302.063
302.056
302.053
302.052
302.054
302.056
302.057
302.059
302.061
302.063
302.065
302.068
302.072
302.079
302.09
302.106
302.158
302.994
302.324
302.272
302.278
302.289
302.299
302.307
302.313
302.315
302.313
302.304
302.285
302.254
302.213
302.167
302.127
302.095
302.075
302.048
302.041
302.039
302.039
302.04
302.041
302.042
302.044
302.045
302.046
302.047
302.048
302.05
302.052
302.057
302.067
302.084
302.145
303.204
302.385
302.303
302.315
302.336
302.358
302.378
302.395
302.407
302.411
302.403
302.379
302.335
302.274
302.207
302.146
302.097
302.063
302.047
302.036
302.032
302.032
302.033
302.034
302.035
302.035
302.036
302.036
302.036
302.037
302.037
302.037
302.037
302.043
302.053
302.071
302.137
303.405
302.459
302.335
302.348
302.38
302.414
302.448
302.479
302.504
302.517
302.513
302.485
302.426
302.341
302.248
302.164
302.099
302.057
302.036
302.028
302.027
302.029
302.031
302.034
302.036
302.037
302.038
302.039
302.039
302.039
302.039
302.038
302.038
302.039
302.045
302.061
302.114
302.125
302.138
302.234
303.594
302.544
302.372
302.377
302.415
302.458
302.503
302.547
302.587
302.613
302.617
302.587
302.512
302.4
302.279
302.173
302.095
302.05
302.028
302.021
302.023
302.027
302.032
302.037
302.04
302.042
302.043
302.043
302.043
302.043
302.042
302.041
302.04
302.039
302.042
302.052
302.085
302.098
302.113
302.246
303.757
302.639
302.42
302.401
302.439
302.485
302.535
302.585
302.635
302.675
302.692
302.664
302.575
302.435
302.291
302.17
302.086
302.037
302.017
302.014
302.02
302.028
302.036
302.042
302.046
302.048
302.049
302.049
302.048
302.047
302.045
302.044
302.042
302.04
302.04
302.047
302.067
302.079
302.096
302.228
303.91
302.783
302.516
302.436
302.457
302.499
302.544
302.592
302.642
302.701
302.731
302.7
302.596
302.443
302.284
302.152
302.064
302.017
302.003
302.007
302.019
302.033
302.044
302.051
302.055
302.057
302.056
302.055
302.053
302.051
302.049
302.046
302.043
302.041
302.04
302.043
302.055
302.068
302.108
302.403
304.118
303.233
302.844
302.589
302.504
302.516
302.552
302.593
302.65
302.719
302.754
302.712
302.588
302.416
302.244
302.11
302.027
301.991
301.988
302.003
302.024
302.042
302.055
302.063
302.066
302.066
302.064
302.061
302.058
302.055
302.051
302.048
302.045
302.042
302.04
302.042
302.05
302.079
302.162
302.555
304.103
303.536
303.163
302.863
302.687
302.618
302.609
302.633
302.703
302.773
302.786
302.707
302.545
302.348
302.17
302.043
301.978
301.962
301.977
302.006
302.035
302.058
302.071
302.076
302.076
302.074
302.07
302.065
302.061
302.057
302.053
302.049
302.045
302.042
302.041
302.042
302.061
302.239
302.37
302.563
304.107
303.67
303.356
303.096
302.915
302.816
302.778
302.787
302.836
302.865
302.815
302.666
302.45
302.231
302.059
301.958
301.925
301.939
301.977
302.021
302.056
302.079
302.088
302.089
302.085
302.079
302.073
302.067
302.062
302.057
302.053
302.049
302.045
302.043
302.041
302.044
302.078
302.266
302.417
302.579
304.139
303.758
303.494
303.282
303.128
303.033
302.991
302.99
302.994
302.939
302.781
302.538
302.274
302.055
301.918
301.867
301.882
301.933
301.996
302.051
302.087
302.104
302.105
302.098
302.089
302.081
302.074
302.067
302.062
302.057
302.053
302.049
302.046
302.044
302.044
302.051
302.089
302.244
302.393
302.571
304.204
303.876
303.633
303.45
303.318
303.233
303.186
303.158
303.071
302.874
302.58
302.259
301.992
301.828
301.77
301.795
301.869
301.959
302.04
302.096
302.123
302.127
302.118
302.106
302.094
302.084
302.075
302.068
302.063
302.058
302.054
302.05
302.048
302.048
302.054
302.075
302.127
302.247
302.372
302.535
304.139
303.889
303.681
303.539
303.424
303.333
303.256
303.126
302.852
302.472
302.085
301.788
301.628
301.598
301.663
301.781
301.911
302.027
302.108
302.15
302.157
302.148
302.132
302.117
302.103
302.091
302.081
302.074
302.068
302.063
302.059
302.057
302.057
302.063
302.087
302.136
302.206
302.299
302.398
302.549
304.28
304.088
303.618
303.296
303.093
302.927
302.736
302.367
301.896
301.5
301.271
301.219
301.306
301.473
301.669
301.863
302.019
302.132
302.184
302.197
302.189
302.173
302.155
302.138
302.122
302.109
302.099
302.091
302.085
302.081
302.078
302.077
302.081
302.097
302.141
302.217
302.313
302.411
302.489
302.598
294.642
296.44
298.133
299.036
299.384
299.576
299.828
300.157
300.529
300.908
301.268
301.582
301.839
302.047
302.169
302.229
302.248
302.244
302.231
302.213
302.195
302.179
302.164
302.152
302.144
302.137
302.132
302.129
302.127
302.126
302.13
302.145
302.187
302.264
302.369
302.476
302.558
302.64
294.923
295.744
296.638
297.501
298.278
299.004
299.687
300.3
300.823
301.262
301.637
301.915
302.103
302.224
302.286
302.309
302.31
302.301
302.288
302.272
302.258
302.245
302.235
302.229
302.227
302.228
302.228
302.226
302.223
302.218
302.214
302.215
302.235
302.284
302.364
302.456
302.53
302.608
299.772
298.697
297.32
296.754
297.506
298.51
299.412
300.145
300.718
301.158
301.516
301.806
302.033
302.194
302.297
302.353
302.376
302.38
302.375
302.366
302.354
302.342
302.331
302.325
302.322
302.324
302.33
302.339
302.347
302.353
302.352
302.344
302.333
302.322
302.319
302.332
302.371
302.435
302.492
302.567
300.128
299.998
299.411
298.886
299.284
300.001
300.659
301.177
301.562
301.844
302.051
302.203
302.311
302.381
302.421
302.44
302.445
302.443
302.435
302.426
302.416
302.408
302.403
302.401
302.405
302.413
302.425
302.439
302.455
302.469
302.478
302.478
302.468
302.452
302.437
302.43
302.435
302.456
302.49
302.566
300.845
300.839
300.892
300.977
301.128
301.467
301.786
302.029
302.2
302.317
302.397
302.452
302.487
302.507
302.518
302.521
302.52
302.515
302.509
302.502
302.496
302.493
302.492
302.496
302.503
302.514
302.528
302.544
302.56
302.573
302.581
302.583
302.578
302.569
302.558
302.552
302.552
302.559
302.568
302.605
)
;

boundaryField
{
    floor
    {
        type            wallHeatTransfer;
        Tinf            uniform 305.2;
        alphaWall       uniform 0.36;
        value           nonuniform List<scalar> 
36
(
302.544
302.868
302.622
302.613
302.621
302.639
302.665
302.693
302.722
302.751
302.779
302.806
302.832
302.858
302.884
302.91
302.94
302.968
303.04
303.04
302.909
302.841
302.792
302.711
302.617
302.713
302.544
302.487
302.488
302.498
302.868
302.498
302.535
302.418
302.434
302.394
)
;
    }
    ceiling
    {
        type            wallHeatTransfer;
        Tinf            uniform 303.2;
        alphaWall       uniform 0.36;
        value           nonuniform List<scalar> 
43
(
301.032
301.051
301.101
301.173
301.307
301.621
301.918
302.144
302.305
302.417
302.495
302.549
302.586
302.609
302.621
302.625
302.624
302.619
302.613
302.606
302.6
302.596
302.595
302.597
302.602
302.61
302.621
302.633
302.644
302.652
302.656
302.654
302.647
302.636
302.624
302.615
302.613
302.616
302.622
302.657
304.19
304.016
295.883
)
;
    }
    sWall
    {
        type            wallHeatTransfer;
        Tinf            uniform 315.2;
        alphaWall       uniform 0.54;
        value           nonuniform List<scalar> 9(305.123 305.181 305.292 305.436 305.375 305.601 301.4 301.776 302.498);
    }
    nWall
    {
        type            wallHeatTransfer;
        Tinf            uniform 308.2;
        alphaWall       uniform 0.54;
        value           nonuniform List<scalar> 
14
(
303.573
303.432
303.289
303.301
303.317
303.296
303.236
303.248
303.323
303.387
303.34
303.257
303.236
303.315
)
;
    }
    sideWalls
    {
        type            empty;
    }
    glass1
    {
        type            wallHeatTransfer;
        Tinf            uniform 315.2;
        alphaWall       uniform 4.3;
        value           nonuniform List<scalar> 9(311.625 310.812 310.3 309.912 309.605 309.359 309.142 308.996 309.046);
    }
    glass2
    {
        type            wallHeatTransfer;
        Tinf            uniform 308.2;
        alphaWall       uniform 4.3;
        value           nonuniform List<scalar> 2(305.756 305.655);
    }
    sun
    {
        type            wallHeatTransfer;
        Tinf            uniform 305.2;
        alphaWall       uniform 0.36;
        value           nonuniform List<scalar> 
14
(
303.018
302.731
302.719
302.7
302.684
302.669
302.656
302.643
302.631
302.618
302.605
302.591
302.576
302.56
)
;
    }
    Table_master
    {
        type            zeroGradient;
    }
    Table_slave
    {
        type            zeroGradient;
    }
    inlet
    {
        type            fixedValue;
        value           uniform 293.15;
    }
    outlet
    {
        type            zeroGradient;
    }
}


// ************************************************************************* //
