/*--------------------------------*- C++ -*----------------------------------*\
  =========                 |
  \\      /  F ield         | OpenFOAM: The Open Source CFD Toolbox
   \\    /   O peration     | Website:  https://openfoam.org
    \\  /    A nd           | Version:  6
     \\/     M anipulation  |
\*---------------------------------------------------------------------------*/
FoamFile
{
    version     2.0;
    format      ascii;
    class       volScalarField;
    location    "100";
    object      alphat;
}
// * * * * * * * * * * * * * * * * * * * * * * * * * * * * * * * * * * * * * //

dimensions      [1 -1 -1 0 0 0 0];

internalField   nonuniform List<scalar> 
459
(
0.000805065
0.000836649
0.000823612
0.000850145
0.000872297
0.000890382
0.000905272
0.000917849
0.000928979
0.000939648
0.000947884
0.000952312
0.000952535
0.000949596
0.000943611
0.000684016
0.000656669
0.000638881
0.00063091
0.000625749
0.000616016
0.000597313
0.000577833
0.000558912
0.000540637
0.00052317
0.000506568
0.00049076
0.00047552
0.000460392
0.000444687
0.000427214
0.000413259
0.000379111
0.00123324
0.00183912
0.00149686
0.00171593
0.00180968
0.00191498
0.00202322
0.00212454
0.00220519
0.00224735
0.0022577
0.00221485
0.00208613
0.00182623
0.00140074
0.000962235
0.000895896
0.000798746
0.00148916
0.00204524
0.00239084
0.00253097
0.00243254
0.00198429
0.00173908
0.00155632
0.00141486
0.00130095
0.00120631
0.00112358
0.00104402
0.000958731
0.000876378
0.000804447
0.00092145
0.000467602
0.00162539
0.00276164
0.00161922
0.0023779
0.00251344
0.00261451
0.00269474
0.00275689
0.00280321
0.00283036
0.00283448
0.00279248
0.00267584
0.00245122
0.00209369
0.00162188
0.00104192
0.000908422
0.00249278
0.00320262
0.00341142
0.00339881
0.00286195
0.000742577
0.000660504
0.000601267
0.000557032
0.000522617
0.000494744
0.000471606
0.000452696
0.000439385
0.000517746
0.000641391
0.00106487
0.000534269
0.00202994
0.00418474
0.00157
0.00272139
0.00294859
0.00303117
0.0030769
0.00310366
0.00312151
0.00313293
0.00313523
0.0031118
0.00304458
0.00290764
0.00266133
0.00224663
0.00162684
0.00105061
0.0026002
0.00288374
0.00327735
0.00349576
0.00348141
0.00292884
0.000717928
0.000686779
0.000679732
0.000678905
0.000675622
0.00066396
0.000642372
0.000618437
0.000587733
0.000590732
0.000655362
0.00123619
0.0005908
0.00244156
0.00609473
0.00183603
0.00269662
0.00318223
0.00327392
0.00330591
0.00331574
0.00331761
0.00331944
0.00331745
0.00331194
0.0032928
0.00323977
0.00313257
0.0029661
0.00276394
0.00252653
0.00235583
0.0024861
0.00292003
0.0031716
0.00330324
0.00325962
0.00291055
0.00294234
0.00301281
0.0030581
0.0030539
0.00298263
0.00279723
0.00244778
0.0020036
0.00154218
0.00118598
0.00122686
0.000805674
0.000721411
0.000865739
0.000971789
0.0028569
0.00815792
0.0029559
0.00234281
0.00317768
0.00338824
0.00345912
0.00347901
0.0034603
0.00342794
0.00339071
0.00338917
0.00339468
0.00337517
0.00329484
0.00311545
0.00280934
0.00240107
0.00203219
0.00205951
0.00257867
0.00283837
0.00301316
0.00316295
0.00329083
0.00344779
0.00358009
0.00366298
0.00368928
0.00365796
0.00357021
0.00333925
0.00294614
0.00241806
0.00189418
0.00144302
0.00111017
0.00095121
0.00135623
0.00101926
0.00329346
0.0098781
0.00561635
0.00260129
0.00237199
0.00287108
0.00328011
0.00352889
0.0036332
0.00350084
0.00339518
0.00339013
0.00340517
0.00340692
0.00335807
0.00320839
0.00290229
0.00243147
0.00191682
0.00176542
0.00234693
0.00260608
0.00277859
0.00295642
0.00314658
0.00333197
0.00348608
0.0035936
0.00364929
0.00366336
0.00365156
0.00361733
0.00336389
0.00291674
0.00242923
0.00195857
0.00160383
0.00152039
0.00157922
0.00118352
0.0034267
0.0104585
0.00791512
0.00542133
0.00355461
0.00274223
0.00275633
0.00311235
0.00348067
0.0034393
0.00336783
0.00334101
0.00334084
0.00333887
0.00330146
0.00318584
0.00293695
0.00250209
0.00190324
0.00155221
0.0021692
0.00244079
0.00260437
0.00276671
0.00293336
0.00308751
0.00321438
0.00331045
0.00338076
0.00344261
0.00351889
0.00362738
0.0036905
0.00338117
0.00309445
0.00297657
0.00317421
0.00376534
0.00461306
0.00181309
0.00337863
0.00416829
0.00454866
0.0045783
0.00418974
0.00367913
0.00329931
0.00311863
0.00309291
0.00310418
0.00313334
0.00316748
0.00319243
0.00319199
0.00314697
0.00303275
0.00281464
0.00243854
0.00189017
0.0013794
0.00197191
0.00226545
0.00241953
0.0025522
0.00267671
0.00278214
0.00285969
0.00290651
0.00292408
0.00291632
0.00288719
0.00284057
0.00278775
0.00274613
0.00273918
0.00276089
0.00273964
0.00261153
0.00242389
0.00167733
0.00182351
0.0029274
0.00346125
0.0035313
0.00342506
0.00330492
0.00321902
0.00315927
0.00312434
0.00309603
0.00305719
0.00299346
0.00289279
0.00274285
0.00252445
0.00219063
0.00170537
0.00118119
0.00166417
0.00197079
0.00211924
0.00223096
0.00233114
0.00241686
0.00248517
0.0025362
0.00257266
0.00259959
0.0026245
0.00265696
0.00270231
0.00274453
0.00277591
0.00276682
0.00266971
0.00247256
0.00219038
0.00135976
0.00232114
0.00382027
0.00406306
0.00396041
0.00380452
0.0036306
0.00347226
0.00333383
0.00316861
0.00298147
0.00278498
0.00258503
0.00238255
0.00217384
0.0019483
0.00167479
0.00132236
0.000897577
0.00111314
0.00131718
0.00144834
0.0015623
0.00167649
0.00179415
0.00191702
0.00204618
0.00218085
0.0023168
0.00244411
0.00257455
0.00270942
0.00283889
0.00294423
0.0030111
0.00298126
0.00297477
0.00278855
0.00137832
0.00240729
0.00245495
0.00250562
0.00277482
0.00265752
0.00236161
0.00219859
0.0020581
0.00193315
0.00181826
0.00171572
0.00162088
0.00152871
0.00143587
0.00133982
0.00123842
0.00112947
0.00100987
0.000872309
0.000616169
0.000551736
0.000581971
0.000616023
0.00065143
0.000688527
0.000727594
0.000769006
0.000813317
0.000861399
0.000914754
0.000976165
0.00104517
0.00112075
0.0012031
0.00129175
0.00140396
0.00143292
0.00139509
0.00130338
0.0012037
)
;

boundaryField
{
    floor
    {
        type            compressible::alphatWallFunction;
        Prt             0.85;
        value           nonuniform List<scalar> 
29
(
0.000134329
9.68547e-05
9.28157e-05
9.01784e-05
8.89934e-05
8.8225e-05
8.67742e-05
8.39783e-05
8.10547e-05
7.82032e-05
7.54376e-05
7.27831e-05
7.02495e-05
6.78274e-05
6.54828e-05
6.31459e-05
6.07093e-05
5.79853e-05
5.57984e-05
5.04101e-05
5.04094e-05
6.42489e-05
7.44531e-05
8.29822e-05
0.000134327
9.68536e-05
0.000113597
0.000129334
0.000149401
)
;
    }
    ceiling
    {
        type            compressible::alphatWallFunction;
        Prt             0.85;
        value           nonuniform List<scalar> 
43
(
0.000329683
0.000335762
0.000342212
0.0003763
0.000361526
0.000323911
0.000302972
0.000284791
0.000268508
0.000253433
0.000239892
0.000227288
0.00021496
0.000202457
0.000189428
0.000175556
0.000160506
0.00014379
0.000124272
8.6869e-05
7.72259e-05
8.17865e-05
8.68861e-05
9.21519e-05
9.76316e-05
0.000103364
0.000109399
0.000115815
0.000122729
0.000130349
0.000139055
0.000148761
0.000159308
0.000170706
0.000182879
0.000198151
0.00020207
0.000196949
0.000184469
0.000170792
0.000451646
0.000547893
0.000318616
)
;
    }
    sWall
    {
        type            compressible::alphatWallFunction;
        Prt             0.85;
        value           uniform 0.000328523;
    }
    nWall
    {
        type            compressible::alphatWallFunction;
        Prt             0.85;
        value           nonuniform List<scalar> 6(0.000138094 0.000144777 0.000167651 0.000191811 0.000194332 0.000170454);
    }
    sideWalls
    {
        type            empty;
    }
    glass1
    {
        type            compressible::alphatWallFunction;
        Prt             0.85;
        value           nonuniform List<scalar> 9(0.000111272 0.000170514 0.000222868 0.000275546 0.000328083 0.000380216 0.0004342 0.000450655 0.000444971);
    }
    glass2
    {
        type            compressible::alphatWallFunction;
        Prt             0.85;
        value           nonuniform List<scalar> 2(0.000250812 0.00023301);
    }
    sun
    {
        type            compressible::alphatWallFunction;
        Prt             0.85;
        value           nonuniform List<scalar> 
14
(
0.000114523
0.000119058
0.00011718
0.000120996
0.000124171
0.000126756
0.00012888
0.000130671
0.000132253
0.000133767
0.000134935
0.000135562
0.000135594
0.000135177
)
;
    }
    heatsource1
    {
        type            compressible::alphatWallFunction;
        Prt             0.85;
        value           nonuniform List<scalar> 3(0.000102457 0.000123354 0.000138441);
    }
    heatsource2
    {
        type            compressible::alphatWallFunction;
        Prt             0.85;
        value           nonuniform List<scalar> 4(0.000137091 0.000127668 0.000127666 0.00014831);
    }
    Table_master
    {
        type            compressible::alphatWallFunction;
        Prt             0.85;
        value           nonuniform List<scalar> 9(0.000105566 9.35082e-05 8.46916e-05 7.80377e-05 7.2815e-05 6.85533e-05 6.49922e-05 6.20652e-05 5.99957e-05);
    }
    Table_slave
    {
        type            compressible::alphatWallFunction;
        Prt             0.85;
        value           nonuniform List<scalar> 9(0.000101966 9.73868e-05 9.63457e-05 9.62222e-05 9.57367e-05 9.4013e-05 9.08136e-05 8.72508e-05 8.26553e-05);
    }
    inlet
    {
        type            fixedValue;
        value           uniform 1.94e-05;
    }
    outlet
    {
        type            zeroGradient;
    }
}


// ************************************************************************* //
