/*--------------------------------*- C++ -*----------------------------------*\
  =========                 |
  \\      /  F ield         | OpenFOAM: The Open Source CFD Toolbox
   \\    /   O peration     | Website:  https://openfoam.org
    \\  /    A nd           | Version:  6
     \\/     M anipulation  |
\*---------------------------------------------------------------------------*/
FoamFile
{
    version     2.0;
    format      ascii;
    class       volScalarField;
    location    "100";
    object      epsilon;
}
// * * * * * * * * * * * * * * * * * * * * * * * * * * * * * * * * * * * * * //

dimensions      [0 2 -3 0 0 0 0];

internalField   nonuniform List<scalar> 
459
(
0.000118002
0.000132047
0.000125961
0.000138535
0.000149653
0.000159159
0.000167281
0.000174352
0.000180774
0.000187076
0.000192038
0.000194739
0.000194871
0.000193066
0.000189432
7.21384e-05
6.38206e-05
5.8771e-05
5.65949e-05
5.52135e-05
5.26741e-05
4.80187e-05
4.34708e-05
3.93371e-05
3.56018e-05
3.22598e-05
2.92835e-05
2.66253e-05
2.42196e-05
2.19795e-05
1.98046e-05
1.75592e-05
1.58919e-05
1.22689e-05
0.000425142
0.00096554
0.000122065
0.00010641
0.000103725
0.000102864
0.000103563
0.000106673
0.000113039
0.000123349
0.000135512
0.000147505
0.000157094
0.000162669
0.000169229
0.000200852
0.000162095
0.000114879
6.314e-05
5.03605e-05
4.54911e-05
4.18293e-05
3.87492e-05
3.78407e-05
3.43702e-05
3.08869e-05
2.74974e-05
2.43475e-05
2.15219e-05
1.90244e-05
1.68235e-05
1.4967e-05
1.38883e-05
1.37774e-05
3.03902e-05
2.30143e-05
0.000975491
0.00310112
0.000195056
0.000108031
0.000101578
0.000102526
0.000106418
0.000113463
0.000123721
0.000136818
0.000150902
0.000162638
0.000169273
0.000170819
0.000173232
0.000189954
0.000255
0.00016901
6.328e-05
5.28986e-05
4.5319e-05
4.05356e-05
4.04112e-05
9.2285e-05
6.49345e-05
4.89763e-05
3.89366e-05
3.21511e-05
2.72719e-05
2.36179e-05
2.08862e-05
1.90955e-05
1.5312e-05
1.43265e-05
5.60467e-05
3.43222e-05
0.00190418
0.00729215
0.000409422
0.000120121
0.000107399
0.000112137
0.000120031
0.000130867
0.000144858
0.000162059
0.000180669
0.000194374
0.000198829
0.000194047
0.000184733
0.000180992
0.000202496
0.000261419
0.000125175
6.68781e-05
4.88479e-05
3.80164e-05
3.35706e-05
3.49023e-05
8.34331e-05
7.30249e-05
7.07897e-05
7.05237e-05
6.94989e-05
6.59562e-05
5.97254e-05
5.32905e-05
4.57358e-05
2.92466e-05
2.14568e-05
9.71364e-05
4.64096e-05
0.00331976
0.0138215
0.0009573
0.000145615
0.000111456
0.000119133
0.000132266
0.000149902
0.000172718
0.000201154
0.000232323
0.00025366
0.000258934
0.000249106
0.000227915
0.000200583
0.000173321
0.000140434
8.7421e-05
5.7596e-05
4.15502e-05
3.29021e-05
3.05243e-05
3.21106e-05
3.85451e-05
4.29407e-05
4.70162e-05
5.02402e-05
5.15807e-05
5.00374e-05
4.55965e-05
4.13633e-05
3.78297e-05
3.21607e-05
2.68845e-05
6.84579e-05
5.27672e-05
8.45527e-05
0.000146198
0.000206794
0.00532753
0.0209193
0.00235185
0.000241453
0.000123304
0.000124227
0.000139315
0.000162957
0.000197454
0.000248294
0.000303585
0.000334425
0.000338512
0.000322366
0.000291351
0.00024814
0.000194214
0.000136175
8.7e-05
5.4741e-05
3.93407e-05
3.16315e-05
3.10914e-05
3.45224e-05
4.11192e-05
4.89174e-05
5.71307e-05
6.48085e-05
7.01629e-05
7.11037e-05
6.56581e-05
5.52254e-05
4.60794e-05
3.84775e-05
3.44297e-05
5.00631e-05
5.39056e-05
6.56406e-05
0.000269687
0.000238522
0.00817208
0.0247815
0.00604562
0.000974114
0.000300204
0.000194032
0.000183227
0.000201583
0.000241421
0.000337795
0.000418423
0.000445256
0.000435881
0.000405811
0.000362414
0.000306903
0.000238332
0.000163658
0.000100588
5.71708e-05
4.04408e-05
3.35337e-05
3.44647e-05
3.97251e-05
4.81449e-05
5.90808e-05
7.18981e-05
8.62045e-05
9.94591e-05
0.000109523
0.000112288
9.86847e-05
8.34135e-05
7.11395e-05
6.69769e-05
7.73227e-05
0.000102154
0.000169785
0.000387231
0.000373419
0.00922467
0.0336689
0.0152735
0.00715043
0.00297189
0.0012848
0.000732229
0.000569719
0.000551555
0.000620523
0.000629567
0.000599493
0.000550688
0.000493818
0.000432182
0.00036437
0.000287358
0.000201946
0.000122101
6.25813e-05
4.28526e-05
3.74646e-05
3.99634e-05
4.70569e-05
5.77885e-05
7.19099e-05
8.93395e-05
0.000110153
0.000134305
0.000161725
0.000191476
0.000220227
0.000224744
0.00024322
0.000296916
0.00045684
0.000866782
0.00167298
0.00476174
0.00134487
0.00886825
0.0165992
0.0129542
0.00949088
0.00646469
0.00419852
0.00274691
0.00190632
0.00145334
0.00115107
0.000939627
0.000786422
0.000669139
0.000573031
0.000487986
0.00040648
0.00032307
0.000233691
0.000147476
6.99158e-05
4.46866e-05
4.21466e-05
4.62197e-05
5.44067e-05
6.63156e-05
8.20052e-05
0.000101954
0.000127139
0.000159205
0.000200659
0.000254938
0.000326417
0.000421251
0.000550369
0.000744565
0.00100582
0.00129893
0.00154541
0.00173078
0.00106647
0.00418758
0.00517867
0.00476064
0.00375421
0.00280601
0.00210331
0.00162071
0.00128205
0.00103885
0.000858358
0.000719017
0.000605972
0.000508654
0.000419506
0.000333213
0.000243839
0.000156335
7.13809e-05
4.28285e-05
4.48519e-05
5.04987e-05
5.86335e-05
6.96431e-05
8.36942e-05
0.000101252
0.00012317
0.000150852
0.000186517
0.000233623
0.000297507
0.000385911
0.000504241
0.000656214
0.000824546
0.000960072
0.00100078
0.000902725
0.000567994
0.00276726
0.00647737
0.00531805
0.00395429
0.00296796
0.00224545
0.00172957
0.00135879
0.00108422
0.000878108
0.000718935
0.000590953
0.000483087
0.000388002
0.000301202
0.000218645
0.000143213
5.96015e-05
3.22007e-05
3.65962e-05
4.32247e-05
5.10452e-05
6.06934e-05
7.2745e-05
8.79699e-05
0.000107459
0.000132778
0.000166193
0.000211017
0.000271943
0.000353906
0.00046169
0.000594618
0.000743406
0.000848956
0.000944326
0.000791337
0.000591513
0.00310961
0.00329705
0.00350537
0.00478874
0.0042179
0.00296681
0.00239515
0.00196525
0.00162879
0.00135535
0.00113876
0.000960178
0.00080552
0.00066748
0.000542291
0.00042824
0.000324852
0.000232178
0.000149617
5.27176e-05
3.79224e-05
4.45072e-05
5.27839e-05
6.24162e-05
7.36956e-05
8.69621e-05
0.000102669
0.000121456
0.000144292
0.000172797
0.000209985
0.000257733
0.000317789
0.000393114
0.000486599
0.000624797
0.000664329
0.000613122
0.000499987
0.000393968
)
;

boundaryField
{
    floor
    {
        Cmu             0.09;
        kappa           0.41;
        E               9.8;
        type            epsilonWallFunction;
        value           nonuniform List<scalar> 
29
(
0.000189432
7.21384e-05
6.38206e-05
5.8771e-05
5.65949e-05
5.52135e-05
5.26741e-05
4.80187e-05
4.34708e-05
3.93371e-05
3.56018e-05
3.22598e-05
2.92835e-05
2.66253e-05
2.42196e-05
2.19795e-05
1.98046e-05
1.75592e-05
1.58919e-05
1.22689e-05
1.22689e-05
2.30143e-05
3.43222e-05
4.64096e-05
0.000189432
7.21384e-05
0.000114879
0.00016901
0.000261419
)
;
    }
    ceiling
    {
        Cmu             0.09;
        kappa           0.41;
        E               9.8;
        type            epsilonWallFunction;
        value           nonuniform List<scalar> 
43
(
0.00310961
0.00329705
0.00350537
0.00478874
0.0042179
0.00296681
0.00239515
0.00196525
0.00162879
0.00135535
0.00113876
0.000960178
0.00080552
0.00066748
0.000542291
0.00042824
0.000324852
0.000232178
0.000149617
5.27176e-05
3.79224e-05
4.45072e-05
5.27839e-05
6.24162e-05
7.36956e-05
8.69621e-05
0.000102669
0.000121456
0.000144292
0.000172797
0.000209985
0.000257733
0.000317789
0.000393114
0.000486599
0.000624797
0.000664329
0.000613122
0.000499987
0.000393968
0.00886825
0.0165992
0.00276726
)
;
    }
    sWall
    {
        Cmu             0.09;
        kappa           0.41;
        E               9.8;
        type            epsilonWallFunction;
        value           uniform 0.00310961;
    }
    nWall
    {
        Cmu             0.09;
        kappa           0.41;
        E               9.8;
        type            epsilonWallFunction;
        value           nonuniform List<scalar> 6(0.000206794 0.000238522 0.000373419 0.000567994 0.000591513 0.000393968);
    }
    sideWalls
    {
        type            empty;
    }
    glass1
    {
        Cmu             0.09;
        kappa           0.41;
        E               9.8;
        type            epsilonWallFunction;
        value           nonuniform List<scalar> 9(0.000118002 0.000425142 0.000975491 0.00190418 0.00331976 0.00532753 0.00817208 0.00922467 0.00886825);
    }
    glass2
    {
        Cmu             0.09;
        kappa           0.41;
        E               9.8;
        type            epsilonWallFunction;
        value           nonuniform List<scalar> 2(0.00134487 0.00106647);
    }
    sun
    {
        Cmu             0.09;
        kappa           0.41;
        E               9.8;
        type            epsilonWallFunction;
        value           nonuniform List<scalar> 
14
(
0.000118002
0.000132047
0.000125961
0.000138535
0.000149653
0.000159159
0.000167281
0.000174352
0.000180774
0.000187076
0.000192038
0.000194739
0.000194871
0.000193066
)
;
    }
    heatsource1
    {
        Cmu             0.09;
        kappa           0.41;
        E               9.8;
        type            epsilonWallFunction;
        value           nonuniform List<scalar> 3(8.45527e-05 0.000146198 0.000206794);
    }
    heatsource2
    {
        Cmu             0.09;
        kappa           0.41;
        E               9.8;
        type            epsilonWallFunction;
        value           nonuniform List<scalar> 4(0.000200852 0.000162095 0.000162095 0.000255);
    }
    Table_master
    {
        Cmu             0.09;
        kappa           0.41;
        E               9.8;
        type            epsilonWallFunction;
        value           nonuniform List<scalar> 9(9.2285e-05 6.49345e-05 4.89763e-05 3.89366e-05 3.21511e-05 2.72719e-05 2.36179e-05 2.08862e-05 1.90955e-05);
    }
    Table_slave
    {
        Cmu             0.09;
        kappa           0.41;
        E               9.8;
        type            epsilonWallFunction;
        value           nonuniform List<scalar> 9(8.34331e-05 7.30249e-05 7.07897e-05 7.05237e-05 6.94989e-05 6.59562e-05 5.97254e-05 5.32905e-05 4.57358e-05);
    }
    inlet
    {
        type            turbulentMixingLengthDissipationRateInlet;
        mixingLength    0.01;
        phi             phi;
        k               k;
        value           uniform 0.000471672;
    }
    outlet
    {
        type            zeroGradient;
    }
}


// ************************************************************************* //
