/*--------------------------------*- C++ -*----------------------------------*\
  =========                 |
  \\      /  F ield         | OpenFOAM: The Open Source CFD Toolbox
   \\    /   O peration     | Website:  https://openfoam.org
    \\  /    A nd           | Version:  6
     \\/     M anipulation  |
\*---------------------------------------------------------------------------*/
FoamFile
{
    version     2.0;
    format      ascii;
    class       volScalarField;
    location    "100";
    object      nut;
}
// * * * * * * * * * * * * * * * * * * * * * * * * * * * * * * * * * * * * * //

dimensions      [0 2 -1 0 0 0 0];

internalField   nonuniform List<scalar> 
459
(
0.000693422
0.00071991
0.000708682
0.000731519
0.000750586
0.000766153
0.000778969
0.000789794
0.000799375
0.000808558
0.000815644
0.00081945
0.000819635
0.000817096
0.000811936
0.000588451
0.000564896
0.000549574
0.000542699
0.000538243
0.000529857
0.000513755
0.000496987
0.000480699
0.00046497
0.000449936
0.000435648
0.000422045
0.000408931
0.000395916
0.000382406
0.000367376
0.000355374
0.000326023
0.00106301
0.00158265
0.00128805
0.00147658
0.00155729
0.00164794
0.00174111
0.00182832
0.00189775
0.00193405
0.00194295
0.00190605
0.00179522
0.0015715
0.0012053
0.000827934
0.000770818
0.000687174
0.00128108
0.00175938
0.00205662
0.00217709
0.00209236
0.00170672
0.00149574
0.00133851
0.00121679
0.00111879
0.00103736
0.000966185
0.000897745
0.00082439
0.000753568
0.000691714
0.000792327
0.000402111
0.00140205
0.00237686
0.00139344
0.00204641
0.00216315
0.00225021
0.00231935
0.00237291
0.00241283
0.00243623
0.00243977
0.00240356
0.00230305
0.00210958
0.00180173
0.0013956
0.000896504
0.000781561
0.00214459
0.00275521
0.00293476
0.00292383
0.00246193
0.000638747
0.000568112
0.000517129
0.000479057
0.000449436
0.000425447
0.000405534
0.00038926
0.000377806
0.000445181
0.000551496
0.00091563
0.00045944
0.00175223
0.00360234
0.00135119
0.00234222
0.00253793
0.00260918
0.0026487
0.00267187
0.00268735
0.00269725
0.00269923
0.00267896
0.0026209
0.00250276
0.00229048
0.00193334
0.00139984
0.000903964
0.00223717
0.00248112
0.00281974
0.00300759
0.00299517
0.00251971
0.000617626
0.000590816
0.000584743
0.000584022
0.000581188
0.000571144
0.000552561
0.000531958
0.000505531
0.000508046
0.000563571
0.00106299
0.000508063
0.00210891
0.00524775
0.00158027
0.00232107
0.00273927
0.00281844
0.00284624
0.00285493
0.00285673
0.00285844
0.00285676
0.00285192
0.00283519
0.00278916
0.00269647
0.00255279
0.00237849
0.00217399
0.00202702
0.00213911
0.00251249
0.00272892
0.00284212
0.00280454
0.00250416
0.00253147
0.00259206
0.00263098
0.00262732
0.00256595
0.00240639
0.00210568
0.0017235
0.00132647
0.00101997
0.00105503
0.000692852
0.000620522
0.000744768
0.000836024
0.00246906
0.00702632
0.00254447
0.00201664
0.00273551
0.00291706
0.00297838
0.00299581
0.00297999
0.00295235
0.00292042
0.00291902
0.00292349
0.00290625
0.00283659
0.00268167
0.00241779
0.00206616
0.0017486
0.00177213
0.0022189
0.00244236
0.00259272
0.00272157
0.00283157
0.00296657
0.00308037
0.00315164
0.00317421
0.00314719
0.00307159
0.00287276
0.00253443
0.00207999
0.00162918
0.00124101
0.000954739
0.0008181
0.0011665
0.000876765
0.00284755
0.00851213
0.00483651
0.00223949
0.00204207
0.00247192
0.00282434
0.00303885
0.00312901
0.00301541
0.00292467
0.00292029
0.00293295
0.002934
0.00289139
0.00276199
0.00249802
0.00209244
0.00164937
0.00151912
0.00201958
0.00224259
0.00239103
0.00254402
0.00270763
0.00286712
0.00299969
0.00309217
0.00314002
0.00315205
0.00314179
0.00311218
0.00289396
0.0025091
0.00208954
0.00168454
0.00137938
0.00130764
0.00135827
0.00101803
0.00296492
0.00902602
0.00682563
0.00467177
0.00306186
0.00236169
0.00237378
0.0026805
0.00299796
0.00296277
0.0029014
0.0028782
0.00287774
0.00287558
0.00284283
0.00274276
0.00252802
0.00215334
0.00163772
0.00133568
0.00186672
0.00210045
0.00224122
0.0023809
0.0025243
0.00265692
0.00276607
0.0028487
0.00290916
0.00296231
0.00302786
0.00312109
0.0031752
0.00290887
0.00266203
0.00256047
0.00273043
0.00323906
0.00396857
0.0015605
0.00292624
0.00360631
0.00393243
0.00395441
0.00361582
0.00317325
0.00284455
0.00268816
0.00266571
0.00267513
0.00269986
0.00272882
0.00274983
0.00274896
0.00270971
0.00261092
0.00242275
0.00209868
0.00162652
0.00118701
0.001697
0.00194964
0.00208225
0.00219642
0.00230356
0.00239428
0.002461
0.00250128
0.00251637
0.00250967
0.00248458
0.00244446
0.00239903
0.00236326
0.0023574
0.00237629
0.00235828
0.00224827
0.00208689
0.0014444
0.0015589
0.00251259
0.00297711
0.00304014
0.00294973
0.00284663
0.00277271
0.00272118
0.00269093
0.0026663
0.00263258
0.0025774
0.00249042
0.00236106
0.0021728
0.00188526
0.00146748
0.00101647
0.00143222
0.00169613
0.0018239
0.00192006
0.00200627
0.00208006
0.00213886
0.00218278
0.00221417
0.00223736
0.00225882
0.00228679
0.00232585
0.00236226
0.00238939
0.00238172
0.00229833
0.00212877
0.00188592
0.00117082
0.00198482
0.00327861
0.00349233
0.00340689
0.00327409
0.00312498
0.00298889
0.00286975
0.00272751
0.00256638
0.00239717
0.00222498
0.00205061
0.00187089
0.00167668
0.00144121
0.00113787
0.00077243
0.000958036
0.00113366
0.00124656
0.00134465
0.00144294
0.00154422
0.00164998
0.00176117
0.00187709
0.00199412
0.00210372
0.00221602
0.00233215
0.00244365
0.00253441
0.0025921
0.00256656
0.00256112
0.00240076
0.00118676
0.00206351
0.00210417
0.00214758
0.00238293
0.00228421
0.00203143
0.00189155
0.00177084
0.0016634
0.00156456
0.00147634
0.00139475
0.00131544
0.00123555
0.0011529
0.00106564
0.000971884
0.000868958
0.000750582
0.000530293
0.000474889
0.000500918
0.000530232
0.000560711
0.000592646
0.000626276
0.000661925
0.00070007
0.000741462
0.000787393
0.000840259
0.000899662
0.000964733
0.00103563
0.00111197
0.00120861
0.00123357
0.00120102
0.00112208
0.00103639
)
;

boundaryField
{
    floor
    {
        type            nutkWallFunction;
        Cmu             0.09;
        kappa           0.41;
        E               9.8;
        value           nonuniform List<scalar> 
29
(
9.83364e-05
7.09084e-05
6.79509e-05
6.60196e-05
6.51511e-05
6.45874e-05
6.35246e-05
6.14781e-05
5.93383e-05
5.72513e-05
5.52272e-05
5.32845e-05
5.14303e-05
4.96578e-05
4.79421e-05
4.62322e-05
4.44495e-05
4.24565e-05
4.08566e-05
3.69158e-05
3.69157e-05
4.70393e-05
5.45032e-05
6.07422e-05
9.83364e-05
7.09084e-05
8.31591e-05
9.4674e-05
0.000109359
)
;
    }
    ceiling
    {
        type            nutkWallFunction;
        Cmu             0.09;
        kappa           0.41;
        E               9.8;
        value           nonuniform List<scalar> 
43
(
0.000240284
0.000244691
0.00024939
0.000274727
0.000264162
0.00023685
0.000221577
0.0002083
0.000196398
0.000185375
0.000175472
0.000166254
0.000157237
0.000148092
0.000138562
0.000128415
0.000117406
0.000105178
9.09015e-05
6.35547e-05
5.65047e-05
5.9842e-05
6.35735e-05
6.74265e-05
7.14362e-05
7.56304e-05
8.0047e-05
8.47413e-05
8.98009e-05
9.53765e-05
0.000101747
0.000108849
0.000116568
0.000124909
0.000133818
0.000144998
0.00014787
0.000144125
0.000134993
0.000124998
0.000332407
0.000402848
0.000231688
)
;
    }
    sWall
    {
        type            nutkWallFunction;
        Cmu             0.09;
        kappa           0.41;
        E               9.8;
        value           uniform 0.000240345;
    }
    nWall
    {
        type            nutkWallFunction;
        Cmu             0.09;
        kappa           0.41;
        E               9.8;
        value           nonuniform List<scalar> 6(0.000101236 0.000106117 0.00012285 0.000140649 0.00014249 0.000125005);
    }
    sideWalls
    {
        type            empty;
    }
    glass1
    {
        type            nutkWallFunction;
        Cmu             0.09;
        kappa           0.41;
        E               9.8;
        value           nonuniform List<scalar> 9(8.38784e-05 0.000128217 0.000167299 0.000206556 0.000245663 0.000284434 0.000324536 0.000336864 0.000332823);
    }
    glass2
    {
        type            nutkWallFunction;
        Cmu             0.09;
        kappa           0.41;
        E               9.8;
        value           nonuniform List<scalar> 2(0.000185008 0.000171949);
    }
    sun
    {
        type            nutkWallFunction;
        Cmu             0.09;
        kappa           0.41;
        E               9.8;
        value           nonuniform List<scalar> 
14
(
8.39186e-05
8.71656e-05
8.57908e-05
8.85832e-05
9.09067e-05
9.27985e-05
9.43526e-05
9.56629e-05
9.68207e-05
9.7929e-05
9.87833e-05
9.92417e-05
9.9264e-05
9.89583e-05
)
;
    }
    heatsource1
    {
        type            nutkWallFunction;
        Cmu             0.09;
        kappa           0.41;
        E               9.8;
        value           nonuniform List<scalar> 3(7.49086e-05 9.01989e-05 0.000101234);
    }
    heatsource2
    {
        type            nutkWallFunction;
        Cmu             0.09;
        kappa           0.41;
        E               9.8;
        value           nonuniform List<scalar> 4(0.000100262 9.33663e-05 9.33663e-05 0.000108469);
    }
    Table_master
    {
        type            nutkWallFunction;
        Cmu             0.09;
        kappa           0.41;
        E               9.8;
        value           nonuniform List<scalar> 9(7.71857e-05 6.83648e-05 6.19149e-05 5.70473e-05 5.32267e-05 5.01092e-05 4.75043e-05 4.53634e-05 4.38497e-05);
    }
    Table_slave
    {
        type            nutkWallFunction;
        Cmu             0.09;
        kappa           0.41;
        E               9.8;
        value           nonuniform List<scalar> 9(7.45612e-05 7.12114e-05 7.04489e-05 7.03574e-05 7.00012e-05 6.87395e-05 6.63985e-05 6.37919e-05 6.043e-05);
    }
    inlet
    {
        type            calculated;
        value           uniform 0.000167705;
    }
    outlet
    {
        type            calculated;
        value           nonuniform List<scalar> 2(0.00206351 0.00210417);
    }
}


// ************************************************************************* //
