/*--------------------------------*- C++ -*----------------------------------*\
  =========                 |
  \\      /  F ield         | OpenFOAM: The Open Source CFD Toolbox
   \\    /   O peration     | Website:  https://openfoam.org
    \\  /    A nd           | Version:  6
     \\/     M anipulation  |
\*---------------------------------------------------------------------------*/
FoamFile
{
    version     2.0;
    format      ascii;
    class       surfaceScalarField;
    location    "100";
    object      phi;
}
// * * * * * * * * * * * * * * * * * * * * * * * * * * * * * * * * * * * * * //

dimensions      [1 0 -1 0 0 0 0];

internalField   nonuniform List<scalar> 
852
(
-0.00264002
0.00270334
-0.00312144
0.000481486
-0.00371978
0.000598413
-0.0043026
0.000582885
-0.00482057
0.000518037
-0.00524951
0.000429001
-0.00556881
0.000319363
-0.00575591
0.000187167
-0.00578482
2.89746e-05
-0.00562346
-0.000161305
-0.00524125
-0.000382153
-0.00461713
-0.000624059
-0.00370743
-0.000909634
-0.00232046
-0.00138691
-0.00231831
0.000770558
-0.000767769
0.00120783
-0.000437195
0.00142999
-0.000222081
0.00159372
-0.000163652
0.0017361
-0.000142308
0.00183624
-0.000100059
0.00185499
-1.86669e-05
0.00182645
2.86207e-05
0.00178704
3.94751e-05
0.00174854
3.858e-05
0.00171279
3.58132e-05
0.00167948
3.33651e-05
0.00164533
3.42098e-05
0.00160045
4.4926e-05
0.00152122
7.92821e-05
0.00136874
0.000152512
0.00112526
0.000243516
0.000800641
0.000324648
0.000804841
-0.00195101
0.00482306
-0.0026962
0.00122674
-0.00343362
0.00133591
-0.00405959
0.00120892
-0.004598
0.0010565
-0.00504406
0.00087513
-0.00538349
0.000658852
-0.00559726
0.000400997
-0.00566385
9.56249e-05
-0.00556543
-0.00025967
-0.00528666
-0.000660856
-0.0048124
-0.00109826
-0.00413857
-0.00158341
-0.00339929
-0.00212613
-0.00324336
-0.00247418
-0.00116294
-0.00208042
-0.00116293
0.000510562
-0.00127097
0.000746551
-0.00067312
0.000934802
-0.000410266
0.00111992
-0.000348704
0.00129597
-0.000318289
0.00144331
-0.000247325
0.00147321
-4.84938e-05
0.00147746
2.44426e-05
0.00148125
3.57592e-05
0.00148525
3.46523e-05
0.00148893
3.21977e-05
0.00149218
3.01697e-05
0.00149415
3.23008e-05
0.00149126
4.78598e-05
0.00145588
0.000114715
0.00129571
0.000312717
0.00101426
0.000524997
0.000655801
0.000683134
0.00147174
-0.00145464
0.00653221
-0.00227041
0.00204259
-0.00300243
0.00206799
-0.00359125
0.00179781
-0.00410164
0.00156695
-0.00453303
0.00130659
-0.00487286
0.000998742
-0.00510356
0.000631761
-0.00520589
0.000198006
-0.00516256
-0.000302933
-0.00496339
-0.000859972
-0.00461484
-0.00144675
-0.00416432
-0.00203387
-0.00372882
-0.00256158
-0.00331496
-0.00288799
-0.00233678
-0.00305854
-0.00349966
-0.000267879
-0.000991979
2.41873e-05
-0.000965131
0.000357529
-0.000743551
0.000617862
-0.000608976
0.000839528
-0.000539892
0.00111439
-0.000522123
0.00106612
0.00109079
0.00112677
0.00116164
0.00119405
0.00122444
0.00125694
0.00130501
0.00141992
0.0011853
0.000547373
0.000887857
0.00082247
0.00051742
0.0010536
0.00200615
-0.001096
0.00795272
-0.00189706
0.00284372
-0.00246936
0.00264035
-0.00294421
0.00227273
-0.00337636
0.00199917
-0.00375639
0.00168668
-0.00407111
0.00131352
-0.00430358
0.000864295
-0.00443174
0.000326224
-0.00443248
-0.000302128
-0.0043012
-0.000991191
-0.00407058
-0.00167732
-0.00380897
-0.00229542
-0.00358628
-0.00278421
-0.00337547
-0.00309875
-0.00318737
-0.00324659
-0.00379097
-0.002896
-0.00183563
-0.00194367
-0.00103794
-0.00178961
-0.00048492
-0.0015181
-8.20234e-05
-0.0011464
0.000211432
-0.000902379
0.000409
-0.000737405
0.000473451
-0.000586518
0.000833186
-0.000359832
0.00111754
-0.000284448
0.00136566
-0.000248219
0.0015781
-0.000212529
0.00174022
-0.000162214
0.001825
-8.48804e-05
0.00179826
2.6649e-05
0.00162805
0.000170108
0.00126645
0.000361505
0.00109513
0.000718743
0.000779311
0.00113833
0.000324099
0.00150884
0.0023525
-0.000809205
0.00914429
-0.00155769
0.00359227
-0.00184968
0.0029324
-0.00216866
0.00259178
-0.00248292
0.00231349
-0.00276618
0.00197
-0.00300765
0.00155506
-0.00319632
0.00105303
-0.00331323
0.000443197
-0.00332425
-0.000291043
-0.00322054
-0.00109483
-0.00305251
-0.00184529
-0.0028806
-0.00246725
-0.00273892
-0.00292583
-0.00262587
-0.00321174
-0.00257519
-0.00329721
-0.00242046
-0.00305068
-0.00170603
-0.00265804
-0.00109
-0.00240559
-0.000613225
-0.00199484
-0.000292698
-0.00146688
-4.66391e-05
-0.00114839
0.00014783
-0.000931828
0.000321239
-0.00075988
0.000568984
-0.000607531
0.000802967
-0.000518385
0.00101596
-0.000461167
0.00120821
-0.000404737
0.00137165
-0.000325608
0.00148702
-0.000200204
0.00152322
-9.5084e-06
0.00145906
0.000234319
0.00130742
0.000513187
0.00114852
0.000877692
0.000962616
0.00132427
0.000579154
0.00189233
0.000474551
0.00245712
-0.001038
0.00151237
-0.00150157
0.000463382
-0.00145047
-0.000687724
0.0102632
-0.00132806
0.00423267
-0.001168
0.0027724
-0.00130353
0.00272738
-0.00149394
0.00250397
-0.0016523
0.00212842
-0.0017752
0.00167802
-0.00186744
0.00114533
-0.00192627
0.000502086
-0.0019053
-0.000311944
-0.00180356
-0.00119652
-0.00168935
-0.00195944
-0.00160653
-0.00255001
-0.0015709
-0.0029614
-0.00158054
-0.00320203
-0.00161115
-0.00326654
-0.00151591
-0.00314587
-0.00122493
-0.00294897
-0.000874543
-0.00275593
-0.0005629
-0.00230644
-0.000367534
-0.00166221
-0.000216681
-0.00129921
-8.02949e-05
-0.00106818
6.10865e-05
-0.000901224
0.000227452
-0.00077386
0.000398948
-0.000689845
0.000568106
-0.000630289
0.000734619
-0.000571215
0.000897541
-0.000488494
0.00104821
-0.00035084
0.00116455
-0.000125808
0.00121918
0.000179723
0.00122691
0.0005055
0.0012391
0.000865542
0.00131431
0.0012491
0.00147756
0.00172911
0.00193967
0.00199504
0.00221291
0.00123915
0.00181964
0.000856666
0.000430372
-0.00099575
0.0117314
-0.00107088
0.00430786
-0.000298708
0.00200029
-0.000268726
0.00269746
-0.000407602
0.00264291
-0.000471261
0.00219214
-0.000458393
0.00166522
-0.000399935
0.00108694
-0.000302318
0.00040453
-0.000182643
-0.000431557
-7.86991e-05
-0.0013004
-4.0648e-05
-0.00199742
-8.07806e-05
-0.00250981
-0.000190721
-0.00285139
-0.000350809
-0.00304188
-0.000519564
-0.00309772
-0.000622255
-0.00304311
-0.000626447
-0.00294471
-0.000543268
-0.00283906
-0.000421546
-0.00242813
-0.000377263
-0.00170646
-0.000346803
-0.00132964
-0.000310999
-0.00110395
-0.000260368
-0.000951825
-0.000188571
-0.000845629
-0.000102704
-0.000775683
-5.80823e-06
-0.000727157
0.000103599
-0.000680596
0.000231277
-0.000616144
0.000387825
-0.00050736
0.000580447
-0.000318401
0.000768171
-7.97072e-06
0.000932855
0.000340848
0.00112356
0.000674876
0.00140501
0.000967683
0.00185162
0.00128253
0.00255004
0.00129665
0.00312441
0.000664799
0.00315771
0.000823387
0.00365325
0.00205821
0.010197
0.00244639
0.00391974
0.00214814
0.0022986
0.00172462
0.00312104
0.00136515
0.00300243
0.00120863
0.00234872
0.00124781
0.0016261
0.00140421
0.000930591
0.0016691
0.000139701
0.00191144
-0.000673837
0.00196392
-0.00135281
0.00185644
-0.00188987
0.00163156
-0.00228486
0.00132609
-0.00254586
0.000972819
-0.00268854
0.000609152
-0.00273399
0.000277974
-0.00271187
7.76114e-06
-0.00267444
-0.000167244
-0.002664
-0.000240318
-0.00235502
-0.000361293
-0.00158546
-0.000470128
-0.00122078
-0.000555593
-0.00101846
-0.000616939
-0.000890455
-0.000656401
-0.000806143
-0.000680589
-0.000751473
-0.000693943
-0.000713779
-0.000695243
-0.000679273
-0.000677673
-0.000633691
-0.000624352
-0.000560657
-0.000502269
-0.00044046
-0.00026089
-0.000249324
3.21477e-05
4.78368e-05
0.000336685
0.000370367
0.000681743
0.000622655
0.00112095
0.000843351
0.00159018
0.00082745
0.00175733
0.000497671
0.00099174
0.001589
0.00492016
0.0107685
0.0146812
0.0115347
0.00544517
0.00929548
0.00536035
0.0075939
0.00470407
0.00641187
0.00353082
0.00570557
0.00233246
0.00534034
0.00129588
0.00506396
0.000416155
0.00472955
-0.000339365
0.00433771
-0.000960901
0.00388368
-0.00143577
0.00337048
-0.0017716
0.00281242
-0.00198772
0.00223067
-0.00210672
0.00165045
-0.0021537
0.00109893
-0.00216028
0.000601323
-0.00217676
0.000200322
-0.00226293
-6.24281e-05
-0.00209225
-0.000350521
-0.00129734
-0.000601914
-0.000969363
-0.000811328
-0.000809026
-0.000988949
-0.000712812
-0.00114623
-0.000648837
-0.00129462
-0.000603064
-0.0014443
-0.000564078
-0.00160453
-0.000519024
-0.00178569
-0.000452506
-0.00199999
-0.000346335
-0.00225948
-0.000180947
-0.00257049
6.17036e-05
-0.0029171
0.000394469
-0.00337339
0.000826684
-0.00409521
0.00134451
-0.00514782
0.00189597
-0.00663421
0.00231387
-0.00840859
0.00227207
-0.00781731
0.000997732
-0.00259103
0.00906899
0.00698569
0.00777103
0.00665835
0.00731123
0.00516394
0.00710355
0.00373855
0.00698104
0.00245503
0.00688007
0.00139692
0.00670811
0.000588174
0.00638826
-1.94455e-05
0.00591152
-0.000484104
0.00531446
-0.000838646
0.00463689
-0.00109395
0.00391282
-0.00126359
0.00317032
-0.00136415
0.00243156
-0.00141487
0.00171366
-0.00144231
0.00103538
-0.00149842
0.00045715
-0.00168464
2.45201e-05
-0.00165959
-0.000406594
-0.000866207
-0.000762271
-0.000613666
-0.00105707
-0.00051421
-0.00131486
-0.000455003
-0.00155227
-0.000411411
-0.00178092
-0.00037439
-0.00200817
-0.000336812
-0.00223673
-0.00029044
-0.00246394
-0.000225275
-0.00268026
-0.000130003
-0.00286854
7.35982e-06
-0.00301816
0.000211338
-0.0031356
0.000511928
-0.00323892
0.000930027
-0.00333545
0.00144106
-0.00337872
0.00193926
-0.00329302
0.00222819
-0.0028864
0.00186546
-0.00159515
-0.0002935
-0.00410604
0.000129579
0.00687773
0.00233433
0.00445365
0.00371703
0.00378129
0.00484704
0.0026086
0.00568984
0.00161229
0.00617326
0.000913563
0.00633291
0.000428581
0.00623465
7.88755e-05
0.00593127
-0.000180657
0.00546473
-0.000372049
0.00487928
-0.00050844
0.00421489
-0.000599134
0.0035039
-0.000653102
0.0027694
-0.000680313
0.00202315
-0.000696006
0.00126655
-0.00074175
0.000515293
-0.000933329
-0.000161999
-0.000982287
-0.000645443
-0.000382744
-0.000995952
-0.000263137
-0.00128352
-0.00022662
-0.00153381
-0.000204704
-0.00175903
-0.000186171
-0.00196527
-0.00016813
-0.00215426
-0.000147805
-0.00232342
-0.000121263
-0.00246532
-8.33531e-05
-0.0025682
-2.71121e-05
-0.00261587
5.50571e-05
-0.002579
0.000174481
-0.00242382
0.000356769
-0.00212009
0.000626318
-0.00166542
0.000986404
-0.001043
0.00131685
-5.69421e-05
0.00124216
0.0012277
0.000580832
0.00156596
-0.000631739
-0.00245196
-0.0122651
-0.0151263
-0.00823272
-0.00377018
1.75867e-05
0.00263058
0.0042468
0.00516411
0.00559641
0.0056791
0.00550237
0.00513438
0.00463014
0.00403537
0.00338686
0.0027114
0.00202062
0.0012846
0.000357655
-0.00061867
-0.000996082
-0.00125417
-0.00147598
-0.00167609
-0.00185786
-0.00202179
-0.00216558
-0.00228301
-0.00236271
-0.00238633
-0.00232796
-0.00215035
-0.00179064
-0.00116158
-0.000172651
0.00114639
0.00239055
0.00297331
0.00234354
)
;

boundaryField
{
    floor
    {
        type            calculated;
        value           nonuniform List<scalar> 
29
(
0
0
0
0
0
0
0
0
0
0
0
0
0
0
0
0
0
0
0
0
-4.17782e-06
-1.10728e-05
-1.69746e-05
-2.22305e-05
-2.09874e-06
-2.71683e-06
-7.29626e-06
-1.10623e-05
-1.16286e-05
)
;
    }
    ceiling
    {
        type            calculated;
        value           nonuniform List<scalar> 
43
(
-1.60587e-05
-1.60423e-05
-1.5785e-05
-8.85153e-06
-6.42663e-06
-4.33807e-06
-3.87265e-06
-3.68642e-06
-3.66457e-06
-3.75574e-06
-3.87086e-06
-3.9952e-06
-4.13873e-06
-4.31145e-06
-4.526e-06
-4.80054e-06
-5.1642e-06
-5.66733e-06
-6.33278e-06
-5.96627e-06
-5.31476e-06
-5.02921e-06
-4.79595e-06
-4.58093e-06
-4.37779e-06
-4.18411e-06
-3.99826e-06
-3.81871e-06
-3.64354e-06
-3.47003e-06
-3.2934e-06
-3.11253e-06
-2.92564e-06
-2.72781e-06
-2.51028e-06
-2.17668e-06
-1.98574e-06
-1.913e-06
-1.9554e-06
-1.31786e-06
1.06638e-05
7.11915e-06
-2.15871e-05
)
;
    }
    sWall
    {
        type            calculated;
        value           uniform -0.000207776;
    }
    nWall
    {
        type            calculated;
        value           nonuniform List<scalar> 6(-5.12929e-05 -6.11806e-05 -6.51439e-05 -8.01245e-05 -8.81089e-05 -0.000107085);
    }
    sideWalls
    {
        type            empty;
        value           nonuniform 0();
    }
    glass1
    {
        type            calculated;
        value           nonuniform List<scalar> 9(-6.32531e-05 -0.000168641 -0.000254442 -0.000324446 -0.000382296 -0.000431085 -0.000472422 -0.000523685 -0.000582172);
    }
    glass2
    {
        type            calculated;
        value           nonuniform List<scalar> 2(-0.000275151 -0.000306101);
    }
    sun
    {
        type            calculated;
        value           uniform 0;
    }
    heatsource1
    {
        type            calculated;
        value           nonuniform List<scalar> 3(2.04617e-07 2.04545e-07 2.04561e-07);
    }
    heatsource2
    {
        type            calculated;
        value           nonuniform List<scalar> 4(5.09206e-08 5.11667e-08 0 0);
    }
    Table_master
    {
        type            calculated;
        value           nonuniform List<scalar> 9(-1.53529e-07 -1.53602e-07 -1.53617e-07 -1.5363e-07 -1.5364e-07 -1.53648e-07 -1.53653e-07 -1.5365e-07 -1.53621e-07);
    }
    Table_slave
    {
        type            calculated;
        value           nonuniform List<scalar> 9(1.53572e-07 1.53523e-07 1.53447e-07 1.53382e-07 1.53334e-07 1.53315e-07 1.53327e-07 1.53352e-07 1.53428e-07);
    }
    inlet
    {
        type            calculated;
        value           uniform -0.0106095;
    }
    outlet
    {
        type            calculated;
        value           nonuniform List<scalar> 2(0.012489 0.00287724);
    }
}


// ************************************************************************* //
