// -*- C++ -*-
// File generated by PyFoam - sorry for the ugliness

FoamFile
{
 version 2.0;
 format ascii;
 class volScalarField;
 location "100";
 object T;
}

dimensions [ 0 0 0 1 0 0 0 ];

internalField nonuniform List<scalar> 459
(
  303.351
  303.049
  303.045
  303.048
  303.05
  303.052
  303.053
  303.055
  303.056
  303.057
  303.057
  303.055
  303.053
  303.049
  303.045
  302.986
  302.971
  302.959
  302.949
  302.94
  302.932
  302.923
  302.915
  302.907
  302.899
  302.891
  302.884
  302.878
  302.873
  302.868
  302.865
  302.862
  302.86
  302.873
  303.569
  303.071
  303.053
  303.059
  303.066
  303.071
  303.076
  303.08
  303.083
  303.085
  303.085
  303.08
  303.072
  303.059
  303.042
  303.028
  303.014
  302.989
  302.972
  302.96
  302.95
  302.941
  302.932
  302.919
  302.906
  302.892
  302.88
  302.868
  302.858
  302.848
  302.84
  302.834
  302.83
  302.829
  302.832
  302.857
  303.784
  303.106
  303.069
  303.08
  303.093
  303.105
  303.115
  303.124
  303.131
  303.134
  303.134
  303.126
  303.111
  303.089
  303.064
  303.041
  303.024
  302.994
  302.984
  302.976
  302.968
  302.96
  302.951
  302.933
  302.913
  302.894
  302.877
  302.861
  302.847
  302.836
  302.826
  302.818
  302.816
  302.815
  302.819
  302.85
  303.988
  303.155
  303.085
  303.1
  303.12
  303.139
  303.157
  303.173
  303.186
  303.193
  303.193
  303.182
  303.161
  303.129
  303.093
  303.057
  303.027
  303.011
  303
  302.998
  302.995
  302.988
  302.981
  302.973
  302.966
  302.959
  302.954
  302.949
  302.944
  302.937
  302.93
  302.922
  302.912
  302.874
  302.842
  302.826
  302.849
  304.178
  303.22
  303.104
  303.115
  303.14
  303.166
  303.192
  303.217
  303.237
  303.251
  303.255
  303.244
  303.218
  303.179
  303.133
  303.087
  303.048
  303.021
  303.007
  303.008
  303.01
  303.006
  303
  302.993
  302.988
  302.984
  302.979
  302.974
  302.969
  302.962
  302.953
  302.942
  302.927
  302.901
  302.866
  302.838
  302.845
  302.91
  302.951
  302.96
  304.345
  303.304
  303.135
  303.124
  303.15
  303.179
  303.21
  303.241
  303.27
  303.294
  303.307
  303.3
  303.271
  303.227
  303.174
  303.12
  303.071
  303.032
  303.01
  303.013
  303.02
  303.019
  303.015
  303.01
  303.005
  303.001
  302.997
  302.992
  302.987
  302.979
  302.969
  302.956
  302.939
  302.916
  302.885
  302.855
  302.847
  302.872
  302.886
  302.921
  304.465
  303.448
  303.247
  303.165
  303.163
  303.186
  303.214
  303.243
  303.275
  303.314
  303.342
  303.34
  303.309
  303.261
  303.205
  303.147
  303.092
  303.043
  303.01
  303.015
  303.027
  303.028
  303.025
  303.022
  303.019
  303.015
  303.011
  303.007
  303.001
  302.993
  302.983
  302.967
  302.95
  302.928
  302.902
  302.875
  302.86
  302.866
  302.874
  302.903
  304.681
  303.906
  303.665
  303.449
  303.321
  303.269
  303.262
  303.275
  303.3
  303.345
  303.367
  303.357
  303.323
  303.274
  303.218
  303.161
  303.106
  303.053
  303.01
  303.014
  303.032
  303.034
  303.033
  303.031
  303.029
  303.026
  303.023
  303.019
  303.014
  303.007
  302.998
  302.986
  302.967
  302.947
  302.928
  302.91
  302.904
  302.918
  302.938
  303.076
  304.978
  304.653
  304.424
  304.142
  303.892
  303.71
  303.592
  303.523
  303.491
  303.458
  303.413
  303.362
  303.308
  303.254
  303.201
  303.149
  303.1
  303.052
  303.01
  303.014
  303.036
  303.04
  303.041
  303.04
  303.039
  303.038
  303.036
  303.033
  303.03
  303.027
  303.024
  303.024
  303.027
  303.033
  303.049
  303.075
  303.111
  303.146
  303.17
  303.227
  301.024
  302.224
  302.867
  303.144
  303.253
  303.291
  303.298
  303.293
  303.274
  303.246
  303.214
  303.178
  303.142
  303.107
  303.071
  303.035
  303.002
  303.014
  303.041
  303.046
  303.047
  303.048
  303.049
  303.05
  303.051
  303.052
  303.053
  303.055
  303.057
  303.061
  303.066
  303.075
  303.09
  303.111
  303.136
  303.159
  303.175
  303.193
  301.092
  302.187
  302.651
  302.9
  303.02
  303.075
  303.095
  303.097
  303.095
  303.089
  303.08
  303.068
  303.055
  303.04
  303.024
  303.005
  302.986
  303.018
  303.049
  303.053
  303.055
  303.057
  303.059
  303.061
  303.063
  303.066
  303.068
  303.071
  303.074
  303.077
  303.082
  303.089
  303.1
  303.115
  303.132
  303.15
  303.145
  303.174
  301.819
  301.79
  301.79
  302.376
  302.643
  302.876
  302.931
  302.959
  302.972
  302.976
  302.978
  302.98
  302.981
  302.982
  302.981
  302.98
  302.977
  302.973
  302.969
  303.031
  303.062
  303.065
  303.068
  303.069
  303.071
  303.073
  303.075
  303.077
  303.078
  303.08
  303.082
  303.085
  303.088
  303.092
  303.098
  303.11
  303.119
  303.125
  303.127
  303.164
)
;

boundaryField
{
  floor
  {
    type wallHeatTransfer;
    Tinf uniform 305.2;
    alphaWall uniform 0.24;
    value nonuniform List<scalar> 29
(
  303.326
  303.348
  303.346
  303.344
  303.339
  303.333
  303.33
  303.332
  303.334
  303.337
  303.34
  303.343
  303.347
  303.352
  303.358
  303.364
  303.372
  303.383
  303.392
  303.431
  303.431
  303.351
  303.304
  303.275
  303.326
  303.348
  303.314
  303.29
  303.275
)
;
  }
  ceiling
  {
    type wallHeatTransfer;
    Tinf uniform 303.2;
    alphaWall uniform 0.24;
    value nonuniform List<scalar> 43
(
  301.906
  301.878
  301.876
  302.422
  302.676
  302.897
  302.949
  302.976
  302.989
  302.994
  302.997
  302.999
  303.001
  303.002
  303.003
  303.003
  303.003
  303.001
  303.001
  303.061
  303.088
  303.09
  303.091
  303.091
  303.092
  303.093
  303.094
  303.095
  303.095
  303.096
  303.097
  303.099
  303.1
  303.103
  303.108
  303.119
  303.127
  303.132
  303.134
  303.168
  304.893
  304.595
  301.23
)
;
  }
  sWall
  {
    type wallHeatTransfer;
    Tinf uniform 315.2;
    alphaWall uniform 0.36;
    value uniform 303.053;
  }
  nWall
  {
    type wallHeatTransfer;
    Tinf uniform 307.2;
    alphaWall uniform 0.36;
    value nonuniform List<scalar> 6
(
  303.724
  303.667
  303.578
  303.762
  303.74
  303.79
)
;
  }
  sideWalls
  {
    type empty;
  }
  glass1
  {
    type wallHeatTransfer;
    Tinf uniform 315.2;
    alphaWall uniform 4.3;
    value nonuniform List<scalar> 9
(
  312.337
  311.555
  311.018
  310.581
  310.225
  309.929
  309.652
  309.671
  309.858
)
;
  }
  glass2
  {
    type wallHeatTransfer;
    Tinf uniform 307.2;
    alphaWall uniform 4.3;
    value nonuniform List<scalar> 2
(
  305.586
  305.708
)
;
  }
  sun
  {
    type wallHeatTransfer;
    Tinf uniform 305.2;
    alphaWall uniform 0.24;
    value nonuniform List<scalar> 14
(
  303.621
  303.355
  303.355
  303.35
  303.347
  303.344
  303.342
  303.34
  303.339
  303.337
  303.335
  303.333
  303.331
  303.328
)
;
  }
  heatsource1
  {
    type fixedGradient;
    gradient uniform 0;
  }
  heatsource2
  {
    type fixedGradient;
    gradient uniform 0;
  }
  Table_master
  {
    type zeroGradient;
  }
  Table_slave
  {
    type zeroGradient;
  }
  inlet
  {
    type fixedValue;
    value uniform 291.15;
  }
  outlet
  {
    type zeroGradient;
  }
} 	// ************************************************************************* //

