// -*- C++ -*-
// File generated by PyFoam - sorry for the ugliness

FoamFile
{
 version 2.0;
 format ascii;
 class volVectorField;
 location "100";
 object U;
}

dimensions [ 0 1 -1 0 0 0 0 ];

internalField nonuniform List<vector> 459
(
  (0.0794087 0.0738609 0)
  (-0.145727 0.0103709 0)
  (-0.147221 0.0131085 0)
  (-0.173646 0.0115762 0)
  (-0.197561 0.00879019 0)
  (-0.21813 0.00542526 0)
  (-0.234419 0.00158305 0)
  (-0.245551 -0.00279925 0)
  (-0.25053 -0.00785902 0)
  (-0.24802 -0.0138167 0)
  (-0.236129 -0.0212937 0)
  (-0.21192 -0.030858 0)
  (-0.173819 -0.0443003 0)
  (-0.131535 -0.0653926 0)
  (-0.119807 -0.0948503 0)
  (0.0682663 -0.0341833 0)
  (0.0409537 -0.0212766 0)
  (0.0523421 -0.0128015 0)
  (0.0647699 -0.00862727 0)
  (0.0724004 -0.00646436 0)
  (0.0773373 -0.00456211 0)
  (0.0800732 -0.00227872 0)
  (0.0798629 -0.000897366 0)
  (0.0780487 -0.000373147 0)
  (0.0760514 -0.000230955 0)
  (0.0743509 -0.000206819 0)
  (0.0728841 -0.000214674 0)
  (0.0714793 -0.000176037 0)
  (0.0698626 7.43549e-05 0)
  (0.067415 0.00090535 0)
  (0.0628855 0.00283546 0)
  (0.0549035 0.00517954 0)
  (0.0460267 0.0078744 0)
  (-0.00667835 0.0233011 0)
  (0.280823 0.158858 0)
  (-0.16248 0.0366504 0)
  (-0.130482 0.0422547 0)
  (-0.162416 0.0396774 0)
  (-0.187507 0.0355114 0)
  (-0.208861 0.03026 0)
  (-0.225929 0.0238322 0)
  (-0.238048 0.0159685 0)
  (-0.244341 0.006334 0)
  (-0.243615 -0.00544518 0)
  (-0.234974 -0.0190848 0)
  (-0.217453 -0.0344091 0)
  (-0.191987 -0.0526436 0)
  (-0.16441 -0.0759767 0)
  (-0.139837 -0.09703 0)
  (-0.102208 -0.0827005 0)
  (-0.0641275 -0.0587376 0)
  (0.0671278 -0.0421961 0)
  (0.0235497 -0.0223073 0)
  (0.0333153 -0.0117544 0)
  (0.0442146 -0.00911275 0)
  (0.0523439 -0.00836164 0)
  (0.0589561 -0.00611357 0)
  (0.0636714 8.34493e-05 0)
  (0.0643751 0.00330066 0)
  (0.0638582 0.00411292 0)
  (0.0636995 0.00405113 0)
  (0.0638735 0.00380752 0)
  (0.0640823 0.00359239 0)
  (0.0642202 0.00358094 0)
  (0.0642407 0.00412074 0)
  (0.0636343 0.00604719 0)
  (0.0601727 0.0116781 0)
  (0.0512199 0.0170375 0)
  (0.0461274 0.0218898 0)
  (-0.04702 0.0482815 0)
  (0.457654 0.242967 0)
  (-0.206218 0.0696803 0)
  (-0.104835 0.0729522 0)
  (-0.143059 0.0644822 0)
  (-0.166578 0.0558974 0)
  (-0.18704 0.0459117 0)
  (-0.203804 0.034057 0)
  (-0.21633 0.0200205 0)
  (-0.223769 0.00363662 0)
  (-0.224845 -0.0149638 0)
  (-0.21888 -0.035712 0)
  (-0.206347 -0.0579738 0)
  (-0.188996 -0.0810588 0)
  (-0.169772 -0.103565 0)
  (-0.147886 -0.11926 0)
  (-0.121937 -0.121266 0)
  (-0.121343 -0.130093 0)
  (0.0289864 -0.0424055 0)
  (-0.00691706 -0.0331477 0)
  (0.00902992 -0.0235188 0)
  (0.0216284 -0.0201254 0)
  (0.0320247 -0.0184351 0)
  (0.0404141 -0.0170015 0)
  (0.0489608 -0.0100856 0)
  (0.0485762 -0.00568385 0)
  (0.0478002 -0.00385778 0)
  (0.0488359 -0.00319666 0)
  (0.0505066 -0.00295512 0)
  (0.0520106 -0.00286339 0)
  (0.0533466 -0.00272023 0)
  (0.0550689 -0.00215411 0)
  (0.0584194 0.000833333 0)
  (0.0574749 0.0168071 0)
  (0.0460687 0.0282835 0)
  (0.0504279 0.0371042 0)
  (-0.0848834 0.0735799 0)
  (0.60815 0.313694 0)
  (-0.259032 0.105602 0)
  (-0.0718149 0.10178 0)
  (-0.117855 0.088045 0)
  (-0.136821 0.0770136 0)
  (-0.154494 0.0644986 0)
  (-0.169633 0.0496123 0)
  (-0.181722 0.0317721 0)
  (-0.189848 0.0105371 0)
  (-0.192468 -0.0140862 0)
  (-0.1886 -0.0411582 0)
  (-0.180105 -0.0687986 0)
  (-0.169048 -0.0947636 0)
  (-0.157903 -0.116435 0)
  (-0.148083 -0.130224 0)
  (-0.144164 -0.133996 0)
  (-0.151087 -0.119297 0)
  (-0.127439 -0.0513151 0)
  (-0.0604966 -0.0605154 0)
  (-0.0327798 -0.053797 0)
  (-0.0114473 -0.0415389 0)
  (0.00369514 -0.0329683 0)
  (0.0138264 -0.027762 0)
  (0.01962 -0.0234691 0)
  (0.0272744 -0.0157454 0)
  (0.0413426 -0.0126912 0)
  (0.0535435 -0.0108158 0)
  (0.0635714 -0.00929458 0)
  (0.0716345 -0.00761707 0)
  (0.0771795 -0.00544547 0)
  (0.0789819 -0.00259737 0)
  (0.0751818 0.00130426 0)
  (0.0638329 0.00666916 0)
  (0.0510996 0.0258391 0)
  (0.0384568 0.0423849 0)
  (0.0558738 0.0559598 0)
  (-0.123545 0.094981 0)
  (0.733672 0.371772 0)
  (-0.310349 0.141104 0)
  (-0.0342537 0.12231 0)
  (-0.0883016 0.105712 0)
  (-0.100773 0.0935416 0)
  (-0.113754 0.079246 0)
  (-0.125227 0.0619621 0)
  (-0.134877 0.0409871 0)
  (-0.141987 0.0157018 0)
  (-0.144653 -0.0138684 0)
  (-0.141075 -0.0458766 0)
  (-0.134476 -0.0768735 0)
  (-0.126794 -0.103669 0)
  (-0.119909 -0.12422 0)
  (-0.114999 -0.137425 0)
  (-0.112973 -0.142752 0)
  (-0.108858 -0.134421 0)
  (-0.0904295 -0.103464 0)
  (-0.0602689 -0.0932293 0)
  (-0.0366272 -0.0774976 0)
  (-0.0189207 -0.0577493 0)
  (-0.00716838 -0.0453669 0)
  (0.00247496 -0.0366059 0)
  (0.0099441 -0.029619 0)
  (0.0189734 -0.0218971 0)
  (0.0294731 -0.0178016 0)
  (0.0392035 -0.0153692 0)
  (0.0479355 -0.013092 0)
  (0.0555998 -0.010004 0)
  (0.0617175 -0.00527089 0)
  (0.0655618 0.00162063 0)
  (0.065335 0.0101127 0)
  (0.0607257 0.0202991 0)
  (0.0534516 0.0359749 0)
  (0.0421895 0.0541337 0)
  (0.0654433 0.0746856 0)
  (-0.0268537 0.10647 0)
  (0.0467599 0.0306503 0)
  (-0.0647232 -0.0355719 0)
  (-0.278942 -0.0586819 0)
  (0.824048 0.423052 0)
  (-0.355384 0.171546 0)
  (0.000243926 0.128211 0)
  (-0.054554 0.117127 0)
  (-0.0609391 0.104746 0)
  (-0.0684721 0.0891225 0)
  (-0.0746114 0.0704201 0)
  (-0.0797508 0.0477699 0)
  (-0.0839386 0.020051 0)
  (-0.0842157 -0.0135447 0)
  (-0.0789925 -0.0501256 0)
  (-0.0737529 -0.083194 0)
  (-0.0695086 -0.109543 0)
  (-0.0672083 -0.128312 0)
  (-0.0672592 -0.139544 0)
  (-0.0690197 -0.142955 0)
  (-0.0683221 -0.136727 0)
  (-0.0601923 -0.123752 0)
  (-0.0453933 -0.113915 0)
  (-0.0314977 -0.0946166 0)
  (-0.0198436 -0.069012 0)
  (-0.0127041 -0.0540339 0)
  (-0.00652784 -0.0442209 0)
  (-0.000642058 -0.0366766 0)
  (0.00610776 -0.0303817 0)
  (0.0134469 -0.0266186 0)
  (0.0207539 -0.0240608 0)
  (0.027938 -0.0214846 0)
  (0.0349441 -0.0178318 0)
  (0.0416745 -0.0118917 0)
  (0.0477569 -0.00254558 0)
  (0.052233 0.00961555 0)
  (0.0534858 0.0230948 0)
  (0.0537876 0.0389462 0)
  (0.0516911 0.0571028 0)
  (0.0747809 0.0802765 0)
  (0.0517912 0.0994196 0)
  (0.0955552 0.0684103 0)
  (0.119131 0.0449609 0)
  (-0.131997 -0.0076155 0)
  (0.847727 0.4685 0)
  (-0.380648 0.167672 0)
  (0.0247757 0.0955731 0)
  (-0.00810747 0.124954 0)
  (-0.0154451 0.115648 0)
  (-0.020352 0.0948419 0)
  (-0.0211785 0.0736803 0)
  (-0.0203157 0.0503026 0)
  (-0.0197061 0.0218858 0)
  (-0.0109359 -0.015815 0)
  (-0.00246964 -0.055695 0)
  (0.00037706 -0.08769 0)
  (-0.000400024 -0.111373 0)
  (-0.0043199 -0.127366 0)
  (-0.0108528 -0.136476 0)
  (-0.0187342 -0.139158 0)
  (-0.0252249 -0.135746 0)
  (-0.0280934 -0.129641 0)
  (-0.02542 -0.123185 0)
  (-0.0219728 -0.104033 0)
  (-0.0173964 -0.0742214 0)
  (-0.0159423 -0.0579397 0)
  (-0.0144653 -0.047897 0)
  (-0.0125469 -0.0409418 0)
  (-0.00982461 -0.0358985 0)
  (-0.00636174 -0.0325689 0)
  (-0.0024908 -0.0302587 0)
  (0.00192507 -0.0279931 0)
  (0.00680106 -0.024854 0)
  (0.0125503 -0.01951 0)
  (0.0195072 -0.0102948 0)
  (0.0298624 0.00407052 0)
  (0.0373071 0.0191358 0)
  (0.0446776 0.0342893 0)
  (0.0520563 0.0497233 0)
  (0.0746152 0.0685256 0)
  (0.0875635 0.0761814 0)
  (0.121775 0.0513854 0)
  (0.162731 0.0433415 0)
  (-0.0325191 0.0954953 0)
  (0.946849 0.488706 0)
  (-0.15214 0.14661 0)
  (0.0789328 0.034047 0)
  (0.101709 0.0716928 0)
  (0.0699239 0.0867024 0)
  (0.0514912 0.0725346 0)
  (0.0498084 0.0515463 0)
  (0.0548886 0.0286128 0)
  (0.0608694 -0.00146089 0)
  (0.0801928 -0.0335909 0)
  (0.0873037 -0.0624386 0)
  (0.0850875 -0.0866594 0)
  (0.077047 -0.105198 0)
  (0.0649888 -0.117822 0)
  (0.0502231 -0.124941 0)
  (0.0341686 -0.127264 0)
  (0.0186589 -0.125837 0)
  (0.00479242 -0.123157 0)
  (-0.00365002 -0.120982 0)
  (-0.0107379 -0.105014 0)
  (-0.0135465 -0.0725852 0)
  (-0.0183862 -0.0562602 0)
  (-0.0225118 -0.0468313 0)
  (-0.0255236 -0.0407186 0)
  (-0.0275708 -0.0366339 0)
  (-0.0288604 -0.0340088 0)
  (-0.0296585 -0.0322634 0)
  (-0.0300252 -0.0307474 0)
  (-0.0298329 -0.0287902 0)
  (-0.0286742 -0.0256453 0)
  (-0.0257844 -0.0204392 0)
  (-0.0192997 -0.0121753 0)
  (-0.00287397 0.000267713 0)
  (0.00891085 0.0133793 0)
  (0.0207111 0.0220456 0)
  (0.0408769 0.0302078 0)
  (0.0592086 0.0230005 0)
  (0.0781773 -0.00575086 0)
  (0.138488 0.043308 0)
  (-0.434889 0.21511 0)
  (1.07174 0.455604 0)
  (0.521419 0.311073 0)
  (0.518915 0.291993 0)
  (0.460465 0.242038 0)
  (0.367387 0.192731 0)
  (0.295785 0.141017 0)
  (0.254791 0.0927622 0)
  (0.233834 0.0513962 0)
  (0.224935 0.014552 0)
  (0.212322 -0.0198299 0)
  (0.196876 -0.0492071 0)
  (0.178524 -0.0720392 0)
  (0.157419 -0.0883085 0)
  (0.133988 -0.0987815 0)
  (0.109023 -0.104453 0)
  (0.0835592 -0.106413 0)
  (0.0587823 -0.106005 0)
  (0.0352913 -0.105365 0)
  (0.0175006 -0.106719 0)
  (-0.000149159 -0.096253 0)
  (-0.0101182 -0.0628141 0)
  (-0.021025 -0.0482572 0)
  (-0.030901 -0.0405493 0)
  (-0.0390274 -0.0357644 0)
  (-0.046071 -0.0326084 0)
  (-0.0525301 -0.0304779 0)
  (-0.0588623 -0.0288529 0)
  (-0.0654624 -0.0271431 0)
  (-0.0727196 -0.0246453 0)
  (-0.0811164 -0.0204884 0)
  (-0.0913253 -0.0136398 0)
  (-0.103958 -0.00307429 0)
  (-0.117945 0.011445 0)
  (-0.132362 0.0283041 0)
  (-0.157119 0.0469903 0)
  (-0.19426 0.0661907 0)
  (-0.247063 0.0815936 0)
  (-0.306791 0.0904898 0)
  (-0.376215 0.0934376 0)
  (-0.640337 0.0913253 0)
  (0.304174 0.12597 0)
  (0.336552 0.219471 0)
  (0.327283 0.210148 0)
  (0.307224 0.164932 0)
  (0.298871 0.113694 0)
  (0.296668 0.067919 0)
  (0.293854 0.0299205 0)
  (0.284682 -0.00138933 0)
  (0.266939 -0.0267827 0)
  (0.243281 -0.0462018 0)
  (0.215419 -0.0600238 0)
  (0.184828 -0.0689687 0)
  (0.152851 -0.0739352 0)
  (0.120607 -0.0759357 0)
  (0.0889624 -0.0762254 0)
  (0.0582553 -0.0768505 0)
  (0.03337 -0.0809855 0)
  (0.00537581 -0.0757518 0)
  (-0.0105301 -0.0425771 0)
  (-0.0256349 -0.0318794 0)
  (-0.0396017 -0.0274023 0)
  (-0.0513093 -0.0248001 0)
  (-0.061816 -0.0229686 0)
  (-0.0717551 -0.0214412 0)
  (-0.0815341 -0.0198191 0)
  (-0.0913712 -0.0176248 0)
  (-0.101279 -0.0142804 0)
  (-0.111023 -0.00913778 0)
  (-0.120029 -0.00152658 0)
  (-0.127228 0.00925091 0)
  (-0.132182 0.0237562 0)
  (-0.135852 0.0427943 0)
  (-0.139788 0.0647899 0)
  (-0.14473 0.0851799 0)
  (-0.147398 0.0934984 0)
  (-0.129459 0.0685794 0)
  (-0.0790987 -0.0302307 0)
  (-0.285387 -0.215446 0)
  (0.141453 0.356763 0)
  (0.0614319 0.270733 0)
  (0.122767 0.212209 0)
  (0.178261 0.153802 0)
  (0.223622 0.0992345 0)
  (0.255425 0.0568657 0)
  (0.271518 0.0260281 0)
  (0.273495 0.00426705 0)
  (0.264547 -0.0112857 0)
  (0.247384 -0.022459 0)
  (0.224232 -0.0302796 0)
  (0.196868 -0.0354278 0)
  (0.166834 -0.0384858 0)
  (0.135366 -0.0400744 0)
  (0.103278 -0.0411189 0)
  (0.0707197 -0.0438464 0)
  (0.0420425 -0.0538898 0)
  (-0.00042388 -0.0546172 0)
  (-0.0210047 -0.0155606 0)
  (-0.0357658 -0.00534847 0)
  (-0.0494899 -0.00248798 0)
  (-0.0609341 -0.00124064 0)
  (-0.0710846 -0.000524933 0)
  (-0.0803478 -2.56871e-05 0)
  (-0.0888834 0.00047554 0)
  (-0.0966755 0.00121526 0)
  (-0.103536 0.00246672 0)
  (-0.109066 0.00455538 0)
  (-0.112483 0.00790182 0)
  (-0.112675 0.0137083 0)
  (-0.107932 0.0237767 0)
  (-0.097066 0.0390856 0)
  (-0.080232 0.0589475 0)
  (-0.0585689 0.0782392 0)
  (-0.0353696 0.0892251 0)
  (0.00655982 0.0726436 0)
  (0.143293 -0.000246908 0)
  (-0.208406 -0.127257 0)
  (-0.463666 -0.524574 0)
  (-0.635629 -0.111986 0)
  (-0.423302 0.271894 0)
  (-0.301383 0.19031 0)
  (-0.10876 0.152948 0)
  (0.0647287 0.0906604 0)
  (0.142003 0.0536746 0)
  (0.201143 0.0272795 0)
  (0.23473 0.00885284 0)
  (0.246673 -0.00449666 0)
  (0.244013 -0.0144556 0)
  (0.231474 -0.0223076 0)
  (0.212045 -0.0287996 0)
  (0.187861 -0.0344195 0)
  (0.16063 -0.0396397 0)
  (0.13173 -0.0450806 0)
  (0.102085 -0.0517891 0)
  (0.0717474 -0.0621491 0)
  (0.0431639 -0.0814297 0)
  (-0.0180893 -0.0931554 0)
  (-0.0397099 -0.079912 0)
  (-0.0488641 -0.0708452 0)
  (-0.0590228 -0.0638674 0)
  (-0.0680718 -0.057893 0)
  (-0.0762837 -0.0525611 0)
  (-0.0837558 -0.0476687 0)
  (-0.0904584 -0.0430222 0)
  (-0.0962213 -0.0383979 0)
  (-0.100692 -0.0335164 0)
  (-0.103253 -0.0280046 0)
  (-0.102864 -0.0213309 0)
  (-0.0976025 -0.013383 0)
  (-0.0846439 -0.00367284 0)
  (-0.0619574 0.0088427 0)
  (-0.0309589 0.0247631 0)
  (0.0230767 0.0453911 0)
  (0.0693534 0.0464404 0)
  (0.114613 0.0281853 0)
  (0.17041 -0.00702546 0)
  (-0.193898 -0.0697177 0)
)
;

boundaryField
{
  floor
  {
    type noSlip;
  }
  ceiling
  {
    type noSlip;
  }
  sWall
  {
    type noSlip;
  }
  nWall
  {
    type noSlip;
  }
  sideWalls
  {
    type empty;
  }
  glass1
  {
    type noSlip;
  }
  glass2
  {
    type noSlip;
  }
  sun
  {
    type noSlip;
  }
  heatsource1
  {
    type noSlip;
  }
  heatsource2
  {
    type noSlip;
  }
  Table_master
  {
    type noSlip;
  }
  Table_slave
  {
    type noSlip;
  }
  inlet
  {
    type fixedValue;
    value uniform (0.0707107 -0.0707107 0);
  }
  outlet
  {
    type zeroGradient;
  }
} 	// ************************************************************************* //

