/*--------------------------------*- C++ -*----------------------------------*\
  =========                 |
  \\      /  F ield         | OpenFOAM: The Open Source CFD Toolbox
   \\    /   O peration     | Website:  https://openfoam.org
    \\  /    A nd           | Version:  6
     \\/     M anipulation  |
\*---------------------------------------------------------------------------*/
FoamFile
{
    version     2.0;
    format      ascii;
    class       volScalarField;
    location    "1720";
    object      k;
}
// * * * * * * * * * * * * * * * * * * * * * * * * * * * * * * * * * * * * * //

dimensions      [0 2 -2 0 0 0 0];

internalField   nonuniform List<scalar> 
458
(
0.00226779
0.00268607
0.00280886
0.00308405
0.00334889
0.00360968
0.00388036
0.00416518
0.0044055
0.00455991
0.00457746
0.00441272
0.00402202
0.00325467
0.00187338
0.000457608
0.000628872
0.000808341
0.000878837
0.000851548
0.000745714
0.000636804
0.000546634
0.000474088
0.000415266
0.000367089
0.000327368
0.000294047
0.000265254
0.000239314
0.00021461
0.000200568
0.000169412
0.00412306
0.00755218
0.00415045
0.00437442
0.00471628
0.00513556
0.00563262
0.00619691
0.00680087
0.00731324
0.00758858
0.00753122
0.00712391
0.00635482
0.00513862
0.00326413
0.00224667
0.00149557
0.000450281
0.000973118
0.00130324
0.00145833
0.0014727
0.00125935
0.00102434
0.000834023
0.000688753
0.000577335
0.000490672
0.000421519
0.000364701
0.000317438
0.000283509
0.000264384
0.000493878
0.000292758
0.00609512
0.0136493
0.00491167
0.00472528
0.00494189
0.00528634
0.00575115
0.00634119
0.0069942
0.00755083
0.00789278
0.00795003
0.00769361
0.00706078
0.00603723
0.0048884
0.00391861
0.00208627
0.00106819
0.00139967
0.00160355
0.00173036
0.0017228
0.00134713
0.00103254
0.000802621
0.000637596
0.000518256
0.000430608
0.000365337
0.000316476
0.000280896
0.000262141
0.000265443
0.000780341
0.000408867
0.00835895
0.0222361
0.00592719
0.0047073
0.00474687
0.00501688
0.00547406
0.00616841
0.00689287
0.00746338
0.00783413
0.00795392
0.00774861
0.00714599
0.00628716
0.0054357
0.00463233
0.00350024
0.00276893
0.00250697
0.00237414
0.00233819
0.00228961
0.0021519
0.00170945
0.00143639
0.00126401
0.00114385
0.00104691
0.000954802
0.000871264
0.000787145
0.000694227
0.000530208
0.00042276
0.00113249
0.00054238
0.0110412
0.0339566
0.00842384
0.00475012
0.00448328
0.00470851
0.00529995
0.0063555
0.00718536
0.00773984
0.00809541
0.00819755
0.00790072
0.0071828
0.00621623
0.00530932
0.00457975
0.00397845
0.00379462
0.0034795
0.00325254
0.00307069
0.00285926
0.00259033
0.00230274
0.00210668
0.00198664
0.00189195
0.00178991
0.00166114
0.00149193
0.00129917
0.0010939
0.000865698
0.000664768
0.000922201
0.00106382
0.000969435
0.00108637
0.00128348
0.0143256
0.0466876
0.0149493
0.00592334
0.00474278
0.00478363
0.00570789
0.00726733
0.00803223
0.00847463
0.00873894
0.00874796
0.00832053
0.00737901
0.00612472
0.00496622
0.00418366
0.00384162
0.003814
0.00382306
0.00373188
0.00350875
0.00318924
0.00283487
0.00254784
0.00239539
0.00232178
0.00226317
0.00218507
0.00206518
0.0018784
0.00164888
0.00140034
0.00114678
0.0009356
0.000900702
0.00103003
0.00105444
0.00165138
0.00138073
0.017976
0.055046
0.027076
0.01236
0.0083086
0.00741271
0.00850553
0.00921017
0.0094863
0.00964595
0.00973003
0.00958385
0.00894738
0.00770948
0.00611025
0.00469887
0.00388689
0.00373587
0.00389823
0.00398268
0.00385355
0.00355038
0.00317097
0.00281191
0.00256746
0.00246859
0.00245173
0.00245704
0.00245495
0.00242453
0.00233604
0.00214725
0.00191066
0.00165896
0.00145721
0.00136458
0.00145095
0.00168149
0.00223392
0.00194884
0.0189407
0.0568457
0.0383014
0.0271712
0.0197422
0.0158813
0.0137259
0.0122889
0.0115366
0.0112125
0.0110099
0.0106101
0.0096467
0.00799493
0.00597429
0.00439243
0.00367728
0.00365524
0.00377974
0.00375011
0.00351678
0.00317006
0.00282009
0.00255056
0.00240809
0.00238377
0.00243137
0.00251749
0.00263028
0.00276718
0.00292547
0.00306697
0.00310926
0.00313891
0.00329205
0.00386908
0.00511958
0.00681589
0.0128318
0.00467703
0.018204
0.0264663
0.024362
0.0217105
0.0188863
0.0164645
0.0146542
0.0135908
0.013087
0.0127681
0.0123573
0.0115963
0.0100713
0.00776917
0.00515932
0.00385756
0.00340251
0.00330951
0.00325296
0.00309129
0.00282341
0.00252774
0.00228258
0.00213432
0.00208897
0.00212327
0.0022096
0.00233306
0.00249002
0.00268165
0.0029093
0.00317116
0.00348969
0.00390091
0.00444788
0.00509766
0.00569694
0.00606913
0.00624827
0.00408119
0.00718495
0.0110949
0.013543
0.0147735
0.0154375
0.0157081
0.0153777
0.0144522
0.013213
0.011586
0.00880995
0.00585884
0.00403619
0.00322543
0.00288133
0.00270025
0.00252795
0.00231816
0.00209088
0.00188811
0.00175205
0.00169312
0.00169787
0.0017477
0.00182978
0.00193925
0.0020775
0.00225114
0.00247287
0.00276576
0.00313122
0.00356699
0.0040509
0.00449044
0.00471263
0.00457283
0.00410677
0.00264226
0.00805094
0.0194692
0.0216106
0.0215007
0.0207282
0.0184769
0.015338
0.0120148
0.00883299
0.0062358
0.00435116
0.00326399
0.00271634
0.00241254
0.00221083
0.00203281
0.00184806
0.00166505
0.00150935
0.00139898
0.00133824
0.0013263
0.00135506
0.00141883
0.001516
0.00164799
0.00181808
0.00203054
0.00229597
0.00262439
0.00302441
0.00349684
0.00401537
0.00451219
0.00481685
0.00510149
0.00428736
0.00271136
0.00890517
0.00935065
0.00976458
0.0120867
0.0107993
0.00848105
0.00603608
0.00437017
0.00348206
0.00273158
0.00214591
0.00173646
0.00142363
0.00120718
0.00106724
0.000970448
0.000895928
0.000834178
0.00078485
0.000752416
0.000740491
0.00074944
0.000776289
0.000816617
0.000869034
0.000933259
0.00100998
0.00110087
0.00120895
0.00133967
0.00149659
0.00168157
0.00189896
0.00215373
0.00245046
0.0028313
0.00300666
0.00288479
0.0024958
0.0021349
)
;

boundaryField
{
    floor
    {
        type            kqRWallFunction;
        value           nonuniform List<scalar> 
36
(
0.00187338
0.000457608
0.000628872
0.000808341
0.000878837
0.000851548
0.000745714
0.000636804
0.000546634
0.000474088
0.000415266
0.000367089
0.000327368
0.000294047
0.000265254
0.000239314
0.00021461
0.000200568
0.000169412
0.000169412
0.000292758
0.000408867
0.00054238
0.000969435
0.00108637
0.00128348
0.00187338
0.00326413
0.00224667
0.00149557
0.000457608
0.00149557
0.000450281
0.00208627
0.00106819
0.00276893
)
;
    }
    ceiling
    {
        type            kqRWallFunction;
        value           nonuniform List<scalar> 
43
(
0.00890517
0.00935065
0.00976458
0.0120867
0.0107993
0.00848105
0.00603608
0.00437017
0.00348206
0.00273158
0.00214591
0.00173646
0.00142363
0.00120718
0.00106724
0.000970448
0.000895928
0.000834178
0.00078485
0.000752416
0.000740491
0.00074944
0.000776289
0.000816617
0.000869034
0.000933259
0.00100998
0.00110087
0.00120895
0.00133967
0.00149659
0.00168157
0.00189896
0.00215373
0.00245046
0.0028313
0.00300666
0.00288479
0.0024958
0.0021349
0.018204
0.0264663
0.00805094
)
;
    }
    sWall
    {
        type            kqRWallFunction;
        value           uniform 0.00890517;
    }
    nWall
    {
        type            kqRWallFunction;
        value           nonuniform List<scalar> 6(0.00128348 0.00138073 0.00194884 0.00264226 0.00271136 0.0021349);
    }
    sideWalls
    {
        type            empty;
    }
    glass1
    {
        type            kqRWallFunction;
        value           nonuniform List<scalar> 9(0.00226779 0.00412306 0.00609512 0.00835895 0.0110412 0.0143256 0.017976 0.0189407 0.018204);
    }
    glass2
    {
        type            kqRWallFunction;
        value           nonuniform List<scalar> 2(0.00467703 0.00408119);
    }
    sun
    {
        type            kqRWallFunction;
        value           nonuniform List<scalar> 
14
(
0.00226779
0.00268607
0.00280886
0.00308405
0.00334889
0.00360968
0.00388036
0.00416518
0.0044055
0.00455991
0.00457746
0.00441272
0.00402202
0.00325467
)
;
    }
    Table_master
    {
        type            kqRWallFunction;
        value           nonuniform List<scalar> 9(0.00134713 0.00103254 0.000802621 0.000637596 0.000518256 0.000430608 0.000365337 0.000316476 0.000280896);
    }
    Table_slave
    {
        type            kqRWallFunction;
        value           nonuniform List<scalar> 9(0.00170945 0.00143639 0.00126401 0.00114385 0.00104691 0.000954802 0.000871264 0.000787145 0.000694227);
    }
    inlet
    {
        type            turbulentIntensityKineticEnergyInlet;
        intensity       0.05;
        value           uniform 0.000937501;
    }
    outlet
    {
        type            zeroGradient;
    }
}


// ************************************************************************* //
