/*--------------------------------*- C++ -*----------------------------------*\
  =========                 |
  \\      /  F ield         | OpenFOAM: The Open Source CFD Toolbox
   \\    /   O peration     | Website:  https://openfoam.org
    \\  /    A nd           | Version:  6
     \\/     M anipulation  |
\*---------------------------------------------------------------------------*/
FoamFile
{
    version     2.0;
    format      ascii;
    class       volScalarField;
    location    "45800.0000003435634";
    object      epsilon;
}
// * * * * * * * * * * * * * * * * * * * * * * * * * * * * * * * * * * * * * //

dimensions      [0 2 -3 0 0 0 0];

internalField   nonuniform List<scalar> 
778
(
0.000253135
0.000306357
0.000302988
0.000344145
0.000384994
0.000424788
0.000464223
0.000504491
0.000547329
0.000595456
0.000643931
0.000692365
0.000742402
0.000798833
0.000860675
8.9455e-05
0.000262807
0.000269284
0.000250246
0.000220388
0.000184293
0.000152465
0.000126607
0.000105973
8.95021e-05
7.6348e-05
6.56907e-05
5.68885e-05
4.94155e-05
4.27998e-05
3.6543e-05
3.18328e-05
2.36082e-05
0.000797047
0.00144327
0.000286976
0.000259559
0.000261653
0.000267622
0.000276518
0.00028995
0.00031021
0.000340427
0.000379674
0.000430847
0.000499317
0.000600638
0.000785938
0.00112981
0.00097913
0.000858724
0.000511966
0.000369614
0.000294407
0.0002431
0.000204267
0.000187116
0.000154841
0.000125087
0.000100745
8.15181e-05
6.65468e-05
5.4839e-05
4.56469e-05
3.87231e-05
3.45345e-05
3.27818e-05
6.57962e-05
4.8109e-05
0.00163076
0.0040794
0.000407405
0.000242899
0.000229071
0.000230986
0.000238206
0.000250479
0.000268392
0.000292678
0.000324831
0.000366942
0.000421395
0.00049519
0.000601675
0.000725011
0.000830124
0.00158466
0.00102771
0.000512385
0.000367834
0.000294442
0.000262289
0.000552076
0.000363078
0.00025106
0.000181541
0.00013642
0.000105997
8.48293e-05
6.9857e-05
5.94927e-05
4.51596e-05
3.80053e-05
0.000108096
7.08306e-05
0.00285381
0.00877117
0.00070996
0.000240704
0.000202451
0.000199989
0.000203168
0.000209801
0.000220626
0.000237554
0.000263265
0.00030005
0.000349326
0.000412536
0.00048828
0.000560486
0.000612586
0.000824486
0.00156485
0.00072888
0.000459759
0.000358277
0.000301907
0.000291829
0.000814379
0.000612997
0.000482225
0.000388784
0.000319362
0.000264516
0.000218918
0.000179147
0.000141961
8.39021e-05
5.4969e-05
0.000148361
9.45862e-05
0.00454652
0.0158285
0.00134656
0.000258339
0.000175709
0.000166769
0.000165785
0.00016777
0.00017394
0.000187451
0.00021171
0.000248426
0.000297906
0.000359533
0.000428063
0.000489456
0.000528779
0.000582596
0.000627567
0.000483198
0.000393463
0.000330998
0.000282276
0.000248626
0.000247854
0.000226808
0.000202972
0.000181088
0.000162707
0.000146546
0.000131877
0.000118283
0.000105119
8.45466e-05
6.43056e-05
0.000105142
0.000138852
0.000160101
0.000358981
0.000320622
0.00676439
0.0248796
0.00255386
0.000318098
0.000155522
0.000137048
0.000132117
0.000130692
0.000134466
0.000148554
0.000176709
0.000218106
0.000270898
0.000334316
0.000402011
0.000462933
0.00050327
0.000521894
0.000504932
0.00043833
0.000373851
0.000315656
0.000264749
0.000223405
0.000193315
0.000169651
0.000150827
0.000135631
0.000123295
0.000112749
0.000103296
9.45312e-05
8.60735e-05
7.59035e-05
6.54317e-05
7.76356e-05
9.97871e-05
0.000207484
0.00105294
0.000551621
0.00967311
0.0336377
0.00458429
0.000465083
0.000150845
0.000116335
0.000107085
0.000103287
0.000107085
0.000127902
0.000166096
0.000215868
0.00027336
0.000340238
0.000409626
0.000470804
0.000510508
0.000520725
0.000494522
0.000437767
0.000371926
0.000307529
0.000250582
0.000204465
0.000169767
0.000144564
0.00012632
0.000112725
0.000102271
9.37105e-05
8.62281e-05
7.93518e-05
7.27889e-05
6.61109e-05
6.03729e-05
6.3884e-05
7.67867e-05
0.000171162
0.0015674
0.000895885
0.0127601
0.040406
0.00749051
0.000871595
0.000194359
0.000115411
9.74091e-05
9.14842e-05
9.86965e-05
0.000137719
0.000189252
0.000246218
0.000307083
0.000374013
0.000445119
0.000508479
0.000547804
0.000551294
0.000515984
0.000451764
0.000375649
0.000301039
0.00023652
0.00018598
0.000149314
0.000123966
0.000106683
9.45403e-05
8.57149e-05
7.87985e-05
7.29091e-05
6.75556e-05
6.24882e-05
5.76613e-05
5.40149e-05
5.6102e-05
7.03121e-05
0.000334986
0.00528917
0.00196011
0.0138285
0.0414583
0.0139322
0.00316428
0.000630495
0.00020825
0.000132828
0.000116115
0.000142632
0.00019305
0.000249332
0.000306428
0.000367428
0.000436867
0.000511455
0.000576177
0.000611341
0.000603547
0.000552492
0.000471235
0.000378671
0.000291004
0.000218278
0.000164006
0.000126746
0.000102567
8.72374e-05
7.72949e-05
7.06224e-05
6.56406e-05
6.14594e-05
5.7638e-05
5.39997e-05
5.06414e-05
4.85526e-05
5.3301e-05
9.88322e-05
0.000942936
0.0127289
0.00296054
0.013005
0.0283688
0.0144152
0.00572733
0.00210547
0.000835666
0.000414484
0.000277455
0.000279574
0.00031501
0.000356337
0.000401876
0.000458778
0.000531182
0.000610334
0.000674323
0.000698999
0.000670953
0.000594191
0.000487058
0.000372898
0.000270797
0.000191139
0.000135708
0.000100623
7.98258e-05
6.79109e-05
6.11278e-05
5.70428e-05
5.40972e-05
5.15467e-05
4.90877e-05
4.6666e-05
4.456e-05
4.44478e-05
5.88678e-05
0.000234385
0.00283567
0.0105942
0.00308136
0.0106892
0.0193545
0.012038
0.00630088
0.00317568
0.00167602
0.000987942
0.00068011
0.000560986
0.00051807
0.00051092
0.000531817
0.00058401
0.000663023
0.000747603
0.000805073
0.000807317
0.000744345
0.000628533
0.000486595
0.000347884
0.00023364
0.000152425
0.000101715
7.3524e-05
5.87828e-05
5.13387e-05
4.78806e-05
4.60649e-05
4.47326e-05
4.3406e-05
4.19322e-05
4.0388e-05
3.93585e-05
4.24255e-05
8.58256e-05
0.000687124
0.00309262
0.00764123
0.00293368
0.00807065
0.0137667
0.00969047
0.00593322
0.00357021
0.00222821
0.00149161
0.00109398
0.000870192
0.00074433
0.00068654
0.000690648
0.00075087
0.000844703
0.00093172
0.000967677
0.000925585
0.000805894
0.000635754
0.000453007
0.000293316
0.00017734
0.000106832
6.94335e-05
5.25089e-05
4.43837e-05
4.05273e-05
3.90817e-05
3.84758e-05
3.80191e-05
3.74251e-05
3.66305e-05
3.58157e-05
3.59466e-05
4.39674e-05
0.000146688
0.000874098
0.0028939
0.00595413
0.00266244
0.00612133
0.0101628
0.00778757
0.00531133
0.00356994
0.00246929
0.00178834
0.00136869
0.00109348
0.000926697
0.000859936
0.000887146
0.000982571
0.00109617
0.0011673
0.00114797
0.00102596
0.000822684
0.000587856
0.000369768
0.000208163
0.000114474
7.20212e-05
5.23094e-05
4.2973e-05
3.82241e-05
3.58036e-05
3.48545e-05
3.45114e-05
3.43415e-05
3.42047e-05
3.41678e-05
3.45634e-05
3.67133e-05
4.89697e-05
0.000144982
0.000721925
0.00238352
0.00574536
0.00261967
0.00618113
0.00780367
0.00679905
0.00473687
0.00336415
0.00246158
0.00186543
0.00146217
0.00119479
0.00106526
0.00107105
0.00118004
0.00132718
0.00143316
0.00143268
0.00129639
0.00105046
0.000744337
0.000458471
0.00023905
0.000130882
8.15099e-05
5.9922e-05
4.94894e-05
4.36263e-05
3.9833e-05
3.72677e-05
3.57783e-05
3.51271e-05
3.50303e-05
3.55905e-05
3.7246e-05
4.08076e-05
4.813e-05
6.66918e-05
0.000141439
0.000539917
0.00196708
0.00448188
0.00318584
0.00454524
0.00511056
0.00418315
0.00336059
0.00263878
0.0020693
0.00164834
0.00136157
0.00124553
0.00130175
0.00147836
0.00168375
0.00181693
0.00180551
0.00162669
0.00129762
0.000910836
0.000522146
0.00027946
0.00015444
0.000101035
7.86534e-05
6.80142e-05
6.15342e-05
5.65527e-05
5.21537e-05
4.82116e-05
4.5203e-05
4.38928e-05
4.42641e-05
4.70922e-05
5.40857e-05
6.77868e-05
9.17093e-05
0.000133372
0.000223425
0.000523273
0.0019114
0.00353203
0.0032959
0.00140103
0.00143104
0.00143273
0.0013529
0.00131019
0.00142385
0.00170985
0.00204419
0.00230253
0.00239402
0.00227329
0.00195952
0.00151788
0.000978722
0.000568591
0.00031173
0.00018584
0.000133647
0.000113321
0.000104176
9.86644e-05
9.41513e-05
8.95614e-05
8.43729e-05
7.86087e-05
7.32368e-05
7.08925e-05
7.28898e-05
8.15175e-05
0.000101338
0.00013877
0.000201497
0.000301358
0.000471685
0.000830522
0.00206954
0.00366427
0.00338414
0.00118737
0.00171463
0.00195061
0.00230661
0.00275603
0.0031605
0.00333944
0.00330117
0.0030703
0.00267165
0.00210266
0.00148532
0.000957021
0.000562344
0.000334948
0.000229315
0.000188701
0.000173993
0.000167929
0.000164625
0.000162315
0.000160228
0.00015764
0.000153751
0.000148119
0.000141597
0.000137865
0.000141768
0.000157171
0.000191708
0.000257197
0.000369902
0.000553446
0.000851808
0.00136304
0.00230572
0.00394964
0.00297742
0.00742204
0.00808823
0.00480771
0.00339839
0.00373239
0.00414561
0.00415984
0.00394933
0.00359112
0.00313281
0.0026189
0.00207309
0.00152595
0.00104317
0.000686671
0.000471286
0.000369128
0.00032804
0.000310976
0.000301532
0.000294776
0.00028993
0.000287313
0.000287051
0.000288515
0.000290209
0.000290317
0.000288299
0.000287743
0.000296396
0.000318254
0.000361162
0.000438548
0.00057108
0.000790904
0.00115523
0.00178048
0.002839
0.00444937
0.00285982
0.00650488
0.00513636
0.00436953
0.00462194
0.00453894
0.00426974
0.00368839
0.00304202
0.00245674
0.00196371
0.00155859
0.00122858
0.00096912
0.000782814
0.000665039
0.000600423
0.000564776
0.000543108
0.000527632
0.000515666
0.00050741
0.000504457
0.000508803
0.000522045
0.000544676
0.00057561
0.000612095
0.000650146
0.000685248
0.000718161
0.000758077
0.000817111
0.000909993
0.00105642
0.00128646
0.00165028
0.00223261
0.00318605
0.00388074
0.00387193
0.00535655
0.00336956
0.00331847
0.00361514
0.00387296
0.00353291
0.00292782
0.00230906
0.00177853
0.00135438
0.00102688
0.000784242
0.000616476
0.000512359
0.000456945
0.000433236
0.00042877
0.000432176
0.000439656
0.000451392
0.000469236
0.000495663
0.000532811
0.000581611
0.000641288
0.00070954
0.000783431
0.000860672
0.000941031
0.00102642
0.00111798
0.0012227
0.00135028
0.00151112
0.0017147
0.00196554
0.00225671
0.00257883
0.00300453
0.00315692
)
;

boundaryField
{
    floor
    {
        Cmu             0.09;
        kappa           0.41;
        E               9.8;
        type            epsilonWallFunction;
        value           nonuniform List<scalar> 
36
(
0.000860675
8.9455e-05
0.000262807
0.000269284
0.000250246
0.000220388
0.000184293
0.000152465
0.000126607
0.000105973
8.95021e-05
7.6348e-05
6.56907e-05
5.68885e-05
4.94155e-05
4.27998e-05
3.6543e-05
3.18328e-05
2.36082e-05
2.36082e-05
4.8109e-05
7.08306e-05
9.45862e-05
0.000160101
0.000358981
0.000320622
0.000860675
0.00112981
0.00097913
0.000858724
8.9455e-05
0.000858724
0.000511966
0.00158466
0.00102771
0.00156485
)
;
    }
    ceiling
    {
        Cmu             0.09;
        kappa           0.41;
        E               9.8;
        type            epsilonWallFunction;
        value           nonuniform List<scalar> 
43
(
0.00535655
0.00336956
0.00331847
0.00361514
0.00387296
0.00353291
0.00292782
0.00230906
0.00177853
0.00135438
0.00102688
0.000784242
0.000616476
0.000512359
0.000456945
0.000433236
0.00042877
0.000432176
0.000439656
0.000451392
0.000469236
0.000495663
0.000532811
0.000581611
0.000641288
0.00070954
0.000783431
0.000860672
0.000941031
0.00102642
0.00111798
0.0012227
0.00135028
0.00151112
0.0017147
0.00196554
0.00225671
0.00257883
0.00300453
0.00315692
0.00454524
0.00511056
0.00118737
)
;
    }
    sWall
    {
        Cmu             0.09;
        kappa           0.41;
        E               9.8;
        type            epsilonWallFunction;
        value           nonuniform List<scalar> 9(0.013005 0.0106892 0.00807065 0.00612133 0.00618113 0.00454524 0.00742204 0.00650488 0.00535655);
    }
    nWall
    {
        Cmu             0.09;
        kappa           0.41;
        E               9.8;
        type            epsilonWallFunction;
        value           nonuniform List<scalar> 
14
(
0.000320622
0.000551621
0.000895885
0.00308136
0.00293368
0.00266244
0.00261967
0.00318584
0.0032959
0.00338414
0.00297742
0.00285982
0.00387193
0.00315692
)
;
    }
    sideWalls
    {
        type            empty;
    }
    glass1
    {
        Cmu             0.09;
        kappa           0.41;
        E               9.8;
        type            epsilonWallFunction;
        value           nonuniform List<scalar> 9(0.000253135 0.000797047 0.00163076 0.00285381 0.00454652 0.00676439 0.00967311 0.0127601 0.0138285);
    }
    glass2
    {
        Cmu             0.09;
        kappa           0.41;
        E               9.8;
        type            epsilonWallFunction;
        value           nonuniform List<scalar> 2(0.00196011 0.00296054);
    }
    sun
    {
        Cmu             0.09;
        kappa           0.41;
        E               9.8;
        type            epsilonWallFunction;
        value           nonuniform List<scalar> 
14
(
0.000253135
0.000306357
0.000302988
0.000344145
0.000384994
0.000424788
0.000464223
0.000504491
0.000547329
0.000595456
0.000643931
0.000692365
0.000742402
0.000798833
)
;
    }
    Table_master
    {
        Cmu             0.09;
        kappa           0.41;
        E               9.8;
        type            epsilonWallFunction;
        value           nonuniform List<scalar> 9(0.000552076 0.000363078 0.00025106 0.000181541 0.00013642 0.000105997 8.48293e-05 6.9857e-05 5.94927e-05);
    }
    Table_slave
    {
        Cmu             0.09;
        kappa           0.41;
        E               9.8;
        type            epsilonWallFunction;
        value           nonuniform List<scalar> 9(0.000814379 0.000612997 0.000482225 0.000388784 0.000319362 0.000264516 0.000218918 0.000179147 0.000141961);
    }
    inlet
    {
        type            turbulentMixingLengthDissipationRateInlet;
        mixingLength    0.01;
        phi             phi;
        k               k;
        value           uniform 0.000471671;
    }
    outlet
    {
        type            zeroGradient;
    }
}


// ************************************************************************* //
