/*--------------------------------*- C++ -*----------------------------------*\
  =========                 |
  \\      /  F ield         | OpenFOAM: The Open Source CFD Toolbox
   \\    /   O peration     | Website:  https://openfoam.org
    \\  /    A nd           | Version:  6
     \\/     M anipulation  |
\*---------------------------------------------------------------------------*/
FoamFile
{
    version     2.0;
    format      ascii;
    class       surfaceScalarField;
    location    "3620";
    object      phi;
}
// * * * * * * * * * * * * * * * * * * * * * * * * * * * * * * * * * * * * * //

dimensions      [1 0 -1 0 0 0 0];

internalField   nonuniform List<scalar> 
850
(
-0.00305312
0.00311358
-0.00414583
0.00109271
-0.00501493
0.000869095
-0.00570378
0.000688856
-0.00617586
0.000472078
-0.0063971
0.000221242
-0.00632789
-6.92186e-05
-0.00592405
-0.000403831
-0.0051738
-0.000750259
-0.00412862
-0.00104517
-0.00290031
-0.00122831
-0.0016415
-0.00125881
-0.000538991
-0.00110251
0.000135926
-0.000674917
0.000138277
-0.000922428
0.000926085
-0.000690045
-0.000232383
-6.08243e-05
-0.000629221
0.000542616
-0.00060344
0.0010018
-0.000459183
0.00125838
-0.000256577
0.00136649
-0.000108116
0.00141931
-5.28173e-05
0.00144966
-3.03539e-05
0.00146473
-1.50663e-05
0.00146834
-3.61098e-06
0.00146134
6.99947e-06
0.00143809
2.32529e-05
0.00137957
5.85192e-05
0.00125365
0.000125916
0.00105008
0.000203576
0.000793439
0.000256638
0.000798279
-0.00220746
0.00548444
-0.00329512
0.00218037
-0.00420834
0.00178232
-0.00490611
0.00138663
-0.00538762
0.000953587
-0.00563056
0.000464178
-0.00559453
-0.000105253
-0.00524032
-0.000758038
-0.0045668
-0.00142378
-0.00364274
-0.00196923
-0.00258804
-0.00228301
-0.0015415
-0.00230535
-0.000628657
-0.00201535
9.2948e-05
-0.00139652
0.000872779
-0.000641553
0.00114862
-0.000272061
0.000956847
0.000196136
0.000969536
4.15008e-05
0.000895584
0.000421753
-0.000612635
0.00078664
-0.000994108
0.00109961
-0.000916411
0.00135046
-0.000710034
0.00140693
-0.000313043
0.00141507
-0.000116253
0.00142579
-6.35427e-05
0.00143478
-3.93398e-05
0.00144004
-2.03345e-05
0.00144221
-5.77492e-06
0.00144182
7.39023e-06
0.00143634
2.87309e-05
0.00139988
9.4975e-05
0.00124701
0.000278794
0.000978546
0.000472036
0.000644608
0.000590576
0.00145526
-0.00156234
0.00729721
-0.00251038
0.00312841
-0.00334301
0.00261495
-0.00396558
0.00200919
-0.00441315
0.00140116
-0.00466167
0.000712696
-0.004656
-0.000110923
-0.0043347
-0.00107934
-0.00371315
-0.00204533
-0.00288872
-0.00279367
-0.00198659
-0.00318513
-0.00112265
-0.00316929
-0.000373448
-0.00276456
0.000240556
-0.00201053
0.000752063
-0.00115306
0.000899417
-0.000419415
0.000707524
0.000388029
0.00168832
0.00143724
-0.000527818
0.00163274
-0.000808136
0.00157514
-0.000936511
0.00160843
-0.000949699
0.0018117
-0.0009133
0.00149881
0.00138271
0.00131932
0.00128013
0.00125995
0.00125433
0.00126188
0.00129076
0.00138589
0.00115886
0.00050582
0.000869984
0.000760916
0.000498886
0.000961675
0.00197272
-0.00109548
0.00871733
-0.00185228
0.00388521
-0.00243661
0.00319928
-0.00288269
0.00245527
-0.00322781
0.00174629
-0.00344068
0.000925559
-0.00344208
-0.00010952
-0.00312366
-0.00139776
-0.00254778
-0.0026212
-0.00184606
-0.00349539
-0.0011304
-0.00390079
-0.000480677
-0.00381902
6.57988e-05
-0.00331103
0.000526397
-0.00247112
0.000902499
-0.00152916
0.00111958
-0.000636492
0.00130376
0.000203841
0.00225753
0.000734552
0.00216771
0.000101761
0.00199495
-0.000355051
0.00190898
-0.000722171
0.00179818
-0.000825712
0.00166598
-0.000817498
0.00143502
-0.000682337
0.00175863
-0.000323763
0.0019363
-0.000177823
0.00206723
-0.000131084
0.00216801
-0.000100943
0.00222824
-6.03799e-05
0.00222568
2.40568e-06
0.00213279
9.2739e-05
0.00191323
0.000219402
0.00150708
0.000406004
0.00126968
0.000743213
0.000902426
0.00112817
0.00038408
0.00148002
0.00238044
-0.000756063
0.00986111
-0.00132705
0.0044562
-0.00150962
0.00338185
-0.00168822
0.00263387
-0.0018532
0.00191127
-0.00196222
0.00103458
-0.00191376
-0.000157981
-0.00155672
-0.0017548
-0.0010557
-0.00312222
-0.000537792
-0.0040133
-7.32976e-05
-0.00436529
0.000305357
-0.00419767
0.000596527
-0.0036022
0.000849409
-0.00272401
0.00106875
-0.0017485
0.00127616
-0.0008439
0.00158684
-0.000106837
0.0020304
0.000290991
0.00206427
6.78871e-05
0.00199696
-0.000287741
0.00181247
-0.000537676
0.00162459
-0.000637837
0.0014475
-0.000640406
0.00131882
-0.000553653
0.00137758
-0.00038252
0.00146564
-0.000265884
0.00155011
-0.000215555
0.0016316
-0.000182431
0.00170173
-0.000130514
0.00174076
-3.66242e-05
0.00172469
0.000108805
0.00163843
0.000305665
0.0014862
0.000558239
0.00133011
0.000899298
0.00115113
0.00130715
0.000804094
0.00182706
0.00101981
0.00216472
-0.00109518
0.00213611
-0.00179343
0.000717874
-0.00172066
-0.000638718
0.0109406
-0.00101438
0.00483186
-0.000633428
0.0030009
-0.000448682
0.00244912
-0.000384056
0.00184664
-0.000303696
0.000954224
-5.19051e-05
-0.000409772
0.000334503
-0.0021412
0.000692188
-0.00347991
0.000952034
-0.00427315
0.00109506
-0.00450831
0.00114538
-0.004248
0.00113928
-0.0035961
0.00111609
-0.00270082
0.00110062
-0.00173304
0.00113279
-0.000876068
0.00126986
-0.000243905
0.00148464
7.62134e-05
0.0015359
1.66201e-05
0.00143793
-0.00018977
0.00126356
-0.0003633
0.00108389
-0.000458171
0.000926588
-0.000483104
0.000821561
-0.000448626
0.000810761
-0.00037172
0.000860105
-0.000315228
0.000936273
-0.000291723
0.00102702
-0.000273176
0.00112585
-0.000229345
0.00122285
-0.000133628
0.00129576
3.58941e-05
0.00133282
0.000268604
0.00134813
0.000542938
0.00138214
0.000865278
0.0014826
0.0012067
0.00168608
0.00162358
0.00203681
0.00181398
0.00233694
0.00183598
0.00182999
0.00122483
0.000174759
-0.000763859
0.0121918
-0.000621472
0.00468947
0.000492299
0.00188713
0.000960653
0.00198076
0.00121802
0.00158928
0.00159952
0.000572716
0.00210282
-0.000913064
0.00243998
-0.00247837
0.00257378
-0.00361371
0.00250623
-0.0042056
0.002273
-0.00427508
0.00193604
-0.00391103
0.00155911
-0.00321917
0.00120036
-0.00234207
0.00089663
-0.00142931
0.000705094
-0.000684532
0.000653505
-0.000192315
0.000704671
2.50469e-05
0.000712757
8.53454e-06
0.000636498
-0.00011351
0.000509173
-0.000235975
0.000368875
-0.000317873
0.000242974
-0.000357203
0.000156862
-0.000362514
0.0001339
-0.000348758
0.000162907
-0.000344235
0.000222536
-0.000351352
0.000302992
-0.000353632
0.000405279
-0.000331632
0.000534369
-0.000262717
0.000687273
-0.00011701
0.000845211
0.000110665
0.00100721
0.000380935
0.00120907
0.000663428
0.00148366
0.000932111
0.00188404
0.0012232
0.00241743
0.00128059
0.00318503
0.00106837
0.00336162
0.00104825
0.00360519
0.00273595
0.00999913
0.00339173
0.00403369
0.00344938
0.00182948
0.00353507
0.00189508
0.00374635
0.001378
0.00422227
9.67928e-05
0.00469342
-0.00138421
0.00478845
-0.00257339
0.00451411
-0.00333938
0.00396095
-0.00365244
0.00322978
-0.00354391
0.00242478
-0.00310604
0.00162794
-0.00242233
0.000922027
-0.00163615
0.000347358
-0.000854639
-2.52532e-06
-0.000334649
-0.000140838
-5.40025e-05
-0.000155263
3.9472e-05
-0.000163113
1.63837e-05
-0.00021524
-6.13827e-05
-0.000306058
-0.000145157
-0.000412285
-0.000211646
-0.000511603
-0.000257885
-0.000585871
-0.000288247
-0.000623867
-0.000310761
-0.000633079
-0.000335023
-0.000625254
-0.000359178
-0.00060469
-0.000374196
-0.000566407
-0.000369914
-0.000494187
-0.000334937
-0.000356723
-0.000254474
-0.000146592
-9.94663e-05
0.000104174
0.000130169
0.000388867
0.000378734
0.00070731
0.000613668
0.00108958
0.000840923
0.00150688
0.000863287
0.00189864
0.000676622
0.00120604
0.00174085
0.00509764
0.0105981
0.0146276
0.0125614
0.00389561
0.0112293
0.00322724
0.0103408
0.00226647
0.00953398
0.000903618
0.00853155
-0.000381784
0.00735262
-0.00139446
0.00607933
-0.00206609
0.00476049
-0.0023336
0.00342928
-0.0022127
0.00216422
-0.00184098
0.00100938
-0.00126748
5.6338e-05
-0.000683108
-0.00056608
-0.000232221
-0.000859667
-4.10619e-05
-0.000956802
4.31332e-05
-0.00097646
5.91296e-05
-0.000991847
3.17707e-05
-0.00103528
-1.7952e-05
-0.00110785
-7.25795e-05
-0.00119689
-0.000122616
-0.00128869
-0.000166079
-0.00137431
-0.000202625
-0.00145151
-0.000233568
-0.00152704
-0.000259485
-0.0016102
-0.000276018
-0.00170952
-0.000274878
-0.00183466
-0.000244778
-0.00199851
-0.000171083
-0.00221651
-3.64778e-05
-0.00248301
0.000167033
-0.00280698
0.00045414
-0.00327095
0.000842706
-0.00398816
0.00133087
-0.0050297
0.00188247
-0.00651691
0.0023505
-0.00825536
0.00241507
-0.00777181
0.0012573
-0.00235716
0.00895046
0.00560353
0.00747189
0.00470581
0.00708003
0.00265834
0.0067292
0.00125445
0.00611921
0.000228202
0.00524679
-0.000522038
0.00417819
-0.000997486
0.00298277
-0.00113819
0.00169117
-0.000921089
0.000430291
-0.000580106
-0.000609581
-0.000227613
-0.00127078
-2.19065e-05
-0.00156325
6.02499e-05
-0.00167793
7.36104e-05
-0.00170789
7.31021e-05
-0.00171366
6.48986e-05
-0.00172868
4.67906e-05
-0.00176749
2.08549e-05
-0.00183141
-8.6628e-06
-0.00191295
-4.1072e-05
-0.00200445
-7.45778e-05
-0.00210376
-0.00010332
-0.00221221
-0.000125118
-0.00233323
-0.000138461
-0.00246896
-0.000140286
-0.00261827
-0.00012557
-0.00277573
-8.73149e-05
-0.002929
-1.78121e-05
-0.00306255
9.70719e-05
-0.00317483
0.000279307
-0.00327577
0.000555083
-0.00337728
0.000944213
-0.0034861
0.0014397
-0.00356961
0.00196597
-0.00356798
0.00234888
-0.00331002
0.0021571
-0.00195003
-0.000102694
-0.00422386
-0.000826103
0.00648295
0.00074209
0.00313762
0.00140779
0.00199264
0.00164668
0.00101555
0.00158284
0.000292042
0.00121182
-0.000151014
0.000529581
-0.000315247
-0.000363853
-0.000244752
-0.00124116
-4.37831e-05
-0.00188644
6.51717e-05
-0.00222715
0.000113103
-0.00235811
0.000109047
-0.0023812
8.33419e-05
-0.00237097
6.33808e-05
-0.0023499
5.20343e-05
-0.00232934
4.43355e-05
-0.00231835
3.58024e-05
-0.00232223
2.47334e-05
-0.0023416
1.07077e-05
-0.00237544
-7.23144e-06
-0.00242403
-2.59892e-05
-0.00248538
-4.19688e-05
-0.00255739
-5.31036e-05
-0.00263755
-5.8303e-05
-0.00272179
-5.60466e-05
-0.00280353
-4.38313e-05
-0.0028733
-1.75445e-05
-0.00291855
2.74334e-05
-0.00291853
9.70525e-05
-0.00284796
0.000208744
-0.00267231
0.000379433
-0.00236025
0.000632153
-0.00190395
0.000983387
-0.00128937
0.0013514
-0.000299688
0.00135919
0.00114764
0.000709772
0.00164261
-0.00059766
-0.00248957
-0.0120486
-0.0155771
-0.00905366
-0.00588863
-0.00387372
-0.00283957
-0.00253249
-0.0026715
-0.00297682
-0.00321307
-0.00324919
-0.00317673
-0.00305649
-0.00294033
-0.00284987
-0.00277934
-0.00272013
-0.00266857
-0.0026255
-0.00259346
-0.00257544
-0.00257539
-0.00259419
-0.00262908
-0.00267523
-0.00272672
-0.00277612
-0.00281348
-0.00282474
-0.00279123
-0.00268831
-0.00247394
-0.00208913
-0.00145188
-0.000463678
0.000892148
0.00225548
0.0029693
0.00237582
)
;

boundaryField
{
    floor
    {
        type            calculated;
        value           nonuniform List<scalar> 
36
(
0
0
0
0
0
0
0
0
0
0
0
0
0
0
0
0
0
0
0
-4.83914e-06
-1.23782e-05
-1.85697e-05
-2.36403e-05
-2.11162e-05
-1.96191e-05
-1.84535e-05
-2.35097e-06
-3.78399e-06
-4.35946e-06
-5.04476e-06
-3.65659e-06
-7.64391e-06
-1.10004e-05
-1.12622e-05
-1.38364e-05
-1.19394e-05
)
;
    }
    ceiling
    {
        type            calculated;
        value           nonuniform List<scalar> 
43
(
-4.18438e-05
-4.11785e-05
-4.04781e-05
-2.74141e-05
-2.227e-05
-1.86049e-05
-1.5029e-05
-1.20045e-05
-9.92933e-06
-8.50209e-06
-7.66631e-06
-7.28579e-06
-7.13808e-06
-7.11132e-06
-7.12499e-06
-7.14638e-06
-7.17758e-06
-7.22041e-06
-7.26672e-06
-7.30732e-06
-7.31492e-06
-7.2762e-06
-7.19271e-06
-7.08117e-06
-6.95233e-06
-6.8092e-06
-6.64853e-06
-6.47528e-06
-6.2838e-06
-6.07869e-06
-5.85905e-06
-5.62516e-06
-5.37653e-06
-5.10586e-06
-4.81124e-06
-4.42484e-06
-4.13952e-06
-4.04928e-06
-4.18131e-06
-3.60358e-06
6.94076e-06
4.1789e-06
-5.3314e-05
)
;
    }
    sWall
    {
        type            calculated;
        value           uniform -0.000241399;
    }
    nWall
    {
        type            calculated;
        value           nonuniform List<scalar> 6(-5.43171e-05 -6.54339e-05 -6.88139e-05 -8.3326e-05 -9.16848e-05 -0.00011014);
    }
    sideWalls
    {
        type            empty;
        value           nonuniform 0();
    }
    glass1
    {
        type            calculated;
        value           nonuniform List<scalar> 9(-6.04583e-05 -0.000163402 -0.000250424 -0.000324646 -0.000387723 -0.000440785 -0.000487274 -0.000543334 -0.000605862);
    }
    glass2
    {
        type            calculated;
        value           nonuniform List<scalar> 2(-0.000286411 -0.000317012);
    }
    sun
    {
        type            calculated;
        value           uniform 0;
    }
    Table_master
    {
        type            calculated;
        value           nonuniform List<scalar> 9(-1.5364e-07 -1.53789e-07 -1.53839e-07 -1.53869e-07 -1.53889e-07 -1.53902e-07 -1.53906e-07 -1.539e-07 -1.5387e-07);
    }
    Table_slave
    {
        type            calculated;
        value           nonuniform List<scalar> 9(1.5353e-07 1.53515e-07 1.53468e-07 1.53431e-07 1.53408e-07 1.53408e-07 1.53413e-07 1.53451e-07 1.53535e-07);
    }
    inlet
    {
        type            calculated;
        value           uniform -0.0106584;
    }
    outlet
    {
        type            calculated;
        value           nonuniform List<scalar> 2(0.0123318 0.00356969);
    }
}


// ************************************************************************* //
