/*--------------------------------*- C++ -*----------------------------------*\
  =========                 |
  \\      /  F ield         | OpenFOAM: The Open Source CFD Toolbox
   \\    /   O peration     | Website:  https://openfoam.org
    \\  /    A nd           | Version:  6
     \\/     M anipulation  |
\*---------------------------------------------------------------------------*/
FoamFile
{
    version     2.0;
    format      ascii;
    class       volScalarField;
    location    "1200";
    object      k;
}
// * * * * * * * * * * * * * * * * * * * * * * * * * * * * * * * * * * * * * //

dimensions      [0 2 -2 0 0 0 0];

internalField   nonuniform List<scalar> 
778
(
0.000982963
0.00103744
0.000935062
0.00101093
0.00108754
0.00116
0.00122897
0.00129628
0.00136446
0.00143715
0.00151014
0.0015806
0.00165168
0.00173151
0.00182182
0.00074902
0.000737148
0.000602877
0.000461038
0.000338361
0.000204466
0.000156847
0.000145185
0.000144314
0.000150412
0.000150232
0.000144678
0.000135702
0.000134989
0.000173572
0.000222054
0.000240037
0.000215778
0.00271253
0.00522972
0.00140315
0.0013699
0.00143012
0.00150932
0.00159757
0.00169598
0.00180519
0.00192391
0.00205118
0.00217586
0.0022749
0.00230588
0.00225193
0.00220883
0.00211347
0.00204748
0.0018861
0.00179355
0.00151636
0.00124204
0.000955649
0.000714333
0.000578095
0.000507443
0.000470832
0.000441469
0.000407765
0.000358543
0.000291915
0.000233478
0.000303546
0.000456356
0.000961038
0.000524703
0.00491747
0.0118269
0.00201329
0.00165359
0.0016619
0.00172959
0.00181494
0.00191652
0.00203413
0.00216582
0.00231241
0.00247802
0.00265672
0.0028426
0.00304315
0.0032144
0.00309688
0.00299034
0.00277459
0.00276867
0.00244849
0.00197999
0.00153926
0.000960044
0.00068686
0.000534584
0.000438482
0.000372055
0.000322236
0.000281934
0.000246264
0.000227352
0.00055496
0.000893105
0.00255012
0.000704133
0.00768566
0.0216349
0.00298537
0.00183796
0.00175853
0.00179874
0.00185624
0.0019265
0.00201162
0.0021153
0.0022429
0.00240847
0.0026144
0.0028592
0.00313356
0.00339146
0.00355478
0.00371828
0.00351376
0.0041954
0.00369728
0.0033424
0.00287119
0.00231141
0.00168306
0.00127024
0.00100024
0.000803041
0.000644986
0.000506559
0.000383333
0.000479772
0.000764938
0.0011111
0.00133308
0.00153792
0.00132936
0.0109303
0.0342978
0.00469213
0.0019424
0.00173441
0.00174055
0.0017643
0.001798
0.00184778
0.0019228
0.00203159
0.00219417
0.00241751
0.00270212
0.00304038
0.00341064
0.00380655
0.00429262
0.00470183
0.00427759
0.00401629
0.0036493
0.00321877
0.00277386
0.00231904
0.00192908
0.00160593
0.00133688
0.00110766
0.000903648
0.000707668
0.000641135
0.000700002
0.000994021
0.00132685
0.00166566
0.00361124
0.00209381
0.00242316
0.00213703
0.0145134
0.0483921
0.00754375
0.00203459
0.00164237
0.00161335
0.00160443
0.00160197
0.00161634
0.00166309
0.0017579
0.00192051
0.0021564
0.00245987
0.00281864
0.00321708
0.00363883
0.00404603
0.00429295
0.00416668
0.003936
0.00357071
0.00315703
0.00274111
0.00235205
0.0020268
0.00175351
0.00151641
0.00130666
0.00111564
0.000932167
0.000803236
0.000748481
0.000800784
0.000898036
0.000901563
0.00101739
0.00159669
0.00529974
0.00283738
0.0185036
0.0605068
0.0117969
0.00223737
0.00153486
0.00146388
0.00142263
0.00138501
0.00136617
0.00139061
0.00148578
0.00166867
0.00193672
0.00227083
0.00265033
0.00306439
0.00349449
0.00387541
0.00408005
0.00401123
0.00374623
0.0033639
0.00295199
0.00256332
0.00222601
0.0019515
0.00172761
0.0015343
0.00136316
0.00120798
0.00106347
0.000943729
0.000865044
0.000837519
0.000840401
0.000846591
0.000899652
0.00159213
0.00835413
0.00423275
0.0222751
0.0694123
0.0176489
0.00297395
0.00148982
0.00133696
0.00125867
0.00118477
0.00113105
0.00113453
0.00124385
0.00147478
0.00180078
0.00218229
0.00258867
0.0030165
0.00345072
0.00381579
0.0039923
0.00389938
0.00359465
0.0031748
0.00273936
0.0023531
0.00204004
0.00179812
0.00161191
0.00146002
0.0013299
0.00121587
0.0011157
0.00103411
0.000980892
0.000962769
0.000975113
0.00099787
0.00113142
0.00307963
0.0192775
0.00795331
0.0233799
0.0704105
0.030018
0.00697538
0.00185001
0.0013121
0.00115811
0.00104203
0.000948926
0.000925745
0.00107343
0.00138199
0.00178006
0.00221283
0.00264531
0.00308557
0.00352166
0.00386883
0.00400759
0.00387498
0.0035155
0.00303947
0.00256323
0.0021589
0.00184802
0.00162088
0.00145709
0.00133803
0.00124374
0.00116706
0.00110629
0.00106403
0.00104547
0.00105335
0.00108521
0.00116564
0.00166854
0.00611523
0.0354788
0.0100719
0.0224005
0.0528947
0.0323097
0.0141208
0.00512627
0.0020159
0.00126634
0.00103111
0.000882423
0.000831256
0.00107318
0.00146548
0.00191468
0.00237801
0.00282462
0.00326243
0.0036887
0.00401655
0.00411597
0.00392224
0.00348772
0.00294233
0.00241693
0.00198817
0.0016731
0.00145431
0.00130605
0.00120862
0.00114054
0.00109199
0.00106025
0.00104671
0.00105265
0.00107477
0.00111706
0.00131238
0.00283676
0.0159667
0.0254852
0.0100692
0.0196951
0.0408268
0.0295134
0.0170882
0.00889284
0.00448366
0.00243764
0.00155981
0.00118056
0.00109752
0.00136983
0.00176888
0.00221536
0.0026775
0.0031204
0.00355195
0.00396742
0.0042647
0.00430031
0.00401409
0.00348034
0.00285444
0.00228159
0.00183748
0.00152807
0.00132385
0.0011916
0.00110768
0.00105675
0.00102533
0.00101042
0.00101316
0.0010339
0.00106681
0.0011405
0.00154416
0.00354472
0.0136445
0.023541
0.00973385
0.0164627
0.0329055
0.0263901
0.0178207
0.0113471
0.00710354
0.00454091
0.00308851
0.00232525
0.00200255
0.0020852
0.00235373
0.00272219
0.00314177
0.00355189
0.00396049
0.00435575
0.00460242
0.00453752
0.0041181
0.00345899
0.00275022
0.00214761
0.00171408
0.0014332
0.00125789
0.00114763
0.0010775
0.00103358
0.00100684
0.000994812
0.00100015
0.00102796
0.00108475
0.00127774
0.00203618
0.00390592
0.0113619
0.0216477
0.0105216
0.0138731
0.0275959
0.0241003
0.0179083
0.0128688
0.00919401
0.00664645
0.00497287
0.00394988
0.00340494
0.00317839
0.00320372
0.00343555
0.00377843
0.00412107
0.00448698
0.00485
0.00501289
0.0047927
0.0041903
0.00338848
0.00261806
0.00202903
0.0016482
0.0014234
0.00128994
0.00120654
0.001151
0.00111152
0.00107952
0.00105218
0.0010384
0.00105881
0.00117
0.00173174
0.00307358
0.00490799
0.0110953
0.0194089
0.0109899
0.013722
0.0257266
0.0238367
0.0182045
0.0139341
0.0107088
0.00832378
0.00662108
0.00546574
0.00474313
0.00429407
0.00414873
0.00431027
0.00457818
0.00481006
0.00511719
0.00543702
0.00545986
0.00500584
0.00417248
0.00324468
0.00248104
0.00197835
0.00169524
0.00154174
0.00145075
0.00139289
0.00135095
0.00131353
0.00126766
0.00120676
0.00114342
0.00113774
0.00140501
0.00265386
0.00444806
0.00673358
0.0111477
0.0181539
0.00956043
0.0113819
0.013508
0.0146513
0.0139562
0.0123562
0.0105191
0.00883333
0.00744708
0.0063944
0.00566391
0.00519758
0.00511324
0.00537631
0.00552603
0.00555624
0.00581281
0.00608503
0.00586858
0.00508369
0.00401056
0.003055
0.00243394
0.00210622
0.00192641
0.00182344
0.00176161
0.00172189
0.00168927
0.00164779
0.00158012
0.00147215
0.00134106
0.00131227
0.00168198
0.0029678
0.00506822
0.00766889
0.0109855
0.0139872
0.00826781
0.00457915
0.0065503
0.00801433
0.00824902
0.00783994
0.00722114
0.00662747
0.00620049
0.00605231
0.00635535
0.00679876
0.00649717
0.00619479
0.00652703
0.00674947
0.00611758
0.00494344
0.00374551
0.00306103
0.00269819
0.00250263
0.00238604
0.00231189
0.00226326
0.00222883
0.00219635
0.00215031
0.00207273
0.00194958
0.00179428
0.00172975
0.00197707
0.00291337
0.00473874
0.00720555
0.0105584
0.0162982
0.00812295
0.00468494
0.00644305
0.00740537
0.00780816
0.00777924
0.00755087
0.00730034
0.00721759
0.00754863
0.00827006
0.00836438
0.00688876
0.00649079
0.00734225
0.00739746
0.00608596
0.00473344
0.00395985
0.00361495
0.0034467
0.00333272
0.0032355
0.00315083
0.00308192
0.00303001
0.00299075
0.00295415
0.00290661
0.002833
0.00272138
0.00261477
0.00272201
0.00326366
0.00451157
0.00660715
0.0106657
0.0162568
0.00992372
0.0124435
0.0185603
0.0122629
0.00891456
0.00948995
0.00971302
0.00949411
0.00918443
0.00887449
0.00876866
0.00915532
0.00983204
0.00875851
0.00594348
0.00663692
0.00860557
0.00779592
0.00613402
0.00526661
0.00509444
0.00517896
0.00521003
0.00511092
0.00493051
0.00473011
0.00454413
0.00438538
0.00425951
0.00417435
0.00413864
0.00415227
0.00419497
0.00422563
0.00438406
0.00487539
0.00592358
0.00797364
0.013545
0.0183076
0.0108633
0.0118611
0.0142333
0.015624
0.0162474
0.0155906
0.0153239
0.0147176
0.0139703
0.0130168
0.0120088
0.0118082
0.0116748
0.00897032
0.00470736
0.00642376
0.0075882
0.00709406
0.00613243
0.0058763
0.00618476
0.00660152
0.00684119
0.00684673
0.00669077
0.00646515
0.00623041
0.00601815
0.00585391
0.00577658
0.00584144
0.00610504
0.00660218
0.00732026
0.00813648
0.0090846
0.0104718
0.0126734
0.0170128
0.0216755
0.0116745
0.01144
0.0082854
0.00808175
0.0085232
0.00881266
0.00854849
0.00806999
0.0075332
0.00700123
0.00657774
0.00611415
0.00585215
0.0045943
0.00278711
0.00287354
0.00298849
0.00271578
0.00256753
0.00259118
0.00269799
0.00280532
0.00287592
0.00290637
0.00291323
0.00291952
0.00294761
0.00302011
0.00316231
0.00339872
0.00374182
0.00418324
0.00469934
0.00526859
0.00588955
0.00658755
0.00735166
0.00821501
0.00929167
0.010694
0.0098637
)
;

boundaryField
{
    floor
    {
        type            kqRWallFunction;
        value           nonuniform List<scalar> 
36
(
0.00182182
0.00074902
0.000737148
0.000602877
0.000461038
0.000338361
0.000204466
0.000156847
0.000145185
0.000144314
0.000150412
0.000150232
0.000144678
0.000135702
0.000134989
0.000173572
0.000222054
0.000240037
0.000215778
0.000215778
0.000524703
0.000704133
0.00132936
0.00209381
0.00242316
0.00213703
0.00182182
0.00220883
0.00211347
0.00204748
0.00074902
0.00204748
0.0018861
0.00299034
0.00277459
0.00351376
)
;
    }
    ceiling
    {
        type            kqRWallFunction;
        value           nonuniform List<scalar> 
43
(
0.01144
0.0082854
0.00808175
0.0085232
0.00881266
0.00854849
0.00806999
0.0075332
0.00700123
0.00657774
0.00611415
0.00585215
0.0045943
0.00278711
0.00287354
0.00298849
0.00271578
0.00256753
0.00259118
0.00269799
0.00280532
0.00287592
0.00290637
0.00291323
0.00291952
0.00294761
0.00302011
0.00316231
0.00339872
0.00374182
0.00418324
0.00469934
0.00526859
0.00588955
0.00658755
0.00735166
0.00821501
0.00929167
0.010694
0.0098637
0.0113819
0.013508
0.00468494
)
;
    }
    sWall
    {
        type            kqRWallFunction;
        value           nonuniform List<scalar> 9(0.0224005 0.0196951 0.0164627 0.0138731 0.013722 0.0113819 0.0124435 0.0118611 0.01144);
    }
    nWall
    {
        type            kqRWallFunction;
        value           nonuniform List<scalar> 
14
(
0.00213703
0.00283738
0.00423275
0.0100692
0.00973385
0.0105216
0.0109899
0.00956043
0.00826781
0.00812295
0.00992372
0.0108633
0.0116745
0.0098637
)
;
    }
    sideWalls
    {
        type            empty;
    }
    glass1
    {
        type            kqRWallFunction;
        value           nonuniform List<scalar> 9(0.000982963 0.00271253 0.00491747 0.00768566 0.0109303 0.0145134 0.0185036 0.0222751 0.0233799);
    }
    glass2
    {
        type            kqRWallFunction;
        value           nonuniform List<scalar> 2(0.00795331 0.0100719);
    }
    sun
    {
        type            kqRWallFunction;
        value           nonuniform List<scalar> 
14
(
0.000982963
0.00103744
0.000935062
0.00101093
0.00108754
0.00116
0.00122897
0.00129628
0.00136446
0.00143715
0.00151014
0.0015806
0.00165168
0.00173151
)
;
    }
    Table_master
    {
        type            kqRWallFunction;
        value           nonuniform List<scalar> 9(0.000960044 0.00068686 0.000534584 0.000438482 0.000372055 0.000322236 0.000281934 0.000246264 0.000227352);
    }
    Table_slave
    {
        type            kqRWallFunction;
        value           nonuniform List<scalar> 9(0.00168306 0.00127024 0.00100024 0.000803041 0.000644986 0.000506559 0.000383333 0.000479772 0.000764938);
    }
    inlet
    {
        type            turbulentIntensityKineticEnergyInlet;
        intensity       0.05;
        value           uniform 0.0009375;
    }
    outlet
    {
        type            zeroGradient;
    }
}


// ************************************************************************* //
