/*--------------------------------*- C++ -*----------------------------------*\
  =========                 |
  \\      /  F ield         | OpenFOAM: The Open Source CFD Toolbox
   \\    /   O peration     | Website:  https://openfoam.org
    \\  /    A nd           | Version:  6
     \\/     M anipulation  |
\*---------------------------------------------------------------------------*/
FoamFile
{
    version     2.0;
    format      ascii;
    class       volScalarField;
    location    "1200";
    object      T;
}
// * * * * * * * * * * * * * * * * * * * * * * * * * * * * * * * * * * * * * //

dimensions      [0 0 0 1 0 0 0];

internalField   nonuniform List<scalar> 
778
(
302.324
302.008
302.539
301.99
302.045
302.761
301.983
302.017
302.097
302.98
301.977
302.017
302.056
302.161
303.192
301.971
302.019
302.069
302.097
302.238
303.393
301.965
302.019
302.085
302.121
302.136
302.326
303.568
301.959
302.019
302.101
302.154
302.167
302.176
302.426
303.73
301.953
302.016
302.114
302.187
302.214
302.202
302.225
302.572
303.941
301.946
302.012
302.123
302.218
302.264
302.258
302.229
302.318
303.022
303.927
301.938
302.006
302.127
302.244
302.313
302.319
302.285
302.261
302.632
303.336
303.932
301.928
301.994
302.125
302.261
302.358
302.381
302.348
302.301
302.402
302.958
303.481
303.965
301.915
301.974
302.112
302.267
302.392
302.44
302.413
302.359
302.345
302.67
303.162
303.578
304.035
301.9
301.946
302.084
302.255
302.409
302.489
302.475
302.417
302.372
302.517
302.909
303.312
303.704
303.984
301.884
301.908
302.039
302.219
302.401
302.517
302.529
302.474
302.416
302.467
302.744
303.106
303.463
303.723
304.135
301.866
301.978
302.155
302.359
302.517
302.566
302.523
302.462
302.47
302.661
302.963
303.286
303.529
303.948
301.838
301.911
302.066
302.274
302.474
302.581
302.574
302.521
302.501
302.637
302.882
303.165
303.403
303.607
301.819
301.853
301.967
302.153
302.37
302.54
302.6
302.589
302.578
302.664
302.853
303.092
303.305
303.363
294.511
301.811
301.809
301.878
302.017
302.218
302.418
302.556
302.615
302.645
302.717
302.865
303.059
303.235
303.2
296.048
294.736
301.783
301.811
301.896
302.046
302.239
302.423
302.552
302.641
302.734
302.867
303.034
303.177
303.069
297.543
295.408
297.397
301.769
301.807
301.897
302.048
302.226
302.39
302.526
302.651
302.786
302.926
303.019
302.881
298.302
296.063
296.637
298.971
300.161
301.754
301.759
301.8
301.887
302.018
302.166
302.311
302.446
302.572
302.67
302.665
302.275
298.392
296.595
297.551
299.684
300.346
300.654
301.462
301.747
301.739
301.747
301.78
301.848
301.946
302.056
302.165
302.254
302.287
302.163
301.553
298.461
297.199
298.728
299.936
301.521
300.785
301.417
301.761
301.747
301.737
301.728
301.726
301.742
301.78
301.833
301.887
301.917
301.877
301.655
300.958
298.695
298.084
299.682
300.562
301.618
301.424
301.814
301.757
301.752
301.743
301.73
301.714
301.698
301.69
301.688
301.682
301.652
301.55
301.281
300.631
299.136
299.052
300.356
301.108
301.826
301.913
301.788
301.759
301.759
301.753
301.743
301.726
301.7
301.668
301.63
301.582
301.507
301.371
301.105
300.592
299.713
299.898
300.84
301.501
302.028
301.821
301.78
301.762
301.764
301.764
301.76
301.749
301.727
301.692
301.643
301.577
301.485
301.345
301.119
300.764
300.332
300.601
301.261
301.773
302.17
301.814
301.779
301.765
301.767
301.772
301.776
301.775
301.763
301.738
301.697
301.637
301.552
301.434
301.269
301.051
300.883
301.219
301.612
301.967
302.26
301.815
301.781
301.769
301.771
301.779
301.789
301.797
301.798
301.789
301.765
301.724
301.664
301.583
301.479
301.379
301.342
301.606
301.88
302.104
302.315
301.821
301.785
301.773
301.774
301.784
301.798
301.814
301.826
301.831
301.826
301.809
301.779
301.739
301.695
301.662
301.737
301.867
302.05
302.194
302.346
301.827
301.789
301.777
301.776
301.788
301.805
301.825
301.846
301.863
301.873
301.875
301.872
301.865
301.863
301.89
301.941
302.032
302.146
302.246
302.364
301.835
301.793
301.781
301.779
301.792
301.809
301.832
301.858
301.882
301.901
301.916
301.929
301.944
301.964
301.993
302.041
302.109
302.193
302.271
302.371
301.842
301.798
301.785
301.782
301.794
301.812
301.836
301.864
301.892
301.916
301.935
301.953
301.971
301.995
302.028
302.075
302.136
302.209
302.28
302.373
301.85
301.803
301.789
301.784
301.797
301.814
301.837
301.865
301.895
301.92
301.94
301.956
301.973
301.996
302.03
302.077
302.14
302.213
302.284
302.374
301.858
301.808
301.794
301.787
301.798
301.815
301.837
301.864
301.893
301.918
301.937
301.951
301.966
301.986
302.019
302.068
302.136
302.213
302.286
302.375
301.866
301.813
301.799
301.791
301.799
301.814
301.835
301.86
301.887
301.912
301.93
301.943
301.956
301.974
302.004
302.056
302.129
302.212
302.289
302.377
301.874
301.819
301.804
301.8
301.8
301.813
301.832
301.855
301.88
301.903
301.922
301.934
301.945
301.96
301.989
302.042
302.121
302.212
302.294
302.382
301.882
301.827
301.813
301.814
301.802
301.812
301.828
301.849
301.871
301.893
301.911
301.924
301.934
301.948
301.974
302.027
302.112
302.21
302.298
302.388
301.891
301.837
301.827
301.837
301.81
301.81
301.824
301.842
301.863
301.883
301.901
301.914
301.924
301.936
301.96
302.011
302.101
302.207
302.302
302.394
301.899
301.853
301.851
301.908
301.828
301.812
301.819
301.836
301.854
301.873
301.89
301.904
301.914
301.925
301.947
301.996
302.087
302.201
302.303
302.399
301.91
301.876
301.92
301.884
301.823
301.817
301.829
301.846
301.863
301.879
301.893
301.904
301.916
301.935
301.98
302.072
302.191
302.3
302.4
301.923
301.936
301.899
301.859
301.822
301.824
301.838
301.854
301.869
301.883
301.894
301.906
301.925
301.967
302.056
302.178
302.292
302.398
301.964
301.922
301.875
301.844
301.825
301.831
301.845
301.859
301.872
301.885
301.898
301.917
301.957
302.041
302.162
302.28
302.392
302.033
301.895
301.86
301.837
301.829
301.837
301.85
301.863
301.876
301.889
301.909
301.95
302.029
302.147
302.266
302.382
302.044
301.882
301.853
301.837
301.835
301.843
301.854
301.867
301.881
301.903
301.945
302.023
302.133
302.25
302.371
302.024
301.896
301.861
301.847
301.842
301.849
301.86
301.875
301.899
301.944
302.021
302.125
302.237
302.36
302.216
301.948
301.947
301.874
301.86
301.861
301.871
301.896
301.945
302.025
302.123
302.227
302.351
302.388
302.118
302.011
301.934
301.891
301.876
301.896
301.95
302.034
302.128
302.224
302.344
302.388
302.166
302.084
301.997
301.913
301.904
301.957
302.047
302.14
302.226
302.342
302.394
302.221
302.161
302.019
301.934
301.967
302.063
302.159
302.235
302.345
302.411
302.292
302.181
302.016
301.989
302.079
302.182
302.25
302.352
302.438
302.315
302.159
302.039
302.099
302.208
302.27
302.364
302.451
302.277
302.149
302.128
302.236
302.294
302.381
302.392
302.24
302.185
302.264
302.319
302.403
302.351
302.247
302.295
302.345
302.429
302.354
302.324
302.365
302.455
302.399
302.38
302.476
302.462
302.49
302.526
)
;

boundaryField
{
    floor
    {
        type            wallHeatTransfer;
        Tinf            uniform 305.2;
        alphaWall       uniform 0.36;
        value           nonuniform List<scalar> 
36
(
302.297
302.587
302.387
302.372
302.383
302.406
302.435
302.465
302.496
302.526
302.555
302.584
302.611
302.638
302.665
302.692
302.724
302.757
302.839
302.839
302.699
302.629
302.581
302.52
302.447
302.553
302.297
302.23
302.226
302.232
302.587
302.232
302.317
302.15
302.181
302.134
)
;
    }
    ceiling
    {
        type            wallHeatTransfer;
        Tinf            uniform 303.2;
        alphaWall       uniform 0.36;
        value           nonuniform List<scalar> 
43
(
301.574
301.593
301.641
301.692
301.776
301.966
302.152
302.286
302.372
302.426
302.459
302.478
302.488
302.492
302.494
302.495
302.497
302.501
302.505
302.51
302.512
302.512
302.508
302.5
302.491
302.48
302.468
302.458
302.451
302.448
302.448
302.452
302.461
302.474
302.491
302.511
302.531
302.547
302.556
302.591
304.056
303.887
295.352
)
;
    }
    sWall
    {
        type            wallHeatTransfer;
        Tinf            uniform 315.2;
        alphaWall       uniform 0.54;
        value           nonuniform List<scalar> 9(304.973 305.026 305.135 305.284 305.24 305.475 302.068 302.498 303.096);
    }
    nWall
    {
        type            wallHeatTransfer;
        Tinf            uniform 308.2;
        alphaWall       uniform 0.54;
        value           nonuniform List<scalar> 
14
(
303.438
303.276
303.125
303.154
303.157
303.182
303.223
303.241
303.153
303.098
303.092
303.159
303.228
303.306
)
;
    }
    sideWalls
    {
        type            empty;
    }
    glass1
    {
        type            wallHeatTransfer;
        Tinf            uniform 315.2;
        alphaWall       uniform 4.3;
        value           nonuniform List<scalar> 9(311.484 310.744 310.267 309.897 309.596 309.346 309.121 308.956 308.991);
    }
    glass2
    {
        type            wallHeatTransfer;
        Tinf            uniform 308.2;
        alphaWall       uniform 4.3;
        value           nonuniform List<scalar> 2(305.69 305.616);
    }
    sun
    {
        type            wallHeatTransfer;
        Tinf            uniform 305.2;
        alphaWall       uniform 0.36;
        value           nonuniform List<scalar> 
14
(
302.806
302.518
302.5
302.479
302.461
302.446
302.432
302.418
302.405
302.391
302.377
302.36
302.341
302.32
)
;
    }
    Table_master
    {
        type            zeroGradient;
    }
    Table_slave
    {
        type            zeroGradient;
    }
    inlet
    {
        type            fixedValue;
        value           uniform 293.15;
    }
    outlet
    {
        type            zeroGradient;
    }
}


// ************************************************************************* //
