/*--------------------------------*- C++ -*----------------------------------*\
  =========                 |
  \\      /  F ield         | OpenFOAM: The Open Source CFD Toolbox
   \\    /   O peration     | Website:  https://openfoam.org
    \\  /    A nd           | Version:  6
     \\/     M anipulation  |
\*---------------------------------------------------------------------------*/
FoamFile
{
    version     2.0;
    format      ascii;
    class       volScalarField;
    location    "1200";
    object      T;
}
// * * * * * * * * * * * * * * * * * * * * * * * * * * * * * * * * * * * * * //

dimensions      [0 0 0 1 0 0 0];

internalField   nonuniform List<scalar> 
778
(
302.521
302.161
302.149
302.149
302.149
302.149
302.149
302.148
302.148
302.147
302.147
302.146
302.144
302.143
302.143
302.125
302.074
302.05
302.02
301.957
301.827
301.764
301.739
301.723
301.712
301.7
301.69
301.684
301.684
301.678
301.667
301.659
301.678
302.755
302.171
302.136
302.138
302.14
302.142
302.144
302.146
302.147
302.149
302.149
302.148
302.144
302.138
302.13
302.126
302.123
302.129
302.084
302.064
302.048
302.026
301.991
301.938
301.895
301.858
301.827
301.795
301.766
301.741
301.723
301.713
301.692
301.665
301.643
301.666
302.981
302.21
302.145
302.147
302.154
302.161
302.168
302.174
302.178
302.181
302.182
302.179
302.172
302.159
302.143
302.126
302.113
302.105
302.075
302.05
302.035
302.02
301.998
301.966
301.938
301.912
301.888
301.865
301.843
301.821
301.798
301.771
301.713
301.669
301.641
301.672
303.191
302.267
302.16
302.163
302.175
302.188
302.2
302.211
302.22
302.226
302.229
302.226
302.215
302.197
302.172
302.145
302.12
302.099
302.088
302.069
302.055
302.04
302.026
302.011
302.002
301.993
301.982
301.971
301.958
301.941
301.896
301.689
301.649
301.656
301.663
301.672
301.691
303.386
302.338
302.182
302.18
302.197
302.216
302.235
302.253
302.267
302.278
302.284
302.282
302.269
302.245
302.21
302.172
302.136
302.108
302.09
302.076
302.063
302.05
302.037
302.026
302.016
302.006
301.995
301.982
301.969
301.951
301.919
301.824
301.746
301.696
301.67
301.675
301.72
301.763
301.784
301.862
303.566
302.418
302.21
302.195
302.217
302.242
302.267
302.292
302.313
302.331
302.341
302.342
302.329
302.3
302.254
302.202
302.154
302.118
302.096
302.082
302.071
302.06
302.048
302.037
302.026
302.015
302.003
301.99
301.976
301.96
301.936
301.888
301.835
301.789
301.758
301.762
301.779
301.795
301.807
301.889
303.716
302.504
302.248
302.209
302.232
302.26
302.29
302.32
302.348
302.372
302.388
302.396
302.389
302.356
302.3
302.231
302.17
302.127
302.101
302.087
302.077
302.067
302.057
302.045
302.033
302.021
302.009
301.996
301.982
301.967
301.948
301.921
301.891
301.864
301.848
301.846
301.849
301.852
301.857
301.914
303.854
302.639
302.332
302.229
302.241
302.269
302.3
302.331
302.361
302.389
302.413
302.435
302.439
302.407
302.34
302.256
302.182
302.132
302.103
302.089
302.081
302.073
302.063
302.051
302.038
302.025
302.012
301.999
301.985
301.971
301.956
301.938
301.92
301.905
301.896
301.89
301.89
301.895
301.917
302.118
304.061
303.112
302.677
302.341
302.256
302.272
302.298
302.324
302.35
302.375
302.411
302.456
302.476
302.445
302.368
302.272
302.188
302.133
302.103
302.091
302.084
302.077
302.067
302.055
302.041
302.026
302.012
301.999
301.985
301.972
301.959
301.945
301.932
301.921
301.912
301.907
301.912
301.937
301.992
302.281
304.042
303.429
303.007
302.624
302.39
302.303
302.297
302.313
302.327
302.342
302.4
302.469
302.498
302.464
302.379
302.276
302.187
302.13
302.101
302.09
302.086
302.08
302.07
302.056
302.041
302.024
302.009
301.995
301.981
301.968
301.956
301.944
301.932
301.922
301.914
301.912
301.937
302.1
302.162
302.29
304.039
303.562
303.199
302.862
302.607
302.449
302.371
302.342
302.337
302.354
302.423
302.494
302.518
302.471
302.374
302.263
302.173
302.118
302.095
302.089
302.088
302.084
302.073
302.057
302.039
302.02
302.003
301.987
301.973
301.96
301.948
301.936
301.925
301.916
301.911
301.919
301.964
302.1
302.189
302.306
304.06
303.642
303.334
303.055
302.824
302.654
302.54
302.475
302.447
302.453
302.505
302.551
302.543
302.466
302.347
302.23
302.144
302.099
302.086
302.089
302.092
302.089
302.076
302.057
302.036
302.015
301.995
301.978
301.963
301.949
301.937
301.925
301.915
301.908
301.912
301.948
302.001
302.09
302.172
302.298
304.107
303.732
303.459
303.226
303.028
302.868
302.748
302.668
302.626
302.621
302.632
302.623
302.555
302.429
302.288
302.173
302.103
302.077
302.08
302.093
302.1
302.095
302.08
302.059
302.035
302.012
301.991
301.972
301.955
301.94
301.927
301.916
301.907
301.904
301.934
302.015
302.068
302.118
302.179
302.296
304.082
303.75
303.524
303.345
303.183
303.041
302.926
302.842
302.788
302.761
302.723
302.64
302.5
302.331
302.187
302.094
302.056
302.059
302.081
302.103
302.112
302.104
302.086
302.062
302.039
302.016
301.995
301.974
301.957
301.941
301.928
301.916
301.91
301.921
301.995
302.089
302.151
302.196
302.242
302.336
304.2
303.973
303.518
303.22
303.054
302.949
302.871
302.809
302.758
302.709
302.635
302.492
302.31
302.147
302.047
302.009
302.019
302.056
302.097
302.123
302.127
302.114
302.094
302.071
302.049
302.028
302.009
301.992
301.977
301.965
301.952
301.941
301.938
301.955
302.022
302.121
302.205
302.269
302.32
302.382
294.977
297.403
299.637
300.899
301.566
301.915
302.086
302.144
302.133
302.066
301.97
301.917
301.917
301.955
302.017
302.082
302.129
302.149
302.144
302.128
302.107
302.087
302.068
302.051
302.038
302.029
302.024
302.02
302.014
302.003
301.994
301.995
302.032
302.11
302.193
302.259
302.307
302.374
295.163
296.56
298.11
299.49
300.454
301.049
301.392
301.57
301.639
301.677
301.701
301.796
301.885
301.975
302.065
302.136
302.168
302.172
302.161
302.144
302.126
302.11
302.098
302.09
302.088
302.09
302.095
302.1
302.1
302.09
302.071
302.058
302.062
302.101
302.164
302.227
302.264
302.322
299.353
298.276
296.91
297.083
298.265
299.489
300.279
300.804
301.138
301.338
301.45
301.523
301.617
301.855
301.967
302.063
302.146
302.187
302.199
302.193
302.18
302.164
302.151
302.143
302.139
302.141
302.148
302.159
302.173
302.184
302.191
302.188
302.172
302.15
302.134
302.137
302.165
302.208
302.237
302.313
299.638
299.494
299.003
298.599
299.199
299.931
300.474
300.861
301.133
301.307
301.414
301.491
301.602
301.987
302.109
302.163
302.207
302.226
302.226
302.215
302.202
302.191
302.184
302.183
302.187
302.196
302.21
302.227
302.245
302.261
302.272
302.276
302.269
302.251
302.231
302.219
302.219
302.231
302.249
302.323
300.387
300.163
300.118
300.163
300.32
300.617
300.877
301.08
301.23
301.336
301.434
301.49
301.574
302.122
302.226
302.248
302.266
302.271
302.266
302.259
302.253
302.249
302.249
302.254
302.263
302.276
302.292
302.31
302.327
302.34
302.346
302.346
302.341
302.332
302.322
302.317
302.317
302.323
302.329
302.362
)
;

boundaryField
{
    floor
    {
        type            wallHeatTransfer;
        Tinf            uniform 305.2;
        alphaWall       uniform 0.36;
        value           nonuniform List<scalar> 
36
(
302.643
302.803
302.767
302.794
302.836
302.869
302.918
302.955
302.962
302.954
302.934
302.926
302.932
302.948
302.949
302.867
302.784
302.755
302.801
302.801
302.537
302.465
302.33
302.297
302.288
302.377
302.643
302.595
302.6
302.611
302.803
302.611
302.587
302.529
302.514
302.489
)
;
    }
    ceiling
    {
        type            wallHeatTransfer;
        Tinf            uniform 303.2;
        alphaWall       uniform 0.36;
        value           nonuniform List<scalar> 
43
(
300.615
300.443
300.405
300.44
300.579
300.853
301.094
301.284
301.425
301.524
301.618
301.671
301.763
302.273
302.361
302.378
302.399
302.405
302.401
302.393
302.385
302.381
302.381
302.385
302.392
302.403
302.416
302.429
302.441
302.448
302.449
302.445
302.436
302.424
302.412
302.403
302.4
302.4
302.402
302.434
304.118
303.913
296.077
)
;
    }
    sWall
    {
        type            wallHeatTransfer;
        Tinf            uniform 315.2;
        alphaWall       uniform 0.54;
        value           nonuniform List<scalar> 9(305.059 305.11 305.207 305.328 305.311 305.508 301.153 301.44 302.129);
    }
    nWall
    {
        type            wallHeatTransfer;
        Tinf            uniform 308.2;
        alphaWall       uniform 0.54;
        value           nonuniform List<scalar> 
14
(
303.227
303.124
302.984
303.021
303.045
303.016
303.003
303.077
303.158
303.156
303.054
303.02
303.01
303.09
)
;
    }
    sideWalls
    {
        type            empty;
    }
    glass1
    {
        type            wallHeatTransfer;
        Tinf            uniform 315.2;
        alphaWall       uniform 4.3;
        value           nonuniform List<scalar> 9(312.106 311.077 310.434 309.953 309.589 309.314 309.085 308.929 308.986);
    }
    glass2
    {
        type            wallHeatTransfer;
        Tinf            uniform 308.2;
        alphaWall       uniform 4.3;
        value           nonuniform List<scalar> 2(305.502 305.424);
    }
    sun
    {
        type            wallHeatTransfer;
        Tinf            uniform 305.2;
        alphaWall       uniform 0.36;
        value           nonuniform List<scalar> 
14
(
303.062
302.764
302.775
302.759
302.744
302.732
302.72
302.71
302.699
302.689
302.679
302.67
302.661
302.651
)
;
    }
    Table_master
    {
        type            zeroGradient;
    }
    Table_slave
    {
        type            zeroGradient;
    }
    inlet
    {
        type            fixedValue;
        value           uniform 293.15;
    }
    outlet
    {
        type            zeroGradient;
    }
}


// ************************************************************************* //
