/*--------------------------------*- C++ -*----------------------------------*\
  =========                 |
  \\      /  F ield         | OpenFOAM: The Open Source CFD Toolbox
   \\    /   O peration     | Website:  https://openfoam.org
    \\  /    A nd           | Version:  6
     \\/     M anipulation  |
\*---------------------------------------------------------------------------*/
FoamFile
{
    version     2.0;
    format      ascii;
    class       volVectorField;
    location    "1200";
    object      U;
}
// * * * * * * * * * * * * * * * * * * * * * * * * * * * * * * * * * * * * * //

dimensions      [0 1 -1 0 0 0 0];

internalField   nonuniform List<vector> 
778
(
(-0.0332731 0.0505403 0)
(-0.113302 0.00325853 0)
(0.0950284 0.112363 0)
(-0.100739 -0.00472274 0)
(-0.0392624 -0.0172197 0)
(0.245418 0.186851 0)
(-0.0968299 0.00566883 0)
(0.0312944 -0.0455699 0)
(0.144108 0.00170731 0)
(0.419457 -0.0703747 0)
(-0.0984667 0.00556658 0)
(0.0319873 -0.0120756 0)
(0.152931 -0.0318894 0)
(0.230026 -0.108195 0)
(0.433268 -0.266113 0)
(-0.105198 -0.00196161 0)
(0.0279575 0.0178735 0)
(0.157635 0.00230165 0)
(0.233093 -0.0694686 0)
(0.133541 -0.166046 0)
(0.421529 -0.365424 0)
(-0.10753 -0.00693339 0)
(0.00571973 0.0295387 0)
(0.140997 0.0413006 0)
(0.242321 -0.0035908 0)
(0.163528 -0.0570007 0)
(0.0257167 -0.182205 0)
(0.400457 -0.425417 0)
(-0.101023 -0.00835983 0)
(-0.0390882 0.0108041 0)
(0.105553 0.0636688 0)
(0.20787 0.0602407 0)
(0.185953 0.0374621 0)
(0.0853056 -0.0418389 0)
(-0.0397814 -0.19136 0)
(0.356078 -0.447928 0)
(-0.0909354 -0.00951042 0)
(-0.067216 -0.00832555 0)
(0.0603334 0.0623622 0)
(0.157068 0.100024 0)
(0.165846 0.106872 0)
(0.115449 0.0576933 0)
(0.0364232 -0.0391469 0)
(-0.0636227 -0.193035 0)
(0.270168 -0.441228 0)
(-0.0786334 -0.00939231 0)
(-0.0707473 -0.0165577 0)
(0.00886544 0.0366826 0)
(0.104488 0.108291 0)
(0.127975 0.147413 0)
(0.102843 0.131923 0)
(0.0568923 0.0645447 0)
(0.00752352 -0.0349779 0)
(-0.0599002 -0.191024 0)
(0.12801 -0.434024 0)
(-0.0669301 -0.00866247 0)
(-0.0634273 -0.0184844 0)
(-0.0358074 -0.0098455 0)
(0.052619 0.0856553 0)
(0.0878109 0.154355 0)
(0.0762359 0.178407 0)
(0.0434126 0.146402 0)
(0.00822879 0.07577 0)
(-0.0116288 -0.0147534 0)
(-0.044581 -0.192942 0)
(0.104961 -0.43039 0)
(-0.0577664 -0.00792541 0)
(-0.0545392 -0.0166154 0)
(-0.0401489 -0.0242051 0)
(0.00758321 0.0349179 0)
(0.048564 0.125887 0)
(0.0489988 0.186826 0)
(0.0236943 0.198928 0)
(-0.00816784 0.162968 0)
(-0.0299022 0.0950258 0)
(-0.019552 0.0066676 0)
(-0.0314568 -0.193189 0)
(0.0725298 -0.432368 0)
(-0.0491105 -0.00753613 0)
(-0.0478185 -0.0139425 0)
(-0.0351008 -0.0245446 0)
(-0.0186341 -0.0175293 0)
(0.015462 0.0667028 0)
(0.0241056 0.152844 0)
(0.00757497 0.206619 0)
(-0.0212009 0.211574 0)
(-0.0459025 0.174794 0)
(-0.0505768 0.115254 0)
(-0.0163808 0.0385972 0)
(-0.0295136 -0.205053 0)
(0.0255084 -0.417264 0)
(-0.0281353 -0.00948629 0)
(-0.0448261 -0.0139974 0)
(-0.028381 -0.0192231 0)
(-0.0215108 -0.0275639 0)
(-0.00336285 0.00176384 0)
(0.00625123 0.0846415 0)
(-0.00363361 0.164279 0)
(-0.0267555 0.211899 0)
(-0.0532662 0.215417 0)
(-0.0685636 0.18532 0)
(-0.0588071 0.141276 0)
(-0.00825847 0.071475 0)
(-0.0501044 -0.228274 0)
(-0.056615 -0.317553 0)
(0.0223628 -0.0226652 0)
(-0.0432448 -0.0226749 0)
(-0.0215011 -0.0118374 0)
(-0.0210158 -0.0251338 0)
(-0.0134263 -0.0220471 0)
(-0.00266443 0.0161622 0)
(-0.00765923 0.0900088 0)
(-0.0260458 0.163622 0)
(-0.0509782 0.207564 0)
(-0.073086 0.21465 0)
(-0.0800287 0.197018 0)
(-0.0614561 0.17464 0)
(0.0109644 0.0929541 0)
(-0.149457 -0.217715 0)
(-0.222589 -0.079185 0)
(-0.040595 -0.0541422 0)
(-0.0149375 -0.00462296 0)
(-0.0190396 -0.0203165 0)
(-0.0190407 -0.0228379 0)
(-0.0132196 -0.0123486 0)
(-0.0104835 0.0257402 0)
(-0.0214289 0.0899618 0)
(-0.0424146 0.155448 0)
(-0.0662051 0.197838 0)
(-0.0838983 0.21192 0)
(-0.0865677 0.211197 0)
(-0.0636987 0.220353 0)
(0.0469613 0.0146389 0)
(-0.446057 -0.0681169 0)
(-0.0455785 -0.120487 0)
(-0.0110294 -0.00181425 0)
(-0.0167377 -0.0177995 0)
(-0.0224781 -0.0179597 0)
(-0.0231899 -0.0159096 0)
(-0.0202801 -0.000919295 0)
(-0.0223018 0.0332674 0)
(-0.0339101 0.0864629 0)
(-0.0537574 0.14385 0)
(-0.0749988 0.185882 0)
(-0.0903912 0.208702 0)
(-0.0959439 0.228003 0)
(-0.071485 0.294479 0)
(-0.632307 -0.0300946 0)
(-0.101152 -0.119035 0)
(-0.0152355 -0.00696677 0)
(-0.0175615 -0.0207416 0)
(-0.02522 -0.012871 0)
(-0.0312533 -0.0121717 0)
(-0.0313122 -0.00584789 0)
(-0.0313387 0.0100698 0)
(-0.034444 0.0387187 0)
(-0.044661 0.0820714 0)
(-0.0616456 0.131845 0)
(-0.0805402 0.173635 0)
(-0.097901 0.204501 0)
(-0.120875 0.2429 0)
(-0.0864372 0.306574 0)
(-2.29201 0.0204029 0)
(0.272453 -0.198813 0)
(-0.0649885 -0.0264929 0)
(-0.0318535 -0.0308217 0)
(-0.029538 -0.00904818 0)
(-0.0388426 -0.00765566 0)
(-0.0411922 -0.00285372 0)
(-0.0416494 0.00501653 0)
(-0.0420491 0.019273 0)
(-0.045393 0.0430602 0)
(-0.0536972 0.0782197 0)
(-0.0676642 0.12097 0)
(-0.0858395 0.161217 0)
(-0.11211 0.195274 0)
(-0.187712 0.224731 0)
(0.000326911 0.182028 0)
(-1.02353 0.234109 0)
(0.245521 0.0807543 0)
(-0.0592261 -0.0487601 0)
(-0.0402255 -0.00479893 0)
(-0.0471577 -0.00452871 0)
(-0.0500641 0.00169488 0)
(-0.0508768 0.0064431 0)
(-0.0507438 0.0141469 0)
(-0.0515596 0.0269458 0)
(-0.0545386 0.0465985 0)
(-0.0610018 0.0751556 0)
(-0.0727487 0.1111 0)
(-0.0925612 0.146429 0)
(-0.135342 0.17036 0)
(-0.229728 0.149034 0)
(0.225549 0.0308725 0)
(-0.490429 0.318584 0)
(-0.0451035 -0.0572496 0)
(-0.0568155 0.00625207 0)
(-0.0568192 -0.00252276 0)
(-0.0583148 0.00555911 0)
(-0.0587538 0.00940334 0)
(-0.0586353 0.0143495 0)
(-0.0585316 0.0218143 0)
(-0.0592199 0.032946 0)
(-0.0613136 0.0491769 0)
(-0.0660275 0.0721331 0)
(-0.076225 0.100544 0)
(-0.0982923 0.124739 0)
(-0.137274 0.12087 0)
(-0.15746 0.0578344 0)
(0.315714 -0.0042322 0)
(-0.0642786 0.244987 0)
(0.111732 0.125624 0)
(-0.0634188 -0.15295 0)
(-0.0691953 0.0265955 0)
(-0.0661198 0.000821579 0)
(-0.066094 0.00846851 0)
(-0.0656365 0.0122357 0)
(-0.0653422 0.0161205 0)
(-0.064869 0.0209847 0)
(-0.0644358 0.0277459 0)
(-0.0642776 0.0371832 0)
(-0.0647609 0.050268 0)
(-0.0671085 0.0676792 0)
(-0.0742716 0.0862268 0)
(-0.0879135 0.0918225 0)
(-0.079862 0.0617157 0)
(0.0171012 0.0429174 0)
(0.326684 -0.079493 0)
(0.14116 0.163136 0)
(0.142779 0.196912 0)
(0.406567 0.419898 0)
(-0.0764287 0.0169024 0)
(-0.0772549 0.0247428 0)
(-0.0735341 0.00752471 0)
(-0.0729888 0.0112721 0)
(-0.0718186 0.0146917 0)
(-0.0709852 0.0180255 0)
(-0.0701752 0.0216278 0)
(-0.0690871 0.0260516 0)
(-0.0675788 0.0318361 0)
(-0.065512 0.0393924 0)
(-0.0629211 0.0489743 0)
(-0.0601865 0.0593471 0)
(-0.0556912 0.0649567 0)
(-0.0331236 0.0544882 0)
(0.0451468 0.0459878 0)
(0.290906 -0.134005 0)
(0.526862 0.422726 0)
(0.238305 0.176295 0)
(0.285788 0.474871 0)
(-0.217366 0.0202079 0)
(-0.0463454 0.00362231 0)
(-0.0774201 0.0199772 0)
(-0.0797963 0.012746 0)
(-0.0785009 0.0142218 0)
(-0.0772098 0.0170045 0)
(-0.0757725 0.0196944 0)
(-0.0744595 0.0225662 0)
(-0.0728045 0.0256821 0)
(-0.0703215 0.0293784 0)
(-0.0664583 0.033841 0)
(-0.0605344 0.0389537 0)
(-0.051388 0.0434753 0)
(-0.0353674 0.0450498 0)
(0.00159625 0.0422153 0)
(0.0836734 0.0471283 0)
(0.278667 -0.170344 0)
(0.543512 0.453006 0)
(0.336698 0.534283 0)
(-0.200653 -0.00142015 0)
(0.012726 0.00134444 0)
(-0.0687234 0.00669459 0)
(-0.0768658 0.0127185 0)
(-0.0834086 0.0167197 0)
(-0.0829783 0.0167805 0)
(-0.0815693 0.0190839 0)
(-0.0797565 0.0211596 0)
(-0.0778568 0.023401 0)
(-0.0755625 0.0256831 0)
(-0.0721945 0.0280871 0)
(-0.0668465 0.030674 0)
(-0.0583202 0.0331903 0)
(-0.0445818 0.0343374 0)
(-0.0208979 0.0324864 0)
(0.0251814 0.0312645 0)
(0.111033 0.047461 0)
(0.285672 -0.200756 0)
(0.529265 0.483852 0)
(-0.145867 -0.00620541 0)
(0.0490958 0.00150956 0)
(-0.0240048 0.00241458 0)
(-0.0756684 0.00720312 0)
(-0.0839525 0.0143085 0)
(-0.0860502 0.016971 0)
(-0.0863044 0.0190626 0)
(-0.0849356 0.0206349 0)
(-0.0828865 0.0223677 0)
(-0.0804537 0.0240528 0)
(-0.0774607 0.0256921 0)
(-0.0731823 0.0272043 0)
(-0.0664571 0.0285409 0)
(-0.0556818 0.0293929 0)
(-0.0382611 0.0285381 0)
(-0.00908201 0.024668 0)
(0.0427374 0.0233084 0)
(0.131656 0.0448146 0)
(0.292565 -0.217182 0)
(0.518682 0.512738 0)
(0.0522891 0.00095308 0)
(-0.0023246 0.00298731 0)
(-0.0281969 0.00243906 0)
(-0.0823549 0.00533294 0)
(-0.0881733 0.0142039 0)
(-0.089377 0.017519 0)
(-0.0888322 0.0197881 0)
(-0.0874005 0.0216493 0)
(-0.0851766 0.0231376 0)
(-0.0822867 0.0244614 0)
(-0.0785963 0.0255905 0)
(-0.0733787 0.0264298 0)
(-0.0653137 0.0268641 0)
(-0.0524954 0.0265674 0)
(-0.0320038 0.0244147 0)
(0.00167991 0.0193357 0)
(0.0572394 0.0175865 0)
(0.147413 0.0414224 0)
(0.293905 -0.223191 0)
(0.509086 0.532836 0)
(0.00688483 -0.000593547 0)
(-0.00794745 -0.000682489 0)
(-0.0323853 0.00148322 0)
(-0.0900177 0.0021122 0)
(-0.0921049 0.0127638 0)
(-0.0917752 0.0166132 0)
(-0.0908886 0.0196392 0)
(-0.0891543 0.0217141 0)
(-0.0867003 0.0233399 0)
(-0.0834047 0.0245088 0)
(-0.0790446 0.025301 0)
(-0.0728914 0.0256405 0)
(-0.0635231 0.0254035 0)
(-0.0488312 0.0242845 0)
(-0.0257103 0.021282 0)
(0.0112517 0.0156351 0)
(0.0695296 0.0135196 0)
(0.159549 0.0383586 0)
(0.292095 -0.223047 0)
(0.498088 0.544109 0)
(-0.00332614 -0.00327119 0)
(-0.00889902 -0.00213089 0)
(-0.0354554 -0.00488208 0)
(-0.0956561 0.00109682 0)
(-0.095807 0.010127 0)
(-0.0938629 0.014602 0)
(-0.0922985 0.0182673 0)
(-0.0903371 0.0209068 0)
(-0.0875889 0.0227871 0)
(-0.0838833 0.0240645 0)
(-0.0788804 0.0247237 0)
(-0.0718154 0.0247472 0)
(-0.0612029 0.0240376 0)
(-0.0448045 0.0223376 0)
(-0.0194474 0.0187938 0)
(0.0199771 0.0129362 0)
(0.0799678 0.0106622 0)
(0.168735 0.035918 0)
(0.289156 -0.219265 0)
(0.486422 0.547822 0)
(0.00131145 -0.0034401 0)
(-0.00952497 -0.00406008 0)
(-0.0394365 -0.00530884 0)
(-0.0997658 -2.779e-05 0)
(-0.0990106 0.00745877 0)
(-0.0956907 0.0118346 0)
(-0.0933557 0.0159094 0)
(-0.0910109 0.0191035 0)
(-0.0879654 0.0214415 0)
(-0.0838269 0.0229906 0)
(-0.0781886 0.023742 0)
(-0.0702379 0.0236492 0)
(-0.0584535 0.0226631 0)
(-0.040523 0.0205965 0)
(-0.013285 0.0167354 0)
(0.0279945 0.0108719 0)
(0.0889217 0.00862271 0)
(0.175634 0.0340182 0)
(0.286008 -0.213538 0)
(0.47508 0.545824 0)
(0.00558108 -0.0035159 0)
(-0.00899399 -0.0033275 0)
(-0.0420774 -0.00456256 0)
(-0.102258 -0.000952761 0)
(-0.101523 0.00518005 0)
(-0.0971309 0.00879902 0)
(-0.0941241 0.0128371 0)
(-0.0913363 0.0164213 0)
(-0.0879266 0.0192434 0)
(-0.0833415 0.0212117 0)
(-0.0770645 0.022234 0)
(-0.0682464 0.0222349 0)
(-0.0553576 0.0211686 0)
(-0.036065 0.0189379 0)
(-0.0072656 0.0149499 0)
(0.035363 0.00921874 0)
(0.0966422 0.00712377 0)
(0.18088 0.0324722 0)
(0.283065 -0.207104 0)
(0.464336 0.540243 0)
(0.00919649 -0.00304418 0)
(-0.00900167 -0.00275121 0)
(-0.0442565 -0.00387631 0)
(-0.10329 -0.00181428 0)
(-0.103065 0.00306258 0)
(-0.0979395 0.00576655 0)
(-0.0945215 0.00933098 0)
(-0.0913562 0.0130263 0)
(-0.0875683 0.0162419 0)
(-0.0825138 0.018674 0)
(-0.0755985 0.020105 0)
(-0.0659303 0.0203853 0)
(-0.0519934 0.0194429 0)
(-0.0314856 0.0172306 0)
(-0.0013793 0.0132866 0)
(0.0421643 0.00780628 0)
(0.103346 0.0059644 0)
(0.18495 0.0311419 0)
(0.280503 -0.200809 0)
(0.454079 0.533008 0)
(0.0121768 -0.00263642 0)
(-0.00954443 -0.00237009 0)
(-0.0460349 -0.00320916 0)
(-0.102876 -0.0026687 0)
(-0.103525 0.000905949 0)
(-0.0978568 0.00273298 0)
(-0.0943605 0.00554359 0)
(-0.0910149 0.00908575 0)
(-0.0869157 0.0125242 0)
(-0.0814069 0.0153814 0)
(-0.0738616 0.017285 0)
(-0.0633685 0.0179891 0)
(-0.0484375 0.0173646 0)
(-0.0268464 0.0153607 0)
(0.00437434 0.0116062 0)
(0.0484716 0.00648776 0)
(0.109266 0.0050015 0)
(0.188171 0.0299462 0)
(0.27833 -0.195152 0)
(0.444166 0.525593 0)
(0.0147873 -0.00231352 0)
(-0.0102577 -0.00199018 0)
(-0.0473757 -0.00255539 0)
(-0.100865 -0.00354959 0)
(-0.102847 -0.00143999 0)
(-0.096674 -0.000363184 0)
(-0.0934339 0.00149755 0)
(-0.0901843 0.00469604 0)
(-0.0859305 0.00818038 0)
(-0.0800375 0.0113666 0)
(-0.071899 0.0137406 0)
(-0.0606204 0.0149541 0)
(-0.044756 0.014803 0)
(-0.0221892 0.0132039 0)
(0.00987161 0.00980955 0)
(0.0543468 0.00513774 0)
(0.114559 0.00412216 0)
(0.190738 0.0288208 0)
(0.276448 -0.190369 0)
(0.434505 0.518971 0)
(0.0171481 -0.00206992 0)
(-0.011117 -0.00142601 0)
(-0.0481776 -0.00201362 0)
(-0.096716 -0.00441486 0)
(-0.101112 -0.00408104 0)
(-0.094305 -0.00353058 0)
(-0.0915468 -0.00282949 0)
(-0.0886995 -0.00011825 0)
(-0.0845249 0.0032687 0)
(-0.0783802 0.00666919 0)
(-0.0697233 0.00946274 0)
(-0.057725 0.0112145 0)
(-0.0409972 0.0116416 0)
(-0.0175581 0.0106022 0)
(0.0151849 0.00773766 0)
(0.059831 0.00361624 0)
(0.119298 0.00322095 0)
(0.192776 0.0277182 0)
(0.274713 -0.186521 0)
(0.425038 0.513672 0)
(0.0192352 -0.0018427 0)
(-0.0122873 -0.000777715 0)
(-0.0480296 -0.00176355 0)
(-0.0893951 -0.00522966 0)
(-0.098256 -0.00727947 0)
(-0.0905774 -0.00673431 0)
(-0.0886156 -0.00743175 0)
(-0.0864504 -0.00533473 0)
(-0.0825565 -0.00218175 0)
(-0.0763692 0.00132319 0)
(-0.067311 0.00446114 0)
(-0.0546932 0.00672827 0)
(-0.0371997 0.00778429 0)
(-0.0129833 0.00741379 0)
(0.0203136 0.00521323 0)
(0.0649647 0.00176921 0)
(0.123526 0.00219631 0)
(0.194372 0.0265916 0)
(0.272971 -0.183562 0)
(0.415727 0.509884 0)
(0.0210667 -0.001568 0)
(-0.0136271 -0.000302833 0)
(-0.0462241 -0.0018261 0)
(-0.0792466 -0.00732521 0)
(-0.094403 -0.0117365 0)
(-0.0852754 -0.00996853 0)
(-0.084446 -0.0123525 0)
(-0.0833428 -0.0109536 0)
(-0.0800435 -0.00811101 0)
(-0.0739025 -0.00460451 0)
(-0.0645517 -0.00121742 0)
(-0.0514809 0.00150374 0)
(-0.0333465 0.00317404 0)
(-0.00848624 0.00352107 0)
(0.0252248 0.00208842 0)
(0.0699134 -0.000474362 0)
(0.127226 0.000955483 0)
(0.19553 0.0253774 0)
(0.271079 -0.181388 0)
(0.406539 0.507559 0)
(0.0224937 -0.00136078 0)
(-0.0138456 0.00100488 0)
(-0.0451236 0.0029882 0)
(-0.0713042 -0.0176098 0)
(-0.0911661 -0.0191355 0)
(-0.0783102 -0.0133452 0)
(-0.0788524 -0.0176652 0)
(-0.0792305 -0.0170385 0)
(-0.0768902 -0.01454 0)
(-0.0711225 -0.011025 0)
(-0.0616838 -0.00741032 0)
(-0.048079 -0.00430688 0)
(-0.0292792 -0.00209434 0)
(-0.00382363 -0.00104911 0)
(0.0301183 -0.00160974 0)
(0.0743574 -0.00310124 0)
(0.130135 -0.000517526 0)
(0.196213 0.0240203 0)
(0.268912 -0.179869 0)
(0.397439 0.506511 0)
(0.0237072 -0.00149742 0)
(-0.0133749 0.00602717 0)
(-0.0449759 0.000559799 0)
(-0.0491401 -0.0265134 0)
(-0.0923405 -0.032529 0)
(-0.0702036 -0.0170585 0)
(-0.0717304 -0.0234977 0)
(-0.0739679 -0.0236753 0)
(-0.0730207 -0.021542 0)
(-0.0679406 -0.0179906 0)
(-0.0586636 -0.0140928 0)
(-0.0448783 -0.0105246 0)
(-0.0257194 -0.00770625 0)
(0.000134427 -0.00595471 0)
(0.0341133 -0.00558442 0)
(0.0778065 -0.00598452 0)
(0.132282 -0.00217133 0)
(0.196348 0.0224676 0)
(0.266357 -0.178864 0)
(0.388386 0.506485 0)
(0.0246944 -0.000492222 0)
(-0.0176016 0.0119769 0)
(-0.0665108 -0.00936952 0)
(0.0943843 -0.0172308 0)
(-0.0978518 -0.0525179 0)
(-0.0619987 -0.0202369 0)
(-0.0632146 -0.0299162 0)
(-0.0674355 -0.0309589 0)
(-0.0683553 -0.0292149 0)
(-0.0643362 -0.0255707 0)
(-0.0554886 -0.0213298 0)
(-0.0417557 -0.0172249 0)
(-0.0224771 -0.0136865 0)
(0.00346692 -0.0111177 0)
(0.0372814 -0.00976651 0)
(0.080396 -0.00906993 0)
(0.133641 -0.00399175 0)
(0.195881 0.0206702 0)
(0.263323 -0.178244 0)
(0.379324 0.507218 0)
(0.0208425 0.00508602 0)
(-0.0658418 0.0125832 0)
(0.231312 0.0136185 0)
(-0.10369 -0.0894127 0)
(-0.0543409 -0.0198365 0)
(-0.0534187 -0.0364811 0)
(-0.0595806 -0.0388861 0)
(-0.0628361 -0.0376674 0)
(-0.0602931 -0.0338486 0)
(-0.0521603 -0.0291788 0)
(-0.0387319 -0.0244786 0)
(-0.0195601 -0.0201554 0)
(0.00625784 -0.0166479 0)
(0.0397531 -0.0142596 0)
(0.0821787 -0.0124112 0)
(0.134216 -0.00600408 0)
(0.194758 0.0185847 0)
(0.259731 -0.177901 0)
(0.370185 0.508471 0)
(-0.0425772 0.0135384 0)
(0.209682 -0.000320718 0)
(-0.119337 -0.183567 0)
(-0.0509868 -0.0137798 0)
(-0.0414021 -0.0420641 0)
(-0.0501274 -0.047159 0)
(-0.0564573 -0.0469671 0)
(-0.0558391 -0.0429143 0)
(-0.0486906 -0.037692 0)
(-0.0358091 -0.0323336 0)
(-0.0169795 -0.0271839 0)
(0.00851667 -0.0226788 0)
(0.0415419 -0.0191784 0)
(0.0831794 -0.0160872 0)
(0.134 -0.00824861 0)
(0.192932 0.0161522 0)
(0.255512 -0.177744 0)
(0.360884 0.510047 0)
(0.139725 -0.00615087 0)
(-0.0980217 -0.195144 0)
(-0.0633116 -0.00486878 0)
(-0.0262297 -0.0451578 0)
(-0.0373817 -0.0550784 0)
(-0.0490343 -0.0570682 0)
(-0.0511087 -0.0528387 0)
(-0.045137 -0.0469097 0)
(-0.032998 -0.0408153 0)
(-0.0147368 -0.0348121 0)
(0.0102361 -0.029275 0)
(0.0426422 -0.0246034 0)
(0.0833907 -0.0201644 0)
(0.132974 -0.0107769 0)
(0.190358 0.0133009 0)
(0.250603 -0.177705 0)
(0.35132 0.511796 0)
(0.182098 -0.217494 0)
(-0.10398 0.00131921 0)
(-0.021422 -0.0432668 0)
(-0.0178874 -0.0613008 0)
(-0.0390928 -0.0677605 0)
(-0.0462166 -0.0636436 0)
(-0.041679 -0.0568373 0)
(-0.0303409 -0.0499194 0)
(-0.0128391 -0.0430488 0)
(0.0114086 -0.0364688 0)
(0.0430355 -0.0305829 0)
(0.0827911 -0.0246966 0)
(0.131105 -0.013644 0)
(0.186981 0.00994871 0)
(0.244937 -0.177735 0)
(0.341378 0.513615 0)
(0.230701 -0.0587579 0)
(-0.121204 -0.0396079 0)
(0.0045834 -0.0632865 0)
(-0.023757 -0.0783019 0)
(-0.0403318 -0.075314 0)
(-0.0385696 -0.0674149 0)
(-0.0279777 -0.0595929 0)
(-0.0113094 -0.0518623 0)
(0.0120218 -0.0442593 0)
(0.0427008 -0.0371399 0)
(0.081351 -0.0297205 0)
(0.128351 -0.0169074 0)
(0.182735 0.00600769 0)
(0.238431 -0.177794 0)
(0.330924 0.515437 0)
(0.33199 -0.0980612 0)
(-0.102468 -0.0642258 0)
(-0.00894896 -0.0856794 0)
(-0.0322613 -0.0875149 0)
(-0.0352548 -0.0786004 0)
(-0.0261582 -0.0697069 0)
(-0.0102341 -0.0611662 0)
(0.0120566 -0.0525997 0)
(0.041616 -0.0442627 0)
(0.0790413 -0.0352514 0)
(0.124671 -0.0206232 0)
(0.177543 0.00138813 0)
(0.230984 -0.177854 0)
(0.319808 0.517228 0)
(0.525256 -0.0824273 0)
(-0.107411 -0.0879015 0)
(-0.0351884 -0.0973731 0)
(-0.0303312 -0.0904783 0)
(-0.0244149 -0.0801656 0)
(-0.00981768 -0.0708032 0)
(0.011456 -0.0613835 0)
(0.0397556 -0.0518878 0)
(0.0758361 -0.0412709 0)
(0.120023 -0.0248392 0)
(0.171321 -0.00399536 0)
(0.222473 -0.177885 0)
(0.307855 0.518971 0)
(0.548127 -0.0597728 0)
(-0.0974125 -0.0970246 0)
(-0.0348638 -0.101542 0)
(-0.0206605 -0.091365 0)
(-0.00967482 -0.0806433 0)
(0.0100603 -0.0704436 0)
(0.0370636 -0.0598809 0)
(0.0717085 -0.0477025 0)
(0.114373 -0.0295786 0)
(0.163979 -0.0102126 0)
(0.212762 -0.177858 0)
(0.294871 0.520666 0)
(0.26261 -0.0652946 0)
(-0.101676 -0.103568 0)
(-0.0220034 -0.103639 0)
(-0.00754608 -0.0911929 0)
(0.00815911 -0.0796394 0)
(0.0333917 -0.0680412 0)
(0.0665993 -0.0543798 0)
(0.10769 -0.0348046 0)
(0.155431 -0.0172947 0)
(0.201699 -0.177738 0)
(0.280637 0.522321 0)
(0.283245 -0.0992021 0)
(-0.103238 -0.110348 0)
(-0.00647913 -0.104507 0)
(0.00762137 -0.0894255 0)
(0.0288987 -0.0761951 0)
(0.0603521 -0.061027 0)
(0.0999224 -0.0403594 0)
(0.145604 -0.0251881 0)
(0.189142 -0.177483 0)
(0.264907 0.523954 0)
(0.303363 -0.119805 0)
(-0.101528 -0.118158 0)
(0.00856126 -0.102566 0)
(0.0247963 -0.0847537 0)
(0.0529691 -0.0673261 0)
(0.0909463 -0.04588 0)
(0.134455 -0.0336711 0)
(0.174986 -0.177048 0)
(0.247408 0.525602 0)
(0.318224 -0.132668 0)
(-0.0947244 -0.122229 0)
(0.0208143 -0.096622 0)
(0.0448461 -0.0735092 0)
(0.0807245 -0.0507526 0)
(0.122002 -0.0422169 0)
(0.159235 -0.176384 0)
(0.227838 0.527344 0)
(0.324982 -0.14023 0)
(-0.0787038 -0.119532 0)
(0.0338813 -0.0826995 0)
(0.0690402 -0.0546072 0)
(0.108563 -0.0498137 0)
(0.142149 -0.175444 0)
(0.205865 0.529356 0)
(0.317479 -0.140259 0)
(-0.0603782 -0.105375 0)
(0.0517487 -0.0600425 0)
(0.0944291 -0.0551523 0)
(0.124704 -0.174169 0)
(0.181138 0.532016 0)
(0.305122 -0.127451 0)
(-0.0359255 -0.0792212 0)
(0.075582 -0.0592465 0)
(0.108899 -0.172605 0)
(0.153461 0.536025 0)
(0.287979 -0.106425 0)
(0.00121691 -0.0754513 0)
(0.0946198 -0.173435 0)
(0.122925 0.542165 0)
(0.27389 -0.131557 0)
(0.0506133 -0.191322 0)
(0.0863936 0.553069 0)
(0.285354 -0.332796 0)
(-0.0534213 0.614642 0)
(0.443789 0.909967 0)
)
;

boundaryField
{
    floor
    {
        type            noSlip;
    }
    ceiling
    {
        type            noSlip;
    }
    sWall
    {
        type            noSlip;
    }
    nWall
    {
        type            noSlip;
    }
    sideWalls
    {
        type            empty;
    }
    glass1
    {
        type            noSlip;
    }
    glass2
    {
        type            noSlip;
    }
    sun
    {
        type            noSlip;
    }
    Table_master
    {
        type            noSlip;
    }
    Table_slave
    {
        type            noSlip;
    }
    inlet
    {
        type            fixedValue;
        value           uniform (0.1 -0.1 0);
    }
    outlet
    {
        type            zeroGradient;
    }
}


// ************************************************************************* //
