/*--------------------------------*- C++ -*----------------------------------*\
  =========                 |
  \\      /  F ield         | OpenFOAM: The Open Source CFD Toolbox
   \\    /   O peration     | Website:  https://openfoam.org
    \\  /    A nd           | Version:  6
     \\/     M anipulation  |
\*---------------------------------------------------------------------------*/
FoamFile
{
    version     2.0;
    format      ascii;
    class       volScalarField;
    location    "24699.99999898005";
    object      epsilon;
}
// * * * * * * * * * * * * * * * * * * * * * * * * * * * * * * * * * * * * * //

dimensions      [0 2 -3 0 0 0 0];

internalField   nonuniform List<scalar> 
778
(
0.000253125
0.000306378
0.000303054
0.00034426
0.000385157
0.000424993
0.000464458
0.00050474
0.000547571
0.000595667
0.000644054
0.00069236
0.000742241
0.000798503
0.000860184
8.94311e-05
0.000262524
0.000268868
0.00024976
0.000219913
0.000183929
0.000152227
0.000126456
0.000105865
8.94117e-05
7.62663e-05
6.56163e-05
5.68221e-05
4.9358e-05
4.27517e-05
3.65043e-05
3.18077e-05
2.35952e-05
0.000797002
0.00144328
0.000287036
0.000259649
0.000261754
0.000267727
0.000276623
0.00029005
0.000310299
0.000340489
0.000379669
0.000430736
0.000499057
0.000600191
0.00078526
0.00112879
0.000978263
0.000858051
0.000512406
0.000369636
0.000294231
0.000242805
0.000203922
0.00018671
0.00015454
0.000124895
0.000100625
8.14405e-05
6.64919e-05
5.47968e-05
4.56116e-05
3.86915e-05
3.45035e-05
3.27446e-05
6.58113e-05
4.80855e-05
0.00163063
0.00407941
0.000407457
0.000242981
0.000229157
0.000231068
0.000238281
0.000250545
0.000268441
0.000292693
0.000324791
0.000366816
0.000421152
0.000494819
0.000601189
0.000724435
0.000829472
0.00158382
0.00102835
0.00051261
0.000367864
0.000294338
0.000262054
0.000551215
0.000362306
0.000250449
0.000181096
0.000136113
0.000105792
8.46922e-05
6.976e-05
5.94183e-05
4.51053e-05
3.79595e-05
0.000108335
7.08141e-05
0.00285354
0.00877136
0.000710012
0.000240775
0.000202525
0.000200055
0.000203219
0.000209837
0.000220642
0.000237543
0.00026321
0.000299921
0.000349092
0.000412192
0.000487875
0.0005601
0.000612244
0.000824124
0.00156464
0.000729247
0.000459937
0.000358364
0.000301932
0.000291794
0.000814107
0.000612521
0.000481625
0.000388152
0.000318771
0.000264002
0.000218488
0.000178788
0.000141652
8.36894e-05
5.48146e-05
0.000149064
9.45183e-05
0.00454604
0.0158294
0.00134666
0.000258395
0.000175771
0.000166822
0.000165821
0.000167787
0.00017394
0.000187435
0.000211662
0.000248309
0.000297673
0.00035916
0.000427591
0.000488978
0.000528355
0.000582282
0.000627222
0.000483107
0.000393471
0.000331039
0.000282302
0.000248617
0.000247811
0.000226732
0.000202868
0.00018097
0.000162584
0.000146428
0.000131773
0.000118201
0.000105064
8.44562e-05
6.41102e-05
0.000105347
0.000138901
0.000160513
0.000378725
0.000329531
0.00676372
0.0248818
0.00255416
0.000318139
0.00015557
0.000137089
0.000132142
0.0001307
0.000134463
0.000148554
0.000176697
0.000218037
0.000270701
0.000333937
0.000401472
0.000462355
0.000502706
0.000521433
0.000504572
0.000438135
0.000373779
0.000315642
0.000264738
0.000223376
0.000193276
0.000169615
0.000150798
0.000135608
0.00012327
0.000112716
0.00010326
9.45079e-05
8.60872e-05
7.59153e-05
6.52767e-05
7.75784e-05
9.97732e-05
0.000214316
0.00109589
0.000560838
0.00967245
0.033641
0.00458519
0.000465107
0.00015087
0.00011636
0.000107098
0.000103286
0.000107078
0.000127925
0.000166136
0.000215876
0.000273239
0.00033992
0.000409094
0.000470173
0.000509892
0.000520201
0.000494123
0.000437518
0.000371802
0.000307472
0.000250541
0.000204423
0.000169732
0.000144548
0.000126326
0.000112742
0.000102281
9.3701e-05
8.61989e-05
7.93225e-05
7.27964e-05
6.61501e-05
6.02688e-05
6.36384e-05
7.68548e-05
0.000179305
0.00165887
0.00092649
0.0127595
0.04041
0.00749239
0.000871582
0.000194309
0.000115385
9.73852e-05
9.14505e-05
9.86312e-05
0.000137697
0.00018928
0.000246256
0.000307028
0.00037378
0.000444711
0.000507961
0.000547255
0.00055078
0.000515564
0.000451477
0.000375493
0.000300968
0.000236485
0.000185959
0.00014931
0.000123988
0.00010673
9.45979e-05
8.57611e-05
7.88156e-05
7.28898e-05
6.75127e-05
6.2458e-05
5.76558e-05
5.38676e-05
5.54855e-05
7.09213e-05
0.000377814
0.00573283
0.00214095
0.0138275
0.0414584
0.0139365
0.00316524
0.000630316
0.000208043
0.000132659
0.000115959
0.000142383
0.000192827
0.00024921
0.000306395
0.00036741
0.000436807
0.000511325
0.000575951
0.000610995
0.000603105
0.000552044
0.000470891
0.000378488
0.000290956
0.000218305
0.000164061
0.000126816
0.000102654
8.73404e-05
7.74043e-05
7.07204e-05
6.57099e-05
6.14863e-05
5.76203e-05
5.39517e-05
5.05448e-05
4.81282e-05
5.14154e-05
0.000100978
0.00119156
0.0152422
0.0031602
0.0130039
0.0283677
0.0144169
0.00572771
0.00210458
0.000834581
0.000413593
0.00027675
0.000278823
0.000314373
0.000355915
0.000401692
0.00045883
0.000531461
0.000610743
0.00067464
0.000699004
0.000670591
0.000593636
0.000486575
0.000372673
0.00027082
0.000191305
0.000135902
0.000100798
7.99845e-05
6.80667e-05
6.12871e-05
5.72003e-05
5.42426e-05
5.16694e-05
4.918e-05
4.67192e-05
4.44818e-05
4.35444e-05
5.25611e-05
0.000217193
0.00383179
0.0113497
0.0032912
0.0106883
0.0193549
0.0120387
0.00630047
0.00317438
0.00167446
0.000986419
0.000678658
0.000559636
0.00051697
0.000510174
0.000531539
0.000584354
0.000664042
0.000749022
0.000806286
0.000807778
0.000743929
0.000627652
0.000485826
0.00034763
0.000233824
0.000152812
0.000102047
7.37531e-05
5.89544e-05
5.14964e-05
4.80622e-05
4.62637e-05
4.49417e-05
4.36307e-05
4.2192e-05
4.07165e-05
3.96918e-05
4.10759e-05
5.76483e-05
0.000255678
0.0031034
0.0100591
0.00336535
0.00807092
0.0137688
0.00969169
0.00593298
0.00356923
0.00222701
0.00149033
0.00109248
0.000868784
0.000743142
0.00068575
0.000690646
0.000752132
0.000847303
0.000934936
0.000970183
0.000926393
0.000804994
0.000634166
0.000451828
0.000293222
0.000177789
0.000107346
6.96671e-05
5.26207e-05
4.44792e-05
4.06677e-05
3.92721e-05
3.86863e-05
3.82346e-05
3.76545e-05
3.69343e-05
3.64364e-05
3.74128e-05
4.40297e-05
7.64199e-05
0.000304896
0.00237108
0.00809135
0.00396739
0.00612335
0.0101688
0.00779165
0.00531257
0.0035701
0.00246904
0.00178786
0.00136806
0.00109274
0.000925909
0.000859589
0.00088827
0.000986081
0.00110185
0.00117337
0.0011519
0.00102642
0.000820435
0.000585307
0.000368429
0.000208767
0.000114816
7.21731e-05
5.22069e-05
4.27615e-05
3.80698e-05
3.58195e-05
3.50218e-05
3.47271e-05
3.45116e-05
3.42628e-05
3.42302e-05
3.55362e-05
4.1848e-05
6.58401e-05
0.000153137
0.000474647
0.00228505
0.00665677
0.00426516
0.00618475
0.00781488
0.00680634
0.00474033
0.00336612
0.00246275
0.00186603
0.00146247
0.00119461
0.00106481
0.00107174
0.00118396
0.00133534
0.00144404
0.00144239
0.00130077
0.00104884
0.00073993
0.000456255
0.000238185
0.00013107
8.15189e-05
5.942e-05
4.85331e-05
4.25208e-05
3.89643e-05
3.69213e-05
3.59206e-05
3.54716e-05
3.52305e-05
3.52749e-05
3.64677e-05
4.21279e-05
6.37106e-05
0.000137225
0.00035297
0.000926383
0.00254988
0.00631779
0.00353994
0.00454707
0.00511658
0.00418637
0.00336241
0.00264013
0.00207039
0.00164921
0.00136185
0.00124469
0.00130123
0.00148165
0.00169381
0.0018332
0.00182319
0.00163875
0.00129915
0.000905157
0.000518161
0.000277785
0.000154381
0.000100861
7.73958e-05
6.54626e-05
5.80098e-05
5.2804e-05
4.91553e-05
4.67781e-05
4.54052e-05
4.49956e-05
4.5149e-05
4.6088e-05
4.94034e-05
6.07969e-05
9.84075e-05
0.000213693
0.000529631
0.00129684
0.00288565
0.00520229
0.00296554
0.00139836
0.00142842
0.00143052
0.00135183
0.00131002
0.00142134
0.00170659
0.00204524
0.00231319
0.00241537
0.00229972
0.00198198
0.001528
0.000976398
0.000564303
0.000309889
0.000185451
0.00013263
0.000110219
9.83833e-05
9.02693e-05
8.39507e-05
7.9121e-05
7.58838e-05
7.43137e-05
7.43098e-05
7.55699e-05
7.8502e-05
8.27315e-05
8.96944e-05
0.000104861
0.000144666
0.000253199
0.000536439
0.00120987
0.00265188
0.00552652
0.00285472
0.00118812
0.00171317
0.00195052
0.00230591
0.00275237
0.00315861
0.00334161
0.0033122
0.00309291
0.00270319
0.00213234
0.00151058
0.000973158
0.000570105
0.000337744
0.000228401
0.000184112
0.000165497
0.000155404
0.000148137
0.000142339
0.000138066
0.000135857
0.000136328
0.000139903
0.000146599
0.000155898
0.000166815
0.000179647
0.000195159
0.000216755
0.000256643
0.000345342
0.00055525
0.00106485
0.00241221
0.00477504
0.00370125
0.00741743
0.0081073
0.00482004
0.00340262
0.00373106
0.00413831
0.00414817
0.00393642
0.00358241
0.00313063
0.00262735
0.00208428
0.0015313
0.00103959
0.000672568
0.000451573
0.000347636
0.000306272
0.000290366
0.000283026
0.000277983
0.000273083
0.000268067
0.000263802
0.000261781
0.000263617
0.00027065
0.000283839
0.000303878
0.000331273
0.000366028
0.000408153
0.000460577
0.000540878
0.000675134
0.000917068
0.00143224
0.00317815
0.00452869
0.00414779
0.00650135
0.00513952
0.00435693
0.00461392
0.00453567
0.00426959
0.00368976
0.00304331
0.00245742
0.00196479
0.00156227
0.00123913
0.000982713
0.000787116
0.000645553
0.000554933
0.000504679
0.000481126
0.000474008
0.000476555
0.000484103
0.000493522
0.00050315
0.000512818
0.000523742
0.000538293
0.000559793
0.000592433
0.000641309
0.000712521
0.000813185
0.000950924
0.00113214
0.00135671
0.00164485
0.00205337
0.00268686
0.00408329
0.005616
0.00455746
0.00535794
0.00337379
0.00332595
0.0036297
0.0038974
0.00357317
0.0029854
0.0023831
0.00186367
0.00144002
0.00109925
0.000830982
0.000633567
0.00050696
0.000443705
0.000419119
0.000417107
0.000427356
0.000443913
0.00046336
0.00048366
0.000503742
0.000523404
0.000543295
0.000564856
0.000590247
0.000622436
0.000665623
0.00072599
0.000812383
0.000936054
0.00110868
0.00133918
0.00163264
0.001996
0.00244862
0.00298598
0.00362675
0.00433445
0.00363627
)
;

boundaryField
{
    floor
    {
        Cmu             0.09;
        kappa           0.41;
        E               9.8;
        type            epsilonWallFunction;
        value           nonuniform List<scalar> 
36
(
0.000860184
8.94311e-05
0.000262524
0.000268868
0.00024976
0.000219913
0.000183929
0.000152227
0.000126456
0.000105865
8.94117e-05
7.62663e-05
6.56163e-05
5.68221e-05
4.9358e-05
4.27517e-05
3.65043e-05
3.18077e-05
2.35952e-05
2.35952e-05
4.80855e-05
7.08141e-05
9.45183e-05
0.000160513
0.000378725
0.000329531
0.000860184
0.00112879
0.000978263
0.000858051
8.94311e-05
0.000858051
0.000512406
0.00158382
0.00102835
0.00156464
)
;
    }
    ceiling
    {
        Cmu             0.09;
        kappa           0.41;
        E               9.8;
        type            epsilonWallFunction;
        value           nonuniform List<scalar> 
43
(
0.00535794
0.00337379
0.00332595
0.0036297
0.0038974
0.00357317
0.0029854
0.0023831
0.00186367
0.00144002
0.00109925
0.000830982
0.000633567
0.00050696
0.000443705
0.000419119
0.000417107
0.000427356
0.000443913
0.00046336
0.00048366
0.000503742
0.000523404
0.000543295
0.000564856
0.000590247
0.000622436
0.000665623
0.00072599
0.000812383
0.000936054
0.00110868
0.00133918
0.00163264
0.001996
0.00244862
0.00298598
0.00362675
0.00433445
0.00363627
0.00454707
0.00511658
0.00118812
)
;
    }
    sWall
    {
        Cmu             0.09;
        kappa           0.41;
        E               9.8;
        type            epsilonWallFunction;
        value           nonuniform List<scalar> 9(0.0130039 0.0106883 0.00807092 0.00612335 0.00618475 0.00454707 0.00741743 0.00650135 0.00535794);
    }
    nWall
    {
        Cmu             0.09;
        kappa           0.41;
        E               9.8;
        type            epsilonWallFunction;
        value           nonuniform List<scalar> 
14
(
0.000329531
0.000560838
0.00092649
0.0032912
0.00336535
0.00396739
0.00426516
0.00353994
0.00296554
0.00285472
0.00370125
0.00414779
0.00455746
0.00363627
)
;
    }
    sideWalls
    {
        type            empty;
    }
    glass1
    {
        Cmu             0.09;
        kappa           0.41;
        E               9.8;
        type            epsilonWallFunction;
        value           nonuniform List<scalar> 9(0.000253125 0.000797002 0.00163063 0.00285354 0.00454604 0.00676372 0.00967245 0.0127595 0.0138275);
    }
    glass2
    {
        Cmu             0.09;
        kappa           0.41;
        E               9.8;
        type            epsilonWallFunction;
        value           nonuniform List<scalar> 2(0.00214095 0.0031602);
    }
    sun
    {
        Cmu             0.09;
        kappa           0.41;
        E               9.8;
        type            epsilonWallFunction;
        value           nonuniform List<scalar> 
14
(
0.000253125
0.000306378
0.000303054
0.00034426
0.000385157
0.000424993
0.000464458
0.00050474
0.000547571
0.000595667
0.000644054
0.00069236
0.000742241
0.000798503
)
;
    }
    Table_master
    {
        Cmu             0.09;
        kappa           0.41;
        E               9.8;
        type            epsilonWallFunction;
        value           nonuniform List<scalar> 9(0.000551215 0.000362306 0.000250449 0.000181096 0.000136113 0.000105792 8.46922e-05 6.976e-05 5.94183e-05);
    }
    Table_slave
    {
        Cmu             0.09;
        kappa           0.41;
        E               9.8;
        type            epsilonWallFunction;
        value           nonuniform List<scalar> 9(0.000814107 0.000612521 0.000481625 0.000388152 0.000318771 0.000264002 0.000218488 0.000178788 0.000141652);
    }
    inlet
    {
        type            turbulentMixingLengthDissipationRateInlet;
        mixingLength    0.01;
        phi             phi;
        k               k;
        value           uniform 0.000471671;
    }
    outlet
    {
        type            zeroGradient;
    }
}


// ************************************************************************* //
