/*--------------------------------*- C++ -*----------------------------------*\
  =========                 |
  \\      /  F ield         | OpenFOAM: The Open Source CFD Toolbox
   \\    /   O peration     | Website:  https://openfoam.org
    \\  /    A nd           | Version:  6
     \\/     M anipulation  |
\*---------------------------------------------------------------------------*/
FoamFile
{
    version     2.0;
    format      ascii;
    class       volScalarField;
    location    "24699.99999898005";
    object      k;
}
// * * * * * * * * * * * * * * * * * * * * * * * * * * * * * * * * * * * * * //

dimensions      [0 2 -2 0 0 0 0];

internalField   nonuniform List<scalar> 
778
(
0.00158596
0.00180124
0.00178819
0.00194682
0.0020981
0.00224038
0.00237702
0.00251254
0.00265274
0.00280588
0.00295585
0.00310186
0.00324911
0.00341129
0.00358477
0.00079261
0.00162498
0.00165106
0.00157187
0.00144401
0.00128184
0.00112996
0.000998529
0.000886959
0.000792498
0.000712782
0.000644777
0.000585796
0.000533302
0.000484586
0.000436145
0.000397884
0.00032605
0.00340702
0.00643378
0.00268775
0.00274638
0.00288812
0.00305472
0.00323506
0.00343073
0.00364377
0.00387381
0.00412549
0.00437878
0.00459408
0.00469901
0.00459326
0.00429679
0.00390575
0.00357885
0.00253792
0.00281304
0.00295451
0.00289604
0.00266266
0.00226353
0.00190443
0.00160845
0.00136899
0.0011754
0.00101676
0.000885053
0.000773844
0.000681058
0.000615068
0.000574558
0.000864618
0.000524097
0.00549085
0.0127821
0.00347828
0.00321238
0.00329774
0.0034556
0.00363695
0.00384101
0.00407111
0.00432738
0.00463504
0.0050099
0.00544956
0.00595872
0.00652978
0.00685878
0.00627672
0.00538525
0.00403797
0.00416989
0.00417293
0.00397486
0.00357662
0.00266451
0.00201428
0.00157477
0.00126865
0.00104874
0.000886551
0.000764359
0.000671645
0.000603507
0.000551349
0.00054861
0.00116661
0.000678395
0.00797365
0.0217605
0.0044917
0.00339098
0.00334175
0.00343829
0.00354961
0.00366897
0.00380901
0.00399103
0.00425853
0.00464748
0.00516981
0.00582359
0.00655331
0.00713382
0.00722801
0.00724567
0.00534166
0.00554751
0.00537512
0.00512523
0.00478668
0.00434783
0.0034556
0.00285858
0.00243524
0.00210897
0.0018495
0.00163108
0.00143776
0.00125785
0.001077
0.000800166
0.000659406
0.00142426
0.000822397
0.0108765
0.0336383
0.00621376
0.00342522
0.00315846
0.0031671
0.00318964
0.00320983
0.00325196
0.00336076
0.00359415
0.00398825
0.00455207
0.00527505
0.00608519
0.00681608
0.00728148
0.00764165
0.00751338
0.00665141
0.00607161
0.00557821
0.00509872
0.00462919
0.00412292
0.0036652
0.00327431
0.00293648
0.00263012
0.00234662
0.0020781
0.00181748
0.00155415
0.00122119
0.000929353
0.00119123
0.00121663
0.00117061
0.00207461
0.00189092
0.0141751
0.047604
0.00928571
0.00349027
0.00290869
0.00282282
0.00276438
0.00269943
0.00266402
0.0027343
0.00298045
0.00341365
0.00402249
0.00479635
0.00565176
0.00645915
0.00706584
0.00740369
0.00731971
0.0067868
0.00621308
0.00563614
0.00507386
0.00455579
0.00409117
0.00369545
0.00336275
0.00307322
0.00280611
0.00255065
0.002298
0.00204131
0.00177322
0.00147084
0.00117706
0.00111186
0.00111123
0.00172963
0.00517027
0.0026955
0.0179925
0.0606115
0.0143632
0.00381989
0.00271533
0.00252942
0.00241172
0.00229384
0.00222078
0.00231141
0.00263028
0.00313928
0.00380174
0.00463091
0.00552743
0.006365
0.00699838
0.00732491
0.00725113
0.00681543
0.00621376
0.00555404
0.0049116
0.00434267
0.00387245
0.00350044
0.00320672
0.00296176
0.00274114
0.00252857
0.00231269
0.00208635
0.00184468
0.00158253
0.00132575
0.00115764
0.00109166
0.00157933
0.0064232
0.00376674
0.0216417
0.0704861
0.0214411
0.00510281
0.00274282
0.00237175
0.00220994
0.0020816
0.0020259
0.00221924
0.00264988
0.00323141
0.00393797
0.00477553
0.00570003
0.00657391
0.00722288
0.00751207
0.00738206
0.00689452
0.00619744
0.00542695
0.00469185
0.00406482
0.00357476
0.00321285
0.00294809
0.0027415
0.00256454
0.00239575
0.00222152
0.00203451
0.00183132
0.00161224
0.00139466
0.00122427
0.00115486
0.00219375
0.0144217
0.00658321
0.0228331
0.0694898
0.0325401
0.0110594
0.00406716
0.00258703
0.00223507
0.00210245
0.00218929
0.00251182
0.0030003
0.00360268
0.00433433
0.00521583
0.00618905
0.00709087
0.00771862
0.00792258
0.00766328
0.00702475
0.0061657
0.0052499
0.00440918
0.00372387
0.00321782
0.00286999
0.00263672
0.00247032
0.00233733
0.00221189
0.00207921
0.00193232
0.00176893
0.00159093
0.00141076
0.00127287
0.00134684
0.00443271
0.0294749
0.00853588
0.0219171
0.0516286
0.0336448
0.017435
0.00858635
0.00475708
0.00325932
0.00272854
0.00285156
0.00320946
0.00367161
0.00424701
0.00499841
0.00594432
0.00698185
0.00789435
0.00844543
0.00848433
0.00800265
0.00712374
0.00604329
0.00495755
0.00401534
0.00329401
0.00280049
0.00249092
0.00230447
0.00218662
0.00209848
0.00201325
0.0019175
0.00180564
0.00167654
0.00153267
0.0013847
0.00128476
0.00170968
0.0109931
0.0245053
0.00876942
0.0192312
0.0394324
0.0302372
0.0195658
0.0121806
0.00793613
0.00571422
0.00466613
0.00435895
0.00439671
0.00465045
0.00514565
0.00593961
0.00699025
0.00810036
0.00897444
0.00934849
0.00909691
0.00827188
0.00706102
0.00571558
0.00446627
0.00346826
0.00277391
0.00235231
0.00211852
0.00199437
0.00192699
0.00187724
0.00182345
0.00175576
0.00167047
0.00156763
0.0014513
0.00133453
0.00128771
0.00193527
0.0101857
0.0240608
0.00889909
0.0159471
0.0315859
0.0266511
0.0195387
0.0139748
0.0102821
0.00802459
0.00674789
0.00604505
0.00572711
0.0057803
0.00627559
0.00721705
0.00843165
0.00958292
0.0102955
0.0103155
0.00959193
0.00828314
0.00666587
0.00506214
0.00372935
0.00279961
0.00223932
0.00195901
0.00181931
0.00175077
0.0017173
0.00168997
0.00165464
0.00160457
0.00153702
0.00145362
0.00136287
0.00128463
0.00132918
0.00229035
0.00916584
0.0219629
0.00992923
0.0132656
0.02568
0.0233568
0.0186925
0.0145845
0.0115879
0.00954233
0.00820756
0.00729731
0.00683737
0.00695733
0.00772445
0.00899171
0.0103845
0.011425
0.0117162
0.0111053
0.00968617
0.00778119
0.00576227
0.00403714
0.00284106
0.0021972
0.00186421
0.00170142
0.00162187
0.00158245
0.00156131
0.00153988
0.00150929
0.00146532
0.00140757
0.00134109
0.00128167
0.00129
0.00165287
0.00318933
0.00968689
0.0200669
0.0104265
0.0133542
0.0224303
0.0220682
0.0177658
0.014396
0.0118961
0.0100848
0.00876875
0.007917
0.00777309
0.00847554
0.00987961
0.0115468
0.0128967
0.0134202
0.012844
0.0112614
0.00896344
0.00651287
0.00430525
0.00295876
0.00221743
0.0018472
0.00166296
0.00156863
0.00151679
0.00148455
0.00145982
0.001432
0.00139554
0.0013486
0.00129425
0.00124814
0.00126859
0.00156187
0.00259573
0.00504416
0.0105262
0.0193525
0.00921164
0.0108782
0.0117685
0.0129256
0.0125537
0.0113754
0.0100757
0.0089478
0.00820343
0.00830082
0.00941494
0.0112989
0.0133805
0.0149809
0.0155546
0.0148422
0.0128569
0.0101116
0.00699378
0.00461526
0.00311328
0.00232325
0.0019345
0.00173913
0.0016299
0.0015606
0.00151052
0.00146908
0.00143011
0.00138968
0.00134503
0.00129738
0.00125629
0.001255
0.0013984
0.00196462
0.0034569
0.00643873
0.0111731
0.0160247
0.0081869
0.00353968
0.00481738
0.0059887
0.00659657
0.0072776
0.00878893
0.0113033
0.0141388
0.016569
0.0180182
0.0181114
0.0167658
0.0142028
0.0105665
0.00725908
0.00477496
0.00327735
0.00251164
0.00215247
0.00197177
0.00186258
0.00178276
0.00171703
0.00165968
0.00160873
0.00156427
0.00152733
0.00150386
0.00149262
0.0015017
0.00156212
0.0017673
0.0023457
0.00373502
0.00648574
0.011003
0.0174353
0.00797438
0.00444606
0.00628421
0.00810121
0.0110119
0.0146822
0.0181415
0.0203831
0.0214574
0.021398
0.0201846
0.0176322
0.0141233
0.0104221
0.00710401
0.00477093
0.00343696
0.00280354
0.0025254
0.00239269
0.00231379
0.00225562
0.00220757
0.0021683
0.00214099
0.00213078
0.00214176
0.00217371
0.00222069
0.00228405
0.0023657
0.00248349
0.00270736
0.00319736
0.00427345
0.00654624
0.01136
0.0171453
0.00948286
0.0150743
0.0245334
0.0181339
0.0143917
0.0169903
0.0206745
0.0227936
0.023492
0.0230451
0.0217021
0.0196988
0.0170457
0.0138325
0.0104352
0.00741435
0.00525474
0.00406345
0.00353575
0.00333301
0.00325903
0.00322881
0.00320668
0.00317906
0.00314565
0.00311534
0.00310155
0.00311695
0.00317015
0.00326539
0.00340385
0.00358373
0.00380598
0.00408972
0.00451638
0.00520609
0.00638389
0.00864307
0.0147812
0.0178175
0.0102332
0.0138061
0.0170605
0.0178292
0.0207417
0.0216762
0.022095
0.0211007
0.0192921
0.0171792
0.01501
0.0128798
0.0108259
0.00887641
0.00713301
0.00573016
0.00480535
0.0043091
0.00409345
0.00403919
0.0040737
0.00415046
0.00423756
0.00431554
0.00437797
0.00443061
0.00448779
0.00456769
0.00468911
0.00487149
0.00513754
0.00551627
0.00604304
0.00675378
0.00766219
0.00884534
0.0104298
0.0127446
0.0172977
0.0204329
0.0108971
0.0121357
0.00891552
0.00883103
0.00936086
0.00981563
0.00926343
0.00821745
0.00707121
0.00600211
0.00505384
0.00422102
0.0035026
0.00292311
0.00251948
0.00230543
0.00221957
0.00221256
0.00224868
0.00230637
0.00237317
0.0024419
0.00250893
0.00257372
0.00263848
0.00270784
0.00278849
0.00288918
0.0030217
0.00320232
0.00345237
0.00379527
0.00424921
0.00481954
0.00549956
0.00628715
0.0072038
0.00822081
0.0093565
0.0105354
0.00937309
)
;

boundaryField
{
    floor
    {
        type            kqRWallFunction;
        value           nonuniform List<scalar> 
36
(
0.00358477
0.00079261
0.00162498
0.00165106
0.00157187
0.00144401
0.00128184
0.00112996
0.000998529
0.000886959
0.000792498
0.000712782
0.000644777
0.000585796
0.000533302
0.000484586
0.000436145
0.000397884
0.00032605
0.00032605
0.000524097
0.000678395
0.000822397
0.00117061
0.00207461
0.00189092
0.00358477
0.00429679
0.00390575
0.00357885
0.00079261
0.00357885
0.00253792
0.00538525
0.00403797
0.00534166
)
;
    }
    ceiling
    {
        type            kqRWallFunction;
        value           nonuniform List<scalar> 
43
(
0.0121357
0.00891552
0.00883103
0.00936086
0.00981563
0.00926343
0.00821745
0.00707121
0.00600211
0.00505384
0.00422102
0.0035026
0.00292311
0.00251948
0.00230543
0.00221957
0.00221256
0.00224868
0.00230637
0.00237317
0.0024419
0.00250893
0.00257372
0.00263848
0.00270784
0.00278849
0.00288918
0.0030217
0.00320232
0.00345237
0.00379527
0.00424921
0.00481954
0.00549956
0.00628715
0.0072038
0.00822081
0.0093565
0.0105354
0.00937309
0.0108782
0.0117685
0.00444606
)
;
    }
    sWall
    {
        type            kqRWallFunction;
        value           nonuniform List<scalar> 9(0.0219171 0.0192312 0.0159471 0.0132656 0.0133542 0.0108782 0.0150743 0.0138061 0.0121357);
    }
    nWall
    {
        type            kqRWallFunction;
        value           nonuniform List<scalar> 
14
(
0.00189092
0.0026955
0.00376674
0.00876942
0.00889909
0.00992923
0.0104265
0.00921164
0.0081869
0.00797438
0.00948286
0.0102332
0.0108971
0.00937309
)
;
    }
    sideWalls
    {
        type            empty;
    }
    glass1
    {
        type            kqRWallFunction;
        value           nonuniform List<scalar> 9(0.00158596 0.00340702 0.00549085 0.00797365 0.0108765 0.0141751 0.0179925 0.0216417 0.0228331);
    }
    glass2
    {
        type            kqRWallFunction;
        value           nonuniform List<scalar> 2(0.00658321 0.00853588);
    }
    sun
    {
        type            kqRWallFunction;
        value           nonuniform List<scalar> 
14
(
0.00158596
0.00180124
0.00178819
0.00194682
0.0020981
0.00224038
0.00237702
0.00251254
0.00265274
0.00280588
0.00295585
0.00310186
0.00324911
0.00341129
)
;
    }
    Table_master
    {
        type            kqRWallFunction;
        value           nonuniform List<scalar> 9(0.00266451 0.00201428 0.00157477 0.00126865 0.00104874 0.000886551 0.000764359 0.000671645 0.000603507);
    }
    Table_slave
    {
        type            kqRWallFunction;
        value           nonuniform List<scalar> 9(0.0034556 0.00285858 0.00243524 0.00210897 0.0018495 0.00163108 0.00143776 0.00125785 0.001077);
    }
    inlet
    {
        type            turbulentIntensityKineticEnergyInlet;
        intensity       0.05;
        value           uniform 0.0009375;
    }
    outlet
    {
        type            zeroGradient;
    }
}


// ************************************************************************* //
