/*--------------------------------*- C++ -*----------------------------------*\
  =========                 |
  \\      /  F ield         | OpenFOAM: The Open Source CFD Toolbox
   \\    /   O peration     | Website:  https://openfoam.org
    \\  /    A nd           | Version:  6
     \\/     M anipulation  |
\*---------------------------------------------------------------------------*/
FoamFile
{
    version     2.0;
    format      ascii;
    class       volScalarField;
    location    "24699.99999898005";
    object      nut;
}
// * * * * * * * * * * * * * * * * * * * * * * * * * * * * * * * * * * * * * //

dimensions      [0 2 -1 0 0 0 0];

internalField   nonuniform List<scalar> 
778
(
0.000894315
0.000953084
0.000949624
0.000990849
0.00102863
0.00106293
0.00109486
0.00112564
0.00115662
0.00118954
0.00122091
0.0012507
0.00128005
0.0013116
0.00134454
0.000632227
0.000905254
0.000912487
0.000890338
0.000853356
0.000804013
0.000754878
0.000709619
0.000668801
0.000632185
0.000599548
0.00057023
0.000543524
0.000518599
0.000494346
0.000468987
0.000447944
0.000405496
0.00131079
0.00258121
0.00226508
0.00261442
0.002868
0.00313684
0.00340501
0.0036521
0.00385093
0.00396657
0.00403448
0.00400624
0.00380619
0.00331106
0.00241808
0.00147203
0.00140345
0.00134343
0.00113132
0.00192672
0.00267009
0.00310881
0.00312904
0.00246972
0.00211219
0.0018643
0.00167624
0.00152676
0.00139929
0.00128655
0.00118161
0.00107894
0.000986794
0.000907341
0.00102233
0.000514105
0.00166404
0.00360453
0.00267233
0.0038223
0.00427113
0.00465103
0.00499605
0.00529965
0.00555673
0.00575811
0.00595314
0.00615818
0.00634637
0.00645806
0.00638306
0.00584436
0.00427471
0.00164797
0.00142701
0.00305284
0.00426027
0.00483104
0.00439336
0.00115919
0.00100788
0.000891158
0.000799865
0.000727245
0.000668648
0.00062086
0.000581989
0.000551679
0.000606553
0.00071359
0.00113063
0.000584909
0.00200527
0.00485864
0.0025574
0.00429814
0.00496263
0.00531839
0.00558005
0.00577363
0.00591803
0.0060349
0.00620098
0.00648143
0.00689052
0.00740498
0.00792236
0.0081775
0.0076799
0.00573334
0.00164128
0.00379808
0.00565354
0.00659698
0.00682973
0.00583057
0.0013201
0.00120066
0.0011082
0.00103129
0.000965769
0.000906949
0.000851509
0.000796453
0.000736978
0.000688545
0.000713923
0.00122476
0.000644006
0.00234202
0.00643348
0.00258044
0.00408634
0.00510795
0.00541144
0.00552188
0.00552648
0.00547185
0.00542332
0.00549278
0.00576519
0.00626498
0.00697281
0.00779405
0.0085511
0.00903143
0.00902574
0.00810013
0.00824188
0.00843213
0.00845968
0.00828802
0.00775751
0.00617349
0.00533242
0.0047563
0.00428835
0.00382928
0.00338457
0.00294951
0.00251512
0.00206906
0.0015892
0.00121249
0.0012123
0.000959071
0.00076834
0.0010228
0.000976544
0.00267367
0.00819686
0.00303827
0.00344623
0.00489455
0.00523123
0.00520473
0.00501775
0.00475022
0.00452951
0.00452456
0.00481005
0.00537952
0.00620011
0.00716068
0.00812115
0.00893834
0.00946107
0.0095567
0.00946161
0.00929483
0.00905758
0.00875192
0.00836248
0.00779399
0.00724625
0.00674893
0.00626821
0.00574903
0.00519466
0.00460268
0.00396819
0.00328724
0.00256475
0.0019102
0.00143418
0.00111387
0.0012563
0.00219534
0.00116596
0.00301225
0.00982842
0.0040494
0.00282353
0.00439831
0.00494861
0.0048878
0.00458485
0.00414526
0.00375871
0.00374786
0.00410865
0.00476063
0.00567804
0.00672151
0.007755
0.00864488
0.00928275
0.00957675
0.00955506
0.0093463
0.00902932
0.00866582
0.00830284
0.00795156
0.00762911
0.00732611
0.0070026
0.00661164
0.00614115
0.00558437
0.00493881
0.00420704
0.00340733
0.00262465
0.00189526
0.00139556
0.00125198
0.00223837
0.00137826
0.00330362
0.0110652
0.00552224
0.00268877
0.00348452
0.00438761
0.00451349
0.00426432
0.00374512
0.00321904
0.00333881
0.00381628
0.00454579
0.00549123
0.00657534
0.00765701
0.00857973
0.00922111
0.00951293
0.00947577
0.00920588
0.00880712
0.00837775
0.00799667
0.00770277
0.00749277
0.00732887
0.0071505
0.00690194
0.00655411
0.00609361
0.00551791
0.00483262
0.00405751
0.00324975
0.00243118
0.00169248
0.00114641
0.00326516
0.00182184
0.00339334
0.0104827
0.00683799
0.00347774
0.00236192
0.0028953
0.00338911
0.00343073
0.00302963
0.00294477
0.00325092
0.00381253
0.00460189
0.0056053
0.00674208
0.007857
0.00877575
0.00936661
0.00957411
0.00943158
0.00903974
0.00852547
0.00801486
0.00760722
0.00734842
0.00722149
0.007164
0.00709552
0.00695245
0.006701
0.00632794
0.00583211
0.00521986
0.00450682
0.00372179
0.0028361
0.00161678
0.00148411
0.00512981
0.00207503
0.00332457
0.00845669
0.0070665
0.00477646
0.00315278
0.00244036
0.00231166
0.00242112
0.0026247
0.00294891
0.00340885
0.00404126
0.00490065
0.00598377
0.00718332
0.00831388
0.00918347
0.00966095
0.00970934
0.00938661
0.00881984
0.00816764
0.00758509
0.00718562
0.00700256
0.0069816
0.00702181
0.00702136
0.00692873
0.00672511
0.0064044
0.00596648
0.00541471
0.00475288
0.00396296
0.00282631
0.00121124
0.00283844
0.00476188
0.00210295
0.0031142
0.00723033
0.00683514
0.00546848
0.00420652
0.00338521
0.00297916
0.00288739
0.00305563
0.00336536
0.00381516
0.00448319
0.00543354
0.00662267
0.00788418
0.00899016
0.0097372
0.0100115
0.00981141
0.00923629
0.00845757
0.00767791
0.0070845
0.00678621
0.0067523
0.00685158
0.00695148
0.00695339
0.00685558
0.00665855
0.00635887
0.00595234
0.00543198
0.00477592
0.00390224
0.00258875
0.00131835
0.00300874
0.00517966
0.00211789
0.00283586
0.00652126
0.0065959
0.00579112
0.00492449
0.00427252
0.00388872
0.00375115
0.00378557
0.00397231
0.00438508
0.0051321
0.00623259
0.00755142
0.00884008
0.00983292
0.0103379
0.0102864
0.00973711
0.00885082
0.00786528
0.00704053
0.00657132
0.00647808
0.00656383
0.00669726
0.00678348
0.00675847
0.0066442
0.00644453
0.0061538
0.00575671
0.00521928
0.00446819
0.00337331
0.00208068
0.00154844
0.00318889
0.00536539
0.0022365
0.00258647
0.00583664
0.00630144
0.00591935
0.00536221
0.00489464
0.00458373
0.00443165
0.00438582
0.00454414
0.005068
0.00604551
0.00737928
0.00880824
0.0100119
0.0107252
0.0108138
0.0102921
0.00931003
0.00811105
0.00702633
0.00632707
0.00602015
0.00599107
0.00609272
0.00621865
0.00629193
0.00626442
0.00614535
0.0059405
0.00564004
0.0052092
0.00455502
0.0035328
0.00227473
0.00160562
0.00192873
0.00369586
0.00544427
0.00229396
0.0025951
0.00579414
0.00643966
0.00599246
0.00554112
0.00517169
0.00490519
0.00473184
0.00472213
0.00510689
0.00603238
0.0074197
0.00898614
0.0103662
0.0112376
0.0114142
0.0108822
0.0097724
0.0083672
0.00700367
0.00601118
0.00542854
0.00516819
0.00512825
0.00520812
0.00531408
0.00537225
0.00533944
0.00520294
0.0049752
0.00464025
0.00413402
0.00332814
0.00227337
0.00159993
0.001718
0.00247189
0.00391079
0.00533524
0.00215735
0.0023422
0.00243616
0.00359174
0.00421825
0.00441113
0.00441304
0.00436916
0.00444737
0.00498222
0.00613087
0.00775482
0.00951313
0.0110181
0.0119435
0.0120983
0.0114513
0.0101663
0.00849575
0.00690122
0.00565045
0.00481625
0.00435176
0.00415828
0.00412158
0.00415104
0.00417757
0.00415233
0.00405394
0.00386278
0.00360625
0.00328692
0.0028752
0.00233157
0.00178845
0.00162558
0.00203068
0.00287711
0.00389355
0.00444248
0.00203413
0.000806403
0.00146221
0.00225639
0.00289706
0.00363865
0.00489121
0.00673789
0.00879676
0.0106814
0.0120971
0.0128373
0.0127642
0.0118815
0.0102915
0.00840413
0.00662179
0.00521264
0.00428073
0.0037832
0.00355658
0.00345885
0.00340726
0.00335357
0.00326694
0.00313429
0.00296361
0.00277816
0.00259284
0.00242365
0.00226278
0.00209439
0.00194311
0.00195581
0.00234049
0.00312913
0.00410877
0.00495052
0.00200481
0.00149738
0.00207465
0.00302825
0.0047329
0.00704881
0.00937758
0.0111899
0.0125107
0.0133236
0.0135646
0.013122
0.0118843
0.0100455
0.00796698
0.00606542
0.00465471
0.00384215
0.00346825
0.00331555
0.00325257
0.00321701
0.00317677
0.00311456
0.00302611
0.00292074
0.00281612
0.00272776
0.00266062
0.00261358
0.00258091
0.00256093
0.00257042
0.00266426
0.00296013
0.00362193
0.00481489
0.00554057
0.00218662
0.00275718
0.00668161
0.00614008
0.00547842
0.00696328
0.00929588
0.0112723
0.0126177
0.0133421
0.0135399
0.0132925
0.0125463
0.0112457
0.00942711
0.00735619
0.00550322
0.00427473
0.00367364
0.00344326
0.00337748
0.00337527
0.00338891
0.00339311
0.00337586
0.00333669
0.00328417
0.00323068
0.00318663
0.00315801
0.00314772
0.00315791
0.00319414
0.00326835
0.0033941
0.00361306
0.00399955
0.0046942
0.00618708
0.00630907
0.0022722
0.00263864
0.00509688
0.00656634
0.00839192
0.00932325
0.0102907
0.0108602
0.0110066
0.0108085
0.0103202
0.00955666
0.00851253
0.00721589
0.00581768
0.00457767
0.003745
0.00331131
0.00313446
0.00309775
0.00313407
0.00320256
0.00327468
0.00333131
0.00336375
0.00337327
0.00336736
0.00335435
0.00334029
0.00333042
0.00333392
0.00336778
0.00345627
0.00362608
0.0038946
0.00428099
0.0047679
0.0054406
0.00659494
0.00669078
0.00234501
0.00247386
0.0021204
0.00211033
0.00217272
0.00222487
0.00216139
0.0020357
0.00188838
0.00173973
0.00159631
0.00145875
0.00132872
0.00121378
0.00112692
0.00107808
0.0010579
0.00105629
0.0010649
0.00107845
0.00109391
0.00110957
0.00112464
0.00113901
0.00115322
0.00116829
0.00118562
0.00120697
0.00123457
0.00127128
0.00132044
0.00138492
0.00146573
0.00156104
0.00166728
0.00178233
0.00190741
0.00203697
0.00217246
0.00230468
0.00217446
)
;

boundaryField
{
    floor
    {
        type            nutkWallFunction;
        Cmu             0.09;
        kappa           0.41;
        E               9.8;
        value           nonuniform List<scalar> 
36
(
0.00016054
7.63647e-05
0.000109507
0.000110368
0.000107731
0.000103311
9.73786e-05
9.14284e-05
8.59067e-05
8.08907e-05
7.63597e-05
7.22943e-05
6.86193e-05
6.52515e-05
6.20899e-05
5.89954e-05
5.57395e-05
5.30209e-05
4.74868e-05
4.74867e-05
6.15174e-05
7.04615e-05
7.78249e-05
9.30624e-05
0.000123401
0.000117952
0.00016054
0.000174968
0.000167224
0.000160412
7.63646e-05
0.000160412
0.000136052
0.000194656
0.000169887
0.000193912
)
;
    }
    ceiling
    {
        type            nutkWallFunction;
        Cmu             0.09;
        kappa           0.41;
        E               9.8;
        value           nonuniform List<scalar> 
43
(
0.000284338
0.000246404
0.000245316
0.000252065
0.000257696
0.000250867
0.000237263
0.000221194
0.000204841
0.00018892
0.000173503
0.000158778
0.000145623
0.000135578
0.000129884
0.000127517
0.000127322
0.000128325
0.000129909
0.000131716
0.000133546
0.000135303
0.000136977
0.000138627
0.000140369
0.000142364
0.00014481
0.000147958
0.000152128
0.000157691
0.000164966
0.000174056
0.000184743
0.000196604
0.000209366
0.000223148
0.000237346
0.000252094
0.000266391
0.000252304
0.000270478
0.000280519
0.000177612
)
;
    }
    sWall
    {
        type            nutkWallFunction;
        Cmu             0.09;
        kappa           0.41;
        E               9.8;
        value           nonuniform List<scalar> 9(0.000373881 0.000352058 0.000322949 0.000296617 0.000297528 0.000270567 0.000314359 0.000301878 0.00028444);
    }
    nWall
    {
        type            nutkWallFunction;
        Cmu             0.09;
        kappa           0.41;
        E               9.8;
        value           nonuniform List<scalar> 
14
(
0.000117959
0.000140074
0.000164389
0.000244635
0.000246315
0.000259192
0.000265144
0.000250307
0.000236926
0.000234036
0.000253709
0.000262851
0.000270637
0.000252342
)
;
    }
    sideWalls
    {
        type            empty;
    }
    glass1
    {
        type            nutkWallFunction;
        Cmu             0.09;
        kappa           0.41;
        E               9.8;
        value           nonuniform List<scalar> 9(0.000108248 0.000156883 0.000196738 0.000234351 0.000270795 0.000306146 0.000341765 0.000372088 0.000381377);
    }
    glass2
    {
        type            nutkWallFunction;
        Cmu             0.09;
        kappa           0.41;
        E               9.8;
        value           nonuniform List<scalar> 2(0.000214065 0.000241703);
    }
    sun
    {
        type            nutkWallFunction;
        Cmu             0.09;
        kappa           0.41;
        E               9.8;
        value           nonuniform List<scalar> 
14
(
0.000108207
0.000115183
0.000114774
0.00011964
0.000124079
0.000128094
0.000131818
0.000135396
0.000138986
0.000142788
0.000146401
0.000149822
0.000153183
0.000156788
)
;
    }
    Table_master
    {
        type            nutkWallFunction;
        Cmu             0.09;
        kappa           0.41;
        E               9.8;
        value           nonuniform List<scalar> 9(0.000139272 0.000121636 0.000107825 9.68771e-05 8.80633e-05 8.08753e-05 7.49575e-05 7.01032e-05 6.62906e-05);
    }
    Table_slave
    {
        type            nutkWallFunction;
        Cmu             0.09;
        kappa           0.41;
        E               9.8;
        value           nonuniform List<scalar> 9(0.000157744 0.000144059 0.00013336 0.000124384 0.000116676 0.000109706 0.000103088 9.64652e-05 8.92504e-05);
    }
    inlet
    {
        type            calculated;
        value           uniform 0.000167705;
    }
    outlet
    {
        type            calculated;
        value           nonuniform List<scalar> 2(0.00275718 0.00668161);
    }
}


// ************************************************************************* //
