/*--------------------------------*- C++ -*----------------------------------*=========                 |
  \      /  F ield         | OpenFOAM: The Open Source CFD Toolbox
   \    /   O peration     | Website:  https://openfoam.org
    \  /    A nd           | Version:  6
     \/     M anipulation  |
\*---------------------------------------------------------------------------*/
FoamFile
{
    version     2.0;
    format      ascii;
    class       volScalarField;
    location    "210";
    object      PPD;
}
// * * * * * * * * * * * * * * * * * * * * * * * * * * * * * * * * * * * * * //

dimensions      [0 0 0 0 0 0 0];

internalField   nonuniform List<scalar> 
458
(
39.65669337746771
27.769329366161386
26.19560478754765
25.022718036689326
24.382269209681112
24.27222133980851
24.695569406893483
25.785543551338776
27.778831671168078
30.939552019216634
35.15058984839919
36.2924102773159
36.54874424868181
36.36700613348786
36.86706561877899
46.93814704325281
45.99215693133492
45.60982509044656
46.0942307330934
46.57973774195622
46.93814704325281
46.37241144414858
46.228146178263344
46.35995850463997
46.5770242892212
46.83062111208302
47.148831726340546
47.50415799154174
48.00194161199485
48.76498777107735
49.99054472182185
51.03991114718649
52.155967978151935
35.96609286460834
28.42967600496138
27.75442641862307
26.60309819563743
25.99585000320168
25.84219344095311
26.118389940982254
26.66597203431543
27.61935998490391
29.240492921672825
31.856753286407
36.057930466608255
37.004458286769086
36.328593837317364
34.20486866313148
33.20283021384165
34.35909850634765
36.54351987091599
45.714300182574675
44.872736218267214
44.74594253587642
45.18685973542016
45.2643798607227
45.509538347406945
45.71617810391266
45.95947475629047
46.210082536413935
46.418153100873056
46.66243772488392
46.922504021340856
47.22657750696214
47.615685742667615
48.31963888546628
49.661085283386896
50.41788571204821
50.55430794599345
37.04022469511116
28.149256017019695
29.39261922846967
28.90000551231894
28.71209588371954
28.67354213938944
28.62984057779235
27.98176705250785
27.03969394065561
27.10350520007431
29.084297511783618
33.178217658282534
36.691047776128514
37.6106425871529
36.09097425293949
35.50960798488346
35.79221542630815
36.200489734898014
40.17669789172497
41.68376355977383
41.71084520948874
42.51419320751166
43.615657705561404
44.07130608910244
45.55216017570045
46.765661592091995
47.42541393296446
47.68224549963502
47.96504439401396
48.273877138575
48.58303254006292
48.91829540799004
49.291150300221595
49.84840873465858
49.811835825266975
46.872668564770954
40.47387976364291
27.985471109211176
30.67050534282656
31.609697401169882
32.68761532641459
33.2839600284816
32.54390024435156
29.573510431513952
26.37660171237397
25.288899858240853
27.191214089228083
31.307557372259964
35.67748677990332
38.45474620126825
38.10524518500413
36.862745380193566
35.17840995718771
33.92460486205539
32.517043514636796
35.5367535975745
37.918266613738524
40.18519590869932
42.83583925877519
45.61598265847133
47.82966832318028
48.26729910550207
48.67186706343983
49.28081461492593
50.00181530770724
50.86016652615975
51.81754885846288
53.075292071259874
54.8654624985661
53.84532126877198
52.28584527623702
49.432556961544435
44.81296142543808
45.15400875835578
28.457561349305877
31.67863673074733
34.23904886228756
37.82653119510203
40.417396567588064
36.90840802926149
30.628898474043012
25.601496456955488
23.975132889599337
25.929126043117122
30.39290396475988
35.628301412839235
39.78196828764343
40.765144941604056
39.36938354094859
37.340602199514976
36.03523984757587
36.39808609971944
37.78011005917608
40.19114962993359
43.33466517589291
46.77259431261986
50.11941105014237
52.90754232570262
54.33462119558284
55.27026489578735
56.05968175250402
56.67104017901216
57.11607262903293
57.40360890366002
57.601171006167476
57.569005265281056
56.11090595121737
53.68046154040115
49.27611123583742
48.49881156637959
50.88129329104569
56.46070281040265
50.01332858060221
50.23279065751518
29.892849292287792
33.45611942557166
36.2544506345624
42.030635038220026
44.796649461836616
37.74094830944778
30.0837010574123
24.625996306980852
22.95675109016088
25.227623526954943
30.514658908076697
36.985206584060684
42.68128709757543
43.48305308676142
43.20651435091827
42.209413343545954
41.11668809349118
41.83941012091168
43.79833583773757
46.75355378257876
50.239287770840306
53.74132558312306
55.924419138177534
57.63610008952427
58.90278995280699
59.8303547117592
60.447004424114475
60.78038253114779
60.88286480871916
60.72912428228996
60.34433353186734
59.70170398857188
57.997964156182704
55.209916493587855
50.73674199327875
49.75384529969609
50.33621766907888
52.14598946515099
53.00622204940841
55.390074508805085
34.090139776639035
39.96645933857726
40.124194499026025
44.0061591379297
41.80830186602739
35.39551881842728
27.932195975290355
22.761732271341558
21.814627646999668
25.26275213858392
32.1763147506705
40.56135296326352
46.0942307330934
47.0150198137029
46.78447576163178
46.554158319784285
47.04064950795801
48.71193850680539
51.091779016796195
53.715326863017715
56.26194338088527
58.46381866499127
60.21593515869214
61.52230460616954
62.41416507431403
62.997913621351195
63.35226651802229
63.45336976154286
63.251100283074585
62.8204570255003
62.2361248999427
61.42012252656143
60.21593515869214
57.71063590701419
53.736624802354605
51.61337973057335
50.6480047218711
49.50581997655337
54.899281531012235
62.91352575549873
53.15865878384585
50.37616152467358
44.99252372275048
43.611066744384686
39.474595049080186
31.234987641241432
23.363222363143933
19.570084842271456
20.75615076851537
26.889935559877372
36.84546530480104
47.16883833219666
50.57332108187903
51.48092922067049
51.403080108749634
51.61069756223149
52.64958769151705
54.67725794030798
57.11796423382028
59.31539914543307
61.24118433918727
62.76972158007952
63.882339841172794
64.61130782890883
65.06189599395773
65.286627535293
65.3115740636346
65.16182375384831
64.83678685419494
64.36035116693228
63.705847775715206
62.921883297776205
61.82854476632212
60.6009294534321
59.26385322038625
58.48965594851336
57.14144615549372
53.34302299600053
48.83377594658496
73.57430139846414
66.75144267713365
58.71731302816237
51.80729893448382
46.18479935226594
33.12122998453306
20.761087737745783
15.170330776627083
15.52114136038766
21.46466031546916
33.35440022570701
47.0150198137029
53.4293499707679
55.742617491576
55.83150232657643
56.25329067508032
57.30072800057516
58.82536595921993
60.6265739993326
62.49041514683671
63.83452851762763
64.5121883058958
64.89670195092268
65.0783486474995
65.09873865619173
64.97136282579191
64.68843411732013
64.25066622191613
63.64680074982064
62.919395479575456
62.05348361283681
61.08271488656475
60.11962396348989
58.99562561446497
57.838467230010245
56.844028879492015
56.25371333939439
56.1129129315633
55.639361065521705
54.305366500652696
72.12064479541354
35.43972007305949
20.84517135477168
11.910880609501405
5.610220449495841
6.670839277184257
16.59666893083579
34.25999152383653
49.92602040160843
54.73717515780802
56.40720146153531
57.26127749466127
57.93016990018926
58.74448093180805
59.873642127968864
61.24617360640627
62.62287096426321
63.76390820661795
64.52165495565636
64.89851548935408
64.96717666326961
64.82779599000702
64.55577908933012
64.16434072862403
63.713041006814464
63.21462455473395
62.693536123471546
62.18638903993022
61.70966177886173
61.27544959427378
60.8805718583996
60.57090960281078
60.34462841868549
60.33729743752832
60.976410084328876
63.141494572686064
67.57666556457676
60.683985457306356
70.95347654167884
19.99122299922324
5.601509199447307
7.504233382622047
19.776102468071088
34.5836673512143
44.293082170236325
51.11400584040351
55.64808222719264
57.91002992006604
59.207917755287035
60.14550339460023
60.98094332536983
61.84336421635757
62.781952736933654
63.70418961225235
64.53931086875951
65.15086289076069
65.49759590478243
65.59717981226211
65.54102969305367
65.35992173559082
65.10247418020043
64.81619002908332
64.4897266264861
64.14706597752716
63.79683820926289
63.48422747028777
63.235288727284775
63.12491568666352
63.20370824028489
63.52724443217496
63.952409403575864
64.36054347309357
64.93974811137477
67.05821620339313
64.35847578281565
62.49610720663965
27.082395113478782
27.40170711376966
22.438506815102656
5.014126301854901
16.631861160251063
35.906247444354506
48.03742294972897
53.844724616087774
57.38841788515056
59.77691386239658
61.41986984781396
62.56265249383889
63.449336898914716
64.19446205025167
64.8686578718056
65.4896285245237
66.0888016428622
66.62988767746668
67.01327769265924
67.24204304740064
67.27731660965239
67.1222392159851
66.84578740889538
66.49865979947171
66.10414579543254
65.70365873489274
65.32321928851175
65.0028758358537
64.71443474678028
64.56424396777439
64.54220190315414
64.81221694119249
65.57071818720001
67.25615055468276
67.92679807146561
68.0486262309005
66.42969416759351
64.53954058006698
62.66950952560802
63.25880442270475
)
;

boundaryField
{
    ".*"
    {
        type            zeroGradient;
    }
}


// ************************************************************************* //
