/*--------------------------------*- C++ -*----------------------------------*\
  =========                 |
  \\      /  F ield         | OpenFOAM: The Open Source CFD Toolbox
   \\    /   O peration     | Website:  https://openfoam.org
    \\  /    A nd           | Version:  6
     \\/     M anipulation  |
\*---------------------------------------------------------------------------*/
FoamFile
{
    version     2.0;
    format      ascii;
    class       volScalarField;
    location    "100";
    object      alphat;
}
// * * * * * * * * * * * * * * * * * * * * * * * * * * * * * * * * * * * * * //

dimensions      [1 -1 -1 0 0 0 0];

internalField   nonuniform List<scalar> 
459
(
0.000911129
0.00092991
0.000735824
0.000737876
0.000763557
0.00079115
0.0008194
0.000848502
0.000879535
0.000908939
0.000933384
0.000950611
0.000958543
0.000955331
0.000934208
0.000490646
0.000540017
0.000544813
0.000433278
0.00032857
0.000279611
0.000260062
0.000247579
0.000234958
0.000226331
0.000225221
0.00023242
0.000251034
0.000303503
0.000425737
0.000565823
0.000618842
0.00058893
0.000520705
0.00164349
0.00315245
0.00183898
0.00284537
0.0031632
0.00335754
0.00356079
0.00375655
0.00391394
0.00402933
0.00407784
0.00401564
0.00377187
0.00323131
0.00226922
0.00100875
0.000720312
0.000574272
0.0014278
0.00150752
0.00125655
0.000929463
0.000624486
0.000501028
0.000437378
0.000423148
0.00041066
0.000411625
0.000467455
0.000648902
0.00100534
0.00141911
0.00205647
0.00194927
0.00184833
0.000638392
0.0022806
0.00559511
0.00218219
0.00350286
0.00468153
0.00501529
0.00523201
0.00541497
0.00555097
0.00563586
0.00563444
0.00549128
0.00512521
0.00443647
0.00338263
0.00214948
0.00107512
0.000989303
0.00249826
0.0021392
0.00173591
0.001372
0.000982918
0.000304311
0.000250791
0.000284227
0.000348434
0.000430465
0.000519968
0.000617579
0.000733482
0.000884364
0.00236313
0.00202121
0.00152426
0.000838605
0.00284947
0.00833501
0.00309952
0.00333282
0.00528358
0.00588864
0.00616533
0.00638749
0.00657169
0.0067165
0.00680935
0.00679092
0.00656261
0.00598757
0.00494165
0.00348492
0.00205865
0.00127316
0.00281176
0.00305643
0.00280704
0.0023926
0.0019714
0.00145679
0.000992775
0.000991412
0.000991438
0.000990567
0.000989742
0.000991856
0.00100211
0.00103054
0.00111268
0.00352854
0.00389376
0.00373524
0.00132163
0.00335156
0.0110255
0.00472135
0.00328032
0.00509677
0.00601703
0.00643206
0.00674813
0.00703288
0.00730466
0.00761823
0.00793853
0.00820204
0.00832871
0.00823582
0.00787388
0.00728881
0.00662917
0.00620077
0.00592499
0.00579745
0.00570883
0.00552745
0.00531893
0.00511096
0.00498352
0.00483634
0.00466816
0.00449896
0.00436642
0.00431132
0.00435492
0.00448821
0.00469393
0.00475884
0.00469834
0.00401632
0.00175341
0.00154033
0.00133947
0.00380581
0.0132769
0.00736038
0.00426093
0.00442397
0.00526132
0.00589348
0.00635484
0.00670755
0.00707461
0.00756495
0.00815155
0.00877278
0.00935021
0.00979674
0.0100276
0.00998988
0.00970216
0.00927024
0.00881109
0.00842153
0.00812362
0.00787949
0.00764617
0.00738359
0.00707715
0.00671605
0.00630475
0.0058713
0.00547535
0.00518616
0.00503369
0.00498233
0.00496367
0.00491997
0.0047765
0.00435215
0.00360762
0.00261851
0.00138239
0.00419487
0.0146857
0.0108849
0.00707262
0.00501418
0.00463813
0.00507561
0.00559241
0.0059057
0.00624964
0.00675153
0.00742957
0.00823921
0.00909129
0.00987198
0.0104539
0.0107571
0.0107707
0.0105601
0.0102397
0.0099142
0.0096352
0.0093979
0.00916827
0.0089049
0.00858211
0.0081845
0.0076996
0.00713083
0.00652196
0.00595993
0.0055228
0.00519702
0.00495344
0.00472607
0.00440709
0.00391001
0.00325522
0.00257162
0.00136709
0.00421911
0.0135376
0.0117587
0.0101839
0.00793369
0.00632521
0.00565354
0.00556391
0.00558267
0.00563405
0.00584248
0.00626769
0.00693323
0.00780354
0.00877365
0.0096135
0.0102053
0.0105204
0.0105924
0.0105084
0.0103645
0.0102237
0.0101033
0.00999027
0.00985981
0.00969157
0.00946817
0.00916805
0.00877177
0.00828378
0.00774957
0.00716907
0.00660666
0.00605586
0.00549181
0.00492168
0.00436482
0.0037825
0.00332459
0.00181204
0.00402753
0.00466091
0.00932032
0.00993349
0.00883989
0.00756641
0.00657789
0.00592774
0.00552191
0.00530022
0.00525213
0.00536699
0.00566471
0.00618026
0.00690779
0.00773291
0.00849377
0.00907302
0.00943592
0.00962035
0.00969777
0.00973275
0.00976288
0.00980072
0.00984548
0.00989451
0.00994256
0.00997127
0.00994876
0.00983111
0.00953947
0.00914053
0.00874716
0.00850563
0.00852571
0.00859723
0.00772723
0.00613441
0.00621698
0.00195747
0.0193911
0.0186606
0.0108774
0.00856376
0.00732255
0.0065089
0.00595063
0.00556186
0.00528866
0.00511064
0.00503317
0.00507942
0.0052838
0.00566207
0.00617553
0.00673097
0.00723
0.00761955
0.00789997
0.00810152
0.00825976
0.00840363
0.00855441
0.00872964
0.00894319
0.00919777
0.00947218
0.00969303
0.00976147
0.00966275
0.00943767
0.00917993
0.00896851
0.0087397
0.00804006
0.00677777
0.0059946
0.00187405
0.00758383
0.0154414
0.0105762
0.00835416
0.00711226
0.00627025
0.00565696
0.00519164
0.00482362
0.00452469
0.00429259
0.00412967
0.00404391
0.00404822
0.00415334
0.00435523
0.00462695
0.00492568
0.00521054
0.00545663
0.00565819
0.00582446
0.00597417
0.0061321
0.00632683
0.00658554
0.00692275
0.00731341
0.00766879
0.0079168
0.00800998
0.00794422
0.00773546
0.00732255
0.00648975
0.00537903
0.00484599
0.00163948
0.00324769
0.00420729
0.00572742
0.00522073
0.00419674
0.00348712
0.00299415
0.00263146
0.00235111
0.00212655
0.00194287
0.00179104
0.0016635
0.0015554
0.00146356
0.00138595
0.00132128
0.00126868
0.00122728
0.00119584
0.00117269
0.00115599
0.0011441
0.00113582
0.00113064
0.00112874
0.00113113
0.00113958
0.00115644
0.00118645
0.00123572
0.00130049
0.00136887
0.00142347
0.00144858
0.00143839
0.00141337
0.0013731
0.00136422
0.00128414
)
;

boundaryField
{
    floor
    {
        type            compressible::alphatWallFunction;
        Prt             0.85;
        value           nonuniform List<scalar> 
29
(
0.000132912
6.77291e-05
7.52625e-05
7.59891e-05
5.88645e-05
4.22587e-05
3.42622e-05
3.10135e-05
2.89246e-05
2.67961e-05
2.53295e-05
2.5132e-05
2.63461e-05
2.94752e-05
3.81456e-05
5.76487e-05
7.91399e-05
8.70948e-05
8.26194e-05
7.23113e-05
7.23105e-05
9.00026e-05
0.000119254
0.000186778
0.00013291
6.77283e-05
8.04334e-05
0.000140697
0.000180106
)
;
    }
    ceiling
    {
        type            compressible::alphatWallFunction;
        Prt             0.85;
        value           nonuniform List<scalar> 
43
(
0.000435537
0.000552669
0.000732966
0.000673419
0.000551309
0.000464947
0.000403902
0.000358325
0.000322642
0.000293734
0.000269842
0.000249907
0.000233018
0.00021859
0.000206245
0.000195744
0.000186942
0.000179746
0.000174057
0.000169721
0.00016652
0.000164205
0.000162552
0.0001614
0.000160678
0.000160412
0.000160743
0.000161916
0.000164253
0.000168404
0.000175192
0.000184069
0.000193386
0.000200789
0.000204182
0.000202804
0.000199419
0.000193957
0.000192747
0.000181824
0.000530825
0.000606928
0.000946941
)
;
    }
    sWall
    {
        type            compressible::alphatWallFunction;
        Prt             0.85;
        value           uniform 0.000434476;
    }
    nWall
    {
        type            compressible::alphatWallFunction;
        Prt             0.85;
        value           nonuniform List<scalar> 6(0.000188978 0.000194816 0.000192741 0.000260379 0.000229388 0.000181468);
    }
    sideWalls
    {
        type            empty;
    }
    glass1
    {
        type            compressible::alphatWallFunction;
        Prt             0.85;
        value           nonuniform List<scalar> 9(0.000125774 0.000224566 0.000306794 0.000378326 0.00044034 0.000495694 0.00054262 0.000545707 0.000522964);
    }
    glass2
    {
        type            compressible::alphatWallFunction;
        Prt             0.85;
        value           nonuniform List<scalar> 2(0.000250495 0.000269482);
    }
    sun
    {
        type            compressible::alphatWallFunction;
        Prt             0.85;
        value           nonuniform List<scalar> 
14
(
0.000129654
0.000132302
0.000104371
0.000104671
0.000108412
0.000112416
0.000116497
0.000120683
0.000125129
0.000129324
0.000132799
0.000135241
0.000136363
0.000135907
)
;
    }
    heatsource1
    {
        type            compressible::alphatWallFunction;
        Prt             0.85;
        value           nonuniform List<scalar> 3(0.000244915 0.00021655 0.000189411);
    }
    heatsource2
    {
        type            compressible::alphatWallFunction;
        Prt             0.85;
        value           nonuniform List<scalar> 4(0.000143646 0.000102297 0.000102295 0.000152943);
    }
    Table_master
    {
        type            compressible::alphatWallFunction;
        Prt             0.85;
        value           nonuniform List<scalar> 9(3.84758e-05 2.96142e-05 3.51471e-05 4.557e-05 5.85487e-05 7.23599e-05 8.70851e-05 0.000104202 0.000126007);
    }
    Table_slave
    {
        type            compressible::alphatWallFunction;
        Prt             0.85;
        value           nonuniform List<scalar> 9(0.000141425 0.000141237 0.000141244 0.000141124 0.000141009 0.000141306 0.000142748 0.000146738 0.0001582);
    }
    inlet
    {
        type            fixedValue;
        value           uniform 1.94e-05;
    }
    outlet
    {
        type            zeroGradient;
    }
}


// ************************************************************************* //
