/*--------------------------------*- C++ -*----------------------------------*\
  =========                 |
  \\      /  F ield         | OpenFOAM: The Open Source CFD Toolbox
   \\    /   O peration     | Website:  https://openfoam.org
    \\  /    A nd           | Version:  6
     \\/     M anipulation  |
\*---------------------------------------------------------------------------*/
FoamFile
{
    version     2.0;
    format      ascii;
    class       volScalarField;
    location    "100";
    object      epsilon;
}
// * * * * * * * * * * * * * * * * * * * * * * * * * * * * * * * * * * * * * //

dimensions      [0 2 -3 0 0 0 0];

internalField   nonuniform List<scalar> 
459
(
0.000168823
0.000178807
8.85905e-05
8.93473e-05
9.90177e-05
0.000110159
0.000122398
0.000135921
0.0001514
0.000167107
0.000180958
0.000191159
0.000195971
0.000193988
0.000181382
2.61759e-05
3.4896e-05
3.58312e-05
1.8028e-05
7.86167e-06
4.84344e-06
3.89413e-06
3.35906e-06
2.87018e-06
2.56413e-06
2.52426e-06
2.77244e-06
3.49269e-06
6.17443e-06
1.70619e-05
4.01006e-05
5.24873e-05
4.52312e-05
3.12691e-05
0.000993631
0.00227771
0.000196902
7.36313e-05
7.18715e-05
7.84695e-05
8.65558e-05
9.59601e-05
0.000107235
0.000120227
0.000134524
0.00014951
0.000163364
0.000172291
0.000177173
0.000228298
8.30291e-05
4.19763e-05
0.000106637
7.01563e-05
2.67997e-05
1.58348e-05
9.16013e-06
3.6306e-06
2.82055e-06
3.0141e-06
3.98783e-06
6.06536e-06
9.67915e-06
1.65475e-05
3.27602e-05
6.25757e-05
8.21748e-05
8.87782e-05
0.000107581
5.76252e-05
0.00266182
0.00772725
0.000665809
0.000112571
8.08973e-05
8.48413e-05
9.36515e-05
0.000104496
0.000117216
0.00013178
0.000147605
0.000164209
0.00018062
0.000195062
0.000207344
0.000226182
0.00027629
0.000214745
0.000207284
9.48512e-05
7.37891e-05
7.07569e-05
6.60013e-05
6.22393e-06
3.48018e-06
5.05674e-06
9.31535e-06
1.75907e-05
3.10569e-05
5.2114e-05
8.74212e-05
0.00015344
0.000121423
0.000129176
0.000146824
0.000130872
0.00520401
0.0162609
0.00171933
0.000204206
0.000101908
9.95076e-05
0.000108854
0.000121311
0.000135594
0.00015152
0.000167637
0.000183489
0.000198814
0.000213605
0.000230232
0.000258628
0.000323582
0.000458629
0.000234066
0.000130983
0.000109525
0.000114121
0.000129261
0.000158552
0.00021807
0.000217203
0.000217246
0.000216695
0.00021617
0.000217565
0.000224373
0.000243985
0.000307003
0.000226283
0.000279349
0.000402803
0.000514724
0.00848636
0.0263773
0.00361193
0.000422442
0.000151021
0.000130002
0.00013839
0.000153494
0.000171343
0.000190524
0.000208101
0.000224116
0.000238474
0.000249382
0.000253388
0.000247607
0.000232545
0.000204608
0.000150173
0.000122975
0.000115191
0.0001178
0.000124689
0.000133633
0.000142974
0.000150221
0.000159176
0.000170896
0.000186952
0.000210169
0.000244785
0.000295851
0.000366561
0.000445993
0.000571917
0.000740425
0.000841554
0.00120697
0.000817896
0.00053769
0.0124493
0.0343979
0.00672013
0.0011237
0.000349277
0.000231971
0.000219126
0.0002297
0.000248625
0.000266236
0.000279027
0.000290668
0.000303662
0.000316704
0.000324542
0.000319731
0.000296403
0.000256542
0.000211733
0.000177963
0.000159465
0.000153757
0.000155685
0.000161546
0.000169253
0.000178979
0.000192385
0.000210808
0.000236471
0.000273736
0.000329706
0.000413174
0.000531827
0.00069002
0.000890427
0.00111376
0.00125303
0.00122994
0.000698935
0.000591271
0.0166989
0.0369315
0.0123566
0.00401395
0.00153608
0.000777135
0.000554148
0.000478523
0.000457073
0.000432407
0.000405971
0.000387171
0.000380743
0.000384939
0.00039229
0.000391786
0.000373597
0.00033694
0.000291327
0.000250137
0.000221669
0.000206919
0.000202702
0.000205564
0.000213431
0.00022662
0.000246691
0.000275152
0.000313715
0.000365451
0.000436335
0.000535132
0.000666514
0.000836832
0.00104307
0.00124968
0.00138162
0.00138122
0.00123486
0.000571948
0.0170334
0.0409789
0.0230095
0.014831
0.00785295
0.00392836
0.00218308
0.00142168
0.00104476
0.000817047
0.000655937
0.000547027
0.000481545
0.000450416
0.000442166
0.000440241
0.000428793
0.000401385
0.0003621
0.00032118
0.000287708
0.000265618
0.000254608
0.000252845
0.000259092
0.000274214
0.00030086
0.000342634
0.000403638
0.000488361
0.000601364
0.000744432
0.000918634
0.00111098
0.00130717
0.00151087
0.00174321
0.00203476
0.00235332
0.00133753
0.014868
0.0229928
0.0492137
0.0359773
0.0205769
0.0113077
0.00634657
0.00374988
0.00233941
0.00153231
0.00106427
0.000787392
0.000622161
0.000526576
0.000476896
0.000454254
0.000441056
0.000424107
0.000398638
0.000367965
0.000338411
0.000314747
0.000299063
0.000291698
0.000292655
0.000303004
0.000325428
0.00036441
0.000424927
0.00050999
0.000621244
0.000765583
0.00094748
0.00117717
0.00147646
0.00182917
0.00199166
0.00234819
0.00505427
0.0016865
0.138901
0.133186
0.0303314
0.0131229
0.006988
0.00412362
0.00262341
0.001776
0.00126336
0.000939871
0.000729548
0.000591054
0.000501396
0.000446456
0.000415012
0.000396368
0.000381727
0.000366492
0.000350264
0.000334818
0.000322244
0.000314167
0.00031182
0.000316639
0.000330759
0.000357216
0.000399644
0.000460957
0.000543474
0.000644531
0.000754495
0.000859192
0.000939282
0.000960046
0.000926267
0.000898472
0.00165625
0.00147787
0.10118
0.0749795
0.0233132
0.0107133
0.00603356
0.00378131
0.00254812
0.00181413
0.00134988
0.00104154
0.000828571
0.000677604
0.00056946
0.00049263
0.00043952
0.000404187
0.000381306
0.000366237
0.00035554
0.000347204
0.000340448
0.000335356
0.000332605
0.000333438
0.000339811
0.000354513
0.000381019
0.000422792
0.000482059
0.000555202
0.000629384
0.000685389
0.000704962
0.000675242
0.000621688
0.00059081
0.00116754
0.000989862
0.00793992
0.0172583
0.0435458
0.0327711
0.0169583
0.00970494
0.006134
0.00415958
0.00296436
0.00219213
0.00167083
0.00130824
0.00104768
0.00085601
0.00071283
0.000605048
0.000523988
0.000463641
0.000419503
0.000387877
0.00036559
0.000350008
0.000339128
0.000331644
0.000326951
0.000325141
0.000327048
0.000334269
0.000349154
0.000376851
0.000425537
0.000495715
0.000577745
0.00064932
0.000683987
0.000669419
0.000634893
0.000581999
0.000570603
0.000475952
)
;

boundaryField
{
    floor
    {
        Cmu             0.09;
        kappa           0.41;
        E               9.8;
        type            epsilonWallFunction;
        value           nonuniform List<scalar> 
29
(
0.000181382
2.61759e-05
3.4896e-05
3.58312e-05
1.8028e-05
7.86167e-06
4.84344e-06
3.89413e-06
3.35906e-06
2.87018e-06
2.56413e-06
2.52426e-06
2.77244e-06
3.49269e-06
6.17443e-06
1.70619e-05
4.01006e-05
5.24873e-05
4.52312e-05
3.12691e-05
3.12691e-05
5.76252e-05
0.000130872
0.000514724
0.000181382
2.61759e-05
4.19763e-05
0.000214745
0.000458629
)
;
    }
    ceiling
    {
        Cmu             0.09;
        kappa           0.41;
        E               9.8;
        type            epsilonWallFunction;
        value           nonuniform List<scalar> 
43
(
0.00793992
0.0172583
0.0435458
0.0327711
0.0169583
0.00970494
0.006134
0.00415958
0.00296436
0.00219213
0.00167083
0.00130824
0.00104768
0.00085601
0.00071283
0.000605048
0.000523988
0.000463641
0.000419503
0.000387877
0.00036559
0.000350008
0.000339128
0.000331644
0.000326951
0.000325141
0.000327048
0.000334269
0.000349154
0.000376851
0.000425537
0.000495715
0.000577745
0.00064932
0.000683987
0.000669419
0.000634893
0.000581999
0.000570603
0.000475952
0.014868
0.0229928
0.10118
)
;
    }
    sWall
    {
        Cmu             0.09;
        kappa           0.41;
        E               9.8;
        type            epsilonWallFunction;
        value           uniform 0.00793992;
    }
    nWall
    {
        Cmu             0.09;
        kappa           0.41;
        E               9.8;
        type            epsilonWallFunction;
        value           nonuniform List<scalar> 6(0.00053769 0.000591271 0.000571948 0.00147787 0.000989862 0.000475952);
    }
    sideWalls
    {
        type            empty;
    }
    glass1
    {
        Cmu             0.09;
        kappa           0.41;
        E               9.8;
        type            epsilonWallFunction;
        value           nonuniform List<scalar> 9(0.000168823 0.000993631 0.00266182 0.00520401 0.00848636 0.0124493 0.0166989 0.0170334 0.014868);
    }
    glass2
    {
        Cmu             0.09;
        kappa           0.41;
        E               9.8;
        type            epsilonWallFunction;
        value           nonuniform List<scalar> 2(0.00133753 0.0016865);
    }
    sun
    {
        Cmu             0.09;
        kappa           0.41;
        E               9.8;
        type            epsilonWallFunction;
        value           nonuniform List<scalar> 
14
(
0.000168823
0.000178807
8.85905e-05
8.93473e-05
9.90177e-05
0.000110159
0.000122398
0.000135921
0.0001514
0.000167107
0.000180958
0.000191159
0.000195971
0.000193988
)
;
    }
    heatsource1
    {
        Cmu             0.09;
        kappa           0.41;
        E               9.8;
        type            epsilonWallFunction;
        value           nonuniform List<scalar> 3(0.00120697 0.000817896 0.00053769);
    }
    heatsource2
    {
        Cmu             0.09;
        kappa           0.41;
        E               9.8;
        type            epsilonWallFunction;
        value           nonuniform List<scalar> 4(0.000228298 8.30291e-05 8.30291e-05 0.00027629);
    }
    Table_master
    {
        Cmu             0.09;
        kappa           0.41;
        E               9.8;
        type            epsilonWallFunction;
        value           nonuniform List<scalar> 9(6.22393e-06 3.48018e-06 5.05674e-06 9.31535e-06 1.75907e-05 3.10569e-05 5.2114e-05 8.74212e-05 0.00015344);
    }
    Table_slave
    {
        Cmu             0.09;
        kappa           0.41;
        E               9.8;
        type            epsilonWallFunction;
        value           nonuniform List<scalar> 9(0.00021807 0.000217203 0.000217246 0.000216695 0.00021617 0.000217565 0.000224373 0.000243985 0.000307003);
    }
    inlet
    {
        type            turbulentMixingLengthDissipationRateInlet;
        mixingLength    0.01;
        phi             phi;
        k               k;
        value           uniform 0.138901;
    }
    outlet
    {
        type            zeroGradient;
    }
}


// ************************************************************************* //
