/*--------------------------------*- C++ -*----------------------------------*\
  =========                 |
  \\      /  F ield         | OpenFOAM: The Open Source CFD Toolbox
   \\    /   O peration     | Website:  https://openfoam.org
    \\  /    A nd           | Version:  6
     \\/     M anipulation  |
\*---------------------------------------------------------------------------*/
FoamFile
{
    version     2.0;
    format      ascii;
    class       volScalarField;
    location    "100";
    object      nut;
}
// * * * * * * * * * * * * * * * * * * * * * * * * * * * * * * * * * * * * * //

dimensions      [0 2 -1 0 0 0 0];

internalField   nonuniform List<scalar> 
459
(
0.000781365
0.000796473
0.000630226
0.000632016
0.000654045
0.000677712
0.00070194
0.000726896
0.000753507
0.000778715
0.000799667
0.000814424
0.000821206
0.000818433
0.000800316
0.000419619
0.000461808
0.000465897
0.000370486
0.000280924
0.000239042
0.000222305
0.000211621
0.000200834
0.000193462
0.000192514
0.000198672
0.000214593
0.000259465
0.000364022
0.000483911
0.000529299
0.000503696
0.000445353
0.00141075
0.00270112
0.00157548
0.00243781
0.00271031
0.00287702
0.00305136
0.00321928
0.00335429
0.00345327
0.00349485
0.00344145
0.00323234
0.00276884
0.00194417
0.000864112
0.00061677
0.000491185
0.00122121
0.00128934
0.00107453
0.000794684
0.000533791
0.000428159
0.000373743
0.000361589
0.000350932
0.000351785
0.000399547
0.000554728
0.000859665
0.0012139
0.00175962
0.00166782
0.00158112
0.000546041
0.00195931
0.0047962
0.00187009
0.00300204
0.00401257
0.00429902
0.00448517
0.00464233
0.00475918
0.00483211
0.00483088
0.00470792
0.00439364
0.00380263
0.00289875
0.00184155
0.000920892
0.000846529
0.0021376
0.00183042
0.00148541
0.00117407
0.000840994
0.000260052
0.000214294
0.000242886
0.000297809
0.000368017
0.000444664
0.000528287
0.000627606
0.000756941
0.00202322
0.0017301
0.00130458
0.000717685
0.00244995
0.00714823
0.00265712
0.00285719
0.00453012
0.00504954
0.00528743
0.00547851
0.00563692
0.00576142
0.00584108
0.00582497
0.00562848
0.00513434
0.00423637
0.00298659
0.00176366
0.00109041
0.00240768
0.00261758
0.00240448
0.00204987
0.0016892
0.00124835
0.000850773
0.000849612
0.000849641
0.000848903
0.000848207
0.00085003
0.00085883
0.000883223
0.000953654
0.00302417
0.00333723
0.00320147
0.00113289
0.00288371
0.00946032
0.00404903
0.00281312
0.00437148
0.00516163
0.00551855
0.00579057
0.00603563
0.00626938
0.00653868
0.00681335
0.00703881
0.00714636
0.00706514
0.00675298
0.00624962
0.00568282
0.00531481
0.00507843
0.0049696
0.00489407
0.00473878
0.00456011
0.00438186
0.00427264
0.00414652
0.00400245
0.00385756
0.00374415
0.0036972
0.00373496
0.00384972
0.00402664
0.00408295
0.00403178
0.00344722
0.00150511
0.00132202
0.00114952
0.00327662
0.0113986
0.00631571
0.00365566
0.00379591
0.00451522
0.00505875
0.00545583
0.00575963
0.00607554
0.00649699
0.00700068
0.0075336
0.00802832
0.00841011
0.00860641
0.00857208
0.00832358
0.00795196
0.00755761
0.00722336
0.00696782
0.00675838
0.00655818
0.00633287
0.00606999
0.00576032
0.00540772
0.00503626
0.00469709
0.00444958
0.00431942
0.00427607
0.00426079
0.00422397
0.00410139
0.00373742
0.00309815
0.002248
0.00118648
0.0036136
0.0126181
0.00934893
0.00607311
0.00430512
0.00398263
0.00435911
0.00480397
0.00507418
0.00537048
0.00580221
0.00638495
0.00708034
0.00781164
0.00848099
0.00897909
0.00923748
0.00924733
0.00906508
0.00878899
0.00850898
0.00826906
0.008065
0.00786756
0.00764118
0.00736386
0.00702247
0.0066064
0.00611864
0.00559675
0.00511521
0.00474087
0.00446201
0.00425355
0.00405885
0.0037853
0.00335858
0.00279615
0.00220864
0.0011734
0.00363756
0.0116494
0.0101174
0.00875969
0.00682144
0.00543738
0.00485992
0.00478331
0.00480008
0.00484485
0.00502443
0.0053902
0.00596235
0.00671019
0.00754328
0.00826382
0.00877074
0.00903971
0.00909996
0.0090264
0.00890177
0.00877993
0.00867574
0.00857794
0.00846517
0.00831998
0.0081275
0.0078693
0.00752888
0.00711019
0.00665227
0.00615484
0.00567295
0.00520086
0.00471712
0.00422794
0.00375
0.00325012
0.00285702
0.00155747
0.00347637
0.0040201
0.0080431
0.00856767
0.00761816
0.00651691
0.00566361
0.00510291
0.00475303
0.00456184
0.00452028
0.00461903
0.00487508
0.0053184
0.00594383
0.00665282
0.00730611
0.00780287
0.00811343
0.00827056
0.00833581
0.0083647
0.00838952
0.00842099
0.0084584
0.00849944
0.00853959
0.00856309
0.0085427
0.00844093
0.0081902
0.00784781
0.00751054
0.00730372
0.00732139
0.00738305
0.00663642
0.00526911
0.00534118
0.00168265
0.0168797
0.0161268
0.00938351
0.00738273
0.00631056
0.0056083
0.00512671
0.00479144
0.00455579
0.0044022
0.00433521
0.00437472
0.0045503
0.00487545
0.00531677
0.00579398
0.0062224
0.00655646
0.00679655
0.00696877
0.00710374
0.00722634
0.00735485
0.00750433
0.00768664
0.00790411
0.00813851
0.00832686
0.00838442
0.00829873
0.00810495
0.00788345
0.00770186
0.0075054
0.00690486
0.00582126
0.00514929
0.00161019
0.00658821
0.013358
0.00913529
0.00721056
0.00613624
0.00540856
0.00487885
0.00447708
0.00415936
0.00390128
0.00370084
0.00356004
0.00348574
0.00348903
0.00357913
0.00375253
0.00398597
0.00424256
0.00448709
0.00469814
0.0048708
0.00501303
0.00514097
0.00527592
0.00544246
0.00566393
0.00595276
0.00628737
0.00659151
0.00680335
0.00688233
0.00682505
0.00664521
0.00629026
0.00557488
0.00462091
0.00416331
0.00140882
0.00282021
0.00365342
0.00497402
0.00452434
0.00363235
0.00301571
0.00258803
0.00227371
0.00203093
0.00183656
0.00167762
0.00154625
0.00143591
0.00134239
0.00126294
0.00119579
0.00113982
0.00109428
0.0010584
0.00103112
0.001011
0.000996441
0.000986017
0.000978714
0.000974073
0.000972264
0.000974143
0.000981235
0.000995555
0.00102118
0.00106334
0.00111881
0.00117736
0.00122407
0.00124546
0.00123654
0.0012149
0.00118017
0.00117243
0.00110367
)
;

boundaryField
{
    floor
    {
        type            nutkWallFunction;
        Cmu             0.09;
        kappa           0.41;
        E               9.8;
        value           nonuniform List<scalar> 
29
(
9.6929e-05
4.93687e-05
5.48477e-05
5.53751e-05
4.29103e-05
3.08194e-05
2.49942e-05
2.26262e-05
2.11035e-05
1.9553e-05
1.84844e-05
1.83406e-05
1.92255e-05
2.15059e-05
2.78222e-05
4.20241e-05
5.76721e-05
6.34644e-05
6.02062e-05
5.27058e-05
5.27058e-05
6.55833e-05
8.69051e-05
0.000136241
9.6929e-05
4.93686e-05
5.86189e-05
0.000102498
0.000131278
)
;
    }
    ceiling
    {
        type            nutkWallFunction;
        Cmu             0.09;
        kappa           0.41;
        E               9.8;
        value           nonuniform List<scalar> 
43
(
0.000321348
0.000407795
0.000540933
0.000495954
0.000405513
0.000341714
0.000296694
0.000263119
0.000236853
0.000215584
0.000198013
0.000183353
0.000170934
0.000160326
0.00015125
0.000143528
0.000137054
0.00013176
0.000127572
0.000124376
0.000122012
0.000120297
0.000119068
0.000118206
0.000117659
0.000117445
0.000117668
0.000118507
0.000120196
0.000123211
0.000128151
0.000134615
0.0001414
0.000146784
0.000149242
0.000148218
0.00014573
0.000141727
0.000140832
0.000132858
0.000389421
0.000444939
0.000699083
)
;
    }
    sWall
    {
        type            nutkWallFunction;
        Cmu             0.09;
        kappa           0.41;
        E               9.8;
        value           uniform 0.000321413;
    }
    nWall
    {
        type            nutkWallFunction;
        Cmu             0.09;
        kappa           0.41;
        E               9.8;
        value           nonuniform List<scalar> 6(0.000138178 0.000142452 0.000140944 0.000190488 0.000167865 0.000132867);
    }
    sideWalls
    {
        type            empty;
    }
    glass1
    {
        type            nutkWallFunction;
        Cmu             0.09;
        kappa           0.41;
        E               9.8;
        value           nonuniform List<scalar> 9(9.46383e-05 0.000168266 0.000229315 0.000282332 0.000328264 0.000369251 0.000404003 0.000406477 0.000389934);
    }
    glass2
    {
        type            nutkWallFunction;
        Cmu             0.09;
        kappa           0.41;
        E               9.8;
        value           nonuniform List<scalar> 2(0.000184679 0.000198641);
    }
    sun
    {
        type            nutkWallFunction;
        Cmu             0.09;
        kappa           0.41;
        E               9.8;
        value           nonuniform List<scalar> 
14
(
9.46418e-05
9.64684e-05
7.61222e-05
7.63444e-05
7.9073e-05
8.19924e-05
8.49683e-05
8.8021e-05
9.12623e-05
9.43203e-05
9.68529e-05
9.86319e-05
9.94479e-05
9.91137e-05
)
;
    }
    heatsource1
    {
        type            nutkWallFunction;
        Cmu             0.09;
        kappa           0.41;
        E               9.8;
        value           nonuniform List<scalar> 3(0.000178696 0.000157978 0.000138166);
    }
    heatsource2
    {
        type            nutkWallFunction;
        Cmu             0.09;
        kappa           0.41;
        E               9.8;
        value           nonuniform List<scalar> 4(0.000104591 7.44523e-05 7.44523e-05 0.000111353);
    }
    Table_master
    {
        type            nutkWallFunction;
        Cmu             0.09;
        kappa           0.41;
        E               9.8;
        value           nonuniform List<scalar> 9(2.79483e-05 2.15091e-05 2.553e-05 3.3107e-05 4.25472e-05 5.25989e-05 6.33206e-05 7.57874e-05 9.16744e-05);
    }
    Table_slave
    {
        type            nutkWallFunction;
        Cmu             0.09;
        kappa           0.41;
        E               9.8;
        value           nonuniform List<scalar> 9(0.000103016 0.00010288 0.000102886 0.000102799 0.000102716 0.000102935 0.000103987 0.000106896 0.00011525);
    }
    inlet
    {
        type            calculated;
        value           uniform 0.0168797;
    }
    outlet
    {
        type            calculated;
        value           nonuniform List<scalar> 2(0.00282021 0.00365342);
    }
}


// ************************************************************************* //
