/*--------------------------------*- C++ -*----------------------------------*\
  =========                 |
  \\      /  F ield         | OpenFOAM: The Open Source CFD Toolbox
   \\    /   O peration     | Website:  https://openfoam.org
    \\  /    A nd           | Version:  6
     \\/     M anipulation  |
\*---------------------------------------------------------------------------*/
FoamFile
{
    version     2.0;
    format      ascii;
    class       surfaceScalarField;
    location    "100";
    object      phi;
}
// * * * * * * * * * * * * * * * * * * * * * * * * * * * * * * * * * * * * * //

dimensions      [1 0 -1 0 0 0 0];

internalField   nonuniform List<scalar> 
852
(
-0.00241876
0.00248779
-0.00238695
-3.15961e-05
-0.00233111
-5.5627e-05
-0.00238601
5.51147e-05
-0.00248235
9.65498e-05
-0.00257597
9.38412e-05
-0.00264081
6.50489e-05
-0.0026576
1.69983e-05
-0.0026091
-4.82981e-05
-0.0024782
-0.000130703
-0.00225113
-0.000226872
-0.00191921
-0.000331726
-0.00146678
-0.000452245
-0.000836907
-0.000629688
-0.000833268
-0.000881911
0.000888131
-0.000879203
-2.6631e-06
-0.000626313
-0.000252852
-0.000441781
-0.000184508
-0.000414744
-2.70321e-05
-0.000416348
1.59918e-06
-0.000310317
-0.00010605
-0.000149054
-0.000161276
-2.2955e-05
-0.000126103
9.10739e-05
-0.000114024
0.000205178
-0.000114089
0.000303462
-9.82562e-05
0.000367402
-6.39042e-05
0.000411427
-4.39779e-05
0.000510164
-9.86725e-05
0.000714027
-0.000203775
0.000954822
-0.000240684
0.000930178
2.47543e-05
0.000936193
-0.00173216
0.00439356
-0.00217569
0.000412149
-0.00233886
0.00010775
-0.00246136
0.000177835
-0.00258134
0.000216739
-0.0026852
0.000197911
-0.0027579
0.000137947
-0.00278592
4.52249e-05
-0.00275703
-7.69959e-05
-0.00265945
-0.000228089
-0.00247955
-0.000406582
-0.00220165
-0.000609443
-0.00181492
-0.000838799
-0.00135523
-0.0010892
-0.00089562
-0.00129271
0.000268331
-0.00116383
0.000268458
0.000793059
0.000111741
0.000513205
0.000277253
2.43849e-05
0.000236038
-0.000198515
3.84551e-05
-0.000208356
-1.71338e-05
-0.000317151
0.000110413
-0.000324501
-9.86978e-05
-0.000303902
-0.000181869
-0.000276004
-0.000153974
-0.000244583
-0.000145386
-0.000226634
-0.000131942
-0.000227968
-9.67994e-05
-0.000252976
-3.87539e-05
-0.000313258
1.64742e-05
-0.000332769
-7.89708e-05
-0.000155463
-0.000380862
0.000133408
-0.000529338
0.000256788
-9.84563e-05
0.00120854
-0.00126222
0.00590906
-0.00188755
0.00103769
-0.00219517
0.000415591
-0.00238742
0.000370291
-0.00253898
0.000368514
-0.00266095
0.000320083
-0.00275152
0.000228717
-0.00280528
9.91828e-05
-0.00281674
-6.5343e-05
-0.00278186
-0.000262777
-0.00269705
-0.000491201
-0.00256031
-0.000746004
-0.00237778
-0.00102114
-0.00217292
-0.00129388
-0.00196989
-0.00149556
-0.00161826
-0.0015153
-0.00134963
-0.000740705
0.000870886
-0.000941317
0.000477975
-0.000953916
0.000248772
-0.000927516
1.22274e-05
-0.000767364
-0.000177074
-0.000250605
-0.000406104
-0.000349102
-0.000530758
-0.000684446
-0.000829461
-0.00096098
-0.00105735
-0.00109568
-0.00107878
-0.00115731
-0.00109706
-0.000440824
-0.00154443
-8.17088e-05
-0.00160777
-3.48909e-05
-0.000378626
-0.000918022
0.00714532
-0.00161621
0.00173609
-0.00198327
0.000782872
-0.00222233
0.000609566
-0.00238976
0.000536153
-0.00251292
0.000443444
-0.00260384
0.00031984
-0.00266724
0.000162776
-0.00270512
-2.72579e-05
-0.00272236
-0.000245344
-0.00272996
-0.00048341
-0.00274272
-0.000733053
-0.00278258
-0.000981081
-0.00287768
-0.00119858
-0.00303799
-0.00133505
-0.00323504
-0.00131807
-0.003635
-0.000949488
-0.00319268
-0.000425474
-0.00248277
0.000161121
-0.0023207
0.000316076
-0.00224342
0.000171679
-0.00221554
-1.54362e-05
-0.00219627
-0.000196114
-0.00230131
-0.000300823
-0.0020414
-0.000259817
-0.00178082
-0.000260474
-0.00150873
-0.000271991
-0.00123401
-0.000274601
-0.000970083
-0.000263804
-0.000729845
-0.000240105
-0.000519355
-0.000210344
-0.000331812
-0.000187376
-0.000131926
-0.000199691
-0.000241807
-0.00033057
-1.92567e-05
-0.000303868
0.000169789
-0.000223529
-0.000190583
-0.000669889
0.0081893
-0.00139837
0.00246479
-0.00172173
0.00110646
-0.00196799
0.000856038
-0.00213213
0.00070051
-0.00222889
0.000540412
-0.00228261
0.000373768
-0.00231173
0.000192092
-0.00232751
-1.1273e-05
-0.00234197
-0.000230684
-0.00237351
-0.000451667
-0.00243941
-0.000666953
-0.00255328
-0.000867008
-0.00272038
-0.00103127
-0.00293226
-0.00112296
-0.00316799
-0.00108213
-0.00328273
-0.000834534
-0.00323807
-0.000469921
-0.00293878
-0.000137968
-0.0026286
6.10905e-06
-0.00242642
-3.02679e-05
-0.00230375
-0.00013786
-0.00223876
-0.000260849
-0.00219429
-0.000345027
-0.00207374
-0.000380085
-0.00192577
-0.000408164
-0.00176911
-0.000428351
-0.0016121
-0.000431304
-0.00146431
-0.000411275
-0.00133285
-0.00037124
-0.00121642
-0.000326427
-0.00109825
-0.000305184
-0.000948605
-0.000348964
-0.000785932
-0.000492859
-0.000388299
-0.000701111
0.000390568
-0.001002
0.00152065
-0.00132027
0.00263529
-0.00111444
0.00232095
0.000314557
0.00236939
-0.000640575
0.00925342
-0.00131666
0.00314109
-0.00135385
0.00114389
-0.00151906
0.00102147
-0.0017097
0.00089137
-0.00178565
0.000616577
-0.00177938
0.00036771
-0.00173939
0.000152306
-0.00169544
-5.50092e-05
-0.00167009
-0.000255835
-0.00168392
-0.000437621
-0.00175082
-0.000599844
-0.00187465
-0.000742963
-0.0020485
-0.000857203
-0.00225467
-0.000916569
-0.00245546
-0.00088112
-0.00256322
-0.000726542
-0.00253856
-0.000494351
-0.00239016
-0.000286136
-0.00220732
-0.00017649
-0.00206595
-0.000171394
-0.00197722
-0.000226335
-0.00193464
-0.000303166
-0.00191038
-0.000369012
-0.00187625
-0.000413934
-0.00183719
-0.00044693
-0.00180185
-0.000463385
-0.0017784
-0.000454446
-0.00177498
-0.000414372
-0.00179703
-0.000348856
-0.00184273
-0.000280384
-0.00190068
-0.000246885
-0.0019505
-0.000298799
-0.001964
-0.000479002
-0.00184837
-0.000816381
-0.00149399
-0.00135602
-0.000746002
-0.00206791
0.000639017
-0.00249909
0.0014652
-0.000511209
0.00389211
-0.000883267
0.0106062
-0.000953567
0.00321161
-0.000404391
0.000594947
-0.00044439
0.00106171
-0.000802485
0.0012497
-0.000969772
0.000784093
-0.000951075
0.000349235
-0.000862025
6.34764e-05
-0.000772335
-0.000144483
-0.000719886
-0.000308068
-0.000721968
-0.000435323
-0.000788947
-0.000532646
-0.000918357
-0.000613332
-0.0010958
-0.00067953
-0.00129581
-0.000716333
-0.00148065
-0.00069605
-0.00160041
-0.000606542
-0.00162404
-0.000470487
-0.00156874
-0.000341185
-0.00148279
-0.000262197
-0.00141151
-0.000242414
-0.0013732
-0.000264392
-0.00136939
-0.000306702
-0.00138868
-0.000349457
-0.00142011
-0.00038222
-0.00146497
-0.00040178
-0.00152937
-0.000398696
-0.00162342
-0.000360096
-0.0017613
-0.000276183
-0.001958
-0.000151841
-0.00221964
-1.84195e-05
-0.00253884
7.26343e-05
-0.00289896
6.16492e-05
-0.00326873
-0.000108914
-0.00360473
-0.000480049
-0.00387175
-0.00108868
-0.00399283
-0.0019465
-0.00368916
-0.00280241
-0.00167639
-0.0025236
0.00228406
0.00186695
0.00926695
0.00261231
0.00246646
0.00258197
0.000625523
0.00191157
0.00173236
0.00126232
0.0018992
0.000889738
0.00115692
0.000700978
0.000538238
0.000612826
0.000151866
0.000582624
-0.000114051
0.000563002
-0.000288218
0.000508873
-0.000380966
0.000406959
-0.000430504
0.000256423
-0.000462566
6.52923e-05
-0.000488166
-0.000144203
-0.0005066
-0.000337501
-0.000502511
-0.000480598
-0.0004632
-0.000555125
-0.000395711
-0.000571337
-0.000324722
-0.000558659
-0.00027462
-0.000546563
-0.000254251
-0.00055215
-0.000258542
-0.000581157
-0.000277428
-0.000630619
-0.000299725
-0.00069574
-0.000316824
-0.000775441
-0.000321799
-0.000870104
-0.000303749
-0.000981995
-0.000247918
-0.00111744
-0.000140444
-0.00129204
2.30464e-05
-0.0015511
0.000240931
-0.00195986
0.000481686
-0.00256918
0.000671261
-0.0033795
0.0007017
-0.00432263
0.000463367
-0.00534657
-6.44458e-05
-0.00660785
-0.000684938
-0.00816717
-0.0012428
-0.00787804
-0.00281244
-0.00529245
0.00985858
0.0123232
0.00961355
0.00333542
0.00639182
0.00495434
0.00487711
0.00341416
0.00395844
0.00207585
0.00333095
0.00116597
0.00288365
0.000599416
0.00252549
0.000244347
0.00222519
1.23279e-05
0.00197881
-0.000134338
0.00176544
-0.000216887
0.00156217
-0.000259054
0.00135505
-0.000280797
0.00114284
-0.000294151
0.000940436
-0.000299851
0.000770172
-0.000292681
0.000646737
-0.000272018
0.000567804
-0.000245529
0.00051718
-0.000223732
0.000475878
-0.000212683
0.000430129
-0.000212526
0.000372907
-0.000219938
0.000303202
-0.00022975
0.000223149
-0.000236499
0.000135869
-0.000234245
4.68768e-05
-0.000214482
-3.48475e-05
-0.000165918
-9.87439e-05
-7.627e-05
-0.000142045
6.66257e-05
-0.000165948
0.000265111
-0.000175394
0.000491409
-0.000173958
0.000670103
-0.000164981
0.000693001
-0.000186896
0.000485557
-0.000329102
7.80284e-05
-0.000591597
-0.000422177
-0.000872918
-0.000961215
-0.00108773
-0.00259737
-0.00604817
-0.00154966
0.0034945
0.000672808
0.00273218
0.00229122
0.00179602
0.00294824
0.00141908
0.00317508
0.000939387
0.00323742
0.000537327
0.00321553
0.000266502
0.00313396
9.41528e-05
0.00301622
-1.63382e-05
0.00288064
-8.10369e-05
0.00273458
-0.000112733
0.00257884
-0.000124795
0.00241302
-0.000128057
0.00224212
-0.000128686
0.00207787
-0.00012816
0.00193232
-0.000126198
0.00181057
-0.000123503
0.00170907
-0.000121957
0.00161976
-0.000123102
0.00153475
-0.000127239
0.0014486
-0.000133518
0.0013592
-0.000140068
0.00126729
-0.000144321
0.00117621
-0.000142892
0.00109276
-0.000130755
0.00102793
-0.000100824
0.000996448
-4.45137e-05
0.00101613
4.72138e-05
0.00110437
0.000177135
0.00126776
0.000328292
0.0014885
0.000449628
0.00171659
0.000465177
0.00188446
0.000317956
0.00195728
5.47146e-06
0.00197492
-0.000439552
0.00206039
-0.00104643
0.00169735
-0.00223407
-0.00427728
-0.00106344
0.00454845
0.000756075
0.000913008
0.00182856
0.000723849
0.00266423
0.00058371
0.0032236
0.000380316
0.00353722
0.000223998
0.00368964
0.000114372
0.00374567
3.84178e-05
0.00374006
-1.04325e-05
0.00369405
-3.47391e-05
0.00362528
-4.36702e-05
0.00354318
-4.23961e-05
0.00345127
-3.58509e-05
0.00335036
-2.74881e-05
0.00324198
-1.94907e-05
0.00312958
-1.35047e-05
0.00301725
-1.08872e-05
0.0029079
-1.2311e-05
0.00280251
-1.74293e-05
0.00270067
-2.51143e-05
0.0026014
-3.39647e-05
0.00250418
-4.25728e-05
0.00240971
-4.95665e-05
0.00232052
-5.34262e-05
0.00224203
-5.19864e-05
0.00218371
-4.22269e-05
0.0021603
-2.0832e-05
0.00219202
1.57611e-05
0.00230058
6.88404e-05
0.00249413
0.000135008
0.00275171
0.000192304
0.00301501
0.000202147
0.0032027
0.000130525
0.00323705
-2.86125e-05
0.00308422
-0.00028647
0.0026685
-0.000630452
0.00162184
-0.00118715
-0.00256582
-0.00245677
-0.00300165
0.00153387
0.00243652
0.00315039
0.0037243
0.00409484
0.00430899
0.00441342
0.00444178
0.0044212
0.0043763
0.00432255
0.00427022
0.00422466
0.0041878
0.00415936
0.00413745
0.00411881
0.00409951
0.00407596
0.00404566
0.0040075
0.00396178
0.00391014
0.00385575
0.00380394
0.00376307
0.00374479
0.00376431
0.00383813
0.00397928
0.00417875
0.00438896
0.0045283
0.00450919
0.0042329
0.00361337
0.00243766
)
;

boundaryField
{
    floor
    {
        type            calculated;
        value           nonuniform List<scalar> 
29
(
0
0
0
0
0
0
0
0
0
0
0
0
0
0
0
0
0
0
0
0
-5.91241e-06
-1.54408e-05
-2.04045e-05
-1.78227e-05
-3.45915e-06
-6.16981e-06
-1.66157e-05
-1.8355e-05
-1.66925e-05
)
;
    }
    ceiling
    {
        type            calculated;
        value           nonuniform List<scalar> 
43
(
2.17293e-05
1.73141e-05
1.33179e-05
1.0767e-05
1.03743e-05
1.01814e-05
1.01466e-05
1.0202e-05
1.03012e-05
1.04123e-05
1.04931e-05
1.04957e-05
1.04218e-05
1.02689e-05
1.00319e-05
9.70242e-06
9.27025e-06
8.72602e-06
8.06608e-06
7.29622e-06
6.43119e-06
5.4901e-06
4.49094e-06
3.44715e-06
2.3666e-06
1.25255e-06
1.06044e-07
-1.06994e-06
-2.26561e-06
-3.47852e-06
-4.69904e-06
-5.86164e-06
-6.90065e-06
-7.78673e-06
-8.54398e-06
-9.23568e-06
-9.92238e-06
-1.06505e-05
-1.11875e-05
-1.14748e-05
3.57531e-06
2.0226e-06
9.89595e-06
)
;
    }
    sWall
    {
        type            calculated;
        value           uniform -0.000115086;
    }
    nWall
    {
        type            calculated;
        value           nonuniform List<scalar> 6(-4.81839e-05 -5.70628e-05 -6.78663e-05 -7.32927e-05 -8.93736e-05 -0.000116433);
    }
    sideWalls
    {
        type            empty;
        value           nonuniform 0();
    }
    glass1
    {
        type            calculated;
        value           nonuniform List<scalar> 9(-6.8827e-05 -0.00017341 -0.000253087 -0.000318042 -0.000373901 -0.000423359 -0.000469327 -0.000527504 -0.000595032);
    }
    glass2
    {
        type            calculated;
        value           nonuniform List<scalar> 2(-0.000301235 -0.000331773);
    }
    sun
    {
        type            calculated;
        value           uniform 0;
    }
    heatsource1
    {
        type            calculated;
        value           nonuniform List<scalar> 3(2.04748e-07 2.04895e-07 2.05142e-07);
    }
    heatsource2
    {
        type            calculated;
        value           nonuniform List<scalar> 4(5.15978e-08 5.17643e-08 0 0);
    }
    Table_master
    {
        type            calculated;
        value           nonuniform List<scalar> 9(-1.55899e-07 -1.55886e-07 -1.55805e-07 -1.55694e-07 -1.55562e-07 -1.55431e-07 -1.55319e-07 -1.55216e-07 -1.55058e-07);
    }
    Table_slave
    {
        type            calculated;
        value           nonuniform List<scalar> 9(1.54252e-07 1.54345e-07 1.54431e-07 1.5452e-07 1.5461e-07 1.54694e-07 1.54768e-07 1.54825e-07 1.54829e-07);
    }
    inlet
    {
        type            calculated;
        value           uniform 0.00139101;
    }
    outlet
    {
        type            calculated;
        value           nonuniform List<scalar> 2(0.00255051 0.000527959);
    }
}


// ************************************************************************* //
