/*--------------------------------*- C++ -*----------------------------------*\
  =========                 |
  \\      /  F ield         | OpenFOAM: The Open Source CFD Toolbox
   \\    /   O peration     | Website:  https://openfoam.org
    \\  /    A nd           | Version:  6
     \\/     M anipulation  |
\*---------------------------------------------------------------------------*/
FoamFile
{
    version     2.0;
    format      ascii;
    class       volScalarField;
    location    "100";
    object      T;
}
// * * * * * * * * * * * * * * * * * * * * * * * * * * * * * * * * * * * * * //

dimensions      [0 0 0 1 0 0 0];

internalField   nonuniform List<scalar> 
459
(
302.03
301.652
301.647
301.661
301.677
301.691
301.703
301.714
301.724
301.731
301.734
301.733
301.728
301.721
301.713
301.205
301.183
301.174
301.148
301.119
301.089
301.057
301.038
301.04
301.042
301.043
301.05
301.064
301.086
301.136
301.204
301.229
301.218
301.223
302.307
301.76
301.718
301.736
301.758
301.778
301.796
301.811
301.823
301.83
301.831
301.823
301.805
301.776
301.734
301.683
301.556
301.226
301.223
301.211
301.164
301.112
301.033
300.961
300.942
300.946
300.959
300.983
301.019
301.07
301.149
301.253
301.344
301.33
301.265
301.234
302.558
301.887
301.806
301.82
301.849
301.877
301.902
301.923
301.939
301.948
301.947
301.933
301.904
301.858
301.795
301.721
301.653
301.348
301.332
301.339
301.353
301.366
301.323
300.953
300.923
300.95
301.004
301.083
301.17
301.254
301.338
301.43
301.518
301.45
301.415
301.393
302.787
302.022
301.9
301.908
301.945
301.983
302.019
302.049
302.072
302.087
302.088
302.072
302.037
301.981
301.904
301.807
301.701
301.617
301.556
301.6
301.661
301.719
301.754
301.776
301.793
301.795
301.798
301.801
301.805
301.809
301.814
301.823
301.834
301.827
301.831
301.84
301.873
302.998
302.166
302.01
302
302.043
302.093
302.142
302.186
302.222
302.246
302.254
302.244
302.213
302.165
302.1
302.025
301.949
301.885
301.841
301.841
301.87
301.897
301.91
301.917
301.92
301.923
301.928
301.937
301.951
301.97
301.994
302.024
302.059
302.095
302.141
302.195
302.257
302.287
302.246
302.217
303.183
302.33
302.168
302.126
302.155
302.211
302.272
302.331
302.383
302.419
302.435
302.431
302.407
302.364
302.306
302.238
302.171
302.112
302.072
302.052
302.047
302.046
302.045
302.041
302.037
302.034
302.036
302.046
302.065
302.095
302.134
302.18
302.231
302.283
302.333
302.376
302.409
302.418
302.322
302.241
303.346
302.563
302.449
302.376
302.344
302.374
302.431
302.495
302.559
302.604
302.627
302.629
302.611
302.575
302.523
302.461
302.396
302.335
302.287
302.252
302.229
302.212
302.197
302.183
302.168
302.154
302.145
302.144
302.156
302.186
302.231
302.285
302.338
302.386
302.427
302.458
302.478
302.48
302.438
302.248
303.595
303.018
302.98
302.887
302.766
302.706
302.703
302.73
302.77
302.807
302.829
302.834
302.823
302.796
302.752
302.696
302.635
302.574
302.519
302.473
302.436
302.406
302.378
302.352
302.325
302.298
302.272
302.25
302.239
302.245
302.273
302.316
302.367
302.417
302.46
302.498
302.533
302.571
302.61
302.664
303.937
303.713
303.872
303.709
303.459
303.284
303.182
303.128
303.095
303.07
303.059
303.052
303.041
303.02
302.987
302.942
302.889
302.831
302.773
302.72
302.673
302.63
302.591
302.554
302.516
302.478
302.438
302.397
302.36
302.333
302.32
302.325
302.344
302.368
302.385
302.395
302.418
302.456
302.521
302.688
306.514
304.304
303.757
303.557
303.454
303.397
303.363
303.343
303.323
303.306
303.288
303.266
303.236
303.198
303.153
303.1
303.045
302.99
302.936
302.885
302.836
302.788
302.741
302.693
302.644
302.592
302.54
302.489
302.444
302.412
302.394
302.388
302.387
302.388
302.401
302.425
302.464
302.542
305.885
304.602
304.138
303.91
303.79
303.721
303.677
303.646
303.621
303.596
303.57
303.541
303.509
303.472
303.43
303.383
303.331
303.277
303.221
303.165
303.11
303.056
303.002
302.947
302.891
302.833
302.773
302.71
302.646
302.587
302.539
302.505
302.482
302.471
302.472
302.483
302.505
302.571
305.756
305.75
305.786
305.135
304.75
304.502
304.344
304.234
304.151
304.086
304.03
303.978
303.929
303.882
303.836
303.791
303.746
303.7
303.653
303.604
303.554
303.503
303.451
303.399
303.345
303.29
303.234
303.176
303.116
303.053
302.984
302.912
302.842
302.779
302.729
302.691
302.658
302.629
302.603
302.616
)
;

boundaryField
{
    floor
    {
        type            wallHeatTransfer;
        Tinf            uniform 305.2;
        alphaWall       uniform 0.24;
        value           nonuniform List<scalar> 
29
(
302.171
302.022
301.954
301.943
302.044
302.183
302.263
302.288
302.308
302.345
302.371
302.376
302.36
302.317
302.21
302.044
301.948
301.926
301.94
302.005
302.005
301.915
301.933
302.211
302.171
302.022
301.959
301.834
301.991
)
;
    }
    ceiling
    {
        type            wallHeatTransfer;
        Tinf            uniform 303.2;
        alphaWall       uniform 0.24;
        value           nonuniform List<scalar> 
43
(
305.63
305.648
305.706
305.07
304.687
304.441
304.283
304.173
304.09
304.024
303.968
303.916
303.867
303.821
303.776
303.733
303.69
303.647
303.604
303.56
303.515
303.469
303.423
303.376
303.328
303.279
303.23
303.178
303.125
303.069
303.007
302.942
302.877
302.819
302.773
302.739
302.71
302.685
302.662
302.676
303.907
303.694
305.82
)
;
    }
    sWall
    {
        type            wallHeatTransfer;
        Tinf            uniform 315.2;
        alphaWall       uniform 0.36;
        value           uniform 306.441;
    }
    nWall
    {
        type            wallHeatTransfer;
        Tinf            uniform 307.2;
        alphaWall       uniform 0.36;
        value           nonuniform List<scalar> 6(302.932 302.937 302.949 303.062 303.143 303.294);
    }
    sideWalls
    {
        type            empty;
    }
    glass1
    {
        type            wallHeatTransfer;
        Tinf            uniform 315.2;
        alphaWall       uniform 4.3;
        value           nonuniform List<scalar> 9(311.769 310.456 309.687 309.187 308.853 308.614 308.451 308.578 308.886);
    }
    glass2
    {
        type            wallHeatTransfer;
        Tinf            uniform 307.2;
        alphaWall       uniform 4.3;
        value           nonuniform List<scalar> 2(305.426 305.363);
    }
    sun
    {
        type            wallHeatTransfer;
        Tinf            uniform 305.2;
        alphaWall       uniform 0.24;
        value           nonuniform List<scalar> 
14
(
302.454
302.119
302.2
302.211
302.211
302.21
302.208
302.205
302.201
302.196
302.19
302.183
302.176
302.17
)
;
    }
    heatsource1
    {
        type            fixedGradient;
        gradient        uniform 0;
    }
    heatsource2
    {
        type            fixedGradient;
        gradient        uniform 0;
    }
    Table_master
    {
        type            zeroGradient;
    }
    Table_slave
    {
        type            zeroGradient;
    }
    inlet
    {
        type            fixedValue;
        value           uniform 291.15;
    }
    outlet
    {
        type            zeroGradient;
    }
}


// ************************************************************************* //
