/*--------------------------------*- C++ -*----------------------------------*\
  =========                 |
  \\      /  F ield         | OpenFOAM: The Open Source CFD Toolbox
   \\    /   O peration     | Website:  https://openfoam.org
    \\  /    A nd           | Version:  6
     \\/     M anipulation  |
\*---------------------------------------------------------------------------*/
FoamFile
{
    version     2.0;
    format      ascii;
    class       volVectorField;
    location    "100";
    object      U;
}
// * * * * * * * * * * * * * * * * * * * * * * * * * * * * * * * * * * * * * //

dimensions      [0 1 -1 0 0 0 0];

internalField   nonuniform List<vector> 
459
(
(0.114068 0.0649841 0)
(-0.136139 -0.00433193 0)
(-0.0994108 -0.0021106 0)
(-0.100715 0.000921046 0)
(-0.104408 0.00184454 0)
(-0.108749 0.00157629 0)
(-0.112318 0.000590915 0)
(-0.114198 -0.000931027 0)
(-0.113672 -0.002939 0)
(-0.109988 -0.00548148 0)
(-0.102184 -0.00856446 0)
(-0.0889524 -0.0122809 0)
(-0.0699954 -0.0172091 0)
(-0.0519408 -0.0244161 0)
(-0.0603394 -0.0320729 0)
(0.0165906 0.0147162 0)
(-0.0431488 -0.00941997 0)
(-0.0311401 -0.0100783 0)
(-0.0242585 -0.00623323 0)
(-0.0185273 -0.00198882 0)
(-0.0176903 -0.000957308 0)
(-0.0151851 -0.00389122 0)
(-0.0101761 -0.00484409 0)
(-0.00372039 -0.00344618 0)
(0.00164755 -0.00254795 0)
(0.00644239 -0.0023095 0)
(0.0107976 -0.00210708 0)
(0.014476 -0.00126564 0)
(0.0172839 0.000165489 0)
(0.0200657 -0.000283732 0)
(0.0252932 -0.00671172 0)
(0.0330865 -0.0126285 0)
(0.0471321 -0.00768261 0)
(-0.0087764 0.017164 0)
(0.320094 0.143856 0)
(-0.16394 0.00562913 0)
(-0.0946327 -0.000156457 0)
(-0.102665 0.00477285 0)
(-0.108177 0.00678392 0)
(-0.113203 0.00647007 0)
(-0.117123 0.00461657 0)
(-0.119395 0.00157937 0)
(-0.119464 -0.00253961 0)
(-0.116827 -0.00772677 0)
(-0.110831 -0.013896 0)
(-0.100656 -0.0209752 0)
(-0.0859035 -0.0293215 0)
(-0.0679044 -0.0396554 0)
(-0.0498906 -0.0504482 0)
(-0.0310497 -0.055411 0)
(0.0286824 0.00416096 0)
(0.130108 0.0253998 0)
(0.0354377 0.0141495 0)
(-0.000380162 0.00382321 0)
(-0.0101801 -0.000785998 0)
(-0.00937305 0.00227154 0)
(-0.0113193 0.00453701 0)
(-0.0124499 -0.00378558 0)
(-0.013921 -0.00641393 0)
(-0.0124425 -0.00500531 0)
(-0.0109786 -0.00491686 0)
(-0.0100893 -0.00506531 0)
(-0.00997216 -0.003965 0)
(-0.010499 -0.00139721 0)
(-0.0117746 0.00025706 0)
(-0.0128359 -0.00521663 0)
(-0.0100023 -0.0176196 0)
(-0.00391977 -0.022893 0)
(0.022887 -0.00723952 0)
(-0.0912301 0.0476186 0)
(0.485154 0.219688 0)
(-0.20819 0.0303345 0)
(-0.0808833 0.0105803 0)
(-0.0980028 0.0113531 0)
(-0.105862 0.0122597 0)
(-0.111793 0.0108378 0)
(-0.116415 0.00751352 0)
(-0.119582 0.00258802 0)
(-0.121017 -0.00378661 0)
(-0.120459 -0.0115683 0)
(-0.117783 -0.0207256 0)
(-0.112803 -0.0310982 0)
(-0.105627 -0.0425453 0)
(-0.0968918 -0.0543482 0)
(-0.0877306 -0.0635287 0)
(-0.0807926 -0.064553 0)
(-0.0833128 -0.0551068 0)
(0.0719645 0.0256329 0)
(-0.0461042 0.0177843 0)
(-0.0432795 0.0128372 0)
(-0.0407551 0.00360456 0)
(-0.0371642 -0.00397007 0)
(-0.0317047 -0.0098021 0)
(-0.00028738 -0.00650028 0)
(-0.0187052 -0.0110573 0)
(-0.0259594 -0.0106243 0)
(-0.0323499 -0.010034 0)
(-0.0385489 -0.00880464 0)
(-0.0435471 -0.00737698 0)
(-0.0467698 -0.00664646 0)
(-0.0487209 -0.00739423 0)
(-0.0488196 -0.0110927 0)
(-0.0399463 -0.0147752 0)
(-0.0478075 -0.00377684 0)
(-0.0756482 0.0130199 0)
(-0.160932 0.0312607 0)
(0.614931 0.281787 0)
(-0.248553 0.0603375 0)
(-0.0634781 0.0255963 0)
(-0.0890582 0.0206587 0)
(-0.0994447 0.0193243 0)
(-0.105486 0.0164109 0)
(-0.110035 0.0117868 0)
(-0.11335 0.00551237 0)
(-0.115538 -0.00231525 0)
(-0.116506 -0.0115159 0)
(-0.116836 -0.021878 0)
(-0.117013 -0.0330389 0)
(-0.117783 -0.0443921 0)
(-0.120138 -0.0544566 0)
(-0.125591 -0.0598732 0)
(-0.136954 -0.0543966 0)
(-0.153614 -0.0271499 0)
(-0.149391 0.0331843 0)
(-0.105648 0.0235624 0)
(-0.10884 0.0180716 0)
(-0.0976744 0.00859042 0)
(-0.0958068 -0.00124398 0)
(-0.0954847 -0.00945048 0)
(-0.0972379 -0.0147864 0)
(-0.0936417 -0.0113425 0)
(-0.0820545 -0.0108433 0)
(-0.0704707 -0.0113881 0)
(-0.0587117 -0.0116966 0)
(-0.0471915 -0.0115826 0)
(-0.0364852 -0.0109789 0)
(-0.026765 -0.00996235 0)
(-0.0171172 -0.00886763 0)
(-0.00731937 -0.00880136 0)
(-0.0108077 -0.0151929 0)
(-0.00281168 -0.00863119 0)
(0.0177333 -0.00787302 0)
(-0.112026 -0.0134804 0)
(0.714631 0.332504 0)
(-0.280776 0.093514 0)
(-0.0465656 0.0423162 0)
(-0.075821 0.0313889 0)
(-0.0888813 0.0264102 0)
(-0.094097 0.0213229 0)
(-0.0971075 0.0152548 0)
(-0.0988014 0.00796824 0)
(-0.099703 -0.00058715 0)
(-0.100052 -0.0101565 0)
(-0.100823 -0.0202221 0)
(-0.10273 -0.0303905 0)
(-0.106449 -0.0401559 0)
(-0.112503 -0.0485736 0)
(-0.121166 -0.0541051 0)
(-0.131697 -0.0544482 0)
(-0.140092 -0.0454712 0)
(-0.141368 -0.0228314 0)
(-0.132085 -0.0011366 0)
(-0.11928 0.00678553 0)
(-0.107695 0.00312481 0)
(-0.10103 -0.00316214 0)
(-0.0973947 -0.00952573 0)
(-0.0953062 -0.0137262 0)
(-0.091706 -0.0141807 0)
(-0.0858155 -0.0151919 0)
(-0.0791877 -0.016002 0)
(-0.0723977 -0.0162588 0)
(-0.0658462 -0.0157235 0)
(-0.0598926 -0.0144412 0)
(-0.0545925 -0.0128637 0)
(-0.0495067 -0.0118887 0)
(-0.0441606 -0.012853 0)
(-0.0377887 -0.0174503 0)
(-0.0251983 -0.0211514 0)
(0.00254889 -0.0263341 0)
(0.0320316 -0.0358381 0)
(0.0810002 -0.0473504 0)
(0.130803 -0.0148745 0)
(-0.0448046 0.053187 0)
(0.775428 0.377899 0)
(-0.306335 0.123342 0)
(-0.0341183 0.0518666 0)
(-0.0537386 0.0429159 0)
(-0.0707118 0.0340792 0)
(-0.0761694 0.0248087 0)
(-0.0770073 0.0164096 0)
(-0.0758124 0.00807117 0)
(-0.0736373 -0.000784333 0)
(-0.0718489 -0.00997683 0)
(-0.0714365 -0.0188001 0)
(-0.0730913 -0.027021 0)
(-0.0771971 -0.034394 0)
(-0.0837563 -0.0402373 0)
(-0.0923777 -0.0432497 0)
(-0.10174 -0.0416444 0)
(-0.108784 -0.0340513 0)
(-0.11051 -0.0221181 0)
(-0.106249 -0.0107064 0)
(-0.0986217 -0.00493052 0)
(-0.0912505 -0.00509044 0)
(-0.0863053 -0.00831145 0)
(-0.0836597 -0.0125472 0)
(-0.0824151 -0.0159452 0)
(-0.0812053 -0.017787 0)
(-0.0795594 -0.0192287 0)
(-0.077874 -0.02013 0)
(-0.0765326 -0.0201228 0)
(-0.0759191 -0.0189874 0)
(-0.0763606 -0.0169312 0)
(-0.0779089 -0.0147903 0)
(-0.0802633 -0.0139938 0)
(-0.0828928 -0.0163395 0)
(-0.0843964 -0.0233182 0)
(-0.0812382 -0.0351525 0)
(-0.069846 -0.0538371 0)
(-0.051913 -0.0791164 0)
(-0.0321892 -0.0955217 0)
(0.0847962 -0.0167629 0)
(-0.0988217 0.120724 0)
(0.792356 0.420544 0)
(-0.315053 0.121704 0)
(-0.0131038 0.0248647 0)
(-0.00197599 0.0512926 0)
(-0.0273663 0.0472792 0)
(-0.0409331 0.027033 0)
(-0.0423815 0.0133388 0)
(-0.0395294 0.00377446 0)
(-0.0345719 -0.00476709 0)
(-0.0313714 -0.01233 0)
(-0.0302489 -0.0187531 0)
(-0.0317717 -0.0242472 0)
(-0.0360988 -0.0290921 0)
(-0.0428888 -0.03304 0)
(-0.0513737 -0.035152 0)
(-0.0601069 -0.0340503 0)
(-0.0669621 -0.0290254 0)
(-0.0700423 -0.0215105 0)
(-0.0690516 -0.0143361 0)
(-0.0655902 -0.010174 0)
(-0.0618944 -0.00944304 0)
(-0.059439 -0.0109442 0)
(-0.0585739 -0.0134507 0)
(-0.0589908 -0.0158344 0)
(-0.0601016 -0.0175737 0)
(-0.0616773 -0.018736 0)
(-0.063905 -0.0190141 0)
(-0.0671338 -0.0179601 0)
(-0.0719304 -0.0153388 0)
(-0.0790302 -0.0116002 0)
(-0.0889557 -0.0081047 0)
(-0.101586 -0.0065679 0)
(-0.116543 -0.00897931 0)
(-0.132263 -0.016781 0)
(-0.147464 -0.031688 0)
(-0.160891 -0.0560375 0)
(-0.168192 -0.0859865 0)
(-0.162854 -0.0993514 0)
(-0.14611 -0.0400977 0)
(-0.180899 0.222866 0)
(0.893888 0.44232 0)
(-0.111097 0.096849 0)
(0.0745036 -0.0366887 0)
(0.117138 0.0279003 0)
(0.0750184 0.0464426 0)
(0.0415153 0.0251128 0)
(0.0307006 0.00531541 0)
(0.0273137 -0.00558426 0)
(0.0257584 -0.0121169 0)
(0.0252476 -0.0165431 0)
(0.0235492 -0.0194714 0)
(0.0201459 -0.0215217 0)
(0.0146811 -0.0233636 0)
(0.00725544 -0.0251893 0)
(-0.00174461 -0.0265488 0)
(-0.0107437 -0.0262535 0)
(-0.0181888 -0.0236399 0)
(-0.0229027 -0.0193737 0)
(-0.0246685 -0.0150676 0)
(-0.0244476 -0.0121821 0)
(-0.0236622 -0.011156 0)
(-0.0233919 -0.011572 0)
(-0.0241087 -0.0127914 0)
(-0.0258216 -0.0141452 0)
(-0.0282987 -0.015189 0)
(-0.0313889 -0.0156465 0)
(-0.0350766 -0.0150334 0)
(-0.0394115 -0.0127006 0)
(-0.0446193 -0.00807176 0)
(-0.0511065 -0.00107378 0)
(-0.0593925 0.00744792 0)
(-0.0730761 0.0148616 0)
(-0.0945071 0.017222 0)
(-0.125758 0.00954835 0)
(-0.166192 -0.0111771 0)
(-0.211227 -0.0429739 0)
(-0.251359 -0.0789177 0)
(-0.290899 -0.113082 0)
(-0.361009 -0.132481 0)
(-0.656114 -0.115407 0)
(1.03578 0.404498 0)
(0.495819 0.235027 0)
(0.376023 0.163342 0)
(0.361929 0.162723 0)
(0.252136 0.133588 0)
(0.181037 0.0882037 0)
(0.150532 0.0503962 0)
(0.132861 0.0246767 0)
(0.116846 0.00739858 0)
(0.101741 -0.00412729 0)
(0.089965 -0.0107593 0)
(0.0803752 -0.0140523 0)
(0.0716216 -0.0155465 0)
(0.0628495 -0.0163072 0)
(0.0537087 -0.0168517 0)
(0.0445794 -0.0169968 0)
(0.0363542 -0.0162529 0)
(0.0299438 -0.0145756 0)
(0.0256733 -0.012568 0)
(0.0230791 -0.0109773 0)
(0.021292 -0.0101789 0)
(0.0195435 -0.0101304 0)
(0.0173824 -0.0105889 0)
(0.0146555 -0.0112226 0)
(0.0114184 -0.0117215 0)
(0.00779896 -0.0117875 0)
(0.00397859 -0.010985 0)
(0.000237132 -0.00870946 0)
(-0.00299694 -0.00431961 0)
(-0.00491673 0.00260843 0)
(-0.00613478 0.0122022 0)
(-0.00667065 0.0234838 0)
(-0.00728659 0.0334963 0)
(-0.00886357 0.0381505 0)
(-0.0108205 0.0339558 0)
(-0.0116037 0.0194438 0)
(-0.0211834 -0.00525005 0)
(-0.00649231 -0.0382062 0)
(0.0249113 -0.138326 0)
(-0.530983 -0.281325 0)
(-1.3914 0.133063 0)
(0.160447 0.185999 0)
(0.0944046 0.129504 0)
(0.104896 0.085431 0)
(0.127309 0.0524587 0)
(0.139126 0.0301608 0)
(0.140631 0.0159941 0)
(0.137775 0.00720242 0)
(0.132809 0.00160134 0)
(0.127196 -0.0018215 0)
(0.121098 -0.00363743 0)
(0.114569 -0.00446846 0)
(0.107586 -0.00486352 0)
(0.100217 -0.0051169 0)
(0.0928313 -0.00525605 0)
(0.0860202 -0.00524625 0)
(0.0802295 -0.0051621 0)
(0.0754872 -0.00516096 0)
(0.0714811 -0.00535553 0)
(0.0678141 -0.00575765 0)
(0.0641789 -0.00629992 0)
(0.0604129 -0.00685399 0)
(0.0564955 -0.00725766 0)
(0.0525173 -0.00731123 0)
(0.0486857 -0.00673018 0)
(0.0453761 -0.00514009 0)
(0.0431977 -0.00211732 0)
(0.0429448 0.00280589 0)
(0.0451542 0.00985581 0)
(0.0505021 0.0181699 0)
(0.0586217 0.0250833 0)
(0.068016 0.0265486 0)
(0.0766331 0.0193202 0)
(0.0831444 0.00379435 0)
(0.0841352 -0.0152587 0)
(0.0870005 -0.036469 0)
(0.142639 -0.090656 0)
(-0.160048 -0.210501 0)
(-0.630022 0.148974 0)
(0.215239 0.0960379 0)
(0.0668347 0.0505076 0)
(0.0864324 0.0341718 0)
(0.124298 0.0186498 0)
(0.147865 0.00547307 0)
(0.158119 -0.00448795 0)
(0.161621 -0.0118959 0)
(0.162083 -0.0172401 0)
(0.16067 -0.0206132 0)
(0.158042 -0.0226248 0)
(0.154679 -0.0237203 0)
(0.150856 -0.024208 0)
(0.146653 -0.0242464 0)
(0.142083 -0.0238857 0)
(0.137242 -0.0231487 0)
(0.132322 -0.0220888 0)
(0.127502 -0.0207921 0)
(0.122868 -0.0193411 0)
(0.118413 -0.0177888 0)
(0.11409 -0.0161556 0)
(0.109856 -0.0144309 0)
(0.10571 -0.0125768 0)
(0.101715 -0.0105215 0)
(0.0980308 -0.00813431 0)
(0.0949678 -0.00519592 0)
(0.0930981 -0.0014065 0)
(0.0931143 0.0034572 0)
(0.0958944 0.00930621 0)
(0.102246 0.0156106 0)
(0.11197 0.0207901 0)
(0.123419 0.0224517 0)
(0.133625 0.0188398 0)
(0.13963 0.00990789 0)
(0.137184 -0.00528202 0)
(0.125388 -0.0269797 0)
(0.15236 -0.0685694 0)
(-0.197667 -0.149313 0)
(0.20251 -0.109163 0)
(-0.0989038 -0.0204378 0)
(-0.250844 0.187779 0)
(0.208754 0.0815918 0)
(0.150467 0.0593728 0)
(0.142822 0.0548944 0)
(0.164865 0.0520382 0)
(0.18273 0.0509868 0)
(0.190622 0.0516487 0)
(0.192609 0.0534906 0)
(0.19201 0.055878 0)
(0.190188 0.0581293 0)
(0.187855 0.0601898 0)
(0.185433 0.0619338 0)
(0.183223 0.0631638 0)
(0.181384 0.0636531 0)
(0.179944 0.0631817 0)
(0.178844 0.0615746 0)
(0.177965 0.0587511 0)
(0.17715 0.0547552 0)
(0.176231 0.0497376 0)
(0.175071 0.0438989 0)
(0.173586 0.0374315 0)
(0.171756 0.0304871 0)
(0.169621 0.02317 0)
(0.167285 0.0155521 0)
(0.164924 0.00771078 0)
(0.162821 -0.000204952 0)
(0.161444 -0.00790758 0)
(0.161347 -0.0149723 0)
(0.163061 -0.0207627 0)
(0.167404 -0.0248846 0)
(0.174615 -0.0277437 0)
(0.183631 -0.0308042 0)
(0.191791 -0.035926 0)
(0.19568 -0.04418 0)
(0.190318 -0.0545981 0)
(0.172313 -0.0678809 0)
(0.180517 -0.0877849 0)
(-0.206618 -0.13184 0)
)
;

boundaryField
{
    floor
    {
        type            noSlip;
    }
    ceiling
    {
        type            noSlip;
    }
    sWall
    {
        type            noSlip;
    }
    nWall
    {
        type            noSlip;
    }
    sideWalls
    {
        type            empty;
    }
    glass1
    {
        type            noSlip;
    }
    glass2
    {
        type            noSlip;
    }
    sun
    {
        type            noSlip;
    }
    heatsource1
    {
        type            noSlip;
    }
    heatsource2
    {
        type            noSlip;
    }
    Table_master
    {
        type            noSlip;
    }
    Table_slave
    {
        type            noSlip;
    }
    inlet
    {
        type            fixedValue;
        value           uniform (0.0382683 -0.092388 0);
    }
    outlet
    {
        type            zeroGradient;
    }
}


// ************************************************************************* //
