/*--------------------------------*- C++ -*----------------------------------*\
  =========                 |
  \\      /  F ield         | OpenFOAM: The Open Source CFD Toolbox
   \\    /   O peration     | Website:  https://openfoam.org
    \\  /    A nd           | Version:  6
     \\/     M anipulation  |
\*---------------------------------------------------------------------------*/
FoamFile
{
    version     2.0;
    format      ascii;
    class       volScalarField;
    location    "49800.0000011584707";
    object      nut;
}
// * * * * * * * * * * * * * * * * * * * * * * * * * * * * * * * * * * * * * //

dimensions      [0 2 -1 0 0 0 0];

internalField   nonuniform List<scalar> 
778
(
0.000894311
0.000953042
0.000949542
0.000990733
0.00102849
0.00106278
0.00109472
0.00112552
0.00115653
0.00118949
0.00122094
0.00125082
0.00128025
0.00131189
0.00134489
0.000632354
0.000905457
0.000912855
0.00089083
0.000853912
0.000804522
0.000755272
0.000709902
0.000669014
0.000632372
0.000599731
0.000570415
0.000543709
0.000518778
0.000494513
0.000469139
0.000448053
0.000405564
0.00131079
0.00258107
0.00226501
0.0026143
0.00286769
0.0031363
0.00340426
0.00365125
0.00385015
0.00396606
0.00403423
0.00400632
0.00380659
0.00331159
0.00241855
0.00147251
0.00140391
0.00134381
0.00113084
0.00192654
0.00267068
0.00311049
0.0031313
0.00247097
0.00211329
0.00186544
0.00167727
0.00152752
0.00139978
0.0012869
0.0011819
0.00107919
0.000987018
0.000907551
0.00102195
0.000514136
0.00166406
0.00360431
0.00267219
0.0038223
0.0042709
0.00465048
0.00499523
0.00529871
0.00555592
0.00575775
0.00595323
0.00615891
0.00634784
0.00646011
0.00638512
0.00584575
0.00427496
0.00164823
0.00142676
0.00305201
0.00425931
0.00483094
0.00439384
0.00115956
0.00100839
0.000891732
0.000800425
0.000727737
0.00066905
0.000621177
0.000582241
0.000551888
0.000606713
0.000713614
0.00112935
0.000584841
0.00200529
0.0048583
0.00255719
0.00429817
0.00496255
0.00531801
0.00557939
0.00577282
0.00591727
0.0060345
0.00620097
0.00648213
0.00689219
0.00740754
0.00792515
0.0081794
0.00767916
0.00572658
0.00164149
0.00380285
0.00565522
0.00659609
0.00682858
0.00582999
0.00132016
0.00120084
0.00110851
0.00103172
0.000966257
0.000907449
0.000851993
0.000796915
0.00073744
0.000688957
0.00071397
0.00122195
0.000643932
0.00234204
0.00643295
0.00258018
0.00408631
0.00510797
0.00541128
0.00552154
0.00552604
0.00547144
0.00542316
0.00549298
0.00576619
0.00626727
0.00697643
0.00779845
0.00855525
0.00903512
0.00902898
0.00810322
0.00824491
0.00843303
0.00845895
0.008287
0.00775712
0.00617369
0.00533331
0.0047577
0.00428987
0.0038311
0.00338671
0.00295193
0.00251761
0.00207127
0.00159118
0.00121451
0.00121201
0.000959201
0.000767412
0.00100617
0.000966429
0.00267369
0.00819613
0.00303784
0.00344614
0.00489455
0.00523123
0.00520473
0.00501783
0.00475043
0.00452982
0.00452507
0.0048113
0.00538231
0.00620463
0.00716663
0.00812699
0.00894467
0.00946683
0.00956155
0.0094649
0.00929612
0.00905736
0.00875113
0.00836197
0.00779416
0.00724715
0.00675049
0.00627021
0.00575177
0.00519819
0.00460682
0.00397254
0.00329128
0.00256859
0.00191501
0.00143803
0.00111616
0.00124799
0.00216135
0.0011575
0.00301223
0.00982762
0.00404859
0.00282347
0.00439815
0.00494859
0.00488803
0.00458539
0.00414608
0.00375935
0.00374814
0.00410931
0.00476279
0.00568173
0.0067273
0.00776181
0.00865201
0.00928955
0.0095826
0.0095592
0.00934842
0.00902975
0.00866533
0.00830213
0.00795103
0.00762892
0.0073264
0.00700343
0.00661355
0.00614429
0.00558857
0.00494358
0.00421187
0.00341267
0.00263278
0.0019059
0.00140379
0.00125172
0.00218949
0.00136175
0.00330358
0.0110646
0.00552102
0.00268877
0.00348421
0.004387
0.00451331
0.00426465
0.0037453
0.00321918
0.00333847
0.00381601
0.00454644
0.00549327
0.00657879
0.00766172
0.00858547
0.0092274
0.0095189
0.00948044
0.0092086
0.00880793
0.00837725
0.00799552
0.00770136
0.00749121
0.00732741
0.00714943
0.006902
0.00655568
0.00609662
0.00552191
0.00483724
0.00406398
0.0032625
0.00245468
0.00172722
0.00114135
0.00312412
0.00177226
0.00339336
0.0104838
0.00683714
0.0034775
0.00236279
0.00289516
0.0033878
0.00342966
0.00302859
0.00294433
0.0032504
0.00381173
0.00460083
0.00560407
0.00674112
0.00785722
0.00877797
0.00937081
0.00957925
0.0094361
0.00904235
0.00852582
0.00801351
0.00760498
0.00734571
0.00721832
0.00716052
0.00709204
0.00694984
0.00669983
0.00632831
0.00583368
0.00522264
0.00451336
0.00373833
0.00287206
0.00172376
0.0013828
0.00468473
0.0020236
0.00332468
0.00845809
0.00706645
0.00477628
0.00315354
0.0024417
0.00231253
0.00242117
0.00262509
0.00294961
0.00340913
0.00404023
0.00489732
0.00597777
0.00717585
0.00830748
0.00918051
0.00966213
0.00971318
0.00939052
0.0088215
0.00816638
0.00758186
0.00718168
0.00699834
0.00697659
0.00701589
0.00701486
0.00692257
0.00671982
0.0063999
0.00596225
0.00541126
0.00475342
0.00395672
0.00277212
0.00134428
0.00238583
0.00481133
0.00206037
0.00311439
0.00723102
0.00683518
0.0054686
0.00420743
0.00338696
0.00298152
0.0028902
0.0030587
0.00336812
0.00381665
0.00448152
0.00542641
0.0066095
0.00786765
0.00897527
0.00972842
0.01001
0.00981457
0.00923971
0.00845759
0.00767431
0.00707984
0.00678184
0.00674712
0.00684394
0.00694175
0.00694323
0.00684572
0.00664887
0.00634819
0.0059391
0.00541839
0.00476617
0.00380291
0.00214559
0.00149351
0.00296411
0.0045648
0.00203664
0.00283601
0.00652062
0.00659512
0.00579084
0.00492502
0.00427388
0.00389093
0.00375443
0.00378942
0.00397594
0.00438665
0.00512775
0.00621842
0.00752735
0.00881158
0.00980861
0.0103245
0.0102847
0.00974163
0.00885469
0.00786416
0.00703757
0.00657135
0.00647647
0.0065557
0.00668294
0.00676841
0.00674451
0.00663187
0.00643291
0.00613966
0.00574027
0.00521897
0.00451661
0.00318942
0.00154288
0.00190437
0.00322164
0.00419587
0.00196964
0.00258634
0.00583253
0.00629786
0.00591742
0.00536153
0.00489499
0.00458511
0.004434
0.00438896
0.00454734
0.00506754
0.00603455
0.00735279
0.0087685
0.00996928
0.0106931
0.0108007
0.0102956
0.00931929
0.00811858
0.0070325
0.00633833
0.00603245
0.00598869
0.00606751
0.00617997
0.00625837
0.00624098
0.00613222
0.00593335
0.00563323
0.00521627
0.0046631
0.00388895
0.00257238
0.00151808
0.00209835
0.00335897
0.00424692
0.0019221
0.00259433
0.00578826
0.00643459
0.00598942
0.00553944
0.00517119
0.00490582
0.00473329
0.00472496
0.00510939
0.00602681
0.00739603
0.00894059
0.0103069
0.0111825
0.0113816
0.0108797
0.00978967
0.00838656
0.00703077
0.00605152
0.00547419
0.0051915
0.00510519
0.00513804
0.0052251
0.00530418
0.00530434
0.00519506
0.00497391
0.00462668
0.00414964
0.00356614
0.00290763
0.00216021
0.00162335
0.00214641
0.00349376
0.00462043
0.00202125
0.0023417
0.00243519
0.00359198
0.00421908
0.00441225
0.00441435
0.00437054
0.00445017
0.00498766
0.00613225
0.0077385
0.00946881
0.0109482
0.0118662
0.0120404
0.0114335
0.0101902
0.00854075
0.00696713
0.00574068
0.0049136
0.00442312
0.00417411
0.00406702
0.00403772
0.00404969
0.00406702
0.00402861
0.00387398
0.00359555
0.00319761
0.00273624
0.00231557
0.00202229
0.00187219
0.00187848
0.00239069
0.00388635
0.00465958
0.00208168
0.000807866
0.00146585
0.00226193
0.00290199
0.00364243
0.00489991
0.00674638
0.00879027
0.0106449
0.0120266
0.0127458
0.0126817
0.0118399
0.0103069
0.0084806
0.00674806
0.00537381
0.00444237
0.00391264
0.00363088
0.00346482
0.00334845
0.00325648
0.00317797
0.00309943
0.00299158
0.00281279
0.00256309
0.00228401
0.00205704
0.00195189
0.0019823
0.00213123
0.00242074
0.00301854
0.00457119
0.00496881
0.00210783
0.0014971
0.00207672
0.00303149
0.0047389
0.00705947
0.00938363
0.0111882
0.0124868
0.0132659
0.0134769
0.0130274
0.011826
0.0100595
0.00807407
0.00626395
0.00490515
0.00409103
0.00367394
0.00344948
0.00330106
0.00318617
0.00309302
0.00301756
0.00295392
0.00289014
0.00280611
0.00268607
0.00254366
0.00241609
0.00235506
0.00239744
0.00254506
0.00278296
0.0031232
0.0036469
0.00464706
0.00527024
0.00206196
0.00275766
0.00666435
0.00612053
0.00547459
0.00697092
0.00931443
0.0112982
0.0126387
0.0133429
0.0135143
0.0132368
0.012482
0.0112159
0.00950303
0.00759808
0.00588237
0.00469064
0.00404516
0.00371214
0.00350431
0.0033455
0.00321825
0.00312512
0.0030709
0.0030549
0.0030679
0.00309146
0.00309992
0.00308043
0.00305642
0.00305111
0.00308683
0.00317966
0.00333
0.00351994
0.00372197
0.00390615
0.00403167
0.00400846
0.00199091
0.00263916
0.00509867
0.00658255
0.00840505
0.00933897
0.010313
0.0108871
0.0110326
0.0108245
0.0103164
0.00953085
0.00848476
0.00724905
0.00599215
0.00495004
0.00425502
0.00382044
0.00354028
0.00333123
0.00315841
0.00301811
0.00291956
0.00287417
0.00288903
0.00296272
0.00308219
0.00322107
0.00334015
0.0034119
0.00346834
0.00353665
0.00363408
0.00376959
0.00394491
0.00415638
0.00439488
0.00463889
0.00485484
0.00454065
0.00204581
0.00247391
0.00211936
0.00210861
0.00216954
0.0022198
0.00215253
0.00202184
0.0018688
0.0017153
0.00157038
0.0014372
0.00131867
0.00121959
0.00114548
0.0010983
0.00107388
0.00106723
0.00106831
0.00107487
0.00108717
0.00110585
0.00113085
0.00116101
0.00119437
0.00122882
0.00126275
0.00129548
0.00132742
0.00135947
0.00139238
0.00142857
0.00147024
0.00151895
0.00157532
0.00163868
0.00170612
0.00177362
0.00184798
0.00196204
0.00197937
)
;

boundaryField
{
    floor
    {
        type            nutkWallFunction;
        Cmu             0.09;
        kappa           0.41;
        E               9.8;
        value           nonuniform List<scalar> 
36
(
0.000160579
7.638e-05
0.000109532
0.000110412
0.00010779
0.000103378
9.74404e-05
9.14765e-05
8.59415e-05
8.09173e-05
7.63832e-05
7.23175e-05
6.86428e-05
6.52751e-05
6.21129e-05
5.9017e-05
5.57592e-05
5.30352e-05
4.74958e-05
4.74957e-05
6.15218e-05
7.04537e-05
7.78172e-05
9.29511e-05
0.000121434
0.000116761
0.000160579
0.000175022
0.000167276
0.000160455
7.638e-05
0.000160455
0.000135998
0.000194686
0.000169859
0.000193935
)
;
    }
    ceiling
    {
        type            nutkWallFunction;
        Cmu             0.09;
        kappa           0.41;
        E               9.8;
        value           nonuniform List<scalar> 
43
(
0.000284341
0.00024629
0.00024513
0.000251723
0.00025715
0.000249911
0.000235755
0.000219041
0.000202119
0.000185984
0.00017101
0.000157555
0.000146209
0.000137666
0.000132202
0.000129369
0.000128597
0.000128726
0.000129487
0.000130912
0.000133076
0.000135972
0.000139466
0.000143327
0.000147309
0.000151225
0.000154991
0.000158655
0.000162319
0.000166067
0.000170168
0.000174875
0.000180358
0.000186686
0.000193777
0.000201301
0.000208801
0.000216977
0.000229376
0.000231398
0.000270425
0.000280416
0.00017758
)
;
    }
    sWall
    {
        type            nutkWallFunction;
        Cmu             0.09;
        kappa           0.41;
        E               9.8;
        value           nonuniform List<scalar> 9(0.000373892 0.000352076 0.000322963 0.000296602 0.000297448 0.000270514 0.00031441 0.000301933 0.000284442);
    }
    nWall
    {
        type            nutkWallFunction;
        Cmu             0.09;
        kappa           0.41;
        E               9.8;
        value           nonuniform List<scalar> 
14
(
0.000116769
0.000139105
0.000162515
0.000239999
0.000237389
0.000230082
0.000224963
0.000235996
0.000242374
0.000245205
0.000239941
0.000232409
0.000238792
0.000231433
)
;
    }
    sideWalls
    {
        type            empty;
    }
    glass1
    {
        type            nutkWallFunction;
        Cmu             0.09;
        kappa           0.41;
        E               9.8;
        value           nonuniform List<scalar> 9(0.000108248 0.000156884 0.000196739 0.000234354 0.000270798 0.000306148 0.000341764 0.000372083 0.00038138);
    }
    glass2
    {
        type            nutkWallFunction;
        Cmu             0.09;
        kappa           0.41;
        E               9.8;
        value           nonuniform List<scalar> 2(0.000208554 0.000236151);
    }
    sun
    {
        type            nutkWallFunction;
        Cmu             0.09;
        kappa           0.41;
        E               9.8;
        value           nonuniform List<scalar> 
14
(
0.000108207
0.000115178
0.000114764
0.000119626
0.000124063
0.000128077
0.000131801
0.000135381
0.000138974
0.000142782
0.000146404
0.000149835
0.000153205
0.000156819
)
;
    }
    Table_master
    {
        type            nutkWallFunction;
        Cmu             0.09;
        kappa           0.41;
        E               9.8;
        value           nonuniform List<scalar> 9(0.000139316 0.000121697 0.000107895 9.69455e-05 8.81239e-05 8.09254e-05 7.49971e-05 7.0135e-05 6.63173e-05);
    }
    Table_slave
    {
        type            nutkWallFunction;
        Cmu             0.09;
        kappa           0.41;
        E               9.8;
        value           nonuniform List<scalar> 9(0.000157751 0.00014408 0.000133397 0.000124435 0.000116735 0.000109766 0.000103146 9.65216e-05 8.93074e-05);
    }
    inlet
    {
        type            calculated;
        value           uniform 0.000167705;
    }
    outlet
    {
        type            calculated;
        value           nonuniform List<scalar> 2(0.00275766 0.00666435);
    }
}


// ************************************************************************* //
