/*--------------------------------*- C++ -*----------------------------------*\
  =========                 |
  \\      /  F ield         | OpenFOAM: The Open Source CFD Toolbox
   \\    /   O peration     | Website:  https://openfoam.org
    \\  /    A nd           | Version:  6
     \\/     M anipulation  |
\*---------------------------------------------------------------------------*/
FoamFile
{
    version     2.0;
    format      ascii;
    class       volScalarField;
    location    "38799.9999989174758";
    object      alphat;
}
// * * * * * * * * * * * * * * * * * * * * * * * * * * * * * * * * * * * * * //

dimensions      [1 -1 -1 0 0 0 0];

internalField   nonuniform List<scalar> 
778
(
0.00104102
0.00111058
0.00110657
0.00115459
0.00119859
0.00123854
0.00127574
0.0013116
0.00134771
0.00138609
0.00142271
0.00145752
0.00149182
0.00152873
0.00156725
0.000736693
0.00105578
0.00106431
0.00103854
0.000995407
0.000937758
0.000880337
0.000827486
0.000779867
0.000737175
0.000699121
0.000664933
0.000633782
0.000604702
0.000576402
0.000546811
0.000522226
0.000472665
0.0015247
0.00300742
0.0026394
0.00304653
0.00334193
0.00365504
0.00396731
0.00425505
0.00448666
0.00462151
0.00470087
0.00466843
0.00443597
0.00385957
0.00281907
0.00171622
0.00163633
0.00156639
0.00131893
0.00224676
0.00311452
0.0036271
0.00365108
0.00288085
0.00246387
0.00217471
0.00195515
0.00178054
0.00163177
0.00150027
0.00137789
0.00125815
0.00115069
0.00105803
0.0011915
0.000599356
0.0019342
0.00419899
0.00311341
0.00445344
0.00497617
0.00541837
0.00581985
0.00617308
0.00647228
0.00670694
0.00693446
0.00717423
0.00739507
0.0075274
0.00744228
0.00681594
0.00498587
0.00192156
0.00166353
0.00355813
0.00496662
0.00563395
0.00512511
0.00135236
0.00117596
0.0010398
0.000933222
0.000848408
0.000779965
0.000724163
0.00067879
0.00064342
0.000707248
0.000831888
0.00131683
0.000681957
0.00232918
0.00565875
0.00297908
0.00500688
0.00578072
0.0061945
0.00649852
0.00672324
0.00689081
0.00702664
0.0072201
0.00754751
0.00802584
0.00862797
0.009234
0.00953418
0.0089558
0.00668573
0.00191347
0.00442679
0.00658787
0.00768829
0.00796175
0.0067991
0.00153943
0.00140034
0.00129266
0.00120304
0.00112664
0.00105802
0.000993344
0.00092913
0.0008598
0.000803116
0.000832254
0.00142509
0.000751089
0.00271847
0.00749097
0.00300569
0.00475912
0.00594884
0.00630156
0.00642927
0.0064337
0.00636925
0.00631218
0.00639288
0.00671075
0.00729476
0.00812248
0.00908288
0.00996814
0.0105298
0.0105238
0.00944422
0.00960792
0.00982838
0.00986055
0.00966172
0.00904519
0.00719982
0.00622005
0.00554874
0.00500384
0.0044687
0.00394998
0.00344237
0.00293546
0.00241485
0.00185504
0.00141576
0.00141326
0.00111859
0.000895475
0.00117735
0.00113325
0.00310143
0.00954123
0.00353875
0.00401287
0.00569922
0.00609064
0.00605889
0.00584028
0.00552801
0.00527046
0.00526445
0.00559745
0.00626285
0.00722263
0.00834594
0.00946844
0.0104226
0.011032
0.0111427
0.0110305
0.0108349
0.010558
0.0102023
0.00974953
0.00908817
0.0084506
0.00787148
0.0073121
0.00670746
0.00606141
0.00537123
0.00463123
0.00383679
0.00299407
0.00223168
0.00167577
0.0013016
0.00145277
0.00251707
0.00135695
0.00349222
0.0114364
0.00471576
0.00328757
0.0051204
0.00576077
0.00568937
0.00533602
0.00482371
0.00437316
0.00435995
0.00478042
0.00554226
0.00661572
0.00783644
0.00904461
0.0100835
0.0108268
0.0111682
0.0111412
0.0108963
0.0105259
0.010102
0.00967925
0.00927037
0.00889498
0.00854219
0.00816596
0.0077111
0.00716337
0.00651491
0.00576268
0.00490949
0.0039771
0.00306637
0.0022194
0.00163565
0.00145523
0.00256062
0.00159643
0.00382796
0.0128689
0.00642863
0.00313097
0.00405546
0.00510632
0.005253
0.0049629
0.00435708
0.00374501
0.00388346
0.00443978
0.00529236
0.00639898
0.00766791
0.00893286
0.0100104
0.0107579
0.0110966
0.0110513
0.0107347
0.0102682
0.00976673
0.00932207
0.00897939
0.00873456
0.00854353
0.0083361
0.00804706
0.0076425
0.00710671
0.00643645
0.00563784
0.00473452
0.00379613
0.00285383
0.00200316
0.001343
0.00361666
0.00207534
0.00392911
0.0121731
0.00795126
0.00404872
0.00274979
0.00336775
0.00394198
0.00399115
0.00352385
0.00342481
0.00378041
0.00443509
0.00535792
0.00653259
0.00786335
0.0091674
0.0102406
0.0109295
0.0111702
0.0110021
0.0105432
0.00994156
0.00934453
0.00886819
0.008566
0.00841774
0.00835041
0.00827052
0.00810388
0.00781127
0.00737723
0.00679995
0.0060863
0.00525559
0.00434555
0.00332766
0.00195251
0.00169474
0.00542398
0.00238532
0.00384954
0.00980972
0.00820772
0.00555494
0.00367004
0.00284115
0.00268984
0.00281594
0.00305257
0.00342903
0.0039638
0.00470146
0.00570643
0.00697416
0.00837786
0.00969985
0.0107158
0.011273
0.011329
0.0109517
0.010289
0.00952604
0.0088444
0.00837732
0.00816363
0.00813896
0.00818512
0.008184
0.00807522
0.00783737
0.00746329
0.00695204
0.00630723
0.00553548
0.00460901
0.00317842
0.00143924
0.003334
0.00516223
0.00240801
0.00360572
0.00838231
0.00793313
0.0063539
0.00489198
0.00393895
0.00346703
0.00335983
0.00355455
0.00391366
0.00443702
0.00521699
0.00632828
0.00771898
0.00919364
0.0104858
0.0113586
0.0116801
0.0114482
0.0107781
0.00986842
0.00895642
0.00826213
0.00791417
0.00787518
0.00798991
0.00810415
0.00810614
0.00799056
0.00775963
0.00740892
0.00693165
0.00632233
0.00556604
0.00454567
0.0026797
0.00165842
0.00375306
0.00487834
0.00236917
0.00328282
0.00755717
0.00765102
0.00672359
0.00572158
0.00496657
0.00452175
0.00436276
0.00440224
0.00461945
0.00510154
0.00597485
0.00726088
0.00880074
0.0103041
0.0114623
0.012053
0.0119969
0.0113608
0.0103298
0.00917855
0.00821475
0.00766942
0.0075621
0.00766071
0.00781113
0.00790805
0.00787984
0.00774532
0.00751266
0.00717297
0.00670412
0.00608713
0.00528727
0.00418894
0.00245399
0.0018117
0.00387556
0.00525945
0.00233612
0.00299324
0.0067597
0.00730475
0.00686764
0.00622514
0.00568492
0.00532551
0.00514971
0.00509798
0.00528551
0.00590016
0.00704314
0.00859901
0.0102624
0.0116614
0.0124911
0.0125983
0.0119985
0.0108611
0.00946676
0.00820016
0.00739081
0.00704332
0.00701146
0.00711718
0.00724513
0.0073211
0.00729493
0.00715897
0.00692549
0.00657775
0.00607805
0.00537861
0.00445251
0.00335047
0.00224498
0.0019998
0.00397874
0.00546128
0.00247267
0.00300424
0.00670905
0.00746378
0.00695
0.0064299
0.00600388
0.00569669
0.00549752
0.00549189
0.00594797
0.00703335
0.00865232
0.0104723
0.0120687
0.0130729
0.0132763
0.012666
0.0113869
0.00975608
0.00817525
0.00703373
0.00637889
0.00608768
0.00602616
0.00608001
0.00616121
0.00621198
0.00619299
0.00604957
0.00579453
0.0053898
0.00476649
0.0038953
0.00293247
0.00222957
0.00201172
0.00243562
0.00440944
0.00547563
0.00253147
0.00271019
0.00282007
0.00416559
0.00489771
0.00512501
0.00512963
0.00508103
0.00517887
0.00581371
0.00716434
0.00906206
0.0111026
0.0128333
0.0138834
0.0140464
0.0132963
0.0118195
0.00989119
0.00805376
0.00662783
0.00569172
0.00517086
0.00493763
0.00485494
0.00482631
0.0047986
0.00474858
0.00466366
0.004493
0.00420788
0.00377732
0.00316384
0.00248295
0.00203216
0.00199364
0.00233887
0.00313056
0.00496008
0.00586371
0.00253717
0.000964514
0.00173879
0.00266654
0.00340934
0.00427348
0.00574802
0.00791664
0.0103207
0.0124996
0.0141096
0.0149205
0.0147929
0.013751
0.0119171
0.00975653
0.00772611
0.00613709
0.005094
0.00453586
0.00426971
0.00412737
0.00401661
0.00389796
0.00376064
0.00360891
0.00345125
0.00328723
0.00307641
0.00281043
0.00248631
0.00219923
0.00213487
0.00239664
0.0029505
0.0037482
0.00473673
0.00531243
0.00242031
0.00178737
0.00246713
0.00358651
0.00558865
0.00831011
0.0110328
0.0131412
0.0146545
0.0155519
0.0157657
0.0151819
0.0137004
0.0115626
0.00919034
0.00705758
0.00550302
0.00462335
0.00422406
0.00405014
0.00395016
0.00386085
0.00376167
0.00365143
0.00353716
0.00342702
0.00332499
0.00322681
0.0031175
0.00299125
0.00285709
0.00275604
0.00278884
0.00306126
0.00358577
0.00425789
0.00481651
0.00487131
0.00235138
0.00323889
0.007866
0.00725351
0.00648197
0.00822113
0.0109499
0.0132494
0.014799
0.0156119
0.0158008
0.0154461
0.0145066
0.0129454
0.0108379
0.00851347
0.00649076
0.00519077
0.00457936
0.00434459
0.00424566
0.00417334
0.00408975
0.0039878
0.00387374
0.00375981
0.00366049
0.00358929
0.00355533
0.00355935
0.00358789
0.0036161
0.00364568
0.003708
0.00385195
0.00414297
0.00463792
0.00534539
0.00617659
0.00651756
0.00253308
0.00309557
0.00597844
0.00771563
0.00987387
0.0109508
0.0120612
0.0127055
0.0128584
0.0126089
0.0120124
0.0110794
0.00979969
0.00824004
0.00663757
0.00534224
0.00455777
0.00420253
0.00407386
0.00402894
0.00399758
0.00395095
0.00388133
0.00379209
0.00369316
0.00359963
0.00353118
0.0035102
0.00355721
0.00368407
0.00388508
0.00412145
0.00432397
0.00451396
0.00475802
0.00512032
0.00565388
0.00639575
0.00747413
0.00708828
0.00276759
0.00289432
0.00248085
0.00246821
0.00253973
0.00259843
0.00251933
0.00236665
0.00218758
0.00200563
0.00182937
0.00166207
0.00150958
0.00138329
0.00129528
0.00124835
0.00123291
0.00123396
0.00124208
0.00125267
0.00126412
0.00127651
0.0012911
0.00130999
0.00133575
0.00137081
0.00141669
0.00147314
0.00153795
0.00160776
0.00167949
0.00175164
0.00182531
0.00190022
0.0019795
0.00206796
0.00216828
0.00227886
0.00240117
0.00254466
0.00251977
)
;

boundaryField
{
    floor
    {
        type            compressible::alphatWallFunction;
        Prt             0.85;
        value           nonuniform List<scalar> 
36
(
0.000219872
0.000104463
0.000149993
0.000151186
0.000147578
0.000141517
0.000133368
0.000125193
0.000117613
0.000110734
0.000104525
9.89533e-05
9.39166e-05
8.93e-05
8.49655e-05
8.07226e-05
7.62587e-05
7.25274e-05
6.49383e-05
6.49375e-05
8.4167e-05
9.64298e-05
0.000106555
0.000127358
0.000166919
0.000160812
0.000219869
0.0002397
0.000229089
0.000219752
0.000104462
0.000219749
0.000186327
0.000266722
0.0002327
0.000265664
)
;
    }
    ceiling
    {
        type            compressible::alphatWallFunction;
        Prt             0.85;
        value           nonuniform List<scalar> 
43
(
0.000391126
0.000338926
0.000337323
0.000346428
0.00035389
0.00034389
0.000324457
0.00030148
0.000277918
0.000254863
0.000232744
0.000212357
0.00019529
0.00018329
0.000176859
0.000174737
0.000174885
0.000176008
0.000177471
0.000179046
0.000180745
0.000182735
0.000185299
0.000188783
0.000193518
0.000199706
0.000207309
0.000216023
0.00022539
0.000234983
0.000244595
0.000254362
0.000264252
0.000274653
0.000286187
0.000299192
0.000313455
0.000329152
0.000347425
0.000344145
0.00036831
0.000382123
0.000248615
)
;
    }
    sWall
    {
        type            compressible::alphatWallFunction;
        Prt             0.85;
        value           nonuniform List<scalar> 9(0.000507613 0.000477868 0.000438162 0.000402218 0.000403581 0.000366735 0.000432095 0.000414372 0.000389375);
    }
    nWall
    {
        type            compressible::alphatWallFunction;
        Prt             0.85;
        value           nonuniform List<scalar> 
14
(
0.000160364
0.000191063
0.000223311
0.000329151
0.000324219
0.000320093
0.00033767
0.000345062
0.000345596
0.000330633
0.000321912
0.000345724
0.000374811
0.000343451
)
;
    }
    sideWalls
    {
        type            empty;
    }
    glass1
    {
        type            compressible::alphatWallFunction;
        Prt             0.85;
        value           nonuniform List<scalar> 9(0.000143932 0.00020914 0.000262699 0.00031331 0.000362386 0.000410011 0.000458023 0.00049888 0.000511237);
    }
    glass2
    {
        type            compressible::alphatWallFunction;
        Prt             0.85;
        value           nonuniform List<scalar> 2(0.000284121 0.0003239);
    }
    sun
    {
        type            compressible::alphatWallFunction;
        Prt             0.85;
        value           nonuniform List<scalar> 
14
(
0.000147966
0.000157651
0.000157092
0.000163758
0.000169838
0.000175337
0.000180438
0.00018534
0.000190261
0.000195475
0.000200434
0.000205134
0.000209755
0.000214712
)
;
    }
    Table_master
    {
        type            compressible::alphatWallFunction;
        Prt             0.85;
        value           nonuniform List<scalar> 9(0.000191148 0.000166962 0.000148009 0.000132973 0.000120864 0.000110987 0.000102858 9.61922e-05 9.09583e-05);
    }
    Table_slave
    {
        type            compressible::alphatWallFunction;
        Prt             0.85;
        value           nonuniform List<scalar> 9(0.000216415 0.000197667 0.000183009 0.000170704 0.000160131 0.000150565 0.000141482 0.000132395 0.000122501);
    }
    inlet
    {
        type            fixedValue;
        value           uniform 1.94e-05;
    }
    outlet
    {
        type            zeroGradient;
    }
}


// ************************************************************************* //
