/*--------------------------------*- C++ -*----------------------------------*\
  =========                 |
  \\      /  F ield         | OpenFOAM: The Open Source CFD Toolbox
   \\    /   O peration     | Website:  https://openfoam.org
    \\  /    A nd           | Version:  6
     \\/     M anipulation  |
\*---------------------------------------------------------------------------*/
FoamFile
{
    version     2.0;
    format      ascii;
    class       volScalarField;
    location    "38799.9999989174758";
    object      k;
}
// * * * * * * * * * * * * * * * * * * * * * * * * * * * * * * * * * * * * * //

dimensions      [0 2 -2 0 0 0 0];

internalField   nonuniform List<scalar> 
778
(
0.00158605
0.00180129
0.00178811
0.0019466
0.00209773
0.00223986
0.00237635
0.00251175
0.00265187
0.00280497
0.00295502
0.00310121
0.00324872
0.00341122
0.00358503
0.00079248
0.00162626
0.00165256
0.00157349
0.00144552
0.00128296
0.00113069
0.000999038
0.000887394
0.000792923
0.000713195
0.000645168
0.000586153
0.000533617
0.000484856
0.000436371
0.000398036
0.00032614
0.00340723
0.00643401
0.00268764
0.00274609
0.00288768
0.00305413
0.0032343
0.00342982
0.00364274
0.00387276
0.00412461
0.0043783
0.00459423
0.00469984
0.00459455
0.00429816
0.00390696
0.00357999
0.00253792
0.00281399
0.00295658
0.00289888
0.00266565
0.00226591
0.00190609
0.00160957
0.00136972
0.00117588
0.00101712
0.000885369
0.000774134
0.000681332
0.000615348
0.000574899
0.000864588
0.000524345
0.00549126
0.0127827
0.00347821
0.00321203
0.00329727
0.00345499
0.00363621
0.00384013
0.00407015
0.00432649
0.00463437
0.00500974
0.00545028
0.00596057
0.00653275
0.00686242
0.00627971
0.00538686
0.00403659
0.00416893
0.0041732
0.00397642
0.0035792
0.00266755
0.00201707
0.00157701
0.00127031
0.00104991
0.000887352
0.000764931
0.000672088
0.00060388
0.00055164
0.000548881
0.00116533
0.000678806
0.00797439
0.0217618
0.00449178
0.00339061
0.00334126
0.00343772
0.00354897
0.00366827
0.00380825
0.0039903
0.00425794
0.00464733
0.0051705
0.00582539
0.00655605
0.00713688
0.00723024
0.00724639
0.00534089
0.00554582
0.00537308
0.00512379
0.0047862
0.00434831
0.00345662
0.00286023
0.00243727
0.00211102
0.00185141
0.00163277
0.00143925
0.00125918
0.00107828
0.000801275
0.000660232
0.00142088
0.000823399
0.0108777
0.0336401
0.00621421
0.00342491
0.00315801
0.0031666
0.00318915
0.00320935
0.00325146
0.00336023
0.00359369
0.00398821
0.00455298
0.00527733
0.00608855
0.00681971
0.00728416
0.0076427
0.00751306
0.00665027
0.0060699
0.00557665
0.00509787
0.00462928
0.00412376
0.00366651
0.00327584
0.00293809
0.00263169
0.00234808
0.00207946
0.00181872
0.00155526
0.00122257
0.000931355
0.00119093
0.00121729
0.00117038
0.0020238
0.00187604
0.0141766
0.0476055
0.0092868
0.0034901
0.00290831
0.00282241
0.00276403
0.00269915
0.00266377
0.00273398
0.00298015
0.0034138
0.0040239
0.00479971
0.00565665
0.00646446
0.00707023
0.00740628
0.00732063
0.0067865
0.00621203
0.00563502
0.00507322
0.00455583
0.00409174
0.00369625
0.00336356
0.00307406
0.002807
0.00255162
0.00229908
0.00204242
0.00177418
0.00147188
0.00117949
0.00111384
0.00111332
0.0017007
0.00504406
0.00269002
0.0179943
0.060612
0.0143649
0.00382011
0.00271511
0.00252916
0.00241154
0.00229375
0.00222075
0.00231117
0.00262993
0.00313941
0.00380351
0.00463535
0.00553402
0.00637234
0.00700484
0.00732947
0.00725371
0.00681648
0.00621386
0.00555381
0.00491148
0.00434281
0.00387276
0.00350068
0.00320681
0.00296182
0.00274129
0.00252897
0.00231344
0.00208738
0.00184562
0.00158327
0.00132788
0.00116227
0.00109516
0.00155055
0.00623283
0.00372322
0.0216434
0.0704848
0.0214424
0.00510422
0.00274309
0.00237179
0.00221004
0.00208179
0.00202613
0.00221917
0.0026495
0.00323155
0.00394009
0.00478065
0.00570777
0.00658267
0.00723089
0.00751828
0.00738632
0.00689722
0.00619906
0.0054279
0.00469242
0.00406514
0.00357483
0.00321259
0.0029475
0.00274081
0.00256392
0.00239543
0.00222172
0.00203526
0.00183225
0.00161299
0.00139684
0.00123415
0.00116393
0.00210199
0.0134839
0.00630077
0.0228345
0.0694882
0.0325402
0.0110637
0.00406999
0.00258801
0.00223564
0.00210303
0.00219008
0.00251219
0.00300022
0.00360315
0.00433689
0.0052214
0.00619712
0.00709984
0.00772697
0.00792961
0.007669
0.00702934
0.00616919
0.00525227
0.00441047
0.00372429
0.00321761
0.00286925
0.00263555
0.00246896
0.00233587
0.00221056
0.00207832
0.00193204
0.00176909
0.0015915
0.00141481
0.00129752
0.001391
0.00405354
0.0258827
0.00833179
0.0219179
0.0516242
0.0336443
0.0174403
0.00859337
0.00476259
0.00326282
0.00273076
0.0028539
0.00321111
0.00367261
0.00424842
0.00500158
0.00594976
0.00698879
0.00790158
0.00845231
0.00849112
0.00800969
0.00713072
0.00604919
0.00496154
0.00401717
0.00329429
0.00279993
0.00248988
0.00230302
0.00218486
0.00209631
0.00201081
0.00191497
0.0018031
0.00167384
0.00153038
0.00138847
0.00132542
0.00192171
0.0105381
0.0222166
0.0084917
0.0192306
0.0394247
0.0302349
0.0195696
0.0121874
0.00794323
0.00572057
0.00467175
0.0043639
0.00440044
0.00465322
0.0051484
0.00594304
0.00699398
0.00810342
0.00897675
0.00935144
0.00910252
0.00828071
0.00707147
0.00572447
0.00447173
0.00347
0.002774
0.00235197
0.00211799
0.00199351
0.00192546
0.00187499
0.0018206
0.00175226
0.00166578
0.00156107
0.00144303
0.00133333
0.00137237
0.0032562
0.0110937
0.0185749
0.00822285
0.0159446
0.0315767
0.0266463
0.0195398
0.0139789
0.0102873
0.00803019
0.00675473
0.00605103
0.00573199
0.00578438
0.00627897
0.00721872
0.00842977
0.00957691
0.0102881
0.0103118
0.00959628
0.00829528
0.00668107
0.00507317
0.00373501
0.00280053
0.00224114
0.00196088
0.00182056
0.00175098
0.00171639
0.00168834
0.00165277
0.00160253
0.00153386
0.00144822
0.00135284
0.00127541
0.00138301
0.00319068
0.0102364
0.0182797
0.00800174
0.0132621
0.0256688
0.0233483
0.0186902
0.0145852
0.0115902
0.00954574
0.00821134
0.0073012
0.00684156
0.0069614
0.00772599
0.00898647
0.0103691
0.0114012
0.011693
0.0110932
0.00969135
0.00779837
0.00578111
0.00404399
0.00284672
0.00220174
0.00186988
0.00170728
0.00162628
0.00158434
0.00156091
0.00153848
0.00150863
0.00146697
0.00141206
0.00134573
0.00127613
0.00123682
0.00139065
0.00290735
0.00915497
0.0167762
0.00896999
0.0133546
0.0224123
0.0220572
0.0177604
0.0143933
0.0118952
0.0100853
0.00876929
0.00791888
0.00777702
0.0084784
0.00987387
0.011524
0.0128541
0.0133671
0.0128006
0.0112436
0.00897378
0.00652936
0.00431894
0.00296469
0.00222314
0.00185653
0.00167593
0.00158228
0.00152749
0.00148985
0.00145972
0.00142884
0.00139313
0.00135064
0.0013035
0.00126016
0.00124684
0.00134096
0.00172756
0.0032204
0.00917252
0.0147357
0.00939502
0.0108789
0.011764
0.012924
0.0125531
0.0113745
0.0100741
0.00894532
0.00820215
0.00830435
0.00942101
0.0112967
0.0133548
0.0149215
0.0154667
0.0147509
0.0127989
0.0100974
0.0070031
0.00462313
0.00311493
0.0023263
0.0019458
0.00176057
0.00165896
0.00159168
0.00153699
0.00148538
0.00143371
0.001383
0.00133395
0.0012885
0.00126072
0.00129043
0.0014643
0.00191372
0.00280788
0.00465471
0.00990287
0.0151007
0.00942757
0.00354362
0.00482314
0.00599273
0.00659403
0.00726864
0.00878961
0.0113119
0.0141421
0.0165448
0.0179468
0.0179916
0.0166211
0.0140789
0.0105089
0.00723432
0.00476507
0.00327221
0.00251527
0.00217088
0.0020075
0.00191479
0.00184788
0.00178912
0.0017304
0.00166731
0.00159825
0.00152744
0.00147422
0.00144506
0.00147071
0.00162532
0.00204129
0.00288696
0.00433624
0.00667014
0.0103352
0.0147473
0.00857719
0.00444552
0.00627816
0.00808562
0.0109908
0.0146685
0.0181275
0.0203719
0.0214285
0.0213246
0.020051
0.0174602
0.0139306
0.0102546
0.00698891
0.00470656
0.00341989
0.00282676
0.00258138
0.00247401
0.00241456
0.00237242
0.00233868
0.00231086
0.00228682
0.002262
0.00222897
0.00218002
0.00212366
0.00210762
0.00216294
0.00236634
0.00285247
0.00380852
0.00544642
0.00798532
0.0113571
0.0144887
0.00810305
0.0150818
0.0245388
0.0181039
0.0143572
0.0169545
0.0206509
0.0227842
0.0234917
0.0230401
0.0216777
0.0196141
0.0169046
0.0136713
0.010301
0.00736177
0.00530113
0.00419434
0.00372322
0.00354325
0.00346002
0.00339843
0.00333767
0.00327826
0.00322814
0.00319666
0.00319107
0.00321352
0.00325862
0.00331253
0.00335769
0.00341797
0.00355869
0.00382637
0.00432775
0.00523561
0.00678901
0.00930814
0.0131829
0.0178533
0.00944089
0.0138099
0.0170626
0.0178313
0.0207306
0.0216455
0.0220578
0.0210638
0.0192601
0.0171517
0.0149782
0.0128251
0.0107079
0.00869133
0.00695128
0.00568408
0.00495019
0.00461661
0.00449103
0.00444671
0.00442245
0.00439436
0.00435878
0.00432338
0.00430244
0.00431429
0.00437939
0.00451772
0.00474406
0.00506085
0.0054488
0.00585174
0.00622898
0.00665381
0.00725935
0.00821851
0.00974784
0.0121633
0.0165062
0.0179616
0.0112291
0.0121314
0.00891221
0.00882475
0.00934902
0.00979626
0.00923013
0.0081631
0.00698629
0.00587961
0.00489571
0.00404333
0.00333627
0.00280151
0.0024562
0.00228145
0.00222532
0.00222913
0.00225869
0.00229755
0.00233986
0.00238598
0.00244071
0.00251229
0.00261141
0.00274952
0.00293594
0.00317427
0.00346014
0.00378262
0.00412939
0.00449371
0.00488141
0.00529218
0.0057443
0.00626995
0.00689378
0.00761612
0.00845762
0.00949894
0.00930954
)
;

boundaryField
{
    floor
    {
        type            kqRWallFunction;
        value           nonuniform List<scalar> 
36
(
0.00358503
0.00079248
0.00162626
0.00165256
0.00157349
0.00144552
0.00128296
0.00113069
0.000999038
0.000887394
0.000792923
0.000713195
0.000645168
0.000586153
0.000533617
0.000484856
0.000436371
0.000398036
0.00032614
0.00032614
0.000524345
0.000678806
0.000823399
0.00117038
0.0020238
0.00187604
0.00358503
0.00429816
0.00390696
0.00357999
0.00079248
0.00357999
0.00253792
0.00538686
0.00403659
0.00534089
)
;
    }
    ceiling
    {
        type            kqRWallFunction;
        value           nonuniform List<scalar> 
43
(
0.0121314
0.00891221
0.00882475
0.00934902
0.00979626
0.00923013
0.0081631
0.00698629
0.00587961
0.00489571
0.00404333
0.00333627
0.00280151
0.0024562
0.00228145
0.00222532
0.00222913
0.00225869
0.00229755
0.00233986
0.00238598
0.00244071
0.00251229
0.00261141
0.00274952
0.00293594
0.00317427
0.00346014
0.00378262
0.00412939
0.00449371
0.00488141
0.00529218
0.0057443
0.00626995
0.00689378
0.00761612
0.00845762
0.00949894
0.00930954
0.0108789
0.011764
0.00444552
)
;
    }
    sWall
    {
        type            kqRWallFunction;
        value           nonuniform List<scalar> 9(0.0219179 0.0192306 0.0159446 0.0132621 0.0133546 0.0108789 0.0150818 0.0138099 0.0121314);
    }
    nWall
    {
        type            kqRWallFunction;
        value           nonuniform List<scalar> 
14
(
0.00187604
0.00269002
0.00372322
0.0084917
0.00822285
0.00800174
0.00896999
0.00939502
0.00942757
0.00857719
0.00810305
0.00944089
0.0112291
0.00930954
)
;
    }
    sideWalls
    {
        type            empty;
    }
    glass1
    {
        type            kqRWallFunction;
        value           nonuniform List<scalar> 9(0.00158605 0.00340723 0.00549126 0.00797439 0.0108777 0.0141766 0.0179943 0.0216434 0.0228345);
    }
    glass2
    {
        type            kqRWallFunction;
        value           nonuniform List<scalar> 2(0.00630077 0.00833179);
    }
    sun
    {
        type            kqRWallFunction;
        value           nonuniform List<scalar> 
14
(
0.00158605
0.00180129
0.00178811
0.0019466
0.00209773
0.00223986
0.00237635
0.00251175
0.00265187
0.00280497
0.00295502
0.00310121
0.00324872
0.00341122
)
;
    }
    Table_master
    {
        type            kqRWallFunction;
        value           nonuniform List<scalar> 9(0.00266755 0.00201707 0.00157701 0.00127031 0.00104991 0.000887352 0.000764931 0.000672088 0.00060388);
    }
    Table_slave
    {
        type            kqRWallFunction;
        value           nonuniform List<scalar> 9(0.00345662 0.00286023 0.00243727 0.00211102 0.00185141 0.00163277 0.00143925 0.00125918 0.00107828);
    }
    inlet
    {
        type            turbulentIntensityKineticEnergyInlet;
        intensity       0.05;
        value           uniform 0.0009375;
    }
    outlet
    {
        type            zeroGradient;
    }
}


// ************************************************************************* //
