/*--------------------------------*- C++ -*----------------------------------*\
  =========                 |
  \\      /  F ield         | OpenFOAM: The Open Source CFD Toolbox
   \\    /   O peration     | Website:  https://openfoam.org
    \\  /    A nd           | Version:  6
     \\/     M anipulation  |
\*---------------------------------------------------------------------------*/
FoamFile
{
    version     2.0;
    format      ascii;
    class       surfaceScalarField;
    location    "38799.9999989174758";
    object      phi;
}
// * * * * * * * * * * * * * * * * * * * * * * * * * * * * * * * * * * * * * //

dimensions      [1 0 -1 0 0 0 0];

internalField   nonuniform List<scalar> 
1482
(
-0.00279976
0.00286379
-0.00348391
0.000684157
-0.00414448
0.000660569
-0.00475841
0.000613931
-0.00527962
0.000521208
-0.00569138
0.000411759
-0.00598249
0.000291106
-0.0061399
0.000157413
-0.00614629
6.39507e-06
-0.00597569
-0.000170606
-0.0055981
-0.000377589
-0.00498243
-0.000615669
-0.00405842
-0.000924003
-0.00257981
-0.00147862
-0.00257689
-6.40561e-05
6.89107e-05
0.00078096
-0.000845016
0.00143473
-0.000653774
0.00183541
-0.000400679
0.00205811
-0.0002227
0.0021629
-0.000104789
0.00221016
-4.72619e-05
0.00223289
-2.27267e-05
0.00224266
-9.76932e-06
0.00224362
-9.58611e-07
0.0022366
7.0205e-06
0.00221757
1.90288e-05
0.0021732
4.4372e-05
0.00207024
0.000102961
0.00185319
0.000217051
0.00149494
0.000358249
0.00102217
0.000472763
0.00102861
-0.00204034
0.00507445
-0.0029084
0.00155221
-0.0036941
0.00144627
-0.00434496
0.00126479
-0.00488202
0.00105826
-0.00531058
0.000840326
-0.00562891
0.000609435
-0.00583023
0.000358735
-0.00590389
8.0053e-05
-0.00584204
-0.00023246
-0.00563882
-0.000580805
-0.00528287
-0.00097162
-0.00477296
-0.00143391
-0.00428712
-0.00196446
-0.0047031
-0.00216091
-0.00311718
-0.00158047
-0.00163441
-0.00147708
-0.00161956
0.00131796
-0.00123883
0.00166276
-0.00118982
0.00191545
-0.000906467
0.00210783
-0.000593061
0.0022163
-0.000331168
0.00222551
-0.000113995
0.00222747
-4.92287e-05
0.00222903
-2.42856e-05
0.00222993
-1.06667e-05
0.0022299
-9.27945e-07
0.00222853
8.39143e-06
0.00222433
2.32278e-05
0.00221168
5.70231e-05
0.00214966
0.000164977
0.00189974
0.000466976
0.00146959
0.000788395
0.000904659
0.00103769
0.00195015
-0.00148822
0.0068206
-0.00235905
0.00242304
-0.0031289
0.00221612
-0.00371295
0.00184884
-0.00418341
0.00152873
-0.00455465
0.00121156
-0.0048285
0.000883284
-0.00500175
0.000531992
-0.00506804
0.000146334
-0.00501826
-0.000282237
-0.00484164
-0.000757428
-0.00453066
-0.00128259
-0.00411609
-0.00184849
-0.00371856
-0.00236198
-0.00329809
-0.00258138
-0.00236676
-0.00251181
-0.00127306
-0.00257078
-0.0028798
0.00115115
-0.00237553
0.00165484
-0.00169351
0.00195361
-0.00120524
0.00214721
-0.000786652
0.002179
-0.000362963
0.00206516
0.00201609
0.00199195
0.00198144
0.00198067
0.00198921
0.0020126
0.00206977
0.0022349
0.00187661
0.000825266
0.00142844
0.00123657
0.000807532
0.00165861
0.00278371
-0.00110604
0.00825783
-0.0019279
0.0032449
-0.00256981
0.00285803
-0.00302999
0.00230902
-0.00339733
0.00189607
-0.0036859
0.00150013
-0.00389873
0.00109611
-0.004034
0.000667262
-0.00408422
0.000196559
-0.00403621
-0.000330243
-0.00387765
-0.000915989
-0.00360434
-0.00155591
-0.00323877
-0.00221406
-0.00281675
-0.002784
-0.00227724
-0.00312089
-0.00155752
-0.00323153
-0.000869307
-0.003259
-0.000689331
-0.00305978
0.00144719
-0.00212107
0.00137845
-0.0023068
0.00169371
-0.00200877
0.0020061
-0.00151762
0.00227218
-0.00105274
0.00254745
-0.000638233
0.00286351
-0.00031621
0.00303224
-0.000168884
0.00309835
-6.62612e-05
0.0030824
1.57936e-05
0.00299322
8.90309e-05
0.00283182
0.000161243
0.00259042
0.000241243
0.0022461
0.000344165
0.00174153
0.000504418
0.00160537
0.00096143
0.00127836
0.00156357
0.000751616
0.00218535
0.00356961
-0.000803751
0.00945477
-0.00157986
0.00402101
-0.00204839
0.00332656
-0.00236396
0.00262459
-0.00260815
0.00214025
-0.00279346
0.00168545
-0.00292494
0.00122759
-0.00300333
0.00074565
-0.0030221
0.000215333
-0.00296468
-0.00038767
-0.00281777
-0.0010629
-0.00257434
-0.00179934
-0.00224086
-0.00254753
-0.00182444
-0.00320043
-0.00131914
-0.00362619
-0.000742598
-0.00380808
-0.000211269
-0.00379033
0.000265978
-0.00353703
0.00112695
-0.00298205
0.00149259
-0.00267245
0.00175106
-0.00226723
0.0020032
-0.00176977
0.00223295
-0.00128249
0.00244742
-0.000852699
0.00264974
-0.00051853
0.00276141
-0.000280554
0.00279922
-0.000104072
0.0027748
4.02117e-05
0.00269448
0.000169352
0.00256073
0.000295
0.00237241
0.000429562
0.00212734
0.000589232
0.00183393
0.00079783
0.00162974
0.00116562
0.00149127
0.00170203
0.00131741
0.00235921
0.00231336
0.00257367
0.00134307
0.0010052
0.00187962
-0.000507809
0.0019983
-0.000575852
0.010477
-0.00132474
0.0047699
-0.00158422
0.00358605
-0.00175
0.00279037
-0.00186382
0.00225407
-0.00193511
0.00175674
-0.00197036
0.00126284
-0.00197388
0.000749171
-0.00194246
0.000183916
-0.00185447
-0.000475658
-0.0017001
-0.00121728
-0.00146929
-0.00203015
-0.00116493
-0.0028519
-0.000792813
-0.00357254
-0.000373206
-0.0040458
6.70276e-05
-0.00424831
0.00047227
-0.00419557
0.000846705
-0.00391146
0.00129755
-0.00343289
0.00159611
-0.00297101
0.00179904
-0.00247017
0.0019703
-0.00194103
0.00212211
-0.0014343
0.00225722
-0.000987807
0.0023633
-0.000624615
0.00242313
-0.000340382
0.00243598
-0.000116918
0.00240682
6.93648e-05
0.00234032
0.000235853
0.00224021
0.000395114
0.00211059
0.000559184
0.00195876
0.000741055
0.00179977
0.000956821
0.00171072
0.00125467
0.00177215
0.00164061
0.00199138
0.00213998
0.00224501
0.00232004
0.0017615
0.0014887
0.000835496
0.000418193
0.00293109
-0.000543529
0.0115127
-0.00124372
0.00547009
-0.00119189
0.00353422
-0.00120007
0.00279855
-0.00119223
0.00224622
-0.00115854
0.00172306
-0.0011012
0.0012055
-0.00102598
0.000673946
-0.000927202
8.5142e-05
-0.000778124
-0.000624736
-0.000588869
-0.00140653
-0.000348888
-0.00227013
-6.53236e-05
-0.00313546
0.000239123
-0.00387698
0.000548778
-0.00435545
0.000843747
-0.00454328
0.00110668
-0.0044585
0.00134002
-0.0041448
0.00157165
-0.00366452
0.00173107
-0.00313043
0.00183072
-0.00256981
0.00190071
-0.00201102
0.00195691
-0.0014905
0.00200455
-0.00103546
0.00203838
-0.000658442
0.00205244
-0.000354441
0.00204297
-0.000107444
0.00201039
0.000101945
0.00195751
0.000288725
0.00188794
0.000464689
0.0018068
0.000640321
0.00172282
0.000825034
0.0016517
0.00102794
0.00163812
0.00126825
0.00172945
0.00154928
0.00195072
0.00191871
0.002222
0.00204876
0.00224523
0.00146547
0.00165827
0.00100514
0.0046921
-0.000483755
0.012532
-0.00105166
0.00603799
-0.000697462
0.00318002
-0.000636423
0.00273751
-0.000567823
0.00217762
-0.000462839
0.00161808
-0.000333455
0.00107611
-0.000181808
0.000522299
7.83626e-06
-0.000104502
0.000226223
-0.000843123
0.000466089
-0.0016464
0.000723702
-0.00252774
0.000980286
-0.00339204
0.00120833
-0.00410502
0.00140726
-0.00455437
0.0015682
-0.00470421
0.0016859
-0.0045762
0.00176505
-0.00422395
0.00181801
-0.00371748
0.00182794
-0.00314037
0.00180316
-0.00254503
0.00176283
-0.00197069
0.001722
-0.00144967
0.00168823
-0.00100169
0.00166146
-0.000631676
0.00163754
-0.000330513
0.00161125
-8.11612e-05
0.00157999
0.000133209
0.00154359
0.000325127
0.00150304
0.000505235
0.00146125
0.000682117
0.00142434
0.000861945
0.0014037
0.00104858
0.00142456
0.0012474
0.00151976
0.00145407
0.00174858
0.0016899
0.00208033
0.001717
0.00223618
0.00130962
0.00173619
0.00150512
0.00679568
0.00297852
0.0101406
0.00202314
0.00699338
0.00086975
0.0043334
0.000371245
0.00323602
0.000214386
0.00233448
0.000271046
0.00156142
0.000425388
0.00092177
0.000639779
0.000307907
0.000899514
-0.000364236
0.0011649
-0.00110851
0.00144365
-0.00192515
0.00171057
-0.00279465
0.00193622
-0.00361769
0.00209646
-0.00426525
0.00218565
-0.00464355
0.00220658
-0.00472514
0.00216815
-0.00453777
0.00208399
-0.00413979
0.00196929
-0.00360278
0.00182967
-0.00300075
0.00167742
-0.00239278
0.00152961
-0.00182288
0.00140107
-0.00132113
0.00130017
-0.000900796
0.00122809
-0.000559594
0.00117972
-0.000282141
0.00114737
-4.88081e-05
0.00112522
0.000155356
0.00110925
0.000341093
0.00109672
0.000517768
0.001087
0.000691841
0.00108197
0.000866971
0.00108683
0.00104372
0.00111435
0.00121988
0.00118749
0.00138092
0.00137381
0.00150358
0.00173133
0.00135948
0.00186758
0.00117337
0.000539953
0.0028327
0.00772005
0.00403308
0.00624776
0.00366965
0.0073568
0.00254396
0.0054591
0.00189048
0.0038895
0.00153388
0.00269108
0.00138916
0.00170614
0.00142328
0.000887651
0.00159822
0.000132961
0.00185088
-0.000616889
0.00212854
-0.00138617
0.00240848
-0.00220509
0.00265325
-0.00303942
0.00282118
-0.00378561
0.00288542
-0.00432948
0.00284295
-0.00460108
0.0027078
-0.00458998
0.00250235
-0.0043323
0.00225088
-0.00388832
0.00197614
-0.00332803
0.00169527
-0.00271989
0.00142566
-0.00212317
0.00118554
-0.00158276
0.000989931
-0.00112552
0.000845524
-0.000756388
0.000751075
-0.000465145
0.000697269
-0.000228336
0.000672559
-2.40971e-05
0.00066742
0.000160495
0.000674272
0.000334242
0.000687616
0.000504425
0.000703921
0.000675536
0.000720232
0.00085066
0.000732898
0.00103105
0.000735748
0.00121703
0.000712744
0.00140393
0.000613525
0.0016028
4.29483e-05
0.00193007
-0.00161854
0.00283476
-0.00290477
0.0041188
0.00491959
0.00241064
0.00400165
0.00330631
0.00646113
0.00325021
0.0055152
0.00303927
0.00410043
0.00284833
0.00288202
0.00272534
0.00182914
0.00271188
0.000901112
0.0028015
4.33388e-05
0.0029642
-0.000779586
0.00317541
-0.00159737
0.00339308
-0.00242276
0.00355708
-0.00320341
0.00361264
-0.00384117
0.0035333
-0.00425013
0.00332473
-0.0043925
0.00301326
-0.0042785
0.00263331
-0.00395235
0.00221826
-0.00347326
0.00179767
-0.00290744
0.00139523
-0.00231745
0.00103283
-0.00176077
0.000730807
-0.00128074
0.000503567
-0.000898276
0.000350551
-0.000603373
0.000262641
-0.000377235
0.000222678
-0.000188373
0.000215544
-1.69625e-05
0.00022984
0.0001462
0.000257353
0.000306729
0.000292624
0.000469154
0.000331339
0.000636822
0.000367442
0.000814558
0.000391184
0.00100731
0.000382683
0.00122553
0.000298974
0.00148764
4.78769e-05
0.00185391
-0.000690227
0.00266841
-0.00193365
0.00407832
-0.00231609
0.00450123
0.00272052
0.00145727
0.00273865
0.00274875
0.00516965
0.00343271
0.00483124
0.00371882
0.00381432
0.00381757
0.00278328
0.00384623
0.00180048
0.00388333
0.000864009
0.00395364
-2.69606e-05
0.00406455
-0.000890503
0.00420524
-0.00173806
0.00432415
-0.00254167
0.00435052
-0.00322978
0.00423288
-0.00372353
0.00395924
-0.00397648
0.00355224
-0.00398549
0.00305176
-0.00377802
0.00250161
-0.00340219
0.00194036
-0.00291201
0.00140206
-0.00236913
0.000913656
-0.00182904
0.000502693
-0.00134981
0.000189335
-0.00096738
-1.96108e-05
-0.00068933
-0.000140158
-0.000482826
-0.000197809
-0.000319583
-0.000214906
-0.000171275
-0.000204976
-2.6892e-05
-0.000176576
0.0001178
-0.000135021
0.000265174
-8.35833e-05
0.000417717
-2.51162e-05
0.000578355
3.56337e-05
0.000753808
8.92465e-05
0.000953697
0.000116356
0.00119842
7.57892e-05
0.0015282
-0.000100864
0.00203059
-0.000415761
0.00298366
-0.000979372
0.00464238
-0.00125996
0.00478216
0.00159033
0.00217185
0.000792786
0.00294159
0.00439992
0.00359192
0.00418091
0.00416253
0.00324372
0.00449077
0.00245504
0.00466588
0.00162536
0.00478386
0.000746032
0.00489007
-0.000133166
0.00499774
-0.000998184
0.00507656
-0.00181689
0.00506093
-0.00252606
0.00489084
-0.0030597
0.00454404
-0.00337673
0.00403962
-0.00347205
0.00342253
-0.00336839
0.00274344
-0.00309892
0.00205055
-0.00270929
0.00138154
-0.002243
0.000775113
-0.0017627
0.000258204
-0.00131213
-0.000129427
-0.00096218
-0.000381248
-0.000715561
-0.00052396
-0.00054662
-0.000594743
-0.000412043
-0.000622471
-0.000291855
-0.000621246
-0.000172498
-0.000599472
-4.86649e-05
-0.000562466
8.07953e-05
-0.000512724
0.000215433
-0.000451154
0.000356147
-0.000378332
0.000505533
-0.000294472
0.000669948
-0.000202326
0.00086155
-0.000110904
0.00110699
-4.44727e-05
0.00146174
-2.65653e-05
0.00201263
9.32763e-05
0.00286391
0.000461692
0.00427435
0.000691163
0.00455305
0.00241799
-0.00158235
0.00262025
0.001115
0.00170257
0.00334776
0.00194815
0.00435061
0.00224087
0.00485499
0.00195067
0.00517061
0.00130974
0.00540026
0.000516389
0.00557971
-0.00031263
0.00567996
-0.00109845
0.00563898
-0.00177594
0.00540613
-0.00229323
0.00496995
-0.00262355
0.0043586
-0.00276538
0.00362498
-0.00273844
0.00282889
-0.0025723
0.00201985
-0.00228988
0.00124525
-0.00193468
0.00053529
-0.00153304
-6.15199e-05
-0.00116589
-0.000499847
-0.000873811
-0.000774075
-0.000687958
-0.000929974
-0.000559667
-0.0010136
-0.000463002
-0.00105014
-0.0003755
-0.00105573
-0.00028626
-0.00103902
-0.000189203
-0.00100605
-8.16316e-05
-0.000961735
3.64837e-05
-0.000907628
0.000161328
-0.000842514
0.000291034
-0.000765001
0.00042802
-0.000672303
0.000577252
-0.000562143
0.000751389
-0.000438103
0.000982933
-0.000311618
0.00133518
-0.000150707
0.0018515
0.000222125
0.00249085
0.00104315
0.00345338
0.00151852
0.00407778
0.00408146
0.00288196
0.00456934
0.0048693
0.0016482
0.00535557
0.00175459
0.00559213
0.00171411
0.00582421
0.00107766
0.00601242
0.000328173
0.00607894
-0.000379177
0.00595279
-0.000972338
0.00560111
-0.00142431
0.00503696
-0.00172912
0.00430754
-0.00189415
0.00347129
-0.00192915
0.00258649
-0.00185364
0.00170709
-0.0016929
0.000865123
-0.00144791
0.000100874
-0.00117044
-0.000526008
-0.000906159
-0.000971348
-0.000720556
-0.00124943
-0.000595746
-0.00141751
-0.000519897
-0.00151254
-0.000464643
-0.00156118
-0.00041437
-0.00157666
-0.000360012
-0.00156637
-0.000296534
-0.00153542
-0.000220137
-0.00148931
-0.000127725
-0.00143497
-1.7852e-05
-0.00137736
0.000103721
-0.00131682
0.000230491
-0.00125254
0.000363737
-0.00118419
0.000508913
-0.00111219
0.000679407
-0.00103467
0.000905411
-0.000934817
0.00123522
-0.000752395
0.00166875
-0.000308397
0.00204631
0.000795168
0.00234938
0.00140286
0.00346969
0.00563851
0.00793332
0.00536345
0.00581335
0.00387459
0.00556462
0.00196288
0.00563618
0.00100613
0.00559999
0.000364366
0.00535498
-0.000134183
0.00489091
-0.000508299
0.00424921
-0.000782644
0.00348402
-0.000963955
0.00264827
-0.00105841
0.00178312
-0.00106402
0.000924623
-0.000995146
0.000105817
-0.000874103
-0.000616819
-0.000725277
-0.00118594
-0.000601329
-0.00158731
-0.000504803
-0.00185688
-0.000451025
-0.00202822
-0.000424438
-0.00213813
-0.000410015
-0.00220678
-0.00039601
-0.00224404
-0.000377108
-0.00225401
-0.000350017
-0.00223887
-0.00031163
-0.00220083
-0.000258126
-0.0021436
-0.000184915
-0.00207401
-8.74206e-05
-0.00200552
3.52168e-05
-0.00194643
0.000171386
-0.00189751
0.000314807
-0.00186293
0.000474347
-0.00184746
0.000664018
-0.00184998
0.000908077
-0.00184668
0.00123203
-0.00180412
0.00162609
-0.00172514
0.0019669
-0.00156638
0.00218995
-0.00123818
0.00314074
0.00456948
0.00411128
0.00149874
0.00451205
0.00347383
0.00373967
0.00273529
0.00323496
0.00151085
0.00288754
0.000711772
0.00251908
0.000234255
0.00207086
-6.00929e-05
0.00153296
-0.000244746
0.000924374
-0.000355368
0.000262118
-0.000396144
-0.000417628
-0.000384275
-0.00105928
-0.000353492
-0.00161446
-0.000318918
-0.00205136
-0.000288396
-0.00237553
-0.000277193
-0.00260103
-0.000279348
-0.00276084
-0.000291279
-0.00287942
-0.000305913
-0.00297034
-0.000319144
-0.00303781
-0.000328545
-0.00308208
-0.000332797
-0.00310177
-0.000330254
-0.00309517
-0.000318132
-0.00306129
-0.000291892
-0.00300097
-0.000245157
-0.00291793
-0.000170432
-0.00282164
-6.11186e-05
-0.00273094
8.06072e-05
-0.00265835
0.000242129
-0.00260126
0.00041721
-0.00255666
0.000619471
-0.00252278
0.000874414
-0.00248994
0.00119953
-0.00247296
0.00160947
-0.00271623
0.00221045
-0.00364878
0.00312262
-0.00386726
0.00335912
0.000885022
-0.00259711
-0.00676048
-0.00741528
-0.00746179
-0.00375008
-0.00216653
-0.00167139
0.00139513
-0.000758323
0.00182223
-0.000561215
0.00131375
-0.000642476
0.000793033
-0.000827536
0.00041932
-0.00106454
0.000176918
-0.00134754
3.82722e-05
-0.00167867
-2.42039e-05
-0.00203542
-3.93577e-05
-0.00238952
-3.0153e-05
-0.00271998
-2.30337e-05
-0.00300269
-3.62244e-05
-0.0032194
-7.17349e-05
-0.00338268
-0.000113984
-0.0035126
-0.000149523
-0.00362649
-0.000177482
-0.00373103
-0.000201442
-0.0038259
-0.000224294
-0.00390736
-0.000247056
-0.00397039
-0.000269667
-0.0040096
-0.000290903
-0.00402012
-0.000307426
-0.00399907
-0.000312759
-0.00394662
-0.000297478
-0.00386584
-0.000251158
-0.00376165
-0.000165373
-0.00364463
-3.66127e-05
-0.00352772
0.000124983
-0.00340204
0.000291317
-0.00324805
0.000465356
-0.00304428
0.00067069
-0.0027637
0.000919175
-0.00235692
0.00120306
-0.00170994
0.00156387
-0.000746513
0.00215955
-5.24967e-05
0.00266536
0.00101826
-0.00734649
0.00103961
-0.00812089
-0.00668744
-0.00717447
-0.003113
-0.00565411
-0.00012526
-0.00456177
0.00072989
-0.00397128
0.00072327
-0.00371364
0.00053542
-0.00364807
0.000353807
-0.00368985
0.000218751
-0.00378209
0.000130583
-0.00388326
7.70187e-05
-0.00396979
4.72152e-05
-0.00403168
3.17634e-05
-0.00407484
2.01096e-05
-0.00411413
3.00623e-06
-0.0041619
-2.40585e-05
-0.00422183
-5.41705e-05
-0.00429097
-8.04934e-05
-0.00436566
-0.000102882
-0.0044426
-0.000124546
-0.00451884
-0.000148031
-0.00459165
-0.000174153
-0.00465853
-0.000202624
-0.00471718
-0.000232026
-0.00476542
-0.000258934
-0.00480078
-0.000277157
-0.00481975
-0.000278333
-0.00481667
-0.000254163
-0.00478315
-0.000198984
-0.00470939
-0.000110632
-0.00458974
4.94434e-06
-0.00442014
0.000121315
-0.00417934
0.000224219
-0.00383194
0.000323074
-0.00334107
0.000428241
-0.00264307
0.000505137
-0.00151146
0.000432451
0.000465622
0.000182703
0.0019846
0.00114664
0.00318666
0.00158141
-0.00504124
-0.00809083
-0.00815639
-0.00737184
-0.00660166
-0.00602599
-0.00563673
-0.00538563
-0.00522447
-0.00511759
-0.00504043
-0.00497811
-0.0049267
-0.00489182
-0.00488368
-0.00490547
-0.00495348
-0.00502385
-0.00511593
-0.00523171
-0.005374
-0.00554541
-0.0057471
-0.00597682
-0.00622604
-0.00647774
-0.00670645
-0.00688096
-0.00696783
-0.0069396
-0.00679532
-0.00654841
-0.00620302
-0.00575305
-0.00522705
-0.00477482
-0.00457355
-0.00340956
)
;

boundaryField
{
    floor
    {
        type            calculated;
        value           nonuniform List<scalar> 
36
(
0
0
0
0
0
0
0
0
0
0
0
0
0
0
0
0
0
0
0
-6.43878e-06
-1.68818e-05
-2.60247e-05
-3.42885e-05
-3.49042e-05
-2.87459e-05
-2.85874e-05
-2.92032e-06
-5.44154e-06
-5.68785e-06
-5.90787e-06
-4.85463e-06
-8.93859e-06
-1.02092e-05
-1.28315e-05
-1.44566e-05
-1.54458e-05
)
;
    }
    ceiling
    {
        type            calculated;
        value           nonuniform List<scalar> 
43
(
-5.78666e-05
-6.48369e-05
-6.34428e-05
-5.97154e-05
-5.46483e-05
-4.68658e-05
-4.01708e-05
-3.53595e-05
-3.22451e-05
-3.04856e-05
-2.97866e-05
-2.99072e-05
-3.05542e-05
-3.1342e-05
-3.1948e-05
-3.22933e-05
-3.24783e-05
-3.25694e-05
-3.25743e-05
-3.2465e-05
-3.21988e-05
-3.17326e-05
-3.10352e-05
-3.0103e-05
-2.89752e-05
-2.77417e-05
-2.6529e-05
-2.54626e-05
-2.4623e-05
-2.40257e-05
-2.36273e-05
-2.33365e-05
-2.30222e-05
-2.25609e-05
-2.18694e-05
-2.09159e-05
-1.97439e-05
-1.84669e-05
-1.71964e-05
-1.62903e-05
1.93309e-05
1.51851e-05
-0.000246567
)
;
    }
    sWall
    {
        type            calculated;
        value           nonuniform List<scalar> 9(-0.000140237 -0.000164531 -0.000194273 -0.000225987 -0.000245111 -0.000281047 -0.000423561 -0.000453664 -0.000483965);
    }
    nWall
    {
        type            calculated;
        value           nonuniform List<scalar> 
14
(
-9.00796e-05
-9.7295e-05
-0.000102748
-0.00010434
-0.000117036
-0.000129678
-0.000136263
-0.000145004
-0.000154634
-0.000169672
-0.000183119
-0.000185199
-0.000183601
-0.000206427
)
;
    }
    sideWalls
    {
        type            empty;
        value           nonuniform 0();
    }
    glass1
    {
        type            calculated;
        value           nonuniform List<scalar> 9(-6.40339e-05 -0.00017032 -0.00025792 -0.000331202 -0.000393183 -0.000446386 -0.000492196 -0.000535477 -0.000587162);
    }
    glass2
    {
        type            calculated;
        value           nonuniform List<scalar> 2(-0.000367378 -0.000384415);
    }
    sun
    {
        type            calculated;
        value           uniform 0;
    }
    Table_master
    {
        type            calculated;
        value           nonuniform List<scalar> 9(-1.53991e-07 -1.54108e-07 -1.5414e-07 -1.5416e-07 -1.54173e-07 -1.54178e-07 -1.54177e-07 -1.54162e-07 -1.54109e-07);
    }
    Table_slave
    {
        type            calculated;
        value           nonuniform List<scalar> 9(1.53661e-07 1.53717e-07 1.53716e-07 1.53732e-07 1.53753e-07 1.53797e-07 1.53864e-07 1.53957e-07 1.54084e-07);
    }
    inlet
    {
        type            calculated;
        value           uniform -0.0116486;
    }
    outlet
    {
        type            calculated;
        value           nonuniform List<scalar> 2(0.00978108 0.0122799);
    }
}


// ************************************************************************* //
