/*--------------------------------*- C++ -*----------------------------------*\
  =========                 |
  \\      /  F ield         | OpenFOAM: The Open Source CFD Toolbox
   \\    /   O peration     | Website:  https://openfoam.org
    \\  /    A nd           | Version:  6
     \\/     M anipulation  |
\*---------------------------------------------------------------------------*/
FoamFile
{
    version     2.0;
    format      ascii;
    class       volScalarField;
    location    "48500.0000008936258";
    object      epsilon;
}
// * * * * * * * * * * * * * * * * * * * * * * * * * * * * * * * * * * * * * //

dimensions      [0 2 -3 0 0 0 0];

internalField   nonuniform List<scalar> 
778
(
0.000253107
0.000306342
0.000303016
0.000344221
0.000385126
0.00042498
0.000464475
0.000504796
0.000547677
0.000595834
0.000644296
0.000692675
0.000742619
0.000798932
0.000860649
8.95015e-05
0.000262411
0.000268824
0.000249765
0.000219954
0.000183989
0.000152278
0.000126482
0.000105872
8.9409e-05
7.62626e-05
6.5614e-05
5.6822e-05
4.93595e-05
4.27541e-05
3.65071e-05
3.18101e-05
2.3596e-05
0.000796947
0.00144314
0.000287021
0.000259652
0.000261767
0.000267753
0.000276662
0.000290108
0.000310383
0.000340611
0.000379843
0.000430971
0.000499355
0.00060055
0.000785669
0.00112929
0.000978732
0.000858365
0.000511762
0.000369306
0.000294019
0.000242694
0.000203885
0.000186731
0.000154602
0.000124948
0.00010066
8.14597e-05
6.65022e-05
5.48018e-05
4.5614e-05
3.86928e-05
3.45025e-05
3.27398e-05
6.57655e-05
4.8062e-05
0.00163049
0.00407879
0.0004074
0.000242987
0.000229174
0.000231094
0.000238316
0.000250594
0.00026851
0.000292789
0.000324918
0.000366971
0.000421325
0.000494988
0.000601328
0.000724565
0.000829765
0.00158369
0.00102818
0.000512303
0.000367635
0.000294193
0.000261968
0.000550776
0.000362078
0.00025037
0.00018109
0.000136133
0.000105814
8.47079e-05
6.97684e-05
5.94217e-05
4.51014e-05
3.79508e-05
0.000108216
7.07342e-05
0.00285322
0.00876966
0.00070982
0.000240772
0.000202539
0.000200078
0.000203252
0.000209881
0.000220701
0.000237621
0.000263308
0.000300034
0.000349203
0.000412272
0.000487893
0.000560067
0.000612372
0.000824582
0.0015652
0.000728848
0.000459733
0.000358268
0.000301897
0.000291797
0.000813826
0.000612236
0.000481401
0.000388039
0.000318724
0.000263987
0.000218482
0.00017878
0.000141639
8.3634e-05
5.47826e-05
0.000148788
9.43333e-05
0.00454542
0.015826
0.00134614
0.000258367
0.000175778
0.00016684
0.000165848
0.000167823
0.000173985
0.000187492
0.000211732
0.000248388
0.000297743
0.000359191
0.000427573
0.000488911
0.000528383
0.000582469
0.00062769
0.000483276
0.000393559
0.000331081
0.000282317
0.000248618
0.000247808
0.000226732
0.000202886
0.000181028
0.000162658
0.0001465
0.000131829
0.00011823
0.000105059
8.44182e-05
6.4073e-05
0.000105165
0.000138737
0.000160079
0.000375489
0.000324689
0.00676264
0.0248765
0.00255295
0.000318053
0.000155565
0.000137099
0.00013216
0.000130726
0.000134493
0.000148585
0.000176732
0.000218067
0.000270704
0.000333875
0.000401376
0.000462221
0.000502686
0.00052155
0.000504806
0.00043831
0.00037389
0.000315697
0.000264758
0.000223377
0.00019327
0.000169613
0.000150806
0.000135633
0.000123308
0.000112759
0.000103295
9.45201e-05
8.6067e-05
7.58789e-05
6.52575e-05
7.75059e-05
9.95966e-05
0.000214129
0.0010938
0.000552531
0.00967057
0.0336357
0.00458276
0.00046488
0.000150844
0.00011636
0.00010711
0.000103307
0.000107104
0.000127947
0.00016615
0.00021586
0.000273158
0.000339706
0.000408834
0.000469915
0.000509728
0.000520181
0.000494207
0.000437608
0.000371852
0.000307485
0.000250537
0.000204416
0.000169727
0.000144547
0.000126331
0.000112755
0.000102306
9.37355e-05
8.6231e-05
7.93341e-05
7.27756e-05
6.6119e-05
6.02874e-05
6.36098e-05
7.66657e-05
0.000178195
0.00164546
0.000912342
0.012757
0.0404063
0.00748874
0.000870906
0.000194206
0.000115367
9.73923e-05
9.14747e-05
9.86519e-05
0.000137747
0.000189316
0.000246219
0.000306854
0.000373426
0.000444208
0.000507446
0.000546875
0.000550594
0.00051551
0.000451451
0.00037544
0.000300894
0.00023642
0.000185918
0.00014929
0.000123979
0.000106728
9.45993e-05
8.57766e-05
7.88473e-05
7.29285e-05
6.75399e-05
6.24587e-05
5.76509e-05
5.39428e-05
5.54918e-05
7.0076e-05
0.000371793
0.0059405
0.00210488
0.0138263
0.0414624
0.0139303
0.00316126
0.000629148
0.000207804
0.000132627
0.00011599
0.000142444
0.00019294
0.000249303
0.000306359
0.000367125
0.000436203
0.000510483
0.000575104
0.00061037
0.000602759
0.000551865
0.000470732
0.000378286
0.00029074
0.00021813
0.00016395
0.000126755
0.00010262
8.73192e-05
7.73865e-05
7.07196e-05
6.5732e-05
6.1528e-05
5.767e-05
5.39992e-05
5.06159e-05
4.83267e-05
5.13725e-05
9.39138e-05
0.00112072
0.0159
0.00297061
0.0130042
0.0283752
0.0144148
0.00572377
0.00210223
0.000833594
0.000413285
0.000276733
0.000278911
0.000314544
0.000356047
0.000401609
0.000458338
0.000530476
0.000609446
0.000673416
0.000698166
0.000670153
0.000593372
0.000486265
0.000372257
0.000270391
0.00019097
0.000135693
0.000100681
7.99127e-05
6.80135e-05
6.12406e-05
5.71702e-05
5.42351e-05
5.16879e-05
4.92264e-05
4.68054e-05
4.46795e-05
4.40743e-05
5.27065e-05
0.000173067
0.00284156
0.0127921
0.00322045
0.0106905
0.0193613
0.0120391
0.00629864
0.00317275
0.00167345
0.000985913
0.000678499
0.00055969
0.000517132
0.000510264
0.00053128
0.000583459
0.000662467
0.000747151
0.00080473
0.000806902
0.00074358
0.000627376
0.000485319
0.000346898
0.000233113
0.000152315
0.000101764
7.36e-05
5.8849e-05
5.13771e-05
4.79781e-05
4.61906e-05
4.48797e-05
4.35793e-05
4.21537e-05
4.0718e-05
3.99193e-05
4.25204e-05
6.4573e-05
0.000250403
0.00229439
0.0112863
0.00332408
0.00807375
0.0137724
0.00969277
0.00593263
0.00356863
0.00222647
0.00148993
0.00109215
0.000868722
0.0007432
0.000685657
0.000689967
0.000750502
0.000844868
0.000932472
0.000968587
0.000925932
0.000805069
0.000633949
0.000451034
0.000292093
0.00017687
0.000106901
6.94237e-05
5.2471e-05
4.43467e-05
4.05382e-05
3.91488e-05
3.85664e-05
3.8114e-05
3.75129e-05
3.67317e-05
3.61202e-05
3.73677e-05
4.81308e-05
0.000114014
0.00046828
0.00228909
0.00917392
0.00337706
0.00612464
0.0101677
0.00779136
0.00531236
0.00356985
0.00246873
0.00178752
0.00136785
0.00109265
0.000925825
0.000859101
0.000886738
0.000983228
0.00109837
0.00117069
0.00115111
0.00102726
0.000821359
0.000585081
0.000367304
0.000207576
0.000114222
7.19968e-05
5.21812e-05
4.27217e-05
3.79526e-05
3.56501e-05
3.48493e-05
3.4566e-05
3.43704e-05
3.40907e-05
3.38503e-05
3.46944e-05
4.18053e-05
8.1549e-05
0.000265732
0.000881266
0.00268063
0.00713015
0.00294936
0.00618024
0.00781324
0.00680487
0.00473969
0.00336564
0.00246228
0.00186559
0.00146221
0.00119447
0.00106448
0.00107041
0.00118084
0.00133078
0.00143988
0.00144084
0.00130246
0.00105215
0.000741758
0.00045572
0.00023763
0.000130915
8.18562e-05
5.99681e-05
4.90153e-05
4.27477e-05
3.88787e-05
3.66175e-05
3.56285e-05
3.52399e-05
3.51411e-05
3.52498e-05
3.59155e-05
3.91877e-05
5.46157e-05
0.000123159
0.000379827
0.00111922
0.00280445
0.005511
0.00260968
0.00454463
0.00511473
0.0041858
0.00336241
0.00264028
0.00207055
0.00164938
0.00136206
0.00124483
0.00130044
0.00147862
0.00168832
0.00182728
0.00182035
0.00164124
0.00130528
0.000911284
0.000519798
0.000278914
0.000155655
0.000102591
7.94518e-05
6.74683e-05
5.95415e-05
5.35306e-05
4.89894e-05
4.59876e-05
4.46163e-05
4.44651e-05
4.52391e-05
4.69277e-05
4.9993e-05
5.67742e-05
7.68427e-05
0.000144673
0.000364978
0.000974237
0.00237153
0.00546369
0.00269905
0.00139986
0.00143052
0.00143331
0.00135472
0.00131274
0.0014236
0.00170768
0.00204339
0.00230774
0.00240832
0.00229541
0.00198426
0.00153679
0.000984359
0.00057136
0.000314411
0.000189461
0.000137001
0.000115034
0.000103259
9.45626e-05
8.69159e-05
8.01281e-05
7.47249e-05
7.14769e-05
7.101e-05
7.34356e-05
7.85476e-05
8.63662e-05
9.70991e-05
0.000112325
0.000138883
0.000199303
0.00035813
0.000790544
0.00209959
0.00435333
0.0033406
0.00118803
0.00171792
0.0019559
0.00231202
0.00275887
0.00316372
0.00334308
0.00330972
0.00308799
0.00269895
0.00213153
0.00151496
0.000981407
0.000579491
0.000347022
0.000237251
0.000192874
0.000174189
0.000163774
0.000155642
0.00014809
0.000140941
0.000134827
0.00013092
0.000130635
0.000135225
0.000145436
0.000161741
0.00018446
0.000213777
0.000250889
0.000301051
0.000380393
0.000532054
0.000886934
0.00230794
0.00377325
0.0035699
0.00741393
0.00805617
0.00480929
0.00340786
0.0037432
0.00415253
0.00416336
0.00394997
0.00359166
0.00313539
0.00262917
0.00208765
0.00154005
0.00105652
0.000693673
0.00046944
0.000360659
0.000314933
0.00029528
0.000285262
0.000279014
0.000274056
0.000269046
0.000263522
0.000258189
0.000254967
0.000256449
0.000265012
0.000282109
0.000309398
0.000348508
0.000401707
0.000473365
0.000573441
0.000724777
0.000979277
0.00148021
0.00312103
0.00465986
0.0037023
0.00650202
0.00512866
0.00436846
0.00462426
0.00454867
0.00428222
0.00370112
0.00305315
0.00246569
0.00197162
0.00156819
0.00124567
0.000994847
0.000810378
0.000682511
0.000593376
0.000533598
0.000496073
0.00047537
0.000467856
0.000470438
0.000479982
0.000493371
0.00050797
0.000522211
0.000536017
0.00055089
0.000569722
0.00059708
0.000638069
0.000698697
0.000787381
0.000917052
0.00110965
0.00140281
0.00185091
0.00252896
0.00389635
0.00645836
0.00366939
0.00536112
0.00337208
0.00332384
0.00362447
0.00388796
0.00355672
0.00296461
0.00236315
0.00185086
0.0014399
0.00111446
0.000859476
0.000668109
0.000537439
0.000462128
0.000430723
0.000422236
0.00042812
0.000443899
0.000466533
0.000493464
0.000522495
0.000551972
0.000580981
0.000609497
0.000638412
0.000669399
0.00070458
0.00074619
0.00079653
0.000858793
0.000938716
0.00104703
0.00120242
0.0014329
0.00177248
0.00225253
0.00289002
0.00365586
0.002956
)
;

boundaryField
{
    floor
    {
        Cmu             0.09;
        kappa           0.41;
        E               9.8;
        type            epsilonWallFunction;
        value           nonuniform List<scalar> 
36
(
0.000860649
8.95015e-05
0.000262411
0.000268824
0.000249765
0.000219954
0.000183989
0.000152278
0.000126482
0.000105872
8.9409e-05
7.62626e-05
6.5614e-05
5.6822e-05
4.93595e-05
4.27541e-05
3.65071e-05
3.18101e-05
2.3596e-05
2.3596e-05
4.8062e-05
7.07342e-05
9.43333e-05
0.000160079
0.000375489
0.000324689
0.000860649
0.00112929
0.000978732
0.000858365
8.95015e-05
0.000858365
0.000511762
0.00158369
0.00102818
0.0015652
)
;
    }
    ceiling
    {
        Cmu             0.09;
        kappa           0.41;
        E               9.8;
        type            epsilonWallFunction;
        value           nonuniform List<scalar> 
43
(
0.00536112
0.00337208
0.00332384
0.00362447
0.00388796
0.00355672
0.00296461
0.00236315
0.00185086
0.0014399
0.00111446
0.000859476
0.000668109
0.000537439
0.000462128
0.000430723
0.000422236
0.00042812
0.000443899
0.000466533
0.000493464
0.000522495
0.000551972
0.000580981
0.000609497
0.000638412
0.000669399
0.00070458
0.00074619
0.00079653
0.000858793
0.000938716
0.00104703
0.00120242
0.0014329
0.00177248
0.00225253
0.00289002
0.00365586
0.002956
0.00454463
0.00511473
0.00118803
)
;
    }
    sWall
    {
        Cmu             0.09;
        kappa           0.41;
        E               9.8;
        type            epsilonWallFunction;
        value           nonuniform List<scalar> 9(0.0130042 0.0106905 0.00807375 0.00612464 0.00618024 0.00454463 0.00741393 0.00650202 0.00536112);
    }
    nWall
    {
        Cmu             0.09;
        kappa           0.41;
        E               9.8;
        type            epsilonWallFunction;
        value           nonuniform List<scalar> 
14
(
0.000324689
0.000552531
0.000912342
0.00322045
0.00332408
0.00337706
0.00294936
0.00260968
0.00269905
0.0033406
0.0035699
0.0037023
0.00366939
0.002956
)
;
    }
    sideWalls
    {
        type            empty;
    }
    glass1
    {
        Cmu             0.09;
        kappa           0.41;
        E               9.8;
        type            epsilonWallFunction;
        value           nonuniform List<scalar> 9(0.000253107 0.000796947 0.00163049 0.00285322 0.00454542 0.00676264 0.00967057 0.012757 0.0138263);
    }
    glass2
    {
        Cmu             0.09;
        kappa           0.41;
        E               9.8;
        type            epsilonWallFunction;
        value           nonuniform List<scalar> 2(0.00210488 0.00297061);
    }
    sun
    {
        Cmu             0.09;
        kappa           0.41;
        E               9.8;
        type            epsilonWallFunction;
        value           nonuniform List<scalar> 
14
(
0.000253107
0.000306342
0.000303016
0.000344221
0.000385126
0.00042498
0.000464475
0.000504796
0.000547677
0.000595834
0.000644296
0.000692675
0.000742619
0.000798932
)
;
    }
    Table_master
    {
        Cmu             0.09;
        kappa           0.41;
        E               9.8;
        type            epsilonWallFunction;
        value           nonuniform List<scalar> 9(0.000550776 0.000362078 0.00025037 0.00018109 0.000136133 0.000105814 8.47079e-05 6.97684e-05 5.94217e-05);
    }
    Table_slave
    {
        Cmu             0.09;
        kappa           0.41;
        E               9.8;
        type            epsilonWallFunction;
        value           nonuniform List<scalar> 9(0.000813826 0.000612236 0.000481401 0.000388039 0.000318724 0.000263987 0.000218482 0.00017878 0.000141639);
    }
    inlet
    {
        type            turbulentMixingLengthDissipationRateInlet;
        mixingLength    0.01;
        phi             phi;
        k               k;
        value           uniform 0.000471671;
    }
    outlet
    {
        type            zeroGradient;
    }
}


// ************************************************************************* //
