/*--------------------------------*- C++ -*----------------------------------*\
  =========                 |
  \\      /  F ield         | OpenFOAM: The Open Source CFD Toolbox
   \\    /   O peration     | Website:  https://openfoam.org
    \\  /    A nd           | Version:  6
     \\/     M anipulation  |
\*---------------------------------------------------------------------------*/
FoamFile
{
    version     2.0;
    format      ascii;
    class       surfaceScalarField;
    location    "48500.0000008936258";
    object      phi;
}
// * * * * * * * * * * * * * * * * * * * * * * * * * * * * * * * * * * * * * //

dimensions      [1 0 -1 0 0 0 0];

internalField   nonuniform List<scalar> 
1482
(
-0.00279976
0.0028638
-0.00348404
0.000684276
-0.00414488
0.000660839
-0.00475913
0.000614257
-0.00528066
0.000521528
-0.00569267
0.000412011
-0.0059839
0.000291233
-0.00614128
0.000157376
-0.00614747
6.18725e-06
-0.0059765
-0.000170964
-0.00559848
-0.000378023
-0.00498243
-0.000616052
-0.00405823
-0.000924201
-0.00257964
-0.00147859
-0.00257672
-6.43354e-05
6.91892e-05
0.000778734
-0.00084307
0.0014306
-0.000651863
0.00182927
-0.000398674
0.00205025
-0.000220977
0.00215441
-0.000104157
0.00220185
-4.74454e-05
0.00222478
-2.29325e-05
0.00223456
-9.77048e-06
0.00223539
-8.38296e-07
0.00222826
7.13646e-06
0.00220921
1.9049e-05
0.00216498
4.42325e-05
0.0020624
0.00010258
0.00184614
0.000216252
0.00148957
0.000356569
0.00101967
0.0004699
0.00102611
-0.00204037
0.00507449
-0.00290853
0.00155244
-0.00369451
0.00144681
-0.00434572
0.00126547
-0.00488315
0.00105896
-0.00531205
0.000840911
-0.0056306
0.000609779
-0.00583196
0.000358741
-0.00590546
7.96869e-05
-0.00584329
-0.00023314
-0.00563967
-0.000581644
-0.00528333
-0.000972393
-0.00477311
-0.00143442
-0.00428703
-0.00196467
-0.00470262
-0.00216113
-0.00311626
-0.00158092
-0.00163301
-0.00147756
-0.00161817
0.00131783
-0.00123843
0.00166144
-0.00118668
0.00191199
-0.000902413
0.00210191
-0.000588593
0.0022081
-0.000327166
0.00221669
-0.000112751
0.00221872
-4.94716e-05
0.00222042
-2.46284e-05
0.00222145
-1.08006e-05
0.00222149
-8.7585e-07
0.00222011
8.50906e-06
0.00221589
2.32731e-05
0.00220324
5.68834e-05
0.00214132
0.000164494
0.00189176
0.000465818
0.00146293
0.0007854
0.000901058
0.00103177
0.00194406
-0.00148824
0.00682066
-0.00235915
0.00242334
-0.00312923
0.0022169
-0.0037136
0.00184984
-0.00418441
0.00152977
-0.00455598
0.00121248
-0.00483007
0.000883869
-0.00500342
0.000532096
-0.00506963
0.000145894
-0.00501963
-0.000283136
-0.00484273
-0.000758547
-0.00453154
-0.00128358
-0.00411695
-0.00184901
-0.00371963
-0.00236199
-0.00329948
-0.00258127
-0.00236847
-0.00251193
-0.0012748
-0.00257123
-0.00288013
0.0011493
-0.00237328
0.00165236
-0.00168974
0.00195006
-0.00120011
0.00214176
-0.000780295
0.00216969
-0.000355099
0.00205709
0.00200778
0.0019833
0.00197266
0.00197194
0.0019806
0.00200403
0.00206106
0.00222571
0.0018666
0.000824927
0.00141872
0.00123328
0.000800966
0.00164952
0.00277106
-0.00110603
0.0082579
-0.00192793
0.00324524
-0.00257004
0.002859
-0.00303047
0.00231027
-0.00339812
0.00189742
-0.00368702
0.00150137
-0.00390013
0.00109698
-0.00403558
0.000667548
-0.00408584
0.000196154
-0.00403772
-0.000331256
-0.00387897
-0.000917292
-0.00360556
-0.00155699
-0.00324016
-0.00221441
-0.00281863
-0.00278351
-0.00227972
-0.00312018
-0.00156058
-0.00323106
-0.000872793
-0.00325902
-0.000693438
-0.00305948
0.00144243
-0.00212042
0.00137449
-0.00230534
0.00168999
-0.00200525
0.00200245
-0.00151257
0.00226874
-0.00104658
0.00254568
-0.000632037
0.00285789
-0.000312366
0.00302416
-0.000166428
0.00308848
-6.44704e-05
0.00307127
1.70592e-05
0.00298122
8.98957e-05
0.00281921
0.000161852
0.0025773
0.000241756
0.00223247
0.000344681
0.00172746
0.00050485
0.00159078
0.000961608
0.00126279
0.00156127
0.000736828
0.00217549
0.0035422
-0.000803725
0.00945483
-0.00157984
0.00402136
-0.00204852
0.00332768
-0.00236429
0.00262604
-0.00260875
0.00214189
-0.0027944
0.00168701
-0.00292621
0.00122879
-0.00300488
0.000746222
-0.00302384
0.00021511
-0.00296643
-0.000388662
-0.00281944
-0.00106429
-0.00257598
-0.00180044
-0.00224271
-0.00254768
-0.00182682
-0.0031994
-0.00132204
-0.00362496
-0.000746041
-0.00380706
-0.000215237
-0.00378982
0.00026199
-0.0035367
0.00112282
-0.00298125
0.00148831
-0.00267083
0.001747
-0.00226393
0.00199929
-0.00176486
0.00222909
-0.00127638
0.00244326
-0.000846204
0.00264375
-0.000512857
0.00275333
-0.000276012
0.00278937
-0.000100508
0.00276354
4.28884e-05
0.00268221
0.000171228
0.00254779
0.000296273
0.00235897
0.000430577
0.00211321
0.000590441
0.00181841
0.000799652
0.00161163
0.00116839
0.00146845
0.00170445
0.0012863
0.00235763
0.0022686
0.00255991
0.00131832
0.0009852
0.00190809
-0.000561219
0.00202681
-0.000575777
0.010477
-0.00132463
0.00477021
-0.00158424
0.00358729
-0.0017502
0.002792
-0.0018643
0.00225599
-0.00193596
0.00175867
-0.00197161
0.00126444
-0.00197553
0.000750138
-0.00194452
0.000184103
-0.00185676
-0.00047642
-0.00170245
-0.00121859
-0.00147169
-0.0020312
-0.00116743
-0.00285194
-0.000795594
-0.00357124
-0.000376179
-0.00404438
6.3836e-05
-0.00424708
0.000468829
-0.00419481
0.000843008
-0.00391088
0.00129372
-0.00343196
0.00159215
-0.00296925
0.00179513
-0.00246691
0.00196631
-0.00193605
0.00211776
-0.00142782
0.00225202
-0.00098047
0.00235653
-0.000617368
0.00241442
-0.000333904
0.00242549
-0.000111577
0.00239497
7.34096e-05
0.00232762
0.00023858
0.00222715
0.000396742
0.00209744
0.000560283
0.00194527
0.000742613
0.0017847
0.000960227
0.0016915
0.00126159
0.00174426
0.00165169
0.00194891
0.00215299
0.00218492
0.0023239
0.00170144
0.00146868
0.000783768
0.000356455
0.00290809
-0.000543292
0.0115125
-0.00124341
0.00547033
-0.00119169
0.00353556
-0.00120013
0.00280044
-0.00119265
0.00224851
-0.00115943
0.00172545
-0.00110261
0.00120763
-0.00102788
0.000675404
-0.000929918
8.61417e-05
-0.000781323
-0.000625015
-0.000592371
-0.00140755
-0.000352502
-0.00227107
-6.88331e-05
-0.00313561
0.000236031
-0.00387611
0.000546081
-0.00435443
0.000841253
-0.00454225
0.00110412
-0.00445768
0.00133729
-0.00414405
0.00156878
-0.00366345
0.00172804
-0.00312851
0.00182751
-0.00256637
0.00189711
-0.00200565
0.00195251
-0.00148322
0.00199884
-0.0010268
0.00203081
-0.000649333
0.00204275
-0.000345853
0.00203136
-0.000100185
0.00199741
0.000107367
0.00194393
0.000292057
0.0018746
0.00046607
0.0017944
0.000640486
0.00171145
0.00082556
0.00164013
0.00103155
0.0016227
0.00127902
0.00170266
0.00157172
0.00190093
0.00195472
0.00214075
0.00208408
0.00215684
0.00145259
0.0016243
0.000888999
0.00463507
-0.000483448
0.0125315
-0.00105132
0.00603821
-0.000697139
0.00318138
-0.000636407
0.00273971
-0.000568227
0.00218033
-0.000463872
0.0016211
-0.000335306
0.00107906
-0.000184698
0.000524796
4.01384e-06
-0.00010257
0.00022173
-0.000842731
0.0004611
-0.00164692
0.000718692
-0.00252867
0.000975811
-0.00339274
0.00120492
-0.00410522
0.00140475
-0.00455427
0.00156638
-0.0047039
0.00168446
-0.00457576
0.00176372
-0.00422332
0.00181665
-0.00371638
0.00182643
-0.00313829
0.00180131
-0.00254126
0.00176027
-0.00196461
0.00171818
-0.00144113
0.0016825
-0.000991119
0.00165326
-0.000620092
0.00162666
-0.000319255
0.00159799
-7.1523e-05
0.00156512
0.000140241
0.0015283
0.000328878
0.00148882
0.000505548
0.00144968
0.00067963
0.00141669
0.000858546
0.00139993
0.00104831
0.00142111
0.00125784
0.00150504
0.00148779
0.0016962
0.00176356
0.00195024
0.00183005
0.00207098
0.00133185
0.00168558
0.0012744
0.0066856
0.00297697
0.0101417
0.00202146
0.00699372
0.000868481
0.00433436
0.000370269
0.00323792
0.000213433
0.00233716
0.00026963
0.0015649
0.000423082
0.000925608
0.000636371
0.000311507
0.000895068
-0.000361267
0.00115922
-0.00110688
0.00143731
-0.00192501
0.00170431
-0.00279567
0.00193083
-0.00361926
0.00209248
-0.00426688
0.00218316
-0.00464495
0.00220536
-0.00472611
0.00216784
-0.00453824
0.00208424
-0.00413972
0.00196983
-0.00360197
0.00183026
-0.00299872
0.00167771
-0.0023887
0.00152899
-0.00181588
0.00139871
-0.00131086
0.00129508
-0.000887493
0.00121949
-0.000544495
0.00116735
-0.000267123
0.00113163
-3.58005e-05
0.0011072
0.000164676
0.0010907
0.000345375
0.00108
0.000516253
0.00107512
0.000684508
0.00107863
0.000855031
0.00109571
0.00103123
0.00113641
0.00121714
0.00121166
0.00141254
0.00134746
0.00162775
0.00150666
0.00167086
0.00154268
0.00129584
0.00019704
0.0026201
0.00726701
0.00403082
0.0062511
0.00366669
0.00735786
0.00254118
0.00545987
0.00188801
0.00389109
0.00153149
0.00269369
0.00138658
0.00170981
0.00142011
0.000892081
0.00159395
0.00013766
0.00184528
-0.000612598
0.0021217
-0.0013833
0.00240097
-0.00220428
0.00264594
-0.00304064
0.00281495
-0.00378827
0.00288088
-0.00433282
0.00284031
-0.00460439
0.0027069
-0.00459271
0.00250289
-0.00433424
0.00225258
-0.00388942
0.00197875
-0.00332815
0.00169853
-0.0027185
0.00142909
-0.00211925
0.00118813
-0.00157492
0.000990351
-0.00111308
0.000841989
-0.000739131
0.00074227
-0.000444776
0.000682807
-0.000207661
0.000652992
-5.98564e-06
0.000644245
0.000173423
0.000649824
0.000339796
0.000665054
0.000501022
0.000687804
0.000661758
0.000717792
0.000825043
0.000755454
0.000993572
0.000800791
0.0011718
0.000844143
0.00136919
0.000838486
0.00163341
0.00047808
0.00203125
-0.00112958
0.00290367
-0.00255825
0.00404903
0.00481219
0.00240905
0.00400658
0.00330375
0.00646316
0.00324773
0.00551589
0.003037
0.00410182
0.00284593
0.00288476
0.00272247
0.00183327
0.00270823
0.000906316
0.00279662
4.9273e-05
0.00295777
-0.000773755
0.00316768
-0.0015932
0.00338471
-0.00242131
0.00354895
-0.00320488
0.00360564
-0.00384497
0.00352804
-0.00425523
0.00332146
-0.00439782
0.00301197
-0.00428323
0.00263398
-0.00395625
0.0022209
-0.00347636
0.00180236
-0.0029096
0.0014019
-0.00231805
0.00104095
-0.0017583
0.000738581
-0.00127255
0.000508656
-0.000883154
0.000349625
-0.000580101
0.000253501
-0.000348652
0.000204547
-0.000158708
0.00018971
8.85098e-06
0.000198696
0.000164437
0.000223386
0.000315106
0.000259002
0.000465406
0.000302637
0.000618122
0.000352282
0.000775399
0.000405704
0.00094015
0.000460031
0.00111748
0.000504001
0.00132522
0.000483602
0.00165379
0.000246308
0.00226842
-4.62597e-05
0.00319602
-0.000234331
0.00423711
0.00469178
0.00145634
0.00274448
0.0027476
0.0051719
0.00343199
0.0048315
0.00371835
0.00381546
0.00381691
0.0027862
0.00384479
0.00180538
0.00388033
0.000870777
0.0039487
-1.91005e-05
0.0040579
-0.000882956
0.0041972
-0.0017325
0.00431536
-0.00253947
0.00434183
-0.00323134
0.00422502
-0.00372816
0.00395268
-0.00398289
0.00354728
-0.00399243
0.00304871
-0.00378466
0.00250101
-0.00340856
0.00194303
-0.00291838
0.0014089
-0.00237548
0.000925134
-0.00183429
0.000518236
-0.0013514
0.000205415
-0.000959733
-7.99717e-06
-0.000669742
-0.000137787
-0.000450311
-0.000207513
-0.000278926
-0.000237228
-0.000128994
-0.000238295
9.91756e-06
-0.00021803
0.000144172
-0.000181616
0.000278691
-0.000132869
0.000416659
-7.52613e-05
0.000560514
-1.24573e-05
0.000712595
5.12698e-05
0.000876423
0.000112169
0.00105658
0.000158073
0.00127931
0.000109165
0.00170263
-3.60137e-05
0.00241324
0.000229501
0.00293003
0.000402603
0.00406366
0.00521822
0.00216856
0.00080187
0.00294165
0.00439881
0.0035937
0.00417945
0.00416488
0.00324429
0.00449309
0.00245798
0.00466736
0.0016311
0.00478369
0.000754449
0.0048874
-0.000122812
0.00499246
-0.000988013
0.00506929
-0.00180931
0.00505246
-0.00252263
0.00488185
-0.00306072
0.00453488
-0.00338118
0.00403048
-0.0034785
0.00341385
-0.0033758
0.00273618
-0.003107
0.00204652
-0.00271891
0.00138316
-0.00225502
0.000785103
-0.00177742
0.000278013
-0.0013272
-0.000102759
-0.000970628
-0.000354253
-0.000708237
-0.0005042
-0.000519794
-0.000588081
-0.000366431
-0.000632932
-0.000234077
-0.00064956
-0.000112367
-0.000643271
3.62724e-06
-0.000617296
0.000118197
-0.000574223
0.000235617
-0.000517391
0.000359827
-0.000451565
0.000494688
-0.000383708
0.000644738
-0.000324262
0.000816979
-0.000292624
0.00102495
-0.000332476
0.00131918
-0.000512236
0.00188237
-0.000805222
0.00270593
-0.00108343
0.00320771
-0.00103119
0.0040109
0.00432568
-0.0015742
0.00262122
0.00111997
0.00170463
0.00335192
0.00194749
0.0043556
0.00224061
0.00486038
0.0019532
0.00517505
0.00131643
0.00540231
0.000527189
0.00557868
-0.00029918
0.00567633
-0.00108564
0.00563335
-0.00176631
0.00539878
-0.00228804
0.00496072
-0.00262264
0.00434696
-0.00276741
0.00361077
-0.00274229
0.00281305
-0.00257808
0.00200479
-0.00229874
0.00123539
-0.00194951
0.000536363
-0.00155599
-4.44856e-05
-0.00119657
-0.000467545
-0.000904135
-0.000733233
-0.000704934
-0.000889151
-0.000552314
-0.000982524
-0.00042642
-0.00103699
-0.000311966
-0.001066
-0.000205073
-0.00107414
-0.000104235
-0.00106282
-7.69485e-06
-0.00103243
8.78068e-05
-0.00098377
0.000186956
-0.000919827
0.000295884
-0.000846444
0.000421305
-0.000773567
0.00057186
-0.00071819
0.000761604
-0.000712383
0.00101917
-0.000809066
0.00141598
-0.00104015
0.00211371
-0.00154181
0.00320784
-0.00263248
0.00429846
-0.00290966
0.00428803
0.00157007
0.00288296
0.00457241
0.00487339
0.00164651
0.0053614
0.0017526
0.00559883
0.00171577
0.00582982
0.00108544
0.0060156
0.000341415
0.00608027
-0.000363829
0.00595267
-0.000958007
0.00559911
-0.00141271
0.00503177
-0.00172067
0.00429743
-0.00188828
0.00345453
-0.00192449
0.00256289
-0.00185064
0.00167923
-0.00169441
0.000838596
-0.0014581
8.55664e-05
-0.00119647
-0.000520677
-0.000949741
-0.000942347
-0.000774893
-0.0012015
-0.00064496
-0.00135933
-0.000547096
-0.00145475
-0.00045689
-0.00151501
-0.000366162
-0.00155231
-0.000274683
-0.00157152
-0.000185872
-0.0015736
-0.000102177
-0.00155784
-2.34613e-05
-0.00152328
5.32408e-05
-0.00146953
0.00013321
-0.00139801
0.000224362
-0.00131292
0.000336219
-0.00122179
0.000480718
-0.00113584
0.000675641
-0.00107051
0.000953841
-0.00103881
0.00138438
-0.00100881
0.00208405
-0.000929562
0.00312911
-0.00103302
0.00440239
-0.000995162
0.00425064
0.000741392
0.0079343
0.00536082
0.00581566
0.00387117
0.00556781
0.00196356
0.00563864
0.00101457
0.00560276
0.000377285
0.00535953
-0.000120577
0.00489598
-0.000494427
0.00425155
-0.000768253
0.00347955
-0.000948634
0.00263348
-0.00104219
0.00175547
-0.00104647
0.000885306
-0.000980468
6.15e-05
-0.000870598
-0.000652615
-0.000743975
-0.00119899
-0.000650086
-0.00157085
-0.000577849
-0.00181189
-0.000533825
-0.00196119
-0.000495625
-0.00205909
-0.000449178
-0.00212733
-0.000388643
-0.00217618
-0.000317342
-0.00220931
-0.000241586
-0.00222779
-0.000167444
-0.00223131
-9.86912e-05
-0.00221871
-3.60813e-05
-0.00218835
2.28739e-05
-0.00213808
8.29497e-05
-0.00206548
0.000151775
-0.001968
0.000238745
-0.00184293
0.000355621
-0.00168739
0.000520033
-0.00149489
0.00076124
-0.00123996
0.00112941
-0.000854942
0.00169916
-0.000251345
0.0025259
0.000520564
0.00363088
0.00113178
0.0036399
0.0020435
0.00409881
0.00150856
0.00449968
0.00347027
0.00373012
0.00273308
0.00323077
0.0015139
0.00288927
0.000718792
0.00252538
0.00024333
0.00207819
-4.72148e-05
0.00153422
-0.000224276
0.000912658
-0.000327074
0.000232272
-0.000361802
-0.000465327
-0.000348869
-0.00111682
-0.000328968
-0.00166798
-0.000319432
-0.00208453
-0.000327395
-0.00237662
-0.000357954
-0.00256508
-0.000389335
-0.00269168
-0.000407163
-0.00278645
-0.000400812
-0.00286549
-0.00037013
-0.00293345
-0.000320704
-0.00299022
-0.000260639
-0.0030343
-0.000197599
-0.00306456
-0.000137283
-0.00308051
-8.28211e-05
-0.00308186
-3.47618e-05
-0.00306654
7.56244e-06
-0.00302984
4.63077e-05
-0.00296444
8.64422e-05
-0.00285981
0.000134152
-0.00270242
0.000198223
-0.00247663
0.000294136
-0.00216176
0.000446182
-0.00171669
0.000684098
-0.00106375
0.00104599
-0.000140446
0.00160253
0.000977633
0.00251296
0.00157693
0.00304084
0.00379856
-0.00262096
-0.00678845
-0.00741413
-0.00746805
-0.00375023
-0.00215526
-0.00167655
0.00139659
-0.000762767
0.00181928
-0.000561095
0.00131222
-0.000637829
0.000795519
-0.00082283
0.000428318
-0.00106552
0.000195461
-0.00135878
6.8962e-05
-0.00170567
1.9797e-05
-0.00208212
1.46282e-05
-0.00245321
2.22059e-05
-0.0027934
1.12226e-05
-0.00307327
-3.95316e-05
-0.00326268
-0.000137924
-0.00337995
-0.000240591
-0.00345968
-0.00030952
-0.00353152
-0.000335249
-0.00360776
-0.000324547
-0.0036895
-0.000288415
-0.00377312
-0.000237174
-0.00385384
-0.000180054
-0.00392656
-0.000125039
-0.00398593
-7.8066e-05
-0.00402691
-4.19474e-05
-0.00404565
-1.60623e-05
-0.00404235
4.29798e-06
-0.00401741
2.14824e-05
-0.00396582
3.49981e-05
-0.0038757
4.41829e-05
-0.003727
4.96237e-05
-0.00349133
5.84738e-05
-0.00313238
8.71258e-05
-0.00259708
0.00014855
-0.00179407
0.00024262
-0.000656816
0.00046487
0.000682224
0.00117365
0.00121898
0.00250393
0.00520328
-0.00736765
0.00103274
-0.00813228
-0.00670338
-0.00718128
-0.00310622
-0.00565927
-0.000125395
-0.00456645
0.000726441
-0.00397427
0.000720012
-0.00371394
0.00053513
-0.00364577
0.000360085
-0.00368642
0.000236052
-0.0037802
0.000162677
-0.00388544
0.000124986
-0.00397393
0.0001031
-0.00403095
7.92284e-05
-0.00406099
4.13012e-05
-0.00408381
-1.66384e-05
-0.00411872
-0.000102906
-0.0041764
-0.000182798
-0.00425738
-0.000228444
-0.00435527
-0.000237311
-0.00445978
-0.000220057
-0.00456061
-0.000187673
-0.00464989
-0.000148059
-0.00472302
-0.000107119
-0.0047782
-7.00705e-05
-0.00481498
-4.14757e-05
-0.00483315
-2.38967e-05
-0.00483276
-1.64996e-05
-0.00481235
-1.60695e-05
-0.00477302
-1.77153e-05
-0.00471246
-2.53635e-05
-0.00462273
-4.52923e-05
-0.00448919
-8.36262e-05
-0.00428951
-0.000140924
-0.00399771
-0.000204412
-0.00359205
-0.000256931
-0.00302452
-0.000324845
-0.00204936
-0.000510413
-0.000251229
-0.000624774
0.000646281
0.00160612
0.00604452
0.00157438
-0.00506451
-0.00810788
-0.00817422
-0.00739381
-0.00662759
-0.00605286
-0.00565783
-0.00538976
-0.00519664
-0.00504178
-0.00490863
-0.00479868
-0.00472583
-0.00471033
-0.00478101
-0.00493185
-0.00512881
-0.00533516
-0.00552472
-0.00568222
-0.00580027
-0.00587745
-0.00591757
-0.00592909
-0.00592308
-0.00590987
-0.00589658
-0.00588549
-0.00588282
-0.00590106
-0.00595881
-0.00607525
-0.00625674
-0.00649246
-0.0067978
-0.00729024
-0.00789827
-0.00627626
)
;

boundaryField
{
    floor
    {
        type            calculated;
        value           nonuniform List<scalar> 
36
(
0
0
0
0
0
0
0
0
0
0
0
0
0
0
0
0
0
0
0
-6.43919e-06
-1.68858e-05
-2.60356e-05
-3.43159e-05
-3.49247e-05
-2.85502e-05
-2.86002e-05
-2.92019e-06
-5.44205e-06
-5.68834e-06
-5.90859e-06
-4.85374e-06
-8.93966e-06
-1.02122e-05
-1.28346e-05
-1.44568e-05
-1.5445e-05
)
;
    }
    ceiling
    {
        type            calculated;
        value           nonuniform List<scalar> 
43
(
-5.78214e-05
-6.44683e-05
-6.2843e-05
-5.90733e-05
-5.40101e-05
-4.62831e-05
-3.96992e-05
-3.50479e-05
-3.21184e-05
-3.05233e-05
-2.9922e-05
-3.00634e-05
-3.06977e-05
-3.14876e-05
-3.20402e-05
-3.21179e-05
-3.18601e-05
-3.1423e-05
-3.09564e-05
-3.05671e-05
-3.03054e-05
-3.01704e-05
-3.01267e-05
-3.01205e-05
-3.00913e-05
-2.99779e-05
-2.97251e-05
-2.92914e-05
-2.86548e-05
-2.78116e-05
-2.67678e-05
-2.55333e-05
-2.41237e-05
-2.25743e-05
-2.09654e-05
-1.94295e-05
-1.81066e-05
-1.70686e-05
-1.63086e-05
-1.6851e-05
1.93417e-05
1.5186e-05
-0.000246553
)
;
    }
    sWall
    {
        type            calculated;
        value           nonuniform List<scalar> 9(-0.000140238 -0.000164521 -0.000194245 -0.000225955 -0.000245146 -0.000281081 -0.000423642 -0.000453485 -0.000483794);
    }
    nWall
    {
        type            calculated;
        value           nonuniform List<scalar> 
14
(
-9.01238e-05
-9.75151e-05
-0.000102672
-0.000103401
-0.000113888
-0.000124048
-0.000138803
-0.000154061
-0.000165896
-0.000169989
-0.00017797
-0.00018587
-0.000195263
-0.000215303
)
;
    }
    sideWalls
    {
        type            empty;
        value           nonuniform 0();
    }
    glass1
    {
        type            calculated;
        value           nonuniform List<scalar> 9(-6.40347e-05 -0.000170323 -0.000257926 -0.000331213 -0.000393199 -0.000446407 -0.00049222 -0.000535502 -0.00058718);
    }
    glass2
    {
        type            calculated;
        value           nonuniform List<scalar> 2(-0.000364976 -0.000384379);
    }
    sun
    {
        type            calculated;
        value           uniform 0;
    }
    Table_master
    {
        type            calculated;
        value           nonuniform List<scalar> 9(-1.53994e-07 -1.54111e-07 -1.54143e-07 -1.54163e-07 -1.54176e-07 -1.54181e-07 -1.54179e-07 -1.54165e-07 -1.54112e-07);
    }
    Table_slave
    {
        type            calculated;
        value           nonuniform List<scalar> 9(1.53663e-07 1.5372e-07 1.53719e-07 1.53736e-07 1.53757e-07 1.53801e-07 1.53868e-07 1.53961e-07 1.54089e-07);
    }
    inlet
    {
        type            calculated;
        value           uniform -0.0116486;
    }
    outlet
    {
        type            calculated;
        value           nonuniform List<scalar> 2(0.00983311 0.0122613);
    }
}


// ************************************************************************* //
