/*--------------------------------*- C++ -*----------------------------------*\
  =========                 |
  \\      /  F ield         | OpenFOAM: The Open Source CFD Toolbox
   \\    /   O peration     | Website:  https://openfoam.org
    \\  /    A nd           | Version:  6
     \\/     M anipulation  |
\*---------------------------------------------------------------------------*/
FoamFile
{
    version     2.0;
    format      ascii;
    class       volScalarField;
    location    "270";
    object      alphat;
}
// * * * * * * * * * * * * * * * * * * * * * * * * * * * * * * * * * * * * * //

dimensions      [1 -1 -1 0 0 0 0];

internalField   nonuniform List<scalar> 
458
(
0.00131342
0.00143867
0.00147849
0.00155259
0.00162161
0.00168801
0.00175593
0.0018218
0.00187418
0.00190451
0.00190306
0.00186083
0.00176634
0.0015064
0.00120211
0.000597313
0.000703083
0.000808037
0.000853479
0.000842983
0.000786899
0.000725126
0.000670253
0.000623075
0.000582391
0.000547118
0.000516265
0.00048914
0.000464595
0.00044141
0.00041807
0.000400238
0.000364749
0.00174287
0.00409841
0.00384835
0.00442714
0.00502103
0.00561954
0.00613138
0.00656085
0.00699142
0.00738277
0.00768385
0.00784195
0.00781342
0.00740039
0.00562922
0.00158093
0.00132537
0.00107531
0.000585962
0.00146301
0.00219996
0.00276332
0.00291893
0.00206923
0.00172811
0.00150086
0.00133531
0.00120976
0.0011111
0.00103125
0.000955445
0.00087745
0.000804986
0.000744889
0.000876588
0.000454993
0.00209951
0.00552891
0.00471424
0.00567463
0.00613154
0.00645818
0.00671076
0.00696979
0.00730954
0.00771854
0.0081629
0.00856757
0.00887247
0.00886119
0.00821003
0.00666838
0.0049182
0.00130169
0.000885161
0.00161643
0.00246116
0.00328666
0.00348779
0.00106668
0.000926076
0.000810117
0.000716878
0.00064209
0.000581811
0.000532904
0.000493762
0.000464022
0.000518513
0.000611989
0.00103011
0.000525076
0.00244053
0.00697403
0.00465581
0.00588883
0.00613776
0.00613967
0.00615827
0.00629963
0.0065838
0.00701213
0.00756395
0.00811193
0.00857227
0.00875406
0.00861413
0.0080977
0.00683051
0.00369363
0.00148592
0.00185319
0.0026303
0.00364099
0.00453476
0.00458151
0.00121512
0.00110647
0.00102889
0.000968879
0.000916932
0.00086927
0.000823335
0.00077508
0.000719716
0.000668029
0.000664886
0.00121218
0.000595938
0.00278885
0.00888387
0.00490652
0.00563869
0.00596559
0.00578684
0.00568224
0.00579375
0.0060661
0.00651505
0.007138
0.00772563
0.00814412
0.00832059
0.00828944
0.00810682
0.00756076
0.0062146
0.00550307
0.00565877
0.00609882
0.00659156
0.00690961
0.00681916
0.00575034
0.00517042
0.00482286
0.00456186
0.00430159
0.00394419
0.00347089
0.00290389
0.00228405
0.00170559
0.00127523
0.00123878
0.00100591
0.000789117
0.000845477
0.000921894
0.00316318
0.0110257
0.00659986
0.00536181
0.00576792
0.0058284
0.00557009
0.00567279
0.00592139
0.00637582
0.00698921
0.00758263
0.00795969
0.008043
0.00793681
0.00783152
0.00778292
0.00765591
0.00783842
0.00825883
0.00857922
0.00869137
0.00856923
0.00821665
0.00764189
0.00712965
0.0067006
0.00630706
0.00591333
0.00547923
0.00494641
0.00430659
0.00356813
0.00279284
0.00212579
0.00158883
0.0012804
0.00109866
0.00138085
0.000957804
0.00352203
0.0125833
0.0094549
0.0066108
0.00596304
0.00608485
0.00592046
0.00585414
0.00601459
0.00646698
0.007106
0.00770071
0.00802227
0.0080021
0.00782854
0.00784956
0.00827468
0.00885457
0.00942571
0.00980584
0.00985525
0.00961742
0.00916484
0.00857185
0.00791633
0.00730766
0.00677189
0.00629214
0.00585429
0.00545785
0.00510188
0.00467989
0.00413202
0.00347581
0.00284231
0.00227556
0.00189605
0.00172882
0.00163894
0.00115124
0.00360379
0.0114006
0.00986858
0.00856086
0.00763302
0.00704489
0.00637209
0.00604615
0.00620102
0.00675034
0.00746046
0.00803486
0.00824504
0.00809426
0.00795495
0.0083606
0.00919219
0.00973726
0.0100719
0.010131
0.0098497
0.00929747
0.00856322
0.00774008
0.00693752
0.00625196
0.00570019
0.00525794
0.00490975
0.00465481
0.00449681
0.00441393
0.0042332
0.00386264
0.00353231
0.00335688
0.00343503
0.00361412
0.0042391
0.00176599
0.00352267
0.00423219
0.00466989
0.00490637
0.00494977
0.00493829
0.00508953
0.00556629
0.00636274
0.00729741
0.00809641
0.00850859
0.00842288
0.008082
0.00830989
0.00886848
0.00930845
0.00947974
0.00942369
0.009111
0.00853442
0.0077399
0.00682558
0.00592495
0.00516477
0.00459358
0.00417844
0.00387023
0.00363375
0.00344394
0.00328016
0.00312877
0.00300759
0.00290873
0.00284087
0.00279535
0.00271427
0.00256323
0.0023866
0.00164848
0.00146533
0.00259105
0.00371916
0.00482491
0.00598305
0.00716237
0.00816567
0.0088039
0.00894562
0.00859483
0.00806194
0.00772225
0.0079313
0.00814436
0.00813896
0.00792591
0.0075134
0.00689379
0.00610642
0.0052555
0.00446316
0.00382829
0.00338719
0.00310544
0.00292824
0.00281597
0.00274553
0.00270423
0.00268952
0.00270289
0.00272339
0.0027427
0.00274741
0.00270729
0.0025792
0.00235664
0.00207701
0.00133406
0.00239215
0.00505047
0.00694317
0.00828148
0.0091946
0.00933103
0.00918257
0.00857782
0.0075417
0.00657452
0.00606109
0.00589334
0.00582834
0.00566846
0.00539096
0.00499012
0.00446219
0.00384687
0.00323843
0.00274166
0.00240679
0.0022198
0.0021317
0.00210434
0.00212146
0.00216937
0.00223882
0.00232112
0.00242051
0.00253122
0.00264875
0.00276407
0.00285811
0.00290818
0.00286431
0.0028313
0.00269105
0.00135395
0.00252559
0.00259647
0.00265902
0.00296126
0.00279702
0.00248772
0.00216981
0.00192892
0.00173686
0.00153764
0.00135574
0.00118704
0.00105665
0.000966709
0.000903763
0.000854155
0.000809578
0.000766594
0.000726452
0.000693934
0.000673902
0.000667921
0.000674208
0.000689957
0.000712991
0.000741899
0.00077549
0.000813856
0.000857572
0.000907911
0.00096413
0.00102651
0.00109556
0.00117174
0.00125502
0.00135527
0.00139132
0.00135885
0.00126625
0.00117198
)
;

boundaryField
{
    floor
    {
        type            compressible::alphatWallFunction;
        Prt             0.85;
        value           nonuniform List<scalar> 
36
(
0.000170418
8.39554e-05
9.96357e-05
0.000114915
0.000121457
0.000119951
0.00011186
0.000102868
9.48036e-05
8.78054e-05
8.17186e-05
7.63988e-05
7.17107e-05
6.75602e-05
6.37795e-05
6.01851e-05
5.65423e-05
5.37418e-05
4.81197e-05
4.8119e-05
6.22939e-05
7.30536e-05
8.37522e-05
0.000112191
0.000120324
0.000131243
0.000170417
0.000221809
0.000187318
0.000152829
8.39544e-05
0.000152827
8.22523e-05
0.000184085
0.000125988
0.000209068
)
;
    }
    ceiling
    {
        type            compressible::alphatWallFunction;
        Prt             0.85;
        value           nonuniform List<scalar> 
43
(
0.000344602
0.000353594
0.000361508
0.000399559
0.000379026
0.000339949
0.000299229
0.000267945
0.000242694
0.000216169
0.000191609
0.000168498
0.000150377
0.000137728
0.000128793
0.0001217
0.000115284
0.000109057
0.000103203
9.84312e-05
9.54775e-05
9.45926e-05
9.55198e-05
9.78404e-05
0.000101223
0.000105451
0.000110339
0.000115891
0.00012218
0.000129374
0.000137354
0.000146145
0.000155803
0.000166379
0.000177849
0.000191545
0.000196442
0.000192032
0.000179392
0.000166417
0.000469319
0.000555554
0.000327488
)
;
    }
    sWall
    {
        type            compressible::alphatWallFunction;
        Prt             0.85;
        value           uniform 0.00034336;
    }
    nWall
    {
        type            compressible::alphatWallFunction;
        Prt             0.85;
        value           nonuniform List<scalar> 6(0.000131031 0.000136118 0.000163186 0.000188325 0.000191031 0.000166084);
    }
    sideWalls
    {
        type            empty;
    }
    glass1
    {
        type            compressible::alphatWallFunction;
        Prt             0.85;
        value           nonuniform List<scalar> 9(0.000181015 0.000237874 0.000284042 0.000327485 0.000371259 0.000417713 0.000461754 0.00047186 0.000462208);
    }
    glass2
    {
        type            compressible::alphatWallFunction;
        Prt             0.85;
        value           nonuniform List<scalar> 2(0.000244655 0.000229229);
    }
    sun
    {
        type            compressible::alphatWallFunction;
        Prt             0.85;
        value           nonuniform List<scalar> 
14
(
0.000185704
0.000202694
0.000208064
0.000218017
0.00022724
0.000236073
0.000245067
0.000253754
0.000260636
0.000264611
0.000264421
0.000258882
0.00024644
0.000211815
)
;
    }
    Table_master
    {
        type            compressible::alphatWallFunction;
        Prt             0.85;
        value           nonuniform List<scalar> 9(0.000151777 0.000131962 0.000115354 0.000101794 9.07629e-05 8.17577e-05 7.43666e-05 6.83901e-05 6.38093e-05);
    }
    Table_slave
    {
        type            compressible::alphatWallFunction;
        Prt             0.85;
        value           nonuniform List<scalar> 9(0.000172374 0.000157331 0.000146486 0.000138032 0.000130664 0.000123861 0.000117262 0.000110283 0.000102211);
    }
    inlet
    {
        type            fixedValue;
        value           uniform 1.94e-05;
    }
    outlet
    {
        type            zeroGradient;
    }
}


// ************************************************************************* //
