/*--------------------------------*- C++ -*----------------------------------*\
  =========                 |
  \\      /  F ield         | OpenFOAM: The Open Source CFD Toolbox
   \\    /   O peration     | Website:  https://openfoam.org
    \\  /    A nd           | Version:  6
     \\/     M anipulation  |
\*---------------------------------------------------------------------------*/
FoamFile
{
    version     2.0;
    format      ascii;
    class       volScalarField;
    location    "270";
    object      T;
}
// * * * * * * * * * * * * * * * * * * * * * * * * * * * * * * * * * * * * * //

dimensions      [0 0 0 1 0 0 0];

internalField   nonuniform List<scalar> 
458
(
302.803
302.531
302.517
302.513
302.509
302.505
302.501
302.495
302.487
302.477
302.469
302.467
302.474
302.498
302.53
302.736
302.71
302.699
302.708
302.718
302.726
302.735
302.743
302.751
302.759
302.767
302.776
302.784
302.793
302.802
302.812
302.824
302.853
302.983
302.566
302.541
302.542
302.544
302.543
302.539
302.531
302.512
302.486
302.462
302.452
302.46
302.481
302.501
302.511
302.521
302.544
302.743
302.68
302.675
302.687
302.702
302.709
302.715
302.721
302.726
302.732
302.738
302.744
302.75
302.757
302.766
302.779
302.796
302.839
303.174
302.613
302.574
302.584
302.597
302.607
302.609
302.599
302.564
302.511
302.462
302.441
302.45
302.477
302.497
302.508
302.518
302.536
302.688
302.66
302.663
302.685
302.711
302.714
302.718
302.722
302.727
302.732
302.737
302.742
302.748
302.754
302.764
302.775
302.792
302.836
303.37
302.673
302.609
302.629
302.659
302.688
302.705
302.694
302.636
302.545
302.464
302.429
302.442
302.475
302.504
302.521
302.528
302.536
302.547
302.571
302.609
302.655
302.703
302.746
302.781
302.806
302.827
302.846
302.862
302.875
302.887
302.897
302.904
302.87
302.836
302.817
302.842
303.564
302.75
302.647
302.665
302.71
302.763
302.807
302.796
302.706
302.574
302.46
302.416
302.433
302.479
302.523
302.55
302.559
302.566
302.585
302.618
302.664
302.717
302.771
302.82
302.862
302.894
302.92
302.94
302.956
302.965
302.968
302.967
302.958
302.931
302.889
302.851
302.849
302.957
303.048
303.047
303.741
302.851
302.707
302.7
302.743
302.807
302.889
302.866
302.74
302.576
302.449
302.4
302.425
302.491
302.557
302.601
302.62
302.635
302.663
302.705
302.756
302.812
302.865
302.912
302.951
302.981
303.004
303.021
303.032
303.036
303.032
303.022
303.006
302.978
302.937
302.893
302.872
302.917
302.953
302.997
303.9
303.015
302.856
302.815
302.831
302.884
302.952
302.892
302.724
302.534
302.402
302.368
302.423
302.521
302.616
302.681
302.717
302.742
302.776
302.821
302.871
302.921
302.968
303.007
303.038
303.062
303.078
303.089
303.093
303.092
303.082
303.066
303.046
303.018
302.982
302.941
302.914
302.921
302.937
302.969
304.13
303.469
303.285
303.164
303.108
303.122
303.061
302.869
302.615
302.404
302.303
302.326
302.441
302.588
302.715
302.797
302.841
302.868
302.903
302.946
302.989
303.029
303.064
303.092
303.112
303.125
303.133
303.135
303.134
303.128
303.117
303.101
303.081
303.056
303.028
302.998
302.981
302.986
303.005
303.143
304.46
304.15
303.909
303.682
303.501
303.34
302.993
302.581
302.267
302.129
302.159
302.315
302.528
302.73
302.868
302.932
302.965
302.992
303.024
303.059
303.09
303.118
303.14
303.155
303.164
303.167
303.167
303.163
303.157
303.15
303.142
303.136
303.133
303.133
303.142
303.161
303.192
303.226
303.252
303.315
297.454
298.982
299.895
300.239
300.526
300.886
301.308
301.733
302.125
302.497
302.798
302.945
303.016
303.051
303.076
303.099
303.125
303.149
303.169
303.183
303.192
303.196
303.197
303.195
303.192
303.188
303.184
303.18
303.177
303.175
303.176
303.181
303.191
303.209
303.235
303.265
303.295
303.328
297.837
299.12
299.973
300.517
301.037
301.53
302.056
302.442
302.728
302.922
303.036
303.093
303.125
303.147
303.166
303.183
303.199
303.211
303.22
303.224
303.225
303.224
303.221
303.218
303.215
303.212
303.208
303.206
303.203
303.201
303.202
303.204
303.211
303.223
303.24
303.264
303.271
303.309
299.547
299.506
299.503
300.619
301.373
301.989
302.453
302.734
302.91
303.027
303.102
303.153
303.184
303.204
303.217
303.228
303.236
303.243
303.248
303.25
303.251
303.25
303.248
303.245
303.242
303.239
303.235
303.232
303.229
303.226
303.223
303.221
303.22
303.22
303.222
303.229
303.239
303.249
303.255
303.3
)
;

boundaryField
{
    floor
    {
        type            wallHeatTransfer;
        Tinf            uniform 305.2;
        alphaWall       uniform 0.24;
        value           nonuniform List<scalar> 
36
(
302.821
303.178
303.11
303.064
303.057
303.069
303.094
303.122
303.151
303.179
303.205
303.23
303.255
303.279
303.302
303.325
303.351
303.375
303.429
303.429
303.345
303.299
303.266
303.289
303.352
303.333
302.821
302.748
302.793
302.859
303.178
302.859
303.19
302.81
303.031
302.793
)
;
    }
    ceiling
    {
        type            wallHeatTransfer;
        Tinf            uniform 303.2;
        alphaWall       uniform 0.24;
        value           nonuniform List<scalar> 
43
(
299.769
299.726
299.719
300.757
301.475
302.064
302.504
302.769
302.934
303.043
303.112
303.158
303.186
303.203
303.215
303.224
303.231
303.237
303.24
303.242
303.243
303.242
303.24
303.238
303.235
303.233
303.23
303.227
303.225
303.222
303.22
303.219
303.218
303.218
303.22
303.226
303.235
303.244
303.25
303.289
304.402
304.112
298.178
)
;
    }
    sWall
    {
        type            wallHeatTransfer;
        Tinf            uniform 315.2;
        alphaWall       uniform 0.36;
        value           uniform 300.938;
    }
    nWall
    {
        type            wallHeatTransfer;
        Tinf            uniform 307.2;
        alphaWall       uniform 0.36;
        value           nonuniform List<scalar> 6(303.823 303.762 303.646 303.886 303.863 303.916);
    }
    sideWalls
    {
        type            empty;
    }
    glass1
    {
        type            wallHeatTransfer;
        Tinf            uniform 315.2;
        alphaWall       uniform 4.3;
        value           nonuniform List<scalar> 9(311.175 310.557 310.164 309.865 309.614 309.383 309.196 309.262 309.491);
    }
    glass2
    {
        type            wallHeatTransfer;
        Tinf            uniform 307.2;
        alphaWall       uniform 4.3;
        value           nonuniform List<scalar> 2(305.634 305.754);
    }
    sun
    {
        type            wallHeatTransfer;
        Tinf            uniform 305.2;
        alphaWall       uniform 0.24;
        value           nonuniform List<scalar> 
14
(
303.047
302.785
302.767
302.754
302.743
302.732
302.721
302.709
302.697
302.685
302.678
302.68
302.695
302.746
)
;
    }
    Table_master
    {
        type            zeroGradient;
    }
    Table_slave
    {
        type            zeroGradient;
    }
    inlet
    {
        type            fixedValue;
        value           uniform 295.15;
    }
    outlet
    {
        type            zeroGradient;
    }
}


// ************************************************************************* //
