/*--------------------------------*- C++ -*----------------------------------*\
  =========                 |
  \\      /  F ield         | OpenFOAM: The Open Source CFD Toolbox
   \\    /   O peration     | Website:  https://openfoam.org
    \\  /    A nd           | Version:  6
     \\/     M anipulation  |
\*---------------------------------------------------------------------------*/
FoamFile
{
    version     2.0;
    format      ascii;
    class       volScalarField;
    location    "14200";
    object      epsilon;
}
// * * * * * * * * * * * * * * * * * * * * * * * * * * * * * * * * * * * * * //

dimensions      [0 2 -3 0 0 0 0];

internalField   nonuniform List<scalar> 
778
(
0.000253146
0.000306391
0.00030304
0.000344214
0.000385072
0.000424865
0.000464286
0.000504526
0.000547321
0.000595391
0.000643785
0.000692128
0.000742077
0.000798429
0.00086021
8.94041e-05
0.000262812
0.0002692
0.000250099
0.000220211
0.000184133
0.000152351
0.000126538
0.000105933
8.94755e-05
7.63253e-05
6.56692e-05
5.68678e-05
4.93963e-05
4.2783e-05
3.6529e-05
3.18236e-05
2.36037e-05
0.000797074
0.00144336
0.00028701
0.00025959
0.000261678
0.000267638
0.000276521
0.000289935
0.000310169
0.000340348
0.000379538
0.000430642
0.000499034
0.000600275
0.000785491
0.00112922
0.000978625
0.000858398
0.00051247
0.000369843
0.000294509
0.000243099
0.000204195
0.000186982
0.000154706
0.000124987
0.000100681
8.14788e-05
6.65215e-05
5.4822e-05
4.56341e-05
3.87122e-05
3.45249e-05
3.27727e-05
6.58253e-05
4.81186e-05
0.00163082
0.0040797
0.000407456
0.000242923
0.000229088
0.000230994
0.000238202
0.000250461
0.000268352
0.000292607
0.000324721
0.000366789
0.000421202
0.000494971
0.000601453
0.000724777
0.000829773
0.00158447
0.00102789
0.000512608
0.000367983
0.00029451
0.000262285
0.000552097
0.000362997
0.000250931
0.00018141
0.000136311
0.000105915
8.47739e-05
6.98198e-05
5.94665e-05
4.51443e-05
3.79964e-05
0.00010823
7.08808e-05
0.00285392
0.00877202
0.000710079
0.00024073
0.000202465
0.000199993
0.000203159
0.000209778
0.000220585
0.000237491
0.000263174
0.000299928
0.000349175
0.000412375
0.000488139
0.000560372
0.000612373
0.000824069
0.00156426
0.000729114
0.000459893
0.000358346
0.000301935
0.000291822
0.000814453
0.000613017
0.00048218
0.000388665
0.000319211
0.000264366
0.000218786
0.00017904
0.000141875
8.38715e-05
5.4947e-05
0.000148721
9.46935e-05
0.00454673
0.0158303
0.00134686
0.000258376
0.000175725
0.000166773
0.000165776
0.000167748
0.000173906
0.000187404
0.000211643
0.000248333
0.000297786
0.000359399
0.00042793
0.000489343
0.000528607
0.000582349
0.000627127
0.000483023
0.00039338
0.000330963
0.000282262
0.000248617
0.000247844
0.000226786
0.00020293
0.000181014
0.000162617
0.000146455
0.000131801
0.000118233
0.000105102
8.45424e-05
6.42743e-05
0.000105328
0.000138978
0.000160524
0.000366886
0.00032669
0.00676477
0.0248825
0.00255457
0.000318163
0.00015554
0.000137054
0.000132111
0.000130676
0.000134443
0.000148532
0.000176682
0.000218067
0.000270842
0.000334254
0.00040193
0.000462859
0.000503115
0.000521669
0.00050465
0.00043813
0.00037373
0.000315593
0.000264717
0.000223386
0.000193302
0.00016964
0.000150811
0.000135604
0.000123257
0.000112704
0.000103256
9.45112e-05
8.60872e-05
7.59283e-05
6.53987e-05
7.76802e-05
9.99131e-05
0.000209504
0.00106449
0.00056039
0.00967386
0.0336407
0.00458576
0.000465223
0.00015087
0.000116342
0.00010708
0.000103272
0.000107066
0.000127895
0.000166101
0.00021589
0.000273396
0.000340316
0.000409685
0.000470832
0.000510466
0.000520595
0.000494341
0.000437616
0.000371835
0.000307486
0.000250559
0.000204448
0.000169754
0.000144557
0.000126316
0.000112719
0.000102253
9.36796e-05
8.61931e-05
7.93319e-05
7.28028e-05
6.61405e-05
6.03271e-05
6.38437e-05
7.69473e-05
0.000174097
0.00160039
0.000913794
0.0127611
0.0404081
0.00749274
0.000871974
0.000194412
0.000115415
9.73957e-05
9.14557e-05
9.8657e-05
0.000137673
0.000189237
0.000246267
0.000307219
0.000374243
0.000445417
0.000508753
0.000547959
0.000551303
0.000515907
0.000451692
0.000375631
0.000301061
0.000236549
0.000185997
0.000149324
0.000123977
0.000106697
9.45544e-05
8.57148e-05
7.87773e-05
7.28722e-05
6.75207e-05
6.24761e-05
5.76588e-05
5.39138e-05
5.59412e-05
7.10364e-05
0.000348801
0.00530268
0.00201925
0.0138288
0.0414555
0.013936
0.00316662
0.000631113
0.000208333
0.000132794
0.000116041
0.000142502
0.000192891
0.000249225
0.000306457
0.000367668
0.000437355
0.000512111
0.000576805
0.000611754
0.000603705
0.000552506
0.000471252
0.000378764
0.000291147
0.000218414
0.000164103
0.00012681
0.000102617
8.72829e-05
7.73396e-05
7.06499e-05
6.56411e-05
6.14324e-05
5.75923e-05
5.39463e-05
5.05543e-05
4.82812e-05
5.29025e-05
0.000104438
0.00103891
0.0131259
0.00306799
0.0130045
0.0283638
0.0144164
0.0057296
0.00210664
0.000835968
0.000414406
0.000277235
0.000279258
0.000314673
0.000356104
0.000401896
0.000459208
0.000532079
0.000611514
0.000675408
0.00069968
0.000671203
0.000594238
0.000487152
0.000373149
0.000271134
0.000191448
0.000135929
0.000100766
7.99288e-05
6.79989e-05
6.12113e-05
5.71109e-05
5.41414e-05
5.15625e-05
4.90727e-05
4.66081e-05
4.43758e-05
4.37734e-05
5.74028e-05
0.000275078
0.00359547
0.0100231
0.00315699
0.0106877
0.0193502
0.0120376
0.00630184
0.00317634
0.00167619
0.000987772
0.000679728
0.000560497
0.00051759
0.000510615
0.000531945
0.000584849
0.00066461
0.000749533
0.000806675
0.000808148
0.000744495
0.000628479
0.000486751
0.000348377
0.000234254
0.000152933
0.000102039
7.37148e-05
5.89192e-05
5.14637e-05
4.80024e-05
4.61803e-05
4.48373e-05
4.35025e-05
4.2025e-05
4.04706e-05
3.92738e-05
4.08491e-05
7.04892e-05
0.000627269
0.00348075
0.00754809
0.00302277
0.00806894
0.0137645
0.00968989
0.00593335
0.00357029
0.00222813
0.00149138
0.00109365
0.000869744
0.000743888
0.000686354
0.000691185
0.000752564
0.000847435
0.00093463
0.000969665
0.000926165
0.000805539
0.000635418
0.000453255
0.000294169
0.000178203
0.000107332
6.97023e-05
5.26667e-05
4.45261e-05
4.069e-05
3.9245e-05
3.86358e-05
3.81726e-05
3.75892e-05
3.6854e-05
3.62168e-05
3.64559e-05
4.07959e-05
7.55353e-05
0.000518295
0.00277942
0.00689006
0.00294652
0.00612108
0.0101652
0.00778896
0.00531184
0.00357009
0.0024693
0.00178828
0.00136854
0.00109325
0.000926464
0.000860169
0.000888678
0.000985887
0.00110062
0.00117118
0.00114971
0.00102539
0.000821226
0.000587208
0.000370219
0.000209269
0.000115054
7.22107e-05
5.22977e-05
4.29396e-05
3.82803e-05
3.59744e-05
3.50608e-05
3.47143e-05
3.45016e-05
3.43367e-05
3.44352e-05
3.5433e-05
3.88086e-05
4.90829e-05
9.08875e-05
0.000411192
0.00218555
0.00542327
0.00354865
0.00618565
0.00780825
0.00680242
0.00473836
0.00336495
0.00246207
0.00186574
0.00146231
0.00119471
0.00106525
0.0010722
0.00118362
0.00133319
0.00143962
0.00143669
0.00129628
0.00104732
0.000741493
0.000458144
0.00023922
0.000131072
8.12503e-05
5.93179e-05
4.87784e-05
4.3073e-05
3.96344e-05
3.74528e-05
3.61175e-05
3.54499e-05
3.51675e-05
3.54843e-05
3.73457e-05
4.2986e-05
5.72164e-05
9.05079e-05
0.000170538
0.00045817
0.00203462
0.00423958
0.00376891
0.00454781
0.0051144
0.00418518
0.00336162
0.00263935
0.0020696
0.00164844
0.00136136
0.00124494
0.00130198
0.00148158
0.00169103
0.00182635
0.00181285
0.00162818
0.0012932
0.000904303
0.000519576
0.000278087
0.000153465
9.96405e-05
7.66094e-05
6.55318e-05
5.90602e-05
5.46499e-05
5.13163e-05
4.85925e-05
4.62952e-05
4.47973e-05
4.44647e-05
4.59922e-05
5.22106e-05
6.98782e-05
0.000112706
0.000204547
0.000389332
0.000801928
0.0021094
0.00441795
0.00365223
0.00139994
0.00142985
0.00143117
0.00135119
0.00130835
0.00142127
0.00170775
0.00204582
0.00231013
0.00240612
0.00228452
0.00196421
0.00151383
0.000971643
0.000561855
0.000307803
0.000182765
0.000130004
0.000108519
9.82838e-05
9.22073e-05
8.80336e-05
8.49837e-05
8.25796e-05
8.03329e-05
7.78153e-05
7.50916e-05
7.47722e-05
7.80188e-05
8.97236e-05
0.00012176
0.000198458
0.000363395
0.000690884
0.00132155
0.00248614
0.00433425
0.00314325
0.00118808
0.00171138
0.00194691
0.00230183
0.00274993
0.00315595
0.00333918
0.00330726
0.00308223
0.00268543
0.00211236
0.00148888
0.000955098
0.000557635
0.000329
0.000222443
0.000180494
0.000164316
0.000156977
0.000152886
0.00015065
0.000150047
0.000150998
0.000153158
0.000155731
0.000157491
0.00015716
0.000154982
0.00015824
0.000171582
0.000207443
0.000291529
0.000471908
0.000835066
0.00154275
0.00284603
0.00483603
0.00294215
0.00742306
0.00812346
0.00481699
0.00339581
0.00372352
0.00413287
0.00414469
0.00393493
0.00358158
0.00312882
0.00261844
0.0020692
0.00151472
0.00102535
0.000665013
0.000451219
0.000352667
0.000314863
0.000300701
0.000293629
0.000288303
0.000283724
0.000280477
0.000279612
0.00028215
0.000288755
0.000299366
0.000312783
0.000326421
0.000336968
0.000345829
0.000369634
0.000416062
0.000504661
0.000676745
0.00101084
0.00166403
0.00296826
0.00503895
0.00397387
0.00650386
0.0051437
0.00435955
0.00461303
0.00452886
0.00426006
0.00367976
0.00303465
0.00245103
0.00196026
0.0015576
0.0012278
0.000961784
0.000762145
0.000630032
0.000557544
0.000524672
0.000512326
0.000508984
0.00050898
0.000510031
0.000511957
0.000515987
0.000524311
0.000539717
0.000565244
0.000603713
0.000657
0.000724986
0.000804316
0.000886936
0.00096586
0.00105865
0.00119196
0.00141081
0.00178626
0.00245004
0.00389322
0.00491047
0.0048323
0.00535505
0.00337233
0.00332323
0.00362448
0.00388865
0.00355846
0.00296218
0.00234826
0.00181578
0.0013815
0.00103729
0.000776208
0.000595125
0.000486768
0.000435429
0.000419086
0.000420465
0.000429611
0.000441672
0.000454699
0.000468464
0.000484015
0.000503514
0.000530155
0.000568029
0.000621709
0.000695329
0.000791287
0.000909279
0.00104671
0.0012009
0.00137287
0.00156573
0.00178322
0.00204103
0.00235705
0.00274096
0.00321479
0.00382091
0.00363966
)
;

boundaryField
{
    floor
    {
        Cmu             0.09;
        kappa           0.41;
        E               9.8;
        type            epsilonWallFunction;
        value           nonuniform List<scalar> 
36
(
0.00086021
8.94041e-05
0.000262812
0.0002692
0.000250099
0.000220211
0.000184133
0.000152351
0.000126538
0.000105933
8.94755e-05
7.63253e-05
6.56692e-05
5.68678e-05
4.93963e-05
4.2783e-05
3.6529e-05
3.18236e-05
2.36037e-05
2.36037e-05
4.81186e-05
7.08808e-05
9.46935e-05
0.000160524
0.000366886
0.00032669
0.00086021
0.00112922
0.000978625
0.000858398
8.94041e-05
0.000858398
0.00051247
0.00158447
0.00102789
0.00156426
)
;
    }
    ceiling
    {
        Cmu             0.09;
        kappa           0.41;
        E               9.8;
        type            epsilonWallFunction;
        value           nonuniform List<scalar> 
43
(
0.00535505
0.00337233
0.00332323
0.00362448
0.00388865
0.00355846
0.00296218
0.00234826
0.00181578
0.0013815
0.00103729
0.000776208
0.000595125
0.000486768
0.000435429
0.000419086
0.000420465
0.000429611
0.000441672
0.000454699
0.000468464
0.000484015
0.000503514
0.000530155
0.000568029
0.000621709
0.000695329
0.000791287
0.000909279
0.00104671
0.0012009
0.00137287
0.00156573
0.00178322
0.00204103
0.00235705
0.00274096
0.00321479
0.00382091
0.00363966
0.00454781
0.0051144
0.00118808
)
;
    }
    sWall
    {
        Cmu             0.09;
        kappa           0.41;
        E               9.8;
        type            epsilonWallFunction;
        value           nonuniform List<scalar> 9(0.0130045 0.0106877 0.00806894 0.00612108 0.00618565 0.00454781 0.00742306 0.00650386 0.00535505);
    }
    nWall
    {
        Cmu             0.09;
        kappa           0.41;
        E               9.8;
        type            epsilonWallFunction;
        value           nonuniform List<scalar> 
14
(
0.00032669
0.00056039
0.000913794
0.00315699
0.00302277
0.00294652
0.00354865
0.00376891
0.00365223
0.00314325
0.00294215
0.00397387
0.0048323
0.00363966
)
;
    }
    sideWalls
    {
        type            empty;
    }
    glass1
    {
        Cmu             0.09;
        kappa           0.41;
        E               9.8;
        type            epsilonWallFunction;
        value           nonuniform List<scalar> 9(0.000253146 0.000797074 0.00163082 0.00285392 0.00454673 0.00676477 0.00967386 0.0127611 0.0138288);
    }
    glass2
    {
        Cmu             0.09;
        kappa           0.41;
        E               9.8;
        type            epsilonWallFunction;
        value           nonuniform List<scalar> 2(0.00201925 0.00306799);
    }
    sun
    {
        Cmu             0.09;
        kappa           0.41;
        E               9.8;
        type            epsilonWallFunction;
        value           nonuniform List<scalar> 
14
(
0.000253146
0.000306391
0.00030304
0.000344214
0.000385072
0.000424865
0.000464286
0.000504526
0.000547321
0.000595391
0.000643785
0.000692128
0.000742077
0.000798429
)
;
    }
    Table_master
    {
        Cmu             0.09;
        kappa           0.41;
        E               9.8;
        type            epsilonWallFunction;
        value           nonuniform List<scalar> 9(0.000552097 0.000362997 0.000250931 0.00018141 0.000136311 0.000105915 8.47739e-05 6.98198e-05 5.94665e-05);
    }
    Table_slave
    {
        Cmu             0.09;
        kappa           0.41;
        E               9.8;
        type            epsilonWallFunction;
        value           nonuniform List<scalar> 9(0.000814453 0.000613017 0.00048218 0.000388665 0.000319211 0.000264366 0.000218786 0.00017904 0.000141875);
    }
    inlet
    {
        type            turbulentMixingLengthDissipationRateInlet;
        mixingLength    0.01;
        phi             phi;
        k               k;
        value           uniform 0.000471671;
    }
    outlet
    {
        type            zeroGradient;
    }
}


// ************************************************************************* //
