/*--------------------------------*- C++ -*----------------------------------*\
  =========                 |
  \\      /  F ield         | OpenFOAM: The Open Source CFD Toolbox
   \\    /   O peration     | Website:  https://openfoam.org
    \\  /    A nd           | Version:  6
     \\/     M anipulation  |
\*---------------------------------------------------------------------------*/
FoamFile
{
    version     2.0;
    format      ascii;
    class       volVectorField;
    location    "14200";
    object      U;
}
// * * * * * * * * * * * * * * * * * * * * * * * * * * * * * * * * * * * * * //

dimensions      [0 1 -1 0 0 0 0];

internalField   nonuniform List<vector> 
778
(
(0.0655998 0.0794063 0)
(-0.155175 0.0157631 0)
(-0.164298 0.0146211 0)
(-0.192408 0.0122709 0)
(-0.216837 0.00872095 0)
(-0.236891 0.00474087 0)
(-0.252012 0.000415325 0)
(-0.261779 -0.00436834 0)
(-0.265677 -0.00980891 0)
(-0.262706 -0.0161871 0)
(-0.250909 -0.0242589 0)
(-0.226218 -0.0348765 0)
(-0.186104 -0.050397 0)
(-0.144172 -0.0751654 0)
(-0.15005 -0.108555 0)
(0.0546758 0.0355054 0)
(0.0158032 -0.0268995 0)
(0.0450251 -0.0232849 0)
(0.0694696 -0.0161798 0)
(0.0845681 -0.0103684 0)
(0.0917997 -0.00641854 0)
(0.0946384 -0.00433626 0)
(0.095668 -0.00331493 0)
(0.0961209 -0.00272959 0)
(0.0962951 -0.00231688 0)
(0.0961737 -0.00195206 0)
(0.0956481 -0.0015106 0)
(0.0943883 -0.000755204 0)
(0.0915352 0.000851425 0)
(0.085318 0.00407951 0)
(0.073752 0.00779629 0)
(0.0600428 0.0116527 0)
(-0.00785035 0.0300277 0)
(0.2584 0.167392 0)
(-0.161234 0.048389 0)
(-0.141598 0.045973 0)
(-0.173996 0.0416048 0)
(-0.199351 0.0356566 0)
(-0.220063 0.0291182 0)
(-0.236085 0.0220493 0)
(-0.247333 0.0142231 0)
(-0.253507 0.00529582 0)
(-0.253829 -0.00514896 0)
(-0.247682 -0.0170762 0)
(-0.233986 -0.0308442 0)
(-0.214087 -0.0480722 0)
(-0.197517 -0.0699571 0)
(-0.194009 -0.0826345 0)
(-0.166411 -0.0425351 0)
(-0.105369 -0.0363541 0)
(-0.0983193 -0.0444621 0)
(0.109353 -0.0421504 0)
(0.0644833 -0.0412375 0)
(0.0719678 -0.032343 0)
(0.0859988 -0.0207913 0)
(0.0939551 -0.0105318 0)
(0.0962244 -0.00365314 0)
(0.0959907 -0.000188644 0)
(0.0955953 0.00125275 0)
(0.0955531 0.00189295 0)
(0.0956314 0.00226363 0)
(0.0956385 0.00258698 0)
(0.0955391 0.00313249 0)
(0.0952486 0.00441808 0)
(0.0939904 0.00774057 0)
(0.0883871 0.0167892 0)
(0.0746087 0.0254009 0)
(0.0632144 0.0330585 0)
(-0.0518344 0.0636913 0)
(0.42998 0.253953 0)
(-0.194235 0.0847547 0)
(-0.112774 0.0784196 0)
(-0.148233 0.0669377 0)
(-0.170658 0.0554795 0)
(-0.188743 0.0437076 0)
(-0.202572 0.0313293 0)
(-0.212258 0.0180008 0)
(-0.217607 0.003402 0)
(-0.217966 -0.0126206 0)
(-0.212714 -0.0303085 0)
(-0.201613 -0.0498948 0)
(-0.185973 -0.0715623 0)
(-0.169432 -0.0932133 0)
(-0.151053 -0.104565 0)
(-0.12021 -0.093135 0)
(-0.0795146 -0.0949236 0)
(-0.0714029 -0.107576 0)
(0.0921801 -0.0882129 0)
(0.0626129 -0.0658359 0)
(0.0744313 -0.0462332 0)
(0.0881004 -0.029373 0)
(0.094998 -0.0150471 0)
(0.0921446 -0.0120809 0)
(0.087903 -0.00796431 0)
(0.0855273 -0.00577978 0)
(0.0848353 -0.00455689 0)
(0.0848105 -0.00379773 0)
(0.0850626 -0.00322756 0)
(0.0857136 -0.0026 0)
(0.0874776 -0.00143796 0)
(0.0921712 0.00292749 0)
(0.0903411 0.0251372 0)
(0.0735358 0.0424416 0)
(0.0702212 0.0576349 0)
(-0.0897642 0.101146 0)
(0.578546 0.325838 0)
(-0.240106 0.121804 0)
(-0.0808301 0.109205 0)
(-0.121566 0.0898296 0)
(-0.138993 0.0740416 0)
(-0.153046 0.0586085 0)
(-0.163798 0.0427308 0)
(-0.171386 0.0257965 0)
(-0.175592 0.00719697 0)
(-0.175656 -0.0135211 0)
(-0.170969 -0.0364531 0)
(-0.161402 -0.0614398 0)
(-0.147531 -0.0873653 0)
(-0.130541 -0.110304 0)
(-0.109569 -0.123204 0)
(-0.0820779 -0.124534 0)
(-0.0524558 -0.126352 0)
(-0.033319 -0.123175 0)
(0.0164569 -0.0568146 0)
(0.0609009 -0.0930563 0)
(0.0685463 -0.0792587 0)
(0.0791578 -0.0589284 0)
(0.0916464 -0.0397139 0)
(0.102974 -0.0210671 0)
(0.115732 -0.0132975 0)
(0.126961 -0.00886941 0)
(0.132627 -0.00563661 0)
(0.133658 -0.00311893 0)
(0.131167 -0.000889684 0)
(0.125729 0.0012824 0)
(0.117219 0.00366513 0)
(0.10487 0.00672236 0)
(0.0856257 0.0111565 0)
(0.0717407 0.0368514 0)
(0.0604635 0.0606408 0)
(0.0764984 0.083572 0)
(-0.117233 0.137619 0)
(0.705723 0.383676 0)
(-0.287682 0.156999 0)
(-0.0476937 0.13376 0)
(-0.0962851 0.106891 0)
(-0.107731 0.0875643 0)
(-0.116758 0.069143 0)
(-0.123541 0.0504224 0)
(-0.128194 0.0305724 0)
(-0.130547 0.00872105 0)
(-0.129736 -0.0158106 0)
(-0.125234 -0.0430604 0)
(-0.116606 -0.0726687 0)
(-0.103874 -0.102822 0)
(-0.0873815 -0.129097 0)
(-0.0674125 -0.145793 0)
(-0.044051 -0.15226 0)
(-0.0201797 -0.152349 0)
(0.000372002 -0.143695 0)
(0.030894 -0.115004 0)
(0.0570588 -0.109384 0)
(0.0706325 -0.0924974 0)
(0.0807583 -0.0713553 0)
(0.0908122 -0.0509252 0)
(0.100369 -0.0328931 0)
(0.109505 -0.0194881 0)
(0.116581 -0.0100907 0)
(0.120061 -0.00338346 0)
(0.12031 0.00188125 0)
(0.117936 0.00643786 0)
(0.113312 0.0108005 0)
(0.106465 0.0154796 0)
(0.0973302 0.0211768 0)
(0.0854164 0.0291935 0)
(0.0738818 0.0472182 0)
(0.0634425 0.0713122 0)
(0.0951203 0.0995472 0)
(0.0174788 0.138801 0)
(0.0970506 0.182746 0)
(0.140315 0.146315 0)
(-0.221209 0.201753 0)
(0.810426 0.43197 0)
(-0.331319 0.190668 0)
(-0.0173156 0.150225 0)
(-0.073362 0.117492 0)
(-0.0785836 0.0954789 0)
(-0.0821996 0.0749119 0)
(-0.0844479 0.0543136 0)
(-0.085479 0.0326997 0)
(-0.0852167 0.00885311 0)
(-0.0825345 -0.0184022 0)
(-0.0773621 -0.0490057 0)
(-0.0687246 -0.0824833 0)
(-0.0567104 -0.116502 0)
(-0.0416238 -0.146329 0)
(-0.0246125 -0.166018 0)
(-0.00619833 -0.174505 0)
(0.0121966 -0.172733 0)
(0.0281197 -0.160983 0)
(0.0462783 -0.139312 0)
(0.0627159 -0.122357 0)
(0.0733709 -0.102543 0)
(0.0810329 -0.0805297 0)
(0.0877826 -0.0592194 0)
(0.0939691 -0.040364 0)
(0.0993278 -0.0251895 0)
(0.103064 -0.0138266 0)
(0.104723 -0.00512431 0)
(0.104349 0.00208017 0)
(0.102237 0.0085627 0)
(0.0986351 0.0148404 0)
(0.0936994 0.0214379 0)
(0.087663 0.028986 0)
(0.0807973 0.0383966 0)
(0.0750624 0.0528156 0)
(0.0698893 0.0728144 0)
(0.0921159 0.0985751 0)
(0.0743273 0.107502 0)
(0.0913386 0.0481557 0)
(0.146486 -0.0352818 0)
(-0.32292 0.106718 0)
(0.879887 0.474682 0)
(-0.368636 0.22095 0)
(0.00371362 0.155532 0)
(-0.0526573 0.12154 0)
(-0.0521999 0.0978161 0)
(-0.051013 0.0757842 0)
(-0.0490015 0.0540106 0)
(-0.0464784 0.0315121 0)
(-0.043282 0.00676316 0)
(-0.0373126 -0.0222917 0)
(-0.0302288 -0.0553476 0)
(-0.0204298 -0.0919241 0)
(-0.00860155 -0.128899 0)
(0.00463636 -0.161277 0)
(0.0177122 -0.18191 0)
(0.0305191 -0.190227 0)
(0.042339 -0.187215 0)
(0.0526481 -0.174387 0)
(0.062608 -0.154032 0)
(0.0711648 -0.132392 0)
(0.0766669 -0.109408 0)
(0.080107 -0.085949 0)
(0.082695 -0.0638145 0)
(0.0849383 -0.0443488 0)
(0.0867977 -0.0282683 0)
(0.0879369 -0.0154797 0)
(0.0881231 -0.0052074 0)
(0.0872023 0.00346351 0)
(0.085347 0.0112136 0)
(0.0827008 0.0185631 0)
(0.0794358 0.0260072 0)
(0.0758312 0.0340411 0)
(0.0722985 0.0432118 0)
(0.0702356 0.0548003 0)
(0.069078 0.0691979 0)
(0.0822776 0.0881617 0)
(0.0858005 0.0914934 0)
(0.0917345 0.0544431 0)
(0.181605 0.0274668 0)
(-0.277647 0.156636 0)
(0.927923 0.517141 0)
(-0.38315 0.234146 0)
(0.0168863 0.132933 0)
(-0.0273185 0.116613 0)
(-0.0265407 0.0948773 0)
(-0.0227244 0.0723819 0)
(-0.017601 0.05006 0)
(-0.0123155 0.0272153 0)
(-0.00532816 0.00182583 0)
(0.00465089 -0.0307437 0)
(0.0143891 -0.06532 0)
(0.0257052 -0.103327 0)
(0.0373618 -0.140866 0)
(0.0480454 -0.172159 0)
(0.0571398 -0.192351 0)
(0.0646334 -0.199821 0)
(0.0703529 -0.195374 0)
(0.0742994 -0.181154 0)
(0.0769823 -0.160057 0)
(0.0783187 -0.136069 0)
(0.0779317 -0.111086 0)
(0.0764039 -0.086609 0)
(0.0745737 -0.0641003 0)
(0.0729721 -0.04455 0)
(0.0717399 -0.0283262 0)
(0.0707387 -0.015143 0)
(0.0697628 -0.00430337 0)
(0.0685173 0.00496454 0)
(0.0670912 0.0132393 0)
(0.0654515 0.0210027 0)
(0.0636699 0.0286736 0)
(0.0619262 0.0365925 0)
(0.0605251 0.0450268 0)
(0.0603604 0.0544083 0)
(0.0613707 0.0646538 0)
(0.0704047 0.0773269 0)
(0.0810699 0.0802002 0)
(0.0828524 0.0608835 0)
(0.239073 0.0572095 0)
(-0.544083 0.235496 0)
(1.01128 0.506793 0)
(-0.137131 0.296325 0)
(0.0410949 0.161481 0)
(0.040642 0.122024 0)
(0.0131232 0.0919022 0)
(0.00870225 0.0652865 0)
(0.0141414 0.0413121 0)
(0.0207855 0.0169082 0)
(0.0326174 -0.0110785 0)
(0.0441035 -0.0421824 0)
(0.0560003 -0.0769238 0)
(0.0682955 -0.114644 0)
(0.0794402 -0.151111 0)
(0.0879343 -0.180578 0)
(0.0931378 -0.198597 0)
(0.0951684 -0.203747 0)
(0.0944369 -0.197077 0)
(0.0914907 -0.181013 0)
(0.0870055 -0.158608 0)
(0.081432 -0.133187 0)
(0.0750665 -0.107188 0)
(0.0685158 -0.0824352 0)
(0.0625107 -0.0602756 0)
(0.0575795 -0.041423 0)
(0.0539182 -0.0259491 0)
(0.0514193 -0.0133486 0)
(0.0497996 -0.00284502 0)
(0.0486533 0.00625212 0)
(0.047919 0.0144424 0)
(0.0473598 0.022162 0)
(0.0469059 0.0297411 0)
(0.0465822 0.0373882 0)
(0.0464953 0.0451782 0)
(0.047074 0.0531096 0)
(0.0483633 0.060673 0)
(0.054247 0.0678392 0)
(0.0656672 0.0645175 0)
(0.0640905 0.0355542 0)
(0.288389 0.0707479 0)
(-0.745519 0.308933 0)
(0.77931 0.395636 0)
(0.000969143 0.319449 0)
(0.0934458 0.218872 0)
(0.110682 0.155103 0)
(0.0772572 0.106732 0)
(0.0598752 0.0674331 0)
(0.0583015 0.0356369 0)
(0.0624888 0.00628954 0)
(0.0739505 -0.0235424 0)
(0.0855532 -0.055123 0)
(0.0977774 -0.0898032 0)
(0.10966 -0.126289 0)
(0.119033 -0.160059 0)
(0.124119 -0.185763 0)
(0.12432 -0.199821 0)
(0.120072 -0.201396 0)
(0.112328 -0.191853 0)
(0.102159 -0.173744 0)
(0.0906074 -0.150104 0)
(0.0785122 -0.123977 0)
(0.0665668 -0.0979111 0)
(0.0555145 -0.0738295 0)
(0.0460956 -0.0529732 0)
(0.038799 -0.0357758 0)
(0.0337386 -0.0220016 0)
(0.0306663 -0.0108536 0)
(0.0291004 -0.00141486 0)
(0.0285557 0.00694337 0)
(0.0287162 0.014665 0)
(0.0292336 0.0221157 0)
(0.0299387 0.0295307 0)
(0.0307049 0.0370418 0)
(0.0313774 0.0446677 0)
(0.031769 0.0523191 0)
(0.0309794 0.0595071 0)
(0.0294807 0.0656713 0)
(0.0140577 0.0654776 0)
(0.00634574 0.0981401 0)
(0.0316114 0.177362 0)
(-0.633262 0.305922 0)
(0.617234 0.220642 0)
(0.00478784 0.298025 0)
(0.113086 0.241488 0)
(0.148371 0.177474 0)
(0.13095 0.123394 0)
(0.117935 0.077692 0)
(0.115086 0.0387306 0)
(0.117279 0.00322768 0)
(0.123681 -0.0308777 0)
(0.131944 -0.0651302 0)
(0.141661 -0.100575 0)
(0.150557 -0.135407 0)
(0.155684 -0.165252 0)
(0.155112 -0.185766 0)
(0.148534 -0.194637 0)
(0.136853 -0.191886 0)
(0.12154 -0.179252 0)
(0.104095 -0.159306 0)
(0.0858884 -0.134965 0)
(0.0680246 -0.109027 0)
(0.0514552 -0.0839922 0)
(0.0370758 -0.0617406 0)
(0.0256627 -0.0433582 0)
(0.0175392 -0.0288947 0)
(0.012513 -0.0177103 0)
(0.00992146 -0.00861873 0)
(0.00902071 -0.000632008 0)
(0.0093376 0.00675798 0)
(0.0103555 0.0138867 0)
(0.0118008 0.0210076 0)
(0.0134921 0.0282775 0)
(0.0152337 0.0358379 0)
(0.0167075 0.0438325 0)
(0.0173618 0.0524882 0)
(0.0158604 0.0620784 0)
(0.0114449 0.0738953 0)
(-0.0186602 0.0994827 0)
(-0.0182867 0.151245 0)
(-0.00291678 0.185804 0)
(-0.542462 0.182227 0)
(0.570785 0.118223 0)
(-0.0202382 0.25852 0)
(0.113725 0.229829 0)
(0.165078 0.175974 0)
(0.166756 0.126057 0)
(0.164434 0.080934 0)
(0.165447 0.0397781 0)
(0.168432 0.0014169 0)
(0.172425 -0.0355913 0)
(0.17804 -0.0720657 0)
(0.184242 -0.107669 0)
(0.187949 -0.139657 0)
(0.186142 -0.164167 0)
(0.177444 -0.178382 0)
(0.162306 -0.181501 0)
(0.14227 -0.174412 0)
(0.119267 -0.159134 0)
(0.0950447 -0.138105 0)
(0.0711911 -0.114053 0)
(0.0489304 -0.0894861 0)
(0.0294448 -0.0668279 0)
(0.0137845 -0.0478477 0)
(0.00262444 -0.0333003 0)
(-0.00433078 -0.0224574 0)
(-0.00785943 -0.0143611 0)
(-0.00932112 -0.00737114 0)
(-0.00940895 -0.000776785 0)
(-0.00841705 0.00570049 0)
(-0.00682394 0.0122313 0)
(-0.00472931 0.0189553 0)
(-0.00226459 0.0259954 0)
(0.000462458 0.0336265 0)
(0.00316546 0.0421094 0)
(0.00537041 0.0521145 0)
(0.0060414 0.0649038 0)
(0.00582629 0.0836001 0)
(-0.0148706 0.121899 0)
(-0.0136383 0.18923 0)
(0.0747806 0.195669 0)
(-0.502709 0.0605019 0)
(0.628515 0.0534023 0)
(0.00921059 0.197222 0)
(0.113736 0.196912 0)
(0.175051 0.157849 0)
(0.191319 0.117549 0)
(0.198 0.0770782 0)
(0.20337 0.0370292 0)
(0.208629 -0.00178706 0)
(0.213196 -0.0399245 0)
(0.217564 -0.076733 0)
(0.219424 -0.110069 0)
(0.215615 -0.136798 0)
(0.204255 -0.15433 0)
(0.185439 -0.161674 0)
(0.16078 -0.159383 0)
(0.132435 -0.148851 0)
(0.102626 -0.13213 0)
(0.0730524 -0.111315 0)
(0.0454707 -0.0889488 0)
(0.0210587 -0.0672296 0)
(0.00143425 -0.0485734 0)
(-0.012337 -0.034671 0)
(-0.0203294 -0.0254251 0)
(-0.0246785 -0.0185309 0)
(-0.0266475 -0.0127076 0)
(-0.0271446 -0.00716278 0)
(-0.0266133 -0.00157222 0)
(-0.0251904 0.00418093 0)
(-0.0232567 0.0101468 0)
(-0.0207693 0.0163946 0)
(-0.0177903 0.0230271 0)
(-0.0143214 0.0302942 0)
(-0.0103843 0.0386493 0)
(-0.00613228 0.049026 0)
(-0.002182 0.0634897 0)
(0.00328243 0.0866334 0)
(0.000762313 0.125965 0)
(-0.00373041 0.194361 0)
(0.153092 0.205263 0)
(-0.379257 0.0880926 0)
(0.472077 0.0747556 0)
(-0.132193 0.137537 0)
(0.0941143 0.133242 0)
(0.172574 0.116695 0)
(0.203691 0.0951755 0)
(0.217996 0.0641505 0)
(0.228023 0.028074 0)
(0.23716 -0.00931836 0)
(0.243605 -0.0456443 0)
(0.245161 -0.0785164 0)
(0.23922 -0.105294 0)
(0.224438 -0.123938 0)
(0.201348 -0.133611 0)
(0.171866 -0.134758 0)
(0.138555 -0.128614 0)
(0.103685 -0.116438 0)
(0.0695131 -0.100062 0)
(0.0372181 -0.0811095 0)
(0.0091369 -0.0621156 0)
(-0.0140334 -0.0450467 0)
(-0.0285974 -0.0337665 0)
(-0.0374698 -0.0262552 0)
(-0.0423532 -0.0208957 0)
(-0.0448226 -0.016379 0)
(-0.0456932 -0.0120749 0)
(-0.0454468 -0.00760982 0)
(-0.0443595 -0.00282344 0)
(-0.0425088 0.00233447 0)
(-0.040324 0.00778492 0)
(-0.0376557 0.0135224 0)
(-0.0345151 0.0196307 0)
(-0.0308561 0.0262954 0)
(-0.0265641 0.0339421 0)
(-0.0216476 0.0437079 0)
(-0.0167042 0.0585143 0)
(-0.0103728 0.0820657 0)
(-0.0015828 0.113902 0)
(0.00131171 0.16494 0)
(0.180374 0.186975 0)
(-0.321006 0.153028 0)
(0.723891 0.134461 0)
(0.0819018 0.11523 0)
(0.149673 0.0991565 0)
(0.222267 0.0803826 0)
(0.243912 0.0697464 0)
(0.248715 0.0473866 0)
(0.255057 0.0171842 0)
(0.261191 -0.0151032 0)
(0.260238 -0.0450845 0)
(0.249763 -0.0698487 0)
(0.229554 -0.0877135 0)
(0.201212 -0.0982264 0)
(0.167124 -0.101706 0)
(0.129824 -0.0991314 0)
(0.0917696 -0.0917301 0)
(0.0543711 -0.0801597 0)
(0.0202108 -0.066024 0)
(-0.0111402 -0.050465 0)
(-0.0337114 -0.0382809 0)
(-0.0488607 -0.0299335 0)
(-0.0580045 -0.0247932 0)
(-0.0634065 -0.0212153 0)
(-0.0664117 -0.0182733 0)
(-0.067813 -0.0153754 0)
(-0.0679811 -0.0122433 0)
(-0.0671404 -0.00869214 0)
(-0.065481 -0.00459392 0)
(-0.0631417 0.00010851 0)
(-0.0604986 0.00525417 0)
(-0.0578162 0.010683 0)
(-0.0549854 0.0164469 0)
(-0.0521396 0.0227063 0)
(-0.0493685 0.0299446 0)
(-0.0467162 0.0395973 0)
(-0.044458 0.0542967 0)
(-0.0415433 0.0744621 0)
(-0.0318946 0.0935991 0)
(-0.014998 0.112406 0)
(0.179606 0.155874 0)
(-0.38274 0.218566 0)
(0.192038 0.0879654 0)
(0.225817 0.0997184 0)
(0.246538 0.0699828 0)
(0.242588 0.0395249 0)
(0.239754 0.011784 0)
(0.234681 -0.0131963 0)
(0.219913 -0.0336253 0)
(0.19619 -0.0487354 0)
(0.165897 -0.0585188 0)
(0.131501 -0.0634355 0)
(0.0947996 -0.0638014 0)
(0.0576945 -0.060309 0)
(0.0220752 -0.0537724 0)
(-0.012731 -0.044285 0)
(-0.0401107 -0.0351033 0)
(-0.0608137 -0.027706 0)
(-0.0748381 -0.0231032 0)
(-0.0839201 -0.0204259 0)
(-0.0897282 -0.0188412 0)
(-0.0935106 -0.0175156 0)
(-0.0958466 -0.0161153 0)
(-0.0969833 -0.0144603 0)
(-0.0970131 -0.0124156 0)
(-0.0959921 -0.00983046 0)
(-0.0940099 -0.00653332 0)
(-0.0912113 -0.00236646 0)
(-0.0877073 0.00266005 0)
(-0.0846513 0.0082004 0)
(-0.0819283 0.0142216 0)
(-0.0798633 0.0210086 0)
(-0.0787434 0.0291731 0)
(-0.0784648 0.0400093 0)
(-0.079596 0.0550619 0)
(-0.0841798 0.0734904 0)
(-0.0875667 0.0889306 0)
(-0.0674743 0.102789 0)
(-0.0112312 0.155806 0)
(-0.498696 0.238431 0)
(0.45144 0.209362 0)
(0.207044 0.178645 0)
(0.153295 0.118744 0)
(0.139967 0.0639174 0)
(0.128386 0.0257214 0)
(0.11417 0.00163723 0)
(0.0986822 -0.0131047 0)
(0.0776235 -0.0223109 0)
(0.0530275 -0.0280457 0)
(0.0260464 -0.0306587 0)
(-0.00351292 -0.0300339 0)
(-0.0323899 -0.0270362 0)
(-0.058109 -0.0229243 0)
(-0.0797351 -0.0188441 0)
(-0.0959134 -0.0161049 0)
(-0.107362 -0.0145545 0)
(-0.11529 -0.0140009 0)
(-0.121098 -0.013783 0)
(-0.125587 -0.0136207 0)
(-0.129082 -0.0133951 0)
(-0.131642 -0.0130721 0)
(-0.133226 -0.0125986 0)
(-0.133749 -0.0118695 0)
(-0.133114 -0.0106963 0)
(-0.131258 -0.00879048 0)
(-0.128215 -0.00578515 0)
(-0.1241 -0.00136124 0)
(-0.119105 0.00443221 0)
(-0.114946 0.0110647 0)
(-0.111573 0.0187109 0)
(-0.108904 0.0280787 0)
(-0.106252 0.0403316 0)
(-0.103511 0.0566278 0)
(-0.103992 0.077354 0)
(-0.105612 0.100935 0)
(-0.0821977 0.121985 0)
(-0.094981 0.127421 0)
(-0.588994 0.0989413 0)
(0.363282 -0.413285 0)
(-0.345707 -0.512825 0)
(-0.218693 -0.0284447 0)
(-0.0924446 0.110841 0)
(-0.0533326 0.0926657 0)
(-0.0311574 0.0546912 0)
(-0.0264833 0.0285483 0)
(-0.0316081 0.0117911 0)
(-0.0404752 0.000849888 0)
(-0.0508944 -0.00644734 0)
(-0.064409 -0.0109714 0)
(-0.0795134 -0.0135172 0)
(-0.0950979 -0.0151857 0)
(-0.110068 -0.0170922 0)
(-0.12335 -0.019516 0)
(-0.133986 -0.0222189 0)
(-0.14185 -0.0248182 0)
(-0.147851 -0.0267695 0)
(-0.152944 -0.0280982 0)
(-0.157656 -0.0289169 0)
(-0.162067 -0.0293098 0)
(-0.166052 -0.0292965 0)
(-0.169417 -0.0288669 0)
(-0.171939 -0.0279881 0)
(-0.173377 -0.0266041 0)
(-0.173498 -0.0246204 0)
(-0.172149 -0.0218726 0)
(-0.169322 -0.0180922 0)
(-0.165169 -0.0129097 0)
(-0.159848 -0.00598528 0)
(-0.153586 0.00269762 0)
(-0.147735 0.0126521 0)
(-0.141431 0.0235038 0)
(-0.133253 0.0360065 0)
(-0.121472 0.0510546 0)
(-0.105297 0.0694115 0)
(-0.0828963 0.0938273 0)
(-0.0385814 0.127452 0)
(0.104456 0.135291 0)
(-0.454854 0.0242993 0)
(0.125088 -0.18443 0)
(-0.387284 -0.297241 0)
(-0.342909 -0.0967045 0)
(-0.264554 0.0515018 0)
(-0.210904 0.0836834 0)
(-0.17882 0.0747727 0)
(-0.162595 0.0612653 0)
(-0.156644 0.0512312 0)
(-0.15673 0.0459552 0)
(-0.159974 0.0452166 0)
(-0.164336 0.0481377 0)
(-0.168508 0.0536829 0)
(-0.171849 0.0606318 0)
(-0.174165 0.0670949 0)
(-0.175921 0.0712486 0)
(-0.177749 0.0728357 0)
(-0.180082 0.0727657 0)
(-0.182931 0.0719992 0)
(-0.186111 0.0708517 0)
(-0.18944 0.0692311 0)
(-0.192773 0.0669736 0)
(-0.195985 0.0639631 0)
(-0.198967 0.0601064 0)
(-0.201617 0.0553422 0)
(-0.203843 0.0497326 0)
(-0.205557 0.043596 0)
(-0.206664 0.037565 0)
(-0.207023 0.032472 0)
(-0.206407 0.0290954 0)
(-0.204464 0.0278928 0)
(-0.200449 0.028631 0)
(-0.193827 0.0299403 0)
(-0.185279 0.0311021 0)
(-0.173086 0.0331884 0)
(-0.155284 0.0363723 0)
(-0.129057 0.0391013 0)
(-0.0890293 0.0398596 0)
(-0.0252849 0.0450362 0)
(0.166068 0.0754786 0)
(-0.360142 0.0955292 0)
(1.14646 -0.0111696 0)
(-0.294397 -0.322733 0)
(-0.352618 -0.233878 0)
(-0.351929 -0.149505 0)
(-0.3282 -0.108052 0)
(-0.296468 -0.0994207 0)
(-0.269054 -0.101611 0)
(-0.249102 -0.107401 0)
(-0.235746 -0.115296 0)
(-0.22708 -0.125346 0)
(-0.221406 -0.137831 0)
(-0.217497 -0.152498 0)
(-0.214568 -0.167862 0)
(-0.212315 -0.181396 0)
(-0.210872 -0.190723 0)
(-0.210534 -0.195616 0)
(-0.211362 -0.1973 0)
(-0.213164 -0.197143 0)
(-0.215708 -0.195998 0)
(-0.218906 -0.194166 0)
(-0.222821 -0.19162 0)
(-0.227597 -0.188167 0)
(-0.2334 -0.18355 0)
(-0.240397 -0.177517 0)
(-0.248723 -0.169871 0)
(-0.258387 -0.160528 0)
(-0.269121 -0.149562 0)
(-0.280228 -0.13722 0)
(-0.290541 -0.123878 0)
(-0.298551 -0.109893 0)
(-0.302659 -0.0954718 0)
(-0.301292 -0.0807458 0)
(-0.293939 -0.0667174 0)
(-0.28198 -0.0546401 0)
(-0.266347 -0.0439868 0)
(-0.24656 -0.034397 0)
(-0.215804 -0.0241493 0)
(-0.164893 -0.00279908 0)
(-0.149087 0.0445893 0)
(-0.566004 0.0983606 0)
)
;

boundaryField
{
    floor
    {
        type            noSlip;
    }
    ceiling
    {
        type            noSlip;
    }
    sWall
    {
        type            noSlip;
    }
    nWall
    {
        type            noSlip;
    }
    sideWalls
    {
        type            empty;
    }
    glass1
    {
        type            noSlip;
    }
    glass2
    {
        type            noSlip;
    }
    sun
    {
        type            noSlip;
    }
    Table_master
    {
        type            noSlip;
    }
    Table_slave
    {
        type            noSlip;
    }
    inlet
    {
        type            fixedValue;
        value           uniform (0.5 0 0);
    }
    outlet
    {
        type            zeroGradient;
    }
}


// ************************************************************************* //
