/*--------------------------------*- C++ -*----------------------------------*=========                 |
  \      /  F ield         | OpenFOAM: The Open Source CFD Toolbox
   \    /   O peration     | Website:  https://openfoam.org
    \  /    A nd           | Version:  6
     \/     M anipulation  |
\*---------------------------------------------------------------------------*/
FoamFile
{
    version     2.0;
    format      ascii;
    class       volScalarField;
    location    "110";
    object      PMV;
}
// * * * * * * * * * * * * * * * * * * * * * * * * * * * * * * * * * * * * * //

dimensions      [0 0 0 0 0 0 0];

internalField   nonuniform List<scalar> 
458
(
1.1619876123492152
0.9014514269241696
0.8567702258573886
0.8300473312767708
0.8238240172881347
0.8387248090961444
0.8789656266173059
0.9500933267562721
1.0483173344792507
1.098735309745744
1.0726914443488353
1.054520188893213
1.0568783454786845
1.0890826900228927
1.1091169946707324
1.6836882103762894
1.647326885473784
1.6176551725921644
1.6171765366875714
1.6320133752917765
1.6297701596104492
1.6233567415903891
1.6284573024378954
1.6385815822718877
1.650585359218723
1.6638826711768384
1.678477098615829
1.6942452135662485
1.7128037065374295
1.736575086091874
1.7693367627544876
1.8173018342063851
1.875313897781062
1.0744638890646043
0.9163984930489357
0.8944762225289139
0.8677287475036893
0.8589317273099564
0.8663443591854141
0.8800311536015097
0.9034150006627819
0.9622300305229926
1.063073085646847
1.1090206298863554
1.1189563979263881
1.1143353174725072
1.1034823220707672
1.0760677241460002
1.0786356650793685
1.137464483482881
1.2213543708625707
1.6956465162480499
1.6138260333837406
1.5745101356915427
1.5573655021072481
1.5643917199184922
1.580416511661692
1.5960267479928683
1.612336446459814
1.628808678103684
1.6455564646799816
1.6630104296392174
1.681219687473217
1.700131290859831
1.720707244209125
1.7464754355716259
1.7811434653086398
1.8223484852268113
1.8624407242317331
1.077535082520739
0.9131248352973108
0.9393689861094661
0.9313794073799112
0.9268040308638996
0.9155357159517774
0.8715240002856611
0.8337138385155295
0.8810893663331113
1.0043922963237129
1.1112544320179452
1.1723149868963958
1.1874598239003749
1.1705414419353295
1.1408214923988065
1.141919100562627
1.1640889087365671
1.1849950791283748
1.6271821667253326
1.5011368223857153
1.4620062570022634
1.4818239616390843
1.517710941312865
1.537380171173242
1.5800385435763185
1.618978075598791
1.649005999565144
1.6756852842218155
1.7023914260468567
1.7296569092770753
1.7559556243009449
1.7750245767604955
1.7926748035981157
1.8152269025331862
1.8267131406976698
1.8266513953944006
1.1308843797856096
0.9133566536403913
0.9809550608036166
1.0180588369509953
1.0380615927498378
0.989694440074331
0.8621856363084919
0.7735449783209288
0.8218761281045963
0.9654910965937262
1.1175950399828496
1.2270612904323508
1.2733855699145271
1.2631353146397488
1.226727729878863
1.19955197059007
1.1722506357833207
1.142787777976303
1.137878129465171
1.2121322720164434
1.287330267277977
1.3721525161826904
1.4662586481581739
1.5548657471811438
1.6243750966101649
1.6553141858291494
1.68204599698754
1.7139837453660547
1.7483064272425468
1.7838106274273002
1.8202301016750497
1.861080176618336
1.9091668570641305
1.9013972981078726
1.8731619532346624
1.8409601743540855
1.8113380331726268
1.2095838884891488
0.9306109760058366
1.0195990722952044
1.117014099850736
1.2083394293435488
1.0531454424690196
0.8448489901836677
0.7285273504250377
0.7784186881388095
0.9486387368646557
1.1449936865573989
1.2993668975980543
1.3809778836934847
1.3807936060892563
1.3337612840486919
1.2868580448893236
1.244967474306524
1.218479774166134
1.2409581271196666
1.2919523010389857
1.3746237264544792
1.4766190407941966
1.58308837260923
1.6809454143426266
1.762323211269691
1.8139267121788076
1.8563384234145766
1.892906831584367
1.9241275062548078
1.950680370753843
1.9725331425082264
1.9889351326145226
1.9977420221334123
1.9708675162396452
1.9217809547899907
1.8620428604535735
1.8410767619999766
1.9485162700513186
2.1993458920072344
2.0675708638475814
1.2988859814495324
0.9707777451181535
1.0782516501981525
1.2174700910822973
1.2774591559514141
1.0421032214391088
0.8139147969686399
0.6885173293065878
0.751061373692021
0.9597319374248615
1.2066698114533694
1.4064861430977387
1.5137521333911752
1.512794139255493
1.475068939589561
1.4189914185229726
1.3799374497213046
1.3675147401068712
1.4040466397873783
1.4751259541386004
1.5700396773797884
1.6745074689664203
1.7759966107828176
1.8668225612344334
1.9387679846150163
1.9811954072948736
2.012639067994145
2.03549617653089
2.0531085791732853
2.0654812987771995
2.0726180367804936
2.0726180367804936
2.06405383010202
2.036678584505114
1.9798732378750972
1.9112519922273683
1.88318248654056
1.9290052967944673
2.0133282037721947
2.060541359054066
1.3966108497478142
1.0687305182101146
1.2402685950303518
1.2957757152376874
1.1951558683453438
0.9829105139600083
0.7412277958721798
0.6297279367931555
0.7412724172800541
1.0141404753118881
1.322197727348017
1.5694471314323835
1.6315347960833124
1.6262702986292632
1.5975508850237745
1.5755283003662743
1.5716979139017269
1.5880554034742873
1.6475792357211598
1.7339080758568683
1.825928183524724
1.908241012191744
1.9773829062974755
2.0321634442398073
2.0740452625415626
2.103531946864254
2.1220706278339794
2.135375798606926
2.1448770482915185
2.1505768026652956
2.1510517481573097
2.1448770482915185
2.129198889317291
2.100679187272517
2.059979590199781
1.9910646190983365
1.9492603393278043
1.9500432283015623
1.9621742798069817
2.039020389753105
1.533619392710519
1.4226266496986044
1.3925373489426398
1.3059493063748004
1.1423217683631557
0.8457416145444357
0.5871158594919254
0.5455816883521847
0.7748446749259001
1.1498850141435755
1.5280283620839394
1.7296005196850706
1.768800214056201
1.7578068445063846
1.7401191131942007
1.7339037194166877
1.7482463234496186
1.7907828945546134
1.8643348451113035
1.947827941750099
2.02359262023519
2.085937210617228
2.1358509098823286
2.1719440742829734
2.1951980310849497
2.2075065809976593
2.21343981167381
2.2190595129641415
2.2231946807766705
2.2261923687697363
2.222231198912574
2.2127480592232356
2.1970957143537033
2.1733681698332865
2.1382263895480804
2.104958261887229
2.08372369530193
2.0665982246555195
2.0269530968506557
1.990261151307538
1.7436043615431043
1.6331711085372171
1.5073088789905176
1.3755188413060462
0.8930263370423556
0.4408817365108899
0.2809977775367029
0.474648174226352
0.9502240293034542
1.4636248157600937
1.7926941703476413
1.8592845427501392
1.8678247854914656
1.8654446059153893
1.870645320792339
1.8918695512998316
1.9331141646064687
1.993340948004727
2.0640327238170686
2.1292389340794426
2.17975218113325
2.2151205115180423
2.2382589745415262
2.252173622129171
2.259795713253065
2.2641287430832837
2.26648971910257
2.2673360669970526
2.265772078251003
2.2613113552531985
2.2518613696195784
2.2376328231551876
2.2183754694581386
2.1967027090936706
2.1760644125401525
2.1612722512799682
2.1567504259102526
2.1611086608112693
2.1603551179737632
2.1677782360718516
-2.4805677649219806
-2.2301535751168373
-1.7761060351471987
-0.9637856949040375
-0.07326761037754016
0.798918442648065
1.577443452906334
1.8318816810380045
1.9382997804626918
1.9764726352489224
1.9925478608005385
2.0063319777564788
2.026315999772625
2.056329910540185
2.0976313626444427
2.147882828784589
2.20036768276921
2.247163775533346
2.28301317543714
2.3066725692548524
2.3206482397854717
2.327183889899216
2.3298217636936527
2.3294609821466437
2.3274084533612966
2.3234781584372897
2.316996180168527
2.307773558625099
2.295133025655359
2.2804253480698122
2.265037312705604
2.2508294565727733
2.241105957579331
2.2384355089417176
2.248188250742274
2.279420973940859
2.355934145290925
2.4398370451466613
-2.152069676540198
-0.7566828407590666
0.4284185256178441
1.0291991472886828
1.4137327473545889
1.7214845603200053
1.9386996531315135
2.045925892609858
2.099308592364754
2.1285622066649883
2.1507830762111406
2.172625802798214
2.1981928578806267
2.228411145475345
2.263080533349319
2.299888220401284
2.3345245318393
2.363406913721013
2.3836583474049204
2.39653583849673
2.40276137445572
2.4039927235625362
2.4023067969169816
2.398699061898237
2.3926417797309885
2.384679881092651
2.374439916142026
2.3631556179262505
2.350636110139099
2.338290335219633
2.327673333084283
2.3209993254216084
2.32084182468229
2.328861532153061
2.343630183775352
2.3806755200843397
2.3813269980507488
2.450209742387816
-0.4825208418899286
-0.5010047275226083
-0.4090973672797493
0.7976916136313521
1.5672979546442367
1.9235117824518284
2.0790119368281292
2.1698391281916245
2.231369402498374
2.272789546119843
2.302570930908568
2.326441206459016
2.347147356974539
2.366506551682284
2.385742864019899
2.4049241355602184
2.4234997712052877
2.441382733855652
2.4558306193218145
2.465734304951055
2.4716335856812397
2.473067793970869
2.4716983281000116
2.4670631854394944
2.4607822814336755
2.453414425702056
2.4439601261036525
2.433587007708599
2.4219343180070325
2.4092121736082093
2.396173121691103
2.3835546962508136
2.3709807383129804
2.359375483649976
2.348958154547757
2.340369336286297
2.3432303490586337
2.369932817313919
2.409552995694329
2.5003672622623
)
;

boundaryField
{
    ".*"
    {
        type            zeroGradient;
    }
}


// ************************************************************************* //
