/*--------------------------------*- C++ -*----------------------------------*\
  =========                 |
  \\      /  F ield         | OpenFOAM: The Open Source CFD Toolbox
   \\    /   O peration     | Website:  https://openfoam.org
    \\  /    A nd           | Version:  6
     \\/     M anipulation  |
\*---------------------------------------------------------------------------*/
FoamFile
{
    version     2.0;
    format      ascii;
    class       volScalarField;
    location    "31699.9999978595552";
    object      epsilon;
}
// * * * * * * * * * * * * * * * * * * * * * * * * * * * * * * * * * * * * * //

dimensions      [0 2 -3 0 0 0 0];

internalField   nonuniform List<scalar> 
778
(
0.000253144
0.000306394
0.000303049
0.000344231
0.000385097
0.000424897
0.000464324
0.000504568
0.000547363
0.000595429
0.00064381
0.000692135
0.000742059
0.000798384
0.000860139
8.94008e-05
0.000262767
0.000269134
0.000250023
0.000220139
0.000184079
0.000152316
0.000126516
0.000105917
8.94621e-05
7.6313e-05
6.56579e-05
5.68578e-05
4.93877e-05
4.27758e-05
3.65232e-05
3.18199e-05
2.36018e-05
0.000797067
0.00144336
0.000287019
0.000259604
0.000261694
0.000267656
0.000276539
0.000289953
0.000310186
0.000340361
0.000379541
0.000430628
0.000498997
0.000600209
0.00078539
0.00112907
0.000978498
0.000858301
0.000512539
0.000369847
0.000294481
0.000243053
0.000204141
0.00018692
0.000154661
0.000124959
0.000100664
8.14676e-05
6.65136e-05
5.48158e-05
4.56288e-05
3.87075e-05
3.45202e-05
3.2767e-05
6.58279e-05
4.81152e-05
0.0016308
0.00407971
0.000407463
0.000242936
0.000229102
0.000231007
0.000238215
0.000250473
0.000268362
0.000292612
0.000324717
0.000366771
0.000421166
0.000494915
0.000601379
0.000724692
0.000829688
0.00158438
0.001028
0.000512645
0.000367989
0.000294495
0.000262248
0.000551962
0.000362878
0.000250837
0.000181342
0.000136264
0.000105885
8.47536e-05
6.98055e-05
5.94554e-05
4.51361e-05
3.79896e-05
0.000108267
7.08785e-05
0.00285389
0.00877204
0.000710086
0.000240741
0.000202477
0.000200004
0.000203168
0.000209785
0.00022059
0.000237492
0.000263168
0.000299909
0.00034914
0.000412322
0.000488076
0.000560312
0.000612324
0.000824032
0.00156425
0.000729169
0.000459923
0.000358363
0.00030194
0.000291817
0.000814409
0.000612942
0.000482087
0.000388567
0.00031912
0.000264287
0.000218721
0.000178986
0.000141829
8.38404e-05
5.49244e-05
0.00014883
9.46834e-05
0.00454667
0.0158304
0.00134687
0.000258384
0.000175735
0.000166782
0.000165783
0.000167752
0.000173907
0.000187403
0.000211637
0.000248316
0.00029775
0.000359339
0.000427854
0.000489265
0.000528539
0.000582304
0.000627084
0.000483016
0.000393386
0.000330973
0.000282268
0.000248617
0.000247838
0.000226775
0.000202914
0.000180996
0.000162598
0.000146437
0.000131785
0.00011822
0.000105093
8.45292e-05
6.42453e-05
0.000105361
0.000138983
0.000160585
0.000369937
0.000328015
0.0067647
0.0248827
0.0025546
0.000318169
0.000155548
0.000137061
0.000132115
0.000130678
0.000134444
0.000148533
0.00017668
0.000218056
0.00027081
0.00033419
0.000401838
0.00046276
0.000503021
0.000521597
0.000504598
0.000438104
0.000373723
0.000315594
0.000264718
0.000223383
0.000193297
0.000169635
0.000150807
0.000135601
0.000123254
0.0001127
0.00010325
9.45074e-05
8.60889e-05
7.59303e-05
6.5376e-05
7.76712e-05
9.99088e-05
0.000210553
0.0010715
0.000561767
0.0096738
0.0336411
0.00458587
0.000465226
0.000150873
0.000116346
0.000107083
0.000103272
0.000107065
0.000127899
0.000166107
0.000215889
0.000273373
0.000340256
0.000409588
0.000470719
0.000510359
0.000520507
0.000494278
0.000437578
0.000371818
0.000307479
0.000250555
0.000204443
0.000169749
0.000144555
0.000126318
0.000112722
0.000102256
9.36788e-05
8.6189e-05
7.93272e-05
7.28035e-05
6.61465e-05
6.03122e-05
6.38047e-05
7.69543e-05
0.000175321
0.00161446
0.000918309
0.0127611
0.0404085
0.00749298
0.000871971
0.000194404
0.000115411
9.73922e-05
9.1451e-05
9.86474e-05
0.000137672
0.000189242
0.000246271
0.000307202
0.000374191
0.000445332
0.000508651
0.000547856
0.000551212
0.000515836
0.000451645
0.000375606
0.000301049
0.000236543
0.000185994
0.000149323
0.000123981
0.000106704
9.45641e-05
8.57229e-05
7.8781e-05
7.28701e-05
6.75143e-05
6.24714e-05
5.76581e-05
5.38919e-05
5.58417e-05
7.11161e-05
0.00035487
0.00536044
0.00204385
0.0138287
0.0414554
0.0139366
0.00316675
0.000631078
0.000208298
0.000132767
0.000116018
0.000142464
0.000192859
0.000249209
0.00030645
0.000367655
0.000437324
0.000512061
0.00057674
0.000611677
0.000603622
0.000552427
0.000471191
0.000378729
0.000291134
0.000218414
0.00016411
0.000126821
0.000102631
8.72994e-05
7.73573e-05
7.06661e-05
6.56532e-05
6.1438e-05
5.75907e-05
5.39398e-05
5.05403e-05
4.82144e-05
5.25819e-05
0.000104637
0.00107413
0.0134373
0.00310047
0.0130044
0.0283636
0.0144167
0.00572966
0.00210649
0.000835788
0.000414262
0.000277125
0.000279142
0.000314577
0.000356042
0.000401865
0.000459201
0.000532092
0.000611539
0.000675422
0.000699656
0.000671132
0.00059414
0.000487065
0.0003731
0.000271125
0.000191465
0.000135954
0.000100791
7.99528e-05
6.80231e-05
6.12363e-05
5.71363e-05
5.41655e-05
5.15834e-05
4.90891e-05
4.66188e-05
4.4367e-05
4.36296e-05
5.62462e-05
0.000277747
0.0037288
0.0101034
0.00319349
0.0106876
0.0193503
0.0120377
0.00630178
0.00317612
0.00167593
0.000987523
0.000679498
0.000560286
0.000517422
0.0005105
0.000531895
0.000584879
0.000664728
0.000749707
0.000806827
0.0008082
0.000744421
0.000628331
0.000486612
0.000348312
0.000234261
0.00015298
0.000102084
7.37473e-05
5.89441e-05
5.14878e-05
4.80303e-05
4.62117e-05
4.48709e-05
4.35389e-05
4.20669e-05
4.05236e-05
3.93312e-05
4.06669e-05
6.58198e-05
0.000543417
0.00351705
0.007863
0.00308672
0.00806901
0.0137649
0.00969013
0.00593332
0.00357013
0.00222793
0.00149117
0.00109341
0.000869525
0.000743705
0.00068623
0.000691171
0.000752725
0.000847787
0.00093508
0.000970028
0.00092629
0.000805404
0.00063516
0.000453041
0.000294117
0.000178245
0.000107401
6.97319e-05
5.26795e-05
4.45366e-05
4.07079e-05
3.92729e-05
3.86684e-05
3.8207e-05
3.76256e-05
3.69005e-05
3.63087e-05
3.66798e-05
4.11192e-05
7.12771e-05
0.00042206
0.00267394
0.00721267
0.00308861
0.00612143
0.0101662
0.00778966
0.00531204
0.00357011
0.00246925
0.0017882
0.00136845
0.00109314
0.000926345
0.00086011
0.000888827
0.000986382
0.00110144
0.00117209
0.00115033
0.0010255
0.000820903
0.000586797
0.000369968
0.000209328
0.000115089
7.22296e-05
5.22805e-05
4.29034e-05
3.82491e-05
3.59684e-05
3.50827e-05
3.47476e-05
3.45305e-05
3.43482e-05
3.44415e-05
3.55583e-05
3.94831e-05
5.14167e-05
9.53978e-05
0.000381185
0.00216206
0.00548539
0.00374664
0.00618619
0.00781011
0.00680354
0.00473888
0.00336524
0.00246225
0.00186584
0.00146237
0.00119469
0.00106518
0.00107228
0.00118418
0.0013344
0.00144127
0.00143821
0.00129703
0.00104716
0.000740854
0.000457776
0.000239063
0.000131098
8.12653e-05
5.926e-05
4.86448e-05
4.29019e-05
3.94834e-05
3.73744e-05
3.61249e-05
3.5503e-05
3.52086e-05
3.54486e-05
3.72288e-05
4.31785e-05
5.95327e-05
0.000100477
0.000199627
0.000502471
0.00209795
0.00447038
0.00394084
0.00454808
0.0051154
0.00418569
0.00336188
0.00263953
0.00206975
0.00164856
0.00136139
0.0012448
0.00130186
0.00148203
0.00169252
0.00182884
0.00181563
0.00163017
0.00129361
0.000903577
0.000518993
0.000277855
0.000153498
9.96779e-05
7.64928e-05
6.52115e-05
5.85636e-05
5.40705e-05
5.07942e-05
4.82738e-05
4.62662e-05
4.49631e-05
4.46421e-05
4.58902e-05
5.14537e-05
6.85904e-05
0.000113909
0.000219737
0.000444838
0.000936718
0.00221857
0.00486388
0.00350679
0.0013997
0.00142955
0.00143084
0.00135099
0.00130828
0.00142082
0.00170717
0.00204587
0.00231166
0.00240938
0.0022887
0.00196789
0.00151565
0.000971474
0.000561353
0.000307627
0.000182825
0.000130003
0.000108227
9.75834e-05
9.1074e-05
8.65379e-05
8.33088e-05
8.10274e-05
7.92925e-05
7.76501e-05
7.5871e-05
7.58387e-05
7.85909e-05
8.81945e-05
0.000115709
0.000186361
0.000350776
0.000701577
0.00140582
0.00266707
0.0044332
0.00305919
0.00118825
0.00171121
0.00194697
0.00230185
0.00274949
0.00315574
0.00333947
0.00330883
0.00308565
0.00269048
0.00211728
0.00149317
0.00095788
0.000559082
0.000329687
0.000222577
0.000180088
0.000163322
0.000155344
0.000150583
0.00014769
0.000146548
0.000147257
0.000149713
0.000153379
0.000157203
0.00015976
0.000159953
0.000163034
0.000173794
0.000202563
0.000273204
0.000433781
0.00077552
0.00146782
0.00281251
0.00527664
0.00300763
0.00742312
0.00812654
0.0048192
0.00339687
0.00372372
0.00413217
0.0041433
0.00393327
0.00358052
0.00312889
0.00262064
0.00207189
0.0015164
0.00102532
0.000663283
0.000448557
0.00034957
0.000311638
0.000297608
0.000290795
0.000285643
0.00028099
0.000277359
0.000275852
0.000277638
0.000283659
0.000294389
0.000309478
0.000327286
0.000344656
0.000358258
0.000379623
0.00042315
0.000503488
0.000658703
0.000967128
0.00160113
0.0030352
0.00495639
0.00419335
0.00650361
0.00514422
0.00435775
0.004612
0.0045287
0.00426043
0.00368031
0.00303504
0.00245117
0.00196039
0.00155829
0.00123008
0.000964776
0.000763509
0.000627419
0.000551144
0.00051589
0.000502987
0.000500626
0.000502537
0.00050575
0.000509449
0.000514372
0.000522398
0.000536209
0.000559008
0.000594213
0.000645014
0.000713535
0.000799466
0.000898204
0.000998329
0.00110439
0.00124414
0.00146208
0.00183229
0.00248974
0.00397131
0.00511379
0.00485312
0.00535523
0.00337284
0.00332428
0.00362659
0.00389224
0.00356437
0.00297069
0.0023594
0.00182897
0.0013953
0.00104955
0.000784787
0.000599261
0.000487469
0.000434776
0.000417407
0.000418827
0.000428794
0.000442117
0.000456447
0.000471076
0.000486499
0.000504275
0.00052699
0.000558287
0.000602841
0.000666
0.000752776
0.000866309
0.00100675
0.0011719
0.00136023
0.00157596
0.00182149
0.00210441
0.00244184
0.00284681
0.00334693
0.00397109
0.00366772
)
;

boundaryField
{
    floor
    {
        Cmu             0.09;
        kappa           0.41;
        E               9.8;
        type            epsilonWallFunction;
        value           nonuniform List<scalar> 
36
(
0.000860139
8.94008e-05
0.000262767
0.000269134
0.000250023
0.000220139
0.000184079
0.000152316
0.000126516
0.000105917
8.94621e-05
7.6313e-05
6.56579e-05
5.68578e-05
4.93877e-05
4.27758e-05
3.65232e-05
3.18199e-05
2.36018e-05
2.36018e-05
4.81152e-05
7.08785e-05
9.46834e-05
0.000160585
0.000369937
0.000328015
0.000860139
0.00112907
0.000978498
0.000858301
8.94008e-05
0.000858301
0.000512539
0.00158438
0.001028
0.00156425
)
;
    }
    ceiling
    {
        Cmu             0.09;
        kappa           0.41;
        E               9.8;
        type            epsilonWallFunction;
        value           nonuniform List<scalar> 
43
(
0.00535523
0.00337284
0.00332428
0.00362659
0.00389224
0.00356437
0.00297069
0.0023594
0.00182897
0.0013953
0.00104955
0.000784787
0.000599261
0.000487469
0.000434776
0.000417407
0.000418827
0.000428794
0.000442117
0.000456447
0.000471076
0.000486499
0.000504275
0.00052699
0.000558287
0.000602841
0.000666
0.000752776
0.000866309
0.00100675
0.0011719
0.00136023
0.00157596
0.00182149
0.00210441
0.00244184
0.00284681
0.00334693
0.00397109
0.00366772
0.00454808
0.0051154
0.00118825
)
;
    }
    sWall
    {
        Cmu             0.09;
        kappa           0.41;
        E               9.8;
        type            epsilonWallFunction;
        value           nonuniform List<scalar> 9(0.0130044 0.0106876 0.00806901 0.00612143 0.00618619 0.00454808 0.00742312 0.00650361 0.00535523);
    }
    nWall
    {
        Cmu             0.09;
        kappa           0.41;
        E               9.8;
        type            epsilonWallFunction;
        value           nonuniform List<scalar> 
14
(
0.000328015
0.000561767
0.000918309
0.00319349
0.00308672
0.00308861
0.00374664
0.00394084
0.00350679
0.00305919
0.00300763
0.00419335
0.00485312
0.00366772
)
;
    }
    sideWalls
    {
        type            empty;
    }
    glass1
    {
        Cmu             0.09;
        kappa           0.41;
        E               9.8;
        type            epsilonWallFunction;
        value           nonuniform List<scalar> 9(0.000253144 0.000797067 0.0016308 0.00285389 0.00454667 0.0067647 0.0096738 0.0127611 0.0138287);
    }
    glass2
    {
        Cmu             0.09;
        kappa           0.41;
        E               9.8;
        type            epsilonWallFunction;
        value           nonuniform List<scalar> 2(0.00204385 0.00310047);
    }
    sun
    {
        Cmu             0.09;
        kappa           0.41;
        E               9.8;
        type            epsilonWallFunction;
        value           nonuniform List<scalar> 
14
(
0.000253144
0.000306394
0.000303049
0.000344231
0.000385097
0.000424897
0.000464324
0.000504568
0.000547363
0.000595429
0.00064381
0.000692135
0.000742059
0.000798384
)
;
    }
    Table_master
    {
        Cmu             0.09;
        kappa           0.41;
        E               9.8;
        type            epsilonWallFunction;
        value           nonuniform List<scalar> 9(0.000551962 0.000362878 0.000250837 0.000181342 0.000136264 0.000105885 8.47536e-05 6.98055e-05 5.94554e-05);
    }
    Table_slave
    {
        Cmu             0.09;
        kappa           0.41;
        E               9.8;
        type            epsilonWallFunction;
        value           nonuniform List<scalar> 9(0.000814409 0.000612942 0.000482087 0.000388567 0.00031912 0.000264287 0.000218721 0.000178986 0.000141829);
    }
    inlet
    {
        type            turbulentMixingLengthDissipationRateInlet;
        mixingLength    0.01;
        phi             phi;
        k               k;
        value           uniform 0.000471671;
    }
    outlet
    {
        type            zeroGradient;
    }
}


// ************************************************************************* //
