/*--------------------------------*- C++ -*----------------------------------*\
  =========                 |
  \\      /  F ield         | OpenFOAM: The Open Source CFD Toolbox
   \\    /   O peration     | Website:  https://openfoam.org
    \\  /    A nd           | Version:  6
     \\/     M anipulation  |
\*---------------------------------------------------------------------------*/
FoamFile
{
    version     2.0;
    format      ascii;
    class       volScalarField;
    location    "40";
    object      nut;
}
// * * * * * * * * * * * * * * * * * * * * * * * * * * * * * * * * * * * * * //

dimensions      [0 2 -1 0 0 0 0];

internalField   nonuniform List<scalar> 
458
(
0.00149932
0.00168076
0.0017827
0.00189576
0.00201269
0.00213309
0.00223617
0.00230769
0.00230226
0.00220145
0.00208195
0.00194447
0.00179734
0.00165476
0.00149565
0.000440905
0.000569148
0.000651152
0.00064666
0.000595164
0.000505762
0.00042438
0.000371493
0.000344756
0.000333948
0.000330896
0.000332502
0.00034091
0.00036445
0.000412931
0.000447757
0.000443245
0.000410014
0.00179212
0.00456859
0.00484877
0.00574303
0.00654404
0.00713509
0.00767761
0.00822947
0.00874263
0.00875357
0.00839962
0.00781185
0.00680317
0.00528797
0.00348644
0.00167268
0.00150678
0.00128605
0.000634293
0.00206586
0.00255473
0.00289503
0.00270574
0.00173001
0.00126295
0.00101654
0.000897993
0.000846839
0.000831183
0.00083984
0.000879077
0.000991796
0.00136813
0.00169058
0.00167104
0.000537496
0.00202852
0.00632631
0.00611562
0.00679169
0.00717593
0.00741532
0.00767607
0.00826708
0.00916104
0.0096504
0.00972418
0.00949375
0.00896692
0.00780338
0.00608635
0.0041581
0.00314903
0.00141713
0.000715706
0.00174219
0.00233661
0.00308047
0.00313994
0.000755683
0.000537849
0.000411297
0.000356243
0.000337757
0.000333434
0.000336808
0.000357613
0.000447834
0.00151054
0.00237497
0.00237986
0.000665689
0.00225667
0.00774097
0.00661955
0.00708454
0.0070702
0.00692513
0.00693672
0.00761142
0.00862659
0.00938769
0.00970295
0.00969258
0.00946491
0.00883126
0.00763902
0.00600952
0.00453682
0.00252019
0.00143217
0.00137147
0.00149652
0.00188942
0.00258713
0.00304295
0.000991612
0.000852232
0.000763605
0.000732497
0.000729448
0.000737692
0.000755704
0.000773717
0.000796614
0.00227501
0.00329311
0.00318273
0.00080603
0.00249687
0.00939426
0.00735617
0.00759333
0.00726231
0.00667478
0.00656619
0.00729711
0.00840722
0.00927882
0.00965495
0.00968188
0.00955027
0.00921023
0.00844766
0.00722073
0.00580952
0.00411297
0.00311724
0.00284229
0.00278437
0.00294483
0.00349652
0.00416434
0.00378953
0.00376751
0.0039828
0.00426734
0.00452169
0.00471527
0.00481419
0.00485778
0.00489679
0.00521455
0.00524709
0.00468379
0.00257001
0.000932647
0.000851785
0.000738621
0.00276475
0.0112284
0.00918505
0.00853297
0.00751682
0.00657539
0.00646776
0.00731299
0.00854763
0.00948042
0.00983163
0.00982918
0.00974781
0.00956093
0.00902973
0.00809077
0.00690371
0.00554606
0.00463635
0.00426721
0.00418452
0.00439408
0.00495516
0.00571759
0.00602459
0.00627955
0.00656817
0.00680678
0.00697568
0.0070752
0.00708163
0.00702141
0.00690241
0.00673024
0.00635148
0.005713
0.00462743
0.00334293
0.00285753
0.000921164
0.00297389
0.0123032
0.0112316
0.00934399
0.00748778
0.00635798
0.0064538
0.00756553
0.00896882
0.00991588
0.0101883
0.0102156
0.0103509
0.0101186
0.00954815
0.00869449
0.00765721
0.00652788
0.00572444
0.00534195
0.00532691
0.00571794
0.0064602
0.00728297
0.00773381
0.0079611
0.0080596
0.0080777
0.00805845
0.00800494
0.00787937
0.00768662
0.00738244
0.00688011
0.00613238
0.00527333
0.00453825
0.00394283
0.00337056
0.000998647
0.00302302
0.00992841
0.00936536
0.00774338
0.00621491
0.00574014
0.00651005
0.00808572
0.00962594
0.0104381
0.0105813
0.0107673
0.0107679
0.0103458
0.00971628
0.00895334
0.00808146
0.00717209
0.00650332
0.00632061
0.00659672
0.00716829
0.00784874
0.00839467
0.00859393
0.00853865
0.00836171
0.00816704
0.00799781
0.00784345
0.00766267
0.00741468
0.00699398
0.00622171
0.00504686
0.0036958
0.00266199
0.00214587
0.00190599
0.000993149
0.00295264
0.00348971
0.0037404
0.00371727
0.00395483
0.00509624
0.00703299
0.00907828
0.0103857
0.0107072
0.0107281
0.0108715
0.0106257
0.0100995
0.00951849
0.00891889
0.00830468
0.00774584
0.00741974
0.00746419
0.00777424
0.00815803
0.00844195
0.0084979
0.00830267
0.00797256
0.00763837
0.00737048
0.00717208
0.00701534
0.00686803
0.0066678
0.00626255
0.0054272
0.00412259
0.00280551
0.00198181
0.00160872
0.00142108
0.00123362
0.000855909
0.00190196
0.00438176
0.00725687
0.00948056
0.010604
0.0106022
0.0102064
0.0102116
0.0100296
0.00965365
0.00927524
0.00894227
0.00863205
0.00833893
0.00809812
0.00797078
0.007979
0.00803838
0.00804177
0.00791969
0.00766252
0.00732802
0.00701021
0.00677137
0.00661553
0.00651086
0.00641884
0.00630711
0.00615085
0.00592165
0.00555975
0.00498152
0.00422417
0.00352686
0.00305372
0.00271144
0.00136249
0.0022148
0.00874574
0.0109881
0.0111709
0.0105801
0.00961507
0.00881573
0.00827728
0.00781842
0.00742595
0.00714637
0.00695921
0.00682742
0.00672564
0.00664386
0.0065828
0.00654342
0.00651821
0.00648641
0.00643124
0.0063557
0.00628622
0.00625911
0.00629389
0.00637844
0.0064816
0.00657107
0.00661864
0.00659793
0.00648554
0.00626894
0.00595367
0.00555143
0.00505115
0.00462518
0.00441348
0.00393798
0.00159038
0.00242812
0.00254706
0.00265349
0.00303841
0.0026347
0.00225635
0.00200816
0.00179843
0.0016288
0.00151818
0.00145703
0.00142696
0.00141447
0.00141133
0.00141281
0.00141624
0.00142029
0.00142466
0.00142982
0.00143679
0.00144588
0.00145671
0.00146878
0.00148165
0.00149478
0.00150738
0.00151848
0.00152728
0.00153315
0.00153548
0.00153337
0.00152576
0.0015113
0.00148724
0.00144718
0.00138904
0.00132916
0.00125988
0.00123622
0.00125523
)
;

boundaryField
{
    floor
    {
        type            nutkWallFunction;
        Cmu             0.09;
        kappa           0.41;
        E               9.8;
        value           nonuniform List<scalar> 
36
(
0.000177684
5.20659e-05
6.8442e-05
7.86686e-05
7.81362e-05
7.17309e-05
6.04078e-05
4.98959e-05
4.29437e-05
3.93886e-05
3.79443e-05
3.75371e-05
3.7756e-05
3.88908e-05
4.2047e-05
4.84633e-05
5.29997e-05
5.24022e-05
4.80563e-05
4.80563e-05
6.4484e-05
8.05392e-05
9.76926e-05
0.000112843
0.000103176
8.94725e-05
0.000177684
0.000197484
0.000178948
0.00015393
5.20658e-05
0.00015393
7.66223e-05
0.000168842
8.66935e-05
0.000170534
)
;
    }
    ceiling
    {
        type            nutkWallFunction;
        Cmu             0.09;
        kappa           0.41;
        E               9.8;
        value           nonuniform List<scalar> 
43
(
0.000279449
0.000292104
0.000303378
0.000343975
0.00030166
0.000261321
0.000234459
0.000211473
0.000192665
0.000180283
0.000173396
0.000169997
0.000168583
0.000168228
0.000168397
0.000168787
0.000169248
0.000169746
0.000170333
0.000171125
0.000172156
0.00017338
0.000174741
0.00017619
0.000177666
0.00017908
0.000180323
0.000181307
0.000181963
0.000182221
0.000181984
0.000181131
0.000179508
0.000176802
0.000172285
0.000165703
0.000158886
0.000150954
0.000148234
0.000150411
0.00033516
0.000390865
0.000256311
)
;
    }
    sWall
    {
        type            nutkWallFunction;
        Cmu             0.09;
        kappa           0.41;
        E               9.8;
        value           uniform 0.000279518;
    }
    nWall
    {
        type            nutkWallFunction;
        Cmu             0.09;
        kappa           0.41;
        E               9.8;
        value           nonuniform List<scalar> 6(8.94718e-05 0.000111449 0.00012061 0.000162685 0.000188384 0.00015042);
    }
    sideWalls
    {
        type            empty;
    }
    glass1
    {
        type            nutkWallFunction;
        Cmu             0.09;
        kappa           0.41;
        E               9.8;
        value           nonuniform List<scalar> 9(0.000178289 0.000210949 0.00023689 0.000261619 0.000287372 0.000315787 0.000337773 0.000342925 0.000335576);
    }
    glass2
    {
        type            nutkWallFunction;
        Cmu             0.09;
        kappa           0.41;
        E               9.8;
        value           nonuniform List<scalar> 2(0.000119967 0.000147958);
    }
    sun
    {
        type            nutkWallFunction;
        Cmu             0.09;
        kappa           0.41;
        E               9.8;
        value           nonuniform List<scalar> 
14
(
0.00017807
0.000198335
0.000209617
0.000222049
0.000234823
0.000247894
0.000259022
0.000266711
0.000266135
0.000255297
0.000242375
0.000227408
0.000211261
0.000195476
)
;
    }
    Table_master
    {
        type            nutkWallFunction;
        Cmu             0.09;
        kappa           0.41;
        E               9.8;
        value           nonuniform List<scalar> 9(9.14976e-05 6.44437e-05 4.81605e-05 4.09083e-05 3.84484e-05 3.78733e-05 3.83311e-05 4.11274e-05 5.30287e-05);
    }
    Table_slave
    {
        type            nutkWallFunction;
        Cmu             0.09;
        kappa           0.41;
        E               9.8;
        value           nonuniform List<scalar> 9(0.00011976 0.000103163 9.25001e-05 8.87435e-05 8.83798e-05 8.93894e-05 9.1587e-05 9.37753e-05 9.65599e-05);
    }
    inlet
    {
        type            calculated;
        value           uniform 0.000167705;
    }
    outlet
    {
        type            calculated;
        value           nonuniform List<scalar> 2(0.00242812 0.00254706);
    }
}


// ************************************************************************* //
