/*--------------------------------*- C++ -*----------------------------------*=========                 |
  \      /  F ield         | OpenFOAM: The Open Source CFD Toolbox
   \    /   O peration     | Website:  https://openfoam.org
    \  /    A nd           | Version:  6
     \/     M anipulation  |
\*---------------------------------------------------------------------------*/
FoamFile
{
    version     2.0;
    format      ascii;
    class       volScalarField;
    location    "40";
    object      PPD;
}
// * * * * * * * * * * * * * * * * * * * * * * * * * * * * * * * * * * * * * //

dimensions      [0 0 0 0 0 0 0];

internalField   nonuniform List<scalar> 
458
(
54.96991373301114
42.29222121474613
39.018335199049716
36.98693021772209
35.97596807948581
35.936958299235584
37.0142261645584
39.612391838261175
44.43307072793247
45.08888183519961
44.608332025608156
44.852454450514415
45.93721948375617
48.35656231967305
50.14019681909288
98.23603225138271
98.248101154524
98.22343963179469
98.29313677590012
98.33451281794696
98.34340631238487
98.34027160929595
98.33692887103537
98.33792367076528
98.33544463562012
98.33606978255575
98.33688973238883
98.33890540037576
98.345023711133
98.35055141173744
98.34721993302301
98.33047693336417
98.26869597821765
53.04553618342139
44.10345332965613
41.81875709471395
39.64822606236812
38.237861847342984
37.238494223925215
36.02635400816017
35.59484528789402
39.05469286630367
43.32209349713677
45.803681689117454
47.27485649599342
48.17813453353445
48.82703296378594
48.67308562739775
49.72205137460149
53.79997029499685
59.77873195527115
98.06511504843637
97.47315406921466
97.53670145574291
97.96484954998256
98.2168041928064
98.33669719039254
98.36850016281754
98.37748201883254
98.37752519811312
98.38077224544284
98.38073428348515
98.37747545332648
98.37753711541737
98.375236739572
98.3737851876801
98.37699890683366
98.37042099565464
98.28239326351037
54.22062201564791
45.39845506929294
45.46329834176534
44.43565581694356
42.993429138041755
39.92590991686682
34.3262970860833
31.063791674248662
34.63588731555191
41.08558350813764
46.86581461326504
50.479024347454164
52.02353549537247
52.30751335338528
51.92203348700428
52.823230995872024
54.97368967943445
57.3426477436782
96.89624075472102
92.82321713242925
94.5655388998753
96.70140700364001
97.74334161923333
98.24190066966254
98.3682760289493
98.38896631120171
98.39435252953767
98.39358646573355
98.39297019686286
98.39228286876343
98.39085935682398
98.37732684435717
98.36674635945548
98.37418521306415
98.38321113292736
98.28861626937898
57.69169092452092
47.0817723951673
49.30740796777516
51.042081449489174
50.591099546146886
43.128346152417684
32.4004081119034
27.670257981047598
31.506598114581564
40.00765228080054
48.80995629704544
54.927983106781255
57.63049919524071
57.85648883735762
56.87716135384115
56.313905118176415
56.06907421839831
56.04083373579056
57.880840401254844
69.69173066077376
76.7609100245833
85.12206852903182
92.40628576887606
96.04434156402036
97.4029529714435
98.08528214819894
98.32718850401258
98.3965975337724
98.40308555055944
98.40632117768112
98.4095512260937
98.41277570239643
98.41599461318417
98.40723391077368
98.3852197178741
98.37501622052378
98.28797345214768
62.28907121085241
49.56533182747104
53.05208189748955
58.27836515460299
59.61030164734485
44.30972075793362
30.090213412722434
25.192752641739716
29.572509902394472
40.482529255034194
52.49637777195966
61.10219814976455
65.01240675742392
65.09484642205335
63.17661047779816
61.321770430686094
59.98575678916711
59.49907273001363
61.64745981899793
66.49695177090375
72.37876459792764
80.80697336647864
89.6875141296198
95.08723332900551
97.2497881154994
98.04302132224494
98.30412517653517
98.38355426488008
98.39984433812562
98.40632117768112
98.4095512260937
98.41277570239643
98.4192079650476
98.42241576457353
98.40430789478134
98.3772835965115
98.32516075548124
98.32974852994565
98.33295486011971
98.3431599475871
67.2640676992016
53.01070514375501
57.55954597960964
64.56378408157586
59.31341035954882
42.24748786985497
27.349840656970102
22.75248525468244
28.668700480041323
42.94136179170751
58.54758757326367
69.16857060067926
74.08592553138928
73.52236553730123
70.39713113163049
67.65098653113573
65.76239309315093
65.10021586848728
67.09225076989664
71.52757168128804
78.35218600477705
86.54429773663472
92.95099660452529
96.2491571940086
97.61036260883044
98.12750780306514
98.31619991491982
98.38355426488008
98.3965975337724
98.40308555055944
98.4095512260937
98.41599461318417
98.42561801834434
98.4351915708869
98.44331314105958
98.42267732326678
98.38641224498848
98.37372762694412
98.35005024301957
98.36884642469
72.48665021498763
58.798694398511465
65.91467539339453
66.11472784454946
55.57868103720637
36.5881204029784
22.261711705786638
19.9656436004274
29.25450930136688
48.57026118730876
67.58444421862328
78.59929065378832
80.5131831906615
79.344310653228
76.85725579022608
74.06867780674358
72.37279439502221
72.1409906197941
74.88893352508487
80.2242038614659
86.83272340216253
92.37158902039279
95.60017446225659
97.1873848026507
97.90393875462736
98.20430133309208
98.32888339281814
98.38355426488008
98.3965975337724
98.40308555055944
98.4095512260937
98.4192079650476
98.43200591492906
98.45103718981744
98.46987094284054
98.48541586971763
98.48593445089287
98.4520706127861
98.40401932296834
98.35460058604595
78.60221531240367
73.5823950249546
72.35232796110782
66.11395047036171
47.690629413899735
25.147473826069103
14.956149413137737
17.51034534381128
33.28672046276317
59.71335354183334
79.17715531365732
84.61433581471385
84.28792888859573
82.66361924795511
80.88132359361096
79.55843949738329
79.11783297223502
80.16167174137834
83.8022650100623
88.75259271299176
92.86972654980848
95.43977994965003
96.90048881311394
97.68047851660346
98.06928367176245
98.25108900340307
98.33530363136502
98.38355426488008
98.39008712285876
98.39984433812562
98.40632117768112
98.42241576457353
98.44154633096043
98.46434523053313
98.47206131240478
98.47349853458994
98.4615869905546
98.4445073562326
98.4161474956632
98.38211231267128
86.28662381901476
82.65655624759565
77.48433814981173
59.58329930275875
22.924027831076586
8.38921243629892
7.77645731167992
18.365627915983637
47.209983769392814
78.07659724343245
86.10489369316358
87.43235991467208
86.9400518153075
85.95831205005315
85.14594813488894
84.89763653375815
85.58877195916145
87.45810310325828
90.40755147530463
93.32466385892
95.45773357994156
96.76619182850627
97.52423795378044
97.94399205032295
98.16528197978802
98.27495954751083
98.33280621388212
98.36814145726741
98.38355426488008
98.39334513088858
98.40308555055944
98.4192079650476
98.42711368433847
98.43978144092692
98.45088133729196
98.45854275643467
98.46537809731123
98.4677222033943
98.45604855846517
98.4355689616816
98.33425112687789
95.86133082215787
74.38440766053932
21.041550401121995
6.33591309374026
44.24097126999375
78.86174449503596
87.92333695878627
90.31137134788646
90.59603333441439
90.3582250802539
90.08486827502767
90.04238777360351
90.42314902857323
91.35136455161233
92.76204655360308
94.39633387611336
95.8132809443455
96.82296483767755
97.47110393803979
97.86346222575249
98.09290965002403
98.21864963666552
98.28881614337155
98.3284832997847
98.35415962463748
98.37353949030764
98.37699890683366
98.38682350306361
98.39876297098529
98.41470318599896
98.43405678354232
98.45349851431108
98.47314772403091
98.48791756393028
98.49727189827449
98.54106761479385
98.38888736096926
92.59633767496544
17.219919738879426
11.99280600253772
40.3105047356796
66.98596184326664
83.75487854757463
90.59008011499147
92.69550900620688
93.34241669156853
93.49778379997251
93.5505858167855
93.65727929780515
93.91130303052964
94.35704436908973
94.99343058954216
95.73506601383308
96.47459738307258
97.09365875758279
97.54967180438163
97.8597222144646
98.05410380191273
98.17395393479619
98.23536375761992
98.26648358827524
98.27597197989749
98.27395651988107
98.27394492479316
98.27423753825086
98.28344350141629
98.2995073894827
98.32764595775193
98.3690975747773
98.42191140118516
98.4602775677304
98.44748777113429
98.40609187178723
98.33415891676228
98.32857258446035
5.570488763187939
5.771166223875852
5.274789786231665
34.836564956610744
74.47688804781586
88.07014045515099
92.3119834638438
94.18980248068375
95.08016994880829
95.4946446185432
95.705515491024
95.84913554785483
95.9880004395875
96.14704762632671
96.33964625567505
96.5822373857853
96.85200604209572
97.14069431916042
97.40660678467499
97.62992040812847
97.79662103393392
97.90494086814738
97.9748373022298
98.00498937325614
98.01558882593704
98.01228261428297
98.00474969639316
98.00233288138514
97.99591334229487
97.9990868437545
98.00726339933057
98.02034435046573
98.04255919956822
98.07299749495022
98.11062977499675
98.14739877451896
98.15154496800106
98.12266456689093
98.09071168256466
98.0223926354746
)
;

boundaryField
{
    ".*"
    {
        type            zeroGradient;
    }
}


// ************************************************************************* //
