/*--------------------------------*- C++ -*----------------------------------*\
  =========                 |
  \\      /  F ield         | OpenFOAM: The Open Source CFD Toolbox
   \\    /   O peration     | Website:  https://openfoam.org
    \\  /    A nd           | Version:  6
     \\/     M anipulation  |
\*---------------------------------------------------------------------------*/
FoamFile
{
    version     2.0;
    format      ascii;
    class       volScalarField;
    location    "3800";
    object      alphat;
}
// * * * * * * * * * * * * * * * * * * * * * * * * * * * * * * * * * * * * * //

dimensions      [1 -1 -1 0 0 0 0];

internalField   nonuniform List<scalar> 
662
(
0.00116204
0.00125621
0.00127717
0.00133716
0.00139314
0.00144621
0.0014988
0.00155397
0.00160969
0.00166145
0.00170231
0.00171762
0.00168412
0.00157352
0.00127882
0.000577743
0.000679402
0.000768412
0.000795038
0.000778453
0.000726842
0.000670816
0.000620813
0.000577543
0.00054
0.000507268
0.000478687
0.000453399
0.000430452
0.000408797
0.000387268
0.000376135
0.000347071
0.00158859
0.00334647
0.00298824
0.00342042
0.00382893
0.00425465
0.00466829
0.00501772
0.00536136
0.00577614
0.0062445
0.00670034
0.00701575
0.00701099
0.00607702
0.00154121
0.00126805
0.00103255
0.000577919
0.00136791
0.0019908
0.00247093
0.00261172
0.00190545
0.00160718
0.00140441
0.00125447
0.0011394
0.00104786
0.000969099
0.000895839
0.000823411
0.000758665
0.000703419
0.000866707
0.000462344
0.0019723
0.00465681
0.00343183
0.00437658
0.00476308
0.00500565
0.00514361
0.00522944
0.00536988
0.00566281
0.0061442
0.00681061
0.00750926
0.00797109
0.00777089
0.00639113
0.00496826
0.00123205
0.000916317
0.00157012
0.00226704
0.0029537
0.00312802
0.000984557
0.000859523
0.000756631
0.000673826
0.000607254
0.000553417
0.000509663
0.000474202
0.000446461
0.000493304
0.000571359
0.00102035
0.000549503
0.00236394
0.0063962
0.00342962
0.00452005
0.00494349
0.00495029
0.00476403
0.00456605
0.00451826
0.00469111
0.0051557
0.00598194
0.00693449
0.00765129
0.00788076
0.00762126
0.00663683
0.00366127
0.00143726
0.00187113
0.00259007
0.00344207
0.00415863
0.00414376
0.00110743
0.00100974
0.000943254
0.000894418
0.000853577
0.000813347
0.000775222
0.000735086
0.000688428
0.00064978
0.000648247
0.00123092
0.000631969
0.00275391
0.0083485
0.00441255
0.00413046
0.00479033
0.00486532
0.00457142
0.00416133
0.00397625
0.00406342
0.00450105
0.00544129
0.00648435
0.00715568
0.00746182
0.00749164
0.00715311
0.0059574
0.00547325
0.00547905
0.00575899
0.00608216
0.00625754
0.00609679
0.00511496
0.00462285
0.0043504
0.00415526
0.00396249
0.0037241
0.00332587
0.00282044
0.00225202
0.00171113
0.00128612
0.00121007
0.00108231
0.000848536
0.00088753
0.00096287
0.003193
0.0100914
0.00657628
0.00433594
0.0041584
0.00435293
0.004403
0.0040848
0.00386086
0.00388974
0.00432167
0.00524836
0.0063366
0.00692974
0.00713769
0.0071619
0.007184
0.00714434
0.00739365
0.00769189
0.00786028
0.00782815
0.00760154
0.00720082
0.00664795
0.00619307
0.00583453
0.00552059
0.00521892
0.00491024
0.00454098
0.00404981
0.00344027
0.00275775
0.00213062
0.00153077
0.00128561
0.00114295
0.00142965
0.00100054
0.00149385
0.00472136
0.00614292
0.00533287
0.00448718
0.00414142
0.00410841
0.00408751
0.0039258
0.00383896
0.00414975
0.00506371
0.00656009
0.00700013
0.00710544
0.00715769
0.00752098
0.00811669
0.00863052
0.00886033
0.00877363
0.00842459
0.00789723
0.00727093
0.00663604
0.00610565
0.00568685
0.00533965
0.00503772
0.00477386
0.00454714
0.00430674
0.00390589
0.00335826
0.00279368
0.00224169
0.001888
0.00173244
0.0016234
0.00118634
0.00116872
0.00237872
0.00342856
0.00415863
0.00447794
0.00442385
0.00424418
0.00405368
0.00382902
0.00383272
0.00445659
0.00561327
0.00697785
0.00724509
0.00730587
0.00758429
0.00825935
0.00876535
0.00898931
0.00889565
0.00849524
0.0078615
0.00709908
0.00632454
0.00565741
0.00515956
0.00480034
0.00453203
0.00433215
0.00419776
0.00413435
0.00413794
0.00410863
0.00380314
0.00351129
0.00335729
0.00343026
0.00353616
0.0042853
0.00179298
0.00031971
0.0015334
0.00246165
0.00304872
0.00331325
0.00337944
0.00352054
0.00416554
0.00538289
0.00655983
0.00735761
0.00745732
0.00771902
0.0080267
0.00829545
0.00836353
0.00821142
0.00779869
0.00714778
0.00635549
0.00555742
0.00487742
0.00437375
0.00402392
0.00377289
0.00358041
0.00342576
0.00329705
0.00318453
0.00307871
0.00298675
0.00291138
0.0028604
0.00282984
0.0027644
0.00262833
0.00244851
0.00167777
0.000734414
0.000783119
0.00144875
0.00217961
0.00279823
0.00344946
0.00444876
0.00575324
0.00678566
0.00716678
0.00725362
0.00743354
0.00749018
0.00739948
0.00718529
0.00689662
0.00650227
0.00596936
0.00532904
0.00469003
0.00414901
0.00374386
0.00345796
0.003254
0.00310127
0.002983
0.00289238
0.00282849
0.00279452
0.00279525
0.00281851
0.002851
0.00288405
0.00289747
0.00286532
0.00278198
0.0024809
0.00139098
0.00125574
0.00333279
0.00171774
0.00152442
0.00231027
0.00331396
0.00438035
0.00553007
0.00648526
0.00689479
0.00673129
0.00610493
0.00558218
0.00570278
0.00556307
0.00534114
0.00511114
0.00485179
0.00453138
0.00416166
0.0037829
0.00344348
0.00317011
0.00296306
0.00281174
0.00270606
0.00263996
0.00260944
0.00260959
0.00263216
0.00268027
0.00275673
0.00285354
0.00296031
0.00306088
0.00313667
0.00319665
0.00330513
0.00223255
0.00144289
0.000967092
0.00231618
0.00315991
0.00381277
0.00433572
0.00476668
0.00504296
0.00509217
0.00485755
0.00433647
0.00341103
0.00203388
0.00101848
0.000994748
0.000971871
0.000949298
0.00092717
0.000903733
0.000879531
0.000857272
0.000840568
0.000830709
0.000827923
0.000831924
0.000842232
0.000858522
0.000880704
0.00090896
0.000943874
0.000986742
0.00103771
0.00109629
0.00116263
0.00123655
0.00131719
0.00140401
0.00145252
0.00132136
0.00123406
0.00139324
0.00250566
0.00642932
0.00603664
0.0048885
0.00426605
0.00410666
0.00412751
0.00401197
0.00386082
0.00392379
0.00454393
0.00564441
0.00184867
0.00299619
0.00382692
0.00437927
0.00448122
0.00433693
0.00415441
0.00393606
0.00377525
0.00405392
0.0050034
0.00618635
0.000999581
0.00203561
0.00279981
0.00321527
0.00336023
0.00341606
0.00375696
0.00473165
0.00601991
0.00695416
0.000597309
0.00108446
0.00182494
0.00250099
0.00309957
0.00389047
0.00509561
0.00634014
0.00705157
0.00722476
0.00354788
0.00279684
0.00132888
0.00188879
0.00279205
0.00383305
0.00495378
0.00606136
0.00675533
0.00689113
0.00642713
0.00593731
0.00244321
0.00272539
0.00356041
0.0040822
0.00456618
0.00492783
0.00510112
0.00501066
0.0046351
0.00393935
0.00274889
0.00146312
0.00156353
0.00314494
0.00468785
0.00512798
0.00487242
0.00447627
0.00423455
0.00410463
0.00391495
0.0038328
0.00424975
0.00527621
0.00123488
0.00136423
0.00184674
0.00272434
0.00345508
0.0038023
0.00385571
0.00376707
0.00365565
0.00389854
0.0048181
0.00605781
0.00055694
0.000893994
0.00174428
0.0024481
0.00288945
0.00318095
0.00369658
0.00479539
0.00611203
0.0069909
0.000584882
0.000927273
0.00159261
0.00240254
0.00328379
0.00437769
0.00562554
0.0066209
0.00707184
0.00690492
0.00126712
0.0031427
0.00271081
0.00280261
0.00359834
0.00448132
0.0053222
0.00603075
0.00639645
0.00626493
0.00559998
0.00464541
0.00115815
0.00105788
0.00112129
0.00116357
0.00115292
0.00109474
0.000998143
0.000872576
0.000740845
0.000620917
0.000514704
0.000473916
0.00216318
0.00417879
0.00504532
0.00505476
0.00466424
0.00433019
0.0041732
0.00401421
0.0038384
0.00395691
0.0047087
0.00586465
0.00126372
0.00138634
0.00227966
0.00313371
0.00367494
0.00385553
0.00382073
0.00369738
0.00370203
0.00427796
0.0054436
0.00656824
0.000540026
0.00131824
0.00212831
0.00269888
0.00303929
0.00337409
0.00417835
0.00547278
0.00662913
0.00720909
0.000658939
0.00123268
0.00198808
0.00282949
0.00379309
0.00501927
0.0061719
0.00693287
0.00703388
0.00686848
0.00344102
0.00308103
0.00261062
0.00317976
0.00403746
0.00490891
0.00570479
0.00626988
0.00639414
0.00600061
0.00510392
0.00449516
0.00103056
0.00109379
0.00114511
0.00116545
0.00112892
0.00105091
0.000937849
0.000805786
0.000679433
0.000564724
0.000481024
0.000486329
)
;

boundaryField
{
    floor
    {
        type            compressible::alphatWallFunction;
        Prt             0.85;
        value           nonuniform List<scalar> 
36
(
0.000180934
8.09953e-05
9.61275e-05
0.000109152
0.000113013
0.000110611
0.000103095
9.48621e-05
8.7444e-05
8.09656e-05
7.52962e-05
7.03132e-05
6.59292e-05
6.20229e-05
5.84542e-05
5.50643e-05
5.16711e-05
4.9907e-05
4.52697e-05
4.52691e-05
6.34077e-05
7.67356e-05
8.91054e-05
0.000120731
0.000126319
0.000137026
0.000180932
0.000216468
0.00017946
0.00014682
8.09943e-05
0.000146819
8.10208e-05
0.000174517
0.000130405
0.000202482
)
;
    }
    ceiling
    {
        type            compressible::alphatWallFunction;
        Prt             0.85;
        value           nonuniform List<scalar> 
58
(
0.000146609
0.000155453
0.00016259
0.000165416
0.000160368
0.000149507
0.000133586
0.000114694
9.62647e-05
7.91657e-05
6.64173e-05
6.72339e-05
0.000144988
0.000141649
0.000138421
0.000135227
0.000132087
0.000128752
0.000125297
0.00012211
0.000119712
0.000118293
0.000117892
0.000118468
0.00011995
0.000122289
0.000125465
0.000129496
0.000134458
0.00014052
0.000147689
0.000155877
0.00016509
0.000175285
0.000186327
0.000198132
0.000204692
0.000186898
0.000174948
0.000196684
0.000179125
0.000195816
8.1942e-05
0.000137676
0.000150438
0.000159282
0.00016515
0.00016369
0.000155622
0.000142103
0.000124292
0.00010527
8.75908e-05
7.15781e-05
6.53227e-05
0.000166084
0.000192822
0.000104121
)
;
    }
    sWall
    {
        type            compressible::alphatWallFunction;
        Prt             0.85;
        value           nonuniform List<scalar> 4(0.000178794 0.000163791 0.000177232 0.000137091);
    }
    nWall
    {
        type            compressible::alphatWallFunction;
        Prt             0.85;
        value           nonuniform List<scalar> 6(0.000136799 0.000142109 0.000167998 0.000196018 0.00020304 0.000196332);
    }
    sideWalls
    {
        type            empty;
    }
    glass1
    {
        type            compressible::alphatWallFunction;
        Prt             0.85;
        value           nonuniform List<scalar> 10(0.000160464 0.000217552 0.000267598 0.000317703 0.000366798 0.000421255 0.000216062 0.000172816 0.000207051 0.000163731);
    }
    glass2
    {
        type            compressible::alphatWallFunction;
        Prt             0.85;
        value           nonuniform List<scalar> 2(0.000247978 0.000232899);
    }
    sun
    {
        type            compressible::alphatWallFunction;
        Prt             0.85;
        value           nonuniform List<scalar> 
14
(
0.000164883
0.00017784
0.000180713
0.000188904
0.000196512
0.000203692
0.000210778
0.000218182
0.00022563
0.000232522
0.000237946
0.000239973
0.000235531
0.000220794
)
;
    }
    Table_master
    {
        type            compressible::alphatWallFunction;
        Prt             0.85;
        value           nonuniform List<scalar> 9(0.000140242 0.000122461 0.000107599 9.54614e-05 8.55716e-05 7.74761e-05 7.08246e-05 6.53811e-05 6.10868e-05);
    }
    Table_slave
    {
        type            compressible::alphatWallFunction;
        Prt             0.85;
        value           nonuniform List<scalar> 9(0.000157464 0.000143793 0.000134403 0.000127456 0.000121611 0.000115822 0.000110304 0.000104459 9.76161e-05);
    }
    inlet
    {
        type            fixedValue;
        value           uniform 1.94e-05;
    }
    outlet
    {
        type            zeroGradient;
    }
}


// ************************************************************************* //
