/*--------------------------------*- C++ -*----------------------------------*\
  =========                 |
  \\      /  F ield         | OpenFOAM: The Open Source CFD Toolbox
   \\    /   O peration     | Website:  https://openfoam.org
    \\  /    A nd           | Version:  6
     \\/     M anipulation  |
\*---------------------------------------------------------------------------*/
FoamFile
{
    version     2.0;
    format      ascii;
    class       volScalarField;
    location    "3800";
    object      alphat;
}
// * * * * * * * * * * * * * * * * * * * * * * * * * * * * * * * * * * * * * //

dimensions      [1 -1 -1 0 0 0 0];

internalField   nonuniform List<scalar> 
778
(
0.000977046
0.00103555
0.00143419
0.00103383
0.00254297
0.00182649
0.00107696
0.00213093
0.00357071
0.00221334
0.00111542
0.00240286
0.00247209
0.00494227
0.00260236
0.00114959
0.00257966
0.00344118
0.0023542
0.00674542
0.00299035
0.0011807
0.00276993
0.00376477
0.00391117
0.00239021
0.00882357
0.00338962
0.00121003
0.0029587
0.00405513
0.00438477
0.00379032
0.00290718
0.0107853
0.00374675
0.00123889
0.00313055
0.00432032
0.0046603
0.00454696
0.00323113
0.00407389
0.0123051
0.00386201
0.00126882
0.00326691
0.00455061
0.00486342
0.00476787
0.00442218
0.00262914
0.00584226
0.0118687
0.00380128
0.00129898
0.00334641
0.00473909
0.005002
0.00484685
0.00465009
0.0040687
0.00253056
0.00754356
0.00962944
0.00357981
0.00132906
0.00338409
0.00487649
0.00508651
0.00482793
0.00461917
0.00446946
0.00329723
0.00354656
0.00793086
0.00824334
0.00327289
0.00136084
0.00335617
0.00498106
0.0051337
0.00474117
0.00445426
0.00441096
0.00408597
0.00220866
0.0051755
0.00771934
0.00741746
0.00298712
0.0013974
0.00321766
0.00509372
0.0051858
0.00463844
0.00420287
0.00417597
0.00418472
0.00270713
0.00324297
0.00606614
0.00746139
0.00661535
0.00298802
0.00143821
0.00288108
0.00520879
0.00532804
0.00459955
0.0039573
0.00381757
0.00401586
0.00321058
0.00238646
0.00455338
0.00648986
0.0071217
0.00657257
0.00269938
0.00225694
0.0052932
0.00558878
0.00471324
0.0038551
0.00343483
0.0036667
0.00330884
0.00219636
0.00356613
0.00545117
0.00665957
0.00722701
0.0028053
0.00157282
0.00526348
0.00596955
0.00501208
0.0039659
0.00330217
0.0030625
0.00302719
0.00228671
0.00306094
0.00466477
0.00599417
0.00668597
0.00277227
0.00153417
0.00488789
0.00640319
0.00551022
0.00428493
0.00346925
0.0030198
0.00279609
0.00248779
0.00291488
0.00418849
0.00542956
0.006144
0.0034517
0.000230311
0.00150658
0.00371531
0.00666363
0.00618875
0.00481246
0.00383429
0.00329227
0.00297983
0.00280015
0.00306722
0.00399236
0.00504223
0.00569206
0.0038512
0.000119051
0.00323821
0.00179283
0.00629409
0.00695352
0.00555434
0.00438652
0.00371081
0.00333476
0.00317131
0.00333744
0.00398466
0.00482454
0.00534554
0.00398098
0.000151228
0.000490586
0.00294526
0.00472048
0.00767737
0.00645791
0.00515957
0.00427626
0.0037801
0.0035559
0.00361835
0.0040372
0.00465267
0.00504566
0.00392911
0.000274573
0.000318512
0.0010797
0.00462311
0.00522873
0.0018566
0.00823215
0.00745509
0.00610497
0.00504517
0.00436805
0.00400155
0.0039133
0.00411036
0.0044752
0.00464723
0.00362809
0.000373558
0.000460852
0.00254794
0.00631877
0.00284473
0.00454703
0.00215875
0.00501243
0.0081138
0.00841189
0.00713572
0.00601152
0.00517423
0.00462441
0.00433767
0.00429333
0.0043891
0.00431774
0.00332374
0.000599365
0.00156412
0.00634087
0.00765537
0.00221618
0.00277388
0.00224528
0.00166707
0.00698011
0.00855746
0.00898153
0.00810035
0.00706399
0.00618669
0.00550547
0.00503392
0.00476086
0.00460971
0.0043502
0.00348096
0.0016219
0.00455498
0.00960086
0.00939856
0.00227929
0.00271245
0.00137512
0.00401247
0.00780863
0.00890295
0.00919985
0.00878716
0.00802455
0.00727049
0.00659673
0.0060433
0.00562933
0.0053237
0.00499962
0.00442335
0.00376886
0.00799395
0.0117587
0.0105383
0.00226407
0.00102452
0.002531
0.0054975
0.00792014
0.00901437
0.00926937
0.00910556
0.00871162
0.00822324
0.00771762
0.00724043
0.0068352
0.00652254
0.00628437
0.0061181
0.00654194
0.0106124
0.0129505
0.0110251
0.00217476
0.00105571
0.00349783
0.00604341
0.00672806
0.0088912
0.00919251
0.00915786
0.00903793
0.00886459
0.00863689
0.00837796
0.00813463
0.00796233
0.0079239
0.00815609
0.00917678
0.0122111
0.0134483
0.0110094
0.00204621
0.00106309
0.00398379
0.00536228
0.00154568
0.0083931
0.00898906
0.00901291
0.00904188
0.00911305
0.00917383
0.00919868
0.00921088
0.00927021
0.00946904
0.0099697
0.0111011
0.0129696
0.0133859
0.0106201
0.00190821
0.00104652
0.00393675
0.00137323
0.00140681
0.00679953
0.00867079
0.0087473
0.00881079
0.00900169
0.00926418
0.00953783
0.00980726
0.0101049
0.010503
0.0111076
0.0120049
0.0129789
0.0127632
0.0099182
0.00177494
0.00101137
0.0030682
0.00119223
0.00130074
0.00592555
0.00816539
0.00843605
0.00845781
0.00863923
0.00896673
0.00937236
0.0098114
0.0102744
0.0107811
0.0113474
0.0118851
0.0120979
0.0115903
0.00893821
0.00164963
0.000958806
0.00261821
0.00105349
0.00121229
0.0053144
0.00766286
0.00812027
0.00809398
0.00817155
0.00842779
0.00881535
0.00927708
0.00977607
0.0102717
0.0107003
0.0108777
0.0105592
0.00995676
0.00776409
0.00153568
0.000904448
0.00231061
0.000945559
0.00113707
0.00482712
0.00720128
0.00783402
0.00779517
0.00773917
0.00783544
0.00807329
0.0084092
0.00878584
0.00915273
0.00937163
0.00929376
0.00874282
0.00815032
0.00658382
0.00144103
0.000853537
0.00207788
0.000860155
0.0010697
0.00433221
0.00676563
0.00757828
0.00758778
0.00743542
0.00736156
0.00739581
0.00750657
0.00766039
0.00778137
0.00780996
0.00760214
0.00702009
0.00656267
0.00564115
0.00137393
0.000807142
0.00188763
0.000791543
0.00100626
0.00384019
0.00626853
0.0073231
0.00745144
0.00728133
0.00710394
0.00698379
0.00689578
0.00681957
0.00666491
0.00646934
0.00616131
0.00566439
0.00549135
0.005052
0.00133591
0.000765494
0.00172568
0.000735829
0.000943231
0.00335439
0.00571462
0.00699952
0.00733417
0.00723384
0.00705028
0.00688975
0.00672966
0.00641895
0.00598126
0.00552736
0.00512515
0.00480822
0.00492721
0.0047386
0.00132042
0.00072793
0.00158285
0.00069082
0.000875038
0.00286887
0.00510314
0.00658302
0.00716579
0.00721735
0.0071068
0.00699491
0.00682267
0.00635723
0.00564949
0.00495127
0.00450579
0.00436371
0.00465566
0.0045715
0.00131868
0.000693804
0.0014494
0.000656335
0.000820249
0.00237104
0.00443075
0.00605708
0.00689812
0.00715254
0.00716064
0.00713349
0.00697955
0.00645099
0.00554452
0.00465355
0.00417412
0.00413398
0.00449414
0.00445254
0.00132242
0.000662403
0.00131741
0.000729018
0.000854102
0.00183558
0.00369484
0.00541309
0.00650044
0.00698487
0.00713533
0.00718099
0.00709028
0.00657496
0.00556858
0.00451802
0.00397769
0.00398263
0.00435414
0.00433404
0.0013285
0.000632816
0.00119828
0.000863226
0.00145296
0.00141617
0.00290347
0.00465141
0.00595785
0.00668338
0.00700076
0.00712142
0.00708348
0.00665626
0.00564231
0.00445851
0.00382788
0.00385146
0.00420845
0.00420142
0.00133632
0.000603781
0.00109622
0.00134909
0.00076588
0.00143626
0.00218257
0.00379457
0.00526941
0.00623357
0.00674055
0.00696537
0.00698032
0.00664346
0.00570726
0.00442909
0.00369014
0.00372414
0.00405797
0.00405793
0.00134688
0.000573177
0.00121803
0.000696413
0.00113044
0.0016736
0.00294499
0.00445699
0.00563361
0.00634391
0.0067047
0.0067997
0.00653319
0.00571046
0.00440658
0.0035561
0.00360097
0.0039147
0.00391619
0.0013622
0.000546251
0.000615501
0.00090658
0.00130809
0.0021625
0.00359373
0.00489968
0.00580653
0.00632513
0.00653076
0.00634303
0.00559968
0.00436302
0.00342649
0.00348631
0.00379353
0.00379405
0.00138456
0.00049388
0.00118099
0.00145051
0.00161507
0.00272544
0.00407531
0.00513386
0.00581415
0.00615118
0.00605682
0.00538698
0.00421876
0.00329841
0.00338205
0.00370712
0.00371209
0.00141579
0.00113901
0.00250692
0.00145597
0.00195275
0.00315945
0.00431468
0.00516088
0.00563174
0.00564332
0.0050394
0.00396122
0.00314799
0.00328365
0.00366175
0.00369009
0.00145644
0.00136296
0.00254531
0.00132876
0.00193874
0.00308468
0.00425837
0.00495448
0.00506877
0.00451436
0.00355731
0.00293323
0.00317591
0.00365388
0.00374196
0.00150533
0.00159987
0.00357495
0.00162138
0.00145743
0.00253515
0.00395735
0.00431504
0.00381105
0.00300923
0.00265218
0.0030435
0.00366651
0.00386932
0.00155989
0.00207274
0.00533302
0.00308345
0.00165164
0.00208777
0.00333245
0.00303087
0.00244392
0.0023419
0.00289342
0.00366804
0.00405345
0.00161711
0.00238116
0.00527319
0.00362802
0.00189356
0.00205506
0.00236798
0.00206494
0.00212626
0.00275376
0.00365919
0.00424273
0.00167473
0.00241089
0.00492666
0.00383432
0.00198394
0.00197588
0.00198408
0.00213223
0.00269465
0.00366886
0.00437525
0.00173218
0.00237461
0.00498883
0.00394481
0.00227714
0.00221145
0.00239412
0.00280528
0.00373431
0.00449135
0.0017905
0.00232141
0.00552042
0.00426315
0.00290932
0.00289672
0.00312518
0.00390214
0.00464438
0.00184938
0.00237055
0.00545049
0.00492565
0.00370835
0.00362066
0.00421205
0.0048785
0.00191239
0.00249415
0.00566072
0.00515465
0.0042147
0.00466747
0.00522888
0.00198404
0.00252417
0.0060572
0.00474389
0.00521811
0.00571652
0.00206749
0.00246869
0.00487099
0.00568663
0.00634375
0.00216285
0.00237858
0.00578556
0.00713942
0.00226617
0.00241618
0.00646474
0.00237531
0.0027324
0.00250025
0.00250071
)
;

boundaryField
{
    floor
    {
        type            compressible::alphatWallFunction;
        Prt             0.85;
        value           nonuniform List<scalar> 
36
(
0.000202516
0.000145602
0.000149972
0.000151003
0.000148684
0.00014375
0.000136337
0.000128621
0.000121344
0.000114668
0.000108637
0.000103163
9.81606e-05
9.35316e-05
8.91454e-05
8.48168e-05
8.02267e-05
7.61634e-05
6.81888e-05
6.81879e-05
8.65681e-05
9.85452e-05
0.000108694
0.000128928
0.000167401
0.000161598
0.000202514
0.000220605
0.000215427
0.000211722
0.0001456
0.00021172
0.00019396
0.000249806
0.000233157
0.000258195
)
;
    }
    ceiling
    {
        type            compressible::alphatWallFunction;
        Prt             0.85;
        value           nonuniform List<scalar> 
43
(
0.000368293
0.000308807
0.000297657
0.000305075
0.000313206
0.000311277
0.0002998
0.000283172
0.000265186
0.000247671
0.000231057
0.000215818
0.00020306
0.000193961
0.000188791
0.000186694
0.000186465
0.000186987
0.000187826
0.000188895
0.00019033
0.000192399
0.000195412
0.000199617
0.000205088
0.000211665
0.000218998
0.000226677
0.000234387
0.000242047
0.000249798
0.000257589
0.000265879
0.000275254
0.000286121
0.000298483
0.000311816
0.000325853
0.000341861
0.000341791
0.000366942
0.000380263
0.000433343
)
;
    }
    sWall
    {
        type            compressible::alphatWallFunction;
        Prt             0.85;
        value           nonuniform List<scalar> 9(0.000501735 0.000474689 0.000436928 0.000401447 0.000401552 0.000365366 0.000383049 0.000374211 0.00036657);
    }
    nWall
    {
        type            compressible::alphatWallFunction;
        Prt             0.85;
        value           nonuniform List<scalar> 
14
(
0.000161144
0.000191861
0.000223748
0.000329482
0.000324849
0.000318118
0.00032477
0.000340272
0.000344065
0.000336597
0.000325287
0.000330442
0.000370549
0.000341092
)
;
    }
    sideWalls
    {
        type            empty;
    }
    glass1
    {
        type            compressible::alphatWallFunction;
        Prt             0.85;
        value           nonuniform List<scalar> 9(0.000135074 0.000197104 0.000248722 0.000298558 0.000347824 0.000396258 0.000445466 0.000489021 0.000503107);
    }
    glass2
    {
        type            compressible::alphatWallFunction;
        Prt             0.85;
        value           nonuniform List<scalar> 2(0.000283691 0.000323289);
    }
    sun
    {
        type            compressible::alphatWallFunction;
        Prt             0.85;
        value           nonuniform List<scalar> 
14
(
0.00013896
0.000147165
0.000146923
0.000152956
0.000158314
0.000163056
0.000167359
0.000171405
0.000175374
0.00017948
0.000183606
0.000187711
0.000192035
0.000196996
)
;
    }
    Table_master
    {
        type            compressible::alphatWallFunction;
        Prt             0.85;
        value           nonuniform List<scalar> 9(0.000193986 0.000169209 0.000149927 0.000134724 0.00012255 0.000112665 0.000104564 9.79648e-05 9.28735e-05);
    }
    Table_slave
    {
        type            compressible::alphatWallFunction;
        Prt             0.85;
        value           nonuniform List<scalar> 9(0.000217254 0.000198544 0.000184114 0.000171979 0.000161579 0.000152198 0.000143302 0.000134397 0.000124684);
    }
    inlet
    {
        type            fixedValue;
        value           uniform 1.94e-05;
    }
    outlet
    {
        type            zeroGradient;
    }
}


// ************************************************************************* //
