/*--------------------------------*- C++ -*----------------------------------*\
  =========                 |
  \\      /  F ield         | OpenFOAM: The Open Source CFD Toolbox
   \\    /   O peration     | Website:  https://openfoam.org
    \\  /    A nd           | Version:  6
     \\/     M anipulation  |
\*---------------------------------------------------------------------------*/
FoamFile
{
    version     2.0;
    format      ascii;
    class       volScalarField;
    location    "3800";
    object      epsilon;
}
// * * * * * * * * * * * * * * * * * * * * * * * * * * * * * * * * * * * * * //

dimensions      [0 2 -3 0 0 0 0];

internalField   nonuniform List<scalar> 
778
(
0.000209099
0.00024815
0.000662837
0.000246878
0.00128472
0.00137226
0.000279066
0.000231632
0.00369026
0.00244737
0.000310031
0.000212166
0.000320882
0.00811385
0.00398639
0.000339389
0.000212236
0.000198255
0.000562675
0.0150073
0.00606052
0.000367679
0.000215412
0.000187135
0.00019355
0.00110684
0.0241032
0.0088419
0.000395747
0.000221202
0.000187679
0.000165831
0.000202182
0.00220479
0.0330828
0.0119602
0.000424727
0.000230963
0.000192281
0.000163603
0.000142655
0.000244607
0.00416194
0.0399924
0.0131263
0.00045624
0.000246464
0.00020065
0.00016477
0.000136231
0.000123949
0.000362612
0.00708958
0.0417387
0.0125158
0.000489522
0.000270002
0.000212984
0.000167839
0.000134113
0.000111269
0.000116852
0.000714092
0.0136124
0.0286269
0.0104542
0.00052429
0.000301885
0.000229703
0.000173192
0.000133351
0.000106255
9.31394e-05
0.000146063
0.00286271
0.0143376
0.0195319
0.00799219
0.00056275
0.000344339
0.000251786
0.000182272
0.000134869
0.000102747
8.5248e-05
8.93957e-05
0.000515285
0.00551812
0.012049
0.0138525
0.00608058
0.000609263
0.000401931
0.000281997
0.000197266
0.000141002
0.000102191
7.98713e-05
7.57077e-05
0.000161833
0.00194647
0.00620658
0.00972092
0.0101414
0.00608287
0.000664135
0.000484739
0.00032395
0.00022087
0.00015465
0.000108481
7.88322e-05
6.86405e-05
0.000101451
0.00073892
0.00306776
0.00590708
0.00780252
0.0077767
0.00449158
0.000624985
0.000385005
0.000255679
0.000177759
0.000125783
8.95134e-05
6.88745e-05
8.52418e-05
0.000350327
0.00158354
0.00352137
0.00531667
0.00688699
0.00503209
0.000868301
0.000476496
0.000304739
0.000211585
0.000153567
0.000116075
9.4396e-05
9.61108e-05
0.000223725
0.000910168
0.00217436
0.00356261
0.00480914
0.00561429
0.000805682
0.000589144
0.000369245
0.000257356
0.000190396
0.000152813
0.000134853
0.000138658
0.000217412
0.000609926
0.00143808
0.00245354
0.00341307
0.00415801
0.180437
0.000762905
0.000705498
0.000442308
0.000314604
0.00023653
0.00019484
0.00018018
0.000187977
0.000251157
0.000496195
0.00104089
0.00176749
0.0024919
0.00304604
0.0272228
0.00705221
0.00128537
0.000526352
0.00037713
0.000292589
0.000242884
0.000225844
0.000235066
0.000289345
0.00045632
0.000822678
0.00134432
0.00188215
0.00228264
0.00640375
0.00714678
0.00407227
0.000781729
0.000441678
0.000354356
0.000300097
0.000274322
0.000279385
0.000323612
0.000443366
0.000693797
0.00106648
0.00146927
0.00175444
0.00255935
0.00293047
0.00319525
0.00691148
0.00321224
0.00142695
0.000537761
0.0004165
0.000363306
0.000331438
0.000327777
0.000358507
0.000443422
0.000614937
0.000875555
0.00116526
0.00136103
0.00138133
0.00152978
0.00257478
0.00337788
0.00504395
0.00415578
0.00222869
0.00064102
0.000626881
0.000474199
0.000424159
0.000396851
0.000387923
0.000405423
0.00046229
0.000577501
0.00075514
0.000956447
0.00108691
0.000961262
0.0014139
0.00302165
0.00327992
0.00241286
0.00469536
0.00250644
0.00103286
0.000435089
0.000476801
0.000492372
0.000468862
0.000458911
0.000457757
0.000471473
0.000511114
0.000589897
0.000713111
0.000860098
0.000976945
0.000996135
0.00201234
0.00341982
0.00325393
0.00262763
0.00441918
0.000579771
0.000482008
0.000359489
0.000401037
0.000442212
0.000477251
0.000499235
0.00052149
0.000548531
0.000589483
0.000655821
0.000756599
0.000890307
0.00105101
0.00131467
0.0027192
0.00356668
0.00302013
0.00258175
0.00023988
0.000370174
0.000359443
0.000311219
0.000346277
0.00038916
0.000444159
0.000501363
0.000556819
0.0006131
0.000676283
0.000756917
0.000867972
0.00102599
0.00126901
0.00175576
0.0031418
0.00342781
0.0026509
0.00229396
0.000262397
0.000294831
0.000295545
0.000302606
0.000299092
0.000335161
0.000390966
0.00046406
0.000547918
0.000638127
0.000736482
0.000851146
0.000997832
0.00120289
0.00152747
0.00213063
0.00318567
0.00309904
0.0022551
0.00191457
0.000267919
0.000245182
0.000268037
0.000823096
0.000263678
0.000283555
0.000330097
0.000401393
0.000495691
0.000608838
0.000738897
0.000890951
0.0010789
0.00133198
0.00170199
0.00227464
0.00289663
0.00265295
0.00189511
0.00155494
0.000255575
0.00020821
0.000577214
0.000620567
0.000257965
0.000239141
0.000271241
0.000329274
0.00041572
0.000530722
0.000673642
0.000846603
0.00106005
0.0013335
0.00170068
0.00213873
0.00230975
0.00212544
0.00158356
0.00125248
0.000230675
0.000193602
0.000377732
0.000490522
0.000233347
0.000204916
0.000220977
0.000260986
0.000327692
0.000425173
0.00055566
0.000722022
0.000928312
0.00118441
0.00148607
0.00177413
0.00165227
0.00157192
0.00131617
0.0010059
0.000196553
0.000161748
0.000260616
0.000397101
0.000207314
0.00017762
0.000181815
0.000204513
0.000247826
0.0003169
0.000416351
0.000548526
0.000716744
0.000914377
0.00112468
0.00122075
0.00108341
0.00109019
0.001093
0.000811521
0.00016499
0.000131963
0.000188444
0.000327673
0.000183943
0.000156125
0.000152859
0.000162198
0.000184824
0.0002248
0.000286092
0.000372034
0.000479015
0.000604784
0.00069988
0.000715598
0.000652352
0.000740505
0.000922326
0.000670376
0.000138674
0.00010732
0.000141858
0.000272817
0.000165103
0.000139067
0.000131876
0.000132478
0.00014014
0.00015699
0.000185598
0.00022617
0.000280101
0.000324599
0.00036745
0.000393567
0.000392156
0.000532009
0.000808742
0.000580911
0.000117273
8.76899e-05
0.000110548
0.000227099
0.000149207
0.000125763
0.00011644
0.000112206
0.000110721
0.000112677
0.000119211
0.000131346
0.000142676
0.000166441
0.000193518
0.000224977
0.00026716
0.000432263
0.00074276
0.000534017
0.000100045
7.21946e-05
8.8811e-05
0.000187041
0.000135193
0.000114943
0.000104924
9.81609e-05
9.21169e-05
8.61413e-05
8.14401e-05
7.87859e-05
8.27355e-05
9.45549e-05
0.000117113
0.00015345
0.000216135
0.000391137
0.000706074
0.000515811
8.60316e-05
5.99106e-05
7.34918e-05
0.000149335
0.000122436
0.000105726
9.59114e-05
8.82505e-05
8.0242e-05
7.10996e-05
6.18993e-05
5.54555e-05
5.59263e-05
6.4721e-05
8.56524e-05
0.000124861
0.000196577
0.000373533
0.000684296
0.000513855
7.44939e-05
5.01281e-05
6.30279e-05
8.95674e-05
0.000110136
9.7533e-05
8.8428e-05
8.08419e-05
7.26049e-05
6.27481e-05
5.237e-05
4.50294e-05
4.38498e-05
5.11014e-05
7.13149e-05
0.000111866
0.000187882
0.000363186
0.000668669
0.000518357
6.48333e-05
4.26391e-05
4.81173e-05
5.91234e-05
8.9736e-05
8.97909e-05
8.18523e-05
7.48642e-05
6.72605e-05
5.81351e-05
4.8177e-05
4.03682e-05
3.80956e-05
4.39221e-05
6.30411e-05
0.000104173
0.000182819
0.000354657
0.000655521
0.000525649
5.65305e-05
3.8151e-05
4.09268e-05
0.000154813
6.86756e-05
8.00463e-05
7.57266e-05
6.96728e-05
6.30581e-05
5.51485e-05
4.6393e-05
3.87818e-05
3.53698e-05
3.9601e-05
5.71678e-05
9.83681e-05
0.000179306
0.00034718
0.000644404
0.000535035
4.91035e-05
3.64131e-05
0.000112969
0.000100244
0.000110984
6.9183e-05
6.93483e-05
6.48732e-05
5.93906e-05
5.27583e-05
4.53322e-05
3.84438e-05
3.44316e-05
3.68776e-05
5.24096e-05
9.32118e-05
0.000176691
0.000341505
0.000636709
0.000547801
4.20116e-05
6.99929e-05
7.53675e-05
0.000144014
8.20556e-05
6.33549e-05
6.02226e-05
5.59569e-05
5.05207e-05
4.43248e-05
3.83594e-05
3.43442e-05
3.53735e-05
4.83664e-05
8.80191e-05
0.000174415
0.000338514
0.000634797
0.000566565
3.63677e-05
5.20347e-05
0.000166256
0.000104333
6.70914e-05
5.63539e-05
5.27003e-05
4.82901e-05
4.31334e-05
3.81337e-05
3.44916e-05
3.48762e-05
4.51992e-05
8.24412e-05
0.000171609
0.000338506
0.000641364
0.000594692
2.6887e-05
0.000367683
0.000212932
8.04355e-05
5.83215e-05
5.03334e-05
4.62065e-05
4.17611e-05
3.76407e-05
3.46686e-05
3.49585e-05
4.37876e-05
7.68365e-05
0.000167214
0.000340717
0.000658792
0.000635571
0.000330173
0.00107138
0.000176326
7.2689e-05
5.44736e-05
4.55418e-05
4.06091e-05
3.69909e-05
3.49165e-05
3.57016e-05
4.40128e-05
7.31493e-05
0.000160655
0.000343177
0.000688414
0.000691688
0.000565794
0.00159543
0.000337309
9.9807e-05
5.77938e-05
4.22634e-05
3.68697e-05
3.5562e-05
3.76539e-05
4.66017e-05
7.37789e-05
0.000153332
0.000343304
0.000729717
0.000763708
0.000915023
0.00532767
0.000962481
0.000234508
7.59636e-05
4.12675e-05
3.7623e-05
4.19411e-05
5.37234e-05
8.02478e-05
0.000152218
0.000340053
0.000779742
0.000850096
0.00199378
0.0129365
0.00312591
0.000660008
0.000102568
4.59567e-05
5.08219e-05
6.93353e-05
9.78223e-05
0.000161143
0.000339586
0.000832913
0.000947723
0.00302807
0.0105522
0.0033049
0.00072389
0.000101472
7.06942e-05
9.98306e-05
0.000136161
0.000187167
0.000353584
0.000881101
0.00105345
0.00314257
0.00769714
0.0029602
0.000546913
0.000131727
0.000156556
0.000210189
0.000244578
0.000386686
0.00092616
0.00116639
0.00300351
0.00645854
0.00231921
0.000458397
0.000271078
0.000342324
0.000357238
0.000452038
0.00098281
0.00128906
0.00280984
0.00589901
0.00202325
0.000584547
0.000576652
0.000563058
0.000573913
0.001071
0.00142125
0.00300592
0.00446255
0.0020761
0.00103578
0.00092687
0.000792352
0.00121759
0.00157199
0.00348723
0.00375411
0.00219628
0.00156808
0.00117579
0.00146168
0.0017556
0.00361341
0.00439624
0.00264171
0.00185868
0.00186579
0.00198678
0.00336417
0.0041787
0.00309266
0.00254491
0.00227502
0.0030177
0.00535104
0.00381391
0.00261776
0.00317888
0.00454727
0.00301649
0.00459512
0.00352137
0.00351905
)
;

boundaryField
{
    floor
    {
        Cmu             0.09;
        kappa           0.41;
        E               9.8;
        type            epsilonWallFunction;
        value           nonuniform List<scalar> 
36
(
0.000664135
0.00023988
0.000262397
0.000267919
0.000255575
0.000230675
0.000196553
0.00016499
0.000138674
0.000117273
0.000100045
8.60316e-05
7.44939e-05
6.48333e-05
5.65305e-05
4.91035e-05
4.20116e-05
3.63677e-05
2.6887e-05
2.6887e-05
5.20347e-05
7.53675e-05
0.000100244
0.000166256
0.000367683
0.000330173
0.000664135
0.000868301
0.000805682
0.000762905
0.00023988
0.000762905
0.000579771
0.00128537
0.00103286
0.00142695
)
;
    }
    ceiling
    {
        Cmu             0.09;
        kappa           0.41;
        E               9.8;
        type            epsilonWallFunction;
        value           nonuniform List<scalar> 
43
(
0.00441918
0.00250644
0.00222869
0.00241286
0.00262763
0.00258175
0.00229396
0.00191457
0.00155494
0.00125248
0.0010059
0.000811521
0.000670376
0.000580911
0.000534017
0.000515811
0.000513855
0.000518357
0.000525649
0.000535035
0.000547801
0.000566565
0.000594692
0.000635571
0.000691688
0.000763708
0.000850096
0.000947723
0.00105345
0.00116639
0.00128906
0.00142125
0.00157199
0.0017556
0.00198678
0.00227502
0.00261776
0.00301649
0.00352137
0.00351905
0.00449158
0.00503209
0.00705221
)
;
    }
    sWall
    {
        Cmu             0.09;
        kappa           0.41;
        E               9.8;
        type            epsilonWallFunction;
        value           nonuniform List<scalar> 9(0.0125158 0.0104542 0.00799219 0.00608058 0.00608287 0.00449158 0.00504395 0.00469536 0.00441918);
    }
    nWall
    {
        Cmu             0.09;
        kappa           0.41;
        E               9.8;
        type            epsilonWallFunction;
        value           nonuniform List<scalar> 
14
(
0.000330173
0.000565794
0.000915023
0.00314257
0.00300351
0.00280984
0.00300592
0.00348723
0.00361341
0.00336417
0.0030177
0.00317888
0.00459512
0.00351905
)
;
    }
    sideWalls
    {
        type            empty;
    }
    glass1
    {
        Cmu             0.09;
        kappa           0.41;
        E               9.8;
        type            epsilonWallFunction;
        value           nonuniform List<scalar> 9(0.000209099 0.000662837 0.00137226 0.00244737 0.00398639 0.00606052 0.0088419 0.0119602 0.0131263);
    }
    glass2
    {
        Cmu             0.09;
        kappa           0.41;
        E               9.8;
        type            epsilonWallFunction;
        value           nonuniform List<scalar> 2(0.00199378 0.00302807);
    }
    sun
    {
        Cmu             0.09;
        kappa           0.41;
        E               9.8;
        type            epsilonWallFunction;
        value           nonuniform List<scalar> 
14
(
0.000209099
0.00024815
0.000246878
0.000279066
0.000310031
0.000339389
0.000367679
0.000395747
0.000424727
0.00045624
0.000489522
0.00052429
0.00056275
0.000609263
)
;
    }
    Table_master
    {
        Cmu             0.09;
        kappa           0.41;
        E               9.8;
        type            epsilonWallFunction;
        value           nonuniform List<scalar> 9(0.000577214 0.000377732 0.000260616 0.000188444 0.000141858 0.000110548 8.8811e-05 7.34918e-05 6.30279e-05);
    }
    Table_slave
    {
        Cmu             0.09;
        kappa           0.41;
        E               9.8;
        type            epsilonWallFunction;
        value           nonuniform List<scalar> 9(0.000823096 0.000620567 0.000490522 0.000397101 0.000327673 0.000272817 0.000227099 0.000187041 0.000149335);
    }
    inlet
    {
        type            turbulentMixingLengthDissipationRateInlet;
        mixingLength    0.00315;
        phi             phi;
        k               k;
        value           uniform 1.49737;
    }
    outlet
    {
        type            zeroGradient;
    }
}


// ************************************************************************* //
