/*--------------------------------*- C++ -*----------------------------------*\
  =========                 |
  \\      /  F ield         | OpenFOAM: The Open Source CFD Toolbox
   \\    /   O peration     | Website:  https://openfoam.org
    \\  /    A nd           | Version:  6
     \\/     M anipulation  |
\*---------------------------------------------------------------------------*/
FoamFile
{
    version     2.0;
    format      ascii;
    class       surfaceScalarField;
    location    "3800";
    object      phi;
}
// * * * * * * * * * * * * * * * * * * * * * * * * * * * * * * * * * * * * * //

dimensions      [1 0 -1 0 0 0 0];

internalField   nonuniform List<scalar> 
1482
(
-0.0027864
0.00285182
-0.00343246
0.00064606
-0.00206529
0.00509159
-0.00411496
0.000682498
-0.00294676
0.00152753
-0.00151835
0.00687437
-0.0047606
0.000645641
-0.00378051
0.00151625
-0.00240932
0.0024185
-0.00113137
0.00834502
-0.00532071
0.000560109
-0.00448117
0.0013463
-0.00322292
0.00232984
-0.00196939
0.00325652
-0.000823371
0.00957042
-0.00577585
0.000455143
-0.00507074
0.00114968
-0.00384916
0.00197254
-0.00263524
0.00299569
-0.0016119
0.00404505
-0.000587953
0.0106137
-0.00611277
0.000336913
-0.00555314
0.000937546
-0.00436015
0.00166068
-0.00311918
0.00245649
-0.00208082
0.0034646
-0.0013475
0.0048046
-0.000546921
0.0116615
-0.00631705
0.000204279
-0.00592498
0.000708751
-0.00476975
0.00134714
-0.00350974
0.00205124
-0.00240131
0.00277698
-0.00158673
0.00370383
-0.00126029
0.00551796
-0.000524778
0.0127294
-0.00637034
5.3292e-05
-0.00617845
0.000457745
-0.00508045
0.00101946
-0.00381928
0.00165668
-0.0026527
0.00230263
-0.00174499
0.00293524
-0.00117249
0.00361603
-0.0010987
0.00609188
0.00291966
0.0104042
-0.00624619
-0.000124149
-0.00630272
0.000177565
-0.00529055
0.000667843
-0.00405229
0.00125247
-0.00284337
0.00184735
-0.00185526
0.0024129
-0.0011676
0.00293036
-0.000688937
0.00320627
0.00194066
0.00707088
0.00407702
0.00646936
-0.00591058
-0.000335606
-0.00628989
-0.000136972
-0.00539599
0.000283
-0.00420984
0.000825391
-0.00297882
0.00138791
-0.00192233
0.00191442
-0.00115037
0.00239567
-0.000602163
0.00284359
0.000812006
0.00433492
0.00367235
0.00747555
0.00248753
0.00414798
-0.0053252
-0.00058538
-0.00613659
-0.00048891
-0.00539117
-0.000141784
-0.00428849
0.000361657
-0.00306264
0.000909214
-0.00195181
0.00141739
-0.00110971
0.00187376
-0.000514994
0.0023085
0.000360299
0.00329529
0.00251381
0.00549346
0.00336816
0.00659492
0.00154181
0.00280175
-0.00440145
-0.000923753
-0.00582657
-0.000895404
-0.00526664
-0.000613442
-0.00427974
-0.000150539
-0.00309419
0.000393204
-0.00194907
0.000906465
-0.00104707
0.00135475
-0.000400964
0.00175973
0.000240366
0.00242843
0.00186999
0.00393911
0.00328189
0.00557973
0.00285054
0.00528619
0.00224379
0.000785332
-0.00284071
-0.00156074
-0.00534231
-0.00140801
-0.00501259
-0.00114946
-0.00417503
-0.000718155
-0.00306504
-0.000179686
-0.00191746
0.000361603
-0.000966366
0.000825765
-0.000271856
0.00122564
0.000317996
0.0016821
0.0015299
0.00276852
0.00305972
0.00416128
0.00352026
0.00491001
0.00306335
0.00446663
-0.0015487
0.00258123
-0.00283749
-0.00486486
-0.00203819
-0.00465524
-0.00176537
-0.00397337
-0.00135111
-0.00296863
-0.00081457
-0.00184706
-0.000250093
-0.000868199
0.000263435
-0.000132509
0.000686418
0.000474425
0.00106921
0.00139943
0.00181257
0.00286532
0.00296292
0.00379481
0.00388673
0.00371878
0.00425458
0.00119166
0.00172627
0.00284556
-0.00538381
-0.00231854
-0.00431977
-0.00237366
-0.00369494
-0.0020438
-0.00280274
-0.00151701
-0.00173636
-0.000925271
-0.000733135
-0.000385156
4.15052e-05
8.94204e-05
0.000671064
0.000489779
0.0014398
0.00102884
0.00274088
0.00193701
0.00388688
0.00287086
0.00428755
0.00331796
0.00346116
0.00198508
0.00455716
-0.00361779
-0.00176001
-0.00393985
-0.00269846
-0.00336358
-0.00270502
-0.00256531
-0.00228123
-0.00157732
-0.00167605
-0.000577975
-0.00108043
0.000247236
-0.000590887
0.000907385
-0.000146901
0.00161227
0.000317314
0.00272798
0.00104174
0.00391145
0.00191244
0.00461478
0.00254363
0.00448895
0.00229018
0.00490208
0.00164016
-0.00186017
-0.00175142
-0.00293909
-0.00276077
-0.00287939
-0.00318265
-0.00224088
-0.00302945
-0.00135771
-0.00250084
-0.000389001
-0.00186502
0.000467024
-0.00130022
0.00115715
-0.000840654
0.00185664
-0.000391271
0.00282216
0.000223136
0.0039481
0.00100509
0.00478896
0.00173826
0.00500679
0.00202578
0.00546627
0.00172598
0.00829258
0.00501593
-0.00184427
-0.00168893
-0.00300159
-0.00217262
-0.00346754
-0.0017927
-0.00363083
-0.0010615
-0.00332565
-0.000157716
-0.00273213
0.000707352
-0.00210535
0.00143001
-0.00157308
0.00212164
-0.00110566
0.00298537
-0.000554476
0.00402061
0.000150623
0.00490582
0.00088823
0.00532891
0.00141615
0.00575226
0.0017398
0.00621292
0.00380566
0.00341347
0.00176081
-0.00351914
-0.00151104
-0.00366318
-0.00125054
-0.0040097
-0.000687737
-0.0040046
0.00011036
-0.00359373
0.000959709
-0.00298448
0.00171039
-0.00238572
0.00240671
-0.00185815
0.00319641
-0.0013167
0.00413255
-0.000666414
0.00501079
4.56575e-05
0.00556306
0.000654085
0.00601725
0.00115115
0.00600953
0.00194324
0.00413436
0.00308479
-0.00405339
0.00806632
-0.00225219
-0.00157529
-0.0034549
-0.000758083
-0.00415564
-0.000275025
-0.00442241
0.000400272
-0.00429451
0.00119896
-0.00383297
0.00197277
-0.00324686
0.00269001
-0.00266902
0.00343855
-0.00210029
0.00428798
-0.00147212
0.00513134
-0.000786966
0.00576305
-0.000154337
0.00626648
0.000404853
0.0062013
0.000959439
0.00372934
0.00234831
-0.00195909
0.000990505
0.00235445
-0.00729496
-0.00721379
0.00825299
-0.00329142
0.000815961
-0.00237473
-0.000267227
-0.00394576
0.000118707
-0.00454937
0.000690019
-0.00471215
0.00140924
-0.00450478
0.00218438
-0.00404458
0.0029297
-0.00348654
0.00367057
-0.00290104
0.00446247
-0.00227479
0.00526292
-0.00160372
0.00593277
-0.0009567
0.00646354
-0.000351404
0.00632846
0.000277734
0.00340205
0.00128677
-0.0011092
0.00149846
-0.00589878
-0.000324506
-0.00657665
0.00736993
-0.00641193
-0.00775159
0.00452272
0.00240982
0.000974333
-0.00256819
0.000714988
-0.00335695
0.000525072
-0.00435212
0.000955159
-0.0048145
0.00158504
-0.00488795
0.00232251
-0.00464289
0.00308054
-0.00419541
0.00383028
-0.00364625
0.00459388
-0.00303246
0.0053545
-0.00236638
0.00601989
-0.00169086
0.00651362
-0.00100681
0.00623345
-0.000256373
0.00307671
0.000603099
-0.000976686
0.00115429
-0.00495571
0.000555427
-0.00801659
0.00127488
-0.00182709
0.00157474
0.000850219
0.0017461
0.00142508
-0.00219685
0.0011788
-0.00303201
0.00105127
-0.00388315
0.00121217
-0.00460913
0.00171768
-0.00494714
0.00238116
-0.00494659
0.00311495
-0.00467729
0.00386216
-0.00422727
0.0046068
-0.00365918
0.00532721
-0.00300518
0.00594689
-0.00229342
0.0063324
-0.00150968
0.00583891
-0.000612271
0.00265038
0.000169952
-0.00109859
0.000725033
-0.00443021
0.000628846
-0.00740581
0.000589016
0.000996159
0.00117778
0.00141855
0.00126096
0.00184182
-0.0016777
0.00155102
-0.00256907
0.00142349
-0.00340423
0.00149194
-0.00416292
0.00181637
-0.00470782
0.00236602
-0.00493199
0.00303117
-0.00486281
0.00374121
-0.00455633
0.00445006
-0.00407053
0.00511556
-0.00344754
0.00565316
-0.00271148
0.00588076
-0.00184181
0.00516207
-0.000832861
0.00212855
-9.0449e-05
-0.00129873
0.000370123
-0.00419026
0.00048517
-0.00672835
0.000593243
0.000668198
0.00150574
0.00086485
0.00181466
0.000848205
0.00218457
-0.00119096
0.00189773
-0.00202442
0.00170862
-0.0028542
0.00170247
-0.00361476
0.00189519
-0.00424174
0.00229382
-0.0046356
0.00284765
-0.00474845
0.00347681
-0.00459839
0.00411613
-0.00422239
0.00469955
-0.00365452
0.00512468
-0.00291908
0.00517958
-0.00201033
0.00428289
-0.000962661
0.00153208
-0.000236389
-0.00153023
0.000141078
-0.00413394
0.000313886
-0.00620037
0.00126144
0.000503983
0.0018666
0.000583972
0.00207889
0.000433447
0.00250322
-0.000752094
0.00220163
-0.00149485
0.0019523
-0.0022681
0.00185445
-0.00300619
0.00193071
-0.00365028
0.00218363
-0.00413154
0.00259343
-0.00438137
0.00310207
-0.0043737
0.00363446
-0.00411671
0.00410715
-0.00362999
0.00439934
-0.00292919
0.0042914
-0.00203093
0.00329857
-0.00102604
0.000879174
-0.000309758
-0.00179931
3.27089e-05
-0.00417745
0.00018468
-0.00584765
0.00176542
0.000332863
0.00211772
0.000343246
0.00216909
0.00289539
-0.000392325
0.00247291
-0.00102338
0.00216177
-0.00170433
0.00197011
-0.00238376
0.00192905
-0.00300454
0.00204239
-0.00350905
0.00229875
-0.00383685
0.00265911
-0.0039384
0.00305477
-0.003794
0.00339333
-0.0034029
0.00354637
-0.00277703
0.00329894
-0.00193676
0.00227888
-0.00101126
0.000176539
-0.000323409
-0.00211187
2.8319e-06
-0.00425482
0.000110146
-0.00562653
0.00209829
0.0001977
0.00226326
0.000113244
0.002056
0.00311491
-0.000219665
0.00272747
-0.000646882
0.00234104
-0.00120265
0.00206155
-0.00179577
0.00190618
-0.00236088
0.00188356
-0.00284571
0.00198713
-0.00319743
0.00218885
-0.00336658
0.00242998
-0.0033136
0.00262178
-0.00302244
0.00263543
-0.00249196
0.00228284
-0.00176094
0.00127565
-0.000933554
-0.00053911
-0.000295626
-0.00244621
1.09463e-05
-0.00432613
7.4188e-05
-0.00548119
0.00229599
8.93627e-05
0.00228714
4.22945e-05
0.00201386
0.00321478
-0.000100032
0.00287857
-0.000370763
0.00248148
-0.000787323
0.00213447
-0.00127558
0.00187577
-0.00176536
0.00172425
-0.00220157
0.00168091
-0.00253949
0.00172469
-0.00273327
0.00180842
-0.00274501
0.00184903
-0.00254085
0.00173326
-0.00212027
0.00129434
-0.00150347
0.00032339
-0.000808705
-0.00120825
-0.000264425
-0.00277107
2.92421e-05
-0.00437287
5.77025e-05
-0.00537221
0.00238535
3.30216e-05
0.00229642
1.74446e-05
0.00199657
0.00321934
-4.71252e-06
0.00294276
-0.000164218
0.00256709
-0.000456371
0.00218598
-0.000838835
0.00184634
-0.00124615
0.00158039
-0.0016215
0.00140052
-0.00192118
0.00129682
-0.00211161
0.00122757
-0.00215242
0.001128
-0.00202397
0.000889646
-0.00169723
0.000382104
-0.00120805
-0.000521865
-0.000658228
-0.00178506
-0.000231918
-0.00306975
3.42417e-05
-0.00439213
4.84643e-05
-0.00527947
0.00241837
1.07628e-05
0.0023031
4.75037e-06
0.00199198
0.00313992
7.92662e-05
0.00293384
4.20467e-06
0.00259675
-0.000193877
0.00221202
-0.000482414
0.00182002
-0.000812517
0.00146243
-0.00112819
0.00116491
-0.0013859
0.000927856
-0.00155221
0.000726709
-0.00161075
0.000496079
-0.0015205
0.000156168
-0.0012905
-0.000384242
-0.000930889
-0.00119115
-0.000538782
-0.00223638
-0.000206941
-0.00332042
1.87031e-05
-0.00439726
3.93066e-05
-0.00519532
0.00242913
1.48237e-07
0.0023077
-4.50589e-06
0.00199664
0.00297868
0.000161086
0.00285912
0.000153981
0.00257604
2.4918e-05
0.0022091
-0.000190953
0.00179438
-0.000456775
0.00137404
-0.000724124
0.00098417
-0.000947446
0.000640917
-0.00109896
0.000327443
-0.00115294
6.04496e-07
-0.00111527
-0.000401188
-0.000963145
-0.000940697
-0.000734057
-0.00165978
-0.000462288
-0.00256598
-0.000209235
-0.00350995
-1.74875e-05
-0.00440354
2.48814e-05
-0.00511955
0.00242928
-7.1453e-06
0.00231034
-1.37465e-05
0.00201054
0.00272857
0.000249959
0.00272233
0.000297881
0.0025103
0.000219716
0.00217739
5.66303e-05
0.00176452
-0.00016109
0.00131166
-0.000394391
0.000859963
-0.000599916
0.000439718
-0.000746247
5.19738e-05
-0.000823489
-0.000332016
-0.000820325
-0.000758635
-0.000757833
-0.00128434
-0.000619521
-0.00196374
-0.000430136
-0.00279318
-0.000235153
-0.00364975
-6.95326e-05
-0.00442027
-8.73644e-07
-0.00505758
0.00242213
-1.43791e-05
0.00231097
-2.90436e-05
0.00203974
0.00236656
0.000361859
0.00252322
0.000449072
0.00240413
0.000404058
0.00212006
0.000277048
0.00172725
9.39011e-05
0.00126737
-0.000116809
0.000783882
-0.00031831
0.000316984
-0.000477182
-0.000113392
-0.000580881
-0.000522422
-0.000633085
-0.000955323
-0.000623641
-0.0014856
-0.000556582
-0.00215283
-0.00043046
-0.00294891
-0.000274456
-0.00376095
-0.000124032
-0.0044528
-3.71105e-05
-0.00502094
0.00240776
-2.63647e-05
0.00230829
-6.46271e-05
0.00210452
0.00183315
0.000533247
0.00226058
0.000624496
0.00226265
0.000590543
0.00204151
0.000482604
0.00168251
0.00032178
0.00123461
0.000126666
0.000743049
-7.59751e-05
0.000253763
-0.000255089
-0.000198875
-0.000391699
-0.000620234
-0.000483068
-0.00106296
-0.000525443
-0.00159645
-0.0005128
-0.00226967
-0.000439759
-0.00306215
-0.000317256
-0.00385853
-0.000176934
-0.00450041
-7.64967e-05
-0.0050203
0.00238139
-5.28456e-05
0.00229651
-0.00017805
0.00228272
-0.000855857
0.00167957
0.00100944
0.00194498
0.000848844
0.00209446
0.000792686
0.00194784
0.000684209
0.0016317
0.000533417
0.00120894
0.000347447
0.000726418
0.000143297
0.000231431
-5.36423e-05
-0.000234152
-0.000219812
-0.000666239
-0.000345692
-0.00111542
-0.00043061
-0.00165471
-0.000467174
-0.00234029
-0.00044217
-0.00314712
-0.000354793
-0.00394842
-0.000227375
-0.00456023
-0.000117141
-0.00505893
0.00232855
-0.000114649
0.00223311
-0.000493988
0.00192085
-0.00128775
0.00133447
0.00163285
0.00172042
0.001234
0.00191638
0.00102692
0.00184877
0.000891757
0.00157811
0.000737805
0.00118703
0.000555326
0.000724819
0.000349046
0.000235951
0.000138777
-0.000237097
-5.06965e-05
-0.000680045
-0.000206004
-0.00113436
-0.000326748
-0.00167789
-0.000407417
-0.00237773
-0.000429699
-0.00320785
-0.000381388
-0.00402904
-0.000274122
-0.00462889
-0.000158673
-0.00513822
0.0022139
-0.000235353
0.00197448
-0.000833009
0.00146611
-0.00173989
0.000791368
0.00228299
0.00156384
0.00178943
0.00180829
0.0013421
0.00176103
0.00111467
0.00152834
0.000941521
0.00116785
0.000756988
0.000731131
0.000549014
0.000256863
0.000328135
-0.000217847
0.000119527
-0.000671234
-5.95057e-05
-0.00113105
-0.000209306
-0.00167572
-0.000328893
-0.00238741
-0.000397692
-0.00324431
-0.000393153
-0.00409539
-0.000314924
-0.00470276
-0.000200127
-0.00525921
0.00197854
-0.000386545
0.00152801
-0.00110569
0.000831912
-0.0028973
0.00372426
0.00138136
0.00246547
0.00185315
0.00174457
0.00173042
0.0013727
0.00149427
0.00114873
0.00115333
0.000956039
0.000740905
0.000747215
0.000287076
0.0005188
-0.00018264
0.000292928
-0.00064461
9.29033e-05
-0.0011118
-7.87518e-05
-0.00165487
-0.000230136
-0.00237298
-0.000343264
-0.00325544
-0.000386447
-0.00414201
-0.000346366
-0.00477822
-0.00023928
-0.00542206
0.001592
-0.000516826
0.000939151
-0.00203839
0.00240392
0.0027017
0.00205954
0.00225908
0.00180492
0.00167008
0.00150144
0.00136553
0.00114906
0.001153
0.000751191
0.000945752
0.000321258
0.000713033
-0.000135465
0.000471625
-0.000601928
0.000250247
-0.00107951
6.06129e-05
-0.00162145
-0.000112174
-0.0023387
-0.000264371
-0.00324121
-0.000357384
-0.00416474
-0.000363528
-0.00485171
-0.000272636
-0.0056247
0.00107517
-0.00108178
0.00135023
0.0010901
0.00230699
0.00245425
0.00200734
0.00205665
0.00158221
0.00158931
0.00116865
0.00134595
0.000758955
0.00114524
0.000353225
0.000913785
-8.02388e-05
0.000657806
-0.000543784
0.000413483
-0.00103309
0.000203826
-0.00158113
2.03026e-05
-0.00229062
-0.000160241
-0.00320344
-0.000302057
-0.00416196
-0.000359987
-0.00491957
-0.00029542
-0.00586161
0.00188759
-0.000507179
0.00179524
0.00160185
0.00226098
0.00220061
0.00179234
0.00184652
0.00123502
0.00152293
0.000761298
0.00134361
0.000372242
0.00112622
-2.3112e-05
0.000856658
-0.000471355
0.000585377
-0.000969707
0.000350104
-0.00153368
0.000156367
-0.0022368
-3.35244e-05
-0.00314605
-0.000217604
-0.00413506
-0.000328846
-0.00497748
-0.000301862
-0.00612243
0.00200973
0.000842511
0.000445548
0.0022718
0.00159103
0.00209865
0.00189431
0.00140852
0.00167302
0.00074994
0.00153429
0.000361339
0.00135451
2.38315e-05
0.00107928
-0.00038757
0.000772873
-0.000887128
0.000502798
-0.00147407
0.00029049
-0.00218487
0.000104412
-0.00307586
-0.000103774
-0.00408788
-0.000264765
-0.00501997
-0.000286234
-0.00639094
0.00295183
0.00168029
0.00103706
0.00223426
0.00145541
0.00172488
0.00157795
0.000692725
0.00173024
0.000286509
0.00160912
3.79203e-05
0.00134042
-0.000298514
0.000990223
-0.000783609
0.000669354
-0.00139837
0.000427097
-0.00213422
0.000239825
-0.00300547
3.39291e-05
-0.00402554
-0.000166221
-0.00504027
-0.000244477
-0.00664505
0.00473746
0.0017249
0.00154641
0.00188111
0.00129916
0.000232067
0.00203861
6.336e-05
0.0019534
-2.48822e-05
0.00167193
-0.000219808
0.00126171
-0.000658977
0.000865588
-0.0013032
0.0005742
-0.00208115
0.000374028
-0.00294571
0.000179979
-0.00395344
-3.83897e-05
-0.00503099
-0.00017566
-0.00685847
0.00683944
0.000542132
0.00288536
-0.00124985
0.00278086
-0.000618266
0.00272035
-0.000234315
0.0021629
-0.000181365
0.00163347
-0.000519586
0.0011223
-0.00118586
0.00074825
-0.00202329
0.000516371
-0.00289458
0.000322839
-0.00387843
0.000104729
-0.00498725
-8.24355e-05
-0.00700392
0.00777618
-0.00252729
0.00416264
-0.0017464
0.00390894
-0.000673453
0.00315986
-0.000209023
0.00219058
-0.000375832
0.00148965
-0.00104254
0.000978938
-0.00195655
0.00068159
-0.0028468
0.000468629
-0.00379124
0.000235449
-0.00490604
2.31214e-05
-0.00705674
0.0053559
-0.0020602
0.00447633
-0.00153565
0.00477144
-0.00017148
0.00312263
-0.000201029
0.00201566
-0.000858943
0.00130591
-0.0018666
0.000889048
-0.00280091
0.000635852
-0.00368275
0.000360032
-0.00478383
0.000112862
-0.00700439
0.00341556
-0.00185598
0.00479686
-5.50877e-05
0.00465545
0.000161458
0.00276014
-0.000578592
0.00173499
-0.00171679
0.00115603
-0.00275432
0.000842709
-0.00354457
0.000497718
-0.00460898
0.000184881
-0.00686257
0.00169311
-4.13678e-05
0.00478353
0.000838579
0.0039786
-3.22165e-05
0.00221336
-0.00144607
0.00146394
-0.00269419
0.00109616
-0.00336848
0.000666829
-0.00436286
0.000251437
-0.00664901
0.0017959
0.0012629
0.00435952
0.0010165
0.00292978
-0.000927293
0.00169397
-0.00263157
0.00140145
-0.00314238
0.000870404
-0.00402413
0.000328087
-0.00636931
0.0032096
0.00161482
0.00376114
0.000164486
0.00183729
-0.00273884
0.00180114
-0.00283932
0.00109878
-0.00357262
0.000419038
-0.00601362
0.00498439
0.000700517
0.00322451
-0.00326525
0.00236333
-0.00249193
0.00145411
-0.00296825
0.000494661
-0.00556789
0.00585718
-0.00311756
0.00307625
-0.00245904
0.00233074
-0.00198958
0.000475741
-0.00504774
0.00292625
-0.00243736
0.00305484
4.78395e-05
0.000293606
-0.0045479
0.000684489
0.00198824
0.00111476
-0.00423163
0.00286287
-0.00309564
)
;

boundaryField
{
    floor
    {
        type            calculated;
        value           nonuniform List<scalar> 
36
(
0
0
0
0
0
0
0
0
0
0
0
0
0
0
0
0
0
0
0
-6.60381e-06
-1.74617e-05
-2.69947e-05
-3.55921e-05
-3.64121e-05
-3.01822e-05
-2.99825e-05
-3.21512e-06
-6.01576e-06
-6.19504e-06
-6.32983e-06
-4.22648e-06
-9.57153e-06
-1.04372e-05
-1.40577e-05
-1.5136e-05
-1.65162e-05
)
;
    }
    ceiling
    {
        type            calculated;
        value           nonuniform List<scalar> 
43
(
-5.41014e-05
-6.21578e-05
-6.25449e-05
-5.94806e-05
-5.52917e-05
-4.85159e-05
-4.26956e-05
-3.87167e-05
-3.63316e-05
-3.51082e-05
-3.47456e-05
-3.50395e-05
-3.57429e-05
-3.65436e-05
-3.71915e-05
-3.76098e-05
-3.7829e-05
-3.79091e-05
-3.7845e-05
-3.76034e-05
-3.71437e-05
-3.64393e-05
-3.54995e-05
-3.43843e-05
-3.32027e-05
-3.20852e-05
-3.11408e-05
-3.04236e-05
-2.99255e-05
-2.95876e-05
-2.93092e-05
-2.89725e-05
-2.84677e-05
-2.77213e-05
-2.67019e-05
-2.54306e-05
-2.39941e-05
-2.25041e-05
-2.10088e-05
-1.98411e-05
1.86701e-05
1.46725e-05
-0.000158351
)
;
    }
    sWall
    {
        type            calculated;
        value           nonuniform List<scalar> 9(-0.000142215 -0.000166151 -0.000195582 -0.000227369 -0.0002472 -0.000283003 -0.000458963 -0.000481661 -0.000498141);
    }
    nWall
    {
        type            calculated;
        value           nonuniform List<scalar> 
14
(
-9.21492e-05
-9.95786e-05
-0.000105338
-0.000107004
-0.000119883
-0.000133494
-0.000143724
-0.00015063
-0.000160123
-0.000172776
-0.000187142
-0.000195544
-0.00018988
-0.00021267
)
;
    }
    sideWalls
    {
        type            empty;
        value           nonuniform 0();
    }
    glass1
    {
        type            calculated;
        value           nonuniform List<scalar> 9(-6.54167e-05 -0.000174484 -0.000264428 -0.000339278 -0.00040202 -0.000455359 -0.000500871 -0.00054314 -0.000594389);
    }
    glass2
    {
        type            calculated;
        value           nonuniform List<scalar> 2(-0.000377067 -0.000394576);
    }
    sun
    {
        type            calculated;
        value           uniform 0;
    }
    Table_master
    {
        type            calculated;
        value           nonuniform List<scalar> 9(-1.54151e-07 -1.54272e-07 -1.54302e-07 -1.5432e-07 -1.54329e-07 -1.54332e-07 -1.54329e-07 -1.54312e-07 -1.54254e-07);
    }
    Table_slave
    {
        type            calculated;
        value           nonuniform List<scalar> 9(1.53827e-07 1.53864e-07 1.53851e-07 1.53865e-07 1.5388e-07 1.5392e-07 1.53987e-07 1.54083e-07 1.54215e-07);
    }
    inlet
    {
        type            calculated;
        value           uniform -0.0116683;
    }
    outlet
    {
        type            calculated;
        value           nonuniform List<scalar> 2(0.00938999 0.0130068);
    }
}


// ************************************************************************* //
