/*--------------------------------*- C++ -*----------------------------------*\
  =========                 |
  \\      /  F ield         | OpenFOAM: The Open Source CFD Toolbox
   \\    /   O peration     | Website:  https://openfoam.org
    \\  /    A nd           | Version:  6
     \\/     M anipulation  |
\*---------------------------------------------------------------------------*/
FoamFile
{
    version     2.0;
    format      ascii;
    class       volScalarField;
    location    "29199.9999982597328";
    object      alphat;
}
// * * * * * * * * * * * * * * * * * * * * * * * * * * * * * * * * * * * * * //

dimensions      [1 -1 -1 0 0 0 0];

internalField   nonuniform List<scalar> 
778
(
0.00104097
0.00111051
0.0011065
0.00115453
0.00119856
0.00123856
0.0012758
0.00131172
0.00134789
0.00138634
0.00142302
0.00145787
0.0014922
0.00152912
0.00156762
0.000736942
0.00105549
0.00106413
0.00103845
0.000995412
0.000937853
0.000880454
0.000827561
0.000779882
0.000737148
0.000699083
0.000664897
0.000633757
0.00060469
0.000576399
0.000546815
0.000522231
0.000472664
0.00152465
0.00300712
0.00263919
0.00304617
0.00334141
0.00365442
0.00396671
0.00425459
0.00448646
0.00462162
0.00470119
0.00466882
0.00443624
0.00385959
0.00281898
0.00171648
0.0016366
0.00156656
0.0013183
0.00224603
0.00311349
0.00362609
0.00365028
0.00288073
0.00246368
0.00217474
0.00195543
0.00178091
0.00163197
0.00150036
0.00137792
0.00125815
0.00115066
0.00105797
0.00119137
0.000599207
0.00193412
0.00419848
0.00311334
0.00445314
0.00497558
0.00541766
0.0058192
0.00617272
0.00647241
0.00670762
0.00693557
0.00717555
0.00739621
0.00752769
0.00744097
0.00681287
0.00498254
0.00192152
0.00166358
0.00355899
0.00496645
0.00563242
0.00512223
0.00135178
0.00117552
0.00103954
0.000933115
0.0008484
0.000780002
0.0007242
0.000678809
0.000643418
0.000707377
0.000832011
0.00131686
0.000681593
0.00232906
0.00565787
0.00297901
0.00500694
0.00578036
0.00619398
0.00649805
0.00672305
0.00689114
0.00702769
0.00722183
0.00754987
0.00802848
0.00863017
0.0092348
0.00953242
0.00895015
0.00667402
0.00191392
0.00443567
0.00659581
0.00769217
0.00796238
0.00679717
0.00153918
0.00140001
0.00129232
0.00120279
0.00112647
0.00105792
0.000993268
0.000929055
0.000859706
0.000803237
0.000832472
0.00142516
0.00075038
0.00271831
0.00748964
0.0030053
0.00475964
0.00594881
0.00630132
0.00642904
0.00643371
0.00636973
0.00631339
0.00639488
0.00671362
0.00729828
0.00812602
0.00908596
0.00997025
0.0105318
0.0105264
0.00944817
0.00961442
0.00983403
0.00986391
0.00966279
0.0090442
0.00719739
0.00621734
0.00554615
0.00500046
0.00446561
0.00394764
0.00344088
0.00293464
0.00241438
0.00185471
0.00141553
0.00141302
0.00111785
0.000894402
0.00117599
0.00112644
0.00310123
0.00953954
0.0035377
0.00401364
0.00569957
0.00609066
0.00605891
0.00584051
0.00552862
0.00527153
0.00526603
0.00559967
0.00626551
0.00722493
0.00834818
0.00947013
0.0104262
0.011037
0.0111488
0.0110367
0.01084
0.0105613
0.0102037
0.00974939
0.00908679
0.00844869
0.00786946
0.00730918
0.00670463
0.00605925
0.00536987
0.00463048
0.00383636
0.00299389
0.00223171
0.00167572
0.00130032
0.00145786
0.0025292
0.00134814
0.00349195
0.0114347
0.00471375
0.00328804
0.00512117
0.005761
0.00568947
0.00533628
0.00482424
0.00437373
0.00436054
0.00478111
0.00554261
0.00661426
0.00783494
0.00904353
0.0100842
0.0108298
0.0111729
0.0111461
0.0109004
0.0105285
0.0101032
0.00967931
0.00926962
0.00889387
0.00854106
0.00816427
0.00770959
0.00716242
0.00651448
0.00576249
0.00490949
0.00397783
0.00306828
0.00221988
0.00163445
0.00146057
0.00256284
0.00158774
0.00382768
0.0128677
0.00642593
0.00313044
0.00405694
0.00510718
0.00525311
0.00496271
0.00435797
0.00374476
0.00388329
0.00443907
0.00528994
0.006394
0.00766109
0.00892625
0.0100061
0.0107568
0.011098
0.0110535
0.0107364
0.0102689
0.00976649
0.00932123
0.00897814
0.0087331
0.00854217
0.0083346
0.00804609
0.00764228
0.00710699
0.00643688
0.00563869
0.00473734
0.00380253
0.00285788
0.00200763
0.00132661
0.00369313
0.00207147
0.00392897
0.0121743
0.00794927
0.00404607
0.00275039
0.00337086
0.00394365
0.00399136
0.00352393
0.00342501
0.00378063
0.0044338
0.005353
0.00652299
0.00785047
0.00915457
0.0102309
0.0109241
0.0111678
0.0110007
0.0105412
0.00993862
0.00934127
0.00886503
0.00856283
0.00841441
0.0083472
0.00826751
0.0081019
0.00781053
0.00737742
0.00680076
0.0060886
0.005262
0.0043579
0.00334566
0.00200038
0.00160513
0.00560358
0.00235216
0.00384958
0.0098123
0.00820741
0.00555232
0.00366772
0.00284066
0.00269098
0.00281744
0.00305385
0.00343055
0.00396475
0.00469944
0.00569845
0.00695926
0.00835866
0.00968127
0.0107018
0.0112644
0.0113236
0.0109463
0.0102819
0.00951788
0.00883668
0.00837046
0.00815684
0.00813165
0.00817777
0.0081769
0.00806978
0.00783378
0.00746111
0.00695129
0.00630969
0.0055433
0.00461544
0.00326035
0.00158597
0.00267509
0.00578212
0.00240425
0.00360603
0.00838504
0.00793384
0.00635248
0.00488996
0.00393749
0.00346663
0.00336052
0.00355606
0.00391565
0.00443782
0.00521299
0.00631579
0.00769782
0.00916849
0.0104634
0.0113434
0.0116712
0.0114413
0.0107687
0.00985561
0.00894243
0.00825
0.00790281
0.00786229
0.00797552
0.00809022
0.00809233
0.0079794
0.00775043
0.00740029
0.00692422
0.00631843
0.00555501
0.00442243
0.00255068
0.00169234
0.0033777
0.00564376
0.00238804
0.00328336
0.00755893
0.00765168
0.00672279
0.00572017
0.00496521
0.00452081
0.00436199
0.00440286
0.00462067
0.00510061
0.00596672
0.00724182
0.00877278
0.0102751
0.0114407
0.0120422
0.0119927
0.0113553
0.0103178
0.00916197
0.00819869
0.00765501
0.00754404
0.00763668
0.00778669
0.00788722
0.00786002
0.00772939
0.00749741
0.00715529
0.00669063
0.00608397
0.005237
0.00361335
0.00179393
0.00219607
0.00374352
0.00517662
0.00231581
0.00299361
0.00675855
0.00730337
0.00686591
0.00622331
0.00568315
0.005324
0.00514902
0.00509827
0.00528563
0.00589578
0.00702817
0.00857168
0.0102293
0.0116345
0.0124795
0.0126015
0.0120061
0.0108615
0.00945814
0.00819198
0.0073813
0.00702142
0.00696883
0.00706388
0.00720116
0.00729622
0.00727548
0.00714849
0.0069151
0.00656427
0.00608006
0.0054283
0.00443338
0.00273069
0.00174812
0.00253552
0.00391449
0.00483734
0.00223977
0.00300321
0.00670703
0.00746042
0.00694722
0.00642752
0.00600185
0.00569519
0.00549746
0.00549264
0.0059465
0.00702296
0.00862789
0.0104378
0.0120379
0.0130612
0.0132898
0.0126964
0.0114159
0.00977434
0.00819057
0.00704475
0.00636362
0.00602815
0.0059296
0.0059787
0.00609442
0.00619522
0.00619074
0.00605989
0.00579817
0.00539697
0.00485876
0.00419633
0.00337797
0.00236393
0.00185562
0.00263546
0.0040568
0.00545466
0.00226929
0.00270947
0.00281965
0.00416525
0.00489755
0.00512529
0.00513066
0.00508316
0.00518193
0.00581595
0.00715926
0.00904232
0.0110695
0.012801
0.0138732
0.0140725
0.0133552
0.0118936
0.00996124
0.00812029
0.00668117
0.00570441
0.00512342
0.00483186
0.00471572
0.0046995
0.0047341
0.00476457
0.0047105
0.00451823
0.00418603
0.00373515
0.00323422
0.00277858
0.00242952
0.0021848
0.00214059
0.00280587
0.00444743
0.00550585
0.0024125
0.000965371
0.00174118
0.00267188
0.0034182
0.00428576
0.0057592
0.00792073
0.0103092
0.0124725
0.0140809
0.0149149
0.0148342
0.0138443
0.0120445
0.00990377
0.00787159
0.00625327
0.00515124
0.00452266
0.00419007
0.00400066
0.00387749
0.00378841
0.00371436
0.00362885
0.0034897
0.00326167
0.00296399
0.0026591
0.00243002
0.00232694
0.00234835
0.00248067
0.00276908
0.00344753
0.00525948
0.00578891
0.00244678
0.00178726
0.00247359
0.00360111
0.0056129
0.00833682
0.0110525
0.0131452
0.0146423
0.0155361
0.0157716
0.0152409
0.0138375
0.0117757
0.00945224
0.00732206
0.00571008
0.00473462
0.00422906
0.00395805
0.00378709
0.0036654
0.00357519
0.00350592
0.00344397
0.00336867
0.00325575
0.00310269
0.00294023
0.0028175
0.00278112
0.0028492
0.00301217
0.00326457
0.0036483
0.00430358
0.00579525
0.00629718
0.00246934
0.00323857
0.00785504
0.0072499
0.00650031
0.0082567
0.0109919
0.0132891
0.014827
0.015624
0.0158059
0.015474
0.0145902
0.013115
0.0111213
0.0088934
0.00686216
0.00542861
0.00463729
0.00422396
0.003974
0.00379986
0.003679
0.00360843
0.00358478
0.00359699
0.00362489
0.00364175
0.00362447
0.00358675
0.00355806
0.00356123
0.0036135
0.00372021
0.00387242
0.0040556
0.00426636
0.00452766
0.00488218
0.00503295
0.00235225
0.00309574
0.00598472
0.00774492
0.00990604
0.0109929
0.0121095
0.012754
0.0129009
0.0126415
0.0120414
0.0111296
0.00992631
0.00850256
0.00703973
0.00580227
0.00494138
0.00437572
0.00400672
0.00374257
0.00354545
0.00341049
0.00334366
0.00334921
0.00342302
0.00354921
0.00369927
0.00383516
0.00391961
0.00397279
0.00402803
0.00410503
0.00421354
0.00435565
0.00452866
0.00473094
0.00496617
0.00524022
0.00558815
0.00565085
0.0023115
0.00289513
0.00248011
0.00246719
0.00253782
0.0025954
0.00251418
0.00235977
0.00218099
0.00200334
0.00183678
0.00168402
0.00154704
0.00143044
0.00134071
0.00128143
0.0012503
0.00124114
0.00124226
0.00125153
0.00126862
0.00129303
0.00132329
0.00135718
0.00139238
0.00142709
0.00146044
0.0014926
0.00152482
0.00155766
0.00159325
0.00163379
0.00168072
0.00173467
0.00179544
0.00186175
0.00193134
0.00200696
0.00211638
0.00228021
0.00224464
)
;

boundaryField
{
    floor
    {
        type            compressible::alphatWallFunction;
        Prt             0.85;
        value           nonuniform List<scalar> 
36
(
0.000219922
0.0001045
0.000149953
0.000151161
0.000147566
0.000141519
0.000133382
0.00012521
0.000117624
0.000110737
0.000104521
9.89482e-05
9.39119e-05
8.92969e-05
8.49641e-05
8.07225e-05
7.62596e-05
7.25285e-05
6.49384e-05
6.49376e-05
8.4145e-05
9.63765e-05
0.000106452
0.000127204
0.000166692
0.00015985
0.000219919
0.000239735
0.000229125
0.000219775
0.000104498
0.000219773
0.000186242
0.000266717
0.000232706
0.000265723
)
;
    }
    ceiling
    {
        type            compressible::alphatWallFunction;
        Prt             0.85;
        value           nonuniform List<scalar> 
43
(
0.000391226
0.000338831
0.00033719
0.000346182
0.000353499
0.000343222
0.000323554
0.000300593
0.000277564
0.000255765
0.00023558
0.000217312
0.000201629
0.000189474
0.000181401
0.000177143
0.000175891
0.000176044
0.000177307
0.000179639
0.000182972
0.000187104
0.000191729
0.000196528
0.000201253
0.000205783
0.000210139
0.000214487
0.000218905
0.000223674
0.000229087
0.000235336
0.000242502
0.000250553
0.000259308
0.000268452
0.000278271
0.000292308
0.000313342
0.000309046
0.000368218
0.000382068
0.000248599
)
;
    }
    sWall
    {
        type            compressible::alphatWallFunction;
        Prt             0.85;
        value           nonuniform List<scalar> 9(0.000507618 0.000477907 0.000438229 0.000402263 0.000403452 0.000366644 0.000432055 0.000414394 0.000389475);
    }
    nWall
    {
        type            compressible::alphatWallFunction;
        Prt             0.85;
        value           nonuniform List<scalar> 
14
(
0.000159403
0.000189855
0.000222124
0.000328596
0.00032647
0.000317192
0.000307502
0.000311602
0.000329695
0.000334046
0.000336711
0.000321807
0.000316862
0.000308366
)
;
    }
    sideWalls
    {
        type            empty;
    }
    glass1
    {
        type            compressible::alphatWallFunction;
        Prt             0.85;
        value           nonuniform List<scalar> 9(0.000143926 0.000209132 0.000262688 0.000313295 0.000362366 0.000409986 0.00045799 0.000498846 0.00051122);
    }
    glass2
    {
        type            compressible::alphatWallFunction;
        Prt             0.85;
        value           nonuniform List<scalar> 2(0.000283538 0.00031965);
    }
    sun
    {
        type            compressible::alphatWallFunction;
        Prt             0.85;
        value           nonuniform List<scalar> 
14
(
0.00014796
0.000157642
0.000157082
0.00016375
0.000169833
0.000175338
0.000180446
0.000185356
0.000190285
0.000195507
0.000200475
0.000205181
0.000209806
0.000214764
)
;
    }
    Table_master
    {
        type            compressible::alphatWallFunction;
        Prt             0.85;
        value           nonuniform List<scalar> 9(0.000191071 0.000166902 0.000147974 0.000132959 0.000120864 0.000110994 0.000102864 9.61955e-05 9.09586e-05);
    }
    Table_slave
    {
        type            compressible::alphatWallFunction;
        Prt             0.85;
        value           nonuniform List<scalar> 9(0.000216383 0.000197624 0.000182964 0.000170671 0.000160109 0.000150551 0.000141472 0.000132386 0.000122489);
    }
    inlet
    {
        type            fixedValue;
        value           uniform 1.94e-05;
    }
    outlet
    {
        type            zeroGradient;
    }
}


// ************************************************************************* //
