/*--------------------------------*- C++ -*----------------------------------*\
  =========                 |
  \\      /  F ield         | OpenFOAM: The Open Source CFD Toolbox
   \\    /   O peration     | Website:  https://openfoam.org
    \\  /    A nd           | Version:  6
     \\/     M anipulation  |
\*---------------------------------------------------------------------------*/
FoamFile
{
    version     2.0;
    format      ascii;
    class       volScalarField;
    location    "29199.9999982597328";
    object      nut;
}
// * * * * * * * * * * * * * * * * * * * * * * * * * * * * * * * * * * * * * //

dimensions      [0 2 -1 0 0 0 0];

internalField   nonuniform List<scalar> 
778
(
0.000894301
0.000953034
0.000949543
0.000990744
0.00102851
0.00106282
0.00109476
0.00112557
0.00115659
0.00118956
0.00122101
0.00125088
0.0012803
0.00131192
0.00134491
0.000632391
0.000905355
0.000912747
0.000890718
0.000853808
0.000804447
0.000755224
0.000709865
0.000668978
0.000632331
0.000599688
0.000570373
0.000543668
0.000518742
0.000494481
0.000469111
0.000448034
0.000405552
0.00131078
0.00258102
0.00226498
0.00261425
0.00286763
0.00313627
0.00340427
0.00365131
0.00385025
0.00396619
0.00403435
0.00400639
0.00380656
0.00331147
0.00241842
0.00147249
0.0014039
0.0013438
0.00113077
0.00192641
0.00267036
0.00310997
0.00313072
0.00247071
0.00211303
0.00186523
0.00167714
0.00152746
0.00139973
0.00128686
0.00118185
0.00107914
0.000986971
0.000907499
0.00102197
0.000514097
0.00166403
0.00360421
0.0026722
0.00382224
0.00427082
0.00465043
0.00499524
0.00529881
0.00555611
0.00575798
0.00595347
0.00615908
0.00634784
0.00645979
0.00638442
0.00584472
0.00427405
0.00164817
0.0014268
0.00305237
0.00425945
0.00483062
0.00439306
0.00115935
0.00100819
0.000891566
0.000800296
0.000727643
0.000668983
0.000621126
0.000582198
0.000551849
0.000606715
0.000713636
0.00112957
0.000584771
0.00200526
0.00485811
0.00255722
0.0042982
0.00496249
0.00531797
0.00557942
0.00577293
0.00591749
0.00603482
0.00620137
0.00648254
0.00689249
0.00740755
0.00792477
0.00817852
0.0076777
0.00572451
0.00164155
0.00380428
0.00565686
0.00659715
0.00682892
0.0058296
0.00132008
0.00120073
0.00110837
0.00103158
0.000966127
0.00090733
0.000851884
0.000796811
0.000737334
0.000688917
0.000714015
0.00122244
0.000643783
0.002342
0.00643268
0.00258012
0.00408646
0.00510797
0.00541126
0.00552155
0.00552612
0.00547162
0.00542346
0.0054934
0.00576665
0.00626763
0.00697653
0.00779827
0.00855487
0.00903476
0.00902883
0.00810344
0.00824582
0.00843413
0.00845982
0.00828741
0.00775693
0.00617302
0.00533248
0.00475684
0.00428881
0.00383009
0.00338583
0.00295118
0.00251699
0.00207077
0.00159076
0.00121411
0.00121201
0.000959001
0.000767334
0.00100896
0.000966756
0.00267363
0.00819579
0.00303764
0.00344636
0.00489464
0.00523124
0.00520474
0.00501786
0.00475052
0.00453
0.00452534
0.00481157
0.00538237
0.00620426
0.00716597
0.00812619
0.00894422
0.00946684
0.00956196
0.00946565
0.009297
0.00905811
0.00875158
0.00836201
0.00779379
0.00724653
0.00674975
0.00626919
0.00575067
0.0051971
0.0046058
0.0039716
0.00329046
0.00256787
0.00191416
0.00143733
0.00111546
0.00125065
0.00216983
0.0011571
0.00301216
0.00982727
0.0040482
0.00282361
0.00439837
0.00494864
0.004888
0.00458533
0.00414602
0.00375935
0.00374822
0.00410935
0.00476246
0.00568066
0.00672584
0.00776024
0.00865078
0.0092889
0.00958251
0.00955949
0.0093489
0.00903023
0.00866566
0.00830225
0.00795095
0.00762871
0.0073261
0.00700291
0.00661289
0.00614353
0.00558773
0.00494269
0.00421101
0.00341189
0.00263175
0.00190409
0.00140203
0.00125293
0.00219862
0.00136269
0.00330351
0.0110643
0.0055205
0.00268864
0.00348463
0.00438731
0.00451336
0.00426452
0.00374548
0.00321908
0.0033385
0.00381592
0.00454579
0.00549177
0.0065766
0.00765933
0.00858341
0.00922594
0.00951805
0.00948001
0.00920842
0.00880788
0.00837726
0.00799553
0.00770134
0.00749118
0.0073274
0.00714932
0.0069018
0.00655537
0.00609616
0.00552131
0.00483661
0.00406345
0.00326161
0.00245136
0.00172212
0.00113799
0.00316845
0.00177897
0.00339332
0.0104839
0.00683674
0.00347688
0.00236281
0.00289597
0.00338845
0.00342992
0.00302881
0.00294446
0.00325056
0.00381162
0.00459997
0.00560219
0.00673845
0.00785433
0.00877539
0.00936879
0.00957772
0.00943488
0.00904135
0.00852505
0.00801301
0.00760468
0.00734552
0.0072182
0.0071605
0.00709207
0.00694993
0.00669992
0.00632832
0.0058336
0.00522266
0.00451358
0.00373806
0.00286981
0.00171591
0.00137698
0.00480835
0.00202111
0.00332467
0.00845849
0.00706635
0.00477566
0.00315284
0.00244133
0.00231263
0.00242151
0.0026253
0.00294981
0.0034093
0.00404001
0.00489623
0.00597566
0.00717305
0.00830459
0.00917798
0.00965999
0.00971121
0.00938852
0.00881956
0.00816476
0.00758073
0.0071809
0.00699765
0.00697597
0.00701545
0.0070146
0.0069226
0.00672006
0.00640028
0.00596288
0.00541245
0.00475499
0.00395906
0.0027967
0.00136052
0.00229567
0.0049644
0.00206592
0.00311444
0.00723152
0.0068353
0.00546822
0.00420677
0.00338627
0.00298096
0.0028898
0.00305844
0.00336803
0.00381654
0.00448097
0.00542506
0.0066074
0.0078653
0.00897318
0.00972671
0.0100083
0.00981238
0.0092369
0.00845464
0.00767184
0.00707801
0.00678015
0.00674529
0.0068423
0.00694056
0.00694224
0.00684525
0.00664871
0.00634826
0.00593979
0.00542006
0.00476514
0.00379359
0.00218804
0.00145202
0.00289948
0.00484672
0.00205209
0.00283612
0.00652108
0.00659536
0.00579067
0.00492457
0.00427328
0.00389026
0.00375359
0.0037888
0.0039755
0.00438613
0.0051268
0.00621698
0.00752586
0.00881069
0.00980853
0.0103247
0.010284
0.00973943
0.00885115
0.00786058
0.0070345
0.00656805
0.00647269
0.00655199
0.00668051
0.00676659
0.00674311
0.00663092
0.00643181
0.00613822
0.00573954
0.00521906
0.00449246
0.00309965
0.00153902
0.00188471
0.00321438
0.0044466
0.0019902
0.00258645
0.00583301
0.00629819
0.00591737
0.00536122
0.00489449
0.00458448
0.0044334
0.00438843
0.00454672
0.00506662
0.00603336
0.00735193
0.00876893
0.00997159
0.0106968
0.010804
0.0102966
0.00931749
0.00811509
0.00702936
0.0063338
0.00602482
0.00597946
0.00606079
0.00617836
0.00625974
0.0062418
0.00613274
0.00593242
0.00563137
0.0052159
0.00465674
0.00380322
0.00234259
0.00149986
0.00217635
0.0033618
0.004156
0.00192507
0.00259425
0.00578892
0.00643478
0.00598933
0.00553918
0.0051708
0.00490535
0.004733
0.00472454
0.00510848
0.00602551
0.00739524
0.00894187
0.0103116
0.0111906
0.011391
0.0108871
0.00979285
0.00838689
0.0070289
0.00604573
0.00546103
0.0051729
0.00508808
0.00512998
0.00522906
0.00531538
0.0053114
0.00519903
0.00497441
0.00463015
0.00416838
0.00360006
0.00289799
0.00202809
0.00159218
0.0022621
0.00348391
0.00468612
0.0019503
0.00234164
0.00243532
0.00359195
0.004219
0.00441222
0.00441444
0.0043708
0.00445025
0.00498692
0.00613066
0.00773729
0.00947027
0.0109548
0.011879
0.0120576
0.0114504
0.0102025
0.00854811
0.00696948
0.00573455
0.00489608
0.00439721
0.00414677
0.00404689
0.00403277
0.00406228
0.00408825
0.00404174
0.00387668
0.00359159
0.00320471
0.00277493
0.00238403
0.00208457
0.00187467
0.00183688
0.00240834
0.00381913
0.0047295
0.00207299
0.000807911
0.0014661
0.00226266
0.00290344
0.00364454
0.00490054
0.00674537
0.00878896
0.0106464
0.0120345
0.0127625
0.0127068
0.011869
0.0103331
0.00849991
0.00675709
0.00536822
0.00442214
0.0038824
0.00359676
0.00343403
0.00332815
0.00325154
0.00318783
0.0031143
0.00299476
0.002799
0.00254352
0.0022819
0.00208537
0.00199699
0.00201547
0.00212913
0.00237681
0.00295952
0.00451649
0.0049723
0.00210234
0.0014972
0.00207796
0.00303434
0.00474324
0.00706336
0.00938686
0.0111896
0.0124895
0.0132749
0.0134958
0.0130579
0.0118664
0.0101045
0.00811396
0.00628659
0.00490291
0.00406538
0.00363125
0.00339849
0.00325166
0.0031471
0.00306957
0.00300998
0.00295666
0.00289187
0.0027948
0.00266334
0.00252386
0.00241857
0.00238745
0.00244607
0.00258618
0.00280309
0.00313278
0.00369576
0.00497746
0.00540941
0.0021219
0.0027575
0.00666427
0.00612245
0.00547933
0.00697761
0.00932041
0.0113022
0.0126411
0.013346
0.0135212
0.0132529
0.0125079
0.0112516
0.00954608
0.00763616
0.00589304
0.00466226
0.00398274
0.00362778
0.00341313
0.0032636
0.00315981
0.00309921
0.00307885
0.00308925
0.00311307
0.0031274
0.0031124
0.0030799
0.00305523
0.003058
0.00310303
0.0031949
0.00332592
0.00348361
0.00366503
0.0038899
0.00419488
0.00432475
0.00202164
0.00263912
0.00509983
0.00658689
0.00841025
0.0093457
0.0103198
0.010893
0.0110374
0.0108293
0.0103248
0.00954938
0.00852103
0.00730124
0.00604631
0.00498401
0.00424472
0.00375891
0.003442
0.00321515
0.00304589
0.00293002
0.00287266
0.00287744
0.00294083
0.00304917
0.00317796
0.00329454
0.00336693
0.00341248
0.00345987
0.00352602
0.00361933
0.00374159
0.00389048
0.00406458
0.00426705
0.00450288
0.0048022
0.00485642
0.00198708
0.0024741
0.0021194
0.00210878
0.00216981
0.0022202
0.00215319
0.00202312
0.00187134
0.00171986
0.00157745
0.00144659
0.00132912
0.00122904
0.001152
0.00110109
0.00107435
0.00106649
0.00106748
0.00107548
0.0010902
0.0011112
0.00113723
0.00116636
0.00119659
0.0012264
0.00125502
0.00128262
0.00131026
0.00133845
0.00136903
0.00140387
0.00144422
0.00149063
0.00154293
0.00160002
0.00165995
0.00172509
0.0018193
0.00196027
0.00192998
)
;

boundaryField
{
    floor
    {
        type            nutkWallFunction;
        Cmu             0.09;
        kappa           0.41;
        E               9.8;
        value           nonuniform List<scalar> 
36
(
0.000160581
7.63847e-05
0.00010952
0.000110399
0.000107777
0.000103366
9.74315e-05
9.14708e-05
8.59372e-05
8.09128e-05
7.63782e-05
7.23122e-05
6.86376e-05
6.52701e-05
6.21084e-05
5.9013e-05
5.57557e-05
5.30328e-05
4.74942e-05
4.74941e-05
6.15168e-05
7.04448e-05
7.77987e-05
9.29412e-05
0.000121756
0.000116796
0.000160581
0.00017502
0.000167275
0.000160454
7.63847e-05
0.000160454
0.00013599
0.00019468
0.000169864
0.000193941
)
;
    }
    ceiling
    {
        type            nutkWallFunction;
        Cmu             0.09;
        kappa           0.41;
        E               9.8;
        value           nonuniform List<scalar> 
43
(
0.000284361
0.000246295
0.000245148
0.000251751
0.000257192
0.000249979
0.000235889
0.000219313
0.000202616
0.000186769
0.000172068
0.000158748
0.000147305
0.000138432
0.000132538
0.000129429
0.000128516
0.00012863
0.000129557
0.000131264
0.000133701
0.000136722
0.000140101
0.000143606
0.000147055
0.000150359
0.000153537
0.00015671
0.000159933
0.000163415
0.00016737
0.000171938
0.000177178
0.000183067
0.000189474
0.000196166
0.000203356
0.000213628
0.000229012
0.000225904
0.000270419
0.000280429
0.000177591
)
;
    }
    sWall
    {
        type            nutkWallFunction;
        Cmu             0.09;
        kappa           0.41;
        E               9.8;
        value           nonuniform List<scalar> 9(0.000373891 0.000352082 0.000322975 0.000296615 0.000297439 0.000270508 0.000314393 0.000301929 0.000284462);
    }
    nWall
    {
        type            nutkWallFunction;
        Cmu             0.09;
        kappa           0.41;
        E               9.8;
        value           nonuniform List<scalar> 
14
(
0.000116804
0.000139055
0.000162617
0.000240593
0.00023905
0.000232288
0.000225229
0.000228212
0.000241398
0.000244567
0.000246533
0.000235678
0.000232111
0.000225939
)
;
    }
    sideWalls
    {
        type            empty;
    }
    glass1
    {
        type            nutkWallFunction;
        Cmu             0.09;
        kappa           0.41;
        E               9.8;
        value           nonuniform List<scalar> 9(0.000108247 0.000156882 0.000196737 0.00023435 0.000270793 0.000306142 0.000341757 0.000372076 0.000381376);
    }
    glass2
    {
        type            nutkWallFunction;
        Cmu             0.09;
        kappa           0.41;
        E               9.8;
        value           nonuniform List<scalar> 2(0.000209281 0.000235873);
    }
    sun
    {
        type            nutkWallFunction;
        Cmu             0.09;
        kappa           0.41;
        E               9.8;
        value           nonuniform List<scalar> 
14
(
0.000108206
0.000115177
0.000114764
0.000119628
0.000124065
0.000128081
0.000131806
0.000135387
0.000138981
0.00014279
0.000146411
0.000149842
0.000153211
0.000156824
)
;
    }
    Table_master
    {
        type            nutkWallFunction;
        Cmu             0.09;
        kappa           0.41;
        E               9.8;
        value           nonuniform List<scalar> 9(0.000139293 0.000121674 0.000107875 9.69302e-05 8.81126e-05 8.09172e-05 7.49909e-05 7.01297e-05 6.63123e-05);
    }
    Table_slave
    {
        type            nutkWallFunction;
        Cmu             0.09;
        kappa           0.41;
        E               9.8;
        value           nonuniform List<scalar> 9(0.000157742 0.000144067 0.000133381 0.000124419 0.00011672 0.000109752 0.000103133 9.65093e-05 8.92946e-05);
    }
    inlet
    {
        type            calculated;
        value           uniform 0.000167705;
    }
    outlet
    {
        type            calculated;
        value           nonuniform List<scalar> 2(0.0027575 0.00666427);
    }
}


// ************************************************************************* //
