/*--------------------------------*- C++ -*----------------------------------*\
  =========                 |
  \\      /  F ield         | OpenFOAM: The Open Source CFD Toolbox
   \\    /   O peration     | Website:  https://openfoam.org
    \\  /    A nd           | Version:  6
     \\/     M anipulation  |
\*---------------------------------------------------------------------------*/
FoamFile
{
    version     2.0;
    format      ascii;
    class       volScalarField;
    location    "39799.9999991212026";
    object      nut;
}
// * * * * * * * * * * * * * * * * * * * * * * * * * * * * * * * * * * * * * //

dimensions      [0 2 -1 0 0 0 0];

internalField   nonuniform List<scalar> 
778
(
0.000894339
0.00095309
0.000949594
0.000990782
0.00102852
0.0010628
0.0010947
0.00112546
0.00115643
0.00118934
0.00122075
0.00125059
0.00127999
0.00131162
0.00134462
0.00063219
0.000905618
0.000912929
0.00089083
0.000853844
0.000804403
0.000755152
0.000709821
0.00066898
0.000632367
0.000599734
0.000570416
0.000543702
0.000518765
0.000494496
0.000469119
0.000448037
0.000405557
0.00131083
0.00258126
0.00226515
0.00261455
0.00286805
0.00313675
0.00340473
0.00365164
0.00385036
0.00396605
0.00403406
0.00400606
0.00380636
0.0033115
0.00241854
0.0014723
0.0014037
0.00134368
0.00113127
0.00192701
0.00267127
0.00311095
0.00313156
0.0024709
0.00211327
0.00186528
0.00167697
0.0015272
0.00139959
0.0012868
0.00118185
0.00107916
0.00098701
0.000907561
0.00102206
0.000514225
0.0016641
0.00360463
0.00267225
0.0038225
0.0042713
0.004651
0.00499574
0.00529904
0.00555594
0.00575737
0.00595254
0.006158
0.00634697
0.00645969
0.00638568
0.00584743
0.0042769
0.00164822
0.00142674
0.00305158
0.00425951
0.00483189
0.00439553
0.00115987
0.0010086
0.00089183
0.000800427
0.000727684
0.00066898
0.000621116
0.0005822
0.000551864
0.000606616
0.000713534
0.00112945
0.000585072
0.00200536
0.00485885
0.00255727
0.00429815
0.00496279
0.00531839
0.00557977
0.00577303
0.00591715
0.0060339
0.0061999
0.00648057
0.00689035
0.00740586
0.00792429
0.00818016
0.00768247
0.00573401
0.00164118
0.00379705
0.00565022
0.00659377
0.00682828
0.00583119
0.00132029
0.00120102
0.00110868
0.00103182
0.000966301
0.000907455
0.000851983
0.000796907
0.000737445
0.000688843
0.000713833
0.00122217
0.000644376
0.00234214
0.00643379
0.00258044
0.004086
0.00510799
0.00541145
0.00552172
0.00552609
0.00547118
0.00542242
0.00549171
0.00576428
0.0062648
0.00697378
0.00779598
0.00855338
0.00903333
0.00902688
0.00810032
0.00824051
0.00842939
0.0084569
0.00828641
0.00775774
0.0061751
0.00533484
0.00475912
0.00429177
0.00383282
0.00338795
0.00295262
0.00251786
0.00207132
0.00159117
0.00121444
0.00121219
0.000959645
0.000768177
0.00100886
0.000971792
0.00267381
0.00819719
0.00303851
0.0034457
0.00489434
0.00523121
0.00520472
0.00501767
0.00475001
0.00452911
0.00452402
0.00480976
0.00538032
0.00620265
0.00716451
0.00812521
0.0089417
0.009463
0.00955721
0.00946063
0.00929276
0.00905529
0.00875028
0.00836209
0.00779497
0.00724822
0.00675157
0.0062718
0.00575324
0.00519917
0.00460724
0.00397254
0.00329111
0.00256828
0.00191447
0.00143765
0.00111671
0.00124573
0.00215696
0.00116393
0.00301239
0.00982869
0.00404986
0.0028232
0.0043977
0.00494845
0.00488793
0.00458515
0.00414564
0.00375891
0.00374774
0.00410881
0.00476234
0.00568221
0.00672758
0.0077617
0.00865078
0.00928693
0.00957902
0.00955562
0.00934559
0.00902801
0.00866459
0.00830215
0.00795155
0.00762964
0.00732708
0.0070044
0.00661429
0.00614456
0.00558839
0.00494319
0.00421134
0.00341162
0.00263068
0.00190445
0.00140366
0.00124842
0.00219308
0.00136889
0.00330375
0.0110654
0.00552274
0.00268909
0.00348334
0.00438653
0.00451325
0.00426471
0.00374473
0.0032193
0.00333862
0.0038165
0.00454792
0.0054962
0.00658271
0.00766535
0.00858753
0.00922738
0.00951736
0.00947849
0.00920718
0.00880739
0.00837743
0.00799616
0.0077023
0.00749231
0.00732845
0.00715051
0.00690261
0.00655565
0.00609612
0.00552121
0.00483619
0.00406148
0.00325707
0.00244966
0.00172087
0.00115168
0.00309408
0.0017793
0.00339344
0.010483
0.0068384
0.00347912
0.00236236
0.0028933
0.00338693
0.00342965
0.00302866
0.00294425
0.00325032
0.00381266
0.00460409
0.00561031
0.0067494
0.00786531
0.00878382
0.00937375
0.00958013
0.00943645
0.0090433
0.00852761
0.00801571
0.00760722
0.00734802
0.00722079
0.00716296
0.00709436
0.0069514
0.00670043
0.00632816
0.00583299
0.00522087
0.00450858
0.00372878
0.00285714
0.00168314
0.00144622
0.00462773
0.00204632
0.00332464
0.0084564
0.00706663
0.00477789
0.00315488
0.00244185
0.00231172
0.00242023
0.00262423
0.00294856
0.00340851
0.00404166
0.0049028
0.00598794
0.00718888
0.00831996
0.00918966
0.00966739
0.00971616
0.00939346
0.00882571
0.00817166
0.0075871
0.00718648
0.00700313
0.00698183
0.00702124
0.00702012
0.00692672
0.00672267
0.00640176
0.00596315
0.00541005
0.00474836
0.00395308
0.00272515
0.00124748
0.00282736
0.00444109
0.00206621
0.00311418
0.00722927
0.00683473
0.00546944
0.00420857
0.00338765
0.00298148
0.00288943
0.00305739
0.00336654
0.00381598
0.00448427
0.0054352
0.00662447
0.0078855
0.00899113
0.00973905
0.0100157
0.0098185
0.00924514
0.00846563
0.00768354
0.00708804
0.00678955
0.00675593
0.006854
0.00695168
0.00695317
0.00685392
0.00665574
0.00635473
0.00594507
0.00542231
0.00477382
0.00389099
0.00226275
0.00145339
0.00320444
0.00416402
0.00203134
0.00283566
0.00651955
0.00659476
0.00579134
0.00492581
0.00427455
0.00389124
0.0037545
0.00378858
0.00397475
0.00438707
0.00513344
0.00623219
0.00754788
0.00883327
0.00982505
0.0103329
0.0102875
0.00974451
0.00886175
0.00787471
0.00704804
0.00658043
0.00648808
0.00657195
0.00670025
0.00678312
0.00675882
0.00664341
0.00644377
0.00615211
0.00574989
0.00522149
0.00453963
0.00359135
0.00202581
0.0015979
0.00332612
0.00441332
0.00199598
0.00258612
0.00583367
0.00629908
0.00591869
0.00536273
0.00489603
0.00458588
0.00443416
0.00438842
0.00454689
0.00507038
0.00604534
0.00737323
0.00879408
0.00999127
0.0107042
0.0108003
0.0102904
0.00931782
0.00812309
0.00703688
0.00634289
0.00604467
0.00601593
0.0061045
0.00621284
0.00627812
0.00625634
0.00614042
0.00594053
0.00564223
0.00521451
0.00462096
0.00384346
0.00291223
0.00191836
0.00172184
0.0034079
0.00465639
0.00209997
0.00259506
0.00579017
0.00643724
0.00599148
0.00554109
0.00517249
0.00490668
0.00473316
0.00472413
0.00510999
0.00603403
0.0074143
0.00896778
0.0103333
0.0111964
0.011377
0.0108609
0.00976938
0.00837278
0.0070179
0.00603951
0.00547792
0.00522608
0.00516925
0.00521121
0.00527885
0.00532375
0.00531004
0.00518922
0.00497112
0.00462322
0.00409135
0.00336
0.00255905
0.00196066
0.00173976
0.00206399
0.00373642
0.00465017
0.00215756
0.00234222
0.00243559
0.00359225
0.00421918
0.00441205
0.00441364
0.00436908
0.00444786
0.00498551
0.00613523
0.00775294
0.00949505
0.0109769
0.0118817
0.0120309
0.0113988
0.0101411
0.00849165
0.00691759
0.00569593
0.00489314
0.00444398
0.00423908
0.00416203
0.00413228
0.00410675
0.00406684
0.00400046
0.0038556
0.00360961
0.00323371
0.00270458
0.00213301
0.00176094
0.00172242
0.00199295
0.00264625
0.00425412
0.00494623
0.0021724
0.000807285
0.00146427
0.00225844
0.00289623
0.00363439
0.00489179
0.00674271
0.00879841
0.0106667
0.0120533
0.01276
0.0126651
0.0117862
0.0102256
0.00837991
0.00664224
0.00528122
0.00438597
0.00390433
0.00367136
0.00354356
0.00344322
0.00333821
0.00322043
0.00309343
0.00296269
0.00282352
0.00263799
0.00239935
0.00211379
0.00187726
0.00184138
0.00207149
0.00253333
0.00321073
0.00412937
0.00470786
0.00208052
0.00149723
0.00207266
0.00302225
0.00472314
0.00704146
0.00937055
0.0111861
0.0124979
0.0132835
0.0134833
0.0129997
0.0117449
0.00992381
0.00789819
0.00607528
0.00474484
0.0039896
0.00364362
0.00348896
0.00339669
0.00331386
0.0032241
0.00312715
0.00302896
0.00293573
0.00284952
0.00276464
0.00266667
0.00255185
0.0024315
0.00234961
0.00239578
0.00264491
0.00308775
0.0036315
0.00406577
0.00407774
0.00201904
0.00275787
0.00667242
0.00612415
0.00546347
0.00694792
0.00928598
0.0112703
0.0126187
0.0133354
0.0135141
0.0132237
0.0124311
0.0111058
0.00931274
0.00733229
0.00560492
0.00449109
0.0039626
0.00375315
0.00365752
0.00358362
0.00350062
0.00340394
0.00330019
0.00320087
0.0031188
0.00306493
0.003045
0.00305604
0.00308144
0.00309973
0.00312101
0.00317434
0.00330282
0.003559
0.00397883
0.00455059
0.0051842
0.00549825
0.00213433
0.00263904
0.00509461
0.00656312
0.00838376
0.00931079
0.01028
0.0108533
0.0110028
0.0108022
0.0102991
0.00950378
0.00840997
0.00707924
0.00571742
0.00462183
0.00395715
0.0036507
0.00353185
0.0034801
0.0034375
0.00338153
0.00330749
0.00321996
0.00312928
0.00305031
0.00300119
0.00300063
0.00306313
0.00319296
0.00337589
0.0035642
0.00371427
0.00386735
0.00407544
0.00438662
0.00483831
0.00545324
0.00632234
0.00596206
0.0023678
0.00247343
0.00211992
0.00210943
0.00217106
0.00222223
0.00215672
0.00202775
0.00187529
0.00171975
0.00156889
0.00142592
0.0012961
0.00118899
0.00111436
0.00107423
0.00106067
0.00106124
0.00106766
0.00107619
0.00108564
0.0010963
0.00110949
0.00112712
0.00115136
0.00118398
0.00122556
0.00127509
0.00133017
0.00138791
0.00144619
0.00150462
0.001564
0.00162472
0.00169039
0.00176495
0.0018501
0.00194382
0.00204716
0.00217065
0.00215768
)
;

boundaryField
{
    floor
    {
        type            nutkWallFunction;
        Cmu             0.09;
        kappa           0.41;
        E               9.8;
        value           nonuniform List<scalar> 
36
(
0.000160548
7.63597e-05
0.000109551
0.00011042
0.000107789
0.000103369
9.74254e-05
9.14615e-05
8.59313e-05
8.09127e-05
7.63823e-05
7.23175e-05
6.86426e-05
6.5274e-05
6.2111e-05
5.90145e-05
5.57565e-05
5.3033e-05
4.74947e-05
4.74946e-05
6.15329e-05
7.04825e-05
7.78718e-05
9.30443e-05
0.000121772
0.000117403
0.000160548
0.000174998
0.000167252
0.000160439
7.63597e-05
0.000160439
0.000136047
0.000194685
0.000169857
0.0001939
)
;
    }
    ceiling
    {
        type            nutkWallFunction;
        Cmu             0.09;
        kappa           0.41;
        E               9.8;
        value           nonuniform List<scalar> 
43
(
0.000284291
0.000246352
0.000245219
0.000251888
0.000257415
0.00025037
0.00023641
0.000219774
0.000202644
0.000185862
0.000169787
0.000155028
0.00014272
0.000134071
0.000129396
0.000127818
0.000127888
0.000128644
0.000129646
0.00013075
0.000131992
0.000133518
0.000135551
0.000138339
0.000142083
0.000146853
0.000152529
0.000158828
0.000165416
0.000172043
0.000178659
0.000185356
0.00019217
0.000199493
0.000207759
0.000217148
0.000227431
0.000238712
0.000252093
0.000250618
0.000270481
0.000280459
0.000177596
)
;
    }
    sWall
    {
        type            nutkWallFunction;
        Cmu             0.09;
        kappa           0.41;
        E               9.8;
        value           nonuniform List<scalar> 9(0.000373888 0.000352055 0.000322927 0.00029658 0.000297526 0.00027057 0.000314432 0.00030192 0.000284392);
    }
    nWall
    {
        type            nutkWallFunction;
        Cmu             0.09;
        kappa           0.41;
        E               9.8;
        value           nonuniform List<scalar> 
14
(
0.00011741
0.000139853
0.00016334
0.000240676
0.000236901
0.000233122
0.000244568
0.000250717
0.000252248
0.00024222
0.000235548
0.000248426
0.000273275
0.000250656
)
;
    }
    sideWalls
    {
        type            empty;
    }
    glass1
    {
        type            nutkWallFunction;
        Cmu             0.09;
        kappa           0.41;
        E               9.8;
        value           nonuniform List<scalar> 9(0.000108251 0.000156887 0.000196745 0.000234361 0.000270808 0.000306161 0.00034178 0.000372101 0.000381388);
    }
    glass2
    {
        type            nutkWallFunction;
        Cmu             0.09;
        kappa           0.41;
        E               9.8;
        value           nonuniform List<scalar> 2(0.000209378 0.000238642);
    }
    sun
    {
        type            nutkWallFunction;
        Cmu             0.09;
        kappa           0.41;
        E               9.8;
        value           nonuniform List<scalar> 
14
(
0.00010821
0.000115184
0.00011477
0.000119632
0.000124067
0.000128078
0.000131799
0.000135374
0.000138963
0.000142765
0.000146382
0.000149808
0.000153176
0.000156789
)
;
    }
    Table_master
    {
        type            nutkWallFunction;
        Cmu             0.09;
        kappa           0.41;
        E               9.8;
        value           nonuniform List<scalar> 9(0.000139351 0.000121722 0.000107906 9.6945e-05 8.81169e-05 8.09162e-05 7.49892e-05 7.01295e-05 6.6314e-05);
    }
    Table_slave
    {
        type            nutkWallFunction;
        Cmu             0.09;
        kappa           0.41;
        E               9.8;
        value           nonuniform List<scalar> 9(0.000157766 0.0001441 0.000133416 0.000124446 0.000116739 0.000109766 0.000103144 9.652e-05 8.93073e-05);
    }
    inlet
    {
        type            calculated;
        value           uniform 0.000167705;
    }
    outlet
    {
        type            calculated;
        value           nonuniform List<scalar> 2(0.00275787 0.00667242);
    }
}


// ************************************************************************* //
