/*--------------------------------*- C++ -*----------------------------------*\
  =========                 |
  \\      /  F ield         | OpenFOAM: The Open Source CFD Toolbox
   \\    /   O peration     | Website:  https://openfoam.org
    \\  /    A nd           | Version:  6
     \\/     M anipulation  |
\*---------------------------------------------------------------------------*/
FoamFile
{
    version     2.0;
    format      ascii;
    class       surfaceScalarField;
    location    "39799.9999991212026";
    object      phi;
}
// * * * * * * * * * * * * * * * * * * * * * * * * * * * * * * * * * * * * * //

dimensions      [1 0 -1 0 0 0 0];

internalField   nonuniform List<scalar> 
1482
(
-0.00279976
0.0028638
-0.00348393
0.00068417
-0.00414452
0.000660585
-0.00475847
0.000613952
-0.00527971
0.000521237
-0.0056915
0.000411795
-0.00598265
0.000291147
-0.00614011
0.000157455
-0.00614654
6.43262e-06
-0.00597596
-0.000170578
-0.00559838
-0.000377575
-0.00498271
-0.000615677
-0.00405867
-0.000924039
-0.00257997
-0.0014787
-0.00257705
-6.42266e-05
6.90812e-05
0.00078069
-0.000844916
0.00143441
-0.000653719
0.00183505
-0.000400646
0.00205773
-0.000222681
0.00216252
-0.000104788
0.00220977
-4.72499e-05
0.00223247
-2.27009e-05
0.00224222
-9.74438e-06
0.00224316
-9.44414e-07
0.00223614
7.02257e-06
0.00221712
1.90223e-05
0.00217276
4.43596e-05
0.00206982
0.000102939
0.00185281
0.000217008
0.00149463
0.000358177
0.00102197
0.000472662
0.00102841
-0.00204035
0.00507447
-0.00290842
0.00155224
-0.00369414
0.0014463
-0.00434502
0.00126483
-0.0048821
0.00105832
-0.0053107
0.000840399
-0.00562907
0.000609521
-0.00583045
0.000358827
-0.00590415
8.01398e-05
-0.00584234
-0.00023239
-0.00563915
-0.000580764
-0.00528321
-0.000971614
-0.00477331
-0.00143395
-0.00428746
-0.00196454
-0.00470348
-0.00216103
-0.00311744
-0.0015806
-0.00163452
-0.00147723
-0.00161968
0.00131785
-0.00123855
0.00166252
-0.0011896
0.00191512
-0.000906315
0.00210743
-0.000592957
0.00221585
-0.000331095
0.00222505
-0.000113994
0.00222704
-4.92325e-05
0.0022286
-2.42669e-05
0.0022295
-1.06394e-05
0.00222946
-9.06164e-07
0.00222808
8.40031e-06
0.00222388
2.32243e-05
0.00221123
5.70097e-05
0.00214922
0.000164948
0.00189933
0.000466895
0.00146927
0.000788245
0.000904442
0.00103749
0.00194973
-0.00148824
0.00682063
-0.00235908
0.00242308
-0.00312894
0.00221616
-0.00371301
0.0018489
-0.0041835
0.00152881
-0.00455477
0.00121167
-0.00482865
0.000883409
-0.00500195
0.000532127
-0.00506828
0.000146464
-0.00501854
-0.000282129
-0.00484195
-0.000757356
-0.004531
-0.00128257
-0.00411644
-0.00184851
-0.00371894
-0.00236204
-0.00329848
-0.00258149
-0.00236711
-0.00251197
-0.00127333
-0.00257102
-0.00288018
0.00115101
-0.00237511
0.00165463
-0.00169321
0.00195333
-0.00120502
0.00214684
-0.000786465
0.00217848
-0.000362734
0.00206464
0.00201556
0.00199145
0.00198096
0.00198021
0.00198877
0.00201215
0.00206931
0.00223441
0.00187616
0.000825148
0.00142808
0.00123632
0.000807275
0.00165829
0.00278303
-0.00110605
0.00825788
-0.00192793
0.00324496
-0.00256986
0.00285809
-0.00303006
0.0023091
-0.00339743
0.00189617
-0.00368602
0.00150026
-0.00389887
0.00109626
-0.00403418
0.00066743
-0.00408444
0.000196725
-0.00403647
-0.000330098
-0.00387794
-0.000915884
-0.00360466
-0.00155585
-0.00323913
-0.00221404
-0.00281717
-0.00278401
-0.00227772
-0.00312094
-0.00155805
-0.00323164
-0.000869878
-0.00325919
-0.00069009
-0.00305997
0.00144646
-0.00212111
0.00137803
-0.00230668
0.0016934
-0.00200858
0.00200583
-0.00151745
0.00227195
-0.00105258
0.0025473
-0.000638084
0.00286327
-0.000316125
0.00303193
-0.000168817
0.00309796
-6.61828e-05
0.00308193
1.58832e-05
0.00299265
8.91235e-05
0.00283117
0.000161321
0.00258974
0.000241284
0.00224543
0.000344149
0.00174095
0.000504328
0.00160488
0.000961222
0.00127799
0.00156321
0.000751398
0.00218488
0.00356872
-0.000803767
0.00945483
-0.0015799
0.0040211
-0.00204845
0.00332665
-0.00236405
0.00262469
-0.00260825
0.00214037
-0.00279358
0.0016856
-0.00292508
0.00122776
-0.00300349
0.000745837
-0.00302228
0.000215523
-0.00296488
-0.000387497
-0.00281801
-0.00106276
-0.00257463
-0.00179923
-0.00224123
-0.00254743
-0.00182491
-0.00320033
-0.0013197
-0.00362615
-0.00074323
-0.00380812
-0.000211957
-0.00379046
0.000265284
-0.00353721
0.00112634
-0.00298216
0.00149213
-0.00267248
0.00175073
-0.00226718
0.00200296
-0.00176968
0.00223276
-0.00128238
0.00244725
-0.000852571
0.00264952
-0.0005184
0.00276111
-0.000280404
0.00279882
-0.000103891
0.00277428
4.04156e-05
0.00269385
0.000169554
0.00256001
0.000295162
0.00237165
0.000429643
0.00212661
0.000589196
0.00183328
0.000797658
0.00162919
0.00116531
0.00149081
0.00170159
0.00131699
0.0023587
0.00231243
0.00257328
0.00134151
0.00100583
0.00187682
-0.000506536
0.00199555
-0.000575866
0.0104771
-0.00132477
0.00477
-0.00158429
0.00358617
-0.0017501
0.0027905
-0.00186393
0.00225421
-0.00193524
0.0017569
-0.00197049
0.00126301
-0.00197402
0.000749361
-0.0019426
0.000184106
-0.00185462
-0.000475477
-0.00170027
-0.00121711
-0.00146953
-0.00202997
-0.00116528
-0.00285168
-0.000793317
-0.0035723
-0.000373839
-0.00404562
6.63118e-05
-0.00424827
0.000471528
-0.00419568
0.000845985
-0.00391167
0.00129693
-0.00343311
0.00159562
-0.00297118
0.0017987
-0.00247026
0.00197006
-0.00194105
0.00212194
-0.00143425
0.00225706
-0.000987698
0.00236311
-0.000624446
0.00242285
-0.000340145
0.00243558
-0.000116615
0.00240628
6.97117e-05
0.00233963
0.0002362
0.0022394
0.000395398
0.00210971
0.000559334
0.00195789
0.000741009
0.001799
0.000956548
0.00171012
0.0012542
0.00177166
0.00164004
0.0019908
0.00213956
0.00224385
0.00232023
0.00175939
0.0014903
0.000834109
0.000418739
0.002927
-0.000543534
0.0115128
-0.00124375
0.00547021
-0.00119196
0.00353439
-0.00120018
0.00279872
-0.00119236
0.00224639
-0.00115869
0.00172323
-0.00110134
0.00120567
-0.00102611
0.000674126
-0.000927312
8.5309e-05
-0.000778219
-0.000624571
-0.000588984
-0.00140634
-0.000349089
-0.00226986
-6.5678e-05
-0.00313509
0.000238596
-0.00387657
0.000548103
-0.00435513
0.000842975
-0.00454314
0.00110587
-0.00445858
0.00133925
-0.00414505
0.00157099
-0.00366485
0.00173056
-0.00313075
0.00183036
-0.00257006
0.00190048
-0.00201117
0.00195677
-0.00149054
0.00200446
-0.00103538
0.00203826
-0.000658246
0.00205222
-0.000354111
0.0020426
-0.00010699
0.00200982
0.000102486
0.00195674
0.000289281
0.00188698
0.000465164
0.00180571
0.0006406
0.00172172
0.000825004
0.00165074
0.00102752
0.00163746
0.00126747
0.00172914
0.00154836
0.00195051
0.0019182
0.00222096
0.00204977
0.00224269
0.00146857
0.00165874
0.00100268
0.00468856
-0.000483751
0.012532
-0.00105168
0.00603814
-0.00069753
0.00318023
-0.000636537
0.00273772
-0.000567967
0.00217782
-0.000462997
0.00161826
-0.00033361
0.00107628
-0.000181943
0.000522459
7.73669e-06
-0.000104371
0.000226153
-0.000842987
0.000465998
-0.00164619
0.000723512
-0.00252738
0.000979931
-0.00339151
0.00120779
-0.00410443
0.00140655
-0.00455388
0.00156738
-0.00470396
0.00168504
-0.00457623
0.00176422
-0.00422423
0.00181729
-0.00371791
0.00182738
-0.00314085
0.00180278
-0.00254546
0.00176261
-0.00197101
0.00172192
-0.00144984
0.00168823
-0.00100169
0.00166146
-0.000631476
0.00163743
-0.000330085
0.00161096
-8.05139e-05
0.00157942
0.000134019
0.00154271
0.000325997
0.00150185
0.000506019
0.00145981
0.000682637
0.00142282
0.000861999
0.00140237
0.00104797
0.00142382
0.00124603
0.00151999
0.00145219
0.00174961
0.00168858
0.00208007
0.00171931
0.00223182
0.00131681
0.00173081
0.00150369
0.00678697
0.00297836
0.0101408
0.00202297
0.00699353
0.000869626
0.00433358
0.000371117
0.00323623
0.000214237
0.0023347
0.000270884
0.00156161
0.000425235
0.000921934
0.000639657
0.000308037
0.000899425
-0.000364139
0.00116483
-0.0011084
0.00144356
-0.00192491
0.00171037
-0.00279418
0.00193586
-0.00361699
0.0020959
-0.00426446
0.00218491
-0.00464288
0.00220572
-0.00472476
0.00216724
-0.00453775
0.00208311
-0.0041401
0.00196852
-0.00360332
0.00182907
-0.0030014
0.00167702
-0.00239341
0.00152942
-0.00182341
0.00140108
-0.0013215
0.00130033
-0.000900943
0.00122829
-0.000559435
0.00117982
-0.000281613
0.00114722
-4.79102e-05
0.00112469
0.000156547
0.00110825
0.000342431
0.00109522
0.000519053
0.00108504
0.000692818
0.00107973
0.000867311
0.0010847
0.001043
0.00111315
0.00121758
0.00118855
0.00137679
0.00137804
0.00149909
0.00173443
0.00136292
0.00187312
0.00117811
0.000546036
0.00283073
0.00771766
0.00403294
0.00624815
0.00366948
0.00735698
0.00254382
0.00545924
0.00189037
0.00388969
0.00153377
0.00269129
0.00138905
0.00170634
0.00142317
0.000887808
0.00159814
0.000133069
0.00185082
-0.000616818
0.0021285
-0.00138607
0.00240839
-0.0022048
0.00265305
-0.00303884
0.0028208
-0.00378474
0.00288485
-0.00432849
0.0028422
-0.00460023
0.00270692
-0.00458947
0.0025014
-0.00433222
0.00224995
-0.00388865
0.0019753
-0.00332867
0.0016946
-0.0027207
0.00142523
-0.00212404
0.00118541
-0.00158359
0.000990114
-0.00112621
0.000845969
-0.000756798
0.000751639
-0.000465105
0.000697738
-0.000227712
0.000672697
-2.28695e-05
0.000667025
0.00016222
0.00067319
0.000336266
0.00068575
0.000506493
0.000701229
0.000677339
0.000716775
0.000851766
0.000728998
0.00103077
0.0007325
0.00121408
0.000713366
0.00139592
0.000626155
0.0015863
7.83793e-05
0.00191071
-0.0015338
0.00279015
-0.0028077
0.0041045
0.0050144
0.00241059
0.00400208
0.00330624
0.00646133
0.00325016
0.00551532
0.00303924
0.00410061
0.00284829
0.00288223
0.0027253
0.00182933
0.00271185
0.000901262
0.00280149
4.34294e-05
0.00296422
-0.000779544
0.00317543
-0.00159728
0.00339305
-0.00242243
0.00355692
-0.0032027
0.0036123
-0.00384012
0.00353276
-0.00424894
0.003324
-0.00439146
0.00301238
-0.00427783
0.00263233
-0.00395217
0.00221725
-0.00347356
0.00179672
-0.00290812
0.00139445
-0.00231844
0.00103235
-0.00176194
0.000730779
-0.00128202
0.000504065
-0.000899492
0.000351509
-0.000604243
0.000263829
-0.000377425
0.000223766
-0.000187649
0.000216184
-1.5287e-05
0.000229739
0.000148665
0.000256297
0.000309708
0.000290446
0.000472344
0.000327847
0.000639938
0.000362381
0.000817232
0.000384149
0.001009
0.000373471
0.00122475
0.000288641
0.00148075
3.66279e-05
0.00183833
-0.000708579
0.00265613
-0.00192879
0.00401044
-0.002281
0.00445667
0.0028506
0.00145733
0.00273902
0.00274884
0.00516982
0.00343281
0.00483136
0.00371888
0.00381453
0.00381759
0.00278353
0.00384622
0.0018007
0.00388332
0.000864162
0.00395366
-2.69043e-05
0.00406464
-0.000890521
0.00420536
-0.00173801
0.00432423
-0.0025413
0.00435047
-0.00322895
0.00423265
-0.00372229
0.0039588
-0.00397509
0.00355158
-0.00398424
0.00305091
-0.00377714
0.00250058
-0.00340183
0.00193921
-0.00291219
0.00140088
-0.00236979
0.000912667
-0.00183022
0.000502147
-0.00135142
0.000189551
-0.000969421
-1.85286e-05
-0.000691413
-0.000138368
-0.000484403
-0.000195684
-0.000320109
-0.000212923
-0.000170409
-0.000203612
-2.45976e-05
-0.000176204
0.000121258
-0.000135877
0.000269382
-8.58178e-05
0.000422285
-2.89569e-05
0.000583077
2.9626e-05
0.000758649
7.97545e-05
0.000958876
0.000100663
0.00120384
4.89512e-05
0.00153246
-0.000146298
0.00203362
-0.000504615
0.00301482
-0.00116675
0.00467299
-0.00146798
0.0047582
0.00151287
0.00217244
0.000792569
0.00294213
0.00440013
0.00359224
0.00418125
0.00416269
0.00324409
0.00449081
0.00245541
0.00466585
0.00162566
0.00478381
0.000746209
0.00489008
-0.000133179
0.00499789
-0.000998337
0.00507681
-0.00181694
0.00506117
-0.00252568
0.00489099
-0.00305877
0.00454402
-0.00337533
0.00403938
-0.00347044
0.00342201
-0.00336686
0.00274259
-0.00309772
0.00204935
-0.00270859
0.00138005
-0.00224288
0.000773455
-0.0017632
0.000256836
-0.0013136
-0.000129975
-0.000964608
-0.000380593
-0.000718805
-0.000522068
-0.000549938
-0.000591865
-0.000414606
-0.000619099
-0.000292874
-0.000618044
-0.000171462
-0.000597128
-4.55128e-05
-0.000561471
8.56019e-05
-0.000513268
0.00022118
-0.000453173
0.000362191
-0.00038168
0.000511584
-0.000299368
0.000676338
-0.00021
0.000869507
-0.00012463
0.00111847
-6.96547e-05
0.00147747
-6.86767e-05
0.0020326
3.19259e-05
0.00291436
0.000342757
0.00436258
0.0005356
0.00456574
0.00218614
-0.00158234
0.00262003
0.00111524
0.00170255
0.00334794
0.00194854
0.00435068
0.00224136
0.00485494
0.00195114
0.00517049
0.00131012
0.00540015
0.000516541
0.00557978
-0.000312817
0.00568025
-0.00109882
0.00563942
-0.00177614
0.00540662
-0.00229291
0.00497039
-0.00262256
0.0043589
-0.00276384
0.00362501
-0.00273656
0.00282849
-0.00257034
0.00201885
-0.00228809
0.00124358
-0.00193331
0.000532973
-0.00153227
-6.39697e-05
-0.00116625
-0.000501683
-0.000875895
-0.000774654
-0.000691644
-0.000928964
-0.000564501
-0.00101091
-0.000467996
-0.00104604
-0.00037947
-0.00105084
-0.000288075
-0.00103424
-0.000188051
-0.00100245
-7.73062e-05
-0.000960038
4.31952e-05
-0.000907939
0.000169082
-0.000844364
0.000298616
-0.000767374
0.000434594
-0.000673993
0.000582957
-0.000562314
0.000757827
-0.000436675
0.000992811
-0.000307966
0.00134868
-0.000143222
0.00186767
0.000232573
0.0025384
0.00102228
0.003573
0.00147202
0.00411616
0.00380415
0.00288175
0.00456912
0.00486911
0.00164855
0.00535533
0.00175514
0.00559182
0.00171466
0.00582388
0.00107806
0.00601224
0.000328179
0.00607902
-0.000379623
0.00595314
-0.000972978
0.0056017
-0.00142474
0.0050377
-0.00172894
0.00430832
-0.0018932
0.00347193
-0.00192747
0.00258671
-0.00185134
0.00170657
-0.00169021
0.000863518
-0.00144504
9.8034e-05
-0.00116783
-0.000529651
-0.000904592
-0.000974886
-0.00072103
-0.00125209
-0.000598702
-0.00141857
-0.000525188
-0.00151156
-0.000471514
-0.00155801
-0.00042155
-0.00157151
-0.000365957
-0.00155989
-0.000299682
-0.00152871
-0.000219218
-0.00148383
-0.000122169
-0.0014323
-8.32711e-06
-0.00137808
0.000114856
-0.00131998
0.000240519
-0.00125612
0.000370732
-0.00118491
0.00051175
-0.00110539
0.000678323
-0.00101415
0.00090157
-0.000893568
0.00122796
-0.000683214
0.00165698
-0.000201979
0.00205666
0.000907263
0.00246343
0.00151916
0.00350396
0.00547824
0.00793284
0.00536424
0.00581268
0.00387532
0.00556392
0.00196346
0.00563562
0.00100639
0.00559972
0.0003641
0.00535501
-0.000134933
0.0048913
-0.000509284
0.00424996
-0.000783425
0.00348504
-0.000964049
0.00264934
-0.00105752
0.00178391
-0.00106205
0.000924569
-0.000992012
0.000104311
-0.000869964
-0.000620062
-0.000720668
-0.0011906
-0.000597304
-0.00159261
-0.000502603
-0.0018619
-0.000451777
-0.00203206
-0.000428575
-0.00214005
-0.000417224
-0.00220626
-0.00040532
-0.00224076
-0.000387033
-0.00224798
-0.000358707
-0.00223058
-0.000317035
-0.00219147
-0.000258272
-0.00213527
-0.000178339
-0.00206954
-7.4049e-05
-0.00200701
5.23192e-05
-0.00195388
0.000187363
-0.00190957
0.000326412
-0.00187624
0.000478446
-0.00185602
0.000658184
-0.00184296
0.000888644
-0.00180668
0.00119174
-0.00170014
0.00155025
-0.00147946
0.00183548
-0.00103623
0.00201947
-0.000665781
0.00313275
0.00498197
0.00410925
0.00150157
0.00451006
0.00347454
0.00373822
0.00273534
0.00323424
0.00151039
0.00288751
0.000710825
0.00251948
0.000233079
0.00207157
-6.13859e-05
0.00153406
-0.000245915
0.000925717
-0.000355703
0.000263313
-0.000395116
-0.00041732
-0.000381419
-0.00106069
-0.000348638
-0.00161813
-0.000312533
-0.00205713
-0.000281693
-0.00238254
-0.000271926
-0.00260818
-0.000277019
-0.00276712
-0.000292902
-0.00288401
-0.000311737
-0.00297256
-0.000328699
-0.00303709
-0.000340787
-0.00307789
-0.00034618
-0.0030938
-0.000342716
-0.00308364
-0.000327082
-0.00304738
-0.000294427
-0.00298697
-0.000238682
-0.00290738
-0.000153637
-0.00281973
-3.53954e-05
-0.00274088
0.00010843
-0.00267997
0.000265415
-0.00263255
0.000431
-0.00259646
0.000622183
-0.00257072
0.000863133
-0.00254645
0.0011678
-0.00254555
0.00154966
-0.00282181
0.00211193
-0.00376121
0.00295887
-0.00391456
0.00328584
0.00125039
-0.00260008
-0.00676479
-0.00741792
-0.00746373
-0.00375112
-0.0021653
-0.00167273
0.00139614
-0.000759553
0.00182217
-0.000562093
0.00131294
-0.000642912
0.00079165
-0.00082734
0.000417519
-0.0010637
0.00017499
-0.00134631
3.67151e-05
-0.00167722
-2.47694e-05
-0.00203414
-3.8166e-05
-0.00238918
-2.63684e-05
-0.00272155
-1.62714e-05
-0.00300737
-2.67379e-05
-0.00322732
-6.18033e-05
-0.00339228
-0.000107041
-0.00352217
-0.000147216
-0.00363468
-0.000180472
-0.00373688
-0.000209598
-0.00382859
-0.00023699
-0.00390602
-0.000263303
-0.00396413
-0.000287958
-0.00399784
-0.000308848
-0.00400326
-0.000321479
-0.00397896
-0.000318553
-0.00392657
-0.000290964
-0.00385006
-0.000230135
-0.00375467
-0.000130909
-0.00365231
5.85112e-06
-0.00354981
0.000162682
-0.00343412
0.000315125
-0.00328949
0.000477469
-0.00309782
0.000671557
-0.00283677
0.000907017
-0.00246274
0.001176
-0.00188175
0.00153133
-0.00110008
0.00217754
-0.000589463
0.0027755
0.000848984
-0.00734941
0.00103826
-0.00812371
-0.00668948
-0.00717653
-0.00311253
-0.00565571
-0.000124703
-0.00456336
0.000729833
-0.00397301
0.000722616
-0.00371555
0.000534232
-0.00365012
0.000352142
-0.00369189
0.000216821
-0.00378402
0.000128908
-0.00388512
7.63833e-05
-0.00397202
4.87776e-05
-0.00403439
3.60031e-05
-0.00407737
2.66881e-05
-0.0041157
1.1526e-05
-0.00416196
-1.56455e-05
-0.00422023
-4.88851e-05
-0.00428778
-7.9764e-05
-0.00436129
-0.000107031
-0.00443765
-0.000133259
-0.00451395
-0.000160646
-0.00458743
-0.000189703
-0.00465558
-0.000219616
-0.00471613
-0.000248063
-0.0047668
-0.000270569
-0.00480471
-0.000280423
-0.00482559
-0.000269958
-0.00482289
-0.000232834
-0.00478811
-0.00016584
-0.0047134
-6.91596e-05
-0.00459447
4.33493e-05
-0.00442633
0.00014661
-0.0041852
0.000236053
-0.0038399
0.000326098
-0.00335831
0.000425425
-0.00268129
0.000499111
-0.00158219
0.000432453
0.000404633
0.000190968
0.00204543
0.00113497
0.00307876
0.0015801
-0.00504456
-0.00809364
-0.00815862
-0.00737412
-0.0066046
-0.00603014
-0.00564258
-0.00539345
-0.00523401
-0.0051278
-0.00504909
-0.00498255
-0.00492455
-0.00488111
-0.00486449
-0.00488092
-0.00492812
-0.00500257
-0.00510334
-0.00523176
-0.00538972
-0.00557831
-0.00579631
-0.00603799
-0.00629079
-0.00653437
-0.00674188
-0.00688323
-0.00692848
-0.00686159
-0.00669168
-0.0064326
-0.00608389
-0.00563651
-0.00511637
-0.00466403
-0.00445444
-0.0033021
)
;

boundaryField
{
    floor
    {
        type            calculated;
        value           nonuniform List<scalar> 
36
(
0
0
0
0
0
0
0
0
0
0
0
0
0
0
0
0
0
0
0
-6.43874e-06
-1.68818e-05
-2.6025e-05
-3.42892e-05
-3.49069e-05
-2.87721e-05
-2.8603e-05
-2.92027e-06
-5.44144e-06
-5.68775e-06
-5.90778e-06
-4.85458e-06
-8.93845e-06
-1.02095e-05
-1.28315e-05
-1.44568e-05
-1.54459e-05
)
;
    }
    ceiling
    {
        type            calculated;
        value           nonuniform List<scalar> 
43
(
-5.78796e-05
-6.48611e-05
-6.34593e-05
-5.97204e-05
-5.46407e-05
-4.68456e-05
-4.01393e-05
-3.53198e-05
-3.22035e-05
-3.04499e-05
-2.97633e-05
-2.98983e-05
-3.05594e-05
-3.13645e-05
-3.19948e-05
-3.23614e-05
-3.25536e-05
-3.26379e-05
-3.26191e-05
-3.24679e-05
-3.2142e-05
-3.16022e-05
-3.08268e-05
-2.98293e-05
-2.86715e-05
-2.74627e-05
-2.6333e-05
-2.53909e-05
-2.46876e-05
-2.42113e-05
-2.3899e-05
-2.36452e-05
-2.33188e-05
-2.28125e-05
-2.20602e-05
-2.10461e-05
-1.98268e-05
-1.85164e-05
-1.72079e-05
-1.62266e-05
1.9331e-05
1.51854e-05
-0.000246574
)
;
    }
    sWall
    {
        type            calculated;
        value           nonuniform List<scalar> 9(-0.000140237 -0.00016453 -0.000194272 -0.000225987 -0.000245116 -0.000281052 -0.000423592 -0.000453694 -0.000483984);
    }
    nWall
    {
        type            calculated;
        value           nonuniform List<scalar> 
14
(
-9.01263e-05
-9.73365e-05
-0.000102817
-0.000104459
-0.000117225
-0.000130172
-0.000137383
-0.000145981
-0.000155288
-0.000169973
-0.000183393
-0.000187594
-0.000184142
-0.000206905
)
;
    }
    sideWalls
    {
        type            empty;
        value           nonuniform 0();
    }
    glass1
    {
        type            calculated;
        value           nonuniform List<scalar> 9(-6.40339e-05 -0.00017032 -0.00025792 -0.000331202 -0.000393183 -0.000446386 -0.000492196 -0.000535477 -0.000587163);
    }
    glass2
    {
        type            calculated;
        value           nonuniform List<scalar> 2(-0.000367589 -0.000384654);
    }
    sun
    {
        type            calculated;
        value           uniform 0;
    }
    Table_master
    {
        type            calculated;
        value           nonuniform List<scalar> 9(-1.53991e-07 -1.54108e-07 -1.5414e-07 -1.54161e-07 -1.54173e-07 -1.54179e-07 -1.54177e-07 -1.54163e-07 -1.54109e-07);
    }
    Table_slave
    {
        type            calculated;
        value           nonuniform List<scalar> 9(1.53661e-07 1.53717e-07 1.53716e-07 1.53733e-07 1.53753e-07 1.53797e-07 1.53864e-07 1.53957e-07 1.54085e-07);
    }
    inlet
    {
        type            calculated;
        value           uniform -0.0116485;
    }
    outlet
    {
        type            calculated;
        value           nonuniform List<scalar> 2(0.0097884 0.0122815);
    }
}


// ************************************************************************* //
