/*--------------------------------*- C++ -*----------------------------------*\
  =========                 |
  \\      /  F ield         | OpenFOAM: The Open Source CFD Toolbox
   \\    /   O peration     | Website:  https://openfoam.org
    \\  /    A nd           | Version:  6
     \\/     M anipulation  |
\*---------------------------------------------------------------------------*/
FoamFile
{
    version     2.0;
    format      ascii;
    class       volScalarField;
    location    "26299.9999987239389";
    object      k;
}
// * * * * * * * * * * * * * * * * * * * * * * * * * * * * * * * * * * * * * //

dimensions      [0 2 -2 0 0 0 0];

internalField   nonuniform List<scalar> 
778
(
0.001586
0.00180116
0.00178794
0.00194639
0.00209751
0.00223966
0.00237621
0.00251171
0.00265196
0.00280522
0.00295547
0.00310187
0.00324957
0.00341223
0.00358614
0.00079275
0.00162615
0.00165276
0.00157391
0.00144608
0.00128353
0.00113114
0.000999324
0.000887561
0.000793031
0.000713291
0.000645264
0.000586252
0.000533716
0.000484949
0.000436453
0.000398093
0.00032617
0.00340715
0.0064337
0.00268747
0.0027459
0.00288747
0.00305393
0.00323415
0.00342976
0.00364287
0.00387314
0.0041253
0.0043793
0.00459547
0.00470117
0.00459576
0.00429937
0.00390806
0.00358072
0.00253647
0.00281298
0.00295595
0.00289882
0.0026661
0.00226664
0.00190686
0.00161022
0.00137023
0.00117623
0.00101734
0.000885515
0.000774242
0.000681423
0.000615424
0.000574962
0.000864358
0.000524268
0.00549113
0.012782
0.00347798
0.00321188
0.00329711
0.00345485
0.00363612
0.00384016
0.00407039
0.00432702
0.0046352
0.00501088
0.00545164
0.00596194
0.0065338
0.00686299
0.00628019
0.00538715
0.00403629
0.00416815
0.00417226
0.00397572
0.00357882
0.00266728
0.00201714
0.00157732
0.00127072
0.00105032
0.000887692
0.000765182
0.000672266
0.00060401
0.000551743
0.000548936
0.00116458
0.000678501
0.00797417
0.0217601
0.00449137
0.00339049
0.00334115
0.00343765
0.00354897
0.00366838
0.00380855
0.00399085
0.00425876
0.00464846
0.00517189
0.00582682
0.00655719
0.00713744
0.00723053
0.00724507
0.00534213
0.00554774
0.0053737
0.00512371
0.00478596
0.00434808
0.00345636
0.00286005
0.00243726
0.00211126
0.00185178
0.00163319
0.00143965
0.00125953
0.00107857
0.000801421
0.000660326
0.00141909
0.000822791
0.0108773
0.0336371
0.00621335
0.00342476
0.00315792
0.00316657
0.00318921
0.00320952
0.00325177
0.00336071
0.0035944
0.00398922
0.00455433
0.00527886
0.00609007
0.00682098
0.00728579
0.00764484
0.00751639
0.00665247
0.00607119
0.0055772
0.00509801
0.00462923
0.00412361
0.00366645
0.00327597
0.00293838
0.00263213
0.00234863
0.00208002
0.00181918
0.00155552
0.00122271
0.000931645
0.00118995
0.00121666
0.00116861
0.00200195
0.00185675
0.014176
0.0476013
0.00928502
0.00348987
0.00290821
0.00282239
0.00276411
0.00269934
0.00266405
0.0027343
0.00298056
0.00341441
0.00402479
0.00480074
0.00565791
0.0064656
0.00707215
0.00740881
0.0073236
0.00678885
0.00621356
0.00563582
0.00507356
0.00455594
0.00409174
0.00369626
0.00336366
0.00307424
0.00280734
0.00255213
0.00229964
0.00204284
0.00177431
0.00147194
0.00118006
0.00111391
0.00111278
0.00169444
0.00501925
0.00266596
0.0179934
0.0606077
0.0143615
0.00381965
0.00271498
0.00252913
0.00241163
0.00229397
0.00222105
0.00231135
0.00263
0.00313942
0.00380352
0.00463502
0.00553398
0.00637262
0.0070058
0.00733125
0.00725594
0.00681842
0.00621511
0.00555443
0.00491172
0.0043429
0.00387278
0.00350066
0.0032068
0.00296185
0.00274153
0.00252947
0.00231405
0.00208785
0.00184574
0.00158334
0.00132896
0.0011634
0.0010949
0.00154185
0.0061664
0.00368347
0.0216423
0.0704818
0.0214376
0.00510303
0.00274284
0.00237175
0.00221016
0.00208208
0.00202655
0.0022195
0.00264956
0.00323115
0.00393904
0.00477883
0.00570543
0.0065806
0.00722992
0.00751865
0.00738751
0.00689835
0.00619957
0.00542781
0.00469207
0.00406481
0.00357455
0.00321229
0.00294721
0.00274052
0.00256391
0.0023958
0.00222238
0.00203592
0.00183265
0.00161352
0.00139909
0.00123727
0.00116244
0.00206596
0.013463
0.0062077
0.0228341
0.0694923
0.0325347
0.0110587
0.00406841
0.0025878
0.00223582
0.00210347
0.00219077
0.00251302
0.00300072
0.00360268
0.00433472
0.00521717
0.00619151
0.00709451
0.00772347
0.00792833
0.00766906
0.00702942
0.00616847
0.00525081
0.00440884
0.00372292
0.00321652
0.0028683
0.00263465
0.00246807
0.00233532
0.00221053
0.00207879
0.00193283
0.00177007
0.00159331
0.00141962
0.00130374
0.00137458
0.00383505
0.0254624
0.00817259
0.0219184
0.0516317
0.0336429
0.0174357
0.00859042
0.0047618
0.00326326
0.00273176
0.00285539
0.00321284
0.00367376
0.00424776
0.00499768
0.00594209
0.00697882
0.00789229
0.00844621
0.00848857
0.00800899
0.00712971
0.00604666
0.00495784
0.00401341
0.00329123
0.0027976
0.00248791
0.00230116
0.00218302
0.00209481
0.00200983
0.00191455
0.00180324
0.00167482
0.00153362
0.0013973
0.00133952
0.00184944
0.00900673
0.0232689
0.00839269
0.0192323
0.0394315
0.0302359
0.0195676
0.0121856
0.00794272
0.0057213
0.00467347
0.00436629
0.00440295
0.00465469
0.00514673
0.00593594
0.0069811
0.00808781
0.00896337
0.00934373
0.00910013
0.00828023
0.00706941
0.0057193
0.00446487
0.00346371
0.00276926
0.00234846
0.0021149
0.00199046
0.00192242
0.00187221
0.00181814
0.00174998
0.00166359
0.00155927
0.00144406
0.00134418
0.00142835
0.00342691
0.0102721
0.0190064
0.00812172
0.0159468
0.0315802
0.0266472
0.0195391
0.0139783
0.0102873
0.00803093
0.00675606
0.00605322
0.00573433
0.00578502
0.00627438
0.00720573
0.00840921
0.00955474
0.010272
0.0103055
0.00959709
0.00829653
0.00667791
0.00506457
0.00372539
0.00279407
0.00223641
0.00195687
0.00181635
0.0017465
0.001712
0.00168429
0.00164895
0.00159841
0.00152898
0.00144123
0.00134689
0.00128975
0.00162626
0.00422857
0.0102377
0.0164187
0.00761399
0.0132627
0.0256631
0.0233441
0.0186878
0.0145839
0.0115896
0.00954576
0.00821208
0.00730262
0.00684296
0.00695948
0.00771512
0.00896351
0.0103384
0.0113736
0.0116789
0.0110946
0.00970001
0.00780244
0.00577697
0.00403426
0.00284053
0.0021989
0.00186803
0.00170433
0.00162151
0.0015784
0.00155512
0.00153367
0.00150498
0.00146369
0.00140727
0.00133715
0.00126613
0.00125038
0.00161961
0.00391538
0.00943225
0.017033
0.00753671
0.013349
0.0224027
0.0220486
0.0177557
0.0143904
0.0118934
0.0100844
0.00876937
0.00792008
0.00777733
0.00847109
0.00985137
0.0114865
0.0128134
0.0133405
0.0127991
0.0112629
0.00899418
0.00653468
0.0043208
0.00296683
0.0022289
0.0018635
0.00168063
0.00158229
0.00152246
0.00148163
0.00145158
0.00142326
0.00139119
0.00135212
0.00130597
0.00125768
0.00122627
0.00127562
0.0016437
0.00348086
0.00880933
0.0151075
0.00858484
0.0108753
0.0117593
0.0129213
0.0125517
0.011374
0.0100743
0.00894629
0.00820458
0.00830822
0.00941957
0.0112783
0.013314
0.0148687
0.015425
0.0147419
0.0128262
0.0101433
0.00703107
0.00464581
0.00313629
0.00235032
0.00197172
0.00178435
0.0016761
0.00159877
0.00153305
0.001473
0.00141953
0.00137318
0.00133103
0.00129413
0.00127308
0.00129277
0.00139519
0.00164218
0.00219107
0.00376746
0.00927693
0.0135588
0.0087807
0.00354571
0.00482692
0.00599904
0.00660206
0.00727821
0.00880223
0.0113213
0.0141328
0.0165065
0.0178868
0.0179359
0.0166001
0.014108
0.0105645
0.00730067
0.00482099
0.00332386
0.00256786
0.00222512
0.00206041
0.00196164
0.0018834
0.00180787
0.00172776
0.00164213
0.00155771
0.0014922
0.00145109
0.00144799
0.00151659
0.00170875
0.00207707
0.00267045
0.00361637
0.0053805
0.0102469
0.0144075
0.00893312
0.00444419
0.00628701
0.00809955
0.0110117
0.0146947
0.0181468
0.0203736
0.0214022
0.0212714
0.0199907
0.0174234
0.0139375
0.0103045
0.00706693
0.0048002
0.00351859
0.00292467
0.00267328
0.00255534
0.00248181
0.00242278
0.00236852
0.00231409
0.0022544
0.00218514
0.00210826
0.00204298
0.0020213
0.00206861
0.00223331
0.00258281
0.00318615
0.00410321
0.00542391
0.00736045
0.0103031
0.0139522
0.00820107
0.0150806
0.024476
0.0180803
0.0143684
0.0169883
0.0206991
0.0228406
0.0235428
0.0230696
0.021684
0.0196112
0.0169295
0.0137544
0.010449
0.00756368
0.00550915
0.00436948
0.00385137
0.0036186
0.00348279
0.00337614
0.00328399
0.00320969
0.00315929
0.00313459
0.00313013
0.00313412
0.00313539
0.00313869
0.00318043
0.00329035
0.00351472
0.00391968
0.00458445
0.00559279
0.00704388
0.00908271
0.0116833
0.0144224
0.00798902
0.0138111
0.0170548
0.0178654
0.0207637
0.0216869
0.0221035
0.021109
0.0193
0.0171813
0.0149947
0.0128328
0.0107309
0.00877836
0.00714605
0.00597601
0.00528101
0.00489589
0.00466988
0.00450692
0.00436702
0.00424421
0.00414903
0.0040986
0.00411009
0.00419521
0.00435543
0.00457817
0.00483443
0.00507692
0.00527461
0.00548274
0.00577017
0.00620569
0.00686291
0.00783015
0.00922301
0.0111854
0.0138879
0.0144537
0.00979148
0.0121336
0.00890808
0.00881782
0.00933586
0.00977466
0.00919387
0.00811164
0.00692422
0.00581809
0.00485154
0.00403362
0.00336979
0.00286997
0.00253695
0.00235072
0.00226893
0.00225351
0.00226556
0.00229166
0.00233217
0.00239301
0.00248172
0.00260393
0.00276045
0.00294632
0.00315224
0.00336808
0.0035867
0.00380729
0.00403494
0.00427195
0.00453499
0.00484531
0.00522284
0.00568212
0.00622399
0.00682537
0.00746191
0.00826269
0.00853774
)
;

boundaryField
{
    floor
    {
        type            kqRWallFunction;
        value           nonuniform List<scalar> 
36
(
0.00358614
0.00079275
0.00162615
0.00165276
0.00157391
0.00144608
0.00128353
0.00113114
0.000999324
0.000887561
0.000793031
0.000713291
0.000645264
0.000586252
0.000533716
0.000484949
0.000436453
0.000398093
0.00032617
0.00032617
0.000524268
0.000678501
0.000822791
0.00116861
0.00200195
0.00185675
0.00358614
0.00429937
0.00390806
0.00358072
0.00079275
0.00358072
0.00253647
0.00538715
0.00403629
0.00534213
)
;
    }
    ceiling
    {
        type            kqRWallFunction;
        value           nonuniform List<scalar> 
43
(
0.0121336
0.00890808
0.00881782
0.00933586
0.00977466
0.00919387
0.00811164
0.00692422
0.00581809
0.00485154
0.00403362
0.00336979
0.00286997
0.00253695
0.00235072
0.00226893
0.00225351
0.00226556
0.00229166
0.00233217
0.00239301
0.00248172
0.00260393
0.00276045
0.00294632
0.00315224
0.00336808
0.0035867
0.00380729
0.00403494
0.00427195
0.00453499
0.00484531
0.00522284
0.00568212
0.00622399
0.00682537
0.00746191
0.00826269
0.00853774
0.0108753
0.0117593
0.00444419
)
;
    }
    sWall
    {
        type            kqRWallFunction;
        value           nonuniform List<scalar> 9(0.0219184 0.0192323 0.0159468 0.0132627 0.013349 0.0108753 0.0150806 0.0138111 0.0121336);
    }
    nWall
    {
        type            kqRWallFunction;
        value           nonuniform List<scalar> 
14
(
0.00185675
0.00266596
0.00368347
0.00839269
0.00812172
0.00761399
0.00753671
0.00858484
0.0087807
0.00893312
0.00820107
0.00798902
0.00979148
0.00853774
)
;
    }
    sideWalls
    {
        type            empty;
    }
    glass1
    {
        type            kqRWallFunction;
        value           nonuniform List<scalar> 9(0.001586 0.00340715 0.00549113 0.00797417 0.0108773 0.014176 0.0179934 0.0216423 0.0228341);
    }
    glass2
    {
        type            kqRWallFunction;
        value           nonuniform List<scalar> 2(0.0062077 0.00817259);
    }
    sun
    {
        type            kqRWallFunction;
        value           nonuniform List<scalar> 
14
(
0.001586
0.00180116
0.00178794
0.00194639
0.00209751
0.00223966
0.00237621
0.00251171
0.00265196
0.00280522
0.00295547
0.00310187
0.00324957
0.00341223
)
;
    }
    Table_master
    {
        type            kqRWallFunction;
        value           nonuniform List<scalar> 9(0.00266728 0.00201714 0.00157732 0.00127072 0.00105032 0.000887692 0.000765182 0.000672266 0.00060401);
    }
    Table_slave
    {
        type            kqRWallFunction;
        value           nonuniform List<scalar> 9(0.00345636 0.00286005 0.00243726 0.00211126 0.00185178 0.00163319 0.00143965 0.00125953 0.00107857);
    }
    inlet
    {
        type            turbulentIntensityKineticEnergyInlet;
        intensity       0.05;
        value           uniform 0.0009375;
    }
    outlet
    {
        type            zeroGradient;
    }
}


// ************************************************************************* //
