/*--------------------------------*- C++ -*----------------------------------*\
  =========                 |
  \\      /  F ield         | OpenFOAM: The Open Source CFD Toolbox
   \\    /   O peration     | Website:  https://openfoam.org
    \\  /    A nd           | Version:  6
     \\/     M anipulation  |
\*---------------------------------------------------------------------------*/
FoamFile
{
    version     2.0;
    format      ascii;
    class       volScalarField;
    location    "26299.9999987239389";
    object      nut;
}
// * * * * * * * * * * * * * * * * * * * * * * * * * * * * * * * * * * * * * //

dimensions      [0 2 -1 0 0 0 0];

internalField   nonuniform List<scalar> 
778
(
0.000894326
0.000953061
0.000949555
0.000990738
0.00102848
0.00106276
0.00109468
0.00112546
0.00115645
0.0011894
0.00122084
0.00125071
0.00128014
0.00131179
0.0013448
0.000632286
0.000905573
0.000912953
0.000890911
0.000853967
0.000804541
0.000755271
0.000709901
0.000669027
0.000632397
0.00059976
0.000570444
0.000543734
0.000518799
0.00049453
0.000469151
0.000448061
0.00040557
0.00131081
0.00258116
0.00226508
0.00261441
0.00286783
0.00313645
0.00340439
0.00365131
0.00385012
0.00396595
0.00403408
0.00400619
0.00380653
0.00331165
0.00241863
0.00147247
0.00140387
0.00134378
0.00113099
0.00192675
0.00267107
0.00311099
0.0031318
0.00247114
0.00211346
0.00186554
0.00167728
0.00152747
0.00139975
0.0012869
0.00118191
0.00107921
0.000987047
0.000907588
0.00102194
0.000514186
0.00166408
0.00360446
0.0026722
0.0038224
0.00427108
0.00465067
0.00499536
0.00529872
0.00555578
0.00575747
0.00595285
0.00615852
0.0063476
0.00646021
0.00638576
0.0058469
0.00427609
0.00164825
0.00142671
0.00305162
0.00425923
0.00483141
0.00439481
0.00115979
0.00100858
0.000891875
0.000800515
0.000727787
0.000669077
0.000621194
0.000582258
0.000551908
0.000606687
0.000713576
0.0011292
0.000584949
0.00200534
0.00485856
0.0025572
0.00429816
0.00496266
0.00531815
0.00557948
0.00577278
0.00591706
0.00603409
0.00620037
0.00648138
0.00689146
0.00740705
0.00792516
0.00818017
0.00768097
0.0057299
0.00164136
0.0038003
0.00565272
0.00659467
0.00682821
0.00583054
0.00132024
0.00120097
0.00110865
0.00103184
0.000966361
0.000907533
0.000852064
0.000796982
0.000737511
0.000688953
0.000713903
0.00122163
0.000644149
0.0023421
0.00643336
0.00258028
0.00408613
0.00510798
0.00541134
0.00552158
0.00552598
0.00547122
0.00542272
0.00549232
0.00576532
0.00626632
0.00697564
0.00779791
0.00855502
0.00903486
0.00902845
0.00810222
0.008243
0.00843118
0.00845769
0.00828648
0.00775736
0.0061745
0.00533428
0.00475868
0.0042911
0.00383224
0.00338765
0.00295263
0.0025181
0.00207161
0.00159145
0.00121476
0.00121204
0.000959461
0.00076767
0.00100477
0.000967609
0.00267375
0.00819664
0.00303815
0.00344588
0.00489443
0.00523122
0.00520473
0.00501776
0.00475024
0.00452949
0.00452459
0.00481069
0.00538174
0.00620441
0.00716661
0.00812717
0.00894425
0.00946581
0.00956006
0.00946315
0.00929452
0.00905618
0.00875052
0.00836193
0.00779461
0.00724786
0.0067513
0.00627134
0.00575294
0.00519921
0.00460765
0.00397318
0.00329178
0.00256896
0.00191541
0.0014384
0.00111681
0.00124544
0.00215349
0.00115944
0.00301232
0.00982813
0.00404918
0.0028233
0.00439787
0.00494851
0.00488802
0.00458536
0.00414599
0.00375923
0.00374797
0.00410917
0.00476297
0.00568275
0.0067286
0.00776308
0.00865272
0.00928941
0.00958174
0.00955802
0.00934728
0.0090289
0.00866485
0.00830202
0.00795122
0.00762927
0.00732679
0.00700405
0.0066142
0.00614488
0.0055891
0.00494407
0.00421228
0.00341285
0.00263285
0.00190678
0.00140505
0.00125002
0.00218337
0.00136287
0.00330366
0.011065
0.00552182
0.00268894
0.00348368
0.00438664
0.00451325
0.00426475
0.00374502
0.00321929
0.00333849
0.00381624
0.0045474
0.00549531
0.00658167
0.00766468
0.00858775
0.00922861
0.0095192
0.00948027
0.00920836
0.00880782
0.00837729
0.00799569
0.00770163
0.00749153
0.0073277
0.00714979
0.00690228
0.00655586
0.00609678
0.0055221
0.00483731
0.00406355
0.00326155
0.00245576
0.00172942
0.00114669
0.00308532
0.0017693
0.00339341
0.0104835
0.00683774
0.00347835
0.00236268
0.0028941
0.00338709
0.00342947
0.00302845
0.00294421
0.00325026
0.00381209
0.00460244
0.00560733
0.00674558
0.00786181
0.00878168
0.00937327
0.00958074
0.00943718
0.00904342
0.00852693
0.00801452
0.00760584
0.00734651
0.0072191
0.0071612
0.00709263
0.00695015
0.00669986
0.00632819
0.00583345
0.005222
0.00451174
0.00373583
0.00286979
0.00171937
0.00140331
0.00458595
0.00202994
0.00332467
0.00845736
0.00706656
0.00477715
0.0031544
0.00244201
0.00231225
0.00242067
0.00262469
0.00294916
0.00340883
0.00404082
0.00489971
0.00598229
0.00718171
0.00831325
0.00918508
0.0096653
0.00971559
0.00939294
0.00882423
0.00816915
0.00758422
0.00718365
0.00700023
0.00697854
0.00701768
0.00701645
0.00692361
0.00672032
0.00640001
0.00596188
0.00540988
0.00475067
0.00395379
0.00274268
0.00131059
0.00256773
0.00460478
0.00205726
0.0031143
0.0072302
0.00683497
0.00546909
0.00420821
0.00338766
0.00298193
0.00289029
0.00305854
0.00336776
0.00381655
0.00448271
0.00542991
0.00661531
0.00787447
0.00898132
0.00973271
0.0100129
0.00981739
0.00924346
0.00846216
0.00767886
0.00708359
0.00678536
0.00675106
0.00684803
0.00694538
0.00694662
0.00684821
0.00665071
0.00634974
0.00594
0.00541802
0.00476879
0.00383442
0.00214058
0.00153426
0.00306615
0.00426118
0.00202392
0.00283584
0.00651997
0.00659482
0.00579107
0.00492555
0.0042745
0.00389151
0.00375508
0.00378966
0.00397596
0.00438718
0.00513006
0.00622333
0.00753416
0.00881827
0.00981322
0.0103267
0.0102859
0.00974415
0.00885947
0.00786994
0.00704294
0.00657655
0.00648276
0.00656324
0.00668966
0.00677351
0.00674938
0.00663556
0.00643647
0.00614388
0.00574357
0.00521917
0.00454213
0.003411
0.00163122
0.00184429
0.00325867
0.0040747
0.00195941
0.00258619
0.00583241
0.00629788
0.00591776
0.00536206
0.00489563
0.00458577
0.0044345
0.00438923
0.00454771
0.00506905
0.00603844
0.00735905
0.00877515
0.00997349
0.0106933
0.0107981
0.0102934
0.00932029
0.0081226
0.0070362
0.00634319
0.006042
0.00600383
0.00608337
0.00619042
0.00626209
0.00624434
0.00613372
0.00593568
0.00563687
0.00521592
0.00465448
0.00392904
0.00287973
0.0016411
0.00192101
0.00336559
0.00454484
0.00194838
0.00259458
0.00578821
0.00643512
0.00598999
0.00554004
0.00517181
0.00490639
0.00473348
0.00472508
0.0051103
0.00602984
0.00740164
0.00894694
0.0103103
0.0111799
0.0113729
0.0108687
0.00978153
0.00838244
0.00702858
0.00605262
0.00548574
0.00521631
0.00513716
0.00516514
0.00523676
0.00530064
0.00529977
0.00518972
0.00497242
0.0046232
0.00412063
0.00348624
0.00280807
0.00219405
0.00172508
0.00202788
0.00355389
0.00459129
0.00207991
0.00234188
0.0024352
0.00359209
0.0042192
0.00441227
0.00441417
0.00437002
0.00444954
0.00498775
0.00613444
0.00774348
0.00947477
0.0109507
0.0118602
0.0120243
0.0114108
0.010167
0.00852133
0.00695128
0.00573271
0.00492172
0.00444996
0.00421461
0.00411
0.00406815
0.00405511
0.004049
0.00401088
0.00386593
0.00360254
0.00320154
0.00269694
0.00221674
0.0019054
0.00181277
0.00192741
0.00244055
0.00404983
0.00468809
0.00210366
0.000807614
0.00146532
0.00226072
0.00289962
0.00363886
0.00489746
0.00674645
0.00879377
0.0106496
0.0120273
0.0127359
0.0126569
0.0118023
0.0102642
0.00843778
0.00671131
0.00535185
0.00444225
0.00393434
0.0036697
0.00351189
0.00339185
0.00328434
0.00318287
0.00308493
0.00297944
0.0028258
0.00260054
0.00231676
0.00204459
0.00189379
0.00192394
0.00212266
0.00248429
0.00312422
0.00456584
0.0050809
0.00212265
0.00149706
0.00207477
0.00302695
0.00473138
0.00705164
0.00937769
0.0111868
0.0124878
0.0132632
0.0134623
0.0129942
0.0117712
0.009987
0.00799455
0.00619342
0.0048613
0.00408198
0.0036988
0.00350159
0.00336896
0.00325577
0.00315127
0.00305628
0.00297256
0.0028976
0.00282103
0.00272236
0.0025937
0.00245281
0.0023457
0.00233852
0.00247215
0.00273633
0.00310192
0.00356654
0.00413496
0.00443789
0.00203406
0.00275774
0.00666572
0.00611943
0.00546762
0.00695939
0.00930193
0.0112875
0.0126315
0.0133384
0.0135081
0.0132175
0.0124435
0.0111594
0.00942164
0.00750079
0.00579833
0.00465668
0.00407052
0.00379008
0.00362055
0.00348
0.00334759
0.00322692
0.00312903
0.00306411
0.00303653
0.00304182
0.00306467
0.00307782
0.0030694
0.00306142
0.00308033
0.00315685
0.00331684
0.00356332
0.00386736
0.00416847
0.00431939
0.0041891
0.00200634
0.00263911
0.00509649
0.00657416
0.00839529
0.00932601
0.0102986
0.0108732
0.0110207
0.0108146
0.0103051
0.00950976
0.00843614
0.0071579
0.00587349
0.00483585
0.00418305
0.00382155
0.00361459
0.00346451
0.0033275
0.00319372
0.00306994
0.00297048
0.0029118
0.00290784
0.00296558
0.00308059
0.00323275
0.00338097
0.00348135
0.00356361
0.00366278
0.00380529
0.00400973
0.00428641
0.00463507
0.00503651
0.00543351
0.00483164
0.00221826
0.00247366
0.00211951
0.00210874
0.0021698
0.00222019
0.00215321
0.0020225
0.00186861
0.00171289
0.00156422
0.0014264
0.00130387
0.00120339
0.00113143
0.00108904
0.00106983
0.0010661
0.00106889
0.00107501
0.00108451
0.00109866
0.00111897
0.00114631
0.00118031
0.00121935
0.0012611
0.00130333
0.00134472
0.00138523
0.00142582
0.00146693
0.00151134
0.00156216
0.00162187
0.00169164
0.00177036
0.00185368
0.00193781
0.00203898
0.0020731
)
;

boundaryField
{
    floor
    {
        type            nutkWallFunction;
        Cmu             0.09;
        kappa           0.41;
        E               9.8;
        value           nonuniform List<scalar> 
36
(
0.000160569
7.63716e-05
0.000109546
0.000110424
0.0001078
0.000103384
9.74424e-05
9.14761e-05
8.59414e-05
8.09187e-05
7.63862e-05
7.2321e-05
6.86463e-05
6.52782e-05
6.21155e-05
5.9019e-05
5.57608e-05
5.30361e-05
4.74965e-05
4.74965e-05
6.1528e-05
7.04672e-05
7.7844e-05
9.29827e-05
0.000121279
0.000116906
0.000160569
0.000175017
0.00016727
0.000160452
7.63716e-05
0.000160452
0.000136015
0.000194689
0.000169853
0.00019392
)
;
    }
    ceiling
    {
        type            nutkWallFunction;
        Cmu             0.09;
        kappa           0.41;
        E               9.8;
        value           nonuniform List<scalar> 
43
(
0.000284315
0.000246307
0.000245145
0.000251751
0.000257195
0.000249989
0.000235834
0.000219031
0.000201867
0.000185313
0.000169806
0.000155877
0.000144347
0.00013603
0.000131112
0.000128884
0.000128458
0.000128791
0.000129507
0.00013061
0.000132248
0.000134594
0.00013775
0.000141675
0.000146178
0.000150986
0.000155841
0.000160586
0.000165213
0.000169834
0.000174495
0.000179502
0.000185206
0.000191879
0.000199646
0.000208374
0.000217582
0.000226851
0.000237911
0.000241573
0.000270444
0.000280417
0.000177577
)
;
    }
    sWall
    {
        type            nutkWallFunction;
        Cmu             0.09;
        kappa           0.41;
        E               9.8;
        value           nonuniform List<scalar> 9(0.000373892 0.000352067 0.000322946 0.000296587 0.000297475 0.000270534 0.000314418 0.000301928 0.000284416);
    }
    nWall
    {
        type            nutkWallFunction;
        Cmu             0.09;
        kappa           0.41;
        E               9.8;
        value           nonuniform List<scalar> 
14
(
0.000116913
0.000139333
0.00016265
0.000239679
0.00023604
0.000229033
0.000227945
0.000242222
0.000244781
0.000246752
0.000237115
0.000234237
0.00025752
0.00024161
)
;
    }
    sideWalls
    {
        type            empty;
    }
    glass1
    {
        type            nutkWallFunction;
        Cmu             0.09;
        kappa           0.41;
        E               9.8;
        value           nonuniform List<scalar> 9(0.00010825 0.000156886 0.000196742 0.000234358 0.000270804 0.000306156 0.000341773 0.000372092 0.000381385);
    }
    glass2
    {
        type            nutkWallFunction;
        Cmu             0.09;
        kappa           0.41;
        E               9.8;
        value           nonuniform List<scalar> 2(0.000208248 0.00023685);
    }
    sun
    {
        type            nutkWallFunction;
        Cmu             0.09;
        kappa           0.41;
        E               9.8;
        value           nonuniform List<scalar> 
14
(
0.000108209
0.000115181
0.000114766
0.000119627
0.000124062
0.000128074
0.000131797
0.000135374
0.000138966
0.000142772
0.000146392
0.000149823
0.000153193
0.000156808
)
;
    }
    Table_master
    {
        type            nutkWallFunction;
        Cmu             0.09;
        kappa           0.41;
        E               9.8;
        value           nonuniform List<scalar> 9(0.000139342 0.00012172 0.000107912 9.6956e-05 8.81298e-05 8.09284e-05 7.4999e-05 7.01369e-05 6.63196e-05);
    }
    Table_slave
    {
        type            nutkWallFunction;
        Cmu             0.09;
        kappa           0.41;
        E               9.8;
        value           nonuniform List<scalar> 9(0.00015776 0.000144095 0.000133413 0.000124449 0.000116747 0.000109776 0.000103154 9.65294e-05 8.93158e-05);
    }
    inlet
    {
        type            calculated;
        value           uniform 0.000167705;
    }
    outlet
    {
        type            calculated;
        value           nonuniform List<scalar> 2(0.00275774 0.00666572);
    }
}


// ************************************************************************* //
