/*--------------------------------*- C++ -*----------------------------------*\
  =========                 |
  \\      /  F ield         | OpenFOAM: The Open Source CFD Toolbox
   \\    /   O peration     | Website:  https://openfoam.org
    \\  /    A nd           | Version:  6
     \\/     M anipulation  |
\*---------------------------------------------------------------------------*/
FoamFile
{
    version     2.0;
    format      ascii;
    class       volVectorField;
    location    "26299.9999987239389";
    object      U;
}
// * * * * * * * * * * * * * * * * * * * * * * * * * * * * * * * * * * * * * //

dimensions      [0 1 -1 0 0 0 0];

internalField   nonuniform List<vector> 
778
(
(0.0655966 0.0794078 0)
(-0.155178 0.0157659 0)
(-0.164306 0.0146254 0)
(-0.192424 0.0122767 0)
(-0.216864 0.00872792 0)
(-0.236929 0.00474819 0)
(-0.252064 0.000422047 0)
(-0.261844 -0.00436325 0)
(-0.265754 -0.00980645 0)
(-0.26279 -0.0161881 0)
(-0.250996 -0.0242638 0)
(-0.2263 -0.0348866 0)
(-0.186173 -0.0504138 0)
(-0.144227 -0.0751925 0)
(-0.150113 -0.108597 0)
(0.0546331 0.0355087 0)
(0.0157323 -0.0268884 0)
(0.0449293 -0.0232797 0)
(0.0693468 -0.016175 0)
(0.0844261 -0.0103644 0)
(0.0916495 -0.00641756 0)
(0.0944876 -0.00433436 0)
(0.0955143 -0.00331151 0)
(0.0959593 -0.00272636 0)
(0.0961257 -0.00231494 0)
(0.0960005 -0.00195167 0)
(0.0954752 -0.00151171 0)
(0.0942186 -0.00075761 0)
(0.0913717 0.000847194 0)
(0.0851663 0.00407143 0)
(0.0736233 0.00778228 0)
(0.0599479 0.0116334 0)
(-0.00789344 0.0299936 0)
(0.258394 0.167396 0)
(-0.161237 0.0483952 0)
(-0.141607 0.0459819 0)
(-0.174011 0.0416174 0)
(-0.199376 0.035673 0)
(-0.220101 0.0291376 0)
(-0.236138 0.0220701 0)
(-0.247401 0.014243 0)
(-0.25359 0.00531229 0)
(-0.253923 -0.0051381 0)
(-0.247782 -0.0170733 0)
(-0.234087 -0.0308499 0)
(-0.214186 -0.0480871 0)
(-0.197616 -0.0699829 0)
(-0.194111 -0.0826726 0)
(-0.166495 -0.0425782 0)
(-0.10541 -0.0364058 0)
(-0.0983285 -0.0445112 0)
(0.109339 -0.0420499 0)
(0.0644419 -0.0411668 0)
(0.0718823 -0.0322924 0)
(0.0858752 -0.0207519 0)
(0.0937968 -0.0105016 0)
(0.0960499 -0.00365016 0)
(0.0958182 -0.000185578 0)
(0.0954283 0.00126415 0)
(0.0953879 0.00190639 0)
(0.0954652 0.00227314 0)
(0.0954701 0.00259048 0)
(0.095369 0.00313105 0)
(0.095078 0.00441301 0)
(0.093821 0.00773065 0)
(0.0882244 0.0167668 0)
(0.0744664 0.0253577 0)
(0.0631019 0.0329923 0)
(-0.051903 0.0635833 0)
(0.429971 0.253959 0)
(-0.194236 0.0847655 0)
(-0.112785 0.0784345 0)
(-0.14825 0.0669588 0)
(-0.170683 0.0555072 0)
(-0.18878 0.0437408 0)
(-0.202622 0.0313652 0)
(-0.212321 0.0180352 0)
(-0.217683 0.0034302 0)
(-0.218053 -0.0126026 0)
(-0.212808 -0.0303023 0)
(-0.201711 -0.0499004 0)
(-0.186076 -0.0715784 0)
(-0.169542 -0.0932392 0)
(-0.151172 -0.104601 0)
(-0.120326 -0.0931819 0)
(-0.0796148 -0.0949915 0)
(-0.0714978 -0.10766 0)
(0.0921294 -0.0881048 0)
(0.0625628 -0.0657369 0)
(0.0743577 -0.0461463 0)
(0.0879946 -0.0292918 0)
(0.0948434 -0.0149624 0)
(0.09195 -0.0120789 0)
(0.0877124 -0.00798786 0)
(0.0853372 -0.0057953 0)
(0.0846477 -0.00455977 0)
(0.0846311 -0.00379392 0)
(0.0848902 -0.00322313 0)
(0.0855429 -0.00259829 0)
(0.087304 -0.00143941 0)
(0.0919898 0.0029225 0)
(0.0901548 0.0251106 0)
(0.0733659 0.0423757 0)
(0.0700713 0.0575225 0)
(-0.0898667 0.100946 0)
(0.578532 0.325847 0)
(-0.240104 0.12182 0)
(-0.0808436 0.109226 0)
(-0.121585 0.0898578 0)
(-0.13902 0.0740781 0)
(-0.153082 0.0586522 0)
(-0.163844 0.0427784 0)
(-0.171443 0.0258431 0)
(-0.17566 0.00723667 0)
(-0.175734 -0.0134933 0)
(-0.171055 -0.0364395 0)
(-0.161496 -0.0614383 0)
(-0.147636 -0.0873718 0)
(-0.130666 -0.110316 0)
(-0.109716 -0.123226 0)
(-0.0822428 -0.124575 0)
(-0.0526379 -0.126416 0)
(-0.0335178 -0.123231 0)
(0.0161969 -0.0568273 0)
(0.0607317 -0.0930036 0)
(0.0684294 -0.0791752 0)
(0.0790698 -0.05884 0)
(0.0915698 -0.0396212 0)
(0.102913 -0.0209681 0)
(0.115667 -0.0132622 0)
(0.126852 -0.00886073 0)
(0.13248 -0.00563381 0)
(0.133479 -0.00311396 0)
(0.130957 -0.000881145 0)
(0.125492 0.00129213 0)
(0.116962 0.00367189 0)
(0.104605 0.00672183 0)
(0.0853716 0.0111444 0)
(0.0715126 0.0368121 0)
(0.0602625 0.0605487 0)
(0.0762869 0.0834141 0)
(-0.117331 0.13728 0)
(0.705705 0.383689 0)
(-0.287677 0.15702 0)
(-0.0477094 0.133789 0)
(-0.0963076 0.106927 0)
(-0.10776 0.0876084 0)
(-0.116794 0.0691948 0)
(-0.123584 0.0504791 0)
(-0.128245 0.0306289 0)
(-0.130605 0.00877071 0)
(-0.129802 -0.0157739 0)
(-0.125307 -0.0430381 0)
(-0.11669 -0.0726553 0)
(-0.103977 -0.102809 0)
(-0.0875173 -0.129082 0)
(-0.0675814 -0.145788 0)
(-0.0442503 -0.152279 0)
(-0.0203949 -0.152399 0)
(0.0001414 -0.143763 0)
(0.0306875 -0.115027 0)
(0.0568871 -0.109372 0)
(0.0705032 -0.0924533 0)
(0.0806665 -0.071291 0)
(0.090742 -0.0508475 0)
(0.100309 -0.0328107 0)
(0.109432 -0.0194239 0)
(0.116476 -0.0100321 0)
(0.119916 -0.00332452 0)
(0.120121 0.00193788 0)
(0.117708 0.00648741 0)
(0.113052 0.0108368 0)
(0.106185 0.0154969 0)
(0.0970449 0.0211713 0)
(0.0851404 0.0291645 0)
(0.0736218 0.0471623 0)
(0.0632003 0.0712157 0)
(0.0947779 0.0993956 0)
(0.0171367 0.138481 0)
(0.0964931 0.182766 0)
(0.140657 0.147861 0)
(-0.224662 0.202983 0)
(0.810407 0.431986 0)
(-0.331311 0.190695 0)
(-0.0173313 0.150263 0)
(-0.0733874 0.117535 0)
(-0.0786157 0.0955299 0)
(-0.0822382 0.0749698 0)
(-0.0844917 0.0543759 0)
(-0.0855268 0.0327619 0)
(-0.0852673 0.00890915 0)
(-0.0825874 -0.0183582 0)
(-0.0774194 -0.0489732 0)
(-0.0687952 -0.0824516 0)
(-0.0568095 -0.11646 0)
(-0.0417692 -0.146272 0)
(-0.0247986 -0.165976 0)
(-0.00642541 -0.174498 0)
(0.0119612 -0.172773 0)
(0.0278819 -0.161048 0)
(0.046063 -0.13937 0)
(0.0625386 -0.122391 0)
(0.0732384 -0.102542 0)
(0.080941 -0.0804952 0)
(0.0877165 -0.0591574 0)
(0.0939113 -0.040283 0)
(0.0992579 -0.0251009 0)
(0.102962 -0.013732 0)
(0.104578 -0.00502589 0)
(0.104152 0.00217681 0)
(0.101992 0.00864805 0)
(0.0983492 0.0149025 0)
(0.0933873 0.0214658 0)
(0.0873445 0.0289737 0)
(0.0804922 0.0383484 0)
(0.0747798 0.0527469 0)
(0.0696254 0.072744 0)
(0.0917326 0.0985181 0)
(0.073776 0.107459 0)
(0.0904251 0.0484026 0)
(0.146283 -0.0357999 0)
(-0.326255 0.105616 0)
(0.879877 0.4747 0)
(-0.368628 0.220983 0)
(0.00370358 0.155582 0)
(-0.0526846 0.121593 0)
(-0.0522353 0.0978748 0)
(-0.0510561 0.075848 0)
(-0.04905 0.0540766 0)
(-0.0465292 0.0315759 0)
(-0.0433322 0.00682007 0)
(-0.0373582 -0.0222444 0)
(-0.0302757 -0.0553053 0)
(-0.0204931 -0.0918676 0)
(-0.00870135 -0.128814 0)
(0.00448045 -0.161165 0)
(0.0175145 -0.181828 0)
(0.0302857 -0.190197 0)
(0.0420881 -0.187246 0)
(0.0523986 -0.174464 0)
(0.0623831 -0.154123 0)
(0.0709816 -0.132471 0)
(0.0765325 -0.109452 0)
(0.0800178 -0.0859493 0)
(0.0826375 -0.0637709 0)
(0.0848929 -0.0442668 0)
(0.0867416 -0.0281559 0)
(0.0878472 -0.0153436 0)
(0.0879828 -0.0050566 0)
(0.086997 0.00361625 0)
(0.0850771 0.0113503 0)
(0.0823738 0.0186627 0)
(0.0790708 0.0260504 0)
(0.0754584 0.0340165 0)
(0.0719547 0.0431266 0)
(0.0699515 0.0546931 0)
(0.0688617 0.0691478 0)
(0.0819814 0.0882755 0)
(0.085203 0.0918853 0)
(0.090525 0.0549868 0)
(0.18098 0.0265278 0)
(-0.279147 0.154793 0)
(0.927926 0.517158 0)
(-0.383149 0.234193 0)
(0.0168859 0.13301 0)
(-0.0273475 0.116683 0)
(-0.0265788 0.0949467 0)
(-0.0227722 0.0724531 0)
(-0.0176559 0.0501306 0)
(-0.0123733 0.0272799 0)
(-0.0053889 0.00188052 0)
(0.00460313 -0.0307027 0)
(0.0143378 -0.0652696 0)
(0.0256338 -0.10324 0)
(0.0372506 -0.140733 0)
(0.0478861 -0.172006 0)
(0.0569344 -0.192225 0)
(0.064391 -0.199762 0)
(0.0700918 -0.195397 0)
(0.0740417 -0.181245 0)
(0.076751 -0.160185 0)
(0.078132 -0.136196 0)
(0.0777986 -0.111181 0)
(0.0763233 -0.0866509 0)
(0.0745339 -0.0640817 0)
(0.0729529 -0.0444706 0)
(0.0717143 -0.0281903 0)
(0.0706768 -0.0149588 0)
(0.0696381 -0.00408601 0)
(0.068305 0.00519314 0)
(0.0667872 0.0134491 0)
(0.0650619 0.0211589 0)
(0.063219 0.0287415 0)
(0.0614598 0.0365451 0)
(0.0601129 0.0448609 0)
(0.0600893 0.0541751 0)
(0.0613189 0.0645156 0)
(0.0704511 0.077616 0)
(0.0806067 0.0813691 0)
(0.080753 0.0623323 0)
(0.238629 0.0554291 0)
(-0.552465 0.233295 0)
(1.01128 0.506826 0)
(-0.137258 0.296356 0)
(0.0410817 0.161536 0)
(0.0405942 0.122101 0)
(0.0130748 0.0919829 0)
(0.00865056 0.0653651 0)
(0.0140832 0.0413856 0)
(0.0207224 0.0169729 0)
(0.0325603 -0.0110301 0)
(0.0440473 -0.042142 0)
(0.0559361 -0.0768633 0)
(0.0682087 -0.11453 0)
(0.0793149 -0.150937 0)
(0.0877631 -0.180378 0)
(0.0929223 -0.198429 0)
(0.0949186 -0.203661 0)
(0.0941701 -0.197093 0)
(0.0912289 -0.181121 0)
(0.0867711 -0.158773 0)
(0.0812448 -0.133366 0)
(0.0749395 -0.107339 0)
(0.0684525 -0.0825293 0)
(0.0625043 -0.0602936 0)
(0.0576098 -0.0413546 0)
(0.0539515 -0.0257908 0)
(0.0514124 -0.0131062 0)
(0.049711 -0.0025388 0)
(0.0484422 0.00658809 0)
(0.047573 0.0147617 0)
(0.04688 0.0224106 0)
(0.0463185 0.0298596 0)
(0.0459468 0.0373152 0)
(0.045924 0.0448647 0)
(0.0467615 0.0525599 0)
(0.0486065 0.0600881 0)
(0.0551682 0.0680135 0)
(0.0657976 0.067663 0)
(0.0617027 0.0430587 0)
(0.292337 0.0720332 0)
(-0.754151 0.304541 0)
(0.779321 0.395724 0)
(0.000835334 0.319497 0)
(0.0934055 0.218914 0)
(0.11063 0.155166 0)
(0.0772046 0.10681 0)
(0.0598281 0.0675158 0)
(0.0582526 0.0357135 0)
(0.062434 0.00635352 0)
(0.0738963 -0.0234929 0)
(0.0854953 -0.0550766 0)
(0.0977069 -0.0897266 0)
(0.109562 -0.126145 0)
(0.118896 -0.159843 0)
(0.123937 -0.185518 0)
(0.124098 -0.199615 0)
(0.119818 -0.201286 0)
(0.112057 -0.191865 0)
(0.101893 -0.173869 0)
(0.0903679 -0.150309 0)
(0.0783229 -0.124214 0)
(0.0664481 -0.0981317 0)
(0.0554807 -0.0739933 0)
(0.0461494 -0.0530484 0)
(0.0389208 -0.0357345 0)
(0.0338809 -0.0218242 0)
(0.0307628 -0.0105372 0)
(0.0290847 -0.000984879 0)
(0.0283652 0.00743569 0)
(0.0283258 0.0151528 0)
(0.0286345 0.0225217 0)
(0.0291469 0.0297655 0)
(0.0297724 0.0369918 0)
(0.0304283 0.0441821 0)
(0.0311176 0.0511892 0)
(0.03144 0.0575472 0)
(0.0325184 0.063169 0)
(0.0210626 0.0639719 0)
(0.0204763 0.084644 0)
(0.0954837 0.167267 0)
(-0.637638 0.309983 0)
(0.617257 0.220806 0)
(0.00469724 0.298097 0)
(0.113066 0.241528 0)
(0.148346 0.17753 0)
(0.130923 0.12347 0)
(0.117907 0.0777763 0)
(0.115056 0.0388121 0)
(0.117243 0.00330018 0)
(0.123641 -0.0308181 0)
(0.131899 -0.0650709 0)
(0.141601 -0.100476 0)
(0.150465 -0.135227 0)
(0.15555 -0.164991 0)
(0.154934 -0.185478 0)
(0.148314 -0.194395 0)
(0.136598 -0.191752 0)
(0.121263 -0.179258 0)
(0.103815 -0.159448 0)
(0.085629 -0.135209 0)
(0.0678193 -0.109333 0)
(0.0513417 -0.0843025 0)
(0.0370912 -0.0620077 0)
(0.0258271 -0.0435305 0)
(0.0178285 -0.0289127 0)
(0.0128474 -0.0175206 0)
(0.0101944 -0.00820301 0)
(0.00913106 -2.56445e-05 0)
(0.00919707 0.00747676 0)
(0.00992708 0.0146255 0)
(0.0110644 0.0216693 0)
(0.0124394 0.0287591 0)
(0.0138575 0.0359974 0)
(0.015002 0.0434215 0)
(0.015413 0.0510008 0)
(0.0143557 0.0585631 0)
(0.0111122 0.0672024 0)
(-0.0204809 0.0916458 0)
(-0.0129672 0.133598 0)
(0.0439067 0.185204 0)
(-0.5488 0.225575 0)
(0.570776 0.118415 0)
(-0.0202459 0.258601 0)
(0.11375 0.229863 0)
(0.165103 0.176028 0)
(0.166771 0.126136 0)
(0.164436 0.0810245 0)
(0.165435 0.0398666 0)
(0.168406 0.00149509 0)
(0.172402 -0.0355281 0)
(0.178018 -0.0719974 0)
(0.184209 -0.107545 0)
(0.187886 -0.139437 0)
(0.186036 -0.16386 0)
(0.177291 -0.178047 0)
(0.162103 -0.181217 0)
(0.142016 -0.174243 0)
(0.118969 -0.159121 0)
(0.0947224 -0.138252 0)
(0.0708721 -0.114334 0)
(0.0486755 -0.0898751 0)
(0.0293297 -0.067269 0)
(0.013895 -0.0482921 0)
(0.00299684 -0.033663 0)
(-0.00376394 -0.0225839 0)
(-0.00723311 -0.0141548 0)
(-0.00879424 -0.00680538 0)
(-0.00912165 8.79987e-05 0)
(-0.00848186 0.00674398 0)
(-0.00727673 0.0133268 0)
(-0.00558267 0.0199941 0)
(-0.00352985 0.0268982 0)
(-0.0013173 0.0342618 0)
(0.000642569 0.0423722 0)
(0.00155012 0.0514871 0)
(0.000559815 0.0623625 0)
(-0.00467916 0.0801316 0)
(-0.0368533 0.122305 0)
(-0.0309832 0.17163 0)
(-0.00302698 0.180152 0)
(-0.522696 0.115854 0)
(0.628495 0.0535015 0)
(0.0094585 0.197252 0)
(0.113843 0.19695 0)
(0.175138 0.157922 0)
(0.191379 0.117647 0)
(0.198029 0.0771866 0)
(0.203373 0.0371325 0)
(0.208621 -0.00170531 0)
(0.213198 -0.0398693 0)
(0.217582 -0.0766665 0)
(0.219441 -0.109927 0)
(0.215609 -0.136539 0)
(0.204208 -0.153973 0)
(0.185334 -0.161284 0)
(0.160601 -0.159037 0)
(0.132165 -0.148619 0)
(0.102265 -0.132068 0)
(0.0726188 -0.111441 0)
(0.0450101 -0.0892585 0)
(0.020703 -0.0677422 0)
(0.00132768 -0.0492477 0)
(-0.0120359 -0.0354443 0)
(-0.0196595 -0.0260591 0)
(-0.0237448 -0.0188039 0)
(-0.0256346 -0.0124695 0)
(-0.0262757 -0.00638034 0)
(-0.0260883 -0.000345814 0)
(-0.025165 0.00565634 0)
(-0.0237394 0.0116819 0)
(-0.0217165 0.0178605 0)
(-0.0191357 0.0243979 0)
(-0.0161003 0.0316505 0)
(-0.0129064 0.0401652 0)
(-0.0102906 0.050826 0)
(-0.0091231 0.0653575 0)
(-0.00784709 0.0892902 0)
(-0.0248305 0.137205 0)
(-0.020046 0.201739 0)
(0.0763533 0.193908 0)
(-0.514382 0.0314984 0)
(0.472115 0.0747146 0)
(-0.132022 0.137593 0)
(0.0941895 0.133345 0)
(0.172655 0.116821 0)
(0.203749 0.0953141 0)
(0.218024 0.0642906 0)
(0.228028 0.0281936 0)
(0.237173 -0.00924834 0)
(0.243652 -0.0456163 0)
(0.245243 -0.0784662 0)
(0.239315 -0.105143 0)
(0.224521 -0.123648 0)
(0.201389 -0.133204 0)
(0.171823 -0.134292 0)
(0.138385 -0.12817 0)
(0.103341 -0.116091 0)
(0.0689895 -0.0998897 0)
(0.0365317 -0.0811642 0)
(0.00839177 -0.0624465 0)
(-0.014502 -0.0458385 0)
(-0.0286444 -0.0348853 0)
(-0.0369865 -0.0274854 0)
(-0.0413698 -0.0219114 0)
(-0.0434715 -0.0168632 0)
(-0.04421 -0.0118054 0)
(-0.0441375 -0.00652814 0)
(-0.0435219 -0.00108136 0)
(-0.0423875 0.00439392 0)
(-0.0408842 0.00984124 0)
(-0.0387259 0.0153782 0)
(-0.0358214 0.0212689 0)
(-0.0321175 0.027971 0)
(-0.0276946 0.0362273 0)
(-0.0229881 0.0473314 0)
(-0.0185366 0.0635975 0)
(-0.0105655 0.0889506 0)
(-0.00571269 0.132578 0)
(-0.00259315 0.199318 0)
(0.151558 0.199486 0)
(-0.375532 0.0793991 0)
(0.723963 0.134394 0)
(0.0818158 0.11521 0)
(0.149644 0.0992221 0)
(0.222259 0.0805066 0)
(0.243895 0.0699074 0)
(0.248685 0.0475505 0)
(0.255034 0.0173027 0)
(0.261211 -0.0150708 0)
(0.260319 -0.0451083 0)
(0.249907 -0.0698377 0)
(0.229743 -0.0875734 0)
(0.201403 -0.0979118 0)
(0.167256 -0.10123 0)
(0.12981 -0.0985436 0)
(0.0915256 -0.091112 0)
(0.0538036 -0.0795941 0)
(0.0193379 -0.0656304 0)
(-0.0123242 -0.0503954 0)
(-0.0347397 -0.0388254 0)
(-0.0495297 -0.0311121 0)
(-0.058106 -0.026434 0)
(-0.0628335 -0.0229915 0)
(-0.0651813 -0.0197484 0)
(-0.0660628 -0.016118 0)
(-0.0659791 -0.0119319 0)
(-0.0652758 -0.00721158 0)
(-0.0641858 -0.00213148 0)
(-0.0627619 0.00301653 0)
(-0.0612902 0.00798171 0)
(-0.0593258 0.01282 0)
(-0.0566659 0.0178364 0)
(-0.0531684 0.0235512 0)
(-0.0487356 0.0308807 0)
(-0.0433495 0.0413951 0)
(-0.0367161 0.0571021 0)
(-0.0255044 0.0795096 0)
(-0.00689019 0.111426 0)
(0.00710406 0.163562 0)
(0.177296 0.177024 0)
(-0.331134 0.139515 0)
(0.191853 0.0880297 0)
(0.225646 0.0998256 0)
(0.24638 0.0701542 0)
(0.242449 0.0397082 0)
(0.239688 0.011884 0)
(0.234699 -0.0132203 0)
(0.220029 -0.0337185 0)
(0.196411 -0.0487798 0)
(0.166187 -0.0583911 0)
(0.131776 -0.063065 0)
(0.0949484 -0.0631762 0)
(0.0575603 -0.0594464 0)
(0.0215342 -0.0527466 0)
(-0.0138898 -0.0432237 0)
(-0.0416153 -0.0343472 0)
(-0.0624591 -0.0275736 0)
(-0.0762761 -0.0238379 0)
(-0.0848669 -0.0220214 0)
(-0.0899631 -0.0210523 0)
(-0.0929148 -0.0199086 0)
(-0.0944093 -0.0181467 0)
(-0.0948136 -0.0155818 0)
(-0.0943696 -0.0121797 0)
(-0.0933171 -0.00800607 0)
(-0.0918994 -0.00324578 0)
(-0.0902086 0.00174845 0)
(-0.0887363 0.00652284 0)
(-0.0873301 0.0109498 0)
(-0.0856876 0.0153256 0)
(-0.0836538 0.0202102 0)
(-0.0808445 0.0264661 0)
(-0.0765744 0.0351999 0)
(-0.0699504 0.0472577 0)
(-0.0583969 0.0621512 0)
(-0.0362801 0.0780255 0)
(-0.00497 0.101494 0)
(0.185776 0.142556 0)
(-0.36599 0.205563 0)
(0.451079 0.209729 0)
(0.206266 0.178808 0)
(0.152711 0.118801 0)
(0.139635 0.0638941 0)
(0.128287 0.0255894 0)
(0.114332 0.00141427 0)
(0.0989298 -0.0133419 0)
(0.0779646 -0.0224512 0)
(0.0533931 -0.027919 0)
(0.0263156 -0.0301296 0)
(-0.00353823 -0.0289974 0)
(-0.032981 -0.0254496 0)
(-0.0593699 -0.0209419 0)
(-0.0816273 -0.0168965 0)
(-0.0981521 -0.0148707 0)
(-0.109553 -0.014648 0)
(-0.11706 -0.0157685 0)
(-0.122163 -0.0171567 0)
(-0.125746 -0.0181767 0)
(-0.128208 -0.0184591 0)
(-0.12969 -0.0178119 0)
(-0.130265 -0.0161132 0)
(-0.130024 -0.0133048 0)
(-0.129108 -0.00941456 0)
(-0.127708 -0.00460965 0)
(-0.125955 0.000692988 0)
(-0.124097 0.00572822 0)
(-0.122788 0.0101396 0)
(-0.121695 0.0143373 0)
(-0.120611 0.0189303 0)
(-0.11916 0.0245705 0)
(-0.116886 0.0318007 0)
(-0.113894 0.040747 0)
(-0.10998 0.05043 0)
(-0.0985977 0.0594136 0)
(-0.0597543 0.0773904 0)
(0.0199226 0.144099 0)
(-0.495583 0.244413 0)
(0.360644 -0.415762 0)
(-0.346309 -0.513061 0)
(-0.21866 -0.0275848 0)
(-0.0931188 0.11102 0)
(-0.0537666 0.0925792 0)
(-0.0314577 0.0544319 0)
(-0.026653 0.0281439 0)
(-0.031596 0.0113188 0)
(-0.0402052 0.00038166 0)
(-0.0505488 -0.00676506 0)
(-0.0641011 -0.010974 0)
(-0.0793314 -0.0131374 0)
(-0.0952745 -0.0144356 0)
(-0.110911 -0.0161142 0)
(-0.124958 -0.0187535 0)
(-0.136472 -0.0218397 0)
(-0.144915 -0.0246816 0)
(-0.150826 -0.0268129 0)
(-0.155269 -0.0282894 0)
(-0.158963 -0.0291839 0)
(-0.16211 -0.0295092 0)
(-0.164664 -0.0292087 0)
(-0.166532 -0.0282115 0)
(-0.167666 -0.0264503 0)
(-0.168088 -0.0238765 0)
(-0.167889 -0.0204728 0)
(-0.167214 -0.0162498 0)
(-0.166167 -0.0112171 0)
(-0.164653 -0.00528812 0)
(-0.162896 0.00112088 0)
(-0.160639 0.00729114 0)
(-0.157694 0.0135213 0)
(-0.153745 0.0203939 0)
(-0.148602 0.0283784 0)
(-0.143211 0.037494 0)
(-0.138961 0.0474619 0)
(-0.128236 0.0600371 0)
(-0.0912034 0.083009 0)
(-0.105657 0.116873 0)
(-0.596616 0.130387 0)
(0.123431 -0.18563 0)
(-0.388262 -0.297864 0)
(-0.343516 -0.0963987 0)
(-0.265086 0.0518509 0)
(-0.211419 0.0837281 0)
(-0.179348 0.0746728 0)
(-0.163168 0.0611158 0)
(-0.157256 0.0511308 0)
(-0.157351 0.0460382 0)
(-0.16058 0.0456586 0)
(-0.164946 0.0491574 0)
(-0.169249 0.0555629 0)
(-0.172715 0.0635489 0)
(-0.174935 0.071101 0)
(-0.176416 0.0764888 0)
(-0.177734 0.0781103 0)
(-0.179484 0.0752306 0)
(-0.181781 0.0704497 0)
(-0.184574 0.0652111 0)
(-0.18777 0.0599098 0)
(-0.191253 0.0547 0)
(-0.194898 0.0497969 0)
(-0.198562 0.0455288 0)
(-0.202061 0.0422903 0)
(-0.205147 0.0404329 0)
(-0.207521 0.0401231 0)
(-0.208897 0.0412003 0)
(-0.209056 0.043023 0)
(-0.207747 0.0441565 0)
(-0.205152 0.0432258 0)
(-0.201068 0.0417182 0)
(-0.195135 0.0403814 0)
(-0.186915 0.0396642 0)
(-0.176095 0.0398722 0)
(-0.162926 0.040831 0)
(-0.146137 0.0421002 0)
(-0.115138 0.0459164 0)
(-0.0498566 0.0600883 0)
(0.107446 0.0908407 0)
(-0.376571 0.0606867 0)
(1.14796 -0.0112582 0)
(-0.29639 -0.323631 0)
(-0.353279 -0.233947 0)
(-0.352772 -0.149555 0)
(-0.329027 -0.108198 0)
(-0.297472 -0.0997483 0)
(-0.270386 -0.102136 0)
(-0.250895 -0.108138 0)
(-0.238053 -0.116166 0)
(-0.229784 -0.126094 0)
(-0.224124 -0.138057 0)
(-0.219567 -0.151857 0)
(-0.215199 -0.166535 0)
(-0.210841 -0.180376 0)
(-0.206913 -0.191435 0)
(-0.204208 -0.198417 0)
(-0.203585 -0.200633 0)
(-0.205585 -0.200018 0)
(-0.210075 -0.197577 0)
(-0.216744 -0.193545 0)
(-0.225255 -0.187915 0)
(-0.235202 -0.180706 0)
(-0.246041 -0.172133 0)
(-0.257073 -0.162648 0)
(-0.267471 -0.152823 0)
(-0.276335 -0.143153 0)
(-0.282775 -0.133865 0)
(-0.286048 -0.124823 0)
(-0.285766 -0.115588 0)
(-0.28213 -0.106067 0)
(-0.276258 -0.0976049 0)
(-0.268467 -0.0898992 0)
(-0.258639 -0.0821718 0)
(-0.246855 -0.073951 0)
(-0.233804 -0.0653013 0)
(-0.217832 -0.0564151 0)
(-0.186902 -0.0454892 0)
(-0.126481 -0.0249878 0)
(-0.108969 0.0161283 0)
(-0.58569 0.0512532 0)
)
;

boundaryField
{
    floor
    {
        type            noSlip;
    }
    ceiling
    {
        type            noSlip;
    }
    sWall
    {
        type            noSlip;
    }
    nWall
    {
        type            noSlip;
    }
    sideWalls
    {
        type            empty;
    }
    glass1
    {
        type            noSlip;
    }
    glass2
    {
        type            noSlip;
    }
    sun
    {
        type            noSlip;
    }
    Table_master
    {
        type            noSlip;
    }
    Table_slave
    {
        type            noSlip;
    }
    inlet
    {
        type            fixedValue;
        value           uniform (0.5 0 0);
    }
    outlet
    {
        type            zeroGradient;
    }
}


// ************************************************************************* //
