/*--------------------------------*- C++ -*----------------------------------*\
  =========                 |
  \\      /  F ield         | OpenFOAM: The Open Source CFD Toolbox
   \\    /   O peration     | Website:  https://openfoam.org
    \\  /    A nd           | Version:  6
     \\/     M anipulation  |
\*---------------------------------------------------------------------------*/
FoamFile
{
    version     2.0;
    format      ascii;
    class       surfaceScalarField;
    location    "3260";
    object      phi;
}
// * * * * * * * * * * * * * * * * * * * * * * * * * * * * * * * * * * * * * //

dimensions      [1 0 -1 0 0 0 0];

internalField   nonuniform List<scalar> 
850
(
-0.00305312
0.00311358
-0.00414584
0.00109271
-0.00501493
0.000869098
-0.00570379
0.000688858
-0.00617587
0.00047208
-0.00639712
0.000221244
-0.0063279
-6.92166e-05
-0.00592407
-0.000403829
-0.00517381
-0.000750258
-0.00412864
-0.00104518
-0.00290032
-0.00122831
-0.00164151
-0.00125881
-0.000539001
-0.00110251
0.000135922
-0.000674924
0.000138273
-0.00092243
0.000926086
-0.000690049
-0.000232381
-6.08316e-05
-0.000629218
0.000542606
-0.000603438
0.00100179
-0.000459181
0.00125836
-0.000256576
0.00136648
-0.000108117
0.0014193
-5.28179e-05
0.00144965
-3.03546e-05
0.00146472
-1.50672e-05
0.00146833
-3.61211e-06
0.00146133
6.99847e-06
0.00143808
2.32523e-05
0.00137956
5.85187e-05
0.00125365
0.000125915
0.00105007
0.000203574
0.000793439
0.000256635
0.000798278
-0.00220746
0.00548445
-0.00329513
0.00218038
-0.00420835
0.00178232
-0.00490612
0.00138663
-0.00538763
0.000953591
-0.00563057
0.000464181
-0.00559454
-0.000105249
-0.00524033
-0.000758036
-0.00456681
-0.00142378
-0.00364275
-0.00196924
-0.00258805
-0.00228301
-0.00154151
-0.00230536
-0.000628663
-0.00201535
9.29441e-05
-0.00139653
0.000872778
-0.000641561
0.00114863
-0.000272064
0.00095685
0.000196136
0.000969539
4.14964e-05
0.00089559
0.000421747
-0.000612631
0.000786635
-0.000994106
0.0010996
-0.000916408
0.00135045
-0.000710031
0.00140692
-0.000313042
0.00141506
-0.000116253
0.00142578
-6.35433e-05
0.00143477
-3.93405e-05
0.00144004
-2.03353e-05
0.0014422
-5.77605e-06
0.00144181
7.38906e-06
0.00143633
2.87297e-05
0.00139988
9.49738e-05
0.001247
0.000278792
0.000978543
0.000472032
0.000644606
0.000590571
0.00145526
-0.00156234
0.00729721
-0.00251038
0.00312842
-0.00334302
0.00261496
-0.00396558
0.0020092
-0.00441316
0.00140117
-0.00466168
0.000712701
-0.00465601
-0.000110918
-0.00433471
-0.00107934
-0.00371316
-0.00204533
-0.00288873
-0.00279367
-0.0019866
-0.00318514
-0.00112266
-0.0031693
-0.00037345
-0.00276456
0.000240555
-0.00201054
0.000752063
-0.00115307
0.000899419
-0.00041942
0.000707527
0.000388028
0.00168833
0.00143724
-0.000527814
0.00163274
-0.000808134
0.00157515
-0.000936509
0.00160843
-0.000949696
0.0018117
-0.000913294
0.00149881
0.00138271
0.00131932
0.00128013
0.00125995
0.00125433
0.00126187
0.00129076
0.00138588
0.00115886
0.000505817
0.00086998
0.000760911
0.000498882
0.000961668
0.00197271
-0.00109548
0.00871734
-0.00185228
0.00388522
-0.00243661
0.00319928
-0.00288269
0.00245528
-0.00322782
0.00174629
-0.00344068
0.000925564
-0.00344208
-0.000109514
-0.00312367
-0.00139775
-0.00254779
-0.0026212
-0.00184607
-0.00349539
-0.00113041
-0.0039008
-0.000480678
-0.00381903
6.57995e-05
-0.00331104
0.000526398
-0.00247113
0.0009025
-0.00152917
0.00111958
-0.000636498
0.00130377
0.000203839
0.00225754
0.000734554
0.00216772
0.000101762
0.00199495
-0.000355049
0.00190899
-0.00072217
0.00179819
-0.00082571
0.00166599
-0.000817496
0.00143503
-0.000682333
0.00175863
-0.000323758
0.0019363
-0.00017782
0.00206723
-0.000131082
0.00216802
-0.000100942
0.00222824
-6.03793e-05
0.00222568
2.4055e-06
0.00213279
9.27383e-05
0.00191324
0.000219401
0.00150708
0.000406003
0.00126969
0.000743212
0.000902426
0.00112817
0.000384078
0.00148002
0.00238043
-0.000756061
0.00986112
-0.00132705
0.00445621
-0.00150963
0.00338186
-0.00168822
0.00263387
-0.0018532
0.00191127
-0.00196222
0.00103459
-0.00191376
-0.000157974
-0.00155673
-0.00175479
-0.00105571
-0.00312222
-0.000537793
-0.00401331
-7.3297e-05
-0.0043653
0.00030536
-0.00419768
0.000596532
-0.00360221
0.000849413
-0.00272402
0.00106876
-0.00174851
0.00127616
-0.000843907
0.00158685
-0.000106842
0.00203041
0.000290989
0.00206429
6.78871e-05
0.00199698
-0.00028774
0.00181248
-0.000537675
0.00162461
-0.000637835
0.00144751
-0.000640402
0.00131883
-0.000553647
0.00137758
-0.000382514
0.00146564
-0.000265879
0.00155011
-0.000215553
0.0016316
-0.000182429
0.00170173
-0.000130514
0.00174076
-3.66247e-05
0.0017247
0.000108804
0.00163844
0.000305664
0.0014862
0.000558238
0.00133012
0.000899298
0.00115113
0.00130715
0.000804097
0.00182705
0.00101982
0.00216471
-0.00109517
0.0021361
-0.00179343
0.000717876
-0.00172066
-0.000638725
0.0109406
-0.00101438
0.00483187
-0.00063343
0.00300091
-0.000448682
0.00244912
-0.000384055
0.00184665
-0.000303695
0.000954229
-5.19046e-05
-0.000409764
0.000334504
-0.0021412
0.00069219
-0.00347991
0.000952039
-0.00427316
0.00109506
-0.00450832
0.00114539
-0.00424801
0.00113929
-0.00359611
0.0011161
-0.00270083
0.00110063
-0.00173305
0.0011328
-0.000876075
0.00126987
-0.00024391
0.00148465
7.62093e-05
0.00153591
1.66186e-05
0.00143794
-0.000189769
0.00126357
-0.000363298
0.0010839
-0.000458168
0.000926595
-0.000483099
0.000821567
-0.000448619
0.000810766
-0.000371713
0.000860109
-0.000315223
0.000936277
-0.00029172
0.00102702
-0.000273174
0.00112585
-0.000229344
0.00122286
-0.000133629
0.00129577
3.58921e-05
0.00133283
0.000268602
0.00134813
0.000542937
0.00138215
0.000865279
0.0014826
0.0012067
0.00168608
0.00162357
0.00203682
0.00181398
0.00233694
0.00183597
0.00182999
0.00122483
0.000174764
-0.000763861
0.0121918
-0.000621469
0.00468948
0.000492303
0.00188713
0.000960656
0.00198077
0.00121802
0.00158928
0.00159952
0.000572722
0.00210282
-0.000913058
0.00243998
-0.00247836
0.00257379
-0.00361371
0.00250624
-0.00420561
0.00227301
-0.00427509
0.00193605
-0.00391105
0.00155912
-0.00321918
0.00120037
-0.00234207
0.000896634
-0.00142931
0.000705098
-0.000684538
0.000653508
-0.000192321
0.000704676
2.50419e-05
0.000712762
8.53202e-06
0.000636503
-0.00011351
0.000509178
-0.000235972
0.000368878
-0.000317869
0.000242977
-0.000357197
0.000156865
-0.000362507
0.000133903
-0.000348751
0.000162911
-0.00034423
0.000222541
-0.00035135
0.000302997
-0.00035363
0.000405284
-0.000331631
0.000534373
-0.000262718
0.000687277
-0.000117012
0.000845216
0.000110663
0.00100722
0.000380934
0.00120907
0.000663428
0.00148366
0.00093211
0.00188404
0.00122319
0.00241743
0.00128059
0.00318504
0.00106837
0.00336162
0.00104825
0.00360519
0.00273596
0.00999914
0.00339174
0.0040337
0.00344939
0.00182949
0.00353507
0.00189509
0.00374634
0.00137801
0.00422227
9.67974e-05
0.00469342
-0.00138421
0.00478845
-0.00257339
0.00451412
-0.00333938
0.00396096
-0.00365245
0.00322979
-0.00354392
0.00242479
-0.00310605
0.00162795
-0.00242233
0.00092203
-0.00163616
0.000347358
-0.000854642
-2.52776e-06
-0.000334652
-0.000140841
-5.40072e-05
-0.000155266
3.94671e-05
-0.000163115
1.6381e-05
-0.000215243
-6.13824e-05
-0.000306062
-0.000145154
-0.000412289
-0.000211642
-0.000511606
-0.00025788
-0.000585872
-0.000288241
-0.000623866
-0.000310757
-0.000633077
-0.00033502
-0.00062525
-0.000359176
-0.000604686
-0.000374194
-0.000566403
-0.000369913
-0.000494184
-0.000334937
-0.00035672
-0.000254475
-0.000146589
-9.94683e-05
0.000104178
0.000130168
0.000388872
0.000378733
0.000707315
0.000613667
0.00108959
0.000840923
0.00150689
0.000863287
0.00189864
0.000676623
0.00120604
0.00174085
0.00509764
0.0105981
0.0146276
0.0125614
0.00389562
0.0112293
0.00322725
0.0103408
0.00226648
0.00953399
0.00090362
0.00853157
-0.000381786
0.00735264
-0.00139447
0.00607935
-0.00206609
0.00476051
-0.00233361
0.00342929
-0.0022127
0.00216423
-0.00184099
0.00100938
-0.00126748
5.63334e-05
-0.000683106
-0.000566086
-0.000232222
-0.000859674
-4.10652e-05
-0.00095681
4.3129e-05
-0.000976468
5.91257e-05
-0.000991856
3.17681e-05
-0.00103529
-1.79523e-05
-0.00110786
-7.25772e-05
-0.00119689
-0.000122612
-0.0012887
-0.000166076
-0.00137432
-0.000202621
-0.00145151
-0.000233566
-0.00152704
-0.000259483
-0.0016102
-0.000276017
-0.00170952
-0.000274878
-0.00183466
-0.000244778
-0.00199851
-0.000171083
-0.00221651
-3.64791e-05
-0.00248301
0.000167032
-0.00280698
0.000454139
-0.00327095
0.000842704
-0.00398815
0.00133087
-0.00502969
0.00188247
-0.00651691
0.0023505
-0.00825535
0.00241507
-0.00777181
0.0012573
-0.00235715
0.00895046
0.00560354
0.0074719
0.00470582
0.00708003
0.00265834
0.00672921
0.00125445
0.00611922
0.000228198
0.0052468
-0.000522042
0.0041782
-0.00099749
0.00298278
-0.00113819
0.00169117
-0.000921092
0.000430285
-0.000580104
-0.000609588
-0.000227611
-0.00127079
-2.19062e-05
-0.00156326
6.0249e-05
-0.00167793
7.36084e-05
-0.0017079
7.30987e-05
-0.00171367
6.48948e-05
-0.00172869
4.67872e-05
-0.0017675
2.08533e-05
-0.00183141
-8.66202e-06
-0.00191295
-4.10692e-05
-0.00200446
-7.45749e-05
-0.00210376
-0.000103318
-0.00221221
-0.000125117
-0.00233323
-0.000138461
-0.00246896
-0.000140287
-0.00261827
-0.00012557
-0.00277573
-8.73151e-05
-0.002929
-1.78125e-05
-0.00306255
9.70711e-05
-0.00317483
0.000279306
-0.00327577
0.000555082
-0.00337728
0.000944212
-0.0034861
0.00143969
-0.00356961
0.00196597
-0.00356799
0.00234888
-0.00331002
0.00215711
-0.00195003
-0.000102691
-0.00422386
-0.000826102
0.00648296
0.000742095
0.00313762
0.00140779
0.00199264
0.00164669
0.00101555
0.00158285
0.00029204
0.00121182
-0.000151018
0.000529579
-0.000315248
-0.000363859
-0.000244754
-0.00124116
-4.37867e-05
-0.00188644
6.51711e-05
-0.00222715
0.000113101
-0.00235811
0.000109047
-0.0023812
8.3342e-05
-0.00237097
6.33799e-05
-0.0023499
5.2032e-05
-0.00232934
4.43326e-05
-0.00231835
3.57999e-05
-0.00232223
2.47325e-05
-0.0023416
1.07085e-05
-0.00237544
-7.22887e-06
-0.00242403
-2.59868e-05
-0.00248538
-4.19678e-05
-0.0025574
-5.31038e-05
-0.00263755
-5.83036e-05
-0.00272179
-5.60481e-05
-0.00280353
-4.38323e-05
-0.0028733
-1.75447e-05
-0.00291855
2.74336e-05
-0.00291853
9.70526e-05
-0.00284796
0.000208744
-0.00267232
0.000379433
-0.00236026
0.000632152
-0.00190395
0.000983386
-0.00128938
0.0013514
-0.000299693
0.0013592
0.00114764
0.000709775
0.00164261
-0.00059766
-0.00248956
-0.0120486
-0.0155771
-0.00905366
-0.00588862
-0.00387371
-0.00283955
-0.00253248
-0.0026715
-0.00297682
-0.00321307
-0.00324919
-0.00317673
-0.00305649
-0.00294033
-0.00284987
-0.00277934
-0.00272013
-0.00266858
-0.00262551
-0.00259347
-0.00257545
-0.0025754
-0.00259419
-0.00262908
-0.00267523
-0.00272673
-0.00277613
-0.00281348
-0.00282474
-0.00279123
-0.00268832
-0.00247395
-0.00208914
-0.00145188
-0.000463686
0.00089214
0.00225547
0.0029693
0.00237582
)
;

boundaryField
{
    floor
    {
        type            calculated;
        value           nonuniform List<scalar> 
36
(
0
0
0
0
0
0
0
0
0
0
0
0
0
0
0
0
0
0
0
-4.83914e-06
-1.23783e-05
-1.85697e-05
-2.36402e-05
-2.11163e-05
-1.96191e-05
-1.84535e-05
-2.35097e-06
-3.78399e-06
-4.35946e-06
-5.04476e-06
-3.6566e-06
-7.64391e-06
-1.10004e-05
-1.12622e-05
-1.38364e-05
-1.19393e-05
)
;
    }
    ceiling
    {
        type            calculated;
        value           nonuniform List<scalar> 
43
(
-4.18437e-05
-4.11784e-05
-4.04781e-05
-2.7414e-05
-2.227e-05
-1.8605e-05
-1.50291e-05
-1.20045e-05
-9.92929e-06
-8.50207e-06
-7.6663e-06
-7.28585e-06
-7.13814e-06
-7.1114e-06
-7.12502e-06
-7.14643e-06
-7.17764e-06
-7.22047e-06
-7.26679e-06
-7.30738e-06
-7.31498e-06
-7.27625e-06
-7.19276e-06
-7.08121e-06
-6.95237e-06
-6.80923e-06
-6.64853e-06
-6.47533e-06
-6.28385e-06
-6.07875e-06
-5.8591e-06
-5.6252e-06
-5.37656e-06
-5.10589e-06
-4.81126e-06
-4.42486e-06
-4.13954e-06
-4.0493e-06
-4.18133e-06
-3.60358e-06
6.94077e-06
4.17891e-06
-5.33141e-05
)
;
    }
    sWall
    {
        type            calculated;
        value           uniform -0.000241398;
    }
    nWall
    {
        type            calculated;
        value           nonuniform List<scalar> 6(-5.43171e-05 -6.54339e-05 -6.88139e-05 -8.3326e-05 -9.16843e-05 -0.00011014);
    }
    sideWalls
    {
        type            empty;
        value           nonuniform 0();
    }
    glass1
    {
        type            calculated;
        value           nonuniform List<scalar> 9(-6.04583e-05 -0.000163402 -0.000250424 -0.000324647 -0.000387723 -0.000440785 -0.000487276 -0.000543337 -0.000605862);
    }
    glass2
    {
        type            calculated;
        value           nonuniform List<scalar> 2(-0.000286411 -0.000317012);
    }
    sun
    {
        type            calculated;
        value           uniform 0;
    }
    Table_master
    {
        type            calculated;
        value           nonuniform List<scalar> 9(-1.5364e-07 -1.53789e-07 -1.53839e-07 -1.53869e-07 -1.53889e-07 -1.53902e-07 -1.53906e-07 -1.539e-07 -1.5387e-07);
    }
    Table_slave
    {
        type            calculated;
        value           nonuniform List<scalar> 9(1.5353e-07 1.53515e-07 1.53468e-07 1.53431e-07 1.53408e-07 1.53408e-07 1.53413e-07 1.53451e-07 1.53535e-07);
    }
    inlet
    {
        type            calculated;
        value           uniform -0.0106584;
    }
    outlet
    {
        type            calculated;
        value           nonuniform List<scalar> 2(0.0123318 0.00356969);
    }
}


// ************************************************************************* //
