/*--------------------------------*- C++ -*----------------------------------*\
  =========                 |
  \\      /  F ield         | OpenFOAM: The Open Source CFD Toolbox
   \\    /   O peration     | Website:  https://openfoam.org
    \\  /    A nd           | Version:  6
     \\/     M anipulation  |
\*---------------------------------------------------------------------------*/
FoamFile
{
    version     2.0;
    format      ascii;
    class       volScalarField;
    location    "36599.9999984692768";
    object      alphat;
}
// * * * * * * * * * * * * * * * * * * * * * * * * * * * * * * * * * * * * * //

dimensions      [1 -1 -1 0 0 0 0];

internalField   nonuniform List<scalar> 
778
(
0.00104101
0.00111055
0.00110652
0.00115453
0.00119853
0.00123849
0.0012757
0.00131158
0.00134772
0.00138613
0.00142279
0.00145763
0.00149198
0.00152891
0.00156744
0.000736793
0.00105577
0.00106438
0.00103868
0.000995587
0.000937943
0.000880488
0.000827589
0.000779933
0.000737223
0.000699167
0.00066498
0.000633832
0.000604754
0.000576453
0.000546858
0.00052226
0.000472685
0.00152469
0.00300732
0.00263933
0.00304641
0.0033417
0.00365471
0.00396692
0.00425465
0.00448633
0.00462134
0.00470084
0.00466853
0.00443616
0.00385976
0.00281922
0.00171643
0.00163653
0.00156652
0.00131862
0.00224651
0.00311443
0.00362737
0.0036516
0.00288122
0.00246418
0.00217508
0.00195554
0.00178086
0.00163196
0.00150039
0.00137798
0.00125822
0.00115075
0.00105808
0.00119135
0.000599326
0.00193418
0.00419883
0.00311335
0.00445336
0.00497596
0.00541802
0.00581942
0.00617267
0.00647203
0.00670695
0.00693471
0.00717473
0.00739578
0.0075281
0.00744263
0.00681569
0.00498523
0.00192161
0.00166346
0.00355803
0.00496622
0.0056335
0.00512455
0.00135233
0.00117602
0.00103991
0.000933371
0.000848561
0.0007801
0.000724269
0.000678871
0.000643483
0.000707329
0.000831927
0.00131644
0.00068184
0.00232916
0.00565848
0.002979
0.00500689
0.0057806
0.00619425
0.00649819
0.00672291
0.00689061
0.00702673
0.00722047
0.00754825
0.00802697
0.0086293
0.00923511
0.00953446
0.00895446
0.00668138
0.00191364
0.00443012
0.00659014
0.00768886
0.00796148
0.00679845
0.00153939
0.00140032
0.00129268
0.00120312
0.00112675
0.00105816
0.000993477
0.000929253
0.000859914
0.000803261
0.000832318
0.00142424
0.000750883
0.00271844
0.00749056
0.00300553
0.00475921
0.00594883
0.00630145
0.0064291
0.00643355
0.00636922
0.00631239
0.00639339
0.00671173
0.00729633
0.00812454
0.00908513
0.00997012
0.0105316
0.0105256
0.00944623
0.00961037
0.00982993
0.00986104
0.00966158
0.00904479
0.00719934
0.00621969
0.00554855
0.00500345
0.00446843
0.00394998
0.00344269
0.00293598
0.00241538
0.00185552
0.00141629
0.00141308
0.00111847
0.000894924
0.00117149
0.00112832
0.00310139
0.0095407
0.0035384
0.004013
0.0056993
0.00609064
0.0060589
0.00584036
0.00552823
0.00527081
0.00526498
0.00559839
0.00626445
0.00722479
0.00834861
0.009471
0.0104257
0.0110352
0.0111458
0.0110331
0.0108365
0.0105587
0.0102023
0.00974929
0.00908788
0.00845042
0.00787147
0.00731197
0.00670755
0.00606189
0.00537211
0.00463234
0.00383787
0.00299511
0.00223309
0.00167692
0.001302
0.00145134
0.0025091
0.00135195
0.00349216
0.0114358
0.0047151
0.00328764
0.00512052
0.00576082
0.00568947
0.00533627
0.00482413
0.00437351
0.00436018
0.00478082
0.00554314
0.00661681
0.00783827
0.0090469
0.0100863
0.01083
0.0111714
0.0111438
0.010898
0.0105267
0.0101021
0.00967903
0.00927002
0.00889464
0.00854198
0.00816577
0.00771126
0.00716406
0.00651605
0.00576405
0.00491089
0.00397879
0.00306923
0.00222282
0.001638
0.0014566
0.00254536
0.00158911
0.00382789
0.0128686
0.00642774
0.00313085
0.00405569
0.00510631
0.00525297
0.00496299
0.00435734
0.00374502
0.00388331
0.00443954
0.0052921
0.00639869
0.00766775
0.00893321
0.0100116
0.01076
0.0110991
0.0110535
0.0107361
0.0102687
0.00976655
0.00932152
0.00897864
0.0087337
0.00854269
0.00833532
0.00804675
0.00764285
0.00710763
0.00643769
0.00563933
0.00473704
0.00380157
0.00286228
0.00201523
0.00133851
0.00359051
0.00206127
0.00392909
0.0121737
0.00795064
0.00404806
0.00275017
0.00336838
0.00394191
0.00399084
0.00352352
0.00342471
0.00378027
0.00443452
0.00535648
0.00653011
0.00786028
0.00916478
0.0102394
0.0109299
0.0111716
0.0110035
0.0105438
0.00994113
0.00934341
0.00886677
0.00856439
0.0084159
0.00834843
0.00826855
0.00810241
0.00781056
0.00737724
0.00680046
0.00608752
0.00525902
0.00435371
0.00334325
0.00199793
0.00164614
0.00533345
0.00236607
0.00384958
0.00981072
0.00820768
0.0055543
0.00366976
0.00284148
0.0026904
0.0028163
0.003053
0.00342961
0.00396409
0.00470063
0.00570348
0.00696878
0.00837107
0.0096936
0.0107117
0.0112716
0.0113293
0.010952
0.0102882
0.00952394
0.00884167
0.00837451
0.00816069
0.00813556
0.00818131
0.00817996
0.00807165
0.00783455
0.00746108
0.00695025
0.00630645
0.00553736
0.00460858
0.00318929
0.00151282
0.00306575
0.00530056
0.00239511
0.00360584
0.00838321
0.00793336
0.00635362
0.00489182
0.00393922
0.00346776
0.00336096
0.00355596
0.00391507
0.00443772
0.00521548
0.00632296
0.00770964
0.00918229
0.0104757
0.0113522
0.0116777
0.0114479
0.0107774
0.00986584
0.00895227
0.00825796
0.00791026
0.00787058
0.00798398
0.00809755
0.00809915
0.00798425
0.0077539
0.00740309
0.00692541
0.00631666
0.00556052
0.00448502
0.00251171
0.00178598
0.00361062
0.00489233
0.00235406
0.00328298
0.00755745
0.00765097
0.00672332
0.00572144
0.00496675
0.00452232
0.00436374
0.00440372
0.004621
0.0051019
0.00597149
0.00725158
0.00878598
0.0102876
0.011449
0.0120459
0.0119954
0.0113613
0.0103288
0.0091748
0.00821042
0.00766656
0.00755788
0.00765272
0.00780043
0.00789781
0.00786982
0.00773677
0.00750467
0.00716393
0.00669677
0.00608463
0.00529886
0.00405669
0.00197163
0.00209792
0.0038157
0.00477478
0.00228347
0.00299327
0.00675801
0.00730318
0.00686656
0.00622448
0.00568463
0.00532563
0.00515033
0.00509913
0.00528671
0.0058991
0.00703593
0.00858345
0.0102409
0.0116403
0.0124772
0.0125944
0.0120014
0.0108646
0.00946775
0.00820077
0.00739312
0.00704373
0.00700221
0.00709684
0.007221
0.00730238
0.00728106
0.00715097
0.00692006
0.00657218
0.00607973
0.00541847
0.00457039
0.00342098
0.00199309
0.00216514
0.00392472
0.00537051
0.00229149
0.00300372
0.00670651
0.00746123
0.00694831
0.00642879
0.00600325
0.00569656
0.00549801
0.00549316
0.00594876
0.00702927
0.00863846
0.0104483
0.0120406
0.0130507
0.0132677
0.0126716
0.0113991
0.00976674
0.00818798
0.00705079
0.00639334
0.00608521
0.00599842
0.00603269
0.00611266
0.00618109
0.0061779
0.0060478
0.00579522
0.00538817
0.00479306
0.00402902
0.00321302
0.00251689
0.00203974
0.00234648
0.00416774
0.00533877
0.00243463
0.00270983
0.00281958
0.0041655
0.00489785
0.00512536
0.00513027
0.00508204
0.00518078
0.00581664
0.00716429
0.00905209
0.0110791
0.0128007
0.0138534
0.0140315
0.0133027
0.0118435
0.00992139
0.00809043
0.00667133
0.00573108
0.00518914
0.00492296
0.00480636
0.00475737
0.00473535
0.00471804
0.00466971
0.00450218
0.00420118
0.00373733
0.00313659
0.0025517
0.00217654
0.00208498
0.00225997
0.0028833
0.00478495
0.00549226
0.00246111
0.000964995
0.00174011
0.00266913
0.00341284
0.00427783
0.00575432
0.00792154
0.0103164
0.01248
0.0140767
0.0148855
0.0147724
0.0137566
0.0119496
0.00981363
0.00779979
0.00621821
0.00516524
0.00458236
0.00428289
0.00410585
0.00396879
0.00384124
0.00371616
0.00359325
0.00346567
0.00329469
0.00304403
0.00271999
0.00239014
0.00219126
0.00221769
0.00246454
0.00291312
0.00367114
0.00524832
0.0059766
0.00246253
0.00178714
0.00246914
0.0035908
0.00559625
0.00832007
0.0110397
0.0131416
0.0146422
0.015525
0.0157327
0.0151604
0.0137111
0.0116142
0.00928198
0.0071805
0.00563383
0.00473671
0.00430317
0.00408602
0.00394172
0.00381575
0.0036947
0.00358011
0.0034761
0.00338287
0.00329243
0.0031841
0.00304274
0.0028815
0.00274462
0.00271242
0.00285207
0.00316522
0.00360784
0.00414217
0.00470552
0.00494651
0.00235781
0.00323892
0.00785798
0.00724658
0.00648446
0.00823126
0.0109654
0.0132672
0.0148125
0.0156139
0.0157905
0.0154295
0.0145044
0.0129861
0.0109431
0.00869024
0.00670399
0.00538812
0.00472634
0.00442162
0.00424408
0.00409555
0.00394921
0.0038077
0.003684
0.00359225
0.00354182
0.00353306
0.00355434
0.00357906
0.0035799
0.00357443
0.00359286
0.00367297
0.0038539
0.00415364
0.00454982
0.00497713
0.00525357
0.00519169
0.00235173
0.00309577
0.00598025
0.00772692
0.00988504
0.0109652
0.0120794
0.0127254
0.0128765
0.0126206
0.0120153
0.0110783
0.0098138
0.00830543
0.00678925
0.0055731
0.00482048
0.00442078
0.0042081
0.0040609
0.00392425
0.00378339
0.00364337
0.00351917
0.00343037
0.00339643
0.00343161
0.00353943
0.00370701
0.00389804
0.00404888
0.00415985
0.00427878
0.00444428
0.00468637
0.00502558
0.00546941
0.00600677
0.00661045
0.00592324
0.00264227
0.00289453
0.00248039
0.00246739
0.00253819
0.00259595
0.00251505
0.00236016
0.00217894
0.00199591
0.00182093
0.00165825
0.0015134
0.00139495
0.00131113
0.00126302
0.00124247
0.00123965
0.00124386
0.00125135
0.00126187
0.0012768
0.00129814
0.00132756
0.00136557
0.00141106
0.00146157
0.00151422
0.00156672
0.00161816
0.00166945
0.00172093
0.00177484
0.00183518
0.00190548
0.00198784
0.0020817
0.00218293
0.00228833
0.00241209
0.00244152
)
;

boundaryField
{
    floor
    {
        type            compressible::alphatWallFunction;
        Prt             0.85;
        value           nonuniform List<scalar> 
36
(
0.000219898
0.000104478
0.000149992
0.000151196
0.000147598
0.000141543
0.000133394
0.000125215
0.000117628
0.000110744
0.000104532
9.89602e-05
9.39239e-05
8.93078e-05
8.49735e-05
8.07304e-05
7.62659e-05
7.25326e-05
6.49415e-05
6.49406e-05
8.41627e-05
9.64129e-05
0.000106525
0.00012728
0.000166095
0.000160126
0.000219896
0.000239728
0.000229115
0.00021977
0.000104476
0.000219768
0.000186285
0.000266729
0.00023269
0.000265686
)
;
    }
    ceiling
    {
        type            compressible::alphatWallFunction;
        Prt             0.85;
        value           nonuniform List<scalar> 
43
(
0.000391151
0.000338867
0.000337218
0.000346232
0.000353575
0.000343344
0.000323622
0.000300357
0.000276633
0.000253722
0.000232194
0.00021282
0.000196824
0.000185418
0.000178846
0.000176042
0.000175669
0.000176256
0.000177289
0.00017873
0.000180764
0.000183663
0.000187656
0.000192812
0.000198978
0.000205817
0.000212932
0.000220011
0.000226924
0.000233787
0.000240651
0.000247803
0.000255765
0.000264999
0.00027577
0.000287993
0.000301123
0.000314756
0.000330673
0.000334321
0.000368265
0.000382061
0.000248584
)
;
    }
    sWall
    {
        type            compressible::alphatWallFunction;
        Prt             0.85;
        value           nonuniform List<scalar> 9(0.000507618 0.000477883 0.000438182 0.000402221 0.000403517 0.00036669 0.000432098 0.000414397 0.0003894);
    }
    nWall
    {
        type            compressible::alphatWallFunction;
        Prt             0.85;
        value           nonuniform List<scalar> 
14
(
0.000159679
0.000190384
0.000222328
0.000327473
0.000322212
0.000313219
0.00031447
0.000332635
0.000336005
0.000335923
0.000322599
0.000322123
0.000359343
0.000333631
)
;
    }
    sideWalls
    {
        type            empty;
    }
    glass1
    {
        type            compressible::alphatWallFunction;
        Prt             0.85;
        value           nonuniform List<scalar> 9(0.00014393 0.000209138 0.000262697 0.000313308 0.000362382 0.000410006 0.000458015 0.000498872 0.000511234);
    }
    glass2
    {
        type            compressible::alphatWallFunction;
        Prt             0.85;
        value           nonuniform List<scalar> 2(0.000282277 0.000321441);
    }
    sun
    {
        type            compressible::alphatWallFunction;
        Prt             0.85;
        value           nonuniform List<scalar> 
14
(
0.000147964
0.000157647
0.000157086
0.00016375
0.00016983
0.00017533
0.000180433
0.000185337
0.000190261
0.000195479
0.000200444
0.00020515
0.000209775
0.000214736
)
;
    }
    Table_master
    {
        type            compressible::alphatWallFunction;
        Prt             0.85;
        value           nonuniform List<scalar> 9(0.000191145 0.00016697 0.000148026 0.000132995 0.000120886 0.000111007 0.000102874 9.62043e-05 9.09679e-05);
    }
    Table_slave
    {
        type            compressible::alphatWallFunction;
        Prt             0.85;
        value           nonuniform List<scalar> 9(0.00021641 0.000197665 0.000183013 0.000170715 0.000160147 0.000150584 0.000141501 0.000132413 0.000122518);
    }
    inlet
    {
        type            fixedValue;
        value           uniform 1.94e-05;
    }
    outlet
    {
        type            zeroGradient;
    }
}


// ************************************************************************* //
