/*--------------------------------*- C++ -*----------------------------------*\
  =========                 |
  \\      /  F ield         | OpenFOAM: The Open Source CFD Toolbox
   \\    /   O peration     | Website:  https://openfoam.org
    \\  /    A nd           | Version:  6
     \\/     M anipulation  |
\*---------------------------------------------------------------------------*/
FoamFile
{
    version     2.0;
    format      ascii;
    class       volScalarField;
    location    "3240";
    object      nut;
}
// * * * * * * * * * * * * * * * * * * * * * * * * * * * * * * * * * * * * * //

dimensions      [0 2 -1 0 0 0 0];

internalField   nonuniform List<scalar> 
458
(
0.0010694
0.00116385
0.00119015
0.00124709
0.00129953
0.00134918
0.00139887
0.00144929
0.00149051
0.00151641
0.00151933
0.00149177
0.00142421
0.0012812
0.00097197
0.000480387
0.000563158
0.00063848
0.000665733
0.000655313
0.000613244
0.000566695
0.000525045
0.000488961
0.000457624
0.000430261
0.000406311
0.000385078
0.000365739
0.000347395
0.000328976
0.000318032
0.00029229
0.00144198
0.00324225
0.00299033
0.00342633
0.00386105
0.0043082
0.00470923
0.00501946
0.00533808
0.00563625
0.00587541
0.00602083
0.00603442
0.00582461
0.00473435
0.00128297
0.0010644
0.000868435
0.00047652
0.00113085
0.00164828
0.00204891
0.00217555
0.00158548
0.00133848
0.00117036
0.00104633
0.000951287
0.000875915
0.000810919
0.000749802
0.000688799
0.000634311
0.000588569
0.000719994
0.000384247
0.00175321
0.00435759
0.00359595
0.00438457
0.00471611
0.00494882
0.00512781
0.0052929
0.00552249
0.00580157
0.00610645
0.00640538
0.00664157
0.00672474
0.00633675
0.00516466
0.00391426
0.00102566
0.000734004
0.00126657
0.00184315
0.00241681
0.00258069
0.00082421
0.000721588
0.000636192
0.000567029
0.000511215
0.000465985
0.000429218
0.000399486
0.00037636
0.000417092
0.00048304
0.000844729
0.00045409
0.00205321
0.0055666
0.00349819
0.00454296
0.00472455
0.00470681
0.0046903
0.00476962
0.00495623
0.00523209
0.00558273
0.00597401
0.00631704
0.00653315
0.00648476
0.00614968
0.00527798
0.00289765
0.00118162
0.0015049
0.00206904
0.00275994
0.00335865
0.00338831
0.000928429
0.000851047
0.000798339
0.000759436
0.000726538
0.000693869
0.000662822
0.000630016
0.000591667
0.000557332
0.00054916
0.00100685
0.00052299
0.00235968
0.00719301
0.00366947
0.00431264
0.00457238
0.00441824
0.00429275
0.00436484
0.00456181
0.00484881
0.00522688
0.0056558
0.00599211
0.00615982
0.0061562
0.0060391
0.00569118
0.00470613
0.00426545
0.00429672
0.0045475
0.00484623
0.00502956
0.0049473
0.00422129
0.0038479
0.00364191
0.00349443
0.00334514
0.00315278
0.00282603
0.0024052
0.00192648
0.00146542
0.00109904
0.0010238
0.000888775
0.000699211
0.000740174
0.000804525
0.00268783
0.00902586
0.00502603
0.00399303
0.00435236
0.00434401
0.00418415
0.00424403
0.00444508
0.00473212
0.00511541
0.00552684
0.00583804
0.00593771
0.00584396
0.00570974
0.00564939
0.00556853
0.00573645
0.00602754
0.00623191
0.00626848
0.00613145
0.00584443
0.0054435
0.00511761
0.0048636
0.00463987
0.00442037
0.00418744
0.00388617
0.00347332
0.00295107
0.00236037
0.00181364
0.00131491
0.00108078
0.000942861
0.00118734
0.000834447
0.00301098
0.0104108
0.0075006
0.00490817
0.00427125
0.00433314
0.00438918
0.00442096
0.00453411
0.00478694
0.0051642
0.00557209
0.00585769
0.00589003
0.00571163
0.00558305
0.0057981
0.00627372
0.00675796
0.00703156
0.00703289
0.00679917
0.00640263
0.00591981
0.00543921
0.00505229
0.00475928
0.0045217
0.00431389
0.00412723
0.00395732
0.00373523
0.00336993
0.0028824
0.00237579
0.00188899
0.00157134
0.00143955
0.00137216
0.000991352
0.00309063
0.00966349
0.00820301
0.00688317
0.0058749
0.00542883
0.00501047
0.00472527
0.00471877
0.00495955
0.00534991
0.00575331
0.00599421
0.00594028
0.00572206
0.00577841
0.00639207
0.00689542
0.00715751
0.00714574
0.00686198
0.00637093
0.00576592
0.00515637
0.00464999
0.00429513
0.00405579
0.00388384
0.00375665
0.00367087
0.00363275
0.0036342
0.00353671
0.00324686
0.00296414
0.00280655
0.00287506
0.00303511
0.00360529
0.00153578
0.0030299
0.00365339
0.0040343
0.00424626
0.0042757
0.00421072
0.00421088
0.00438506
0.00474086
0.00519564
0.00566263
0.00603194
0.00615233
0.00594288
0.00588504
0.00619709
0.00655726
0.00668081
0.00659177
0.00627983
0.00575708
0.00511095
0.00446655
0.0039376
0.00357182
0.00333884
0.00318253
0.00306375
0.00296245
0.00286729
0.00276963
0.0026624
0.00256523
0.00248128
0.00242564
0.00239433
0.00233475
0.00221199
0.00206274
0.00143461
0.00133531
0.00234706
0.00322217
0.00390672
0.00453178
0.00514099
0.00562543
0.00595204
0.00616656
0.00620107
0.00600187
0.00575705
0.00575914
0.00586275
0.00578415
0.00555142
0.00518431
0.00468994
0.00412092
0.00356529
0.00312303
0.00282525
0.0026427
0.00253071
0.00245629
0.00240208
0.00236047
0.00232975
0.00231248
0.00231791
0.00233146
0.00234359
0.00234432
0.00230729
0.00219307
0.00199168
0.00174211
0.00115434
0.00201499
0.00395726
0.00507489
0.00580015
0.00636513
0.00641536
0.00608708
0.00575708
0.00547361
0.00492871
0.00454046
0.00445028
0.00438897
0.00421728
0.00395845
0.0036376
0.00326124
0.00286545
0.00250868
0.00223112
0.00203986
0.00192962
0.001878
0.00186691
0.00188529
0.00192593
0.00198272
0.00204841
0.00212522
0.00221362
0.00230813
0.00240098
0.00247654
0.0025144
0.00247938
0.00244882
0.0022546
0.00116931
0.00211915
0.00217151
0.00221907
0.00246888
0.00233372
0.00206822
0.00174482
0.00148453
0.00132511
0.00117365
0.00104026
0.000935811
0.000847356
0.000780291
0.00073367
0.0006996
0.000672204
0.000648629
0.000629164
0.000616031
0.000611134
0.000614822
0.000625738
0.000641784
0.000662059
0.000686085
0.000713713
0.000745132
0.000780866
0.000822013
0.000868812
0.000920935
0.000978647
0.00104222
0.00111169
0.00119495
0.0012314
0.00120618
0.00112192
0.00103762
)
;

boundaryField
{
    floor
    {
        type            nutkWallFunction;
        Cmu             0.09;
        kappa           0.41;
        E               9.8;
        value           nonuniform List<scalar> 
36
(
0.000117415
5.72036e-05
6.77276e-05
7.71396e-05
8.05112e-05
7.92241e-05
7.4002e-05
6.81727e-05
6.29071e-05
5.83035e-05
5.4271e-05
5.07216e-05
4.75915e-05
4.47967e-05
4.22341e-05
3.97871e-05
3.73132e-05
3.58347e-05
3.233e-05
3.23299e-05
4.46862e-05
5.38133e-05
6.26452e-05
8.46297e-05
8.96381e-05
9.74411e-05
0.000117415
0.00015352
0.000128266
0.000105117
5.72035e-05
0.000105117
5.67064e-05
0.000123733
8.88863e-05
0.000141876
)
;
    }
    ceiling
    {
        type            nutkWallFunction;
        Cmu             0.09;
        kappa           0.41;
        E               9.8;
        value           nonuniform List<scalar> 
43
(
0.000246189
0.000251843
0.000256969
0.000283773
0.000269378
0.000240782
0.00020539
0.000176377
0.000158332
0.000140959
0.000125446
0.00011314
0.000102593
9.45116e-05
8.88454e-05
8.46777e-05
8.13088e-05
7.83966e-05
7.59825e-05
7.43486e-05
7.37384e-05
7.41981e-05
7.55567e-05
7.75486e-05
8.00571e-05
8.30177e-05
8.64069e-05
9.02423e-05
9.45812e-05
9.95485e-05
0.000105163
0.000111375
0.000118206
0.000125677
0.000133782
0.00014342
0.000147616
0.000144715
0.00013497
0.000125139
0.000343193
0.000407608
0.000234818
)
;
    }
    sWall
    {
        type            nutkWallFunction;
        Cmu             0.09;
        kappa           0.41;
        E               9.8;
        value           uniform 0.000246255;
    }
    nWall
    {
        type            nutkWallFunction;
        Cmu             0.09;
        kappa           0.41;
        E               9.8;
        value           nonuniform List<scalar> 6(9.74417e-05 0.000101045 0.000119707 0.000138739 0.000140472 0.000125146);
    }
    sideWalls
    {
        type            empty;
    }
    glass1
    {
        type            nutkWallFunction;
        Cmu             0.09;
        kappa           0.41;
        E               9.8;
        value           nonuniform List<scalar> 9(0.000128958 0.00017181 0.000206643 0.000239579 0.000272694 0.000307648 0.000341637 0.000349964 0.000343641);
    }
    glass2
    {
        type            nutkWallFunction;
        Cmu             0.09;
        kappa           0.41;
        E               9.8;
        value           nonuniform List<scalar> 2(0.000182232 0.00017084);
    }
    sun
    {
        type            nutkWallFunction;
        Cmu             0.09;
        kappa           0.41;
        E               9.8;
        value           nonuniform List<scalar> 
14
(
0.000128854
0.000139823
0.00014286
0.000149409
0.000155412
0.00016107
0.000166709
0.00017241
0.000177053
0.000179963
0.000180291
0.000177193
0.000169576
0.000153317
)
;
    }
    Table_master
    {
        type            nutkWallFunction;
        Cmu             0.09;
        kappa           0.41;
        E               9.8;
        value           nonuniform List<scalar> 9(9.98119e-05 8.73713e-05 7.68584e-05 6.82191e-05 6.11537e-05 5.5358e-05 5.0595e-05 4.6706e-05 4.36555e-05);
    }
    Table_slave
    {
        type            nutkWallFunction;
        Cmu             0.09;
        kappa           0.41;
        E               9.8;
        value           nonuniform List<scalar> 9(0.000112262 0.000103035 9.66939e-05 9.19824e-05 8.79757e-05 8.39757e-05 8.01533e-05 7.60909e-05 7.13096e-05);
    }
    inlet
    {
        type            calculated;
        value           uniform 0.000167705;
    }
    outlet
    {
        type            calculated;
        value           nonuniform List<scalar> 2(0.00211915 0.00217151);
    }
}


// ************************************************************************* //
