/*--------------------------------*- C++ -*----------------------------------*\
  =========                 |
  \\      /  F ield         | OpenFOAM: The Open Source CFD Toolbox
   \\    /   O peration     | Website:  https://openfoam.org
    \\  /    A nd           | Version:  6
     \\/     M anipulation  |
\*---------------------------------------------------------------------------*/
FoamFile
{
    version     2.0;
    format      ascii;
    class       volVectorField;
    location    "4450";
    object      U;
}
// * * * * * * * * * * * * * * * * * * * * * * * * * * * * * * * * * * * * * //

dimensions      [0 1 -1 0 0 0 0];

internalField   nonuniform List<vector> 
458
(
(0.0348261 0.0885224 0)
(-0.17208 0.0265843 0)
(-0.199347 0.0191131 0)
(-0.233222 0.0130811 0)
(-0.258394 0.00641374 0)
(-0.273599 -0.000804879 0)
(-0.276728 -0.00877819 0)
(-0.26548 -0.0177781 0)
(-0.239422 -0.027427 0)
(-0.199711 -0.0361117 0)
(-0.150445 -0.0420514 0)
(-0.0978288 -0.0436513 0)
(-0.048729 -0.0390812 0)
(-0.00627117 -0.0236846 0)
(-0.0102629 0.00977122 0)
(-0.0102376 0.0105128 0)
(-0.0372596 -0.0174873 0)
(-0.0145101 -0.0291037 0)
(0.0136703 -0.0251832 0)
(0.0334411 -0.0178892 0)
(0.0480575 -0.00955478 0)
(0.0568167 -0.00517624 0)
(0.0606953 -0.00363242 0)
(0.0621307 -0.00308273 0)
(0.0627801 -0.00275989 0)
(0.06309 -0.00250945 0)
(0.0630292 -0.00224148 0)
(0.0624314 -0.00179742 0)
(0.06084 -0.000838805 0)
(0.0572381 0.00107452 0)
(0.0505189 0.00317062 0)
(0.0451143 0.00508642 0)
(-0.0141471 0.0219481 0)
(0.214272 0.181889 0)
(-0.162147 0.0709925 0)
(-0.162941 0.0577621 0)
(-0.198656 0.0457431 0)
(-0.224132 0.0319882 0)
(-0.240108 0.0161756 0)
(-0.244611 -0.00240994 0)
(-0.235115 -0.0239666 0)
(-0.211867 -0.0461697 0)
(-0.176484 -0.0649267 0)
(-0.133355 -0.0764267 0)
(-0.0881261 -0.0781987 0)
(-0.0462598 -0.0687296 0)
(-0.0100269 -0.0460166 0)
(0.019409 -0.0133807 0)
(0.0442413 0.00784887 0)
(0.0548466 0.0347577 0)
(-0.01181 0.0706828 0)
(0.0670405 0.0439812 0)
(0.0102888 -0.0218338 0)
(0.0265185 -0.0378984 0)
(0.0407467 -0.0356448 0)
(0.0531357 -0.0273414 0)
(0.0595579 -0.0120935 0)
(0.061178 -0.00275347 0)
(0.0612277 0.000745516 0)
(0.0613924 0.00202308 0)
(0.0617176 0.00272175 0)
(0.0619426 0.00322156 0)
(0.062 0.00367486 0)
(0.0618961 0.00440712 0)
(0.061185 0.00620498 0)
(0.0577884 0.0112234 0)
(0.0490977 0.0155324 0)
(0.0476926 0.0187039 0)
(-0.0584277 0.0475496 0)
(0.379537 0.272954 0)
(-0.180118 0.113732 0)
(-0.123512 0.0941086 0)
(-0.159197 0.0724341 0)
(-0.182599 0.0495027 0)
(-0.198409 0.0236426 0)
(-0.204062 -0.00653486 0)
(-0.195373 -0.0409795 0)
(-0.17359 -0.0757807 0)
(-0.141424 -0.103649 0)
(-0.103841 -0.118953 0)
(-0.065895 -0.119155 0)
(-0.0318231 -0.104118 0)
(-0.00227741 -0.0743972 0)
(0.0220299 -0.0400729 0)
(0.0375962 -0.0152196 0)
(0.0431778 0.0131628 0)
(-0.0236631 0.0623187 0)
(0.12249 -0.00753336 0)
(0.0725096 -0.0320913 0)
(0.0643116 -0.0419287 0)
(0.0672602 -0.0417565 0)
(0.0718703 -0.0380436 0)
(0.0734889 -0.0282277 0)
(0.0643657 -0.0183287 0)
(0.0574114 -0.0130267 0)
(0.0548129 -0.0100783 0)
(0.0541216 -0.00818582 0)
(0.0538876 -0.00689728 0)
(0.0539579 -0.00590236 0)
(0.0547573 -0.0047533 0)
(0.0572082 -0.00139865 0)
(0.0561027 0.0149938 0)
(0.0445869 0.025869 0)
(0.0541325 0.0332462 0)
(-0.0993779 0.0727936 0)
(0.530025 0.346651 0)
(-0.216668 0.151755 0)
(-0.0801994 0.125835 0)
(-0.115538 0.0962965 0)
(-0.133417 0.067224 0)
(-0.146929 0.0337631 0)
(-0.152515 -0.0071113 0)
(-0.14262 -0.0550539 0)
(-0.121288 -0.102308 0)
(-0.0929784 -0.137839 0)
(-0.0625316 -0.155425 0)
(-0.0335725 -0.153426 0)
(-0.00879823 -0.133437 0)
(0.0128645 -0.0979224 0)
(0.030432 -0.0589721 0)
(0.044356 -0.0228968 0)
(0.059954 0.0131486 0)
(0.0588215 0.0534393 0)
(0.100333 0.0615056 0)
(0.0988153 -0.00244142 0)
(0.0851502 -0.0293887 0)
(0.0784665 -0.03769 0)
(0.0736151 -0.0383936 0)
(0.0670196 -0.0341072 0)
(0.0666003 -0.0208383 0)
(0.0772762 -0.0138299 0)
(0.0862393 -0.010107 0)
(0.0916385 -0.00782426 0)
(0.0948782 -0.00591659 0)
(0.0962847 -0.00385552 0)
(0.0945168 -0.00119016 0)
(0.0882548 0.00248028 0)
(0.0757128 0.00774305 0)
(0.0597988 0.0250979 0)
(0.0440615 0.0405831 0)
(0.062978 0.0533443 0)
(-0.131389 0.0942777 0)
(0.662681 0.403808 0)
(-0.262352 0.182677 0)
(-0.035034 0.145257 0)
(-0.0687492 0.111319 0)
(-0.0779462 0.0792333 0)
(-0.0862939 0.0412498 0)
(-0.0890491 -0.00798759 0)
(-0.0740292 -0.0688142 0)
(-0.0534831 -0.125901 0)
(-0.0315796 -0.165073 0)
(-0.0112758 -0.181841 0)
(0.00616071 -0.175989 0)
(0.0193248 -0.151481 0)
(0.0303427 -0.114537 0)
(0.0401928 -0.0729571 0)
(0.0494372 -0.0337225 0)
(0.0619355 0.000674707 0)
(0.0760375 0.0197158 0)
(0.0903263 -0.00056795 0)
(0.0896834 -0.021373 0)
(0.0826167 -0.0300337 0)
(0.0738101 -0.0325491 0)
(0.0655654 -0.0316288 0)
(0.0586213 -0.0266316 0)
(0.0568402 -0.0155117 0)
(0.0603937 -0.00902665 0)
(0.0647352 -0.00637212 0)
(0.0684586 -0.00482989 0)
(0.0717015 -0.00274977 0)
(0.0742083 0.000780924 0)
(0.075058 0.00596796 0)
(0.073164 0.0129863 0)
(0.0682549 0.0224378 0)
(0.0612079 0.0371776 0)
(0.0500559 0.0536292 0)
(0.0748591 0.072748 0)
(-0.00684656 0.101381 0)
(0.0557882 0.150674 0)
(-0.0835197 0.0748405 0)
(-0.277797 0.000487991 0)
(0.761895 0.451323 0)
(-0.308549 0.203337 0)
(0.00242973 0.143886 0)
(-0.0205845 0.116259 0)
(-0.0197905 0.0857222 0)
(-0.0215003 0.0472953 0)
(-0.0143142 -0.00693759 0)
(0.0103144 -0.0859247 0)
(0.0269236 -0.146192 0)
(0.0388254 -0.182423 0)
(0.0460454 -0.194553 0)
(0.0488935 -0.18505 0)
(0.048629 -0.158119 0)
(0.0472243 -0.119917 0)
(0.0460508 -0.0779382 0)
(0.0464677 -0.0397067 0)
(0.0508198 -0.00999107 0)
(0.0599681 0.00482399 0)
(0.0662443 -0.00105211 0)
(0.0649911 -0.0110141 0)
(0.0586056 -0.0188063 0)
(0.0504348 -0.0229109 0)
(0.042797 -0.0236607 0)
(0.0368211 -0.0211347 0)
(0.03427 -0.0157707 0)
(0.0354195 -0.0122942 0)
(0.0383734 -0.010863 0)
(0.0420297 -0.00977527 0)
(0.0460898 -0.0076393 0)
(0.0502723 -0.00338504 0)
(0.054483 0.00368341 0)
(0.0570001 0.0131864 0)
(0.0581663 0.0249441 0)
(0.0592912 0.0395783 0)
(0.0583675 0.0559998 0)
(0.0797091 0.0766954 0)
(0.0654483 0.0889843 0)
(0.0997224 0.0967316 0)
(0.117478 0.0571989 0)
(-0.136895 -0.029928 0)
(0.815611 0.494186 0)
(-0.334125 0.18737 0)
(0.0322407 0.0937999 0)
(0.0390615 0.101055 0)
(0.0459305 0.0830008 0)
(0.0516229 0.0393708 0)
(0.079097 -0.0311713 0)
(0.103109 -0.103704 0)
(0.113285 -0.157016 0)
(0.11286 -0.18633 0)
(0.10458 -0.192431 0)
(0.0907888 -0.178774 0)
(0.0740935 -0.149768 0)
(0.0575005 -0.111561 0)
(0.0429712 -0.0709092 0)
(0.0326165 -0.0356954 0)
(0.0281005 -0.0107567 0)
(0.0295006 0.00099088 0)
(0.031136 -0.000280745 0)
(0.0296346 -0.00656918 0)
(0.0249829 -0.0126305 0)
(0.0188637 -0.0163692 0)
(0.0128385 -0.0177425 0)
(0.00803218 -0.0171047 0)
(0.00567114 -0.0151958 0)
(0.00601331 -0.0141015 0)
(0.00805242 -0.0139683 0)
(0.0110508 -0.0137425 0)
(0.014846 -0.0123618 0)
(0.019524 -0.00874015 0)
(0.0256927 -0.00163592 0)
(0.0333026 0.00886877 0)
(0.0400693 0.0208901 0)
(0.0478782 0.0341599 0)
(0.0558776 0.0479595 0)
(0.0754521 0.0644567 0)
(0.0882332 0.0697707 0)
(0.11967 0.0632095 0)
(0.163391 0.0513058 0)
(-0.0203528 0.0954881 0)
(0.921863 0.497285 0)
(-0.0766792 0.167419 0)
(0.110608 0.0261621 0)
(0.163736 0.0227934 0)
(0.161398 0.0155481 0)
(0.162864 -0.0293616 0)
(0.196487 -0.0804091 0)
(0.211269 -0.125542 0)
(0.205358 -0.158277 0)
(0.185089 -0.173982 0)
(0.155583 -0.171673 0)
(0.121084 -0.153972 0)
(0.0852891 -0.124273 0)
(0.0523633 -0.0880737 0)
(0.0244585 -0.0510592 0)
(0.00511448 -0.0219292 0)
(-0.0046317 -0.00442857 0)
(-0.00655873 0.00175812 0)
(-0.00643988 0.00066294 0)
(-0.00764059 -0.00366343 0)
(-0.0109405 -0.00801346 0)
(-0.0154386 -0.0110774 0)
(-0.0200732 -0.0128477 0)
(-0.0239376 -0.0136844 0)
(-0.0263198 -0.0141356 0)
(-0.0272115 -0.0148868 0)
(-0.0271756 -0.0158709 0)
(-0.026594 -0.0165847 0)
(-0.0254667 -0.0164991 0)
(-0.0234874 -0.0150365 0)
(-0.0198622 -0.0114658 0)
(-0.0117097 -0.00490994 0)
(-9.40481e-05 0.00445883 0)
(0.0110862 0.0137603 0)
(0.0226897 0.0208653 0)
(0.0398997 0.0277362 0)
(0.0554301 0.0224377 0)
(0.079569 0.00564839 0)
(0.146409 0.0479777 0)
(-0.428337 0.212666 0)
(1.06591 0.444164 0)
(0.518237 0.2983 0)
(0.529532 0.249857 0)
(0.518389 0.182906 0)
(0.469835 0.122439 0)
(0.433154 0.0601136 0)
(0.392043 -0.00742299 0)
(0.342839 -0.0669794 0)
(0.28908 -0.107862 0)
(0.232742 -0.126612 0)
(0.175361 -0.125099 0)
(0.118903 -0.108912 0)
(0.065456 -0.0822851 0)
(0.0202363 -0.0512626 0)
(-0.016101 -0.0208455 0)
(-0.0329464 -0.00607244 0)
(-0.0401244 0.000441775 0)
(-0.0416809 0.00220709 0)
(-0.0420594 0.00100808 0)
(-0.0432016 -0.00163961 0)
(-0.0458296 -0.00451732 0)
(-0.0494787 -0.00704505 0)
(-0.0535042 -0.00913507 0)
(-0.057369 -0.0108638 0)
(-0.0608166 -0.0123658 0)
(-0.0640099 -0.0137474 0)
(-0.0673525 -0.0148459 0)
(-0.0712202 -0.0153023 0)
(-0.0759667 -0.0146319 0)
(-0.0820651 -0.0121818 0)
(-0.0902076 -0.00711485 0)
(-0.101118 0.001428 0)
(-0.112753 0.0133218 0)
(-0.127984 0.0284138 0)
(-0.152908 0.0467843 0)
(-0.190232 0.0673932 0)
(-0.241634 0.0862253 0)
(-0.297562 0.0999188 0)
(-0.371647 0.106912 0)
(-0.65067 0.106306 0)
(0.233924 0.0528321 0)
(0.305889 0.115963 0)
(0.321217 0.0913683 0)
(0.299642 0.0395786 0)
(0.275045 -0.0106021 0)
(0.244385 -0.0469391 0)
(0.203096 -0.0684127 0)
(0.154002 -0.0754154 0)
(0.100437 -0.0686996 0)
(0.0461647 -0.0529175 0)
(-0.00862862 -0.0295152 0)
(-0.0451329 -0.0114981 0)
(-0.0635912 -0.00313994 0)
(-0.0709222 -0.000758156 0)
(-0.0731577 -0.000284126 0)
(-0.0734759 -0.000982621 0)
(-0.0737778 -0.00258391 0)
(-0.0749164 -0.00467936 0)
(-0.0771317 -0.00676812 0)
(-0.0803874 -0.00854784 0)
(-0.0841835 -0.0100194 0)
(-0.0882905 -0.011141 0)
(-0.0927198 -0.0119156 0)
(-0.0976249 -0.0123096 0)
(-0.103157 -0.012133 0)
(-0.109347 -0.0110407 0)
(-0.116065 -0.00856359 0)
(-0.122967 -0.00415756 0)
(-0.129429 0.00273848 0)
(-0.134403 0.0123363 0)
(-0.13837 0.0256171 0)
(-0.141807 0.0431789 0)
(-0.146019 0.0642219 0)
(-0.151773 0.085051 0)
(-0.155359 0.0955471 0)
(-0.141304 0.0734008 0)
(-0.110249 -0.0250096 0)
(-0.286614 -0.213741 0)
(0.120027 0.324336 0)
(0.00839077 0.203593 0)
(0.0392651 0.118451 0)
(0.0584787 0.0604352 0)
(0.063127 0.0216245 0)
(0.0601133 -0.00478657 0)
(0.0401988 -0.0199148 0)
(0.0054204 -0.0189555 0)
(-0.0365955 -0.00171943 0)
(-0.0701148 0.0128781 0)
(-0.0912279 0.0208818 0)
(-0.100242 0.0232659 0)
(-0.102467 0.0233938 0)
(-0.102412 0.0234465 0)
(-0.10154 0.0241607 0)
(-0.100508 0.0252875 0)
(-0.0997857 0.0264288 0)
(-0.0996583 0.0271787 0)
(-0.100183 0.0271133 0)
(-0.101325 0.0259077 0)
(-0.103119 0.0238737 0)
(-0.105495 0.0216291 0)
(-0.108387 0.0194495 0)
(-0.111705 0.0174801 0)
(-0.115313 0.0158313 0)
(-0.118996 0.0146123 0)
(-0.122445 0.0139595 0)
(-0.125176 0.0140302 0)
(-0.126372 0.0155212 0)
(-0.124865 0.0198895 0)
(-0.119076 0.0282959 0)
(-0.107619 0.0417405 0)
(-0.0903522 0.0602412 0)
(-0.0683175 0.0804254 0)
(-0.0434464 0.0948378 0)
(-0.00758486 0.0857783 0)
(0.146942 0.00930593 0)
(-0.209932 -0.129684 0)
(-0.422117 -0.51603 0)
(-0.637319 -0.143275 0)
(-0.449398 0.17776 0)
(-0.357933 0.0560797 0)
(-0.213898 -0.00553905 0)
(-0.145609 -0.0477882 0)
(-0.117164 -0.0705384 0)
(-0.112984 -0.0713635 0)
(-0.122343 -0.0626891 0)
(-0.134861 -0.0549776 0)
(-0.140346 -0.0505067 0)
(-0.138588 -0.0490672 0)
(-0.134127 -0.049953 0)
(-0.128945 -0.0527762 0)
(-0.124482 -0.0563047 0)
(-0.121038 -0.0599481 0)
(-0.118239 -0.06359 0)
(-0.115826 -0.0672868 0)
(-0.113757 -0.0708881 0)
(-0.112107 -0.0739044 0)
(-0.111008 -0.0756842 0)
(-0.110621 -0.075791 0)
(-0.111051 -0.0743579 0)
(-0.112257 -0.0719862 0)
(-0.114068 -0.0689141 0)
(-0.116259 -0.0652743 0)
(-0.118548 -0.0610867 0)
(-0.120565 -0.0562773 0)
(-0.12183 -0.0506309 0)
(-0.121709 -0.0438009 0)
(-0.119186 -0.0358142 0)
(-0.112353 -0.0266897 0)
(-0.0984059 -0.0158832 0)
(-0.0748445 -0.00248642 0)
(-0.0415508 0.0143644 0)
(0.0093161 0.0362845 0)
(0.0618658 0.0423474 0)
(0.109598 0.0240447 0)
(0.172057 -0.0159426 0)
(-0.196289 -0.0826847 0)
)
;

boundaryField
{
    floor
    {
        type            noSlip;
    }
    ceiling
    {
        type            noSlip;
    }
    sWall
    {
        type            noSlip;
    }
    nWall
    {
        type            noSlip;
    }
    sideWalls
    {
        type            empty;
    }
    glass1
    {
        type            noSlip;
    }
    glass2
    {
        type            noSlip;
    }
    sun
    {
        type            noSlip;
    }
    Table_master
    {
        type            noSlip;
    }
    Table_slave
    {
        type            noSlip;
    }
    inlet
    {
        type            fixedValue;
        value           uniform (0.46194 -0.191342 0);
    }
    outlet
    {
        type            zeroGradient;
    }
}


// ************************************************************************* //
