/*--------------------------------*- C++ -*----------------------------------*\
  =========                 |
  \\      /  F ield         | OpenFOAM: The Open Source CFD Toolbox
   \\    /   O peration     | Website:  https://openfoam.org
    \\  /    A nd           | Version:  6
     \\/     M anipulation  |
\*---------------------------------------------------------------------------*/
FoamFile
{
    version     2.0;
    format      ascii;
    class       volScalarField;
    location    "6300";
    object      k;
}
// * * * * * * * * * * * * * * * * * * * * * * * * * * * * * * * * * * * * * //

dimensions      [0 2 -2 0 0 0 0];

internalField   nonuniform List<scalar> 
662
(
0.0019312
0.00224875
0.00232233
0.00254472
0.00276114
0.00297406
0.00319235
0.00342893
0.00367747
0.00391685
0.00411313
0.00419291
0.00404214
0.00354525
0.00234759
0.000469874
0.000647212
0.000823856
0.000878415
0.000841609
0.0007347
0.000626726
0.000537534
0.000465799
0.000407643
0.000360028
0.000320848
0.000287997
0.000259653
0.000234183
0.00021008
0.000198345
0.000169264
0.00363034
0.00670177
0.00327775
0.00342339
0.00367011
0.00394898
0.00426493
0.00463515
0.00509732
0.00567024
0.00628044
0.00676078
0.00688137
0.00652125
0.00561963
0.00338027
0.00228939
0.0015234
0.000469868
0.00101459
0.00132538
0.00146319
0.00146122
0.00124524
0.00101259
0.000824554
0.000680842
0.00057053
0.000484669
0.000416085
0.000359885
0.000313379
0.000279919
0.000261295
0.000516916
0.000303545
0.00562135
0.0131857
0.00395433
0.0035948
0.00370602
0.00385557
0.00402574
0.00427225
0.00465729
0.00520744
0.00587959
0.00657395
0.00701666
0.00693452
0.00618972
0.00510041
0.00415904
0.00215
0.00117469
0.00148464
0.00165502
0.00175105
0.00172064
0.00134094
0.0010269
0.00079865
0.000635163
0.000516989
0.000430176
0.000365468
0.000316858
0.000281155
0.0002606
0.000264062
0.000831468
0.000430496
0.00810903
0.0229084
0.00538407
0.00360122
0.00351112
0.00352659
0.00354004
0.00366828
0.0040111
0.00452122
0.00518768
0.0060488
0.00673144
0.00677712
0.00626078
0.00557476
0.0048747
0.00374481
0.00291714
0.00264455
0.00247032
0.00239308
0.002309
0.00214564
0.00168936
0.00140918
0.00123344
0.00111225
0.00101581
0.000924635
0.000842048
0.000759244
0.000668138
0.00050953
0.000412506
0.00123393
0.000570566
0.0110429
0.0330047
0.00942772
0.00411854
0.00356403
0.0034314
0.00333153
0.00343905
0.00385725
0.00432897
0.00494298
0.00592304
0.00668166
0.00664418
0.00605706
0.00531162
0.00464282
0.00409486
0.00392449
0.00357805
0.00331459
0.00309416
0.00285097
0.0025614
0.00226333
0.00206318
0.00194067
0.00184452
0.00174219
0.00161436
0.00144518
0.00125415
0.00105308
0.000832354
0.000644978
0.000963925
0.00117077
0.00103592
0.0011395
0.00133951
0.0149145
0.0452049
0.0188881
0.00769006
0.00518994
0.00429415
0.00390644
0.00400576
0.00438968
0.00470272
0.00524489
0.00620655
0.00697698
0.00675815
0.00591193
0.00491273
0.00416655
0.00384977
0.00384511
0.00384977
0.00373043
0.00347589
0.00313598
0.00277411
0.00248674
0.00233453
0.00225946
0.00219948
0.00212196
0.00200511
0.0018222
0.00159631
0.00135373
0.00110893
0.000914492
0.000910295
0.00109493
0.00112564
0.00172725
0.00144203
0.0131828
0.0261816
0.0253379
0.0168568
0.0107729
0.00751101
0.00600593
0.00554803
0.0054743
0.00537416
0.00564207
0.00657466
0.0076644
0.00706936
0.00589076
0.00464645
0.00386735
0.00371652
0.00387051
0.00393339
0.00378093
0.0034634
0.00308189
0.00272892
0.00249152
0.00239499
0.00237564
0.002378
0.00237631
0.00235182
0.00227823
0.00209908
0.00187124
0.00162878
0.00144412
0.00136965
0.00147314
0.00169633
0.00229003
0.00200018
0.00820264
0.0140204
0.0156933
0.0158148
0.0144882
0.0120999
0.00981498
0.00813261
0.00687699
0.00628334
0.00674214
0.00788526
0.00839503
0.00730632
0.00572638
0.00432145
0.00365526
0.00361127
0.00370688
0.00365792
0.00341999
0.00307947
0.00274133
0.00248249
0.00234376
0.00231502
0.00235402
0.0024324
0.0025417
0.00268146
0.00285046
0.00302221
0.00309582
0.00313719
0.00330798
0.00387583
0.00502692
0.00663368
0.0135906
0.00463483
0.00163816
0.00658414
0.00864194
0.0090584
0.00849349
0.007605
0.00702914
0.00744991
0.00877922
0.00968604
0.00864982
0.0069408
0.0049192
0.00382489
0.00341336
0.00331682
0.00325008
0.00308234
0.00281855
0.00253098
0.00229227
0.00214264
0.00208618
0.0021027
0.0021697
0.00227669
0.00242332
0.00261353
0.00285149
0.0031386
0.00348823
0.0039243
0.00450042
0.00518744
0.00584391
0.00629886
0.00652772
0.00407131
0.00297789
0.00308678
0.00497467
0.00650387
0.00737482
0.00806995
0.00924538
0.0107313
0.0113496
0.0102525
0.00716518
0.00547579
0.0041768
0.00349695
0.0031771
0.00300308
0.00284205
0.00264113
0.00241334
0.00220436
0.00204901
0.00195747
0.00192216
0.00193065
0.00197419
0.00205055
0.00216326
0.00232116
0.0025393
0.00283814
0.00322633
0.0037057
0.00427182
0.00486789
0.00538426
0.00571615
0.00526502
0.00279723
0.00898667
0.014792
0.00523234
0.00537074
0.0074023
0.00928742
0.010884
0.0121799
0.0126265
0.0117892
0.0098007
0.00668023
0.00392417
0.00356121
0.00328819
0.00312585
0.00301261
0.00289348
0.00274105
0.00255896
0.00236859
0.00219867
0.00206346
0.00196678
0.0019085
0.00188892
0.00191025
0.00197602
0.00209027
0.00225703
0.0024867
0.00279314
0.00318471
0.0036643
0.00421533
0.00478925
0.00536252
0.00632098
0.00373244
0.00300528
0.00535871
0.00873923
0.00998897
0.0122132
0.0134091
0.0134803
0.0126215
0.0108435
0.00844619
0.00611088
0.00406763
0.00250249
0.00143421
0.00136623
0.00130136
0.00123836
0.00118008
0.00112219
0.00106637
0.00101868
0.000985781
0.000968563
0.000967432
0.000981623
0.00101044
0.00105379
0.00111234
0.00118767
0.0012828
0.00140326
0.00155296
0.00173349
0.00194922
0.00220402
0.00249991
0.00284085
0.00304146
0.0025149
0.00220129
0.00282193
0.0174301
0.0314126
0.0216429
0.0134965
0.00885064
0.00657018
0.0056457
0.00552183
0.00542602
0.00543155
0.00604555
0.00712226
0.012851
0.0154345
0.0158485
0.015363
0.0133435
0.0108907
0.0089124
0.00744467
0.00646889
0.00637395
0.00729865
0.00832523
0.00485182
0.00785497
0.00901604
0.00885481
0.00805418
0.00723395
0.00708605
0.00806688
0.00937729
0.00963983
0.00234008
0.00401969
0.00582557
0.00700434
0.00769688
0.00858045
0.0100168
0.0112246
0.0110122
0.00932444
0.0259933
0.0101497
0.00463443
0.00644742
0.0083671
0.0101106
0.0115916
0.0125519
0.0123403
0.0109782
0.00826005
0.0054147
0.0139073
0.00923321
0.011193
0.0129844
0.0135635
0.0131664
0.0118418
0.00968002
0.00724209
0.00505607
0.00319793
0.00198956
0.0143528
0.0183478
0.0206332
0.0185446
0.014601
0.0108789
0.00840887
0.00708181
0.00629918
0.00584815
0.00611523
0.00714136
0.00914068
0.0110282
0.0116154
0.0119526
0.012032
0.0110704
0.0095794
0.00815687
0.00702253
0.00672802
0.00759801
0.00877079
0.00303593
0.00373392
0.006058
0.00730169
0.00753917
0.00735455
0.00757851
0.00881444
0.010205
0.010332
0.00188795
0.00352184
0.00537272
0.00705707
0.00851901
0.0100635
0.0115624
0.0121314
0.0113743
0.0090233
0.00915092
0.0125182
0.00781591
0.00865891
0.0105908
0.0118955
0.0125914
0.0125034
0.0113852
0.00956786
0.00703814
0.00437402
0.00765566
0.00639647
0.00718513
0.00774182
0.00762695
0.00690846
0.00576836
0.0044162
0.00317511
0.00221568
0.00149519
0.00124706
0.0156386
0.0208867
0.0199743
0.0166828
0.0126046
0.00946905
0.00763955
0.00665221
0.00601627
0.00586565
0.00657635
0.00765989
0.00950593
0.0113728
0.011706
0.0121226
0.0116612
0.0103465
0.00883811
0.00752708
0.00673001
0.00704039
0.00823973
0.00901855
0.00250446
0.00499677
0.00682949
0.00751492
0.00745589
0.00734501
0.0080908
0.00958842
0.010479
0.00979476
0.00231174
0.00446711
0.00624308
0.00780459
0.00925925
0.0108957
0.0119849
0.0119535
0.0103494
0.0077201
0.0229929
0.0101723
0.00782708
0.0097346
0.0113117
0.0123219
0.0126668
0.0120675
0.0105428
0.00840172
0.00559253
0.00371812
0.00607001
0.00683706
0.00749451
0.00777799
0.00732926
0.00638127
0.00509967
0.00376298
0.00266358
0.00181992
0.00129115
0.00131154
)
;

boundaryField
{
    floor
    {
        type            kqRWallFunction;
        value           nonuniform List<scalar> 
36
(
0.00234759
0.000469874
0.000647212
0.000823856
0.000878415
0.000841609
0.0007347
0.000626726
0.000537534
0.000465799
0.000407643
0.000360028
0.000320848
0.000287997
0.000259653
0.000234183
0.00021008
0.000198345
0.000169264
0.000169264
0.000303545
0.000430496
0.000570566
0.00103592
0.0011395
0.00133951
0.00234759
0.00338027
0.00228939
0.0015234
0.000469874
0.0015234
0.000469868
0.00215
0.00117469
0.00291714
)
;
    }
    ceiling
    {
        type            kqRWallFunction;
        value           nonuniform List<scalar> 
58
(
0.00607001
0.00683706
0.00749451
0.00777799
0.00732926
0.00638127
0.00509967
0.00376298
0.00266358
0.00181992
0.00129115
0.00131154
0.00143421
0.00136623
0.00130136
0.00123836
0.00118008
0.00112219
0.00106637
0.00101868
0.000985781
0.000968563
0.000967432
0.000981623
0.00101044
0.00105379
0.00111234
0.00118767
0.0012828
0.00140326
0.00155296
0.00173349
0.00194922
0.00220402
0.00249991
0.00284085
0.00304146
0.0025149
0.00220129
0.00282193
0.00950593
0.0113728
0.00188795
0.00535871
0.00639647
0.00718513
0.00774182
0.00762695
0.00690846
0.00576836
0.0044162
0.00317511
0.00221568
0.00149519
0.00124706
0.00820264
0.0110282
0.00297789
)
;
    }
    sWall
    {
        type            kqRWallFunction;
        value           nonuniform List<scalar> 4(0.00915092 0.00765566 0.00898667 0.00535871);
    }
    nWall
    {
        type            kqRWallFunction;
        value           nonuniform List<scalar> 6(0.00133951 0.00144203 0.00200018 0.00279723 0.00300528 0.00282193);
    }
    sideWalls
    {
        type            empty;
    }
    glass1
    {
        type            kqRWallFunction;
        value           nonuniform List<scalar> 10(0.0019312 0.00363034 0.00562135 0.00810903 0.0110429 0.0149145 0.0143528 0.00914068 0.0131828 0.00820264);
    }
    glass2
    {
        type            kqRWallFunction;
        value           nonuniform List<scalar> 2(0.00463483 0.00407131);
    }
    sun
    {
        type            kqRWallFunction;
        value           nonuniform List<scalar> 
14
(
0.0019312
0.00224875
0.00232233
0.00254472
0.00276114
0.00297406
0.00319235
0.00342893
0.00367747
0.00391685
0.00411313
0.00419291
0.00404214
0.00354525
)
;
    }
    Table_master
    {
        type            kqRWallFunction;
        value           nonuniform List<scalar> 9(0.00134094 0.0010269 0.00079865 0.000635163 0.000516989 0.000430176 0.000365468 0.000316858 0.000281155);
    }
    Table_slave
    {
        type            kqRWallFunction;
        value           nonuniform List<scalar> 9(0.00168936 0.00140918 0.00123344 0.00111225 0.00101581 0.000924635 0.000842048 0.000759244 0.000668138);
    }
    inlet
    {
        type            turbulentIntensityKineticEnergyInlet;
        intensity       0.05;
        value           uniform 0.0009375;
    }
    outlet
    {
        type            zeroGradient;
    }
}


// ************************************************************************* //
