/*--------------------------------*- C++ -*----------------------------------*\
  =========                 |
  \\      /  F ield         | OpenFOAM: The Open Source CFD Toolbox
   \\    /   O peration     | Website:  https://openfoam.org
    \\  /    A nd           | Version:  6
     \\/     M anipulation  |
\*---------------------------------------------------------------------------*/
FoamFile
{
    version     2.0;
    format      ascii;
    class       volScalarField;
    location    "37399.9999986322582";
    object      k;
}
// * * * * * * * * * * * * * * * * * * * * * * * * * * * * * * * * * * * * * //

dimensions      [0 2 -2 0 0 0 0];

internalField   nonuniform List<scalar> 
778
(
0.00158591
0.00180106
0.00178789
0.00194642
0.00209764
0.00223991
0.0023766
0.00251224
0.00265261
0.002806
0.00295632
0.00310274
0.0032504
0.00341295
0.00358674
0.000793028
0.00162531
0.00165195
0.00157317
0.00144549
0.00128319
0.00113097
0.000999204
0.000887414
0.000792851
0.000713104
0.000645087
0.000586097
0.000533586
0.000484843
0.00043637
0.000398041
0.000326137
0.00340696
0.00643327
0.00268744
0.002746
0.00288766
0.00305422
0.00323457
0.00343036
0.00364364
0.00387407
0.00412631
0.00438026
0.00459621
0.00470155
0.00459579
0.00429944
0.00390824
0.00358076
0.00253546
0.0028118
0.00295434
0.00289709
0.00266454
0.00226564
0.00190631
0.00160995
0.0013701
0.00117617
0.00101728
0.000885427
0.000774143
0.000681317
0.000615298
0.00057479
0.000864197
0.000524074
0.00549077
0.0127807
0.00347786
0.00321206
0.00329736
0.00345519
0.00363658
0.00384078
0.00407118
0.00432795
0.00463619
0.00501175
0.00545211
0.00596172
0.00653268
0.00686115
0.00627876
0.00538656
0.00403684
0.00416822
0.00417152
0.00397437
0.00357699
0.00266516
0.00201544
0.00157614
0.00126997
0.00104986
0.000887415
0.000764994
0.000672112
0.000603866
0.00055163
0.000548804
0.00116481
0.000678063
0.00797353
0.0217575
0.00449095
0.00339068
0.00334144
0.00343801
0.00354942
0.00366894
0.00380924
0.00399169
0.00425969
0.00464929
0.00517233
0.00582655
0.00655604
0.00713557
0.00722888
0.00724286
0.00534343
0.00555033
0.00537546
0.00512461
0.00478618
0.00434765
0.00345548
0.00285882
0.00243593
0.00211009
0.00185081
0.00163239
0.00143898
0.00125894
0.001078
0.000800875
0.000659924
0.00141987
0.000821799
0.0108763
0.0336327
0.00621227
0.00342489
0.00315819
0.0031669
0.00318958
0.00320995
0.00325229
0.00336137
0.00359515
0.00398989
0.00455454
0.00527823
0.00608864
0.00681908
0.00728473
0.0076453
0.00751875
0.00665465
0.00607315
0.00557859
0.00509868
0.00462916
0.00412297
0.00366558
0.0032751
0.00293756
0.00263145
0.00234808
0.00207954
0.0018187
0.00155501
0.00122201
0.000930679
0.00118956
0.00121578
0.00116755
0.00202037
0.00185371
0.0141746
0.0475954
0.00928262
0.00348983
0.00290841
0.00282265
0.0027644
0.00269965
0.00266438
0.00273471
0.00298103
0.00341469
0.00402436
0.00479899
0.00565523
0.00646245
0.0070702
0.00740853
0.00732482
0.00679049
0.00621517
0.00563703
0.00507418
0.00455598
0.00409138
0.00369577
0.00336323
0.00307384
0.00280703
0.00255186
0.00229932
0.00204241
0.00177381
0.0014714
0.00117904
0.00111285
0.00111112
0.00170841
0.00508014
0.00265495
0.0179914
0.060602
0.0143571
0.00381914
0.00271503
0.00252928
0.0024118
0.00229417
0.00222126
0.00231165
0.00263031
0.00313936
0.00380231
0.00463165
0.00552935
0.00636766
0.00700188
0.00732915
0.00725549
0.00681882
0.00621573
0.00555488
0.0049119
0.00434284
0.00387258
0.0035005
0.00320678
0.00296187
0.00274162
0.00252954
0.00231396
0.0020875
0.00184524
0.00158299
0.00132846
0.00116133
0.0010925
0.00155342
0.00623956
0.00368337
0.0216401
0.0704781
0.0214317
0.00510111
0.0027425
0.00237168
0.00221016
0.00208213
0.00202664
0.00221976
0.0026499
0.00323085
0.00393698
0.00477421
0.00569865
0.00657327
0.00722379
0.0075146
0.00738526
0.00689709
0.00619866
0.00542701
0.00469141
0.00406434
0.0035743
0.00321228
0.00294743
0.00274084
0.00256434
0.00239627
0.00222268
0.00203586
0.00183233
0.00161342
0.0013992
0.00123312
0.00115519
0.00208933
0.0140562
0.00628343
0.0228328
0.0694965
0.0325282
0.0110512
0.00406519
0.00258693
0.00223553
0.00210334
0.00219063
0.00251329
0.00300114
0.00360217
0.00433176
0.00521087
0.00618258
0.00708509
0.0077156
0.00792274
0.00766515
0.00702623
0.0061655
0.00524817
0.00440687
0.00372173
0.00321598
0.00286821
0.00263491
0.00246848
0.00233599
0.00221141
0.00207968
0.00193352
0.0017706
0.00159405
0.00141995
0.00129257
0.00133361
0.00386119
0.0273852
0.00809879
0.0219184
0.0516406
0.0336412
0.0174282
0.00858344
0.00475747
0.00326112
0.00273085
0.00285466
0.00321277
0.00367384
0.00424652
0.00499332
0.00593386
0.00696806
0.00788167
0.00843778
0.00848238
0.00800371
0.00712416
0.00604085
0.00495268
0.00400976
0.00328912
0.00279655
0.00248744
0.00230108
0.00218318
0.00209541
0.00201087
0.00191594
0.00180496
0.00167712
0.00153695
0.00139983
0.00132228
0.00168894
0.0077301
0.025727
0.00847016
0.0192341
0.0394412
0.0302377
0.0195634
0.0121797
0.00793742
0.00571726
0.0046706
0.00436432
0.00440191
0.00465372
0.00514398
0.00592954
0.00697097
0.0080763
0.00895358
0.00933699
0.00909483
0.00827377
0.00706071
0.00570972
0.00445671
0.0034586
0.0027663
0.0023466
0.00211349
0.00198902
0.00192181
0.00187219
0.00181859
0.00175083
0.00166512
0.00156232
0.00145005
0.00135144
0.00139762
0.00262207
0.00920214
0.0225035
0.0083688
0.0159501
0.0315879
0.0266506
0.0195378
0.013975
0.0102835
0.00802728
0.00675191
0.0060504
0.00573238
0.00578261
0.00626944
0.00719703
0.00839828
0.00954539
0.0102671
0.0103041
0.00959454
0.00828869
0.00666502
0.00505127
0.0037154
0.00278936
0.00223229
0.00195322
0.00181318
0.00174411
0.00171042
0.00168331
0.00164808
0.00159711
0.00152724
0.00144035
0.00134983
0.00130861
0.00171932
0.00411044
0.00989389
0.0186062
0.00787993
0.0132655
0.025667
0.0233471
0.0186878
0.0145825
0.0115874
0.00954313
0.00820983
0.00730076
0.00684079
0.00695539
0.00770761
0.00895355
0.0103304
0.0113728
0.0116859
0.0111038
0.00970165
0.0077926
0.00576079
0.00402315
0.00283269
0.00219391
0.00186285
0.00169843
0.00161586
0.00157436
0.00155276
0.0015325
0.00150369
0.00146056
0.00140071
0.00132788
0.00126454
0.00131618
0.00205708
0.00487137
0.0100468
0.0159617
0.00736048
0.0133454
0.0224092
0.0220507
0.0177562
0.01439
0.0118925
0.010083
0.00876877
0.00791909
0.00777417
0.00846422
0.00984179
0.0114798
0.0128178
0.0133602
0.0128277
0.0112872
0.00899956
0.00652601
0.00431237
0.0029641
0.00222835
0.00186082
0.00167376
0.00157218
0.00151205
0.0014742
0.00144863
0.00142363
0.00139254
0.00135159
0.0013004
0.00124582
0.00121741
0.00133078
0.00205909
0.00456412
0.00929923
0.0167698
0.00749947
0.010873
0.0117606
0.012922
0.0125524
0.011375
0.0100758
0.0089483
0.00820602
0.00830652
0.00941278
0.0112679
0.0133074
0.0148778
0.0154594
0.0147983
0.0128829
0.0101824
0.00704228
0.00465547
0.00314936
0.00236339
0.00197919
0.00178231
0.00166371
0.00157864
0.0015109
0.00145599
0.00141309
0.00137521
0.00133821
0.00130278
0.00127589
0.0012729
0.00132569
0.00152162
0.00215327
0.00410721
0.00904849
0.0149079
0.00851849
0.00354704
0.00482949
0.00600425
0.00661077
0.00728982
0.00880722
0.0113179
0.0141232
0.0165012
0.0179021
0.0179854
0.0166858
0.0142101
0.0106385
0.00736123
0.00486607
0.00336311
0.00260007
0.00224532
0.00206454
0.00194763
0.00185125
0.00176034
0.00167209
0.00159119
0.00152759
0.00148436
0.00146453
0.00148124
0.00155315
0.00169658
0.00192774
0.00230015
0.00300223
0.00462432
0.010113
0.0138593
0.00876579
0.00444504
0.00629842
0.0081198
0.0110392
0.0147198
0.0181674
0.0203819
0.0214096
0.021298
0.0200548
0.017523
0.0140718
0.0104492
0.00719911
0.00491111
0.00359876
0.00297169
0.00268739
0.0025395
0.00244051
0.00235974
0.00228522
0.00221107
0.00213632
0.00206724
0.00201902
0.00200743
0.00204955
0.00217008
0.00239262
0.00273254
0.0032038
0.00385324
0.00483245
0.00657496
0.0112397
0.0152787
0.00896758
0.0150776
0.0244229
0.0180808
0.0144012
0.0170376
0.0207482
0.0228837
0.0235757
0.023095
0.0217134
0.0196755
0.0170256
0.0138698
0.0105927
0.00770918
0.00560697
0.00439028
0.00380036
0.00351232
0.00334353
0.00322913
0.00315141
0.00310381
0.00307792
0.00306199
0.00304558
0.00302802
0.00302594
0.00306142
0.00316318
0.0033579
0.00367188
0.00412788
0.0047474
0.00556569
0.00666712
0.00825956
0.0107681
0.0138531
0.00813803
0.013811
0.017048
0.0178929
0.0207966
0.0217371
0.022159
0.0211625
0.0193468
0.0172206
0.015033
0.0128872
0.0108402
0.00896052
0.00736851
0.00618216
0.00539408
0.00486166
0.0045002
0.00424205
0.00406174
0.00395737
0.00393218
0.00398429
0.00410234
0.00426471
0.00444199
0.00460299
0.00472417
0.00483973
0.00499309
0.00521804
0.00554149
0.00598904
0.00659405
0.00741466
0.00855095
0.0101555
0.0126487
0.0155319
0.00782168
0.0121382
0.00890724
0.0088184
0.00933638
0.00977527
0.00919458
0.00811819
0.00694734
0.00587011
0.00494036
0.00415644
0.00350942
0.00300019
0.00263418
0.00240469
0.00228857
0.00225471
0.00225913
0.00229408
0.00235857
0.00245119
0.00256725
0.0026992
0.00283869
0.00297899
0.00311667
0.00325256
0.00339215
0.00353808
0.00370084
0.00389123
0.00411747
0.00438483
0.00469523
0.00504567
0.00542964
0.00587835
0.00656973
0.0076429
0.00735797
)
;

boundaryField
{
    floor
    {
        type            kqRWallFunction;
        value           nonuniform List<scalar> 
36
(
0.00358674
0.000793028
0.00162531
0.00165195
0.00157317
0.00144549
0.00128319
0.00113097
0.000999204
0.000887414
0.000792851
0.000713104
0.000645087
0.000586097
0.000533586
0.000484843
0.00043637
0.000398041
0.000326137
0.000326137
0.000524074
0.000678063
0.000821799
0.00116755
0.00202037
0.00185371
0.00358674
0.00429944
0.00390824
0.00358076
0.000793028
0.00358076
0.00253546
0.00538656
0.00403684
0.00534343
)
;
    }
    ceiling
    {
        type            kqRWallFunction;
        value           nonuniform List<scalar> 
43
(
0.0121382
0.00890724
0.0088184
0.00933638
0.00977527
0.00919458
0.00811819
0.00694734
0.00587011
0.00494036
0.00415644
0.00350942
0.00300019
0.00263418
0.00240469
0.00228857
0.00225471
0.00225913
0.00229408
0.00235857
0.00245119
0.00256725
0.0026992
0.00283869
0.00297899
0.00311667
0.00325256
0.00339215
0.00353808
0.00370084
0.00389123
0.00411747
0.00438483
0.00469523
0.00504567
0.00542964
0.00587835
0.00656973
0.0076429
0.00735797
0.010873
0.0117606
0.00444504
)
;
    }
    sWall
    {
        type            kqRWallFunction;
        value           nonuniform List<scalar> 9(0.0219184 0.0192341 0.0159501 0.0132655 0.0133454 0.010873 0.0150776 0.013811 0.0121382);
    }
    nWall
    {
        type            kqRWallFunction;
        value           nonuniform List<scalar> 
14
(
0.00185371
0.00265495
0.00368337
0.00847016
0.0083688
0.00787993
0.00736048
0.00749947
0.00851849
0.00876579
0.00896758
0.00813803
0.00782168
0.00735797
)
;
    }
    sideWalls
    {
        type            empty;
    }
    glass1
    {
        type            kqRWallFunction;
        value           nonuniform List<scalar> 9(0.00158591 0.00340696 0.00549077 0.00797353 0.0108763 0.0141746 0.0179914 0.0216401 0.0228328);
    }
    glass2
    {
        type            kqRWallFunction;
        value           nonuniform List<scalar> 2(0.00628343 0.00809879);
    }
    sun
    {
        type            kqRWallFunction;
        value           nonuniform List<scalar> 
14
(
0.00158591
0.00180106
0.00178789
0.00194642
0.00209764
0.00223991
0.0023766
0.00251224
0.00265261
0.002806
0.00295632
0.00310274
0.0032504
0.00341295
)
;
    }
    Table_master
    {
        type            kqRWallFunction;
        value           nonuniform List<scalar> 9(0.00266516 0.00201544 0.00157614 0.00126997 0.00104986 0.000887415 0.000764994 0.000672112 0.000603866);
    }
    Table_slave
    {
        type            kqRWallFunction;
        value           nonuniform List<scalar> 9(0.00345548 0.00285882 0.00243593 0.00211009 0.00185081 0.00163239 0.00143898 0.00125894 0.001078);
    }
    inlet
    {
        type            turbulentIntensityKineticEnergyInlet;
        intensity       0.05;
        value           uniform 0.0009375;
    }
    outlet
    {
        type            zeroGradient;
    }
}


// ************************************************************************* //
