/*--------------------------------*- C++ -*----------------------------------*\
  =========                 |
  \\      /  F ield         | OpenFOAM: The Open Source CFD Toolbox
   \\    /   O peration     | Website:  https://openfoam.org
    \\  /    A nd           | Version:  6
     \\/     M anipulation  |
\*---------------------------------------------------------------------------*/
FoamFile
{
    version     2.0;
    format      ascii;
    class       volScalarField;
    location    "3500";
    object      alphat;
}
// * * * * * * * * * * * * * * * * * * * * * * * * * * * * * * * * * * * * * //

dimensions      [1 -1 -1 0 0 0 0];

internalField   nonuniform List<scalar> 
778
(
0.00104096
0.0011105
0.0011065
0.00115453
0.00119857
0.00123857
0.00127582
0.00131175
0.00134792
0.00138636
0.00142304
0.00145788
0.00149221
0.00152911
0.00156761
0.000736952
0.00105543
0.00106407
0.00103838
0.000995344
0.000937802
0.000880423
0.000827541
0.000779865
0.00073713
0.000699063
0.000664877
0.000633738
0.000604672
0.000576384
0.000546802
0.000522224
0.000472661
0.00152462
0.00300704
0.00263911
0.00304608
0.00334131
0.00365433
0.00396664
0.00425455
0.00448642
0.00462158
0.00470112
0.00466871
0.00443607
0.00385939
0.00281884
0.00171644
0.00163657
0.00156653
0.0013183
0.00224603
0.00311339
0.00362587
0.00364999
0.00288062
0.00246355
0.00217462
0.00195535
0.00178088
0.00163196
0.00150035
0.00137791
0.00125814
0.00115064
0.00105795
0.0011914
0.000599181
0.00193408
0.00419835
0.00311329
0.004453
0.00497543
0.00541752
0.00581911
0.00617268
0.0064724
0.00670761
0.00693553
0.00717544
0.00739596
0.00752723
0.00744029
0.00681203
0.00498186
0.00192146
0.00166362
0.00355935
0.00496678
0.00563247
0.00512193
0.00135166
0.00117539
0.00103942
0.000933021
0.000848327
0.000779946
0.000724157
0.000678772
0.000643385
0.000707376
0.000832031
0.00131703
0.000681549
0.00232902
0.00565768
0.00297897
0.00500685
0.0057802
0.00619384
0.00649796
0.00672301
0.00689116
0.00702774
0.0072219
0.0075499
0.00802838
0.00862986
0.00923425
0.00953161
0.00894909
0.00667286
0.00191395
0.00443645
0.00659693
0.00769308
0.00796287
0.00679713
0.00153915
0.00139995
0.00129224
0.0012027
0.00112638
0.00105783
0.000993183
0.000928972
0.00085962
0.000803194
0.000832499
0.00142555
0.000750287
0.00271826
0.00748939
0.00300521
0.00475964
0.00594869
0.0063012
0.00642895
0.00643366
0.00636974
0.00631344
0.00639496
0.00671367
0.0072982
0.00812573
0.00908548
0.00996967
0.0105313
0.010526
0.00944816
0.0096149
0.00983477
0.00986463
0.00966328
0.0090443
0.00719712
0.00621693
0.00554568
0.00499984
0.004465
0.00394708
0.00344038
0.00293421
0.00241402
0.00185438
0.0014152
0.00141303
0.00111772
0.000894388
0.00117829
0.00112708
0.00310117
0.00953926
0.00353752
0.00401369
0.00569952
0.00609056
0.00605881
0.00584044
0.00552858
0.00527152
0.00526604
0.00559962
0.00626526
0.00722436
0.00834739
0.00946929
0.0104255
0.0110368
0.0111488
0.0110371
0.0108406
0.0105619
0.0102042
0.00974964
0.00908677
0.00844847
0.00786912
0.00730862
0.00670397
0.00605855
0.00536917
0.0046298
0.00383574
0.00299331
0.00223099
0.00167514
0.00129981
0.00145974
0.00253533
0.00134827
0.00349188
0.0114344
0.00471349
0.00328806
0.00512121
0.00576093
0.00568936
0.00533616
0.00482412
0.00437363
0.00436047
0.00478098
0.00554219
0.00661337
0.00783375
0.00904225
0.0100831
0.0108291
0.0111726
0.0111462
0.0109007
0.010529
0.0101036
0.00967964
0.00926982
0.00889396
0.00854105
0.00816408
0.00770924
0.00716194
0.00651389
0.00576182
0.00490881
0.00397714
0.0030673
0.00221836
0.00163309
0.0014613
0.00257011
0.00158899
0.00382761
0.0128674
0.0064256
0.00313031
0.00405713
0.00510731
0.00525308
0.00496259
0.00435806
0.00374464
0.00388323
0.00443893
0.00528945
0.00639299
0.00765964
0.00892466
0.0100047
0.0107558
0.0110973
0.0110532
0.0107363
0.0102691
0.00976678
0.00932154
0.00897843
0.00873336
0.00854239
0.00833471
0.00804608
0.00764212
0.00710665
0.00643639
0.00563814
0.00473673
0.00380141
0.00285496
0.00200325
0.00132494
0.00372639
0.00207758
0.00392892
0.0121743
0.00794901
0.00404566
0.00275031
0.00337126
0.00394402
0.00399151
0.00352406
0.00342503
0.00378066
0.00443369
0.0053525
0.00652197
0.00784901
0.00915295
0.0102294
0.0109228
0.0111668
0.011
0.0105407
0.00993847
0.00934135
0.00886525
0.00856309
0.00841468
0.00834748
0.00826777
0.00810213
0.00781068
0.00737743
0.00680066
0.00608847
0.00526178
0.00435697
0.00334285
0.00199133
0.00160566
0.00569993
0.00235166
0.00384955
0.00981242
0.0082073
0.00555191
0.00366724
0.00284034
0.00269094
0.00281756
0.00305388
0.00343056
0.00396475
0.00469929
0.00569796
0.00695835
0.00835748
0.00968001
0.0107006
0.0112633
0.0113225
0.0109452
0.0102811
0.00951739
0.00883655
0.0083705
0.00815689
0.00813168
0.00817788
0.00817709
0.00807008
0.00783415
0.0074615
0.00695181
0.00631047
0.00554409
0.00461699
0.00327673
0.00159165
0.00263879
0.00587349
0.00240872
0.00360604
0.00838525
0.00793385
0.00635221
0.0048895
0.00393698
0.00346616
0.00336011
0.00355571
0.00391541
0.00443763
0.00521272
0.00631536
0.0076973
0.00916801
0.010463
0.0113429
0.0116705
0.0114401
0.0107673
0.00985438
0.00894165
0.00824957
0.00790236
0.00786172
0.00797509
0.00809008
0.00809226
0.00797956
0.00775074
0.00740077
0.00692515
0.00631994
0.00555485
0.00442297
0.00259308
0.00167365
0.00333986
0.00584248
0.00239999
0.00328341
0.00755915
0.00765179
0.00672266
0.00571985
0.00496477
0.00452029
0.00436133
0.0044023
0.00462021
0.0051002
0.00596638
0.0072417
0.00877314
0.010276
0.0114419
0.012043
0.0119926
0.0113541
0.010316
0.00916051
0.00819756
0.00765353
0.00754232
0.00763527
0.0077862
0.00788693
0.00785991
0.0077294
0.00749726
0.00715505
0.00669098
0.006084
0.00522213
0.00359361
0.00180791
0.00216406
0.00374442
0.0054016
0.00233332
0.00299367
0.00675893
0.00730365
0.00686591
0.00622312
0.00568281
0.00532354
0.00514854
0.00509779
0.0052851
0.00589526
0.00702803
0.00857248
0.0102315
0.0116378
0.0124831
0.012604
0.0120066
0.0108604
0.00945627
0.00819036
0.00737862
0.00701704
0.0069644
0.00706192
0.00720243
0.00729841
0.00727704
0.00714931
0.0069148
0.00656349
0.0060795
0.00541841
0.00436132
0.00260625
0.00174983
0.00256495
0.00392741
0.00487036
0.00224998
0.00300319
0.00670761
0.00746071
0.00694727
0.00642741
0.00600162
0.00569487
0.00549718
0.00549223
0.00594585
0.0070225
0.00862859
0.0104407
0.0120434
0.0130683
0.0132965
0.0127007
0.011417
0.00977387
0.0081885
0.00703987
0.00635464
0.00601762
0.00592232
0.0059785
0.00610128
0.00620426
0.00619612
0.00606218
0.00579835
0.0053996
0.0048691
0.00420539
0.00333455
0.00226075
0.00185863
0.00270667
0.00407398
0.00538744
0.00224696
0.00270945
0.00281975
0.00416522
0.00489746
0.00512521
0.00513064
0.00508323
0.00518182
0.00581526
0.00715832
0.00904246
0.0110724
0.0128079
0.0138839
0.0140846
0.0133653
0.0118992
0.00996318
0.00811837
0.00667341
0.00569039
0.00510656
0.00481724
0.00470844
0.00470307
0.00474737
0.00478
0.00471819
0.00451871
0.00418441
0.00374318
0.00326132
0.00281837
0.00245405
0.00216414
0.00212035
0.0028407
0.00441955
0.00555155
0.00241051
0.000965271
0.0017411
0.00267207
0.00341886
0.00428678
0.00575915
0.00791983
0.0103089
0.0124752
0.0140885
0.0149282
0.0148516
0.013862
0.0120581
0.00991053
0.00787008
0.00624198
0.00513222
0.00450023
0.00416863
0.00398457
0.0038703
0.00379146
0.00372479
0.0036384
0.00348936
0.00325229
0.00295578
0.00266508
0.00245304
0.00235573
0.00236629
0.00247569
0.00274142
0.0034198
0.00521484
0.00579615
0.00244888
0.00178731
0.00247421
0.00360258
0.005615
0.00833838
0.0110539
0.0131462
0.0146451
0.0155436
0.0157854
0.0152611
0.0138616
0.0117993
0.00946842
0.00732392
0.00569564
0.00470778
0.00419575
0.00392461
0.00375947
0.00364774
0.00356877
0.00350861
0.00345014
0.00337032
0.00324821
0.00309118
0.00293555
0.00282883
0.00280742
0.00287909
0.00303263
0.00326991
0.00364388
0.00431204
0.00590765
0.00628874
0.00248815
0.00323838
0.0078556
0.00725168
0.00650298
0.00825992
0.0109942
0.0132899
0.0148273
0.0156255
0.0158103
0.0154833
0.0146054
0.0131351
0.0111416
0.00890383
0.00684855
0.00539193
0.00458486
0.00416559
0.00392
0.00375961
0.00365907
0.0036109
0.00360633
0.00362919
0.00365594
0.00366092
0.00363003
0.00358808
0.00356162
0.00357009
0.00362538
0.0037277
0.00386818
0.00404173
0.00426506
0.00459442
0.00512246
0.00536909
0.00237169
0.00309565
0.00598518
0.00774641
0.00990812
0.0109957
0.012112
0.0127558
0.0129022
0.0126435
0.0120469
0.0111417
0.00994648
0.00852746
0.00705954
0.00580262
0.0049092
0.00431672
0.00393357
0.00366939
0.00348587
0.00337561
0.00333996
0.00337687
0.00347507
0.00361191
0.00375486
0.0038678
0.00392897
0.00397294
0.00402544
0.00410086
0.00420518
0.00433848
0.00449919
0.00469148
0.00492665
0.00519788
0.00563249
0.00595108
0.00231546
0.00289523
0.00248018
0.00246736
0.00253811
0.00259585
0.00251496
0.00236116
0.00218334
0.00200697
0.00184177
0.00168995
0.00155291
0.00143501
0.00134307
0.00128164
0.0012498
0.00124011
0.00124165
0.00125213
0.00127062
0.00129588
0.0013259
0.00135834
0.00139112
0.0014229
0.00145326
0.00148283
0.00151282
0.00154408
0.00157878
0.00161857
0.00166437
0.0017164
0.00177444
0.00183805
0.00190844
0.00199827
0.00212853
0.00230028
0.0022327
)
;

boundaryField
{
    floor
    {
        type            compressible::alphatWallFunction;
        Prt             0.85;
        value           nonuniform List<scalar> 
36
(
0.00021992
0.000104501
0.000149946
0.000151152
0.000147557
0.000141509
0.000133375
0.000125206
0.000117622
0.000110735
0.000104519
9.89454e-05
9.3909e-05
8.92941e-05
8.49616e-05
8.07203e-05
7.62577e-05
7.25274e-05
6.49379e-05
6.4937e-05
8.41411e-05
9.637e-05
0.000106438
0.000127202
0.000167008
0.000159937
0.000219918
0.00023973
0.000229121
0.000219772
0.0001045
0.00021977
0.000186241
0.00026671
0.000232711
0.000265726
)
;
    }
    ceiling
    {
        type            compressible::alphatWallFunction;
        Prt             0.85;
        value           nonuniform List<scalar> 
43
(
0.000391239
0.00033884
0.000337212
0.000346218
0.000353556
0.00034332
0.000323728
0.000300892
0.000278034
0.00025642
0.000236369
0.000218105
0.000202257
0.000189807
0.000181439
0.000177079
0.000175753
0.000175961
0.00017739
0.000179915
0.000183367
0.00018747
0.0001919
0.000196372
0.000200699
0.000204825
0.00020883
0.00021288
0.000217084
0.000221736
0.000227056
0.000233163
0.000240085
0.00024778
0.000256174
0.000265379
0.000276961
0.000293716
0.00031581
0.000307367
0.000368216
0.000382081
0.000248607
)
;
    }
    sWall
    {
        type            compressible::alphatWallFunction;
        Prt             0.85;
        value           nonuniform List<scalar> 9(0.000507615 0.000477908 0.000438235 0.000402271 0.000403449 0.000366641 0.000432031 0.000414383 0.000389488);
    }
    nWall
    {
        type            compressible::alphatWallFunction;
        Prt             0.85;
        value           nonuniform List<scalar> 
14
(
0.00015949
0.00018987
0.000222288
0.000329163
0.000327987
0.000319411
0.000308765
0.000308608
0.000329448
0.000334289
0.000339208
0.000324331
0.000317175
0.000306688
)
;
    }
    sideWalls
    {
        type            empty;
    }
    glass1
    {
        type            compressible::alphatWallFunction;
        Prt             0.85;
        value           nonuniform List<scalar> 9(0.000143924 0.000209129 0.000262684 0.00031329 0.000362359 0.000409978 0.000457982 0.000498839 0.000511214);
    }
    glass2
    {
        type            compressible::alphatWallFunction;
        Prt             0.85;
        value           nonuniform List<scalar> 2(0.000284316 0.000319581);
    }
    sun
    {
        type            compressible::alphatWallFunction;
        Prt             0.85;
        value           nonuniform List<scalar> 
14
(
0.000147958
0.00015764
0.000157082
0.00016375
0.000169834
0.00017534
0.000180449
0.000185359
0.000190288
0.000195511
0.000200478
0.000205184
0.000209807
0.000214764
)
;
    }
    Table_master
    {
        type            compressible::alphatWallFunction;
        Prt             0.85;
        value           nonuniform List<scalar> 9(0.000191054 0.000166885 0.000147958 0.000132946 0.000120854 0.000110986 0.000102858 9.61902e-05 9.09538e-05);
    }
    Table_slave
    {
        type            compressible::alphatWallFunction;
        Prt             0.85;
        value           nonuniform List<scalar> 9(0.000216379 0.000197615 0.000182953 0.000170658 0.000160096 0.000150539 0.00014146 0.000132374 0.000122477);
    }
    inlet
    {
        type            fixedValue;
        value           uniform 1.94e-05;
    }
    outlet
    {
        type            zeroGradient;
    }
}


// ************************************************************************* //
