/*--------------------------------*- C++ -*----------------------------------*\
  =========                 |
  \\      /  F ield         | OpenFOAM: The Open Source CFD Toolbox
   \\    /   O peration     | Website:  https://openfoam.org
    \\  /    A nd           | Version:  6
     \\/     M anipulation  |
\*---------------------------------------------------------------------------*/
FoamFile
{
    version     2.0;
    format      ascii;
    class       volScalarField;
    location    "3500";
    object      epsilon;
}
// * * * * * * * * * * * * * * * * * * * * * * * * * * * * * * * * * * * * * //

dimensions      [0 2 -3 0 0 0 0];

internalField   nonuniform List<scalar> 
778
(
0.000209066
0.000248102
0.000662723
0.000246831
0.00128452
0.00137198
0.000279012
0.000231614
0.00368946
0.00244678
0.00030998
0.000212172
0.000320822
0.00811173
0.00398532
0.000339352
0.000212253
0.000198271
0.000562468
0.0150032
0.00605878
0.000367666
0.00021544
0.000187162
0.000193557
0.00110626
0.024097
0.00883916
0.000395767
0.000221243
0.000187712
0.000165858
0.000202161
0.00220339
0.0330765
0.0119567
0.000424789
0.000231019
0.000192318
0.000163639
0.000142674
0.000244518
0.00415914
0.0399878
0.0131239
0.000456351
0.000246542
0.000200693
0.00016481
0.000136262
0.000123953
0.000362355
0.00708547
0.0417422
0.0125151
0.000489691
0.00027011
0.000213039
0.000167883
0.000134151
0.00011129
0.000116828
0.000713306
0.013606
0.0286349
0.0104558
0.000524515
0.000302033
0.000229779
0.000173242
0.000133391
0.000106284
9.31445e-05
0.000145938
0.00285833
0.0143353
0.0195397
0.00799533
0.000563021
0.000344529
0.000251888
0.000182335
0.000134911
0.000102778
8.52639e-05
8.93667e-05
0.000513929
0.00551331
0.0120496
0.0138579
0.00608268
0.000609571
0.000402155
0.000282127
0.00019735
0.000141049
0.000102218
7.98934e-05
7.57055e-05
0.000161512
0.00194328
0.00620397
0.00972266
0.0101421
0.00607769
0.000664466
0.000484989
0.000324098
0.000220977
0.000154707
0.000108499
7.88533e-05
6.86544e-05
0.000101364
0.000737376
0.00306515
0.00590641
0.00780345
0.00777832
0.00448852
0.000625265
0.000385157
0.000255799
0.000177828
0.000125797
8.95208e-05
6.88926e-05
8.52227e-05
0.000349678
0.00158169
0.00352017
0.00531672
0.00688715
0.00503102
0.000868668
0.000476649
0.000304853
0.000211649
0.000153574
0.000116076
9.44217e-05
9.6061e-05
0.00022348
0.000909017
0.00217324
0.00356232
0.00480927
0.00561363
0.000806038
0.000589351
0.000369351
0.000257385
0.000190364
0.000152786
0.000134889
0.000138707
0.000217249
0.000609256
0.00143717
0.0024531
0.0034131
0.00415793
0.180435
0.00076315
0.00070598
0.000442465
0.000314594
0.000236399
0.000194725
0.000180166
0.000188063
0.000251147
0.000495785
0.00104017
0.00176696
0.00249177
0.00304627
0.0272218
0.00705247
0.00128598
0.000526813
0.000377116
0.000292366
0.000242562
0.000225669
0.000235076
0.000289404
0.000456129
0.000822161
0.00134375
0.00188185
0.00228295
0.00640582
0.00713996
0.00407667
0.000782808
0.000441818
0.000354076
0.000299578
0.000273846
0.000279136
0.000323565
0.000443274
0.000693458
0.00106605
0.00146901
0.00175475
0.00256251
0.00292373
0.00320044
0.0068544
0.00321951
0.00142905
0.000538222
0.000416298
0.000362667
0.000330586
0.000327051
0.000358069
0.000443168
0.000614641
0.000875213
0.00116515
0.00136172
0.00138506
0.00152966
0.00258852
0.00338857
0.00503661
0.00413879
0.00222129
0.000641203
0.000627669
0.000474337
0.000423627
0.000395776
0.000386647
0.000404295
0.000461452
0.000576873
0.000754645
0.000956234
0.00108744
0.000963314
0.00141928
0.00304165
0.0032986
0.00240447
0.00468853
0.00249956
0.00103369
0.000435223
0.000477305
0.000492794
0.000468633
0.000457941
0.000456181
0.000469632
0.000509341
0.000588364
0.000711863
0.000859211
0.000976597
0.000996363
0.00201872
0.00344215
0.00327713
0.00261841
0.00442109
0.00057952
0.000481871
0.000359572
0.000401448
0.000442665
0.000477349
0.000498635
0.000520077
0.000546412
0.000586935
0.000653129
0.000753971
0.000887874
0.0010488
0.00131235
0.002721
0.00358669
0.00304551
0.00257077
0.000239598
0.000369836
0.000359202
0.000311252
0.000346559
0.000389576
0.000444426
0.000501161
0.000555886
0.000611326
0.000673711
0.000753702
0.000864256
0.00102187
0.00126446
0.00175073
0.0031409
0.00344235
0.00267692
0.00228488
0.000262111
0.000294456
0.000295299
0.000302607
0.000299243
0.000335463
0.000391254
0.000464091
0.000547451
0.000636993
0.000734649
0.00084863
0.000994658
0.00119894
0.00152268
0.00212587
0.00318718
0.00310738
0.00228069
0.00191556
0.000267672
0.000244883
0.000267806
0.000822673
0.000263728
0.000283732
0.000330317
0.00040148
0.000495455
0.000608173
0.000737867
0.00088983
0.00107791
0.00133135
0.00170176
0.00227638
0.00290533
0.00265808
0.00191979
0.00157483
0.000255409
0.000208022
0.000576327
0.000620048
0.000257953
0.000239218
0.000271378
0.000329333
0.000415527
0.000530166
0.000672893
0.000846241
0.00106118
0.00133719
0.00170855
0.00215196
0.00232475
0.00213311
0.00160814
0.00129638
0.000230605
0.000193512
0.000377161
0.000490034
0.000233318
0.000204937
0.000221054
0.000261018
0.000327498
0.000424567
0.000554658
0.000721289
0.000929334
0.00118994
0.00149842
0.0017966
0.00167452
0.0015874
0.00134375
0.00107194
0.000196573
0.000161767
0.000260298
0.000396698
0.0002073
0.000177629
0.000181861
0.000204545
0.000247679
0.00031632
0.000415115
0.000546822
0.000715923
0.000916898
0.00113517
0.00123722
0.00110798
0.00111496
0.00112811
0.000890213
0.000165043
0.000132011
0.000188281
0.000327396
0.000183941
0.000156145
0.0001529
0.000162243
0.000184761
0.000224391
0.000284988
0.00036995
0.000476366
0.000603603
0.000702304
0.000728134
0.000674656
0.00076814
0.000967134
0.000747382
0.000138712
0.000107359
0.00014178
0.000272625
0.00016515
0.00013911
0.000131925
0.000132538
0.000140153
0.000156804
0.00018491
0.000224657
0.000277567
0.00032253
0.00036889
0.000401589
0.000412101
0.000553142
0.000858019
0.000642718
0.000117283
8.77148e-05
0.000110509
0.000226954
0.000149274
0.000125826
0.000116498
0.000112277
0.00011078
0.000112642
0.000118955
0.000130622
0.000141908
0.000165799
0.00019562
0.000232503
0.000284452
0.000443701
0.00078333
0.000573123
0.000100036
7.22065e-05
8.87853e-05
0.000186914
0.000135253
0.000115012
0.000104992
9.82316e-05
9.21949e-05
8.61763e-05
8.13666e-05
7.86623e-05
8.24106e-05
9.50579e-05
0.000120195
0.000161404
0.000231301
0.000394369
0.000721959
0.000533439
8.60142e-05
5.99137e-05
7.34685e-05
0.00014921
0.00012247
0.000105785
9.59809e-05
8.83273e-05
8.03146e-05
7.1156e-05
6.18787e-05
5.53069e-05
5.5845e-05
6.5436e-05
8.88698e-05
0.000132666
0.000209338
0.000370421
0.000672264
0.000517808
7.44758e-05
5.01266e-05
6.30053e-05
8.94205e-05
0.000110131
9.75659e-05
8.84829e-05
8.09217e-05
7.26864e-05
6.28019e-05
5.23588e-05
4.48898e-05
4.36948e-05
5.14954e-05
7.37748e-05
0.000118332
0.000197439
0.000355811
0.000634136
0.000514132
6.4819e-05
4.26352e-05
4.80918e-05
5.90144e-05
8.96665e-05
8.97949e-05
8.18765e-05
7.49318e-05
6.73546e-05
5.82036e-05
4.81838e-05
4.02443e-05
3.78374e-05
4.37779e-05
6.40815e-05
0.000108022
0.000188048
0.000345147
0.000608036
0.000520966
5.6521e-05
3.8143e-05
4.08978e-05
0.00015477
6.85469e-05
8.00248e-05
7.57205e-05
6.97085e-05
6.31545e-05
5.52408e-05
4.64182e-05
3.87179e-05
3.50966e-05
3.90223e-05
5.65414e-05
9.8521e-05
0.000178765
0.000336717
0.000594559
0.000538237
4.9098e-05
3.63967e-05
0.000112919
9.99711e-05
0.000110832
6.91017e-05
6.93399e-05
6.48715e-05
5.94704e-05
5.28745e-05
4.53805e-05
3.84045e-05
3.42756e-05
3.62043e-05
5.04816e-05
8.92101e-05
0.000168835
0.000329334
0.000593313
0.000565378
4.20089e-05
6.99399e-05
7.52541e-05
0.000143782
8.1931e-05
6.33435e-05
6.02156e-05
5.60066e-05
5.06572e-05
4.43991e-05
3.83288e-05
3.42482e-05
3.50129e-05
4.61368e-05
8.06068e-05
0.000158351
0.000321646
0.00060243
0.000600708
3.63674e-05
5.19938e-05
0.000165838
0.000104076
6.69479e-05
5.63807e-05
5.27348e-05
4.84484e-05
4.3245e-05
3.80854e-05
3.44139e-05
3.4751e-05
4.3964e-05
7.39736e-05
0.000148375
0.000312674
0.000618756
0.000641672
2.6887e-05
0.000371869
0.000215694
8.02181e-05
5.8047e-05
5.03535e-05
4.6412e-05
4.19541e-05
3.7547e-05
3.44998e-05
3.49896e-05
4.36069e-05
7.09371e-05
0.000141059
0.00030289
0.000638504
0.000685536
0.000327423
0.00109082
0.000178514
7.19564e-05
5.34859e-05
4.57442e-05
4.1057e-05
3.68959e-05
3.44605e-05
3.55748e-05
4.47375e-05
7.20007e-05
0.000139328
0.000295174
0.000658254
0.000730142
0.00055887
0.00161849
0.000348504
9.22253e-05
5.50855e-05
4.35371e-05
3.74437e-05
3.47986e-05
3.659e-05
4.74429e-05
7.7267e-05
0.000144956
0.000294538
0.000675986
0.000774515
0.000910131
0.00573788
0.000988179
0.000173542
7.20438e-05
4.82001e-05
3.8815e-05
3.88573e-05
5.20681e-05
8.75161e-05
0.000159412
0.000303301
0.000691608
0.000819316
0.00202925
0.0145999
0.00234632
0.000340436
0.000146938
6.79717e-05
4.68611e-05
5.96265e-05
0.00010369
0.000185097
0.00032506
0.000711858
0.000866649
0.00294417
0.012505
0.00256207
0.000712344
0.000246715
8.40071e-05
7.42607e-05
0.000127028
0.000224589
0.000363764
0.000743602
0.000917893
0.00317661
0.0100273
0.00272143
0.000962295
0.000256908
0.000113404
0.000161108
0.000280831
0.0004245
0.000793064
0.000977454
0.00316412
0.00764671
0.00278697
0.000878335
0.000244145
0.000219004
0.000359293
0.000513995
0.000866873
0.00104924
0.00293448
0.00592647
0.00245507
0.000686592
0.000343934
0.000474514
0.000642571
0.000974071
0.00113622
0.00265464
0.0058145
0.00207887
0.000681715
0.000667056
0.000829549
0.00112985
0.00124054
0.00263235
0.00475191
0.00215643
0.001063
0.00111716
0.00136326
0.00136377
0.00325124
0.00380024
0.00242357
0.0016106
0.00172799
0.00150768
0.00343888
0.00387275
0.00259136
0.00231268
0.00167954
0.0035973
0.00419984
0.00336201
0.00192309
0.00312124
0.00498869
0.00231096
0.00290548
0.00288722
0.00259346
)
;

boundaryField
{
    floor
    {
        Cmu             0.09;
        kappa           0.41;
        E               9.8;
        type            epsilonWallFunction;
        value           nonuniform List<scalar> 
36
(
0.000664466
0.000239598
0.000262111
0.000267672
0.000255409
0.000230605
0.000196573
0.000165043
0.000138712
0.000117283
0.000100036
8.60142e-05
7.44758e-05
6.4819e-05
5.6521e-05
4.9098e-05
4.20089e-05
3.63674e-05
2.6887e-05
2.6887e-05
5.19938e-05
7.52541e-05
9.99711e-05
0.000165838
0.000371869
0.000327423
0.000664466
0.000868668
0.000806038
0.00076315
0.000239598
0.00076315
0.00057952
0.00128598
0.00103369
0.00142905
)
;
    }
    ceiling
    {
        Cmu             0.09;
        kappa           0.41;
        E               9.8;
        type            epsilonWallFunction;
        value           nonuniform List<scalar> 
43
(
0.00442109
0.00249956
0.00222129
0.00240447
0.00261841
0.00257077
0.00228488
0.00191556
0.00157483
0.00129638
0.00107194
0.000890213
0.000747382
0.000642718
0.000573123
0.000533439
0.000517808
0.000514132
0.000520966
0.000538237
0.000565378
0.000600708
0.000641672
0.000685536
0.000730142
0.000774515
0.000819316
0.000866649
0.000917893
0.000977454
0.00104924
0.00113622
0.00124054
0.00136377
0.00150768
0.00167954
0.00192309
0.00231096
0.00288722
0.00259346
0.00448852
0.00503102
0.00705247
)
;
    }
    sWall
    {
        Cmu             0.09;
        kappa           0.41;
        E               9.8;
        type            epsilonWallFunction;
        value           nonuniform List<scalar> 9(0.0125151 0.0104558 0.00799533 0.00608268 0.00607769 0.00448852 0.00503661 0.00468853 0.00442109);
    }
    nWall
    {
        Cmu             0.09;
        kappa           0.41;
        E               9.8;
        type            epsilonWallFunction;
        value           nonuniform List<scalar> 
14
(
0.000327423
0.00055887
0.000910131
0.00317661
0.00316412
0.00293448
0.00265464
0.00263235
0.00325124
0.00343888
0.0035973
0.00312124
0.00290548
0.00259346
)
;
    }
    sideWalls
    {
        type            empty;
    }
    glass1
    {
        Cmu             0.09;
        kappa           0.41;
        E               9.8;
        type            epsilonWallFunction;
        value           nonuniform List<scalar> 9(0.000209066 0.000662723 0.00137198 0.00244678 0.00398532 0.00605878 0.00883916 0.0119567 0.0131239);
    }
    glass2
    {
        Cmu             0.09;
        kappa           0.41;
        E               9.8;
        type            epsilonWallFunction;
        value           nonuniform List<scalar> 2(0.00202925 0.00294417);
    }
    sun
    {
        Cmu             0.09;
        kappa           0.41;
        E               9.8;
        type            epsilonWallFunction;
        value           nonuniform List<scalar> 
14
(
0.000209066
0.000248102
0.000246831
0.000279012
0.00030998
0.000339352
0.000367666
0.000395767
0.000424789
0.000456351
0.000489691
0.000524515
0.000563021
0.000609571
)
;
    }
    Table_master
    {
        Cmu             0.09;
        kappa           0.41;
        E               9.8;
        type            epsilonWallFunction;
        value           nonuniform List<scalar> 9(0.000576327 0.000377161 0.000260298 0.000188281 0.00014178 0.000110509 8.87853e-05 7.34685e-05 6.30053e-05);
    }
    Table_slave
    {
        Cmu             0.09;
        kappa           0.41;
        E               9.8;
        type            epsilonWallFunction;
        value           nonuniform List<scalar> 9(0.000822673 0.000620048 0.000490034 0.000396698 0.000327396 0.000272625 0.000226954 0.000186914 0.00014921);
    }
    inlet
    {
        type            turbulentMixingLengthDissipationRateInlet;
        mixingLength    0.00315;
        phi             phi;
        k               k;
        value           uniform 1.49737;
    }
    outlet
    {
        type            zeroGradient;
    }
}


// ************************************************************************* //
