/*--------------------------------*- C++ -*----------------------------------*\
  =========                 |
  \\      /  F ield         | OpenFOAM: The Open Source CFD Toolbox
   \\    /   O peration     | Website:  https://openfoam.org
    \\  /    A nd           | Version:  6
     \\/     M anipulation  |
\*---------------------------------------------------------------------------*/
FoamFile
{
    version     2.0;
    format      ascii;
    class       volScalarField;
    location    "3500";
    object      epsilon;
}
// * * * * * * * * * * * * * * * * * * * * * * * * * * * * * * * * * * * * * //

dimensions      [0 2 -3 0 0 0 0];

internalField   nonuniform List<scalar> 
778
(
0.000253103
0.000306319
0.000302972
0.000344151
0.000385032
0.000424866
0.000464347
0.000504663
0.000547548
0.00059572
0.000644223
0.000692662
0.000742682
0.000799076
0.00086087
8.95033e-05
0.000262581
0.000269058
0.000250038
0.000220225
0.000184202
0.000152424
0.00012658
0.000105944
8.94689e-05
7.63153e-05
6.56611e-05
5.68636e-05
4.93955e-05
4.27844e-05
3.65316e-05
3.18261e-05
2.36046e-05
0.000796951
0.00144312
0.00028698
0.000259599
0.00026171
0.000267696
0.000276607
0.000290056
0.000310336
0.000340575
0.000379837
0.000431013
0.000499467
0.000600752
0.000785987
0.00112977
0.000979156
0.00085871
0.000511667
0.000369358
0.000294146
0.000242867
0.000204079
0.000186958
0.00015477
0.00012506
0.000100733
8.15091e-05
6.6538e-05
5.48293e-05
4.56367e-05
3.87126e-05
3.45217e-05
3.2763e-05
6.57654e-05
4.80783e-05
0.00163053
0.00407878
0.000407363
0.000242939
0.000229126
0.000231049
0.000238276
0.000250559
0.000268483
0.000292778
0.000324932
0.000367025
0.000421434
0.000495162
0.000601565
0.000724862
0.000830132
0.0015843
0.00102799
0.000512268
0.000367671
0.000294277
0.000262111
0.000551326
0.000362544
0.000250724
0.000181342
0.000136307
0.000105932
8.47876e-05
6.98253e-05
5.94655e-05
4.51339e-05
3.7979e-05
0.000108105
7.07527e-05
0.00285335
0.00876961
0.000709788
0.000240729
0.000202497
0.000200042
0.000203224
0.000209861
0.00022069
0.000237623
0.00026333
0.000300091
0.000349311
0.000412436
0.000488094
0.00056027
0.000612562
0.000824809
0.00156545
0.000728759
0.000459708
0.000358265
0.000301907
0.000291827
0.000814043
0.000612551
0.000481768
0.000388404
0.000319058
0.000264278
0.000218728
0.000178988
0.00014182
8.37679e-05
5.48755e-05
0.000148448
9.43915e-05
0.00454569
0.0158257
0.0013461
0.000258332
0.000175742
0.00016681
0.000165827
0.000167811
0.000173981
0.000187495
0.000211749
0.000248437
0.000297846
0.000359361
0.000427793
0.000489143
0.000528597
0.000582636
0.000627884
0.000483356
0.000393589
0.000331091
0.000282329
0.000248641
0.000247846
0.000226784
0.000202948
0.000181091
0.00016272
0.00014656
0.000131883
0.000118274
0.000105093
8.44792e-05
6.41898e-05
0.000105076
0.000138706
0.000159881
0.000365437
0.000320248
0.00676307
0.0248756
0.00255285
0.000318028
0.000155537
0.000137075
0.000132145
0.000130718
0.000134489
0.000148579
0.000176729
0.000218089
0.000270784
0.000334038
0.000401612
0.000462479
0.000502947
0.000521773
0.000504995
0.000438429
0.000373954
0.000315734
0.000264791
0.000223414
0.000193307
0.000169644
0.00015083
0.000135651
0.000123324
0.000112778
0.000103314
9.45326e-05
8.60631e-05
7.58823e-05
6.53514e-05
7.75405e-05
9.9604e-05
0.000210559
0.00107335
0.000548379
0.00967112
0.033634
0.00458243
0.000464873
0.000150829
0.000116345
0.000107101
0.000103304
0.000107102
0.000127929
0.000166121
0.000215842
0.000273195
0.000339827
0.000409051
0.000470181
0.000509997
0.000520422
0.000494405
0.000437747
0.000371939
0.000307542
0.000250584
0.000204459
0.000169762
0.000144568
0.000126338
0.000112754
0.000102306
9.37431e-05
8.62467e-05
7.93492e-05
7.27737e-05
6.6105e-05
6.03492e-05
6.3735e-05
7.66246e-05
0.000173954
0.00159949
0.000897408
0.0127576
0.0404038
0.00748798
0.000870957
0.000194234
0.000115379
9.74025e-05
9.14893e-05
9.86831e-05
0.000137756
0.000189297
0.000246188
0.000306854
0.000373494
0.000444348
0.00050764
0.000547099
0.000550821
0.000515711
0.000451602
0.000375536
0.000300952
0.000236459
0.000185948
0.000149307
0.00012398
0.000106714
9.45784e-05
8.57594e-05
7.88425e-05
7.29399e-05
6.75622e-05
6.24753e-05
5.7657e-05
5.40186e-05
5.57879e-05
6.97632e-05
0.000348664
0.00565855
0.00200848
0.0138269
0.0414615
0.0139285
0.00316109
0.000629328
0.000207924
0.000132713
0.000116067
0.000142569
0.000193053
0.000249364
0.000306367
0.000367105
0.000436177
0.000510473
0.000575143
0.000610487
0.000602949
0.000552078
0.000470907
0.000378387
0.000290777
0.000218131
0.000163937
0.000126733
0.000102587
8.72769e-05
7.73395e-05
7.0677e-05
6.57022e-05
6.15177e-05
5.76806e-05
5.40246e-05
5.06644e-05
4.85248e-05
5.22362e-05
9.29711e-05
0.000990019
0.0142649
0.00291994
0.0130048
0.0283749
0.0144141
0.00572392
0.00210286
0.000834207
0.000413755
0.000277094
0.000279291
0.000314868
0.000356263
0.000401696
0.00045828
0.000530273
0.000609159
0.000673183
0.000698116
0.000670314
0.000593642
0.000486501
0.000372364
0.000270377
0.000190892
0.000135605
0.000100603
7.98424e-05
6.79438e-05
6.11678e-05
5.70979e-05
5.41687e-05
5.16318e-05
4.91841e-05
4.67815e-05
4.47178e-05
4.45015e-05
5.5623e-05
0.000182976
0.0023445
0.0121545
0.00313633
0.0106907
0.0193606
0.0120387
0.00629899
0.0031735
0.00167428
0.000986711
0.000679251
0.00056038
0.000517692
0.000510643
0.000531412
0.00058325
0.000661888
0.00074636
0.000804064
0.000806651
0.000743792
0.000627816
0.000485684
0.000346996
0.000232999
0.000152118
0.000101601
7.34907e-05
5.87688e-05
5.13089e-05
4.78942e-05
4.60984e-05
4.47833e-05
4.34747e-05
4.203e-05
4.05577e-05
3.9764e-05
4.33225e-05
7.77958e-05
0.000383305
0.00256609
0.00962802
0.00310026
0.00807334
0.0137712
0.00969213
0.00593276
0.00356913
0.00222709
0.00149061
0.00109293
0.000869458
0.000743813
0.000686061
0.000689958
0.00074983
0.000843502
0.000930806
0.000967321
0.000925565
0.000805565
0.000634747
0.000451576
0.000292083
0.000176609
0.000106647
6.93032e-05
5.24114e-05
4.42939e-05
4.04656e-05
3.9057e-05
3.84699e-05
3.80177e-05
3.74093e-05
3.65846e-05
3.58052e-05
3.66682e-05
4.99892e-05
0.000167667
0.00077053
0.00270074
0.00722792
0.0028477
0.00612353
0.010165
0.00778941
0.00531173
0.00356976
0.00246887
0.00178781
0.00136822
0.00109306
0.000926247
0.000859286
0.000886166
0.00098144
0.00109549
0.00116766
0.00114922
0.00102716
0.000822582
0.000586349
0.000367893
0.00020723
0.000114029
7.19226e-05
5.22346e-05
4.28196e-05
3.80114e-05
3.56251e-05
3.47662e-05
3.44721e-05
3.43068e-05
3.40838e-05
3.3825e-05
3.41093e-05
3.8534e-05
7.09248e-05
0.00026583
0.000992625
0.0027214
0.00557739
0.00255567
0.0061786
0.00780788
0.00680115
0.00473787
0.00336463
0.00246172
0.00186534
0.00146212
0.00119461
0.00106473
0.00107006
0.00117888
0.00132671
0.00143448
0.00143612
0.00130051
0.00105323
0.000744097
0.00045681
0.000238029
0.000130836
8.19027e-05
6.02753e-05
4.95218e-05
4.32809e-05
3.92528e-05
3.67313e-05
3.5543e-05
3.50947e-05
3.50948e-05
3.5469e-05
3.63606e-05
3.86103e-05
4.67073e-05
8.46012e-05
0.000260828
0.000870126
0.00232453
0.00550096
0.00255342
0.00454378
0.00511183
0.00418408
0.00336131
0.00263942
0.00206987
0.00164885
0.00136186
0.00124518
0.0013006
0.00147691
0.00168332
0.00181928
0.00181174
0.00163554
0.00130493
0.000914498
0.000521911
0.00027985
0.000155824
0.000102875
8.02983e-05
6.89214e-05
6.13699e-05
5.53082e-05
5.02472e-05
4.64422e-05
4.44123e-05
4.39687e-05
4.49679e-05
4.76035e-05
5.22819e-05
5.99512e-05
7.44353e-05
0.000112538
0.000239936
0.000664787
0.00196928
0.00438424
0.00314598
0.00140146
0.00143176
0.001434
0.00135475
0.00131241
0.00142448
0.00170892
0.00204251
0.00230227
0.00239785
0.00228269
0.00197364
0.00153231
0.000985909
0.000573844
0.000315613
0.00019002
0.00013799
0.00011712
0.000106637
9.90586e-05
9.1979e-05
8.48419e-05
7.80094e-05
7.25593e-05
7.00443e-05
7.12059e-05
7.64806e-05
8.68347e-05
0.00010326
0.000126771
0.000160347
0.000215999
0.000334497
0.000650207
0.00204448
0.00355111
0.0032958
0.00118779
0.00171832
0.00195574
0.00231244
0.00276084
0.00316463
0.00334161
0.0033038
0.00307672
0.00268416
0.00211826
0.00150377
0.000974105
0.000576096
0.000346295
0.00023853
0.000196065
0.000179264
0.00017066
0.000164224
0.000158022
0.000151317
0.000144022
0.000136889
0.000131724
0.000131233
0.0001373
0.000151814
0.000177377
0.000216641
0.000272383
0.000349559
0.0004616
0.000646253
0.00101938
0.00228908
0.00376032
0.00345388
0.00741897
0.00805217
0.00480547
0.00340695
0.00374464
0.00415716
0.00417009
0.00395713
0.0035968
0.00313817
0.00262912
0.00208598
0.00153895
0.00105817
0.000700553
0.000479923
0.000371762
0.000326038
0.000305695
0.000294375
0.000286977
0.000281889
0.000278045
0.000274263
0.00026963
0.000264406
0.000260923
0.000263359
0.000274018
0.000296454
0.000334806
0.000394362
0.000482008
0.000608029
0.000791067
0.00107085
0.00154455
0.00246119
0.00399968
0.00299142
0.00650451
0.00512807
0.00437394
0.00462808
0.00455063
0.00428298
0.00370111
0.00305285
0.00246517
0.00197045
0.00156582
0.00124193
0.000990775
0.000809446
0.000691159
0.000616831
0.000564689
0.000527569
0.000501537
0.000485488
0.000479368
0.000482773
0.000494328
0.000511685
0.000531966
0.000552515
0.0005717
0.000589483
0.000611333
0.00064324
0.000690977
0.000760842
0.000861317
0.00100632
0.00122198
0.00155706
0.00209825
0.00308871
0.00471297
0.0027868
0.00535993
0.00336933
0.00331933
0.00361639
0.00387486
0.00353577
0.00293507
0.00232592
0.00180923
0.00139945
0.00108168
0.000839638
0.000662839
0.000543702
0.000472673
0.000438377
0.000428327
0.000429909
0.000440815
0.00046056
0.00048855
0.000523365
0.00056289
0.000604868
0.000647539
0.000690144
0.000733338
0.000778924
0.000828317
0.000885487
0.000954251
0.00103777
0.00113857
0.00125854
0.00139924
0.00156563
0.00179332
0.00216279
0.00272914
0.00250476
)
;

boundaryField
{
    floor
    {
        Cmu             0.09;
        kappa           0.41;
        E               9.8;
        type            epsilonWallFunction;
        value           nonuniform List<scalar> 
36
(
0.00086087
8.95033e-05
0.000262581
0.000269058
0.000250038
0.000220225
0.000184202
0.000152424
0.00012658
0.000105944
8.94689e-05
7.63153e-05
6.56611e-05
5.68636e-05
4.93955e-05
4.27844e-05
3.65316e-05
3.18261e-05
2.36046e-05
2.36046e-05
4.80783e-05
7.07527e-05
9.43915e-05
0.000159881
0.000365437
0.000320248
0.00086087
0.00112977
0.000979156
0.00085871
8.95033e-05
0.00085871
0.000511667
0.0015843
0.00102799
0.00156545
)
;
    }
    ceiling
    {
        Cmu             0.09;
        kappa           0.41;
        E               9.8;
        type            epsilonWallFunction;
        value           nonuniform List<scalar> 
43
(
0.00535993
0.00336933
0.00331933
0.00361639
0.00387486
0.00353577
0.00293507
0.00232592
0.00180923
0.00139945
0.00108168
0.000839638
0.000662839
0.000543702
0.000472673
0.000438377
0.000428327
0.000429909
0.000440815
0.00046056
0.00048855
0.000523365
0.00056289
0.000604868
0.000647539
0.000690144
0.000733338
0.000778924
0.000828317
0.000885487
0.000954251
0.00103777
0.00113857
0.00125854
0.00139924
0.00156563
0.00179332
0.00216279
0.00272914
0.00250476
0.00454378
0.00511183
0.00118779
)
;
    }
    sWall
    {
        Cmu             0.09;
        kappa           0.41;
        E               9.8;
        type            epsilonWallFunction;
        value           nonuniform List<scalar> 9(0.0130048 0.0106907 0.00807334 0.00612353 0.0061786 0.00454378 0.00741897 0.00650451 0.00535993);
    }
    nWall
    {
        Cmu             0.09;
        kappa           0.41;
        E               9.8;
        type            epsilonWallFunction;
        value           nonuniform List<scalar> 
14
(
0.000320248
0.000548379
0.000897408
0.00313633
0.00310026
0.0028477
0.00255567
0.00255342
0.00314598
0.0032958
0.00345388
0.00299142
0.0027868
0.00250476
)
;
    }
    sideWalls
    {
        type            empty;
    }
    glass1
    {
        Cmu             0.09;
        kappa           0.41;
        E               9.8;
        type            epsilonWallFunction;
        value           nonuniform List<scalar> 9(0.000253103 0.000796951 0.00163053 0.00285335 0.00454569 0.00676307 0.00967112 0.0127576 0.0138269);
    }
    glass2
    {
        Cmu             0.09;
        kappa           0.41;
        E               9.8;
        type            epsilonWallFunction;
        value           nonuniform List<scalar> 2(0.00200848 0.00291994);
    }
    sun
    {
        Cmu             0.09;
        kappa           0.41;
        E               9.8;
        type            epsilonWallFunction;
        value           nonuniform List<scalar> 
14
(
0.000253103
0.000306319
0.000302972
0.000344151
0.000385032
0.000424866
0.000464347
0.000504663
0.000547548
0.00059572
0.000644223
0.000692662
0.000742682
0.000799076
)
;
    }
    Table_master
    {
        Cmu             0.09;
        kappa           0.41;
        E               9.8;
        type            epsilonWallFunction;
        value           nonuniform List<scalar> 9(0.000551326 0.000362544 0.000250724 0.000181342 0.000136307 0.000105932 8.47876e-05 6.98253e-05 5.94655e-05);
    }
    Table_slave
    {
        Cmu             0.09;
        kappa           0.41;
        E               9.8;
        type            epsilonWallFunction;
        value           nonuniform List<scalar> 9(0.000814043 0.000612551 0.000481768 0.000388404 0.000319058 0.000264278 0.000218728 0.000178988 0.00014182);
    }
    inlet
    {
        type            turbulentMixingLengthDissipationRateInlet;
        mixingLength    0.01;
        phi             phi;
        k               k;
        value           uniform 0.000471671;
    }
    outlet
    {
        type            zeroGradient;
    }
}


// ************************************************************************* //
