/*--------------------------------*- C++ -*----------------------------------*\
  =========                 |
  \\      /  F ield         | OpenFOAM: The Open Source CFD Toolbox
   \\    /   O peration     | Website:  https://openfoam.org
    \\  /    A nd           | Version:  6
     \\/     M anipulation  |
\*---------------------------------------------------------------------------*/
FoamFile
{
    version     2.0;
    format      ascii;
    class       volScalarField;
    location    "3500";
    object      nut;
}
// * * * * * * * * * * * * * * * * * * * * * * * * * * * * * * * * * * * * * //

dimensions      [0 2 -1 0 0 0 0];

internalField   nonuniform List<scalar> 
778
(
0.000894288
0.000953023
0.000949539
0.000990745
0.00102852
0.00106283
0.00109478
0.00112559
0.00115661
0.00118958
0.00122103
0.00125089
0.0012803
0.00131192
0.0013449
0.0006324
0.00090531
0.000912693
0.000890657
0.00085375
0.000804403
0.000755197
0.000709848
0.000668963
0.000632316
0.000599672
0.000570356
0.000543652
0.000518727
0.000494468
0.000469101
0.000448028
0.000405549
0.00131076
0.00258095
0.00226491
0.00261417
0.00286755
0.00313619
0.00340421
0.00365127
0.00385023
0.00396615
0.0040343
0.0040063
0.00380642
0.00331131
0.0024183
0.00147245
0.00140387
0.00134378
0.00113077
0.00192641
0.00267027
0.00310979
0.00313047
0.00247061
0.00211292
0.00186513
0.00167707
0.00152744
0.00139972
0.00128685
0.00118184
0.00107913
0.000986953
0.000907474
0.001022
0.000514075
0.00166401
0.0036041
0.00267216
0.00382212
0.00427069
0.00465031
0.00499516
0.00529877
0.0055561
0.00575797
0.00595344
0.00615899
0.00634762
0.0064594
0.00638383
0.005844
0.00427346
0.00164812
0.00142684
0.00305268
0.00425973
0.00483066
0.00439281
0.00115925
0.00100808
0.000891468
0.000800216
0.00072758
0.000668935
0.000621088
0.000582167
0.000551821
0.000606714
0.000713654
0.00112972
0.000584733
0.00200522
0.00485795
0.00255719
0.00429812
0.00496236
0.00531786
0.00557934
0.0057729
0.00591751
0.00603487
0.00620143
0.00648256
0.0068924
0.00740729
0.0079243
0.00817782
0.00767679
0.00572351
0.00164157
0.00380495
0.00565782
0.00659792
0.00682934
0.00582957
0.00132006
0.00120067
0.00110829
0.0010315
0.000966048
0.000907254
0.000851811
0.00079674
0.00073726
0.00068888
0.000714038
0.00122277
0.000643703
0.00234195
0.00643247
0.00258005
0.00408646
0.00510786
0.00541115
0.00552147
0.00552608
0.00547163
0.00542351
0.00549347
0.0057667
0.00626756
0.00697628
0.00779787
0.00855437
0.00903433
0.00902855
0.00810343
0.00824623
0.00843477
0.00846043
0.00828783
0.00775702
0.00617279
0.00533213
0.00475643
0.00428828
0.00382956
0.00338535
0.00295076
0.00251662
0.00207046
0.00159047
0.00121382
0.00121202
0.000958889
0.000767322
0.00101094
0.00096731
0.00267358
0.00819555
0.0030375
0.00344641
0.00489459
0.00523114
0.00520465
0.0050178
0.00475048
0.00452999
0.00452534
0.00481153
0.00538216
0.00620377
0.00716529
0.00812547
0.00894368
0.00946659
0.00956199
0.00946597
0.00929749
0.00905863
0.008752
0.00836223
0.00779377
0.00724634
0.00674945
0.00626871
0.0057501
0.0051965
0.0046052
0.00397102
0.00328994
0.00256737
0.00191355
0.00143684
0.00111502
0.00125227
0.00217509
0.00115721
0.00301211
0.00982704
0.00404797
0.00282363
0.0043984
0.00494859
0.00488791
0.00458523
0.00414592
0.00375926
0.00374817
0.00410924
0.00476211
0.0056799
0.00672482
0.00775915
0.00864987
0.00928832
0.00958228
0.00955957
0.00934918
0.0090306
0.00866603
0.00830254
0.00795112
0.00762878
0.0073261
0.00700274
0.00661259
0.00614312
0.00558723
0.00494212
0.00421043
0.00341129
0.00263091
0.00190279
0.00140087
0.00125356
0.00220486
0.00136377
0.00330345
0.0110641
0.00552023
0.00268853
0.00348479
0.00438742
0.00451333
0.00426441
0.00374556
0.00321898
0.00333845
0.0038158
0.00454537
0.0054909
0.00657536
0.00765797
0.00858219
0.00922503
0.00951748
0.00947975
0.0092084
0.00880803
0.0083775
0.0079958
0.00770159
0.00749141
0.0073276
0.00714942
0.00690179
0.00655523
0.00609587
0.00552089
0.00483614
0.00406292
0.00326065
0.00244886
0.00171836
0.00113656
0.00319699
0.00178422
0.00339328
0.0104839
0.00683651
0.00347653
0.00236274
0.00289631
0.00338877
0.00343004
0.00302892
0.00294448
0.00325058
0.00381153
0.00459954
0.00560131
0.0067372
0.00785294
0.00877409
0.00936772
0.0095769
0.00943429
0.00904099
0.00852492
0.00801309
0.00760487
0.00734574
0.00721843
0.00716075
0.0070923
0.00695013
0.00670004
0.00632833
0.00583352
0.00522256
0.0045134
0.00373726
0.0028674
0.00170815
0.00137743
0.00489104
0.00202071
0.00332465
0.0084586
0.00706625
0.00477531
0.00315243
0.00244106
0.0023126
0.00242161
0.00262532
0.00294982
0.0034093
0.00403988
0.0048958
0.00597488
0.00717203
0.0083035
0.00917694
0.00965901
0.00971026
0.00938762
0.00881884
0.00816434
0.00758062
0.00718094
0.00699769
0.00697601
0.00701555
0.00701477
0.00692286
0.00672037
0.00640062
0.00596332
0.00541311
0.00475567
0.00396039
0.00281075
0.00136538
0.00226448
0.00504284
0.00206978
0.00311444
0.00723171
0.00683531
0.00546798
0.00420638
0.00338583
0.00298055
0.00288945
0.00305814
0.00336782
0.00381637
0.00448074
0.00542469
0.00660695
0.00786488
0.00897284
0.00972632
0.0100077
0.00981139
0.0092357
0.00845359
0.00767117
0.00707764
0.00677977
0.0067448
0.00684194
0.00694045
0.00694218
0.00684539
0.00664899
0.00634867
0.00594059
0.00542136
0.00476501
0.00379406
0.00222442
0.00143596
0.00286689
0.00501725
0.00206237
0.00283616
0.00652128
0.00659546
0.00579056
0.00492429
0.0042729
0.00388981
0.00375302
0.00378832
0.00397511
0.00438578
0.00512651
0.00621688
0.00752616
0.00881146
0.00980953
0.0103254
0.0102839
0.00973844
0.00884965
0.00785932
0.00703353
0.00656679
0.00647122
0.00655079
0.00668009
0.00676634
0.00674301
0.00663093
0.00643168
0.00613802
0.00573984
0.00521909
0.0044797
0.00308273
0.00155102
0.00185721
0.00321505
0.0046397
0.00200524
0.0025865
0.00583334
0.00629844
0.00591737
0.00536105
0.0048942
0.00458409
0.00443299
0.00438802
0.00454627
0.00506618
0.00603324
0.00735261
0.00877079
0.00997446
0.0106998
0.0108061
0.010297
0.00931653
0.00811349
0.00702797
0.0063315
0.00602107
0.00597566
0.00605911
0.00617945
0.00626162
0.00624314
0.00613344
0.00593216
0.0056307
0.00521542
0.00464826
0.0037414
0.00223584
0.00150135
0.00220167
0.00337293
0.00418436
0.00193384
0.00259423
0.00578943
0.00643503
0.00598938
0.00553909
0.0051706
0.00490507
0.00473277
0.0047242
0.00510793
0.00602513
0.00739585
0.00894436
0.0103163
0.0111967
0.0113968
0.0108907
0.00979377
0.00838649
0.00702713
0.00604154
0.00545333
0.00516387
0.00508184
0.00512981
0.00523495
0.00532313
0.00531602
0.005201
0.00497456
0.00463241
0.00417724
0.00360783
0.00286074
0.00193957
0.0015948
0.00232334
0.00349881
0.00462858
0.00193121
0.00234163
0.00243541
0.00359193
0.00421892
0.00441215
0.00441442
0.00437086
0.00445017
0.00498635
0.00612988
0.00773743
0.00947279
0.0109607
0.0118882
0.012068
0.011459
0.0102073
0.00854977
0.00696784
0.00572789
0.00488405
0.00438275
0.00413422
0.00404064
0.00403583
0.00407365
0.00410149
0.00404833
0.00387708
0.0035902
0.0032116
0.00279818
0.00241816
0.00210561
0.00185693
0.00181952
0.00243831
0.00379534
0.00476897
0.00207135
0.000807827
0.00146603
0.00226282
0.00290401
0.00364543
0.00490053
0.00674463
0.00878873
0.0106487
0.012041
0.0127739
0.0127217
0.0118842
0.0103448
0.00850571
0.0067558
0.00535854
0.00440582
0.00386317
0.00357837
0.00342023
0.00332199
0.00325416
0.00319677
0.00312248
0.00299446
0.00279095
0.00253648
0.00228703
0.00210513
0.0020217
0.00203084
0.00212482
0.00235302
0.00293569
0.00447823
0.00497864
0.00210417
0.00149724
0.00207848
0.00303559
0.00474504
0.00706473
0.00938812
0.0111905
0.0124919
0.0132813
0.0135076
0.0130752
0.0118871
0.0101248
0.00812784
0.00628819
0.00489053
0.00404236
0.00360268
0.00336982
0.00322796
0.00313195
0.00306405
0.00301227
0.00296193
0.00289326
0.00278831
0.00265345
0.00251986
0.00242831
0.00241005
0.00247174
0.00260372
0.00280761
0.00312887
0.00370286
0.00507387
0.00540206
0.00213802
0.00275734
0.00666477
0.00612397
0.0054816
0.00698037
0.00932238
0.011303
0.0126413
0.0133473
0.0135249
0.0132609
0.0125209
0.0112688
0.00956351
0.0076451
0.00588135
0.00463078
0.00393774
0.00357769
0.0033668
0.00322907
0.00314272
0.00310133
0.00309734
0.00311685
0.00313968
0.0031438
0.00311714
0.00308103
0.0030583
0.00306565
0.0031133
0.0032014
0.00332233
0.0034717
0.00366386
0.00394712
0.00440112
0.00461337
0.00203829
0.00263906
0.00510025
0.0065882
0.00841206
0.00934811
0.0103219
0.0108945
0.0110385
0.010831
0.0103294
0.00955966
0.00853828
0.00732257
0.00606329
0.0049843
0.00421709
0.00370826
0.0033792
0.00315233
0.00299475
0.00290008
0.00286949
0.0029012
0.0029855
0.00310297
0.00322563
0.0033225
0.0033749
0.00341258
0.00345765
0.00352248
0.00361222
0.00372693
0.00386526
0.00403078
0.00423316
0.00446655
0.00484031
0.00511434
0.00199042
0.00247419
0.00211947
0.00210894
0.00217008
0.00222061
0.00215387
0.0020243
0.00187335
0.00172297
0.00158172
0.00145167
0.00133415
0.00123296
0.00115402
0.00110127
0.00107392
0.00106563
0.00106698
0.00107601
0.00109194
0.00111366
0.00113947
0.00116735
0.00119549
0.00122277
0.00124882
0.00127419
0.00129993
0.00132677
0.00135658
0.0013908
0.00143019
0.00147497
0.00152492
0.0015797
0.00164033
0.00171769
0.00182979
0.00197755
0.0019197
)
;

boundaryField
{
    floor
    {
        type            nutkWallFunction;
        Cmu             0.09;
        kappa           0.41;
        E               9.8;
        value           nonuniform List<scalar> 
36
(
0.00016058
7.63859e-05
0.000109515
0.000110393
0.00010777
0.000103359
9.74263e-05
9.14676e-05
8.59351e-05
8.09111e-05
7.63763e-05
7.23102e-05
6.86355e-05
6.52681e-05
6.21066e-05
5.90114e-05
5.57544e-05
5.3032e-05
4.74938e-05
4.74937e-05
6.1514e-05
7.04401e-05
7.77887e-05
9.29395e-05
0.000121987
0.00011686
0.00016058
0.000175016
0.000167272
0.000160451
7.63859e-05
0.000160451
0.000135989
0.000194674
0.000169868
0.000193944
)
;
    }
    ceiling
    {
        type            nutkWallFunction;
        Cmu             0.09;
        kappa           0.41;
        E               9.8;
        value           nonuniform List<scalar> 
43
(
0.000284371
0.000246302
0.000245165
0.000251779
0.000257235
0.000250051
0.000236016
0.000219531
0.000202959
0.000187245
0.000172642
0.000159326
0.000147763
0.000138675
0.000132566
0.000129383
0.000128417
0.000128571
0.000129618
0.000131466
0.00013399
0.000136989
0.000140225
0.000143489
0.000146647
0.000149657
0.000152578
0.000155533
0.000158602
0.000162
0.000165888
0.000170353
0.000175416
0.000181046
0.000187189
0.000193928
0.000202405
0.000214662
0.000230819
0.000224676
0.000270417
0.000280438
0.000177596
)
;
    }
    sWall
    {
        type            nutkWallFunction;
        Cmu             0.09;
        kappa           0.41;
        E               9.8;
        value           nonuniform List<scalar> 9(0.000373889 0.000352082 0.000322979 0.00029662 0.000297437 0.000270506 0.000314377 0.000301922 0.000284472);
    }
    nWall
    {
        type            nutkWallFunction;
        Cmu             0.09;
        kappa           0.41;
        E               9.8;
        value           nonuniform List<scalar> 
14
(
0.000116867
0.000139066
0.000162737
0.000241009
0.00024016
0.00023391
0.000226152
0.000226033
0.000241224
0.000244747
0.000248354
0.000237517
0.000232334
0.00022471
)
;
    }
    sideWalls
    {
        type            empty;
    }
    glass1
    {
        type            nutkWallFunction;
        Cmu             0.09;
        kappa           0.41;
        E               9.8;
        value           nonuniform List<scalar> 9(0.000108245 0.00015688 0.000196734 0.000234346 0.000270788 0.000306137 0.000341751 0.000372071 0.000381372);
    }
    glass2
    {
        type            nutkWallFunction;
        Cmu             0.09;
        kappa           0.41;
        E               9.8;
        value           nonuniform List<scalar> 2(0.000209853 0.000235823);
    }
    sun
    {
        type            nutkWallFunction;
        Cmu             0.09;
        kappa           0.41;
        E               9.8;
        value           nonuniform List<scalar> 
14
(
0.000108204
0.000115176
0.000114764
0.000119628
0.000124066
0.000128082
0.000131808
0.000135389
0.000138984
0.000142792
0.000146414
0.000149843
0.000153212
0.000156823
)
;
    }
    Table_master
    {
        type            nutkWallFunction;
        Cmu             0.09;
        kappa           0.41;
        E               9.8;
        value           nonuniform List<scalar> 9(0.000139281 0.000121661 0.000107864 9.69206e-05 8.8105e-05 8.09114e-05 7.49863e-05 7.01258e-05 6.63089e-05);
    }
    Table_slave
    {
        type            nutkWallFunction;
        Cmu             0.09;
        kappa           0.41;
        E               9.8;
        value           nonuniform List<scalar> 9(0.000157739 0.000144061 0.000133372 0.00012441 0.00011671 0.000109743 0.000103125 9.65008e-05 8.92857e-05);
    }
    inlet
    {
        type            calculated;
        value           uniform 0.000167705;
    }
    outlet
    {
        type            calculated;
        value           nonuniform List<scalar> 2(0.00275734 0.00666477);
    }
}


// ************************************************************************* //
