/*--------------------------------*- C++ -*----------------------------------*\
  =========                 |
  \\      /  F ield         | OpenFOAM: The Open Source CFD Toolbox
   \\    /   O peration     | Website:  https://openfoam.org
    \\  /    A nd           | Version:  6
     \\/     M anipulation  |
\*---------------------------------------------------------------------------*/
FoamFile
{
    version     2.0;
    format      ascii;
    class       surfaceScalarField;
    location    "3500";
    object      phi;
}
// * * * * * * * * * * * * * * * * * * * * * * * * * * * * * * * * * * * * * //

dimensions      [1 0 -1 0 0 0 0];

internalField   nonuniform List<scalar> 
1482
(
-0.00278638
0.00285179
-0.0034325
0.000646116
-0.00206532
0.00509159
-0.00411516
0.000682666
-0.00294689
0.00152769
-0.00151841
0.00687443
-0.00476107
0.000645907
-0.00378088
0.00151666
-0.00240949
0.00241878
-0.00113144
0.00834515
-0.00532152
0.000560458
-0.0044819
0.00134693
-0.00322333
0.00233049
-0.00196957
0.00325691
-0.000823434
0.00957061
-0.00577706
0.000455535
-0.00507192
0.00115048
-0.00384989
0.00197349
-0.00263565
0.00299657
-0.00161207
0.00404555
-0.000587982
0.010614
-0.00611435
0.000337294
-0.00555481
0.000938425
-0.00436128
0.00166187
-0.00311985
0.0024577
-0.00208123
0.00346572
-0.00134763
0.0048052
-0.000546799
0.0116616
-0.00631894
0.000204584
-0.0059271
0.000709585
-0.00477131
0.00134845
-0.00351073
0.00205274
-0.00240194
0.00277841
-0.00158712
0.00370521
-0.00126025
0.00551865
-0.000524585
0.0127294
-0.0063724
5.34625e-05
-0.00618091
0.00045839
-0.00508242
0.0010207
-0.00382061
0.00165833
-0.00265358
0.00230438
-0.00174562
0.00293691
-0.00117275
0.00361771
-0.00109862
0.00609269
0.00291769
0.0104061
-0.00624825
-0.000124151
-0.00630534
0.000177892
-0.00529284
0.000668808
-0.00405397
0.00125406
-0.00284453
0.00184927
-0.00185613
0.0024149
-0.0011682
0.00293236
-0.000689091
0.00320818
0.00193865
0.00707172
0.00407493
0.00647336
-0.00591245
-0.000335796
-0.00629246
-0.000137038
-0.00539845
0.000283501
-0.00421184
0.000826672
-0.00298025
0.00138979
-0.00192345
0.0019166
-0.0011513
0.00239799
-0.000602734
0.002846
0.000810574
0.00433626
0.00366963
0.00747703
0.00248638
0.00415312
-0.00532674
-0.000585715
-0.0061389
-0.000489355
-0.00539364
-0.000141846
-0.00429071
0.000362379
-0.00306436
0.000910773
-0.00195319
0.00141952
-0.00111096
0.00187626
-0.000515966
0.00231122
0.000359057
0.00329752
0.00251134
0.00549455
0.00336623
0.00659717
0.00154146
0.00280722
-0.00440259
-0.000924152
-0.00582849
-0.000896126
-0.00526897
-0.000614032
-0.00428204
-0.000150523
-0.00309614
0.000394159
-0.00195068
0.000908264
-0.00104862
0.00135719
-0.000402399
0.00176269
0.000239039
0.00243124
0.00186784
0.00394102
0.00328
0.00558078
0.00285012
0.00528851
0.00224342
0.000791143
-0.0028414
-0.00156119
-0.00534379
-0.00140885
-0.00501472
-0.00115038
-0.00417727
-0.000718797
-0.00306711
-0.000179548
-0.00191932
0.000362802
-0.000968187
0.000827827
-0.000273782
0.00122857
0.000316267
0.00168546
0.00152778
0.00277129
0.00305795
0.00416306
0.00352005
0.00491084
0.00306514
0.00446678
-0.00154281
0.0025812
-0.00283819
-0.00486594
-0.00203904
-0.00465726
-0.00176632
-0.00397556
-0.00135209
-0.0029707
-0.000815212
-0.00184907
-0.000249798
-0.000870406
0.000265022
-0.000134896
0.000688941
0.000472047
0.00107279
0.00139712
0.00181612
0.00286341
0.00296583
0.0037946
0.00388852
0.00372102
0.00425496
0.00119604
0.00172793
0.00284555
-0.00538468
-0.00231945
-0.0043219
-0.00237439
-0.00369729
-0.00204459
-0.00280483
-0.00151796
-0.00173844
-0.000925846
-0.000735554
-0.00038465
3.86085e-05
9.15171e-05
0.000667839
0.000493149
0.001437
0.00103291
0.00273861
0.00194092
0.00388638
0.00287404
0.00428961
0.00331993
0.00346476
0.00198624
0.0045588
-0.00361776
-0.00176091
-0.0039423
-0.00269905
-0.00336647
-0.00270521
-0.00256768
-0.00228174
-0.00157951
-0.00167688
-0.000580587
-0.00108081
0.000243861
-0.000589902
0.000903462
-0.000144106
0.00160866
0.000321484
0.00272507
0.00104645
0.00391035
0.00191695
0.00461645
0.00254719
0.00449265
0.00229203
0.00490471
0.00164033
-0.00185929
-0.00175227
-0.00294173
-0.00276147
-0.00288304
-0.00318248
-0.00224402
-0.00302886
-0.00136024
-0.00250101
-0.000391878
-0.00186559
0.00046321
-0.00130016
0.00115252
-0.00083896
0.00185207
-0.000387507
0.00281828
0.000228276
0.00394605
0.00101075
0.00478985
0.00174355
0.00501039
0.00202946
0.00546987
0.00172687
0.00829207
0.00501648
-0.0018434
-0.00169138
-0.00300263
-0.00217707
-0.00346744
-0.00179672
-0.00362977
-0.00106484
-0.00332426
-0.000161009
-0.00273188
0.000703183
-0.00210556
0.00142475
-0.0015724
0.00211598
-0.00110288
0.00298025
-0.000549486
0.00401722
0.0001571
0.00490547
0.000895124
0.00533169
0.00142224
0.00575632
0.00174301
0.00621297
0.00380595
0.00340151
0.00177331
-0.00352072
-0.00151626
-0.00366344
-0.00125543
-0.00400873
-0.000691833
-0.00400277
0.000106695
-0.00359196
0.000955327
-0.00298402
0.00170477
-0.00238558
0.00240023
-0.00185664
0.00319007
-0.0013127
0.0041276
-0.000659869
0.00500864
5.3936e-05
0.00556414
0.000662674
0.00602085
0.00115771
0.0060109
0.00194508
0.00412389
0.00308357
-0.00405779
0.00807367
-0.00224253
-0.00158203
-0.00345495
-0.000763609
-0.00415525
-0.000279864
-0.0044207
0.000396241
-0.00429232
0.00119477
-0.00383141
0.00196719
-0.00324645
0.00268314
-0.00266849
0.0034313
-0.00209787
0.00428162
-0.00146672
0.00512729
-0.000778521
0.00576197
-0.000143882
0.00626869
0.00041484
0.00620288
0.000965763
0.00372188
0.0023471
-0.00196659
0.000992409
0.00239356
-0.00730733
-0.00722535
0.00826767
-0.00328476
0.000809762
-0.00237528
-0.000272904
-0.00394565
0.00011338
-0.00454849
0.000685726
-0.00471018
0.00140519
-0.00450274
0.00217931
-0.00404354
0.00292301
-0.00348632
0.00366289
-0.00290009
0.00445508
-0.00227134
0.00525734
-0.00159676
0.00593008
-0.000946611
0.00646468
-0.000339838
0.00633079
0.00028698
0.00339945
0.00128824
-0.00111468
0.00149524
-0.00590898
-0.000323896
-0.00661018
0.00739341
-0.006433
-0.00777615
0.00455355
0.00240669
0.000970065
-0.00256699
0.000709135
-0.00335731
0.000519799
-0.00435207
0.000950658
-0.00481342
0.00158121
-0.0048862
0.00231818
-0.00464162
0.00307464
-0.00419518
0.00382283
-0.00364627
0.00458597
-0.00303099
0.00534779
-0.00236178
0.00601601
-0.00168267
0.00651418
-0.000996046
0.00623804
-0.00024701
0.00308026
0.000606253
-0.000976787
0.00115039
-0.00496514
0.000551458
-0.00804107
0.00126505
-0.0018174
0.00157344
0.00084838
0.00174232
0.00142141
-0.00219367
0.00117359
-0.00303145
0.00104595
-0.00388346
0.0012076
-0.004609
0.00171405
-0.00494625
0.00237766
-0.00494568
0.00311026
-0.00467726
0.00385563
-0.00422799
0.00459902
-0.00365933
0.0053198
-0.00300299
0.00594201
-0.00228775
0.00633247
-0.0015009
0.0058453
-0.000603248
0.00265924
0.000174068
-0.00109343
0.000722918
-0.00443759
0.000622867
-0.0074349
0.000587919
0.000995955
0.00117471
0.00141599
0.00125648
0.00183834
-0.00167341
0.00154672
-0.00256679
0.00141851
-0.003404
0.00148743
-0.0041633
0.00181291
-0.00470787
0.00236326
-0.00493185
0.00302784
-0.00486327
0.00373612
-0.00455776
0.00444304
-0.00407202
0.00510785
-0.00344738
0.0056472
-0.00270818
0.00587973
-0.00183496
0.00516859
-0.000824148
0.0021399
-8.38912e-05
-0.00129234
0.000372984
-0.00419417
0.0004795
-0.00676412
0.000592146
0.000666681
0.00150399
0.000861346
0.00181112
0.000842934
0.00218124
-0.00118583
0.00189395
-0.00202065
0.00170428
-0.00285255
0.00169823
-0.00361479
0.00189194
-0.00424232
0.00229166
-0.00463626
0.0028456
-0.00474961
0.00347334
-0.00460051
0.00411029
-0.00422503
0.00469175
-0.00365595
0.00511719
-0.00291737
0.00517607
-0.00200451
0.00428638
-0.000952744
0.0015402
-0.000224461
-0.00152896
0.000152739
-0.00413336
0.000312145
-0.0062425
0.00125883
0.000502375
0.00186296
0.000580341
0.00207371
0.000426976
0.00250119
-0.00074692
0.00219804
-0.00148992
0.00194835
-0.00226473
0.00185058
-0.00300491
0.00192772
-0.00365057
0.00218198
-0.00413264
0.0025925
-0.00438317
0.00310026
-0.00437654
0.00363001
-0.00412025
0.00409942
-0.00363271
0.0043896
-0.00292837
0.00428309
-0.00202438
0.00329514
-0.00101326
0.000877238
-0.000289805
-0.00181008
5.66561e-05
-0.00417239
0.000191717
-0.00589212
0.0017612
0.000331265
0.00211203
0.000340085
0.0021606
0.00289011
-0.000389075
0.00246908
-0.00101796
0.00215778
-0.00169934
0.00196639
-0.00238053
0.00192627
-0.00300345
0.00204117
-0.00350975
0.00229885
-0.00383899
0.002659
-0.00394191
0.00305207
-0.00379861
0.003386
-0.00340685
0.00353413
-0.00277726
0.00328377
-0.00192906
0.00226396
-0.000993208
0.000157891
-0.000293941
-0.00214055
4.06417e-05
-0.00424662
0.000130806
-0.00566445
0.00209247
0.0001964
0.00225572
0.000112404
0.00204835
0.00310746
-0.00021751
0.00272201
-0.000642004
0.00233642
-0.00119661
0.00205749
-0.00179045
0.00190328
-0.00235754
0.00188255
-0.00284483
0.00198814
-0.00319903
0.00219058
-0.00337057
0.00242963
-0.00331948
0.00261597
-0.0030286
0.00262148
-0.00249421
0.00226081
-0.00175431
0.00124657
-0.000911688
-0.000576849
-0.000258484
-0.00249495
6.04323e-05
-0.00431723
0.000111169
-0.00549879
0.00228887
8.89607e-05
0.00227916
4.2545e-05
0.00200596
0.00320574
-9.84339e-05
0.00287121
-0.000366709
0.00247548
-0.000781064
0.00212948
-0.0012686
0.00187221
-0.00175938
0.00172299
-0.00219798
0.00168249
-0.00253918
0.00172836
-0.00273681
0.00181135
-0.00275229
0.00184666
-0.00255017
0.00172082
-0.00212795
0.00126805
-0.00150147
0.000282261
-0.000790011
-0.00126107
-0.000227497
-0.00283681
8.33334e-05
-0.00436555
0.000108667
-0.00535306
0.00237783
3.31926e-05
0.00228851
1.76945e-05
0.00198842
0.00320915
-3.56457e-06
0.00293371
-0.00016094
0.00255932
-0.000450548
0.00217944
-0.000831026
0.00184145
-0.00123783
0.00157814
-0.00161453
0.00140202
-0.00191751
0.00130213
-0.00211295
0.0012346
-0.00216007
0.00113175
-0.00203738
0.000883442
-0.0017128
0.000359673
-0.00121957
-0.000563633
-0.000655575
-0.00184297
-0.000208134
-0.00314604
8.16913e-05
-0.00438622
0.000103923
-0.00520951
0.00241102
1.09002e-05
0.00229531
4.7931e-06
0.00198378
0.00312893
8.00658e-05
0.00292344
6.71022e-06
0.00258729
-0.000188907
0.00220359
-0.000474693
0.00181315
-0.000802732
0.00145833
-0.00111801
0.00116522
-0.00137773
0.000933916
-0.00154929
0.000737733
-0.00161608
0.000508406
-0.00153672
0.000162817
-0.00131675
-0.000392087
-0.000961041
-0.001219
-0.000564211
-0.00228462
-0.000213942
-0.00339964
4.54319e-05
-0.0043883
8.37255e-05
-0.00507
0.00242192
1.06627e-07
0.00229999
-4.60808e-06
0.00198855
0.00296717
0.00016161
0.00284777
0.000155738
0.00256519
2.88075e-05
0.00219881
-0.000184132
0.00178517
-0.00044671
0.00136721
-0.000711617
0.000981931
-0.000934728
0.000645726
-0.00108954
0.000341041
-0.0011526
2.144e-05
-0.00112911
-0.000379153
-0.000994747
-0.00092698
-0.000781858
-0.00166376
-0.00051628
-0.00259265
-0.000256177
-0.0035812
-3.23727e-05
-0.00438493
4.20598e-05
-0.00494982
0.00242203
-7.2755e-06
0.00230266
-1.38646e-05
0.00200256
0.00271673
0.000250281
0.00271038
0.000299
0.00249849
0.000222435
0.0021656
6.20223e-05
0.00175301
-0.000151975
0.0013016
-0.000381095
0.000853724
-0.00058341
0.000440871
-0.000729873
6.40656e-05
-0.000812564
-0.000307277
-0.000823879
-0.000724777
-0.000783486
-0.00125019
-0.000671522
-0.00194079
-0.000504804
-0.00278878
-0.000320113
-0.00369011
-0.000147222
-0.00439307
-2.41862e-05
-0.00487055
0.00241475
-1.44846e-05
0.00230328
-2.90635e-05
0.00203178
0.00235458
0.000362003
0.00251093
0.000449733
0.00239182
0.000405674
0.00210733
0.000280698
0.00171391
0.00010113
0.00125413
-0.000104508
0.000772844
-0.000300216
0.000311901
-0.00045444
-0.000107543
-0.000558264
-0.000500975
-0.000618863
-0.000917454
-0.000631194
-0.00143695
-0.000596707
-0.00210466
-0.000507609
-0.00291056
-0.000382968
-0.00375518
-0.00025495
-0.00441788
-0.000122307
-0.0048571
0.00240027
-2.6368e-05
0.00230059
-6.44648e-05
0.0020964
0.00182136
0.000533066
0.00224799
0.00062494
0.00225021
0.000591347
0.00202856
0.000484448
0.00166816
0.000326441
0.00121881
0.000136449
0.00072729
-5.89546e-05
0.000241321
-0.000229636
-0.000202806
-0.000359176
-0.00060868
-0.000450557
-0.00102968
-0.000506626
-0.00154246
-0.000525661
-0.00220309
-0.00049823
-0.0029927
-0.00042538
-0.00380312
-0.000334906
-0.00446547
-0.00020721
-0.00494173
0.0023739
-5.26972e-05
0.00228882
-0.000177549
0.0022741
-0.000854746
0.00166757
0.00100853
0.00193175
0.000849302
0.00208189
0.000793256
0.00193533
0.000684574
0.00161746
0.000535149
0.00119175
0.000353501
0.000706829
0.00015691
0.000211959
-2.95925e-05
-0.000249027
-0.000183415
-0.000668884
-0.000298971
-0.00109565
-0.000384589
-0.00160614
-0.000442933
-0.0022656
-0.000463107
-0.00305484
-0.000436001
-0.00384937
-0.000379
-0.00453629
-0.000263921
-0.00511155
0.0023212
-0.000114272
0.00222554
-0.000492713
0.00191207
-0.0012843
0.00132216
0.00162971
0.00170567
0.00123462
0.00190303
0.00102816
0.00183705
0.000891542
0.00156529
0.000736747
0.00117013
0.000556774
0.000702904
0.000357425
0.000210772
0.000158097
-0.000261957
-1.66626e-05
-0.000698513
-0.000153787
-0.00113462
-0.000259999
-0.00164589
-0.00034483
-0.00230747
-0.000401039
-0.00310522
-0.000412668
-0.00389928
-0.000385974
-0.00462562
-0.000289528
-0.00533863
0.00220693
-0.000234575
0.0019674
-0.000830222
0.00145799
-0.00173226
0.000780201
0.00227422
0.00154599
0.00178939
0.00179244
0.00134521
0.00174958
0.00111563
0.0015182
0.000938625
0.00115349
0.000753388
0.000709034
0.000550643
0.000227775
0.000340422
-0.00025055
0.000146689
-0.000703694
-1.14822e-05
-0.00115386
-0.000134546
-0.00166963
-0.000236271
-0.00233508
-0.000317226
-0.0031465
-0.000359738
-0.0039529
-0.000359004
-0.0047248
-0.000286698
-0.00559205
0.00197236
-0.000385057
0.00152224
-0.00110077
0.000826506
-0.00288634
0.00370215
0.00135777
0.00246243
0.0018315
0.00175033
0.00171703
0.00137776
0.0014874
0.00114643
0.00114447
0.000947636
0.000721751
0.000740671
0.000256204
0.000522214
-0.000220961
0.000310833
-0.000687159
0.000130153
-0.00115422
-1.11277e-05
-0.00167964
-0.000124547
-0.00235121
-0.000220177
-0.00317861
-0.000285153
-0.0040083
-0.000304356
-0.00482336
-0.000260441
-0.0058434
0.0015873
-0.000514488
0.000935956
-0.00203283
0.00236943
0.0026905
0.00202742
0.00226652
0.00178441
0.00168294
0.00149621
0.00136896
0.00114921
0.00114169
0.00074007
0.000929317
0.000291387
0.000705487
-0.000177836
0.000479089
-0.000650916
0.00027459
-0.00113424
0.000110167
-0.00167476
-1.60188e-05
-0.00235668
-0.000119122
-0.00320049
-0.000198388
-0.00406302
-0.000230541
-0.00491138
-0.000216432
-0.00606919
0.00107281
-0.00107942
0.00132939
0.00107647
0.00226105
0.00245687
0.00197098
0.00207996
0.00157141
0.00160775
0.00118015
0.00133802
0.000764743
0.00111702
0.000329379
0.000891324
-0.000126154
0.000653805
-0.000597688
0.000425861
-0.00109262
0.000232969
-0.00165162
8.70182e-05
-0.00235064
-2.20986e-05
-0.00321113
-0.000108592
-0.00411385
-0.00014773
-0.00498156
-0.000160551
-0.00625152
0.0019026
-0.000543119
0.00174641
0.00159111
0.00220051
0.00222734
0.00175768
0.00189369
0.00125292
0.00153497
0.000798364
0.0013044
0.000366006
0.00108039
-7.24901e-05
0.00083766
-0.000532482
0.000588598
-0.00102991
0.000363155
-0.00160635
0.000187691
-0.00233005
6.64059e-05
-0.0032105
-2.28308e-05
-0.00415591
-6.67403e-05
-0.00503005
-9.94963e-05
-0.00637831
0.00202493
0.000801604
0.000401685
0.00220069
0.00159094
0.00200848
0.00197653
0.00139996
0.00174665
0.000839471
0.00149386
0.00039689
0.00127351
-2.64152e-05
0.00103432
-0.000463871
0.000769049
-0.000949802
0.000508484
-0.00153682
0.000293629
-0.00229027
0.000147904
-0.00319924
5.50838e-05
-0.00418059
1.66829e-06
-0.00505578
-4.12938e-05
-0.00644423
0.00292636
0.00165601
0.000946362
0.0021006
0.00149883
0.00158674
0.00178975
0.00086104
0.00172508
0.000414084
0.00147667
-1.96571e-06
0.00124907
-0.000406303
0.000976749
-0.000860101
0.000679346
-0.00144365
0.000415313
-0.00222687
0.000230232
-0.00317366
0.000122318
-0.00417943
5.38006e-05
-0.00505981
5.45453e-06
-0.00645203
0.00468783
0.00166176
0.00138522
0.00166079
0.00142477
0.000584067
0.0020667
0.000362288
0.00177687
-2.47182e-05
0.00149943
-0.00038584
0.00122861
-0.000774284
0.000890928
-0.00133024
0.000565925
-0.00213543
0.0003239
-0.00312776
0.000184381
-0.00415517
9.80327e-05
-0.00503513
2.89339e-05
-0.00641313
0.0067256
0.000294872
0.00275117
-0.00065708
0.00266576
4.99007e-05
0.00237888
-0.000173495
0.00192563
-0.000452252
0.00156588
-0.000714472
0.0011688
-0.00120215
0.000762816
-0.00201039
0.000440886
-0.00305281
0.000249029
-0.00410956
0.00013884
-0.00498177
4.45983e-05
-0.00635086
0.00741561
-0.00194883
0.00404295
-0.00039962
0.00311487
-0.000546505
0.00275169
-0.000674889
0.00214843
-0.000714681
0.00156614
-0.00106432
0.00103092
-0.00184346
0.000595832
-0.00293563
0.00032378
-0.00404029
0.000179915
-0.0049025
5.95955e-05
-0.00627315
0.00557342
-0.00060402
0.0042471
-0.000902046
0.00347001
-0.00115769
0.00323468
-0.000776734
0.00221075
-0.000910069
0.00141186
-0.00162089
0.00080821
-0.00275745
0.000417658
-0.00394022
0.000223907
-0.00479695
7.44956e-05
-0.00618088
0.00508766
-0.000873041
0.00421773
-0.00205773
0.00437004
-0.000834708
0.00329316
-0.000682681
0.00198348
-0.00131246
0.00110323
-0.00249263
0.000543258
-0.00379691
0.000274535
-0.00465997
8.71474e-05
-0.00607436
0.00434626
-0.00223222
0.00439211
-0.00121737
0.00475315
-0.000238374
0.00284927
-0.000841127
0.00151196
-0.0021037
0.00071403
-0.00359107
0.000337522
-0.00447993
9.47532e-05
-0.00595606
0.00226026
-0.00143574
0.00461094
0.000388553
0.00412664
-8.1249e-05
0.00208938
-0.00152715
0.000935019
-0.00328711
0.000410027
-0.00423795
9.58071e-05
-0.00583124
0.000984029
0.000869304
0.00413069
0.000993387
0.00305222
-0.000633486
0.00119531
-0.00281653
0.000464208
-0.00390908
8.13926e-05
-0.0057066
0.00201801
0.00153599
0.00358839
0.000808179
0.00161036
-0.0021553
0.000533654
-0.00344448
-2.23455e-07
-0.00559775
0.00372775
0.00156264
0.00283384
-0.00159346
0.00104799
-0.00265197
-0.000258739
-0.00557204
0.00547212
-0.00103621
0.00227608
-0.00113596
-0.000468
-0.00580657
0.00463395
-0.000162273
0.00130217
-0.00625219
0.00468273
-0.00492944
)
;

boundaryField
{
    floor
    {
        type            calculated;
        value           nonuniform List<scalar> 
36
(
0
0
0
0
0
0
0
0
0
0
0
0
0
0
0
0
0
0
0
-6.6031e-06
-1.74627e-05
-2.70004e-05
-3.56093e-05
-3.64306e-05
-3.00971e-05
-3.00293e-05
-3.21461e-06
-6.01519e-06
-6.19445e-06
-6.32946e-06
-4.22717e-06
-9.57097e-06
-1.04376e-05
-1.4057e-05
-1.51335e-05
-1.65111e-05
)
;
    }
    ceiling
    {
        type            calculated;
        value           nonuniform List<scalar> 
43
(
-5.41517e-05
-6.19793e-05
-6.20643e-05
-5.88906e-05
-5.4643e-05
-4.78766e-05
-4.21258e-05
-3.827e-05
-3.60382e-05
-3.49533e-05
-3.46699e-05
-3.49731e-05
-3.56607e-05
-3.64853e-05
-3.71897e-05
-3.75772e-05
-3.75568e-05
-3.72428e-05
-3.66959e-05
-3.60126e-05
-3.53134e-05
-3.47061e-05
-3.42543e-05
-3.39678e-05
-3.38139e-05
-3.37329e-05
-3.36509e-05
-3.34869e-05
-3.31731e-05
-3.26576e-05
-3.19203e-05
-3.09662e-05
-2.98178e-05
-2.85072e-05
-2.70686e-05
-2.55301e-05
-2.38767e-05
-2.21468e-05
-2.05228e-05
-2.01143e-05
1.86839e-05
1.46799e-05
-0.00015834
)
;
    }
    sWall
    {
        type            calculated;
        value           nonuniform List<scalar> 9(-0.000142214 -0.00016614 -0.000195557 -0.000227343 -0.000247238 -0.000283037 -0.000459267 -0.000481761 -0.000498182);
    }
    nWall
    {
        type            calculated;
        value           nonuniform List<scalar> 
14
(
-9.22947e-05
-9.98182e-05
-0.000105447
-0.000106566
-0.000118221
-0.000131668
-0.000146261
-0.00015909
-0.000164274
-0.000173571
-0.000181862
-0.000198269
-0.00021143
-0.000226845
)
;
    }
    sideWalls
    {
        type            empty;
        value           nonuniform 0();
    }
    glass1
    {
        type            calculated;
        value           nonuniform List<scalar> 9(-6.5416e-05 -0.000174482 -0.000264427 -0.00033928 -0.000402025 -0.000455367 -0.000500881 -0.000543151 -0.000594393);
    }
    glass2
    {
        type            calculated;
        value           nonuniform List<scalar> 2(-0.000376008 -0.000395045);
    }
    sun
    {
        type            calculated;
        value           uniform 0;
    }
    Table_master
    {
        type            calculated;
        value           nonuniform List<scalar> 9(-1.54153e-07 -1.54274e-07 -1.54304e-07 -1.54322e-07 -1.54332e-07 -1.54335e-07 -1.54331e-07 -1.54314e-07 -1.54256e-07);
    }
    Table_slave
    {
        type            calculated;
        value           nonuniform List<scalar> 9(1.53828e-07 1.53866e-07 1.53853e-07 1.53868e-07 1.53883e-07 1.53924e-07 1.5399e-07 1.54086e-07 1.54219e-07);
    }
    inlet
    {
        type            calculated;
        value           uniform -0.0116682;
    }
    outlet
    {
        type            calculated;
        value           nonuniform List<scalar> 2(0.00946304 0.0129875);
    }
}


// ************************************************************************* //
