/*--------------------------------*- C++ -*----------------------------------*\
  =========                 |
  \\      /  F ield         | OpenFOAM: The Open Source CFD Toolbox
   \\    /   O peration     | Website:  https://openfoam.org
    \\  /    A nd           | Version:  6
     \\/     M anipulation  |
\*---------------------------------------------------------------------------*/
FoamFile
{
    version     2.0;
    format      ascii;
    class       surfaceScalarField;
    location    "3500";
    object      phi;
}
// * * * * * * * * * * * * * * * * * * * * * * * * * * * * * * * * * * * * * //

dimensions      [1 0 -1 0 0 0 0];

internalField   nonuniform List<scalar> 
1482
(
-0.00279982
0.00286386
-0.00348418
0.000684358
-0.00414509
0.000660912
-0.00475945
0.000614355
-0.00528112
0.000521671
-0.00569333
0.000412206
-0.0059848
0.000291476
-0.00614245
0.00015765
-0.00614891
6.45974e-06
-0.00597819
-0.000170724
-0.00560032
-0.00037787
-0.00498427
-0.000616048
-0.00405986
-0.00092441
-0.00258075
-0.00147911
-0.00257783
-6.52875e-05
7.01406e-05
0.000777615
-0.000842902
0.00142953
-0.000651918
0.00182842
-0.000398892
0.00204966
-0.000221238
0.00215395
-0.000104291
0.0022013
-4.7344e-05
0.00222405
-2.27527e-05
0.00223368
-9.63441e-06
0.00223446
-7.78662e-07
0.00222733
7.13246e-06
0.00220832
1.90128e-05
0.00216413
4.41879e-05
0.00206161
0.000102522
0.00184547
0.000216143
0.00148898
0.000356484
0.00101903
0.00046995
0.00102547
-0.00204044
0.00507462
-0.00290869
0.00155261
-0.00369473
0.00144695
-0.00434602
0.00126565
-0.00488358
0.00105923
-0.00531266
0.000841289
-0.00563145
0.000610265
-0.00583311
0.000359306
-0.00590693
8.02758e-05
-0.00584505
-0.000232605
-0.00564167
-0.000581251
-0.00528549
-0.000972226
-0.00477535
-0.00143455
-0.00428931
-0.00196515
-0.00470532
-0.00216182
-0.00311831
-0.00158157
-0.00163417
-0.00147845
-0.00161932
0.00131714
-0.00123679
0.00166026
-0.00118602
0.00191073
-0.000902389
0.00210078
-0.000588943
0.00220714
-0.000327596
0.00221587
-0.000113017
0.00221796
-4.94343e-05
0.00221967
-2.44594e-05
0.00222066
-1.06302e-05
0.00222065
-7.65371e-07
0.00221924
8.54127e-06
0.002215
2.32498e-05
0.00220236
5.68338e-05
0.00214047
0.000164404
0.00189111
0.000465507
0.0014625
0.000785097
0.00090059
0.00103186
0.00194295
-0.00148833
0.00682087
-0.00235935
0.00242363
-0.00312951
0.00221711
-0.00371396
0.0018501
-0.00418488
0.00153015
-0.0045566
0.001213
-0.00483089
0.000884553
-0.00500448
0.000532904
-0.00507096
0.000146752
-0.00502123
-0.000282336
-0.00484456
-0.000757922
-0.00453355
-0.00128323
-0.00411909
-0.00184902
-0.00372189
-0.00236234
-0.00330182
-0.0025819
-0.00237052
-0.00251286
-0.00127624
-0.00257273
-0.00288274
0.00114874
-0.00237107
0.00165148
-0.00168876
0.00194902
-0.00119994
0.00214066
-0.000780583
0.00216853
-0.000355467
0.00205567
0.00200639
0.00198209
0.00197161
0.001971
0.0019797
0.0020031
0.00206009
0.00222465
0.0018661
0.000824058
0.00141878
0.00123241
0.00080096
0.00164968
0.00276994
-0.00110614
0.00825822
-0.00192817
0.00324566
-0.00257039
0.00285932
-0.00303092
0.00231063
-0.00339866
0.00189789
-0.00368766
0.001502
-0.0039009
0.00109779
-0.00403652
0.000668529
-0.00408699
0.000197222
-0.00403911
-0.000330223
-0.0038806
-0.000916432
-0.00360742
-0.0015564
-0.00324228
-0.00221417
-0.00282103
-0.00278359
-0.00228236
-0.00312056
-0.00156339
-0.00323184
-0.000875831
-0.00326029
-0.000697679
-0.00306089
0.00143863
-0.00212087
0.00137256
-0.002305
0.00168874
-0.00200495
0.00200147
-0.00151266
0.00226784
-0.00104695
0.00254483
-0.000632456
0.00285732
-0.000312649
0.00302368
-0.000166519
0.00308793
-6.43978e-05
0.00307053
1.72486e-05
0.00298024
9.01321e-05
0.00281807
0.00016202
0.0025762
0.000241717
0.00223172
0.000344323
0.00172747
0.0005041
0.00159136
0.000960166
0.00126425
0.00155952
0.000739
0.00217492
0.00354325
-0.000803841
0.00945526
-0.00158011
0.00402193
-0.00204894
0.00332816
-0.00236483
0.00262651
-0.00260937
0.00214244
-0.00279507
0.0016877
-0.00292694
0.00122966
-0.00300569
0.000747277
-0.00302476
0.000216288
-0.00296751
-0.000387469
-0.00282074
-0.00106321
-0.00257759
-0.00179955
-0.00224473
-0.00254702
-0.00182935
-0.00319898
-0.00132502
-0.00362489
-0.000749355
-0.0038075
-0.000218818
-0.00379082
0.000258323
-0.00353803
0.00111971
-0.00298225
0.00148618
-0.00267147
0.00174566
-0.00226443
0.00199842
-0.00176542
0.00222846
-0.001277
0.00244276
-0.000846762
0.00264333
-0.000513215
0.00275286
-0.000276047
0.00278869
-0.000100236
0.00276257
4.33684e-05
0.00268094
0.000171764
0.00254633
0.000296637
0.00235755
0.000430491
0.00211223
0.000589643
0.00181835
0.000797986
0.00161278
0.00116574
0.00147108
0.00170121
0.00129096
0.00235505
0.00227335
0.00256086
0.00131624
0.000992046
0.00188848
-0.00054351
0.00200756
-0.000575896
0.0104776
-0.00132491
0.00477095
-0.00158473
0.00358798
-0.00175084
0.00279262
-0.00186502
0.00225662
-0.0019367
0.00175939
-0.00197234
0.0012653
-0.00197622
0.000751157
-0.00194516
0.000185229
-0.00185742
-0.000475209
-0.00170327
-0.00121736
-0.00147289
-0.00202993
-0.00116925
-0.00285065
-0.000798211
-0.00357002
-0.000379505
-0.00404359
6.00712e-05
-0.00424707
0.000464948
-0.0041957
0.000839285
-0.00391236
0.00129061
-0.00343358
0.0015899
-0.00297075
0.0017937
-0.00246823
0.0019655
-0.00193722
0.00211734
-0.00142883
0.00225182
-0.000981243
0.00235637
-0.000617769
0.00241414
-0.000333813
0.0024249
-0.000110998
0.00239392
7.43496e-05
0.00232604
0.000239641
0.00222512
0.000397557
0.00209524
0.000560379
0.0019434
0.000741481
0.00178392
0.000957459
0.00169265
0.00125701
0.00174797
0.00164589
0.00195522
0.0021478
0.00219172
0.00232436
0.00170234
0.00148143
0.000787657
0.000371171
0.00289291
-0.000543391
0.0115132
-0.00124369
0.00547124
-0.00119225
0.00353654
-0.00120087
0.00280124
-0.00119347
0.00224922
-0.00116026
0.00172617
-0.00110338
0.00120842
-0.00102853
0.000676307
-0.000930316
8.70175e-05
-0.000781562
-0.000623963
-0.000592673
-0.00140625
-0.00035326
-0.00226934
-7.04554e-05
-0.00313346
0.000233377
-0.00387385
0.000542541
-0.00435275
0.000837137
-0.00454167
0.00109981
-0.00445836
0.00133321
-0.00414576
0.00156536
-0.00366572
0.00172551
-0.00313091
0.0018259
-0.00256861
0.0018963
-0.00200761
0.0019523
-0.00148483
0.00199901
-0.00102795
0.0020311
-0.000649862
0.00204289
-0.000345606
0.00203104
-9.91461e-05
0.00199635
0.000109044
0.00194195
0.000294037
0.00187169
0.000467818
0.0017908
0.000641268
0.00170781
0.000824477
0.00163759
0.00102767
0.00162291
0.0012717
0.00170737
0.00156143
0.00191089
0.00194428
0.00215224
0.00208301
0.00215899
0.00147468
0.00163151
0.00089865
0.00462752
-0.000483539
0.0125322
-0.00105162
0.00603933
-0.000697749
0.00318267
-0.000637226
0.00274072
-0.000569148
0.00218114
-0.000464777
0.0016218
-0.000336077
0.00107972
-0.000185219
0.000525449
3.81095e-06
-0.000102013
0.000221773
-0.000841925
0.000461106
-0.00164558
0.00071818
-0.00252642
0.000974333
-0.00338961
0.0012023
-0.00410182
0.00140105
-0.00455151
0.00156194
-0.00470255
0.00167972
-0.00457614
0.00175919
-0.00422523
0.00181277
-0.00371929
0.00182348
-0.00314162
0.00179942
-0.00254455
0.0017594
-0.00196759
0.00171819
-0.00144363
0.00168316
-0.000992927
0.00165423
-0.000620934
0.0016275
-0.00031887
0.0015982
-6.98467e-05
0.00156421
0.000143032
0.00152589
0.000332358
0.0014847
0.000509009
0.00144394
0.00068203
0.00140997
0.000858444
0.0013938
0.00104384
0.00141855
0.00124695
0.00151057
0.00146941
0.00171433
0.00174052
0.00197787
0.00181947
0.00207502
0.00137754
0.00164293
0.00133075
0.00663745
0.00297607
0.0101433
0.0020206
0.0069948
0.000867863
0.0043354
0.000369565
0.00323902
0.000212584
0.00233812
0.000268764
0.00156562
0.000422383
0.0009261
0.000635975
0.000311858
0.000894973
-0.000361011
0.0011594
-0.00110635
0.00143742
-0.00192361
0.00170388
-0.00279288
0.0019294
-0.00361514
0.00208982
-0.00426225
0.00217932
-0.00464101
0.00220065
-0.00472389
0.00216272
-0.00453821
0.00207923
-0.00414175
0.0019654
-0.00360547
0.00182679
-0.003003
0.00167542
-0.00239317
0.00152801
-0.00182018
0.00139903
-0.00131465
0.00129651
-0.000890406
0.00122156
-0.00054599
0.00116939
-0.000266704
0.00113286
-3.33088e-05
0.00110684
0.000169047
0.00108806
0.000351136
0.0010745
0.00052257
0.00106643
0.000690106
0.00106694
0.000857926
0.00108256
0.00102822
0.00112621
0.0012033
0.00121403
0.0013816
0.00137898
0.00157557
0.00158306
0.00161538
0.00165141
0.00130919
0.00030234
0.00267985
0.0073255
0.00403051
0.00625302
0.00366631
0.007359
0.0025409
0.00546081
0.00188776
0.00389215
0.00153117
0.0026947
0.00138623
0.00171056
0.00141984
0.000892492
0.00159392
0.000137774
0.00184554
-0.000612625
0.00212214
-0.00138295
0.00240126
-0.00220273
0.00264559
-0.00303721
0.00281353
-0.00378309
0.0028782
-0.00432692
0.0028364
-0.00459922
0.00270202
-0.00458952
0.00249746
-0.00433366
0.00224709
-0.00389137
0.00197368
-0.00333206
0.00169437
-0.00272369
0.00142624
-0.00212504
0.00118702
-0.00158096
0.000991217
-0.00111884
0.000844723
-0.000743913
0.000746247
-0.000447514
0.000686983
-0.000207441
0.000656168
-2.49376e-06
0.000645264
0.000179951
0.00064761
0.00034879
0.000658535
0.000511644
0.000675792
0.000672849
0.00069907
0.000834648
0.000729622
0.000997669
0.0007707
0.00116222
0.000821751
0.00133055
0.000854394
0.00154293
0.000575314
0.00189443
-0.000648959
0.00253329
-0.00191286
0.00394377
0.00551693
0.0024093
0.00400824
0.00330404
0.00646426
0.00324796
0.00551689
0.00303713
0.00410298
0.00284598
0.00288585
0.00272254
0.00183399
0.00270844
0.000906593
0.00279707
4.91436e-05
0.00295853
-0.000774095
0.0031686
-0.00159302
0.00338539
-0.00241952
0.00354889
-0.00320071
0.00360446
-0.00383867
0.00352556
-0.00424804
0.00331771
-0.00439138
0.00300712
-0.00427894
0.00262833
-0.00395487
0.00221486
-0.0034779
0.00179638
-0.00291358
0.00139669
-0.00232399
0.00103726
-0.00176561
0.000737429
-0.00128112
0.000510689
-0.000892102
0.000354777
-0.000588001
0.000260763
-0.000353499
0.000212337
-0.000159015
0.000196228
1.36148e-05
0.000202336
0.000173844
0.00022284
0.000328285
0.000252838
0.000481646
0.000288699
0.000636987
0.000326973
0.000796374
0.000363756
0.000960887
0.000395127
0.00113085
0.000413504
0.00131217
0.000350771
0.00160566
8.79329e-06
0.00223618
-0.000443624
0.00298533
-0.000633474
0.00413337
0.00499932
0.00145692
0.00274556
0.00274839
0.00517279
0.0034326
0.00483268
0.00371858
0.00381699
0.00381687
0.00278756
0.00384471
0.00180615
0.00388052
0.000870784
0.00394939
-1.97292e-05
0.00405912
-0.000883828
0.00419872
-0.00173261
0.00431668
-0.00253748
0.0043424
-0.00322644
0.0042245
-0.00372078
0.00395088
-0.00397444
0.00354412
-0.00398463
0.00304415
-0.00377898
0.00249514
-0.00340587
0.00193607
-0.00291884
0.0014013
-0.00237881
0.000918128
-0.00184081
0.000513315
-0.0013608
0.000204722
-0.000972532
-3.46829e-06
-0.000683911
-0.000128582
-0.000462886
-0.00019546
-0.000286622
-0.000224682
-0.000129793
-0.000227495
1.64282e-05
-0.000210697
0.000157045
-0.000178979
0.000296567
-0.00013613
0.000438796
-8.65943e-05
0.000587451
-3.67683e-05
0.000746547
3.43106e-06
0.000920687
1.84958e-05
0.00111579
-2.25889e-05
0.00135326
-0.000209952
0.00179302
-0.000630881
0.00265692
-0.00103632
0.0033904
-0.00100112
0.00409784
0.00412745
0.00217216
0.000799362
0.00294433
0.00440061
0.00359489
0.00418212
0.004165
0.00324689
0.00449253
0.00246002
0.00466658
0.00163209
0.00478317
0.000754196
0.00488772
-0.000124286
0.00499387
-0.000989968
0.00507141
-0.00181014
0.00505463
-0.00252069
0.0048835
-0.00305531
0.00453565
-0.00337294
0.00403006
-0.00346886
0.00341183
-0.00336642
0.0027321
-0.00309926
0.00204003
-0.00271381
0.00137424
-0.00225305
0.000774308
-0.00177888
0.000267857
-0.00133436
-0.000108878
-0.000984061
-0.000353553
-0.000727855
-0.000495991
-0.000541471
-0.000573556
-0.00038532
-0.00061466
-0.000245517
-0.000630817
-0.000113637
-0.000626945
1.25557e-05
-0.000605241
0.00013534
-0.000567164
0.00025849
-0.000515142
0.000386774
-0.000453931
0.000526239
-0.000392138
0.000684753
-0.000344965
0.000873513
-0.000341078
0.00111191
-0.000435482
0.00144771
-0.000696236
0.00205395
-0.00122266
0.00318356
-0.00219868
0.00436646
-0.0024224
0.00432148
0.00184892
-0.00157571
0.00262024
0.00112035
0.00170455
0.00335215
0.00195032
0.00435478
0.00224425
0.00485868
0.00195613
0.00517317
0.0013176
0.00540117
0.000526197
0.0055791
-0.000302204
0.00567826
-0.00108911
0.00563625
-0.00176811
0.00540208
-0.00228649
0.00496399
-0.00261721
0.00434981
-0.00275876
0.0036125
-0.00273156
0.00281261
-0.00256653
0.00200079
-0.00228746
0.00122674
-0.00193976
0.000522568
-0.00154888
-6.08738e-05
-0.00119544
-0.000481886
-0.000913349
-0.000740935
-0.000725007
-0.000887588
-0.000581194
-0.000970772
-0.000458281
-0.00101658
-0.000339505
-0.00104047
-0.000221625
-0.00104805
-0.000106068
-0.00104018
4.6826e-06
-0.00101556
0.00011072
-0.000972789
0.000215718
-0.000912342
0.000326326
-0.000837722
0.000451619
-0.000756764
0.000603793
-0.000683432
0.000800176
-0.000640513
0.00106899
-0.000660032
0.00146728
-0.000731446
0.00212562
-0.000765026
0.00321763
-0.00103493
0.00463679
-0.00117682
0.00446381
0.000829039
0.002882
0.00457136
0.00487215
0.00164952
0.00535895
0.00175746
0.00559545
0.00171962
0.00582669
0.00108638
0.00601397
0.000338928
0.00608047
-0.00036867
0.00595449
-0.000963071
0.00560228
-0.00141586
0.00503613
-0.00172032
0.00430272
-0.0018838
0.00346008
-0.00191611
0.00256711
-0.0018386
0.00167983
-0.00167925
0.000832529
-0.00144017
7.05175e-05
-0.00117775
-0.000543186
-0.000935183
-0.000966876
-0.000771747
-0.00122244
-0.000657778
-0.00137115
-0.000576278
-0.00145415
-0.000498174
-0.00150111
-0.00041131
-0.00152694
-0.000313666
-0.00153901
-0.000209565
-0.00153979
-0.000105294
-0.00152863
-6.49678e-06
-0.00150263
8.47172e-05
-0.00145828
0.00017136
-0.00139347
0.000261518
-0.00130871
0.000366852
-0.00120726
0.000502339
-0.00109437
0.000687263
-0.000973376
0.000947942
-0.000831988
0.00132584
-0.00060227
0.001896
-0.000138612
0.00275434
0.00051831
0.00398026
0.00102695
0.00395563
0.00201789
0.00793061
0.00536714
0.00581056
0.0038775
0.00556297
0.00196721
0.00563534
0.00101404
0.00560115
0.000373174
0.00535921
-0.000126664
0.00489721
-0.000501026
0.00425482
-0.000773446
0.00348519
-0.000950684
0.00264115
-0.00103976
0.00176367
-0.00103864
0.000890513
-0.000965443
5.88842e-05
-0.000847631
-0.000667046
-0.000714241
-0.00122559
-0.000619214
-0.00160535
-0.000555419
-0.00184758
-0.000529495
-0.00199076
-0.000514569
-0.00207655
-0.000490443
-0.00212922
-0.00044547
-0.00216175
-0.000378753
-0.00218055
-0.00029487
-0.00218904
-0.000201104
-0.00218882
-0.000105548
-0.00217987
-1.54953e-05
-0.00215994
6.4765e-05
-0.00212512
0.000136535
-0.00207112
0.000207525
-0.00199324
0.000288991
-0.00188499
0.000394092
-0.00173642
0.000538648
-0.00153131
0.0007427
-0.00123615
0.00103048
-0.000769814
0.00142947
-4.40079e-06
0.00198889
0.00106314
0.00291292
0.00157448
0.00344455
0.00376348
0.00408905
0.00152465
0.00449103
0.00347553
0.00372458
0.00273368
0.00322811
0.00151056
0.00288897
0.000712378
0.00252652
0.000235827
0.00208081
-5.52902e-05
0.00153958
-0.000232217
0.000921236
-0.000332359
0.000242888
-0.00036143
-0.000456738
-0.000339026
-0.00111643
-0.000305775
-0.00168079
-0.000283285
-0.00211362
-0.000281429
-0.00241959
-0.000313245
-0.00261489
-0.000360084
-0.00273919
-0.000405142
-0.0028229
-0.000430787
-0.00288459
-0.000428672
-0.00293237
-0.000397635
-0.00296943
-0.000341674
-0.00299677
-0.000267561
-0.00301457
-0.000183374
-0.003023
-9.72285e-05
-0.00302285
-1.57418e-05
-0.00301517
5.70278e-05
-0.00299701
0.00011836
-0.00296296
0.000173524
-0.00290427
0.000230392
-0.00280704
0.000296935
-0.00265097
0.000382588
-0.00240824
0.000499858
-0.00203915
0.000661135
-0.00147883
0.000868763
-0.000596634
0.00110629
0.000826343
0.00148974
0.00152646
0.00274432
0.00546878
-0.0026358
-0.00681068
-0.00743129
-0.00747942
-0.00375667
-0.00214993
-0.00168332
0.00140221
-0.000768995
0.0018194
-0.00056625
0.00130786
-0.000641199
0.000787358
-0.000822436
0.000417078
-0.00106024
0.00018252
-0.00134943
5.69629e-05
-0.00169405
1.22432e-05
-0.00207141
1.59028e-05
-0.00244702
3.65443e-05
-0.00279462
4.17861e-05
-0.00308892
1.09956e-05
-0.00330466
-6.56916e-05
-0.00344146
-0.000176408
-0.0035275
-0.000273965
-0.00359195
-0.000340582
-0.0036503
-0.00037231
-0.00370791
-0.000370961
-0.00376493
-0.000340571
-0.00381986
-0.000286754
-0.00387102
-0.000216494
-0.00391644
-0.000138111
-0.00395302
-6.08321e-05
-0.00397429
5.35484e-06
-0.00397399
5.66014e-05
-0.00395487
9.92097e-05
-0.00391876
0.000137472
-0.00386359
0.000175376
-0.00378274
0.000216271
-0.00366452
0.000264553
-0.00349069
0.000326143
-0.00322772
0.000398148
-0.00281427
0.000455114
-0.00225076
0.000542406
-0.00184601
0.00108451
-0.00133453
0.00223237
0.00432919
-0.00738201
0.00102504
-0.00814781
-0.00671357
-0.00719337
-0.00310431
-0.00566888
-0.000122217
-0.00457607
0.000726634
-0.00398497
0.000716797
-0.00372613
0.00052852
-0.00365918
0.000350117
-0.00370031
0.000223617
-0.0037936
0.000150195
-0.00389793
0.000116505
-0.00398622
0.00010412
-0.00404486
9.51287e-05
-0.00407768
7.45603e-05
-0.00410034
3.36536e-05
-0.00412928
-3.67158e-05
-0.00417518
-0.000130415
-0.00424047
-0.000208543
-0.00432453
-0.000256371
-0.00442253
-0.000274175
-0.00452654
-0.000266863
-0.00462717
-0.000239934
-0.00471553
-0.000198472
-0.004785
-0.000147187
-0.00483208
-9.12696e-05
-0.00485599
-3.7175e-05
-0.00485823
7.35674e-06
-0.00483324
3.14368e-05
-0.0047821
4.79817e-05
-0.00470768
6.30771e-05
-0.00461004
7.7847e-05
-0.0044847
9.11322e-05
-0.00432107
0.000101161
-0.00410149
0.00010682
-0.00380194
9.88182e-05
-0.00337341
2.67447e-05
-0.00261837
-0.000212518
-0.00110154
-0.0004323
-0.00010475
0.00123538
0.00443222
0.0015669
-0.00508196
-0.00812319
-0.00818616
-0.00740543
-0.00664236
-0.00607427
-0.00568933
-0.00543388
-0.00525346
-0.00510729
-0.00497328
-0.00484755
-0.00474148
-0.00467558
-0.00467969
-0.00477756
-0.00495393
-0.00517874
-0.00542211
-0.00565893
-0.00586949
-0.00603909
-0.00615771
-0.00622055
-0.00622935
-0.00619362
-0.00613388
-0.00605778
-0.00596696
-0.00586196
-0.00574447
-0.00561793
-0.00548687
-0.00536508
-0.00531674
-0.00550921
-0.00592311
-0.00467095
)
;

boundaryField
{
    floor
    {
        type            calculated;
        value           nonuniform List<scalar> 
36
(
0
0
0
0
0
0
0
0
0
0
0
0
0
0
0
0
0
0
0
-6.43864e-06
-1.68844e-05
-2.6034e-05
-3.43119e-05
-3.49353e-05
-2.87353e-05
-2.86876e-05
-2.91987e-06
-5.44127e-06
-5.68749e-06
-5.90775e-06
-4.8535e-06
-8.9384e-06
-1.02122e-05
-1.28334e-05
-1.44571e-05
-1.54447e-05
)
;
    }
    ceiling
    {
        type            calculated;
        value           nonuniform List<scalar> 
43
(
-5.79007e-05
-6.46497e-05
-6.30081e-05
-5.91796e-05
-5.40466e-05
-4.6242e-05
-3.95809e-05
-3.48662e-05
-3.19044e-05
-3.03178e-05
-2.97614e-05
-2.99655e-05
-3.06634e-05
-3.15312e-05
-3.22342e-05
-3.25473e-05
-3.24389e-05
-3.20378e-05
-3.14261e-05
-3.07106e-05
-3.00104e-05
-2.9425e-05
-2.90079e-05
-2.87609e-05
-2.86464e-05
-2.86041e-05
-2.8562e-05
-2.84439e-05
-2.8182e-05
-2.77293e-05
-2.70677e-05
-2.62023e-05
-2.51547e-05
-2.39553e-05
-2.26365e-05
-2.12263e-05
-1.97282e-05
-1.8167e-05
-1.66961e-05
-1.60316e-05
1.93412e-05
1.5189e-05
-0.000246558
)
;
    }
    sWall
    {
        type            calculated;
        value           nonuniform List<scalar> 9(-0.000140236 -0.000164518 -0.000194245 -0.000225961 -0.000245165 -0.000281097 -0.000423741 -0.000453648 -0.000483939);
    }
    nWall
    {
        type            calculated;
        value           nonuniform List<scalar> 
14
(
-9.03853e-05
-9.76903e-05
-0.000103084
-0.000104225
-0.000115824
-0.000129286
-0.000143895
-0.000156485
-0.000161565
-0.000170965
-0.000178966
-0.000195164
-0.000208119
-0.000222898
)
;
    }
    sideWalls
    {
        type            empty;
        value           nonuniform 0();
    }
    glass1
    {
        type            calculated;
        value           nonuniform List<scalar> 9(-6.40345e-05 -0.000170322 -0.000257924 -0.000331209 -0.000393194 -0.000446401 -0.000492215 -0.000535496 -0.000587174);
    }
    glass2
    {
        type            calculated;
        value           nonuniform List<scalar> 2(-0.000366986 -0.000385621);
    }
    sun
    {
        type            calculated;
        value           uniform 0;
    }
    Table_master
    {
        type            calculated;
        value           nonuniform List<scalar> 9(-1.53995e-07 -1.54111e-07 -1.54143e-07 -1.54164e-07 -1.54177e-07 -1.54181e-07 -1.5418e-07 -1.54165e-07 -1.54112e-07);
    }
    Table_slave
    {
        type            calculated;
        value           nonuniform List<scalar> 9(1.53663e-07 1.5372e-07 1.53719e-07 1.53736e-07 1.53757e-07 1.53801e-07 1.53868e-07 1.53962e-07 1.54089e-07);
    }
    inlet
    {
        type            calculated;
        value           uniform -0.0116482;
    }
    outlet
    {
        type            calculated;
        value           nonuniform List<scalar> 2(0.00987026 0.012275);
    }
}


// ************************************************************************* //
