/*--------------------------------*- C++ -*----------------------------------*\
  =========                 |
  \\      /  F ield         | OpenFOAM: The Open Source CFD Toolbox
   \\    /   O peration     | Website:  https://openfoam.org
    \\  /    A nd           | Version:  6
     \\/     M anipulation  |
\*---------------------------------------------------------------------------*/
FoamFile
{
    version     2.0;
    format      ascii;
    class       volVectorField;
    location    "3500";
    object      U;
}
// * * * * * * * * * * * * * * * * * * * * * * * * * * * * * * * * * * * * * //

dimensions      [0 1 -1 0 0 0 0];

internalField   nonuniform List<vector> 
662
(
(0.0444252 0.0854381 0)
(-0.166808 0.0218368 0)
(-0.186042 0.0163922 0)
(-0.215797 0.0118834 0)
(-0.239356 0.00694702 0)
(-0.2563 0.00168011 0)
(-0.265511 -0.00418048 0)
(-0.264805 -0.0110033 0)
(-0.251741 -0.019349 0)
(-0.224399 -0.0290278 0)
(-0.182803 -0.0384915 0)
(-0.131058 -0.0446732 0)
(-0.0771932 -0.0435744 0)
(-0.0308817 -0.0326405 0)
(-0.0167717 -0.00353081 0)
(-0.00823662 0.0101671 0)
(-0.0368052 -0.0185685 0)
(-0.0136696 -0.0300304 0)
(0.0151672 -0.0247301 0)
(0.0339255 -0.0172047 0)
(0.0480234 -0.00917545 0)
(0.0563476 -0.0049937 0)
(0.0599451 -0.00350731 0)
(0.0612308 -0.00296833 0)
(0.0617798 -0.0026455 0)
(0.0619945 -0.00239687 0)
(0.0618458 -0.00213344 0)
(0.0611864 -0.00170391 0)
(0.0595772 -0.000775245 0)
(0.0560316 0.00107971 0)
(0.0494891 0.00302039 0)
(0.045304 0.00449684 0)
(-0.0175455 0.0219302 0)
(0.237213 0.176608 0)
(-0.159109 0.0594782 0)
(-0.146352 0.0496642 0)
(-0.177104 0.0409708 0)
(-0.199863 0.0315553 0)
(-0.216548 0.0210719 0)
(-0.226338 0.00862525 0)
(-0.227192 -0.00682674 0)
(-0.216709 -0.0259328 0)
(-0.193438 -0.047665 0)
(-0.157405 -0.0682444 0)
(-0.112731 -0.0808198 0)
(-0.0670649 -0.078287 0)
(-0.0267347 -0.0605014 0)
(0.00677602 -0.0302055 0)
(0.0350622 -0.0010943 0)
(0.0520432 0.0324099 0)
(-0.0155122 0.0722472 0)
(0.07275 0.0436738 0)
(0.0122851 -0.021363 0)
(0.0272029 -0.037638 0)
(0.0412064 -0.0347977 0)
(0.0530365 -0.0260463 0)
(0.0591544 -0.0113798 0)
(0.0606713 -0.00250754 0)
(0.0606858 0.000833596 0)
(0.0608229 0.002072 0)
(0.0611243 0.00277196 0)
(0.0613367 0.00327559 0)
(0.0613848 0.00370796 0)
(0.0612791 0.0044074 0)
(0.0605799 0.00615026 0)
(0.057221 0.0110827 0)
(0.0485764 0.0151305 0)
(0.0488451 0.0175609 0)
(-0.0639593 0.0477392 0)
(0.414532 0.263995 0)
(-0.184932 0.0952302 0)
(-0.103724 0.0794234 0)
(-0.133919 0.0631008 0)
(-0.152716 0.0474683 0)
(-0.167327 0.0305995 0)
(-0.177066 0.0107738 0)
(-0.179552 -0.0133869 0)
(-0.171427 -0.0428308 0)
(-0.151611 -0.0762228 0)
(-0.120358 -0.107132 0)
(-0.0823318 -0.12441 0)
(-0.0454806 -0.118245 0)
(-0.013726 -0.0927552 0)
(0.0129059 -0.055464 0)
(0.030296 -0.0250367 0)
(0.0380866 0.00747997 0)
(-0.031612 0.0608289 0)
(0.126578 -0.0107338 0)
(0.0735004 -0.0332392 0)
(0.0644099 -0.0415583 0)
(0.066883 -0.0403869 0)
(0.0709236 -0.0360402 0)
(0.0723657 -0.0267031 0)
(0.0637486 -0.0173875 0)
(0.0572358 -0.0124131 0)
(0.0548367 -0.00965237 0)
(0.0542459 -0.00787548 0)
(0.054106 -0.00666949 0)
(0.0542756 -0.00572512 0)
(0.0551448 -0.00463664 0)
(0.0576184 -0.00140525 0)
(0.0563638 0.0147817 0)
(0.0444576 0.0253484 0)
(0.0563758 0.0317566 0)
(-0.106624 0.0729491 0)
(0.56882 0.334372 0)
(-0.230651 0.127315 0)
(-0.0588058 0.103041 0)
(-0.0884128 0.0806363 0)
(-0.0998934 0.0617065 0)
(-0.109555 0.0415506 0)
(-0.11743 0.0168384 0)
(-0.120627 -0.0147824 0)
(-0.113886 -0.0542232 0)
(-0.0967 -0.0992324 0)
(-0.0706731 -0.140079 0)
(-0.0410129 -0.161121 0)
(-0.015297 -0.150617 0)
(0.00705634 -0.117458 0)
(0.0246978 -0.0757042 0)
(0.0389119 -0.0347499 0)
(0.0555554 0.00593443 0)
(0.0545443 0.049503 0)
(0.0981556 0.0607807 0)
(0.097628 -0.00417933 0)
(0.083157 -0.0298302 0)
(0.0761863 -0.0367267 0)
(0.0714586 -0.0366407 0)
(0.0652163 -0.0319997 0)
(0.064802 -0.0195125 0)
(0.074765 -0.0130589 0)
(0.0832146 -0.00966122 0)
(0.0884484 -0.00759054 0)
(0.0917476 -0.005835 0)
(0.0933401 -0.00387732 0)
(0.0918158 -0.00128123 0)
(0.0858044 0.00233444 0)
(0.0734469 0.00753085 0)
(0.058097 0.0249601 0)
(0.0423131 0.0402125 0)
(0.0650971 0.052155 0)
(-0.143811 0.0939034 0)
(0.688516 0.392149 0)
(-0.282147 0.145081 0)
(-0.0169132 0.114074 0)
(-0.0420465 0.088878 0)
(-0.0448906 0.0691436 0)
(-0.0477856 0.0484636 0)
(-0.0518923 0.0220407 0)
(-0.0534694 -0.0141574 0)
(-0.0458967 -0.062338 0)
(-0.0300936 -0.117381 0)
(-0.0105189 -0.165 0)
(0.00814038 -0.186294 0)
(0.0203551 -0.169708 0)
(0.0299882 -0.133597 0)
(0.0382686 -0.0892199 0)
(0.0463625 -0.0457068 0)
(0.0584004 -0.00769226 0)
(0.0730771 0.0142289 0)
(0.0874223 -0.00425561 0)
(0.0865382 -0.0232071 0)
(0.0791535 -0.0302882 0)
(0.0702144 -0.0316396 0)
(0.0621475 -0.0301157 0)
(0.055534 -0.0250334 0)
(0.0538808 -0.0144713 0)
(0.0573532 -0.00849376 0)
(0.0616463 -0.00619238 0)
(0.0654661 -0.00490649 0)
(0.0689271 -0.0030193 0)
(0.0717073 0.000404655 0)
(0.0729112 0.00558377 0)
(0.0712863 0.012608 0)
(0.0665481 0.0219877 0)
(0.059691 0.0366397 0)
(0.0481541 0.0530424 0)
(0.0761419 0.0721888 0)
(-0.0122874 0.10073 0)
(0.0531557 0.154477 0)
(-0.087734 0.0776417 0)
(-0.281589 0.000889678 0)
(0.744715 0.45023 0)
(-0.299133 0.0446835 0)
(0.0370034 0.0750292 0)
(0.0144196 0.072263 0)
(0.0166573 0.0645804 0)
(0.0172582 0.0484466 0)
(0.0156037 0.022799 0)
(0.0179246 -0.0168015 0)
(0.0281738 -0.0721492 0)
(0.0423181 -0.131954 0)
(0.0538904 -0.178886 0)
(0.0590993 -0.196287 0)
(0.0570851 -0.175118 0)
(0.0523098 -0.136643 0)
(0.0476486 -0.091934 0)
(0.0454198 -0.0499675 0)
(0.0481106 -0.0167744 0)
(0.056542 0.000420057 0)
(0.0621075 -0.0033978 0)
(0.0606841 -0.0120357 0)
(0.0542964 -0.0188266 0)
(0.0463122 -0.0221459 0)
(0.0390222 -0.022457 0)
(0.0334529 -0.0198787 0)
(0.0312193 -0.0148432 0)
(0.0325491 -0.011808 0)
(0.0356272 -0.0107677 0)
(0.0394326 -0.0100112 0)
(0.0436995 -0.00815417 0)
(0.048154 -0.00409028 0)
(0.0527934 0.00299687 0)
(0.0556378 0.0126067 0)
(0.0570047 0.0243546 0)
(0.0583648 0.0388492 0)
(0.0573539 0.0551453 0)
(0.0807221 0.0762503 0)
(0.0650538 0.0883191 0)
(0.1002 0.0975234 0)
(0.119644 0.0568083 0)
(-0.140298 -0.0327148 0)
(0.811459 0.230504 0)
(0.249309 0.234295 0)
(0.202824 0.10164 0)
(0.141566 0.0794706 0)
(0.10767 0.0694653 0)
(0.0885524 0.0540887 0)
(0.0812134 0.0282463 0)
(0.085778 -0.0107659 0)
(0.0985979 -0.0643153 0)
(0.110898 -0.123561 0)
(0.11593 -0.171952 0)
(0.109601 -0.192477 0)
(0.088561 -0.161152 0)
(0.0660584 -0.12327 0)
(0.0459654 -0.0809139 0)
(0.0318997 -0.0430861 0)
(0.0253392 -0.0157556 0)
(0.025529 -0.0023069 0)
(0.0269951 -0.00230557 0)
(0.0255394 -0.00762293 0)
(0.0210698 -0.0128577 0)
(0.0152511 -0.0159386 0)
(0.00960294 -0.0169197 0)
(0.00518027 -0.0162022 0)
(0.00312796 -0.0145015 0)
(0.0036512 -0.0137694 0)
(0.00576637 -0.0140054 0)
(0.00879393 -0.0141343 0)
(0.012622 -0.0130924 0)
(0.01739 -0.00977038 0)
(0.0235976 -0.00284098 0)
(0.031979 0.00795277 0)
(0.0392251 0.0200755 0)
(0.0474844 0.0331485 0)
(0.0559133 0.046591 0)
(0.0769772 0.0632396 0)
(0.0904984 0.0685692 0)
(0.122562 0.0626044 0)
(0.16727 0.0498195 0)
(-0.0187365 0.0943846 0)
(0.587192 0.00290134 0)
(0.288859 0.197513 0)
(0.405396 0.149675 0)
(0.373634 0.142059 0)
(0.310992 0.1213 0)
(0.259602 0.0864354 0)
(0.22628 0.0427691 0)
(0.20914 -0.0107806 0)
(0.201876 -0.0697277 0)
(0.194182 -0.123974 0)
(0.176623 -0.160344 0)
(0.146211 -0.168107 0)
(0.0920268 -0.127109 0)
(0.0561052 -0.0937241 0)
(0.0244311 -0.0569826 0)
(0.0029812 -0.0267524 0)
(-0.00726638 -0.00838469 0)
(-0.0093855 -0.00124203 0)
(-0.00935842 -0.00139746 0)
(-0.0105649 -0.0048358 0)
(-0.0136895 -0.00841428 0)
(-0.0179182 -0.0108866 0)
(-0.0222398 -0.0122956 0)
(-0.0258173 -0.0130293 0)
(-0.0280082 -0.0135924 0)
(-0.0288447 -0.0145663 0)
(-0.0288706 -0.0158115 0)
(-0.0284256 -0.0168197 0)
(-0.0274691 -0.0170445 0)
(-0.0256475 -0.0158954 0)
(-0.0221649 -0.0126465 0)
(-0.0144523 -0.00643264 0)
(-0.00106616 0.00289304 0)
(0.0109379 0.0123628 0)
(0.0233833 0.0190741 0)
(0.0422023 0.0259305 0)
(0.059275 0.0219502 0)
(0.0832616 0.00962658 0)
(0.150318 0.055992 0)
(-0.460258 0.213441 0)
(0.401728 0.139383 0)
(0.406596 0.16973 0)
(0.3727 0.168124 0)
(0.341648 0.129013 0)
(0.313103 0.0725896 0)
(0.290357 0.0103624 0)
(0.265491 -0.0499394 0)
(0.232585 -0.0974315 0)
(0.188775 -0.122715 0)
(0.137215 -0.122217 0)
(0.0592617 -0.0822358 0)
(0.0169214 -0.0555939 0)
(-0.0180506 -0.026854 0)
(-0.0340271 -0.0115625 0)
(-0.0408633 -0.00382004 0)
(-0.0426476 -0.000835689 0)
(-0.0431728 -0.00107267 0)
(-0.0444624 -0.002985 0)
(-0.0470184 -0.00525801 0)
(-0.0504556 -0.00729557 0)
(-0.0542024 -0.00903911 0)
(-0.0578156 -0.0105868 0)
(-0.0611139 -0.012046 0)
(-0.0642952 -0.0134759 0)
(-0.0677533 -0.0146848 0)
(-0.0718323 -0.0153055 0)
(-0.0768369 -0.0148565 0)
(-0.0831582 -0.0127297 0)
(-0.0913757 -0.00815352 0)
(-0.10207 -0.000320861 0)
(-0.113806 0.0108414 0)
(-0.127805 0.0248211 0)
(-0.151099 0.0415438 0)
(-0.186073 0.0601962 0)
(-0.235161 0.0772652 0)
(-0.291973 0.0900649 0)
(-0.373256 0.0969546 0)
(-0.658609 0.0926446 0)
(0.182133 -0.115421 0)
(0.249508 0.22725 0)
(0.239685 0.187887 0)
(0.242028 0.145166 0)
(0.239533 0.0894838 0)
(0.228122 0.0305423 0)
(0.205847 -0.0192717 0)
(0.168971 -0.053702 0)
(0.121149 -0.0702806 0)
(0.0690995 -0.0682175 0)
(-0.00872098 -0.0364298 0)
(-0.0411147 -0.0210572 0)
(-0.0588065 -0.0118761 0)
(-0.0671877 -0.00789975 0)
(-0.0707662 -0.00617081 0)
(-0.0719748 -0.00590979 0)
(-0.0726183 -0.00681884 0)
(-0.0738497 -0.00834577 0)
(-0.075983 -0.00998887 0)
(-0.0788204 -0.0115166 0)
(-0.0821339 -0.0127996 0)
(-0.0858155 -0.0137976 0)
(-0.0899219 -0.0145084 0)
(-0.0946172 -0.0148937 0)
(-0.100043 -0.0147718 0)
(-0.10621 -0.0137968 0)
(-0.112949 -0.0114765 0)
(-0.119848 -0.0072272 0)
(-0.126241 -0.000425192 0)
(-0.131218 0.00911969 0)
(-0.134883 0.0219934 0)
(-0.137681 0.0388652 0)
(-0.140763 0.0593018 0)
(-0.144454 0.0807326 0)
(-0.144429 0.0957536 0)
(-0.124855 0.0899856 0)
(-0.0694641 0.0345333 0)
(-0.206903 -0.18125 0)
(0.402524 -0.332206 0)
(-0.0878261 -0.486226 0)
(-0.285434 -0.0170868 0)
(-0.117103 0.174276 0)
(-0.0275332 0.156728 0)
(0.0245875 0.123354 0)
(0.0550635 0.0812715 0)
(0.0668736 0.0370786 0)
(0.0609212 0.00192449 0)
(0.0408726 -0.0180402 0)
(0.00665035 -0.0260536 0)
(-0.0307346 -0.0251448 0)
(-0.0685435 0.0153798 0)
(-0.0849847 0.025769 0)
(-0.0922975 0.0299422 0)
(-0.0952864 0.0324161 0)
(-0.0962462 0.0346028 0)
(-0.0962061 0.0365965 0)
(-0.0959798 0.0383916 0)
(-0.0959864 0.0395499 0)
(-0.0963998 0.039791 0)
(-0.0973012 0.0392887 0)
(-0.0987184 0.0381289 0)
(-0.10065 0.0365004 0)
(-0.103076 0.0345906 0)
(-0.105956 0.0325333 0)
(-0.109202 0.0304397 0)
(-0.112656 0.0284103 0)
(-0.116074 0.0265245 0)
(-0.119051 0.0247891 0)
(-0.120805 0.0238255 0)
(-0.120128 0.0254098 0)
(-0.115449 0.0308506 0)
(-0.105406 0.041068 0)
(-0.0899353 0.0561505 0)
(-0.0704224 0.0732677 0)
(-0.0466338 0.0832854 0)
(0.0199793 0.0508864 0)
(0.150887 -0.0553852 0)
(-0.0522126 -0.0615978 0)
(0.287981 -0.238744 0)
(-0.276517 -0.135778 0)
(-0.410742 -0.0167797 0)
(-0.368807 0.07352 0)
(-0.274186 0.0894663 0)
(-0.18729 0.0788685 0)
(-0.121102 0.0587656 0)
(-0.0817553 0.0374996 0)
(-0.0692063 0.0230102 0)
(-0.074546 0.0189112 0)
(-0.0856774 0.0179041 0)
(-0.0950923 -0.00277637 0)
(-0.111881 -0.0889953 0)
(-0.112324 -0.0917841 0)
(-0.111484 -0.0942929 0)
(-0.110224 -0.0981745 0)
(-0.109078 -0.102188 0)
(-0.108083 -0.106299 0)
(-0.107273 -0.110286 0)
(-0.106755 -0.113619 0)
(-0.106716 -0.115754 0)
(-0.107273 -0.116532 0)
(-0.108423 -0.115872 0)
(-0.110096 -0.113866 0)
(-0.112157 -0.110666 0)
(-0.114433 -0.106398 0)
(-0.116694 -0.101107 0)
(-0.118623 -0.0947305 0)
(-0.119794 -0.0870536 0)
(-0.119667 -0.0776765 0)
(-0.117436 -0.0667542 0)
(-0.111485 -0.0548516 0)
(-0.0992161 -0.0417537 0)
(-0.0780593 -0.0269045 0)
(-0.047669 -0.00966092 0)
(-0.00765347 0.0100428 0)
(0.0369839 0.00919079 0)
(0.106025 -0.0495447 0)
(0.123719 -0.0942109 0)
(-0.522003 0.00573867 0)
(0.474216 0.385455 0)
(0.194909 0.133614 0)
(0.17153 0.0878844 0)
(0.121354 0.0743076 0)
(0.0956697 0.0639058 0)
(0.082712 0.0438291 0)
(0.0808263 0.0110774 0)
(0.0919462 -0.0359314 0)
(0.105262 -0.0937784 0)
(0.114531 -0.149884 0)
(0.113877 -0.186229 0)
(0.102348 -0.189673 0)
(0.285123 0.0903755 0)
(0.369357 0.173391 0)
(0.399114 0.143378 0)
(0.342097 0.134598 0)
(0.283118 0.105011 0)
(0.240567 0.0658529 0)
(0.216304 0.0172931 0)
(0.204854 -0.0400533 0)
(0.198771 -0.0981004 0)
(0.187008 -0.145128 0)
(0.162867 -0.168078 0)
(0.127971 -0.160423 0)
(0.382444 0.144573 0)
(0.390768 0.175527 0)
(0.357032 0.151694 0)
(0.326706 0.102141 0)
(0.301083 0.0416392 0)
(0.278667 -0.0206521 0)
(0.250342 -0.0759926 0)
(0.211974 -0.113211 0)
(0.163604 -0.125682 0)
(0.111189 -0.113047 0)
(0.298803 0.246428 0)
(0.240154 0.205815 0)
(0.240981 0.168425 0)
(0.241728 0.118474 0)
(0.235112 0.05962 0)
(0.218377 0.00400007 0)
(0.189109 -0.0386097 0)
(0.14604 -0.0643028 0)
(0.09523 -0.0715484 0)
(0.0442282 -0.0607109 0)
(0.0224681 -0.430038 0)
(-0.254647 -0.361771 0)
(-0.163469 0.137635 0)
(-0.0647046 0.170127 0)
(0.00178513 0.141257 0)
(0.0421437 0.103207 0)
(0.0632712 0.0587708 0)
(0.0659082 0.0176211 0)
(0.0532146 -0.00982762 0)
(0.0250702 -0.0232726 0)
(-0.0134862 -0.0268937 0)
(-0.0436395 -0.0155325 0)
(-0.240691 -0.168223 0)
(-0.368547 -0.0817191 0)
(-0.405635 0.0395708 0)
(-0.321913 0.0871979 0)
(-0.22871 0.0859186 0)
(-0.151108 0.0694874 0)
(-0.097906 0.0477465 0)
(-0.0724511 0.02901 0)
(-0.070481 0.0198045 0)
(-0.079913 0.0189421 0)
(-0.0910786 0.012617 0)
(-0.099527 -0.0341625 0)
(0.762806 0.465325 0)
(0.317016 0.264119 0)
(0.349232 0.15532 0)
(0.275903 0.115159 0)
(0.21532 0.0923278 0)
(0.17348 0.0662914 0)
(0.151042 0.0321782 0)
(0.14507 -0.0142382 0)
(0.150052 -0.0700889 0)
(0.154592 -0.126811 0)
(0.149939 -0.169226 0)
(0.131924 -0.18316 0)
(0.787149 -0.173754 0)
(0.153727 0.239011 0)
(0.399229 0.168 0)
(0.427377 0.169992 0)
(0.371973 0.152094 0)
(0.323464 0.110386 0)
(0.287231 0.0579994 0)
(0.263866 -0.00143379 0)
(0.244932 -0.0625795 0)
(0.223344 -0.114145 0)
(0.191531 -0.144697 0)
(0.149096 -0.14745 0)
(0.306211 0.0945731 0)
(0.356458 0.195199 0)
(0.327099 0.179015 0)
(0.31231 0.140514 0)
(0.296055 0.0834067 0)
(0.277882 0.021324 0)
(0.252892 -0.0346811 0)
(0.214305 -0.0760978 0)
(0.164679 -0.0967422 0)
(0.110453 -0.094797 0)
(0.442355 0.227561 0)
(0.0682754 0.22023 0)
(0.113772 0.181391 0)
(0.140499 0.139896 0)
(0.153596 0.0892738 0)
(0.151809 0.0364151 0)
(0.136641 -0.00653054 0)
(0.107108 -0.0337429 0)
(0.0657982 -0.0463502 0)
(0.0211889 -0.0449337 0)
(0.500162 -0.260732 0)
(-0.19252 -0.256407 0)
(-0.350383 -0.0664447 0)
(-0.262725 0.102355 0)
(-0.164106 0.11489 0)
(-0.0915249 0.0962892 0)
(-0.0408127 0.0659743 0)
(-0.0130111 0.0327102 0)
(-0.00867669 0.00666102 0)
(-0.0217568 -0.00576079 0)
(-0.0475592 -0.00896457 0)
(-0.0708973 -0.00887306 0)
(0.329396 -0.25151 0)
(-0.350161 -0.159931 0)
(-0.47674 -0.103511 0)
(-0.452371 -0.0543425 0)
(-0.360847 -0.0392137 0)
(-0.265422 -0.0419164 0)
(-0.189921 -0.0513457 0)
(-0.142146 -0.0600431 0)
(-0.117901 -0.0636232 0)
(-0.105238 -0.0652199 0)
(-0.0951322 -0.0718624 0)
(-0.0997711 -0.078309 0)
(0.344095 0.290588 0)
(0.353811 0.201968 0)
(0.313125 0.129438 0)
(0.243326 0.103801 0)
(0.191624 0.0802719 0)
(0.159732 0.0508799 0)
(0.146032 0.0108653 0)
(0.147013 -0.0408444 0)
(0.153002 -0.0985597 0)
(0.153782 -0.150292 0)
(0.142529 -0.180016 0)
(0.119344 -0.177782 0)
(-0.224583 0.190109 0)
(0.297268 0.192738 0)
(0.43557 0.162598 0)
(0.400332 0.166088 0)
(0.346379 0.132896 0)
(0.303568 0.0852908 0)
(0.274395 0.0290358 0)
(0.25414 -0.0324284 0)
(0.235061 -0.0903051 0)
(0.208935 -0.132624 0)
(0.171361 -0.149663 0)
(0.125877 -0.138305 0)
(0.374252 0.195519 0)
(0.338498 0.188396 0)
(0.319586 0.163011 0)
(0.304395 0.113387 0)
(0.287323 0.052182 0)
(0.267247 -0.00803179 0)
(0.235209 -0.0576982 0)
(0.190548 -0.0892172 0)
(0.137629 -0.0985674 0)
(0.0829911 -0.0858641 0)
(0.0764 0.216338 0)
(0.092901 0.201263 0)
(0.128936 0.161691 0)
(0.148825 0.115517 0)
(0.154598 0.0623956 0)
(0.145197 0.013055 0)
(0.123691 -0.0220117 0)
(0.0875192 -0.0418283 0)
(0.0430452 -0.0473703 0)
(-0.00075541 -0.0381389 0)
(-0.174463 -0.283469 0)
(-0.308474 -0.187276 0)
(-0.317638 0.0437721 0)
(-0.209258 0.116368 0)
(-0.124976 0.107512 0)
(-0.063431 0.0821167 0)
(-0.0239607 0.0490838 0)
(-0.00802148 0.0181474 0)
(-0.0132325 -0.00118123 0)
(-0.0337122 -0.0080118 0)
(-0.0614219 -0.00935754 0)
(-0.0734646 -0.00450171 0)
(-0.289032 -0.184005 0)
(-0.434112 -0.132144 0)
(-0.479709 -0.0759493 0)
(-0.409679 -0.0433141 0)
(-0.311625 -0.0392389 0)
(-0.224404 -0.0462643 0)
(-0.162565 -0.0562078 0)
(-0.127749 -0.0624576 0)
(-0.110893 -0.0641989 0)
(-0.0999763 -0.0677517 0)
(-0.0932511 -0.075844 0)
(-0.112332 -0.0839715 0)
)
;

boundaryField
{
    floor
    {
        type            noSlip;
    }
    ceiling
    {
        type            noSlip;
    }
    sWall
    {
        type            noSlip;
    }
    nWall
    {
        type            noSlip;
    }
    sideWalls
    {
        type            empty;
    }
    glass1
    {
        type            noSlip;
    }
    glass2
    {
        type            noSlip;
    }
    sun
    {
        type            noSlip;
    }
    Table_master
    {
        type            noSlip;
    }
    Table_slave
    {
        type            noSlip;
    }
    inlet
    {
        type            fixedValue;
        value           uniform (0.5 0 0);
    }
    outlet
    {
        type            zeroGradient;
    }
}


// ************************************************************************* //
