/*--------------------------------*- C++ -*----------------------------------*\
  =========                 |
  \\      /  F ield         | OpenFOAM: The Open Source CFD Toolbox
   \\    /   O peration     | Website:  https://openfoam.org
    \\  /    A nd           | Version:  6
     \\/     M anipulation  |
\*---------------------------------------------------------------------------*/
FoamFile
{
    version     2.0;
    format      ascii;
    class       volScalarField;
    location    "600";
    object      alphat;
}
// * * * * * * * * * * * * * * * * * * * * * * * * * * * * * * * * * * * * * //

dimensions      [1 -1 -1 0 0 0 0];

internalField   nonuniform List<scalar> 
458
(
0.00124682
0.00135851
0.00138955
0.00145617
0.00151755
0.00157571
0.00163394
0.00169297
0.00174121
0.00177145
0.00177474
0.00174222
0.00166272
0.00149349
0.0011348
0.000560238
0.00065672
0.000744903
0.00077718
0.000765168
0.000715877
0.000661358
0.000612606
0.000570408
0.000533771
0.000501793
0.00047382
0.000449031
0.000426467
0.000405075
0.000383601
0.000370733
0.000340622
0.00167907
0.00378726
0.00349522
0.00400513
0.00451432
0.00503774
0.00550679
0.00587067
0.00624422
0.00659364
0.00687362
0.00704295
0.00705677
0.00680608
0.00552122
0.00149826
0.00124329
0.00101396
0.00055533
0.00131963
0.0019246
0.00239281
0.00254072
0.00185022
0.00156116
0.00136448
0.00121931
0.00110818
0.00102003
0.000944302
0.000873175
0.000802119
0.000738554
0.000685413
0.00083833
0.000447083
0.00203946
0.0050908
0.00420642
0.00512534
0.00551378
0.00578685
0.00599689
0.00619178
0.00646237
0.00679111
0.00715022
0.00750134
0.00777595
0.00786689
0.00740741
0.0060374
0.00457135
0.00119899
0.00085374
0.00147483
0.00214911
0.00282026
0.0030126
0.000962639
0.000842565
0.00074266
0.000661742
0.000596437
0.000543523
0.000500507
0.000465722
0.000438672
0.000485977
0.000562994
0.000984453
0.000528114
0.00238608
0.00649852
0.00409441
0.00531007
0.0055229
0.00550295
0.00548486
0.00557919
0.0057998
0.00612604
0.00654055
0.00700168
0.00740106
0.00764675
0.00758564
0.00719123
0.0061695
0.00338639
0.00138046
0.00175247
0.00240898
0.00321643
0.0039185
0.00395602
0.00108505
0.000994404
0.000932495
0.000886694
0.000847931
0.000809548
0.000773096
0.000734594
0.00068963
0.000649367
0.000640004
0.00117358
0.000608175
0.00273995
0.00839056
0.00429561
0.005042
0.00534553
0.00516609
0.00502062
0.00510556
0.00533757
0.0056773
0.00612522
0.00663162
0.00702134
0.00721213
0.00720338
0.00706367
0.00665418
0.00550109
0.00497639
0.00501395
0.00530804
0.00565897
0.00587583
0.00578198
0.00493428
0.00449661
0.00425454
0.00408097
0.00390547
0.00367807
0.00329537
0.0028035
0.00224459
0.00170682
0.00128036
0.001194
0.00103437
0.000812714
0.000860298
0.000935224
0.00311866
0.0105202
0.0058787
0.00467279
0.00508987
0.00508257
0.00489375
0.00496555
0.00520054
0.0055408
0.00599596
0.00648082
0.00684236
0.00695316
0.00683921
0.00668051
0.00660857
0.00651108
0.00670197
0.00704136
0.00728169
0.00732783
0.00717154
0.00683942
0.00637236
0.00599139
0.00569371
0.00543074
0.00517198
0.00489674
0.00454076
0.00405512
0.00344281
0.0027522
0.00211454
0.00153447
0.0012601
0.00109801
0.00138195
0.00097023
0.0034908
0.0121229
0.00875426
0.00574501
0.00500618
0.00508101
0.00513928
0.0051712
0.00530427
0.00560638
0.00605609
0.00653732
0.00686762
0.00689755
0.00668429
0.00653379
0.00678475
0.00733634
0.00789847
0.00821967
0.0082246
0.00795662
0.00749905
0.00693985
0.00637996
0.00592612
0.00557983
0.00529769
0.00505034
0.00482817
0.00462623
0.00436318
0.00393437
0.00336353
0.00277183
0.00220445
0.00183371
0.001679
0.00159963
0.00115348
0.00358009
0.0112235
0.00954166
0.00802224
0.00686224
0.00635117
0.00585298
0.0055192
0.00551844
0.00581166
0.00627946
0.0067547
0.00702922
0.00695468
0.00669514
0.00676398
0.00747842
0.00806085
0.00836767
0.00835964
0.00803467
0.00746764
0.00676648
0.0060552
0.00545944
0.00503793
0.00475142
0.00454466
0.00439105
0.00428683
0.00423909
0.00423863
0.00412389
0.00378573
0.00345658
0.00327303
0.00335202
0.00353657
0.00419696
0.0017848
0.00350562
0.0042306
0.00467537
0.00492497
0.00496359
0.00489106
0.00489936
0.00511647
0.00554967
0.00610041
0.0066587
0.00708805
0.00721232
0.00694998
0.00688822
0.00725075
0.00766785
0.00781216
0.00771259
0.00735584
0.00675178
0.00600088
0.00524573
0.0046209
0.00418513
0.00390593
0.00371828
0.00357596
0.00345507
0.0033421
0.00322686
0.00310092
0.00298723
0.00288899
0.00282352
0.002786
0.00271549
0.0025718
0.00239783
0.0016663
0.00157518
0.00275415
0.00377438
0.00458075
0.00532381
0.00605021
0.00662966
0.0070231
0.00726813
0.00728298
0.00702155
0.00671365
0.00671911
0.00684618
0.00676022
0.00649331
0.00606814
0.00549246
0.00482913
0.00417571
0.00365175
0.00329734
0.00307977
0.00294657
0.00285867
0.00279507
0.0027466
0.00271099
0.00269104
0.00269748
0.0027132
0.00272717
0.00272767
0.00268415
0.00255076
0.00231633
0.00202605
0.00134091
0.00238088
0.0046675
0.00598634
0.00684635
0.00751484
0.00756863
0.0071866
0.00680404
0.00642878
0.00575367
0.00528744
0.00517851
0.00511133
0.00491549
0.00461532
0.00423992
0.00379806
0.00333215
0.00291228
0.00258859
0.00236435
0.00223574
0.0021763
0.00216441
0.00218679
0.00223504
0.00230206
0.00237933
0.00246978
0.00257309
0.00268344
0.00279165
0.00287959
0.00292342
0.00288209
0.00284599
0.00262281
0.00135847
0.00249234
0.00255453
0.00261066
0.00289488
0.00273006
0.00241464
0.00203685
0.00173587
0.00154928
0.00137078
0.00121252
0.00108873
0.000983254
0.000904215
0.000849687
0.000809903
0.000777887
0.000750358
0.000727669
0.000712415
0.000706797
0.000711125
0.000724075
0.000742969
0.000766754
0.000794877
0.000827184
0.000863869
0.000905547
0.000953505
0.00100802
0.00106872
0.0011359
0.0012099
0.00129076
0.00138765
0.00142977
0.00140031
0.00130249
0.00120446
)
;

boundaryField
{
    floor
    {
        type            compressible::alphatWallFunction;
        Prt             0.85;
        value           nonuniform List<scalar> 
36
(
0.000161103
7.83722e-05
9.27916e-05
0.000105746
0.00011044
0.000108696
0.000101504
9.34787e-05
8.62341e-05
7.99062e-05
7.43651e-05
6.94899e-05
6.51936e-05
6.13594e-05
5.78459e-05
5.4493e-05
5.11042e-05
4.90621e-05
4.4247e-05
4.42464e-05
6.10576e-05
7.35066e-05
8.5574e-05
0.000115591
0.000122439
0.000133125
0.000161102
0.000210717
0.000176079
0.000144225
7.83713e-05
0.000144224
7.76302e-05
0.00016998
0.000121482
0.000194805
)
;
    }
    ceiling
    {
        type            compressible::alphatWallFunction;
        Prt             0.85;
        value           nonuniform List<scalar> 
43
(
0.000340369
0.000348269
0.000355383
0.000391241
0.000370576
0.000330606
0.000281974
0.000242525
0.000217697
0.000193626
0.000171985
0.000154834
0.00014004
0.000128833
0.000121034
0.000115307
0.000110673
0.000106671
0.000103359
0.000101125
0.000100301
0.000100936
0.000102833
0.000105594
0.000109057
0.000113136
0.0001178
0.000123069
0.000129024
0.000135837
0.000143533
0.000152044
0.000161401
0.000171633
0.000182733
0.00019593
0.000201635
0.000197648
0.000184338
0.000170888
0.000467224
0.00055536
0.000326057
)
;
    }
    sWall
    {
        type            compressible::alphatWallFunction;
        Prt             0.85;
        value           uniform 0.000339126;
    }
    nWall
    {
        type            compressible::alphatWallFunction;
        Prt             0.85;
        value           nonuniform List<scalar> 6(0.000132906 0.000137858 0.00016348 0.000189237 0.000191624 0.000170547);
    }
    sideWalls
    {
        type            empty;
    }
    glass1
    {
        type            compressible::alphatWallFunction;
        Prt             0.85;
        value           nonuniform List<scalar> 9(0.000172026 0.00022951 0.000276314 0.00032058 0.000365136 0.000412202 0.000457917 0.000468948 0.000460101);
    }
    glass2
    {
        type            compressible::alphatWallFunction;
        Prt             0.85;
        value           nonuniform List<scalar> 2(0.00024703 0.000231492);
    }
    sun
    {
        type            compressible::alphatWallFunction;
        Prt             0.85;
        value           nonuniform List<scalar> 
14
(
0.000176581
0.000191824
0.000196037
0.000205048
0.00021331
0.000221104
0.000228875
0.000236722
0.000243111
0.000247107
0.00024754
0.000243244
0.000232703
0.000210075
)
;
    }
    Table_master
    {
        type            compressible::alphatWallFunction;
        Prt             0.85;
        value           nonuniform List<scalar> 9(0.000137143 0.000120025 0.000105561 9.3674e-05 8.39514e-05 7.5977e-05 6.94229e-05 6.40711e-05 5.98743e-05);
    }
    Table_slave
    {
        type            compressible::alphatWallFunction;
        Prt             0.85;
        value           nonuniform List<scalar> 9(0.000154342 0.000141632 0.000132874 0.00012635 0.000120799 0.000115272 0.000109993 0.000104386 9.7792e-05);
    }
    inlet
    {
        type            fixedValue;
        value           uniform 1.94e-05;
    }
    outlet
    {
        type            zeroGradient;
    }
}


// ************************************************************************* //
