/*--------------------------------*- C++ -*----------------------------------*\
  =========                 |
  \\      /  F ield         | OpenFOAM: The Open Source CFD Toolbox
   \\    /   O peration     | Website:  https://openfoam.org
    \\  /    A nd           | Version:  6
     \\/     M anipulation  |
\*---------------------------------------------------------------------------*/
FoamFile
{
    version     2.0;
    format      ascii;
    class       volScalarField;
    location    "600";
    object      k;
}
// * * * * * * * * * * * * * * * * * * * * * * * * * * * * * * * * * * * * * //

dimensions      [0 2 -2 0 0 0 0];

internalField   nonuniform List<scalar> 
458
(
0.00227778
0.00269917
0.00282365
0.00310082
0.00336769
0.00363067
0.00390387
0.00419094
0.00443295
0.00458802
0.0046048
0.00443748
0.00404185
0.0032613
0.00188341
0.000459474
0.000631266
0.000812138
0.000884075
0.000856997
0.000750167
0.000640281
0.000549384
0.000476322
0.000417112
0.000368644
0.000328701
0.000295218
0.000266303
0.000240265
0.000215474
0.000201271
0.000169931
0.00413609
0.00757545
0.0041742
0.00440091
0.0047465
0.00517006
0.0056719
0.00624154
0.00685018
0.00736533
0.00764071
0.00758027
0.00716727
0.00638618
0.0051586
0.00328262
0.0022606
0.00150376
0.000451496
0.00097628
0.0013107
0.00146808
0.00148319
0.00126792
0.00103072
0.000838705
0.000692234
0.000579985
0.00049274
0.000423206
0.000366105
0.000318597
0.000284445
0.00026516
0.000493352
0.000292734
0.00611036
0.0136816
0.0049393
0.00475351
0.00497365
0.00532259
0.00579296
0.00638966
0.00704824
0.0076088
0.00795285
0.00800905
0.0077476
0.00710498
0.00607524
0.00492122
0.00394434
0.00210264
0.00106685
0.00140267
0.00161116
0.00174152
0.00173542
0.00135651
0.00103921
0.00080738
0.000641027
0.000520752
0.000432454
0.000366712
0.000317513
0.000281703
0.000262804
0.000266048
0.000779368
0.000408465
0.00837529
0.0222768
0.0059595
0.00473493
0.00477703
0.0050516
0.00551565
0.00621862
0.00694786
0.00752258
0.00789731
0.00801772
0.0078061
0.00719569
0.00633084
0.00547446
0.00466512
0.0035216
0.00278756
0.00251852
0.00238659
0.0023533
0.00230704
0.00216995
0.0017241
0.00144823
0.00127363
0.00115168
0.00105325
0.000960102
0.000875618
0.000790597
0.000696784
0.000531683
0.000423626
0.00113142
0.00054173
0.0110586
0.0340048
0.00846844
0.00477969
0.0045131
0.00474355
0.00534616
0.00641328
0.00724314
0.00780102
0.0081619
0.00826479
0.00796101
0.0072338
0.00625993
0.00534839
0.00461474
0.00400727
0.00381872
0.0035038
0.0032778
0.00309713
0.00288601
0.00261572
0.00232502
0.00212567
0.00200286
0.00190578
0.00180158
0.00167057
0.00149948
0.00130483
0.00109773
0.000867893
0.000666006
0.000922331
0.0010619
0.000968022
0.00108526
0.00128255
0.0143443
0.0467421
0.0150193
0.00596742
0.00478139
0.00482791
0.00577643
0.00733896
0.00809663
0.00854141
0.00881141
0.00882114
0.0083852
0.00743097
0.00616726
0.00500407
0.00421922
0.00387552
0.00384764
0.0038575
0.00376733
0.00354433
0.00322316
0.00286528
0.00257363
0.0024169
0.00233976
0.00227812
0.00219727
0.00207495
0.00188613
0.0016549
0.00140482
0.00114993
0.000937861
0.000902023
0.00103012
0.0010541
0.00165066
0.00137999
0.0179912
0.0551006
0.0271568
0.0124435
0.00838964
0.00750375
0.00860494
0.00929059
0.00955894
0.00972159
0.00981285
0.00966691
0.00901808
0.00776271
0.00615116
0.00473532
0.00392351
0.00377396
0.00393814
0.00402425
0.00389511
0.00359004
0.00320685
0.00284257
0.00259255
0.00248887
0.00246811
0.00247014
0.00246516
0.00243236
0.00234198
0.00215259
0.00191575
0.00166371
0.00146166
0.00136863
0.00145454
0.00168475
0.00223675
0.00195022
0.0189531
0.056838
0.0383316
0.0272375
0.0198401
0.0160039
0.0138208
0.0123665
0.0116128
0.0112993
0.0111085
0.010707
0.00972329
0.00804676
0.00601047
0.00442576
0.003714
0.00369446
0.00382081
0.00379184
0.00355656
0.00320603
0.00285093
0.00257566
0.00242784
0.00239912
0.00244328
0.00252665
0.00263717
0.00277232
0.00292945
0.00307049
0.00311393
0.00314485
0.00329913
0.00387712
0.00512759
0.00682174
0.0128274
0.00467497
0.018213
0.0264696
0.0243622
0.0217115
0.0188955
0.0164825
0.0146852
0.0136427
0.0131659
0.0128763
0.0124824
0.0117099
0.0101451
0.00780717
0.00517845
0.00388416
0.00343182
0.00334088
0.00328486
0.0031224
0.00285179
0.00255207
0.00230202
0.00214889
0.00209955
0.00213094
0.00221524
0.00233725
0.00249315
0.00268399
0.00291112
0.00317264
0.00349136
0.00390266
0.00444891
0.00509718
0.00569475
0.00606602
0.00624524
0.00407946
0.0071617
0.0110668
0.0135344
0.0148041
0.0155096
0.0158212
0.0155233
0.0146211
0.0133717
0.0116912
0.00881924
0.0058501
0.00403007
0.00322718
0.00288747
0.00270793
0.00253523
0.0023238
0.00209532
0.00189021
0.00175158
0.0016908
0.00169457
0.00174411
0.00182638
0.0019363
0.00207514
0.00224943
0.00247172
0.00276514
0.0031309
0.00356685
0.00405067
0.00448988
0.00471194
0.00457288
0.00410809
0.00264156
0.00805073
0.019546
0.0217544
0.0216834
0.0209307
0.0186636
0.0155108
0.012137
0.00891316
0.00625654
0.00434041
0.00324423
0.0026936
0.00238738
0.00218437
0.0020057
0.00182108
0.00163909
0.00148542
0.00137852
0.00132043
0.0013109
0.00134186
0.00140756
0.00150635
0.00163966
0.00181083
0.00202423
0.00229051
0.00261949
0.00301992
0.00349262
0.00401123
0.0045079
0.00481166
0.00509506
0.00429043
0.00271098
0.00891071
0.00935845
0.00977395
0.0121011
0.0108082
0.0084848
0.00605661
0.00440855
0.00351621
0.00275499
0.00215672
0.00173937
0.00141894
0.00120013
0.00105983
0.000962954
0.000888362
0.000826621
0.000777405
0.000745165
0.000733464
0.000742475
0.000769764
0.000810457
0.000863175
0.000927653
0.00100459
0.00109567
0.00120394
0.00133483
0.00149183
0.00167689
0.00189438
0.00214928
0.00244624
0.00282744
0.00300191
0.00287964
0.00249141
0.00213109
)
;

boundaryField
{
    floor
    {
        type            kqRWallFunction;
        value           nonuniform List<scalar> 
36
(
0.00188341
0.000459474
0.000631266
0.000812138
0.000884075
0.000856997
0.000750167
0.000640281
0.000549384
0.000476322
0.000417112
0.000368644
0.000328701
0.000295218
0.000266303
0.000240265
0.000215474
0.000201271
0.000169931
0.000169931
0.000292734
0.000408465
0.00054173
0.000968022
0.00108526
0.00128255
0.00188341
0.00328262
0.0022606
0.00150376
0.000459474
0.00150376
0.000451496
0.00210264
0.00106685
0.00278756
)
;
    }
    ceiling
    {
        type            kqRWallFunction;
        value           nonuniform List<scalar> 
43
(
0.00891071
0.00935845
0.00977395
0.0121011
0.0108082
0.0084848
0.00605661
0.00440855
0.00351621
0.00275499
0.00215672
0.00173937
0.00141894
0.00120013
0.00105983
0.000962954
0.000888362
0.000826621
0.000777405
0.000745165
0.000733464
0.000742475
0.000769764
0.000810457
0.000863175
0.000927653
0.00100459
0.00109567
0.00120394
0.00133483
0.00149183
0.00167689
0.00189438
0.00214928
0.00244624
0.00282744
0.00300191
0.00287964
0.00249141
0.00213109
0.018213
0.0264696
0.00805073
)
;
    }
    sWall
    {
        type            kqRWallFunction;
        value           uniform 0.00891071;
    }
    nWall
    {
        type            kqRWallFunction;
        value           nonuniform List<scalar> 6(0.00128255 0.00137999 0.00195022 0.00264156 0.00271098 0.00213109);
    }
    sideWalls
    {
        type            empty;
    }
    glass1
    {
        type            kqRWallFunction;
        value           nonuniform List<scalar> 9(0.00227778 0.00413609 0.00611036 0.00837529 0.0110586 0.0143443 0.0179912 0.0189531 0.018213);
    }
    glass2
    {
        type            kqRWallFunction;
        value           nonuniform List<scalar> 2(0.00467497 0.00407946);
    }
    sun
    {
        type            kqRWallFunction;
        value           nonuniform List<scalar> 
14
(
0.00227778
0.00269917
0.00282365
0.00310082
0.00336769
0.00363067
0.00390387
0.00419094
0.00443295
0.00458802
0.0046048
0.00443748
0.00404185
0.0032613
)
;
    }
    Table_master
    {
        type            kqRWallFunction;
        value           nonuniform List<scalar> 9(0.00135651 0.00103921 0.00080738 0.000641027 0.000520752 0.000432454 0.000366712 0.000317513 0.000281703);
    }
    Table_slave
    {
        type            kqRWallFunction;
        value           nonuniform List<scalar> 9(0.0017241 0.00144823 0.00127363 0.00115168 0.00105325 0.000960102 0.000875618 0.000790597 0.000696784);
    }
    inlet
    {
        type            turbulentIntensityKineticEnergyInlet;
        intensity       0.05;
        value           uniform 0.000937501;
    }
    outlet
    {
        type            zeroGradient;
    }
}


// ************************************************************************* //
