/*--------------------------------*- C++ -*----------------------------------*\
  =========                 |
  \\      /  F ield         | OpenFOAM: The Open Source CFD Toolbox
   \\    /   O peration     | Website:  https://openfoam.org
    \\  /    A nd           | Version:  6
     \\/     M anipulation  |
\*---------------------------------------------------------------------------*/
FoamFile
{
    version     2.0;
    format      ascii;
    class       volScalarField;
    location    "600";
    object      nut;
}
// * * * * * * * * * * * * * * * * * * * * * * * * * * * * * * * * * * * * * //

dimensions      [0 2 -1 0 0 0 0];

internalField   nonuniform List<scalar> 
458
(
0.00107177
0.0011667
0.0011933
0.0012505
0.0013032
0.00135313
0.00140311
0.00145378
0.00149517
0.0015211
0.00152388
0.00149594
0.00142769
0.00128245
0.00097458
0.000481366
0.000564223
0.000639969
0.000667712
0.000657407
0.000615069
0.000568237
0.000526359
0.000490111
0.000458639
0.00043117
0.000407141
0.000385847
0.000366465
0.000348089
0.000329642
0.000318592
0.000292739
0.00144424
0.00325295
0.00300186
0.00343981
0.00387715
0.0043267
0.00472952
0.00504194
0.0053625
0.00566216
0.00590213
0.00604723
0.00605911
0.00584414
0.00474121
0.00128663
0.00106772
0.000870831
0.000477168
0.00113371
0.00165342
0.00205572
0.00218286
0.00158963
0.00134129
0.00117233
0.0010476
0.000952132
0.000876394
0.000811339
0.000750232
0.000689188
0.000634583
0.000588938
0.00072036
0.000384221
0.00175541
0.00437333
0.00361311
0.00440257
0.00473643
0.00497116
0.00515168
0.00531902
0.00555101
0.00583252
0.00613996
0.00644081
0.00667654
0.00675505
0.00636096
0.00518469
0.00392581
0.00102974
0.000733492
0.00126701
0.00184629
0.002423
0.00258841
0.000827095
0.00072393
0.000638092
0.000568569
0.00051246
0.000466997
0.000430038
0.000400152
0.000376912
0.000417564
0.000483748
0.000845915
0.00045386
0.00205515
0.00558386
0.00351736
0.00456197
0.00474527
0.00472857
0.00471332
0.00479438
0.0049833
0.00526226
0.00561681
0.00601178
0.00635458
0.00656611
0.00651425
0.0061759
0.00529854
0.00290841
0.00118565
0.00150525
0.00206935
0.00276326
0.0033668
0.00339938
0.00093245
0.0008546
0.000801432
0.000762098
0.000728805
0.00069583
0.000664511
0.000631425
0.00059278
0.00055812
0.000550019
0.00100852
0.00052268
0.00236153
0.00721155
0.0036907
0.00433222
0.00459368
0.00444021
0.00431581
0.00438898
0.00458749
0.00487761
0.00526042
0.00569399
0.00602849
0.00619301
0.00618634
0.00606691
0.00571539
0.00472508
0.0042746
0.00430723
0.00456039
0.00486252
0.00504952
0.00496943
0.00424127
0.00386534
0.00365745
0.00350839
0.00335761
0.00316215
0.00283313
0.00241021
0.00192966
0.00146723
0.00110051
0.00102618
0.000888984
0.000698694
0.000739796
0.000804232
0.00268958
0.0090451
0.00505188
0.00401546
0.00437446
0.00436904
0.00420776
0.00426986
0.00447059
0.00476073
0.00514945
0.00556442
0.00587476
0.00597082
0.00587412
0.00573866
0.00567727
0.00559372
0.00575811
0.00605033
0.00625761
0.00629811
0.00616455
0.00587971
0.00547867
0.00515146
0.00489574
0.00466977
0.00444734
0.00421067
0.00390449
0.00348678
0.00296014
0.00236618
0.00181777
0.00131895
0.00108307
0.000943866
0.00118807
0.000834223
0.00301214
0.0104289
0.00752675
0.00493863
0.00430362
0.00436859
0.00441986
0.00444731
0.00455995
0.00481684
0.00520061
0.00561249
0.00589634
0.00592343
0.00574191
0.0056138
0.00583012
0.00630453
0.00678817
0.00706495
0.00707003
0.00684049
0.0064478
0.00596753
0.00548645
0.00509641
0.00479874
0.00455617
0.00434345
0.00415233
0.00397854
0.00375213
0.00338318
0.00289209
0.00238311
0.0018951
0.00157627
0.00144331
0.00137515
0.000991714
0.00309161
0.00967018
0.00821573
0.00690423
0.00590444
0.0054645
0.005036
0.0047471
0.00474318
0.00499163
0.00539089
0.00579818
0.00603507
0.00597332
0.00575264
0.00581331
0.00642826
0.00692944
0.00719377
0.00718754
0.00690882
0.00642185
0.00581934
0.00520794
0.00469573
0.00433328
0.00408689
0.00390905
0.00377689
0.00368717
0.003646
0.00364544
0.00354654
0.00325551
0.00297225
0.00281421
0.00288201
0.00304075
0.0036088
0.00153544
0.00303065
0.00365357
0.00403439
0.0042464
0.004277
0.00421263
0.00421685
0.00439869
0.00476593
0.00523534
0.00571345
0.00608326
0.00619309
0.00597116
0.00592097
0.0062339
0.0065932
0.00671774
0.00663258
0.00632625
0.00580716
0.00516163
0.00451231
0.00397496
0.00360017
0.00336001
0.00319858
0.00307612
0.00297209
0.00287488
0.00277571
0.00266736
0.00256957
0.0024851
0.0024289
0.00239682
0.00233642
0.00221307
0.00206356
0.00143432
0.00133144
0.00234135
0.00321993
0.00391358
0.00455091
0.00517506
0.00567502
0.00601734
0.0062333
0.00625174
0.00603292
0.00577169
0.00577794
0.00588793
0.00581438
0.00558511
0.00521969
0.00472473
0.00415429
0.0035923
0.00314161
0.00283675
0.00264958
0.00253499
0.00245936
0.00240464
0.00236293
0.0023323
0.00231515
0.00232069
0.00233425
0.00234633
0.00234687
0.00230959
0.00219501
0.00199346
0.00174378
0.00115418
0.00201494
0.00396892
0.00510478
0.00584679
0.00642462
0.0064781
0.00615867
0.0058383
0.00552228
0.00494566
0.00454677
0.00445404
0.00439671
0.0042285
0.00397044
0.00364763
0.00326759
0.00286683
0.00250564
0.00222717
0.00203425
0.00192361
0.00187247
0.00186224
0.0018815
0.00192302
0.00198068
0.00204717
0.002125
0.0022139
0.00230887
0.00240203
0.00247777
0.0025156
0.00248019
0.0024493
0.00225723
0.00116925
0.00211983
0.00217243
0.00222014
0.00247034
0.00233465
0.00206855
0.00174767
0.00149105
0.00133162
0.0011787
0.0010429
0.00093657
0.000845915
0.000777962
0.000731075
0.000696863
0.000669329
0.000645651
0.000626135
0.000613014
0.000608183
0.000611907
0.000623051
0.000639307
0.000659772
0.00068397
0.000711769
0.000743334
0.000779195
0.000820461
0.000867371
0.000919597
0.000977414
0.0010411
0.00111069
0.0011941
0.00123039
0.00120507
0.0011209
0.00103668
)
;

boundaryField
{
    floor
    {
        type            nutkWallFunction;
        Cmu             0.09;
        kappa           0.41;
        E               9.8;
        value           nonuniform List<scalar> 
36
(
0.000117723
5.73291e-05
6.78616e-05
7.73244e-05
8.07553e-05
7.94829e-05
7.42293e-05
6.83667e-05
6.3074e-05
5.84508e-05
5.44021e-05
5.08398e-05
4.77002e-05
4.48982e-05
4.23304e-05
3.98798e-05
3.74027e-05
3.59103e-05
3.23913e-05
3.23912e-05
4.46827e-05
5.37836e-05
6.26057e-05
8.45662e-05
8.9592e-05
9.74057e-05
0.000117723
0.000153939
0.000128654
0.000105403
5.73291e-05
0.000105403
5.67897e-05
0.000124211
8.88239e-05
0.000142342
)
;
    }
    ceiling
    {
        type            nutkWallFunction;
        Cmu             0.09;
        kappa           0.41;
        E               9.8;
        value           nonuniform List<scalar> 
43
(
0.000246263
0.000251943
0.000257083
0.000283929
0.000269478
0.000240818
0.000205705
0.000177111
0.000159074
0.000141542
0.000125755
0.00011323
0.00010242
9.42295e-05
8.85287e-05
8.43417e-05
8.09542e-05
7.80277e-05
7.5606e-05
7.39727e-05
7.33701e-05
7.38346e-05
7.52224e-05
7.72415e-05
7.97745e-05
8.27576e-05
8.61689e-05
9.00233e-05
9.43788e-05
9.93617e-05
0.000104991
0.000111216
0.00011806
0.000125545
0.000133666
0.000143323
0.0001475
0.000144588
0.000134853
0.000125029
0.000343272
0.000407627
0.000234813
)
;
    }
    sWall
    {
        type            nutkWallFunction;
        Cmu             0.09;
        kappa           0.41;
        E               9.8;
        value           uniform 0.000246329;
    }
    nWall
    {
        type            nutkWallFunction;
        Cmu             0.09;
        kappa           0.41;
        E               9.8;
        value           nonuniform List<scalar> 6(9.74063e-05 0.000101018 0.00011975 0.000138722 0.000140465 0.000125036);
    }
    sideWalls
    {
        type            empty;
    }
    glass1
    {
        type            nutkWallFunction;
        Cmu             0.09;
        kappa           0.41;
        E               9.8;
        value           nonuniform List<scalar> 9(0.000129235 0.000172066 0.000206886 0.00023979 0.000272892 0.000307834 0.000341758 0.000350067 0.00034372);
    }
    glass2
    {
        type            nutkWallFunction;
        Cmu             0.09;
        kappa           0.41;
        E               9.8;
        value           nonuniform List<scalar> 2(0.000182194 0.000170806);
    }
    sun
    {
        type            nutkWallFunction;
        Cmu             0.09;
        kappa           0.41;
        E               9.8;
        value           nonuniform List<scalar> 
14
(
0.00012913
0.000140153
0.000143223
0.000149801
0.000155831
0.000161519
0.00016719
0.000172916
0.000177577
0.000180489
0.0001808
0.000177662
0.00016997
0.000153459
)
;
    }
    Table_master
    {
        type            nutkWallFunction;
        Cmu             0.09;
        kappa           0.41;
        E               9.8;
        value           nonuniform List<scalar> 9(0.000100159 8.76574e-05 7.70941e-05 6.84128e-05 6.13122e-05 5.54884e-05 5.07018e-05 4.67934e-05 4.37285e-05);
    }
    Table_slave
    {
        type            nutkWallFunction;
        Cmu             0.09;
        kappa           0.41;
        E               9.8;
        value           nonuniform List<scalar> 9(0.000112739 0.00010346 9.70673e-05 9.23056e-05 8.82525e-05 8.42164e-05 8.03617e-05 7.62659e-05 7.14488e-05);
    }
    inlet
    {
        type            calculated;
        value           uniform 0.000167705;
    }
    outlet
    {
        type            calculated;
        value           nonuniform List<scalar> 2(0.00211983 0.00217243);
    }
}


// ************************************************************************* //
