/*--------------------------------*- C++ -*----------------------------------*\
  =========                 |
  \\      /  F ield         | OpenFOAM: The Open Source CFD Toolbox
   \\    /   O peration     | Website:  https://openfoam.org
    \\  /    A nd           | Version:  6
     \\/     M anipulation  |
\*---------------------------------------------------------------------------*/
FoamFile
{
    version     2.0;
    format      ascii;
    class       volScalarField;
    location    "3300";
    object      nut;
}
// * * * * * * * * * * * * * * * * * * * * * * * * * * * * * * * * * * * * * //

dimensions      [0 2 -1 0 0 0 0];

internalField   nonuniform List<scalar> 
662
(
0.00100541
0.00108659
0.00110556
0.00115761
0.00120615
0.00125218
0.00129782
0.00134577
0.00139408
0.00143885
0.00147395
0.00148654
0.00145672
0.00136016
0.00110443
0.000501247
0.000589266
0.000667605
0.000692548
0.000678761
0.000633524
0.000584344
0.00054051
0.000502643
0.000469839
0.000441282
0.000416335
0.000394306
0.000374347
0.000355534
0.000336832
0.000326642
0.000301025
0.0013714
0.00289871
0.00259225
0.0029662
0.00332212
0.00369199
0.00405006
0.00435079
0.00464875
0.0050086
0.00541486
0.0058096
0.0060828
0.0060762
0.00525838
0.00133679
0.00110037
0.000895106
0.000500283
0.00119032
0.0017386
0.00216108
0.0022847
0.00166102
0.00139872
0.00122063
0.00108912
0.000988309
0.000908228
0.000840373
0.000777165
0.000714387
0.000657931
0.000610069
0.000748843
0.000398198
0.0017014
0.00403266
0.00298676
0.00379408
0.00413068
0.00434223
0.00446132
0.00453398
0.00465555
0.00491035
0.00533094
0.00591265
0.00652276
0.00691627
0.00673826
0.00555039
0.00431013
0.00107245
0.000789435
0.00135918
0.00197371
0.0025804
0.00273573
0.000859157
0.000749442
0.000659129
0.000586435
0.000527981
0.000480701
0.000442243
0.000411087
0.000386748
0.000427407
0.000495939
0.000881784
0.000472135
0.00203899
0.00553179
0.00299076
0.00392129
0.00428851
0.00429763
0.0041367
0.00396375
0.0039205
0.00407009
0.00447966
0.00520133
0.00603519
0.00664397
0.00684299
0.00662227
0.00577015
0.00318721
0.00124988
0.00161567
0.00224165
0.00299341
0.00363123
0.00362622
0.000968921
0.000882986
0.00082399
0.000780266
0.000743525
0.000707826
0.000673962
0.000638383
0.000597175
0.000562859
0.000561465
0.00106289
0.000542669
0.00237603
0.00721573
0.00384415
0.00359016
0.00415537
0.00422591
0.00397589
0.0036187
0.00345729
0.00352962
0.00392295
0.00474116
0.00564625
0.00622593
0.00649125
0.00652002
0.00622748
0.00519263
0.00475219
0.00477252
0.00503098
0.00532668
0.00549119
0.00535711
0.00449543
0.0040578
0.00381206
0.00363487
0.00346021
0.00323982
0.00288851
0.00244644
0.00195097
0.00148049
0.00111262
0.00104894
0.000929143
0.000728298
0.00076268
0.000827529
0.00275439
0.00871376
0.00570281
0.00377688
0.00361695
0.00378013
0.00382653
0.0035508
0.00336276
0.00338446
0.00376761
0.00458502
0.00553356
0.00604584
0.00622724
0.00625557
0.00628204
0.00625146
0.00646595
0.00673951
0.00690085
0.00688614
0.00669836
0.0063539
0.0058699
0.00546687
0.00514604
0.00486329
0.00459056
0.00431006
0.00397185
0.0035313
0.00299143
0.00239253
0.0018463
0.00132955
0.00111127
0.000984751
0.00123045
0.000859913
0.00129393
0.00408006
0.00531329
0.00462531
0.00390816
0.00361533
0.00358755
0.00356209
0.00341437
0.00333403
0.00361749
0.00443629
0.00575231
0.00612807
0.0062219
0.00628476
0.00661705
0.00713705
0.00759253
0.00780345
0.00773975
0.00744621
0.00699441
0.00645234
0.00589589
0.00542249
0.00504162
0.004722
0.00444232
0.00419713
0.00398572
0.00376016
0.0034006
0.00291818
0.00242479
0.00194497
0.00163511
0.00149685
0.00139981
0.00102025
0.00101988
0.00206238
0.00296663
0.00359197
0.00386752
0.00382732
0.0036785
0.00350902
0.00330704
0.00332274
0.00390365
0.00494472
0.00614128
0.00636222
0.00642299
0.00670062
0.00730349
0.00774677
0.00794818
0.00787631
0.00753707
0.00699149
0.00632768
0.00564383
0.00504314
0.00458464
0.00424763
0.0039929
0.00380111
0.00366955
0.0036026
0.00359547
0.00355894
0.00329097
0.00303584
0.0028991
0.00295632
0.00304311
0.00368447
0.00154198
0.000264932
0.00129491
0.00209176
0.00259711
0.00282555
0.0028864
0.00302977
0.00364713
0.0047598
0.00580451
0.00648829
0.00656407
0.00681093
0.0071102
0.00735828
0.00742261
0.00729746
0.00694773
0.00638291
0.00568386
0.00496718
0.00434451
0.00387478
0.00354448
0.00330658
0.0031247
0.00297944
0.00285943
0.00275548
0.00265873
0.00257609
0.00250898
0.00246343
0.00243598
0.00237917
0.00226222
0.00210759
0.00144368
0.0006212
0.000651978
0.00121007
0.00183348
0.00237719
0.00298357
0.0039267
0.00510854
0.00600578
0.00633632
0.0064133
0.00654206
0.0066104
0.0065547
0.00638355
0.00614332
0.00580037
0.00532781
0.00475672
0.00417089
0.0036667
0.00328575
0.00301678
0.0028262
0.00268499
0.0025768
0.00249466
0.0024371
0.00240642
0.00240639
0.00242557
0.00245301
0.00248106
0.00249222
0.0024641
0.0023917
0.00213292
0.00119626
0.00107285
0.00286645
0.00147422
0.00130255
0.00198336
0.00287736
0.00385076
0.0048963
0.00573013
0.00606482
0.00590953
0.00539926
0.00494189
0.00501085
0.00488961
0.0047051
0.00451121
0.00428324
0.00399646
0.00366295
0.0033206
0.00300818
0.00275657
0.00256763
0.00243094
0.00233611
0.00227662
0.00224827
0.00224649
0.00226412
0.00230533
0.00237065
0.00245354
0.00254519
0.00263169
0.00269682
0.00274822
0.00284261
0.00191969
0.00124086
0.000825243
0.00199047
0.00271588
0.00328521
0.00374823
0.00413501
0.0043833
0.00442609
0.00421552
0.00375243
0.00294669
0.00178022
0.000884877
0.000863582
0.000842966
0.000823314
0.000803848
0.000783028
0.000761188
0.000740763
0.00072492
0.000715805
0.000713014
0.00071624
0.000724985
0.000738908
0.000757905
0.000782131
0.0008121
0.000848942
0.000892581
0.000942786
0.000999665
0.0010631
0.00113239
0.00120703
0.00124913
0.00113611
0.00106115
0.00119846
0.00216352
0.00555544
0.00522464
0.00424822
0.00372067
0.00358535
0.00360261
0.00349329
0.00335413
0.00341177
0.00397272
0.00494851
0.00160648
0.00259472
0.00330803
0.0037814
0.00387309
0.00375605
0.00360101
0.00340244
0.00326283
0.00353234
0.00439936
0.00544987
0.00083917
0.00172567
0.00238267
0.00274089
0.00286628
0.00292432
0.00326024
0.00417011
0.00532812
0.00614644
0.000497972
0.000903549
0.00152937
0.00211297
0.00265349
0.00340083
0.00452006
0.00562237
0.00623372
0.00638612
0.00304338
0.00240355
0.00113604
0.001616
0.00240353
0.00334938
0.00437536
0.00536647
0.0059556
0.00605271
0.00565506
0.00526398
0.00209739
0.00234191
0.00306421
0.00352284
0.00395431
0.00428002
0.00443491
0.00435254
0.00401733
0.00340242
0.00238424
0.00128523
0.0013506
0.00271979
0.00405323
0.00443503
0.00422397
0.00389405
0.00369227
0.0035729
0.00339594
0.00332422
0.00371076
0.00463425
0.00107824
0.00118231
0.0015968
0.00234712
0.00297046
0.00326867
0.00331617
0.00323707
0.00314456
0.00338852
0.00423999
0.00535094
0.000464827
0.000743834
0.00146314
0.00206539
0.00244757
0.00271162
0.00321133
0.00423832
0.0054175
0.00618664
0.000488707
0.000778851
0.00134173
0.00204494
0.00284307
0.00386469
0.00499819
0.00586192
0.00623373
0.0061059
0.00108277
0.00270568
0.00233728
0.00242074
0.00312163
0.00391414
0.00467309
0.00530047
0.00560228
0.00546605
0.00489722
0.00412706
0.000989394
0.000902381
0.000956925
0.000993609
0.00098554
0.000936474
0.000854237
0.00074741
0.000635216
0.000532603
0.000444127
0.000412071
0.00187083
0.00361312
0.00436181
0.00437567
0.00405054
0.00377246
0.00363879
0.00348785
0.00332658
0.00344136
0.00412656
0.00515366
0.00109811
0.00120048
0.00196757
0.00269619
0.00315876
0.00331541
0.00328544
0.00317645
0.00319694
0.00374462
0.0048042
0.00579806
0.000447856
0.00110143
0.00179102
0.00228173
0.00258056
0.0028994
0.00366778
0.00485046
0.00587091
0.00637338
0.00055187
0.00103582
0.00168185
0.00242697
0.00331799
0.0044558
0.00547687
0.00612271
0.00620113
0.00608345
0.00295473
0.0026544
0.00225308
0.00275126
0.00351246
0.0043005
0.00501476
0.00550323
0.00558815
0.005236
0.00449102
0.00401751
0.000879134
0.000933236
0.000977454
0.000995739
0.000965407
0.000899187
0.000802913
0.000690599
0.000582641
0.000485202
0.000417343
0.00042278
)
;

boundaryField
{
    floor
    {
        type            nutkWallFunction;
        Cmu             0.09;
        kappa           0.41;
        E               9.8;
        value           nonuniform List<scalar> 
36
(
0.000132929
5.98796e-05
7.10095e-05
8.07446e-05
8.38148e-05
8.21198e-05
7.65277e-05
7.03931e-05
6.48721e-05
6.00581e-05
5.58515e-05
5.21594e-05
4.89094e-05
4.6019e-05
4.33823e-05
4.08804e-05
3.83763e-05
3.70041e-05
3.35293e-05
3.35292e-05
4.65297e-05
5.61452e-05
6.51431e-05
8.81899e-05
9.2376e-05
0.000100212
0.000132929
0.000159656
0.000132458
0.0001083
5.98796e-05
0.0001083
5.97561e-05
0.000129205
9.56181e-05
0.000149727
)
;
    }
    ceiling
    {
        type            nutkWallFunction;
        Cmu             0.09;
        kappa           0.41;
        E               9.8;
        value           nonuniform List<scalar> 
58
(
0.000106383
0.000112814
0.000118039
0.000120194
0.000116625
0.000108779
9.7245e-05
8.35753e-05
7.01798e-05
5.78263e-05
4.90426e-05
4.97526e-05
0.000107082
0.000104537
0.000102067
9.97052e-05
9.73595e-05
9.48432e-05
9.21952e-05
8.97105e-05
8.77775e-05
8.66632e-05
8.63217e-05
8.67165e-05
8.77855e-05
8.94843e-05
9.1796e-05
9.47342e-05
9.83541e-05
0.000102783
0.000108
0.000113965
0.000120679
0.000128117
0.000136182
0.000144808
0.000149647
0.000136614
0.00012789
0.000143824
0.00013224
0.000144089
5.83853e-05
9.99311e-05
0.000109152
0.000115617
0.000119942
0.000118996
0.000113206
0.000103413
9.05207e-05
7.67378e-05
6.38706e-05
5.25294e-05
4.8353e-05
0.000123099
0.000141996
7.50434e-05
)
;
    }
    sWall
    {
        type            nutkWallFunction;
        Cmu             0.09;
        kappa           0.41;
        E               9.8;
        value           nonuniform List<scalar> 4(0.000130389 0.000119455 0.000129232 9.99342e-05);
    }
    nWall
    {
        type            nutkWallFunction;
        Cmu             0.09;
        kappa           0.41;
        E               9.8;
        value           nonuniform List<scalar> 6(0.000100213 0.000104099 0.000123103 0.00014358 0.000148711 0.000143834);
    }
    sideWalls
    {
        type            empty;
    }
    glass1
    {
        type            nutkWallFunction;
        Cmu             0.09;
        kappa           0.41;
        E               9.8;
        value           nonuniform List<scalar> 10(0.000121439 0.000163799 0.000200894 0.000238027 0.000274442 0.000314675 0.000161394 0.000129994 0.000154931 0.000123145);
    }
    glass2
    {
        type            nutkWallFunction;
        Cmu             0.09;
        kappa           0.41;
        E               9.8;
        value           nonuniform List<scalar> 2(0.000182924 0.000171862);
    }
    sun
    {
        type            nutkWallFunction;
        Cmu             0.09;
        kappa           0.41;
        E               9.8;
        value           nonuniform List<scalar> 
14
(
0.000121355
0.000130854
0.000133062
0.000139099
0.000144701
0.00014999
0.000155213
0.000160678
0.000166162
0.000171225
0.000175183
0.0001766
0.000173241
0.000162312
)
;
    }
    Table_master
    {
        type            nutkWallFunction;
        Cmu             0.09;
        kappa           0.41;
        E               9.8;
        value           nonuniform List<scalar> 9(0.000104007 9.07696e-05 7.9701e-05 7.06594e-05 6.32902e-05 5.72563e-05 5.22938e-05 4.82338e-05 4.50351e-05);
    }
    Table_slave
    {
        type            nutkWallFunction;
        Cmu             0.09;
        kappa           0.41;
        E               9.8;
        value           nonuniform List<scalar> 9(0.000117054 0.000106855 9.9787e-05 9.45101e-05 9.0049e-05 8.56896e-05 8.15297e-05 7.71323e-05 7.20018e-05);
    }
    inlet
    {
        type            calculated;
        value           uniform 0.000167705;
    }
    outlet
    {
        type            calculated;
        value           nonuniform List<scalar> 4(0.00304338 0.00240355 0.00108277 0.00286645);
    }
}


// ************************************************************************* //
