/*--------------------------------*- C++ -*----------------------------------*\
  =========                 |
  \\      /  F ield         | OpenFOAM: The Open Source CFD Toolbox
   \\    /   O peration     | Website:  https://openfoam.org
    \\  /    A nd           | Version:  6
     \\/     M anipulation  |
\*---------------------------------------------------------------------------*/
FoamFile
{
    version     2.0;
    format      ascii;
    class       volScalarField;
    location    "29599.9999981957044";
    object      alphat;
}
// * * * * * * * * * * * * * * * * * * * * * * * * * * * * * * * * * * * * * //

dimensions      [1 -1 -1 0 0 0 0];

internalField   nonuniform List<scalar> 
778
(
0.00104102
0.00111058
0.00110658
0.0011546
0.00119861
0.00123857
0.00127577
0.00131163
0.00134773
0.00138611
0.00142271
0.00145751
0.0014918
0.0015287
0.0015672
0.000736679
0.00105575
0.00106426
0.00103847
0.000995331
0.000937691
0.000880286
0.000827451
0.00077984
0.000737151
0.000699097
0.000664908
0.000633757
0.000604678
0.00057638
0.000546791
0.000522212
0.000472656
0.0015247
0.00300743
0.00263941
0.00304654
0.00334196
0.0036551
0.00396741
0.00425517
0.00448677
0.00462159
0.00470092
0.00466843
0.00443593
0.00385949
0.002819
0.00171617
0.00163628
0.00156634
0.00131899
0.00224678
0.00311443
0.00362686
0.00365076
0.00288067
0.00246371
0.00217455
0.00195501
0.00178044
0.00163171
0.00150022
0.00137785
0.00125812
0.00115066
0.001058
0.00119155
0.000599351
0.0019342
0.00419901
0.00311343
0.00445343
0.00497619
0.00541844
0.00581995
0.00617321
0.0064724
0.00670701
0.00693448
0.00717416
0.0073949
0.00752714
0.00744199
0.00681571
0.00498578
0.00192153
0.00166356
0.00355827
0.00496676
0.00563395
0.00512501
0.0013523
0.00117589
0.00103972
0.000933145
0.000848341
0.000779912
0.000724121
0.000678758
0.000643392
0.000707227
0.000831886
0.001317
0.000681963
0.00232918
0.00565877
0.0029791
0.00500687
0.00578072
0.00619454
0.00649861
0.00672335
0.00689093
0.00702672
0.00722014
0.00754747
0.00802567
0.00862767
0.00923364
0.0095339
0.00895578
0.00668632
0.00191346
0.00442636
0.00658781
0.00768849
0.00796193
0.00679916
0.00153942
0.00140031
0.00129261
0.00120298
0.00112657
0.00105795
0.000993278
0.000929068
0.000859738
0.000803066
0.000832251
0.00142547
0.000751094
0.00271847
0.007491
0.00300572
0.00475913
0.00594883
0.00630158
0.00642931
0.00643377
0.00636932
0.00631223
0.0063929
0.00671067
0.00729451
0.00812204
0.00908231
0.00996758
0.0105293
0.0105234
0.00944387
0.00960765
0.00982838
0.00986074
0.00966191
0.00904526
0.00719976
0.00621989
0.00554852
0.0050036
0.00446844
0.00394968
0.00344204
0.00293512
0.00241456
0.00185479
0.0014155
0.00141331
0.00111856
0.000895587
0.00117967
0.00113454
0.00310143
0.00954128
0.00353878
0.0040129
0.00569923
0.00609064
0.00605889
0.00584028
0.005528
0.00527044
0.00526441
0.00559731
0.0062625
0.00722201
0.0083451
0.0094676
0.0104218
0.0110313
0.0111422
0.0110302
0.0108349
0.0105581
0.0102024
0.00974961
0.00908814
0.00845046
0.00787124
0.0073118
0.00670707
0.00606092
0.00537066
0.00463065
0.00383626
0.00299358
0.00223106
0.00167526
0.00130127
0.00145396
0.00252207
0.00135804
0.00349222
0.0114364
0.00471582
0.00328758
0.00512044
0.00576078
0.00568934
0.00533595
0.00482361
0.00437308
0.00435992
0.00478033
0.00554194
0.00661511
0.00783553
0.00904356
0.0100825
0.0108259
0.0111675
0.0111407
0.0108961
0.0105259
0.0101021
0.00967936
0.00927043
0.00889499
0.00854214
0.00816584
0.00771083
0.00716295
0.00651435
0.00576206
0.00490888
0.00397644
0.00306534
0.00221798
0.0016345
0.00145524
0.00256744
0.00159851
0.00382796
0.0128689
0.00642872
0.00313097
0.00405552
0.00510642
0.00525303
0.00496284
0.00435707
0.00374498
0.0038835
0.00443979
0.00529219
0.00639853
0.0076672
0.00893198
0.0100094
0.010757
0.0110957
0.0110506
0.0107343
0.0102681
0.00976679
0.00932221
0.00897956
0.00873475
0.00854372
0.00833624
0.00804706
0.00764231
0.00710633
0.00643595
0.00563727
0.00473375
0.00379453
0.00285065
0.00199846
0.0013433
0.00363452
0.00208084
0.00392911
0.012173
0.00795133
0.00404871
0.00274968
0.00336783
0.0039422
0.0039913
0.003524
0.00342488
0.00378049
0.00443517
0.00535794
0.00653251
0.00786314
0.00916702
0.01024
0.0109288
0.0111693
0.0110014
0.0105427
0.00994141
0.00934462
0.00886843
0.0085663
0.00841811
0.00835084
0.00827098
0.00810424
0.00781146
0.00737723
0.0067998
0.00608603
0.00525486
0.00434347
0.00332308
0.00193857
0.00170707
0.00547692
0.00239094
0.00384953
0.00980956
0.00820771
0.00555493
0.0036699
0.00284095
0.00268974
0.00281597
0.00305254
0.00342897
0.00396379
0.00470157
0.00570671
0.00697465
0.00837845
0.00970031
0.0107158
0.0112726
0.0113283
0.010951
0.0102885
0.00952598
0.00884465
0.0083777
0.00816406
0.0081395
0.00818582
0.00818483
0.00807605
0.00783812
0.00746395
0.0069527
0.00630783
0.00553559
0.00461019
0.00318517
0.00141596
0.00338088
0.00516112
0.00241373
0.0036057
0.00838224
0.00793313
0.00635386
0.00489182
0.00393867
0.00346668
0.00335944
0.00355414
0.0039133
0.00443683
0.00521714
0.00632902
0.00772037
0.00919542
0.0104874
0.0113595
0.0116801
0.0114475
0.0107773
0.00986804
0.00895653
0.00826245
0.00791448
0.00787557
0.00799065
0.00810524
0.00810738
0.00799185
0.00776094
0.00741038
0.00693346
0.00632423
0.00556719
0.00455745
0.00274689
0.00160279
0.00377545
0.00494842
0.00237887
0.00328281
0.00755728
0.00765115
0.00672362
0.00572148
0.00496635
0.00452141
0.00436227
0.0044017
0.00461895
0.00510129
0.00597529
0.0072625
0.00880358
0.0103076
0.0114653
0.0120547
0.0119971
0.01136
0.0103289
0.00917822
0.00821471
0.00766896
0.00756178
0.00766119
0.0078126
0.00790987
0.00788156
0.00774695
0.00751423
0.00717482
0.0067061
0.00608738
0.00527892
0.00417956
0.00255371
0.00175272
0.0038672
0.00544541
0.00235867
0.00299327
0.00676031
0.00730527
0.0068679
0.00622521
0.00568484
0.00532529
0.00514937
0.00509753
0.00528503
0.0059001
0.00704439
0.00860225
0.0102674
0.0116669
0.0124955
0.0126003
0.0119982
0.0108597
0.0094654
0.00819901
0.00738887
0.00704078
0.00701041
0.00711925
0.00724966
0.00732568
0.00729816
0.00716101
0.00692663
0.00657865
0.00607739
0.00536681
0.00440923
0.00327191
0.00222094
0.00200548
0.00399799
0.00553461
0.00250993
0.00300434
0.0067099
0.00746445
0.00695038
0.00643009
0.00600391
0.00569658
0.00549731
0.00549147
0.00594751
0.00703387
0.00865521
0.0104782
0.0120766
0.0130807
0.0132814
0.0126671
0.0113852
0.00975375
0.00817178
0.0070282
0.00637162
0.00608218
0.00602639
0.00608727
0.00617272
0.00622225
0.00619882
0.00605159
0.00579505
0.00539157
0.0047651
0.00386876
0.00286337
0.00215307
0.00199086
0.00248585
0.00449617
0.00558452
0.00256091
0.00271025
0.00282022
0.00416556
0.00489761
0.00512487
0.00512946
0.00508084
0.00517844
0.00581281
0.00716383
0.00906389
0.0111084
0.0128429
0.0138946
0.0140554
0.0133002
0.0118179
0.00988655
0.00804619
0.00661638
0.00567774
0.00515856
0.00493173
0.00485863
0.00483933
0.00481622
0.00476304
0.00466832
0.00449287
0.00420883
0.00378944
0.00318509
0.00248717
0.00200923
0.00197579
0.00236258
0.00319478
0.00492834
0.00600763
0.00253358
0.00096442
0.00173849
0.00266597
0.00340876
0.00427301
0.00574671
0.00791514
0.0103212
0.0125044
0.0141197
0.0149342
0.0148062
0.0137591
0.0119178
0.00974925
0.00771201
0.00611728
0.00507215
0.00451632
0.00425609
0.00412229
0.00402045
0.00390801
0.00377174
0.00361558
0.00345035
0.00328178
0.00307704
0.00282771
0.00252063
0.0022241
0.00212576
0.00237027
0.00294272
0.00375906
0.00466411
0.00512067
0.00240942
0.00178746
0.00246698
0.00358632
0.00558823
0.00830907
0.0110322
0.0131414
0.0146579
0.0155608
0.01578
0.0151981
0.0137123
0.0115655
0.00918156
0.00703644
0.00547307
0.00459073
0.00419417
0.00402711
0.00393657
0.00385705
0.0037657
0.00365986
0.0035465
0.00343498
0.0033313
0.00323397
0.00313067
0.00301505
0.00289191
0.00278925
0.00279593
0.00303681
0.00356423
0.00429356
0.00496175
0.00516449
0.00235668
0.00323889
0.00786814
0.00725622
0.00648307
0.00822096
0.0109483
0.0132466
0.0147966
0.0156123
0.0158055
0.0154567
0.0145194
0.0129527
0.0108302
0.008485
0.00644557
0.00513737
0.00452729
0.00430188
0.00421816
0.00416416
0.00409905
0.00401326
0.0039111
0.00380324
0.00370295
0.00362368
0.00357654
0.00356701
0.00358975
0.00362404
0.00366112
0.00372593
0.00386447
0.00414453
0.00464037
0.00539927
0.00639407
0.0066545
0.00260587
0.00309552
0.00597834
0.0077142
0.00987288
0.0109497
0.0120592
0.0127028
0.0128556
0.0126074
0.0120141
0.0110853
0.00980811
0.00824216
0.00661998
0.00529425
0.00449264
0.00413355
0.00401338
0.00398656
0.00397917
0.00395855
0.00391365
0.00384522
0.00376062
0.00367174
0.00359511
0.00355176
0.00356474
0.00365344
0.00382548
0.00406374
0.00430891
0.0045249
0.00477627
0.00513853
0.0056787
0.00644942
0.00761867
0.00728966
0.00278103
0.00289432
0.00248095
0.00246842
0.00254014
0.0025991
0.00252049
0.00236849
0.00219027
0.0020092
0.00183351
0.00166604
0.00151228
0.00138397
0.0012942
0.00124697
0.00123117
0.00123254
0.00124144
0.00125298
0.0012652
0.00127785
0.00129182
0.0013089
0.00133152
0.00136241
0.00140393
0.0014572
0.00152131
0.00159345
0.00167005
0.00174842
0.0018283
0.00191033
0.00199508
0.00208698
0.00218956
0.00230243
0.002428
0.00257174
0.00252992
)
;

boundaryField
{
    floor
    {
        type            compressible::alphatWallFunction;
        Prt             0.85;
        value           nonuniform List<scalar> 
36
(
0.000219866
0.000104461
0.000149989
0.000151178
0.000147568
0.000141506
0.000133358
0.000125186
0.000117608
0.00011073
0.000104521
9.89497e-05
9.39129e-05
8.92963e-05
8.49619e-05
8.07192e-05
7.62556e-05
7.25252e-05
6.49369e-05
6.49361e-05
8.41662e-05
9.64307e-05
0.000106555
0.000127374
0.00016724
0.00016099
0.000219864
0.000239692
0.000229081
0.000219746
0.00010446
0.000219744
0.000186335
0.000266718
0.000232705
0.000265662
)
;
    }
    ceiling
    {
        type            compressible::alphatWallFunction;
        Prt             0.85;
        value           nonuniform List<scalar> 
43
(
0.000391125
0.000338939
0.00033735
0.00034648
0.000353974
0.000344036
0.000324692
0.000301828
0.000278384
0.000255412
0.00023328
0.000212732
0.000195395
0.000183154
0.000176678
0.000174502
0.000174691
0.000175921
0.000177513
0.000179196
0.000180933
0.000182841
0.000185162
0.000188224
0.000192393
0.000197988
0.000205156
0.000213768
0.000223439
0.000233679
0.000244118
0.000254705
0.000265533
0.000276658
0.00028864
0.000301929
0.000316471
0.000332563
0.000350853
0.000345395
0.000368318
0.000382142
0.000248626
)
;
    }
    sWall
    {
        type            compressible::alphatWallFunction;
        Prt             0.85;
        value           nonuniform List<scalar> 9(0.000507612 0.000477866 0.000438161 0.000402221 0.000403593 0.000366743 0.000432095 0.000414367 0.000389374);
    }
    nWall
    {
        type            compressible::alphatWallFunction;
        Prt             0.85;
        value           nonuniform List<scalar> 
14
(
0.000160542
0.000191209
0.000223588
0.000329891
0.00032548
0.00032301
0.000342377
0.000348798
0.000344957
0.000329163
0.000322627
0.000354698
0.000376436
0.0003447
)
;
    }
    sideWalls
    {
        type            empty;
    }
    glass1
    {
        type            compressible::alphatWallFunction;
        Prt             0.85;
        value           nonuniform List<scalar> 9(0.000143932 0.00020914 0.000262698 0.00031331 0.000362385 0.00041001 0.000458023 0.000498881 0.000511237);
    }
    glass2
    {
        type            compressible::alphatWallFunction;
        Prt             0.85;
        value           nonuniform List<scalar> 2(0.000284835 0.000324618);
    }
    sun
    {
        type            compressible::alphatWallFunction;
        Prt             0.85;
        value           nonuniform List<scalar> 
14
(
0.000147966
0.000157652
0.000157093
0.00016376
0.00016984
0.00017534
0.000180441
0.000185343
0.000190263
0.000195476
0.000200434
0.000205133
0.000209752
0.000214708
)
;
    }
    Table_master
    {
        type            compressible::alphatWallFunction;
        Prt             0.85;
        value           nonuniform List<scalar> 9(0.00019114 0.000166952 0.000147997 0.000132962 0.000120854 0.000110979 0.000102852 9.61874e-05 9.09542e-05);
    }
    Table_slave
    {
        type            compressible::alphatWallFunction;
        Prt             0.85;
        value           nonuniform List<scalar> 9(0.000216414 0.000197663 0.000183003 0.000170695 0.000160121 0.000150555 0.000141472 0.000132386 0.000122492);
    }
    inlet
    {
        type            fixedValue;
        value           uniform 1.94e-05;
    }
    outlet
    {
        type            zeroGradient;
    }
}


// ************************************************************************* //
