/*--------------------------------*- C++ -*----------------------------------*\
  =========                 |
  \\      /  F ield         | OpenFOAM: The Open Source CFD Toolbox
   \\    /   O peration     | Website:  https://openfoam.org
    \\  /    A nd           | Version:  6
     \\/     M anipulation  |
\*---------------------------------------------------------------------------*/
FoamFile
{
    version     2.0;
    format      ascii;
    class       volScalarField;
    location    "29599.9999981957044";
    object      epsilon;
}
// * * * * * * * * * * * * * * * * * * * * * * * * * * * * * * * * * * * * * //

dimensions      [0 2 -3 0 0 0 0];

internalField   nonuniform List<scalar> 
778
(
0.000253146
0.000306392
0.000303041
0.000344215
0.000385074
0.000424867
0.000464289
0.000504529
0.000547324
0.000595393
0.000643786
0.000692128
0.000742075
0.000798425
0.000860204
8.94038e-05
0.000262809
0.000269195
0.000250093
0.000220206
0.00018413
0.000152348
0.000126536
0.000105932
8.94746e-05
7.63244e-05
6.56684e-05
5.68672e-05
4.93957e-05
4.27825e-05
3.65286e-05
3.18234e-05
2.36036e-05
0.000797073
0.00144336
0.00028701
0.000259591
0.000261679
0.000267639
0.000276522
0.000289936
0.00031017
0.000340349
0.000379538
0.00043064
0.000499031
0.00060027
0.000785483
0.00112921
0.000978616
0.000858391
0.000512476
0.000369844
0.000294508
0.000243097
0.000204192
0.000186978
0.000154703
0.000124985
0.00010068
8.14779e-05
6.65209e-05
5.48216e-05
4.56337e-05
3.87119e-05
3.45246e-05
3.27723e-05
6.58256e-05
4.81185e-05
0.00163082
0.00407971
0.000407457
0.000242924
0.000229089
0.000230994
0.000238203
0.000250462
0.000268353
0.000292607
0.00032472
0.000366787
0.000421199
0.000494967
0.000601448
0.000724771
0.000829767
0.00158446
0.0010279
0.000512611
0.000367984
0.00029451
0.000262283
0.000552089
0.00036299
0.000250925
0.000181405
0.000136307
0.000105913
8.47724e-05
6.98188e-05
5.94657e-05
4.51437e-05
3.7996e-05
0.000108232
7.08808e-05
0.00285392
0.00877202
0.00071008
0.000240731
0.000202466
0.000199993
0.000203159
0.000209778
0.000220586
0.000237491
0.000263174
0.000299926
0.000349172
0.000412371
0.000488135
0.000560368
0.000612369
0.000824066
0.00156425
0.000729118
0.000459895
0.000358348
0.000301935
0.000291821
0.000814451
0.000613012
0.000482174
0.000388658
0.000319205
0.000264361
0.000218782
0.000179036
0.000141872
8.38695e-05
5.49456e-05
0.000148728
9.46932e-05
0.00454673
0.0158303
0.00134686
0.000258376
0.000175725
0.000166773
0.000165776
0.000167748
0.000173906
0.000187404
0.000211643
0.000248332
0.000297784
0.000359395
0.000427925
0.000489338
0.000528602
0.000582346
0.000627123
0.000483022
0.00039338
0.000330963
0.000282262
0.000248617
0.000247844
0.000226786
0.000202929
0.000181013
0.000162615
0.000146454
0.000131799
0.000118232
0.000105101
8.45416e-05
6.42725e-05
0.000105331
0.000138979
0.00016053
0.000367097
0.00032679
0.00676477
0.0248825
0.00255457
0.000318164
0.000155541
0.000137054
0.000132111
0.000130676
0.000134443
0.000148532
0.000176681
0.000218066
0.00027084
0.00033425
0.000401924
0.000462853
0.000503108
0.000521664
0.000504646
0.000438127
0.00037373
0.000315593
0.000264717
0.000223386
0.000193302
0.00016964
0.000150811
0.000135604
0.000123257
0.000112704
0.000103255
9.45109e-05
8.60873e-05
7.59285e-05
6.53972e-05
7.76798e-05
9.99133e-05
0.000209575
0.00106495
0.000560504
0.00967386
0.0336407
0.00458577
0.000465224
0.00015087
0.000116342
0.000107081
0.000103272
0.000107066
0.000127896
0.000166101
0.00021589
0.000273395
0.000340312
0.000409679
0.000470825
0.000510459
0.000520589
0.000494337
0.000437613
0.000371834
0.000307486
0.000250559
0.000204448
0.000169754
0.000144557
0.000126316
0.000112719
0.000102253
9.36794e-05
8.61928e-05
7.93315e-05
7.28029e-05
6.61409e-05
6.03261e-05
6.38412e-05
7.69483e-05
0.00017418
0.00160134
0.000914124
0.0127611
0.0404081
0.00749276
0.000871975
0.000194411
0.000115415
9.73955e-05
9.14553e-05
9.86563e-05
0.000137673
0.000189237
0.000246267
0.000307218
0.00037424
0.000445412
0.000508748
0.000547954
0.000551297
0.000515903
0.000451689
0.00037563
0.000301061
0.000236548
0.000185997
0.000149324
0.000123977
0.000106697
9.4555e-05
8.57153e-05
7.87775e-05
7.2872e-05
6.75202e-05
6.24758e-05
5.76588e-05
5.39121e-05
5.59346e-05
7.10435e-05
0.000349204
0.00530617
0.00202086
0.0138288
0.0414554
0.0139361
0.00316663
0.000631112
0.000208331
0.000132792
0.00011604
0.000142499
0.000192888
0.000249224
0.000306457
0.000367668
0.000437355
0.00051211
0.000576803
0.000611751
0.000603701
0.000552501
0.000471248
0.000378762
0.000291147
0.000218415
0.000164104
0.000126811
0.000102618
8.7284e-05
7.73408e-05
7.06509e-05
6.56418e-05
6.14326e-05
5.7592e-05
5.39457e-05
5.05532e-05
4.82762e-05
5.28817e-05
0.000104472
0.00104128
0.0131456
0.00307013
0.0130045
0.0283637
0.0144164
0.00572961
0.00210663
0.000835958
0.000414397
0.000277228
0.00027925
0.000314666
0.000356099
0.000401894
0.000459209
0.000532083
0.000611519
0.000675413
0.000699681
0.0006712
0.000594232
0.000487147
0.000373147
0.000271135
0.00019145
0.000135931
0.000100768
7.99306e-05
6.80007e-05
6.12131e-05
5.71127e-05
5.4143e-05
5.15638e-05
4.90736e-05
4.66085e-05
4.43746e-05
4.37622e-05
5.73322e-05
0.000275758
0.00360545
0.0100255
0.00315933
0.0106877
0.0193502
0.0120376
0.00630184
0.00317633
0.00167617
0.000987756
0.000679713
0.000560482
0.000517579
0.000510607
0.000531942
0.000584854
0.000664623
0.000749551
0.00080669
0.000808154
0.000744491
0.00062847
0.000486743
0.000348374
0.000234257
0.000152938
0.000102043
7.37175e-05
5.89212e-05
5.14656e-05
4.80045e-05
4.61826e-05
4.48397e-05
4.3505e-05
4.20278e-05
4.04741e-05
3.92769e-05
4.08326e-05
7.01499e-05
0.00062207
0.00348451
0.0075659
0.00302674
0.00806894
0.0137645
0.0096899
0.00593335
0.00357028
0.00222812
0.00149137
0.00109364
0.000869729
0.000743876
0.000686345
0.000691186
0.00075258
0.000847466
0.000934668
0.000969694
0.000926175
0.00080553
0.000635401
0.000453243
0.000294169
0.000178209
0.000107337
6.9705e-05
5.2668e-05
4.45273e-05
4.06916e-05
3.92473e-05
3.86383e-05
3.81753e-05
3.7592e-05
3.68576e-05
3.62237e-05
3.64711e-05
4.08102e-05
7.50566e-05
0.000511009
0.00277279
0.00691434
0.00295525
0.0061211
0.0101653
0.00778901
0.00531185
0.00357009
0.0024693
0.00178828
0.00136853
0.00109324
0.000926456
0.000860166
0.000888692
0.000985929
0.00110068
0.00117125
0.00114975
0.00102539
0.000821201
0.000587181
0.000370206
0.000209276
0.000115058
7.22125e-05
5.22966e-05
4.29373e-05
3.82786e-05
3.59746e-05
3.50629e-05
3.47171e-05
3.4504e-05
3.43379e-05
3.44365e-05
3.54433e-05
3.88553e-05
4.92251e-05
9.10757e-05
0.00040832
0.00218335
0.00542674
0.0035628
0.0061857
0.00780838
0.0068025
0.0047384
0.00336497
0.00246209
0.00186575
0.00146232
0.00119471
0.00106525
0.0010722
0.00118366
0.00133329
0.00143974
0.00143679
0.00129632
0.0010473
0.000741445
0.000458121
0.000239211
0.000131075
8.12503e-05
5.93124e-05
4.87679e-05
4.30607e-05
3.96244e-05
3.74486e-05
3.61191e-05
3.54544e-05
3.51707e-05
3.5482e-05
3.73391e-05
4.3005e-05
5.73832e-05
9.1165e-05
0.000172314
0.000460142
0.00203863
0.00425122
0.00378118
0.00454784
0.00511448
0.00418522
0.00336164
0.00263936
0.00206961
0.00164845
0.00136136
0.00124493
0.00130197
0.00148162
0.00169114
0.00182653
0.00181305
0.0016283
0.00129321
0.000904237
0.000519532
0.000278068
0.000153464
9.96383e-05
7.65957e-05
6.55042e-05
5.90215e-05
5.46078e-05
5.1281e-05
4.85738e-05
4.62978e-05
4.4811e-05
4.44767e-05
4.59824e-05
5.21581e-05
6.98099e-05
0.000112867
0.000205735
0.000393196
0.000810573
0.00211391
0.00445521
0.00364573
0.00139993
0.00142983
0.00143115
0.00135117
0.00130834
0.00142123
0.00170771
0.00204583
0.00231025
0.00240636
0.00228481
0.00196445
0.00151393
0.000971608
0.000561801
0.000307779
0.000182759
0.000129993
0.000108486
9.8222e-05
9.21168e-05
8.79212e-05
8.48644e-05
8.24762e-05
8.0273e-05
7.78212e-05
7.51553e-05
7.48467e-05
7.80431e-05
8.95863e-05
0.000121318
0.000197702
0.000362921
0.000692612
0.00132891
0.0024991
0.00433971
0.00313742
0.00118809
0.00171136
0.0019469
0.00230181
0.00274988
0.00315592
0.0033392
0.00330737
0.00308248
0.00268579
0.0021127
0.00148915
0.000955258
0.000557706
0.000329021
0.000222429
0.000180443
0.000164224
0.000156841
0.000152706
0.000150429
0.000149796
0.000150743
0.00015294
0.000155608
0.000157529
0.000157405
0.000155334
0.000158544
0.000171648
0.000206962
0.000290103
0.000469235
0.000831281
0.00153874
0.00284741
0.00487071
0.002945
0.00742308
0.00812373
0.00481716
0.00339586
0.00372351
0.00413279
0.00414456
0.00393478
0.00358148
0.00312881
0.00261858
0.00206935
0.00151478
0.00102529
0.000664828
0.000450989
0.000352423
0.000314624
0.000300479
0.00029343
0.000288118
0.000283535
0.000280264
0.000279357
0.00028185
0.000288429
0.000299079
0.000312662
0.000326645
0.000337678
0.000346637
0.000370279
0.000416422
0.000504333
0.000675181
0.00100763
0.00166004
0.00297163
0.00503355
0.00399725
0.00650384
0.00514375
0.00435941
0.00461294
0.00452882
0.00426005
0.00367976
0.00303465
0.00245102
0.00196026
0.00155764
0.00122794
0.000961939
0.000762151
0.000629738
0.000557007
0.000524005
0.000511658
0.000508415
0.000508564
0.000509775
0.000511824
0.000515909
0.000524202
0.000539489
0.000564828
0.000603094
0.000656278
0.000724424
0.000804385
0.000888314
0.00096842
0.00106194
0.00119546
0.00141409
0.00178916
0.0024528
0.00390017
0.00492569
0.00483663
0.00535506
0.00337237
0.00332332
0.00362464
0.00388892
0.0035589
0.00296281
0.00234907
0.00181671
0.00138244
0.00103807
0.000776706
0.000595307
0.000486727
0.000435336
0.00041894
0.000420337
0.000429551
0.000441704
0.000454816
0.000468626
0.00048414
0.000503477
0.000529794
0.000567165
0.000620199
0.000693156
0.000788642
0.000906575
0.00104448
0.00119963
0.00137282
0.00156742
0.0017867
0.00204601
0.00236334
0.00274867
0.0032245
0.00383202
0.00364272
)
;

boundaryField
{
    floor
    {
        Cmu             0.09;
        kappa           0.41;
        E               9.8;
        type            epsilonWallFunction;
        value           nonuniform List<scalar> 
36
(
0.000860204
8.94038e-05
0.000262809
0.000269195
0.000250093
0.000220206
0.00018413
0.000152348
0.000126536
0.000105932
8.94746e-05
7.63244e-05
6.56684e-05
5.68672e-05
4.93957e-05
4.27825e-05
3.65286e-05
3.18234e-05
2.36036e-05
2.36036e-05
4.81185e-05
7.08808e-05
9.46932e-05
0.00016053
0.000367097
0.00032679
0.000860204
0.00112921
0.000978616
0.000858391
8.94038e-05
0.000858391
0.000512476
0.00158446
0.0010279
0.00156425
)
;
    }
    ceiling
    {
        Cmu             0.09;
        kappa           0.41;
        E               9.8;
        type            epsilonWallFunction;
        value           nonuniform List<scalar> 
43
(
0.00535506
0.00337237
0.00332332
0.00362464
0.00388892
0.0035589
0.00296281
0.00234907
0.00181671
0.00138244
0.00103807
0.000776706
0.000595307
0.000486727
0.000435336
0.00041894
0.000420337
0.000429551
0.000441704
0.000454816
0.000468626
0.00048414
0.000503477
0.000529794
0.000567165
0.000620199
0.000693156
0.000788642
0.000906575
0.00104448
0.00119963
0.00137282
0.00156742
0.0017867
0.00204601
0.00236334
0.00274867
0.0032245
0.00383202
0.00364272
0.00454784
0.00511448
0.00118809
)
;
    }
    sWall
    {
        Cmu             0.09;
        kappa           0.41;
        E               9.8;
        type            epsilonWallFunction;
        value           nonuniform List<scalar> 9(0.0130045 0.0106877 0.00806894 0.0061211 0.0061857 0.00454784 0.00742308 0.00650384 0.00535506);
    }
    nWall
    {
        Cmu             0.09;
        kappa           0.41;
        E               9.8;
        type            epsilonWallFunction;
        value           nonuniform List<scalar> 
14
(
0.00032679
0.000560504
0.000914124
0.00315933
0.00302674
0.00295525
0.0035628
0.00378118
0.00364573
0.00313742
0.002945
0.00399725
0.00483663
0.00364272
)
;
    }
    sideWalls
    {
        type            empty;
    }
    glass1
    {
        Cmu             0.09;
        kappa           0.41;
        E               9.8;
        type            epsilonWallFunction;
        value           nonuniform List<scalar> 9(0.000253146 0.000797073 0.00163082 0.00285392 0.00454673 0.00676477 0.00967386 0.0127611 0.0138288);
    }
    glass2
    {
        Cmu             0.09;
        kappa           0.41;
        E               9.8;
        type            epsilonWallFunction;
        value           nonuniform List<scalar> 2(0.00202086 0.00307013);
    }
    sun
    {
        Cmu             0.09;
        kappa           0.41;
        E               9.8;
        type            epsilonWallFunction;
        value           nonuniform List<scalar> 
14
(
0.000253146
0.000306392
0.000303041
0.000344215
0.000385074
0.000424867
0.000464289
0.000504529
0.000547324
0.000595393
0.000643786
0.000692128
0.000742075
0.000798425
)
;
    }
    Table_master
    {
        Cmu             0.09;
        kappa           0.41;
        E               9.8;
        type            epsilonWallFunction;
        value           nonuniform List<scalar> 9(0.000552089 0.00036299 0.000250925 0.000181405 0.000136307 0.000105913 8.47724e-05 6.98188e-05 5.94657e-05);
    }
    Table_slave
    {
        Cmu             0.09;
        kappa           0.41;
        E               9.8;
        type            epsilonWallFunction;
        value           nonuniform List<scalar> 9(0.000814451 0.000613012 0.000482174 0.000388658 0.000319205 0.000264361 0.000218782 0.000179036 0.000141872);
    }
    inlet
    {
        type            turbulentMixingLengthDissipationRateInlet;
        mixingLength    0.01;
        phi             phi;
        k               k;
        value           uniform 0.000471671;
    }
    outlet
    {
        type            zeroGradient;
    }
}


// ************************************************************************* //
