/*--------------------------------*- C++ -*----------------------------------*\
  =========                 |
  \\      /  F ield         | OpenFOAM: The Open Source CFD Toolbox
   \\    /   O peration     | Website:  https://openfoam.org
    \\  /    A nd           | Version:  6
     \\/     M anipulation  |
\*---------------------------------------------------------------------------*/
FoamFile
{
    version     2.0;
    format      ascii;
    class       surfaceScalarField;
    location    "29599.9999981957044";
    object      phi;
}
// * * * * * * * * * * * * * * * * * * * * * * * * * * * * * * * * * * * * * //

dimensions      [1 0 -1 0 0 0 0];

internalField   nonuniform List<scalar> 
1482
(
-0.00279974
0.00286378
-0.00348389
0.000684144
-0.00414445
0.000660557
-0.00475836
0.00061391
-0.00527953
0.000521177
-0.00569125
0.000411716
-0.0059823
0.000291053
-0.00613966
0.000157356
-0.006146
6.33981e-06
-0.00597534
-0.000170653
-0.00559773
-0.000377616
-0.00498206
-0.000615666
-0.0040581
-0.000923961
-0.00257958
-0.00147851
-0.00257666
-6.38293e-05
6.86841e-05
0.000781281
-0.000845111
0.00143509
-0.000653809
0.00183577
-0.000400682
0.00205846
-0.000222689
0.00216324
-0.000104779
0.00221052
-4.72826e-05
0.00223329
-2.27674e-05
0.00224309
-9.80428e-06
0.00224407
-9.7565e-07
0.00223705
7.02029e-06
0.00221801
1.90384e-05
0.00217362
4.4386e-05
0.00207064
0.000102982
0.00185355
0.000217092
0.00149524
0.000358312
0.0010224
0.000472838
0.00102884
-0.00204033
0.00507443
-0.00290837
0.00155218
-0.00369407
0.00144625
-0.00434491
0.00126475
-0.00488194
0.0010582
-0.00531046
0.000840241
-0.00562873
0.000609326
-0.00582999
0.00035861
-0.00590357
7.99266e-05
-0.00584166
-0.00023257
-0.00563839
-0.000580881
-0.00528241
-0.000971645
-0.0047725
-0.00143387
-0.00428667
-0.00196435
-0.00470258
-0.00216075
-0.00311682
-0.00158032
-0.00163424
-0.00147689
-0.00161939
0.0013181
-0.00123921
0.00166305
-0.00119006
0.00191583
-0.000906588
0.00210825
-0.000593109
0.00221675
-0.000331182
0.00222594
-0.000113968
0.00222788
-4.92284e-05
0.00222943
-2.43194e-05
0.00223034
-1.07081e-05
0.00223032
-9.57257e-07
0.00222896
8.38175e-06
0.00222476
2.32338e-05
0.00221211
5.70385e-05
0.00215009
0.000165007
0.00190012
0.000467062
0.00146989
0.000788534
0.00090488
0.00103785
0.0019506
-0.00148821
0.00682056
-0.00235902
0.00242299
-0.00312885
0.00221608
-0.00371289
0.00184879
-0.00418333
0.00152864
-0.00455453
0.00121144
-0.00482833
0.000883129
-0.00500153
0.000531811
-0.00506775
0.000146147
-0.00501792
-0.000282405
-0.00484125
-0.000757551
-0.00453024
-0.00128265
-0.00411564
-0.00184847
-0.00371809
-0.00236189
-0.0032976
-0.00258124
-0.00236632
-0.00251161
-0.00127275
-0.00257047
-0.00287931
0.0011513
-0.00237605
0.00165508
-0.00169383
0.00195392
-0.00120543
0.00214758
-0.000786775
0.00217952
-0.000363114
0.0020657
0.00201663
0.00199246
0.00198191
0.0019811
0.00198964
0.00201303
0.00207022
0.00223538
0.00187702
0.000825421
0.00142873
0.00123683
0.000807744
0.00165884
0.00278437
-0.00110602
0.00825778
-0.00192786
0.00324483
-0.00256975
0.00285797
-0.00302991
0.00230895
-0.00339723
0.00189596
-0.00368578
0.00149999
-0.00389857
0.00109592
-0.0040338
0.00066704
-0.00408397
0.000196323
-0.00403592
-0.000330462
-0.00387731
-0.000916163
-0.00360394
-0.00155602
-0.00323831
-0.0022141
-0.00281622
-0.00278398
-0.00227665
-0.00312081
-0.00155689
-0.00323137
-0.000868618
-0.00325874
-0.000688409
-0.00305952
0.00144806
-0.00212102
0.00137893
-0.00230693
0.00169404
-0.00200894
0.00200637
-0.00151775
0.00227242
-0.00105283
0.00254762
-0.000638308
0.00286371
-0.000316245
0.00303248
-0.000168925
0.00309866
-6.63323e-05
0.00308281
1.56944e-05
0.00299374
8.89181e-05
0.00283244
0.000161146
0.00259109
0.000241196
0.00224674
0.000344198
0.00174203
0.000504555
0.00160573
0.000961723
0.00127853
0.00156402
0.000751591
0.00218578
0.00357025
-0.000803732
0.0094547
-0.00157982
0.00402092
-0.00204831
0.00332647
-0.00236386
0.0026245
-0.00260803
0.00214013
-0.00279333
0.00168529
-0.00292479
0.00122739
-0.00300316
0.00074541
-0.00302191
0.000215071
-0.00296445
-0.000387926
-0.00281749
-0.00106312
-0.00257399
-0.00179952
-0.00224042
-0.00254767
-0.00182387
-0.00320053
-0.00131846
-0.00362623
-0.000741825
-0.00380801
-0.000210432
-0.00379013
0.00026682
-0.00353677
0.00112767
-0.00298188
0.00149312
-0.00267238
0.00175141
-0.00226723
0.00200344
-0.00176979
0.00223313
-0.00128252
0.00244756
-0.000852739
0.0026499
-0.00051859
0.00276164
-0.000280665
0.00279956
-0.00010425
0.00277527
3.99818e-05
0.00269508
0.000169107
0.00256143
0.000294797
0.00237316
0.000429469
0.00212805
0.000589309
0.00183449
0.000798111
0.00163009
0.00116612
0.0014914
0.00170271
0.0013173
0.00235988
0.00231365
0.00257389
0.00134471
0.00100384
0.00188414
-0.000510717
0.00200272
-0.000575834
0.0104769
-0.00132469
0.00476978
-0.00158414
0.00358591
-0.00174989
0.00279025
-0.00186368
0.00225393
-0.00193497
0.00175658
-0.00197022
0.00126264
-0.00197374
0.000748939
-0.00194234
0.000183663
-0.00185434
-0.000475921
-0.00169992
-0.00121754
-0.00146902
-0.00203043
-0.00116451
-0.00285219
-0.000792203
-0.00357284
-0.000372423
-0.00404601
6.79203e-05
-0.00424835
0.000473194
-0.00419541
0.000847592
-0.00391117
0.0012983
-0.00343259
0.00159667
-0.00297075
0.00179941
-0.00246997
0.00197052
-0.0019409
0.00212223
-0.00143423
0.0022573
-0.000987804
0.0023634
-0.000624696
0.00242331
-0.000340574
0.00243629
-0.000117228
0.00240731
6.89633e-05
0.002341
0.000235422
0.00224105
0.000394747
0.00211152
0.000558994
0.00195968
0.000741153
0.00180051
0.00095728
0.00171114
0.00125549
0.00177221
0.00164164
0.00199124
0.00214085
0.00224529
0.00231984
0.00176313
0.001486
0.000836191
0.000416217
0.00293615
-0.000543523
0.0115126
-0.00124369
0.00546994
-0.0011918
0.00353402
-0.00119993
0.00279838
-0.00119207
0.00224606
-0.00115838
0.00172289
-0.00110105
0.00120531
-0.00102585
0.000673741
-0.000927132
8.49411e-05
-0.000778088
-0.000624964
-0.000588812
-0.00140682
-0.000348714
-0.00227052
-6.49371e-05
-0.00313596
0.000239757
-0.00387753
0.000549625
-0.00435587
0.000844732
-0.00454346
0.00110772
-0.00445839
0.001341
-0.00414446
0.00157248
-0.00366407
0.0017317
-0.00312996
0.00183112
-0.0025694
0.00190093
-0.0020107
0.00195698
-0.00149029
0.00200455
-0.00103537
0.00203838
-0.00065852
0.00205252
-0.000354716
0.00204321
-0.000107923
0.00201088
0.000101302
0.00195829
0.00028801
0.00188899
0.000464045
0.00180806
0.000639927
0.00172412
0.000825087
0.00165279
0.00102861
0.00163869
0.00126959
0.00172927
0.00155106
0.00194991
0.00192021
0.00222166
0.00204809
0.0022469
0.00146077
0.00165634
0.00100677
0.00469514
-0.000483763
0.0125319
-0.00105163
0.00603781
-0.000697375
0.00317976
-0.000636279
0.00273728
-0.000567647
0.00217743
-0.00046266
0.00161791
-0.000333303
0.00107595
-0.000181706
0.000522144
7.86528e-06
-0.000104631
0.000226196
-0.000843295
0.000466079
-0.0016467
0.000723826
-0.00252827
0.00098065
-0.00339278
0.00120897
-0.00410585
0.00140816
-0.00455505
0.00156927
-0.00470457
0.00168704
-0.00457616
0.00176614
-0.00422356
0.00181894
-0.00371687
0.00182865
-0.00313968
0.00180362
-0.00254437
0.00176305
-0.00197013
0.00172201
-0.00144925
0.0016881
-0.00100146
0.00166128
-0.000631704
0.00163743
-0.000330865
0.00161137
-8.18574e-05
0.00158045
0.000132221
0.00154448
0.000323978
0.0015044
0.000504126
0.00146301
0.000681318
0.0014263
0.000861789
0.00140548
0.00104944
0.0014255
0.00124957
0.00151908
0.00145748
0.00174592
0.00169337
0.00207784
0.00171616
0.00223917
0.00129943
0.0017419
0.00150403
0.00680408
0.00297872
0.0101403
0.00202334
0.0069932
0.000869891
0.00433321
0.000371391
0.00323578
0.000214559
0.00233426
0.000271222
0.00156124
0.000425527
0.000921647
0.000639849
0.000307822
0.00089951
-0.000364292
0.00116484
-0.00110863
0.00144362
-0.00192547
0.00171067
-0.00279532
0.00193658
-0.00361869
0.00209712
-0.00426637
0.00218659
-0.00464452
0.00220772
-0.0047257
0.00216938
-0.00453782
0.00208519
-0.00413937
0.00197035
-0.00360203
0.0018305
-0.00299984
0.00167796
-0.00239184
0.00152983
-0.001822
0.00140098
-0.0013204
0.00129983
-0.000900308
0.00122761
-0.000559486
0.00117929
-0.000282544
0.00114721
-4.9776e-05
0.00112555
0.000153886
0.00111023
0.000339292
0.00109846
0.000515903
0.00108949
0.00069028
0.00108506
0.000866218
0.00109002
0.00104448
0.0011165
0.0012231
0.00118646
0.00138751
0.00136714
0.00151269
0.00172195
0.00136136
0.00185386
0.00116751
0.000526272
0.00283157
0.00771438
0.00403324
0.00624731
0.00366985
0.00735659
0.0025441
0.00545895
0.00189057
0.00388931
0.00153396
0.00269087
0.00138924
0.00170597
0.00142333
0.000887555
0.00159822
0.000132936
0.0018508
-0.000616874
0.00212842
-0.00138624
0.0024084
-0.00220545
0.00265333
-0.00304026
0.00282153
-0.00378688
0.00288608
-0.00433092
0.00284391
-0.00460233
0.00270898
-0.00459076
0.00250365
-0.00433247
0.00225218
-0.00388791
0.00197733
-0.00332718
0.00169624
-0.00271875
0.00142631
-0.00212191
0.00118577
-0.00158146
0.000989682
-0.00112431
0.000844823
-0.000755449
0.000750087
-0.00046475
0.000696277
-0.000228734
0.000671902
-2.5401e-05
0.000667429
0.00015836
0.000675224
0.000331497
0.000689732
0.000501395
0.00070737
0.000672642
0.000725083
0.000848505
0.000738919
0.00103064
0.000741751
0.00122027
0.000714685
0.00141458
0.000600104
0.00162728
8.73066e-07
0.0019606
-0.00172986
0.0028982
-0.00303635
0.00413795
0.00478215
0.00241069
0.00400115
0.00330636
0.00646092
0.00325022
0.0055151
0.00303926
0.00410027
0.00284831
0.00288182
0.00272531
0.00182898
0.00271182
0.000901044
0.00280139
4.33703e-05
0.00296401
-0.000779493
0.00317517
-0.0015974
0.0033929
-0.00242318
0.00355708
-0.00320443
0.00361293
-0.00384272
0.00353391
-0.00425189
0.00332564
-0.00439406
0.00301442
-0.00427953
0.00263465
-0.00395269
0.00221968
-0.00347293
0.00179905
-0.00290655
0.00139642
-0.00231612
0.00103365
-0.00175914
0.000731014
-0.00127882
0.000502993
-0.000896287
0.000349208
-0.000601665
0.000260787
-0.000376328
0.000220746
-0.000188693
0.000214039
-1.86933e-05
0.000229233
0.000143166
0.000258035
0.000302696
0.00029493
0.000464501
0.000335657
0.000631916
0.000374323
0.000809839
0.000401503
0.00100346
0.000397423
0.00122435
0.000318257
0.00149374
7.30316e-05
0.00187251
-0.000641165
0.00267506
-0.00190318
0.00416043
-0.00233142
0.00456623
0.0025674
0.00145715
0.00273827
0.00274856
0.00516951
0.00343253
0.00483113
0.00371869
0.0038141
0.00381749
0.00278302
0.00384618
0.00180029
0.00388326
0.000863972
0.00395347
-2.6835e-05
0.00406426
-0.000890282
0.00420485
-0.001738
0.0043238
-0.00254213
0.00435035
-0.00323098
0.00423299
-0.00372535
0.00395966
-0.00397855
0.003553
-0.00398738
0.00305285
-0.00377937
0.00250299
-0.00340282
0.00194198
-0.00291191
0.00140381
-0.00236838
0.000915253
-0.00182756
0.00050378
-0.00134767
0.000189399
-0.000964438
-2.08304e-05
-0.000686058
-0.00014256
-0.000479936
-0.000200966
-0.000317922
-0.000218196
-0.000171463
-0.000207707
-2.9182e-05
-0.000178133
0.000113592
-0.000134951
0.000259515
-8.15639e-05
0.000411114
-2.07465e-05
0.000571098
4.32053e-05
0.000745887
0.000101973
0.000944696
0.000138354
0.00118796
0.000114563
0.00151753
-3.44692e-05
0.00202155
-0.000289421
0.0029303
-0.000699763
0.00457125
-0.000936595
0.00480344
0.00175978
0.00217092
0.000793338
0.0029408
0.00439963
0.00359149
0.00418045
0.00416233
0.00324327
0.00449072
0.00245464
0.00466593
0.00162508
0.00478391
0.000745992
0.00488996
-0.000132883
0.00499738
-0.000997705
0.005076
-0.00181664
0.00506034
-0.00252649
0.00489038
-0.00306103
0.00454382
-0.00337878
0.00403971
-0.00347444
0.00342302
-0.00337068
0.00274443
-0.00310077
0.00205208
-0.00271047
0.00138361
-0.00224344
0.000777588
-0.00176235
0.000260502
-0.00131047
-0.00012809
-0.000959074
-0.000381536
-0.000710995
-0.000526089
-0.000541507
-0.00059852
-0.000407505
-0.000627352
-0.00028909
-0.000626385
-0.00017243
-0.000603883
-5.16826e-05
-0.000565308
7.50183e-05
-0.000513529
0.000207736
-0.000449855
0.000347441
-0.000375101
0.000496346
-0.000289183
0.000659969
-0.000193602
0.000849115
-9.46101e-05
0.00108897
-1.39108e-05
0.00143681
2.48164e-05
0.00198274
0.000164555
0.00279058
0.000604857
0.00413128
0.000880841
0.00452778
0.00277558
-0.00158217
0.00262061
0.0011148
0.00170266
0.00334758
0.00194767
0.00435059
0.00224026
0.00485513
0.00195009
0.00517086
0.00130936
0.00540042
0.000516427
0.00557956
-0.000312033
0.00567944
-0.0010976
0.00563819
-0.00177542
0.00540523
-0.00229355
0.00496908
-0.00262489
0.00435788
-0.00276758
0.00362459
-0.00274115
0.00282907
-0.00257515
0.00202087
-0.00229256
0.00124731
-0.00193691
0.000538471
-0.0015346
-5.78127e-05
-0.00116607
-0.000496642
-0.000871647
-0.000772387
-0.000683336
-0.000930428
-0.00055296
-0.00101652
-0.000455415
-0.00105539
-0.000368643
-0.00106266
-0.000281819
-0.0010465
-0.00018858
-0.00101262
-8.55581e-05
-0.000966122
2.85206e-05
-0.000909292
0.000150908
-0.000841827
0.000279977
-0.000763313
0.000417832
-0.000671657
0.000568314
-0.000564612
0.00074207
-0.000445213
0.000969555
-0.000325973
0.00131748
-0.000177038
0.00183357
0.000180176
0.00243305
0.00103402
0.00327737
0.00155922
0.00400257
0.00447821
0.00288232
0.0045698
0.00486968
0.00164779
0.005356
0.00175394
0.00559267
0.00171342
0.00582477
0.00107726
0.00601273
0.000328458
0.00607884
-0.000378171
0.00595225
-0.000971066
0.00560019
-0.00142341
0.00503574
-0.00172913
0.00430615
-0.00189533
0.00346997
-0.0019314
0.00258561
-0.0018568
0.00170717
-0.00169671
0.00086674
-0.00145213
0.00010443
-0.0011746
-0.000520918
-0.000909253
-0.000965908
-0.000721084
-0.00124477
-0.000592796
-0.00141479
-0.000513332
-0.00151256
-0.000455207
-0.00156436
-0.000403621
-0.00158299
-0.000350016
-0.00157525
-0.000289549
-0.00154556
-0.000218251
-0.00149876
-0.00013234
-0.00144132
-2.89141e-05
-0.00137917
8.87623e-05
-0.0013146
0.000215407
-0.00124863
0.000351854
-0.00118319
0.000502889
-0.00112138
0.000680278
-0.00106458
0.000912777
-0.000998064
0.00125089
-0.000862302
0.0016975
-0.000490743
0.00206091
0.000543119
0.00224293
0.0011188
0.00342634
0.00575089
0.00793396
0.00536243
0.0058143
0.00387362
0.00556566
0.00196209
0.005637
0.00100594
0.00560042
0.000365037
0.005355
-0.000132783
0.00489044
-0.000506552
0.00424817
-0.000781173
0.00348245
-0.000963435
0.00264636
-0.00105924
0.00178133
-0.00106638
0.000923768
-0.000999239
0.000106927
-0.000879873
-0.000613106
-0.000732096
-0.0011798
-0.000607913
-0.00157972
-0.000509345
-0.00184911
-0.000451727
-0.00202161
-0.000420328
-0.00213383
-0.000401149
-0.00220566
-0.000383399
-0.00224675
-0.000362543
-0.00226086
-0.000335882
-0.00224964
-0.000300737
-0.00221436
-0.000253475
-0.00215745
-0.000189213
-0.00208427
-0.000102066
-0.00200806
1.25511e-05
-0.00193955
0.000146879
-0.00188183
0.000294122
-0.00184189
0.000462957
-0.00182809
0.000666552
-0.00184581
0.000930653
-0.00188099
0.00128625
-0.00192142
0.00173796
-0.00204658
0.0021858
-0.00230753
0.00250333
-0.00207033
0.00318845
0.00384977
0.00411386
0.00149512
0.00451463
0.00347287
0.00374151
0.00273524
0.00323584
0.00151161
0.00288756
0.000713292
0.00251861
0.000236132
0.00207
-5.79675e-05
0.00153143
-0.000242603
0.000922206
-0.000354202
0.000259705
-0.000396731
-0.00041923
-0.000387439
-0.00105867
-0.000359791
-0.00161046
-0.000328073
-0.00204401
-0.000298551
-0.00236584
-0.000286111
-0.0025905
-0.000284727
-0.00275094
-0.000291354
-0.00287138
-0.000299953
-0.00296514
-0.000307446
-0.00303634
-0.000312218
-0.00308526
-0.000313614
-0.0031104
-0.000310679
-0.00310958
-0.000301465
-0.00308069
-0.000282258
-0.00302283
-0.000246977
-0.00293761
-0.000187228
-0.00283153
-9.35401e-05
-0.00272423
3.95084e-05
-0.00263257
0.000202368
-0.00255818
0.000388495
-0.00249732
0.000605704
-0.00244607
0.000879584
-0.00239206
0.00123258
-0.0023346
0.00168091
-0.00246997
0.00232153
-0.00325434
0.00328797
-0.00348491
0.00341917
0.000547561
-0.00259378
-0.00675555
-0.00741172
-0.00745932
-0.00374872
-0.00216794
-0.0016697
0.00139383
-0.000756785
0.00182232
-0.00056007
0.00131488
-0.000641821
0.000795031
-0.000827711
0.000422021
-0.00106567
0.000179998
-0.00134938
4.11216e-05
-0.00168116
-2.23826e-05
-0.00203817
-3.96918e-05
-0.00239145
-3.41289e-05
-0.00271959
-3.16367e-05
-0.00299737
-5.02954e-05
-0.00320927
-8.66859e-05
-0.00336944
-0.000126007
-0.00349854
-0.000155714
-0.0036136
-0.000176399
-0.00372074
-0.000192894
-0.00381936
-0.000208879
-0.00390575
-0.000225821
-0.00397518
-0.00024412
-0.00402224
-0.000263502
-0.00404124
-0.000282299
-0.00402737
-0.000295934
-0.00397831
-0.000295866
-0.00389508
-0.000270361
-0.00378137
-0.000207247
-0.00364466
-9.73509e-05
-0.00350322
6.07027e-05
-0.00335924
0.000244283
-0.00318946
0.000435747
-0.00296744
0.000657526
-0.00265869
0.000923989
-0.00220422
0.00122677
-0.0014756
0.00159332
-0.00033953
0.00215228
0.000536892
0.00254309
0.00126675
-0.00734303
0.00104103
-0.00811736
-0.00668505
-0.00717196
-0.00311341
-0.00565219
-0.000125985
-0.00455982
0.000729933
-0.00396907
0.000724134
-0.00371109
0.000537071
-0.00364529
0.000356258
-0.00368706
0.000221824
-0.00377955
0.000133669
-0.00388094
7.90741e-05
-0.00396696
4.63789e-05
-0.00402806
2.70037e-05
-0.00407119
1.15007e-05
-0.00411168
-9.84756e-06
-0.00416115
-3.72978e-05
-0.00422337
-6.39049e-05
-0.00429489
-8.43134e-05
-0.00437148
-9.99148e-05
-0.00444952
-0.000114923
-0.004526
-0.000132415
-0.00459825
-0.000153521
-0.00466384
-0.000178406
-0.00472046
-0.000206675
-0.00476591
-0.000236608
-0.00479788
-0.000263696
-0.00481359
-0.000279927
-0.00480868
-0.000275123
-0.00477589
-0.000240022
-0.00470465
-0.000168745
-0.00458421
-6.00838e-05
-0.00441013
6.97881e-05
-0.00416939
0.000194611
-0.00382219
0.000310029
-0.00332414
0.000425784
-0.00260625
0.000508876
-0.00144532
0.000432522
0.000526702
0.000180453
0.0018944
0.00117565
0.0033444
0.00158279
-0.00503751
-0.00808757
-0.00815389
-0.00736933
-0.00659829
-0.00602096
-0.00562922
-0.005375
-0.00521069
-0.00510171
-0.00502535
-0.00496777
-0.00492498
-0.00490302
-0.00490821
-0.00493986
-0.00499182
-0.00505933
-0.00514186
-0.00524202
-0.00536359
-0.00551055
-0.00568655
-0.0058935
-0.00612876
-0.0063816
-0.00663097
-0.0068464
-0.00699147
-0.00702856
-0.00693623
-0.0067194
-0.0063875
-0.00594036
-0.00541089
-0.00495878
-0.00475986
-0.0035669
)
;

boundaryField
{
    floor
    {
        type            calculated;
        value           nonuniform List<scalar> 
36
(
0
0
0
0
0
0
0
0
0
0
0
0
0
0
0
0
0
0
0
-6.43884e-06
-1.68818e-05
-2.60244e-05
-3.42882e-05
-3.49008e-05
-2.87051e-05
-2.85659e-05
-2.92039e-06
-5.44169e-06
-5.68801e-06
-5.90801e-06
-4.8547e-06
-8.9388e-06
-1.0209e-05
-1.28316e-05
-1.44564e-05
-1.54458e-05
)
;
    }
    ceiling
    {
        type            calculated;
        value           nonuniform List<scalar> 
43
(
-5.78478e-05
-6.47955e-05
-6.34061e-05
-5.96936e-05
-5.46441e-05
-4.68802e-05
-4.02035e-05
-3.54072e-05
-3.23e-05
-3.05366e-05
-2.98228e-05
-2.99234e-05
-3.05497e-05
-3.13118e-05
-3.18763e-05
-3.21927e-05
-3.23602e-05
-3.24525e-05
-3.24821e-05
-3.24232e-05
-3.22337e-05
-3.18675e-05
-3.12848e-05
-3.04634e-05
-2.94135e-05
-2.81922e-05
-2.69057e-05
-2.56871e-05
-2.46525e-05
-2.38614e-05
-2.33061e-05
-2.29211e-05
-2.25905e-05
-2.21736e-05
-2.15617e-05
-2.06982e-05
-1.96045e-05
-1.83853e-05
-1.71717e-05
-1.63827e-05
1.93311e-05
1.51846e-05
-0.000246555
)
;
    }
    sWall
    {
        type            calculated;
        value           nonuniform List<scalar> 9(-0.000140237 -0.000164531 -0.000194273 -0.000225986 -0.000245104 -0.000281041 -0.000423511 -0.000453614 -0.000483936);
    }
    nWall
    {
        type            calculated;
        value           nonuniform List<scalar> 
14
(
-9.00153e-05
-9.72415e-05
-0.000102651
-0.00010414
-0.000116689
-0.000128857
-0.000134799
-0.000143556
-0.000154431
-0.000169753
-0.000182802
-0.000181854
-0.00018308
-0.000205964
)
;
    }
    sideWalls
    {
        type            empty;
        value           nonuniform 0();
    }
    glass1
    {
        type            calculated;
        value           nonuniform List<scalar> 9(-6.40339e-05 -0.00017032 -0.00025792 -0.000331202 -0.000393183 -0.000446386 -0.000492195 -0.000535476 -0.000587162);
    }
    glass2
    {
        type            calculated;
        value           nonuniform List<scalar> 2(-0.000367039 -0.000384044);
    }
    sun
    {
        type            calculated;
        value           uniform 0;
    }
    Table_master
    {
        type            calculated;
        value           nonuniform List<scalar> 9(-1.53991e-07 -1.54108e-07 -1.5414e-07 -1.5416e-07 -1.54173e-07 -1.54178e-07 -1.54177e-07 -1.54162e-07 -1.54109e-07);
    }
    Table_slave
    {
        type            calculated;
        value           nonuniform List<scalar> 9(1.53661e-07 1.53717e-07 1.53716e-07 1.53732e-07 1.53753e-07 1.53797e-07 1.53863e-07 1.53957e-07 1.54084e-07);
    }
    inlet
    {
        type            calculated;
        value           uniform -0.0116486;
    }
    outlet
    {
        type            calculated;
        value           nonuniform List<scalar> 2(0.00977279 0.0122772);
    }
}


// ************************************************************************* //
