/*--------------------------------*- C++ -*----------------------------------*\
  =========                 |
  \\      /  F ield         | OpenFOAM: The Open Source CFD Toolbox
   \\    /   O peration     | Website:  https://openfoam.org
    \\  /    A nd           | Version:  6
     \\/     M anipulation  |
\*---------------------------------------------------------------------------*/
FoamFile
{
    version     2.0;
    format      ascii;
    class       volScalarField;
    location    "1410";
    object      epsilon;
}
// * * * * * * * * * * * * * * * * * * * * * * * * * * * * * * * * * * * * * //

dimensions      [0 2 -3 0 0 0 0];

internalField   nonuniform List<scalar> 
458
(
0.000432837
0.000557952
0.000596646
0.000686442
0.00077674
0.000869219
0.000968805
0.00107741
0.00117198
0.00123413
0.00124126
0.00117484
0.00102229
0.000744123
0.000324978
3.92336e-05
6.32052e-05
9.21082e-05
0.000104418
9.95941e-05
8.16159e-05
6.44049e-05
5.12217e-05
4.13711e-05
3.39155e-05
2.81879e-05
2.37389e-05
2.02085e-05
1.73142e-05
1.48375e-05
1.26005e-05
1.13841e-05
8.8374e-06
0.00106106
0.0015834
0.000518536
0.000502713
0.000518569
0.000551053
0.000606415
0.000688641
0.000779904
0.00085413
0.000882213
0.000847952
0.000756996
0.000624063
0.000502068
0.000747442
0.000426811
0.000231813
3.82945e-05
7.53676e-05
9.27506e-05
9.34373e-05
8.97395e-05
9.00428e-05
7.05656e-05
5.34971e-05
4.08087e-05
3.15379e-05
2.47416e-05
1.97232e-05
1.5968e-05
1.31689e-05
1.14067e-05
1.06892e-05
3.04887e-05
2.00748e-05
0.00190714
0.00384785
0.000603843
0.000458375
0.000466127
0.000508283
0.00058061
0.000683843
0.000797344
0.000884606
0.000918276
0.000888161
0.000802187
0.000667303
0.000517741
0.000416498
0.000353141
0.000381944
0.000139905
0.000139219
0.000125579
0.000111528
0.000103536
0.000198175
0.000132981
9.11364e-05
6.45275e-05
4.72868e-05
3.58132e-05
2.79872e-05
2.25646e-05
1.88682e-05
1.48287e-05
1.31282e-05
6.48726e-05
3.31327e-05
0.0030629
0.00799433
0.000903909
0.000439045
0.000429295
0.000481335
0.000575087
0.000718109
0.000862913
0.000958312
0.000989562
0.000953229
0.000855504
0.000703542
0.000548671
0.000432491
0.000365977
0.000380597
0.000584004
0.000375921
0.00024523
0.000178326
0.000140503
0.000123024
0.000283285
0.0002182
0.000180123
0.000155057
0.000135771
0.000118251
0.000103076
8.85143e-05
7.33129e-05
4.54012e-05
2.92924e-05
0.000114638
5.06232e-05
0.00464972
0.0144272
0.00174052
0.000470938
0.000395695
0.000451695
0.000589041
0.000833051
0.00101875
0.00111208
0.00112862
0.00106948
0.00093768
0.000753903
0.000564998
0.000420172
0.000331748
0.000302758
0.000303876
0.000253653
0.000209425
0.000175161
0.000146335
0.000122102
0.000113092
0.000103836
9.75556e-05
9.22078e-05
8.62096e-05
7.87764e-05
7.08897e-05
6.31602e-05
5.59052e-05
4.60308e-05
3.61908e-05
7.47555e-05
0.000114587
0.000120968
0.000143505
0.000184282
0.0068718
0.0217348
0.00400208
0.000790909
0.000465218
0.000474195
0.000701007
0.00112024
0.00130653
0.00136619
0.00134388
0.00124642
0.00106746
0.000825412
0.000577771
0.000388822
0.000278897
0.000238583
0.000228283
0.000218294
0.000201185
0.000176807
0.000149337
0.000123787
0.000107351
0.000100926
9.97609e-05
9.9355e-05
9.72156e-05
9.16752e-05
8.17182e-05
7.04537e-05
5.98076e-05
5.01481e-05
4.344e-05
5.55246e-05
8.83468e-05
0.000106127
0.000206705
0.000205618
0.00965901
0.0261939
0.00879635
0.0028014
0.00145475
0.00114146
0.00148372
0.00172716
0.00178643
0.00174952
0.00165016
0.00148377
0.00123019
0.000908292
0.000588354
0.000355982
0.000234564
0.000200268
0.000202428
0.000203075
0.000190093
0.000166906
0.000141381
0.000120234
0.00010909
0.000108565
0.000113674
0.000120164
0.000125737
0.000128186
0.000124107
0.000111095
9.74918e-05
8.59361e-05
8.04477e-05
8.87233e-05
0.000120584
0.000176775
0.000327316
0.000344803
0.0104469
0.0300951
0.0160952
0.00965329
0.00597105
0.00418168
0.00338443
0.00287663
0.00253866
0.00228166
0.00203953
0.00176134
0.00139744
0.000968519
0.000561437
0.000300539
0.000190442
0.000174442
0.000179695
0.000177179
0.000162259
0.000142002
0.000124154
0.000113555
0.000112241
0.000119068
0.00013118
0.000146863
0.000165745
0.000187735
0.000212034
0.000232947
0.000246014
0.000273123
0.000329078
0.000480063
0.00082046
0.00137757
0.00411001
0.00128191
0.00984344
0.0172555
0.0132405
0.00999033
0.00750828
0.00579428
0.00459009
0.00379126
0.00325163
0.00282424
0.00242736
0.00200677
0.00148403
0.000914161
0.00040707
0.000216131
0.000158926
0.00014758
0.000144505
0.000136977
0.000124637
0.000112515
0.000104987
0.000104115
0.000109954
0.00012152
0.000138067
0.000159895
0.000188363
0.000225721
0.000275035
0.000339927
0.000427245
0.000551956
0.000734034
0.000976746
0.00125101
0.00149865
0.00170335
0.00104493
0.0034792
0.00472056
0.00512321
0.00502836
0.00473328
0.00432011
0.00378379
0.00315852
0.00254813
0.00194853
0.00116378
0.000536565
0.000254551
0.000159697
0.000129175
0.000118204
0.000110934
0.000103116
9.54621e-05
8.99718e-05
8.84416e-05
9.13011e-05
9.81602e-05
0.000108614
0.000122667
0.000140897
0.000164552
0.000195758
0.000237985
0.000297006
0.000378469
0.000488605
0.000629974
0.000786491
0.000911366
0.000944888
0.000871305
0.000544328
0.0028951
0.00862123
0.00828257
0.00717339
0.00607548
0.00478977
0.00347858
0.00225685
0.00128301
0.000710073
0.000375233
0.000215394
0.000151242
0.000124149
0.000111066
0.000102175
9.41856e-05
8.70185e-05
8.16784e-05
7.8906e-05
7.89826e-05
8.20176e-05
8.7972e-05
9.70259e-05
0.000109701
0.000126904
0.000150027
0.000181144
0.000223211
0.00028
0.000356639
0.000458331
0.000585901
0.000728723
0.000842186
0.000956439
0.000733739
0.000565825
0.0033679
0.00362375
0.00386702
0.00532544
0.0044975
0.00312991
0.00187933
0.00115789
0.000823542
0.000572211
0.000398421
0.000290011
0.000215267
0.000168084
0.000139718
0.000121146
0.000107463
9.65473e-05
8.81123e-05
8.27074e-05
8.07488e-05
8.22154e-05
8.66727e-05
9.35138e-05
0.000102661
0.000114249
0.000128623
0.000146371
0.000168449
0.000196498
0.000232015
0.000276337
0.000331623
0.000400556
0.000486133
0.000603763
0.00066072
0.000620959
0.000499687
0.00039532
)
;

boundaryField
{
    floor
    {
        Cmu             0.09;
        kappa           0.41;
        E               9.8;
        type            epsilonWallFunction;
        value           nonuniform List<scalar> 
36
(
0.000324978
3.92336e-05
6.32052e-05
9.21082e-05
0.000104418
9.95941e-05
8.16159e-05
6.44049e-05
5.12217e-05
4.13711e-05
3.39155e-05
2.81879e-05
2.37389e-05
2.02085e-05
1.73142e-05
1.48375e-05
1.26005e-05
1.13841e-05
8.8374e-06
8.8374e-06
2.00748e-05
3.31327e-05
5.06232e-05
0.000120968
0.000143505
0.000184282
0.000324978
0.000747442
0.000426811
0.000231813
3.92336e-05
0.000231813
3.82945e-05
0.000381944
0.000139905
0.000584004
)
;
    }
    ceiling
    {
        Cmu             0.09;
        kappa           0.41;
        E               9.8;
        type            epsilonWallFunction;
        value           nonuniform List<scalar> 
43
(
0.0033679
0.00362375
0.00386702
0.00532544
0.0044975
0.00312991
0.00187933
0.00115789
0.000823542
0.000572211
0.000398421
0.000290011
0.000215267
0.000168084
0.000139718
0.000121146
0.000107463
9.65473e-05
8.81123e-05
8.27074e-05
8.07488e-05
8.22154e-05
8.66727e-05
9.35138e-05
0.000102661
0.000114249
0.000128623
0.000146371
0.000168449
0.000196498
0.000232015
0.000276337
0.000331623
0.000400556
0.000486133
0.000603763
0.00066072
0.000620959
0.000499687
0.00039532
0.00984344
0.0172555
0.0028951
)
;
    }
    sWall
    {
        Cmu             0.09;
        kappa           0.41;
        E               9.8;
        type            epsilonWallFunction;
        value           uniform 0.0033679;
    }
    nWall
    {
        Cmu             0.09;
        kappa           0.41;
        E               9.8;
        type            epsilonWallFunction;
        value           nonuniform List<scalar> 6(0.000184282 0.000205618 0.000344803 0.000544328 0.000565825 0.00039532);
    }
    sideWalls
    {
        type            empty;
    }
    glass1
    {
        Cmu             0.09;
        kappa           0.41;
        E               9.8;
        type            epsilonWallFunction;
        value           nonuniform List<scalar> 9(0.000432837 0.00106106 0.00190714 0.0030629 0.00464972 0.0068718 0.00965901 0.0104469 0.00984344);
    }
    glass2
    {
        Cmu             0.09;
        kappa           0.41;
        E               9.8;
        type            epsilonWallFunction;
        value           nonuniform List<scalar> 2(0.00128191 0.00104493);
    }
    sun
    {
        Cmu             0.09;
        kappa           0.41;
        E               9.8;
        type            epsilonWallFunction;
        value           nonuniform List<scalar> 
14
(
0.000432837
0.000557952
0.000596646
0.000686442
0.00077674
0.000869219
0.000968805
0.00107741
0.00117198
0.00123413
0.00124126
0.00117484
0.00102229
0.000744123
)
;
    }
    Table_master
    {
        Cmu             0.09;
        kappa           0.41;
        E               9.8;
        type            epsilonWallFunction;
        value           nonuniform List<scalar> 9(0.000198175 0.000132981 9.11364e-05 6.45275e-05 4.72868e-05 3.58132e-05 2.79872e-05 2.25646e-05 1.88682e-05);
    }
    Table_slave
    {
        Cmu             0.09;
        kappa           0.41;
        E               9.8;
        type            epsilonWallFunction;
        value           nonuniform List<scalar> 9(0.000283285 0.0002182 0.000180123 0.000155057 0.000135771 0.000118251 0.000103076 8.85143e-05 7.33129e-05);
    }
    inlet
    {
        type            turbulentMixingLengthDissipationRateInlet;
        mixingLength    0.01;
        phi             phi;
        k               k;
        value           uniform 0.000471672;
    }
    outlet
    {
        type            zeroGradient;
    }
}


// ************************************************************************* //
