/*--------------------------------*- C++ -*----------------------------------*\
  =========                 |
  \\      /  F ield         | OpenFOAM: The Open Source CFD Toolbox
   \\    /   O peration     | Website:  https://openfoam.org
    \\  /    A nd           | Version:  6
     \\/     M anipulation  |
\*---------------------------------------------------------------------------*/
FoamFile
{
    version     2.0;
    format      ascii;
    class       volScalarField;
    location    "40599.999999284184";
    object      nut;
}
// * * * * * * * * * * * * * * * * * * * * * * * * * * * * * * * * * * * * * //

dimensions      [0 2 -1 0 0 0 0];

internalField   nonuniform List<scalar> 
778
(
0.000894316
0.000953048
0.000949544
0.000990731
0.00102848
0.00106277
0.0010947
0.00112549
0.0011565
0.00118946
0.00122091
0.00125078
0.00128021
0.00131186
0.00134487
0.000632331
0.000905504
0.000912899
0.000890872
0.000853946
0.000804542
0.000755282
0.000709909
0.000669025
0.000632386
0.000599746
0.00057043
0.000543723
0.000518791
0.000494523
0.000469147
0.000448058
0.000405568
0.0013108
0.0025811
0.00226503
0.00261434
0.00286773
0.00313634
0.00340429
0.00365126
0.00385012
0.00396601
0.00403417
0.00400628
0.00380658
0.00331163
0.00241859
0.00147251
0.0014039
0.00134381
0.00113089
0.00192661
0.00267084
0.00311071
0.00313154
0.00247106
0.00211338
0.0018655
0.0016773
0.00152752
0.00139978
0.00128691
0.00118191
0.0010792
0.000987035
0.00090757
0.00102194
0.000514156
0.00166407
0.00360436
0.00267218
0.00382233
0.00427096
0.00465054
0.00499526
0.00529869
0.00555585
0.00575764
0.00595309
0.00615878
0.00634779
0.00646019
0.00638541
0.00584622
0.00427541
0.00164824
0.00142674
0.00305185
0.00425926
0.00483111
0.00439422
0.00115965
0.00100847
0.000891799
0.000800472
0.000727768
0.00066907
0.000621191
0.000582254
0.000551901
0.000606707
0.000713601
0.00112927
0.00058488
0.00200531
0.0048584
0.00255719
0.00429816
0.00496259
0.00531805
0.00557941
0.00577278
0.00591717
0.00603434
0.00620075
0.00648187
0.00689197
0.00740742
0.00792523
0.00817976
0.0076799
0.00572783
0.00164145
0.00380194
0.0056543
0.00659554
0.00682842
0.0058302
0.00132019
0.00120089
0.00110857
0.00103178
0.000966308
0.000907493
0.000852032
0.000796951
0.000737477
0.000688963
0.000713946
0.00122177
0.000644011
0.00234206
0.00643311
0.00258021
0.00408623
0.00510797
0.0054113
0.00552154
0.00552601
0.00547135
0.005423
0.00549274
0.0057659
0.00626698
0.00697623
0.00779836
0.00855529
0.00903514
0.0090289
0.00810295
0.00824428
0.00843237
0.00845848
0.00828679
0.00775721
0.00617402
0.00533371
0.0047581
0.00429037
0.00383156
0.0033871
0.00295224
0.00251784
0.00207145
0.00159132
0.00121465
0.00121201
0.000959301
0.000767486
0.00100526
0.000966626
0.00267371
0.00819633
0.00303795
0.00344604
0.0048945
0.00523123
0.00520473
0.00501781
0.00475037
0.00452971
0.00452491
0.0048111
0.00538217
0.00620466
0.00716677
0.00812721
0.00894468
0.0094666
0.00956113
0.00946434
0.00929557
0.00905693
0.0087509
0.00836195
0.00779434
0.00724743
0.00675083
0.00627068
0.00575226
0.00519864
0.00460722
0.00397287
0.00329155
0.00256881
0.00191527
0.00143825
0.00111645
0.00124687
0.0021578
0.00115802
0.00301226
0.00982782
0.00404881
0.0028234
0.00439804
0.00494856
0.00488803
0.0045854
0.00414607
0.00375932
0.00374808
0.00410927
0.0047629
0.0056822
0.00672791
0.00776243
0.00865244
0.00928967
0.00958243
0.00955887
0.00934806
0.00902946
0.00866515
0.00830208
0.00795109
0.00762904
0.00732655
0.00700368
0.00661383
0.00614458
0.00558886
0.00494387
0.00421214
0.00341286
0.00263299
0.00190646
0.00140443
0.00125109
0.00218621
0.0013618
0.00330361
0.0110647
0.00552132
0.00268883
0.003484
0.00438685
0.00451328
0.0042647
0.0037452
0.00321922
0.00333847
0.00381608
0.0045468
0.00549405
0.00657991
0.0076629
0.00858643
0.00922799
0.00951915
0.00948049
0.00920858
0.00880792
0.00837726
0.00799556
0.00770143
0.00749129
0.00732748
0.00714953
0.0069021
0.00655578
0.00609675
0.00552208
0.00483737
0.00406398
0.00326245
0.0024556
0.00172877
0.00114329
0.00310641
0.00177026
0.00339338
0.0104837
0.00683737
0.00347782
0.00236276
0.00289475
0.0033875
0.00342957
0.00302851
0.00294428
0.00325033
0.00381184
0.00460138
0.0056052
0.0067427
0.00785888
0.00877936
0.0093718
0.00957991
0.00943661
0.00904281
0.00852624
0.00801385
0.00760524
0.00734593
0.00721852
0.00716067
0.00709217
0.00694988
0.00669981
0.00632828
0.00583363
0.00522247
0.00451293
0.0037378
0.00287201
0.00172443
0.00138869
0.00463771
0.00202546
0.00332468
0.00845783
0.00706649
0.00477661
0.00315389
0.00244184
0.00231245
0.00242099
0.00262495
0.00294946
0.00340902
0.00404041
0.00489809
0.00597924
0.00717777
0.0083094
0.00918209
0.00966331
0.00971415
0.00939151
0.00882254
0.00816736
0.00758264
0.0071823
0.00699891
0.00697716
0.00701638
0.00701526
0.00692279
0.00671987
0.00639984
0.00596202
0.00541069
0.00475245
0.00395556
0.00276048
0.00133337
0.00244582
0.00473282
0.00205844
0.00311436
0.00723072
0.00683511
0.00546879
0.00420775
0.00338727
0.00298173
0.00289031
0.00305872
0.00336806
0.00381665
0.0044819
0.00542749
0.00661126
0.00786969
0.00897708
0.00972975
0.010011
0.00981568
0.00924117
0.00845926
0.00767588
0.00708108
0.006783
0.0067484
0.00684521
0.00694283
0.00694419
0.00684637
0.0066493
0.00634851
0.00593915
0.00541793
0.00476697
0.00381217
0.00213578
0.00151375
0.00299968
0.00443863
0.00203059
0.00283595
0.00652038
0.006595
0.00579093
0.00492524
0.00427415
0.00389121
0.00375475
0.0037896
0.00397603
0.00438688
0.00512847
0.00621983
0.00752919
0.00881328
0.00980967
0.010325
0.0102851
0.00974267
0.00885654
0.00786624
0.00703945
0.00657324
0.00647871
0.00655821
0.00668496
0.00676996
0.00674588
0.00663288
0.00643393
0.00614091
0.00574123
0.00521893
0.00452782
0.00326174
0.00156051
0.0018961
0.00323112
0.00411778
0.00196294
0.00258628
0.0058324
0.00629779
0.00591751
0.00536172
0.00489524
0.00458539
0.00443424
0.00438914
0.00454755
0.00506808
0.00603568
0.00735438
0.00876989
0.00996972
0.0106924
0.0107994
0.0102949
0.00931991
0.00812025
0.00703401
0.00634041
0.00603626
0.00599413
0.00607255
0.00618265
0.00625866
0.00624152
0.00613241
0.00593405
0.00563444
0.00521626
0.00466219
0.00391549
0.00269624
0.00154587
0.0020421
0.00336095
0.00434685
0.00192673
0.0025944
0.0057881
0.00643468
0.00598957
0.00553963
0.00517141
0.00490604
0.0047334
0.00472508
0.00510979
0.00602778
0.00739746
0.00894173
0.0103066
0.0111801
0.0113776
0.0108757
0.00978715
0.00838556
0.00703067
0.00605301
0.00547967
0.00520117
0.00511614
0.00514589
0.00522683
0.00530102
0.00530173
0.00519295
0.00497346
0.0046252
0.00413922
0.00354079
0.00288536
0.00219816
0.00165673
0.00209207
0.00351691
0.00459697
0.00204961
0.00234175
0.00243516
0.003592
0.00421911
0.00441225
0.00441429
0.00437037
0.00445002
0.00498786
0.0061331
0.00773989
0.00946982
0.0109473
0.0118621
0.0120331
0.0114248
0.0101823
0.00853478
0.00696301
0.00574018
0.00491925
0.00443486
0.00418923
0.0040811
0.00404563
0.0040481
0.00405827
0.00402175
0.00387155
0.00359802
0.00319696
0.0027192
0.00227908
0.00198227
0.00185602
0.00189885
0.00239809
0.00394022
0.00465516
0.00208864
0.000807757
0.00146562
0.00226148
0.00290115
0.00364119
0.00489926
0.00674665
0.00879135
0.0106456
0.012025
0.0127399
0.0126707
0.0118252
0.0102916
0.00846677
0.00673775
0.00536998
0.00444671
0.00392413
0.00364711
0.0034822
0.00336272
0.0032639
0.00317691
0.00309276
0.00298813
0.0028187
0.00257586
0.00229159
0.00204776
0.00192936
0.00196276
0.00213009
0.00244437
0.00305619
0.00458801
0.00498647
0.00211468
0.00149706
0.00207601
0.00302986
0.00473629
0.00705688
0.00938159
0.0111876
0.0124864
0.0132633
0.0134693
0.0130133
0.0118051
0.0100335
0.00804754
0.00624304
0.0048956
0.00409447
0.00368884
0.00347247
0.00332734
0.00321056
0.00311135
0.00302787
0.00295722
0.00289085
0.00281151
0.00269908
0.00255942
0.00242369
0.00234532
0.00237335
0.00252015
0.00276826
0.0031147
0.00361368
0.00443126
0.004989
0.00203716
0.00275768
0.00666469
0.00611991
0.00547198
0.00696687
0.00931032
0.011295
0.0126366
0.0133412
0.0135113
0.0132284
0.0124672
0.0111959
0.00947596
0.00756837
0.00586108
0.00468899
0.00406432
0.00374808
0.00355054
0.00339392
0.00326033
0.00315369
0.00308192
0.00304877
0.00304995
0.00307149
0.00308976
0.00308073
0.00306003
0.00305193
0.00308131
0.00317054
0.00332808
0.00353949
0.00377121
0.00397494
0.00406412
0.00395499
0.00199006
0.00263914
0.0050979
0.00657963
0.00840168
0.00933457
0.0103083
0.0108827
0.0110289
0.0108212
0.0103121
0.0095224
0.00846623
0.00721705
0.00595399
0.00491719
0.00424014
0.00383386
0.00357826
0.00338658
0.00322128
0.0030772
0.00296383
0.00289493
0.00288215
0.0029303
0.00303357
0.00317254
0.00331249
0.00340801
0.00347422
0.00354475
0.00364282
0.00378277
0.00397116
0.00420734
0.00448225
0.00476787
0.00500069
0.00453699
0.00210162
0.00247382
0.00211939
0.0021086
0.00216954
0.0022198
0.00215254
0.00202171
0.0018682
0.00171376
0.00156744
0.00143271
0.00131306
0.00121389
0.0011409
0.00109563
0.00107303
0.00106713
0.00106863
0.00107479
0.0010859
0.001103
0.00112671
0.00115651
0.00119081
0.00122741
0.0012643
0.00130023
0.00133503
0.00136977
0.00140473
0.00144206
0.00148441
0.00153391
0.00159183
0.00165808
0.00173017
0.0018031
0.00187755
0.00198118
0.00201275
)
;

boundaryField
{
    floor
    {
        type            nutkWallFunction;
        Cmu             0.09;
        kappa           0.41;
        E               9.8;
        value           nonuniform List<scalar> 
36
(
0.000160576
7.63771e-05
0.000109538
0.000110417
0.000107795
0.000103382
9.74427e-05
9.14776e-05
8.59424e-05
8.09185e-05
7.63849e-05
7.23193e-05
6.86447e-05
6.52768e-05
6.21145e-05
5.90183e-05
5.57603e-05
5.30359e-05
4.74963e-05
4.74962e-05
6.15242e-05
7.04586e-05
7.7827e-05
9.29603e-05
0.000121331
0.000116787
0.000160576
0.000175021
0.000167275
0.000160454
7.63771e-05
0.000160454
0.000136003
0.000194688
0.000169857
0.00019393
)
;
    }
    ceiling
    {
        type            nutkWallFunction;
        Cmu             0.09;
        kappa           0.41;
        E               9.8;
        value           nonuniform List<scalar> 
43
(
0.000284331
0.000246294
0.000245129
0.000251723
0.000257151
0.000249914
0.000235743
0.000218979
0.000201954
0.000185661
0.000170507
0.000156917
0.000145552
0.00013713
0.000131885
0.000129265
0.000128584
0.000128763
0.000129479
0.000130767
0.000132747
0.000135489
0.000138938
0.000142904
0.000147132
0.000151386
0.00015552
0.000159513
0.000163482
0.000167464
0.000171693
0.000176472
0.000182037
0.000188528
0.000195928
0.000203955
0.00021205
0.000220254
0.000231542
0.000235046
0.00027043
0.000280412
0.000177576
)
;
    }
    sWall
    {
        type            nutkWallFunction;
        Cmu             0.09;
        kappa           0.41;
        E               9.8;
        value           nonuniform List<scalar> 9(0.000373892 0.000352073 0.000322957 0.000296596 0.000297456 0.00027052 0.000314411 0.00030193 0.000284433);
    }
    nWall
    {
        type            nutkWallFunction;
        Cmu             0.09;
        kappa           0.41;
        E               9.8;
        value           nonuniform List<scalar> 
14
(
0.000116794
0.000139166
0.000162524
0.000239794
0.000236742
0.000229372
0.0002255
0.000239001
0.000243132
0.000245955
0.000237484
0.000232409
0.000244924
0.000235082
)
;
    }
    sideWalls
    {
        type            empty;
    }
    glass1
    {
        type            nutkWallFunction;
        Cmu             0.09;
        kappa           0.41;
        E               9.8;
        value           nonuniform List<scalar> 9(0.000108249 0.000156884 0.00019674 0.000234355 0.0002708 0.000306151 0.000341767 0.000372087 0.000381382);
    }
    glass2
    {
        type            nutkWallFunction;
        Cmu             0.09;
        kappa           0.41;
        E               9.8;
        value           nonuniform List<scalar> 2(0.00020834 0.000236355);
    }
    sun
    {
        type            nutkWallFunction;
        Cmu             0.09;
        kappa           0.41;
        E               9.8;
        value           nonuniform List<scalar> 
14
(
0.000108208
0.000115179
0.000114764
0.000119626
0.000124062
0.000128075
0.000131799
0.000135378
0.000138971
0.000142778
0.0001464
0.000149831
0.000153202
0.000156816
)
;
    }
    Table_master
    {
        type            nutkWallFunction;
        Cmu             0.09;
        kappa           0.41;
        E               9.8;
        value           nonuniform List<scalar> 9(0.000139327 0.000121707 0.000107903 9.6951e-05 8.81276e-05 8.09277e-05 7.49989e-05 7.01365e-05 6.63188e-05);
    }
    Table_slave
    {
        type            nutkWallFunction;
        Cmu             0.09;
        kappa           0.41;
        E               9.8;
        value           nonuniform List<scalar> 9(0.000157755 0.000144086 0.000133404 0.000124442 0.000116741 0.000109771 0.000103151 9.65259e-05 8.93118e-05);
    }
    inlet
    {
        type            calculated;
        value           uniform 0.000167705;
    }
    outlet
    {
        type            calculated;
        value           nonuniform List<scalar> 2(0.00275768 0.00666469);
    }
}


// ************************************************************************* //
