/*--------------------------------*- C++ -*----------------------------------*\
  =========                 |
  \\      /  F ield         | OpenFOAM: The Open Source CFD Toolbox
   \\    /   O peration     | Website:  https://openfoam.org
    \\  /    A nd           | Version:  6
     \\/     M anipulation  |
\*---------------------------------------------------------------------------*/
FoamFile
{
    version     2.0;
    format      ascii;
    class       surfaceScalarField;
    location    "4020";
    object      phi;
}
// * * * * * * * * * * * * * * * * * * * * * * * * * * * * * * * * * * * * * //

dimensions      [1 0 -1 0 0 0 0];

internalField   nonuniform List<scalar> 
850
(
-0.00305312
0.00311358
-0.00414583
0.00109271
-0.00501492
0.000869091
-0.00570377
0.000688853
-0.00617585
0.000472076
-0.00639709
0.00022124
-0.00632787
-6.92198e-05
-0.00592403
-0.000403831
-0.00517378
-0.000750258
-0.0041286
-0.00104517
-0.00290029
-0.00122831
-0.00164149
-0.00125881
-0.000538985
-0.0011025
0.000135926
-0.000674911
0.000138277
-0.000922425
0.000926081
-0.000690037
-0.000232388
-6.08113e-05
-0.000629225
0.00054263
-0.000603441
0.00100181
-0.000459182
0.00125839
-0.000256576
0.0013665
-0.000108116
0.00141932
-5.28168e-05
0.00144967
-3.03534e-05
0.00146474
-1.50659e-05
0.00146835
-3.61064e-06
0.00146135
6.99976e-06
0.0014381
2.32533e-05
0.00137958
5.85199e-05
0.00125366
0.000125917
0.00105008
0.000203578
0.000793441
0.000256641
0.00079828
-0.00220746
0.00548443
-0.00329511
0.00218036
-0.00420833
0.00178231
-0.0049061
0.00138662
-0.00538761
0.000953585
-0.00563055
0.000464175
-0.00559451
-0.000105254
-0.0052403
-0.000758039
-0.00456678
-0.00142378
-0.00364272
-0.00196923
-0.00258803
-0.00228301
-0.00154149
-0.00230534
-0.000628653
-0.00201534
9.2948e-05
-0.00139651
0.000872772
-0.000641547
0.00114862
-0.00027206
0.000956843
0.000196133
0.000969532
4.151e-05
0.000895572
0.000421764
-0.000612642
0.000786648
-0.00099411
0.00109962
-0.000916411
0.00135047
-0.000710033
0.00140694
-0.000313042
0.00141507
-0.000116252
0.0014258
-6.35419e-05
0.00143478
-3.93392e-05
0.00144005
-2.03339e-05
0.00144221
-5.77441e-06
0.00144182
7.39079e-06
0.00143635
2.87316e-05
0.00139989
9.4976e-05
0.00124701
0.000278796
0.000978549
0.000472039
0.000644609
0.000590581
0.00145527
-0.00156234
0.00729719
-0.00251038
0.0031284
-0.00334301
0.00261494
-0.00396557
0.00200919
-0.00441314
0.00140116
-0.00466166
0.000712693
-0.00465599
-0.000110925
-0.00433469
-0.00107934
-0.00371314
-0.00204533
-0.00288871
-0.00279366
-0.00198659
-0.00318513
-0.00112265
-0.00316928
-0.000373448
-0.00276454
0.000240554
-0.00201051
0.000752057
-0.00115305
0.000899408
-0.000419412
0.000707516
0.000388025
0.00168831
0.00143724
-0.000527829
0.00163274
-0.000808142
0.00157514
-0.000936512
0.00160843
-0.000949698
0.00181169
-0.0009133
0.0014988
0.00138271
0.00131932
0.00128013
0.00125995
0.00125433
0.00126188
0.00129076
0.00138589
0.00115887
0.000505822
0.000869986
0.000760919
0.000498888
0.000961679
0.00197272
-0.00109547
0.00871731
-0.00185228
0.0038852
-0.0024366
0.00319927
-0.00288268
0.00245527
-0.00322781
0.00174629
-0.00344067
0.000925556
-0.00344208
-0.000109523
-0.00312366
-0.00139776
-0.00254778
-0.0026212
-0.00184606
-0.00349539
-0.0011304
-0.00390079
-0.00048068
-0.003819
6.57949e-05
-0.00331102
0.000526392
-0.00247111
0.000902493
-0.00152915
0.00111957
-0.000636486
0.00130375
0.00020384
0.00225752
0.000734545
0.0021677
0.000101754
0.00199493
-0.000355057
0.00190897
-0.000722175
0.00179817
-0.000825712
0.00166597
-0.000817498
0.001435
-0.000682337
0.00175861
-0.000323764
0.00193628
-0.000177824
0.00206722
-0.000131085
0.00216801
-0.000100945
0.00222824
-6.03819e-05
0.00222568
2.40399e-06
0.00213279
9.2738e-05
0.00191323
0.000219402
0.00150707
0.000406004
0.00126968
0.000743214
0.000902425
0.00112818
0.000384082
0.00148002
0.00238045
-0.000756066
0.0098611
-0.00132705
0.00445619
-0.00150962
0.00338184
-0.00168822
0.00263386
-0.0018532
0.00191127
-0.00196223
0.00103458
-0.00191377
-0.000157985
-0.00155673
-0.00175479
-0.00105571
-0.00312222
-0.000537798
-0.0040133
-7.33044e-05
-0.00436528
0.000305349
-0.00419766
0.000596519
-0.00360219
0.000849401
-0.00272399
0.00106874
-0.00174849
0.00127615
-0.000843894
0.00158683
-0.000106836
0.00203039
0.000290987
0.00206426
6.78813e-05
0.00199695
-0.000287746
0.00181245
-0.000537679
0.00162458
-0.000637838
0.00144749
-0.000640407
0.0013188
-0.000553655
0.00137756
-0.000382523
0.00146563
-0.000265887
0.0015501
-0.000215558
0.00163159
-0.000182434
0.00170172
-0.000130518
0.00174076
-3.66272e-05
0.00172469
0.000108804
0.00163843
0.000305665
0.00148619
0.000558239
0.00133011
0.000899298
0.00115113
0.00130716
0.000804093
0.00182706
0.00101981
0.00216473
-0.00109518
0.00213611
-0.00179343
0.000717875
-0.00172066
-0.000638713
0.0109406
-0.00101437
0.00483185
-0.000633429
0.0030009
-0.000448687
0.00244912
-0.000384066
0.00184665
-0.000303707
0.000954224
-5.19178e-05
-0.000409775
0.00033449
-0.0021412
0.000692173
-0.00347991
0.000952021
-0.00427314
0.00109504
-0.0045083
0.00114537
-0.00424798
0.00113927
-0.00359609
0.00111608
-0.00270081
0.00110061
-0.00173303
0.00113278
-0.000876062
0.00126985
-0.000243903
0.00148462
7.62124e-05
0.00153589
1.66167e-05
0.00143792
-0.000189773
0.00126354
-0.000363303
0.00108388
-0.000458174
0.000926575
-0.000483106
0.000821551
-0.000448631
0.000810753
-0.000371725
0.000860099
-0.000315233
0.000936268
-0.000291727
0.00102701
-0.00027318
0.00112585
-0.00022935
0.00122285
-0.000133631
0.00129576
3.58923e-05
0.00133282
0.000268604
0.00134812
0.000542939
0.00138214
0.000865279
0.00148259
0.0012067
0.00168608
0.00162358
0.00203682
0.00181399
0.00233694
0.00183598
0.00182999
0.00122483
0.000174759
-0.000763859
0.0121917
-0.000621476
0.00468946
0.000492288
0.00188713
0.000960642
0.00198077
0.00121801
0.00158928
0.00159951
0.000572719
0.0021028
-0.000913063
0.00243996
-0.00247836
0.00257376
-0.00361371
0.00250621
-0.00420559
0.00227299
-0.00427507
0.00193603
-0.00391102
0.0015591
-0.00321916
0.00120035
-0.00234206
0.000896625
-0.0014293
0.000705091
-0.000684529
0.000653501
-0.000192313
0.000704666
2.50476e-05
0.000712749
8.53325e-06
0.000636489
-0.000113513
0.000509165
-0.000235979
0.000368868
-0.000317876
0.000242968
-0.000357206
0.000156857
-0.00036252
0.000133896
-0.000348764
0.000162903
-0.00034424
0.000222532
-0.000351357
0.000302988
-0.000353637
0.000405276
-0.000331637
0.000534366
-0.000262721
0.00068727
-0.000117012
0.00084521
0.000110664
0.00100721
0.000380935
0.00120906
0.000663428
0.00148366
0.00093211
0.00188404
0.0012232
0.00241743
0.00128059
0.00318504
0.00106838
0.00336162
0.00104825
0.00360519
0.00273594
0.00999912
0.00339172
0.00403369
0.00344937
0.00182948
0.00353506
0.00189508
0.00374633
0.00137801
0.00422225
9.68005e-05
0.0046934
-0.00138421
0.00478842
-0.00257339
0.00451409
-0.00333938
0.00396093
-0.00365244
0.00322976
-0.0035439
0.00242477
-0.00310603
0.00162793
-0.00242232
0.000922024
-0.00163615
0.000347361
-0.00085464
-2.5201e-06
-0.000334648
-0.000140832
-5.40005e-05
-0.000155258
3.94735e-05
-0.000163109
1.63839e-05
-0.000215238
-6.13847e-05
-0.000306056
-0.00014516
-0.000412283
-0.00021165
-0.000511601
-0.000257888
-0.00058587
-0.000288251
-0.000623867
-0.000310766
-0.00063308
-0.000335027
-0.000625255
-0.000359182
-0.000604691
-0.0003742
-0.00056641
-0.000369918
-0.000494191
-0.00033494
-0.000356727
-0.000254476
-0.000146595
-9.94684e-05
0.000104173
0.000130168
0.000388867
0.000378734
0.000707309
0.000613668
0.00108958
0.000840923
0.00150689
0.000863286
0.00189864
0.000676622
0.00120604
0.00174085
0.00509764
0.010598
0.0146276
0.0125614
0.00389561
0.0112293
0.00322725
0.0103408
0.00226648
0.00953395
0.000903631
0.00853152
-0.000381774
0.00735259
-0.00139446
0.0060793
-0.00206609
0.00476046
-0.0023336
0.00342926
-0.0022127
0.00216421
-0.00184099
0.00100938
-0.00126749
5.63473e-05
-0.000683116
-0.000566067
-0.000232226
-0.000859653
-4.10616e-05
-0.000956789
4.31348e-05
-0.000976446
5.91312e-05
-0.000991834
3.17718e-05
-0.00103527
-1.79527e-05
-0.00110784
-7.25815e-05
-0.00119688
-0.000122617
-0.00128868
-0.000166081
-0.00137431
-0.000202627
-0.0014515
-0.000233571
-0.00152704
-0.000259487
-0.0016102
-0.000276021
-0.00170952
-0.000274881
-0.00183466
-0.000244781
-0.00199851
-0.000171085
-0.00221651
-3.64797e-05
-0.00248301
0.000167032
-0.00280698
0.000454139
-0.00327095
0.000842704
-0.00398816
0.00133087
-0.0050297
0.00188247
-0.00651691
0.0023505
-0.00825536
0.00241507
-0.00777181
0.0012573
-0.00235715
0.00895046
0.00560354
0.00747189
0.00470582
0.00708002
0.00265835
0.00672919
0.00125446
0.0061192
0.000228214
0.00524677
-0.000522034
0.00417818
-0.000997488
0.00298277
-0.00113819
0.00169118
-0.000921103
0.00043031
-0.000580119
-0.00060956
-0.000227625
-0.00127076
-2.19115e-05
-0.00156324
6.02477e-05
-0.00167791
7.36105e-05
-0.00170788
7.31035e-05
-0.00171365
6.49007e-05
-0.00172867
4.6793e-05
-0.00176748
2.08565e-05
-0.0018314
-8.66191e-06
-0.00191294
-4.10718e-05
-0.00200445
-7.45783e-05
-0.00210375
-0.000103321
-0.0022122
-0.00012512
-0.00233323
-0.000138463
-0.00246896
-0.000140288
-0.00261827
-0.000125571
-0.00277573
-8.73166e-05
-0.00292901
-1.78136e-05
-0.00306256
9.70706e-05
-0.00317483
0.000279306
-0.00327577
0.000555081
-0.00337728
0.000944212
-0.0034861
0.00143969
-0.00356961
0.00196597
-0.00356799
0.00234888
-0.00331003
0.00215711
-0.00195004
-0.000102692
-0.00422387
-0.0008261
0.00648295
0.000742095
0.00313762
0.0014078
0.00199265
0.0016467
0.00101556
0.00158286
0.000292049
0.00121184
-0.000151014
0.000529615
-0.000315258
-0.000363815
-0.000244764
-0.00124113
-4.37914e-05
-0.00188641
6.51682e-05
-0.00222714
0.000113102
-0.0023581
0.000109046
-0.00238119
8.33413e-05
-0.00237096
6.33807e-05
-0.00234989
5.20354e-05
-0.00232933
4.43372e-05
-0.00231834
3.58047e-05
-0.00232222
2.47354e-05
-0.00234159
1.07093e-05
-0.00237543
-7.23081e-06
-0.00242402
-2.59893e-05
-0.00248537
-4.19694e-05
-0.00255739
-5.31046e-05
-0.00263755
-5.83045e-05
-0.00272179
-5.60473e-05
-0.00280353
-4.38317e-05
-0.0028733
-1.75453e-05
-0.00291855
2.74324e-05
-0.00291853
9.70517e-05
-0.00284796
0.000208743
-0.00267231
0.000379432
-0.00236025
0.000632152
-0.00190395
0.000983387
-0.00128937
0.0013514
-0.000299689
0.00135919
0.00114765
0.000709772
0.00164261
-0.000597659
-0.00248957
-0.0120486
-0.0155771
-0.00905365
-0.00588862
-0.0038737
-0.00283953
-0.00253245
-0.00267146
-0.00297679
-0.00321306
-0.00324918
-0.00317673
-0.00305649
-0.00294033
-0.00284986
-0.00277934
-0.00272012
-0.00266857
-0.00262549
-0.00259345
-0.00257543
-0.00257538
-0.00259418
-0.00262907
-0.00267522
-0.00272671
-0.00277611
-0.00281347
-0.00282473
-0.00279122
-0.00268831
-0.00247394
-0.00208913
-0.00145188
-0.000463677
0.000892149
0.00225548
0.0029693
0.00237583
)
;

boundaryField
{
    floor
    {
        type            calculated;
        value           nonuniform List<scalar> 
36
(
0
0
0
0
0
0
0
0
0
0
0
0
0
0
0
0
0
0
0
-4.83914e-06
-1.23782e-05
-1.85697e-05
-2.36404e-05
-2.11162e-05
-1.96191e-05
-1.84535e-05
-2.35097e-06
-3.78399e-06
-4.35946e-06
-5.04476e-06
-3.65658e-06
-7.64391e-06
-1.10004e-05
-1.12623e-05
-1.38364e-05
-1.19395e-05
)
;
    }
    ceiling
    {
        type            calculated;
        value           nonuniform List<scalar> 
43
(
-4.18439e-05
-4.11786e-05
-4.04782e-05
-2.74141e-05
-2.22701e-05
-1.86049e-05
-1.50289e-05
-1.20046e-05
-9.92938e-06
-8.50212e-06
-7.66631e-06
-7.28573e-06
-7.13801e-06
-7.11124e-06
-7.12496e-06
-7.14633e-06
-7.17753e-06
-7.22035e-06
-7.26666e-06
-7.30725e-06
-7.31486e-06
-7.27615e-06
-7.19266e-06
-7.08112e-06
-6.95229e-06
-6.80916e-06
-6.64853e-06
-6.47524e-06
-6.28374e-06
-6.07863e-06
-5.859e-06
-5.62511e-06
-5.37649e-06
-5.10583e-06
-4.81121e-06
-4.42482e-06
-4.1395e-06
-4.04926e-06
-4.1813e-06
-3.60358e-06
6.94075e-06
4.17888e-06
-5.3314e-05
)
;
    }
    sWall
    {
        type            calculated;
        value           uniform -0.000241399;
    }
    nWall
    {
        type            calculated;
        value           nonuniform List<scalar> 6(-5.43171e-05 -6.54339e-05 -6.88139e-05 -8.33264e-05 -9.16853e-05 -0.00011014);
    }
    sideWalls
    {
        type            empty;
        value           nonuniform 0();
    }
    glass1
    {
        type            calculated;
        value           nonuniform List<scalar> 9(-6.04583e-05 -0.000163402 -0.000250424 -0.000324644 -0.000387723 -0.000440785 -0.000487272 -0.000543332 -0.000605862);
    }
    glass2
    {
        type            calculated;
        value           nonuniform List<scalar> 2(-0.000286411 -0.000317012);
    }
    sun
    {
        type            calculated;
        value           uniform 0;
    }
    Table_master
    {
        type            calculated;
        value           nonuniform List<scalar> 9(-1.5364e-07 -1.53789e-07 -1.53839e-07 -1.53869e-07 -1.53889e-07 -1.53902e-07 -1.53906e-07 -1.539e-07 -1.5387e-07);
    }
    Table_slave
    {
        type            calculated;
        value           nonuniform List<scalar> 9(1.5353e-07 1.53515e-07 1.53468e-07 1.53431e-07 1.53408e-07 1.53408e-07 1.53413e-07 1.53451e-07 1.53535e-07);
    }
    inlet
    {
        type            calculated;
        value           uniform -0.0106584;
    }
    outlet
    {
        type            calculated;
        value           nonuniform List<scalar> 2(0.0123318 0.00356969);
    }
}


// ************************************************************************* //
