/*--------------------------------*- C++ -*----------------------------------*\
  =========                 |
  \\      /  F ield         | OpenFOAM: The Open Source CFD Toolbox
   \\    /   O peration     | Website:  https://openfoam.org
    \\  /    A nd           | Version:  6
     \\/     M anipulation  |
\*---------------------------------------------------------------------------*/
FoamFile
{
    version     2.0;
    format      ascii;
    class       volScalarField;
    location    "1310";
    object      alphat;
}
// * * * * * * * * * * * * * * * * * * * * * * * * * * * * * * * * * * * * * //

dimensions      [1 -1 -1 0 0 0 0];

internalField   nonuniform List<scalar> 
458
(
0.00124412
0.00135525
0.00138595
0.00145227
0.00151336
0.0015712
0.00162907
0.00168782
0.00173587
0.00176608
0.00176952
0.0017374
0.00165866
0.00149197
0.0011318
0.000559117
0.00065549
0.000743176
0.000774896
0.000762757
0.00071377
0.000659576
0.000611086
0.000569083
0.000532601
0.000500746
0.00047287
0.000448152
0.000425638
0.000404284
0.000382842
0.000370096
0.000340112
0.00167645
0.00377417
0.00348145
0.00398906
0.00449519
0.00501583
0.00548303
0.00584441
0.00621573
0.00656348
0.00684252
0.00701203
0.00702777
0.00678287
0.00551212
0.00149409
0.00123951
0.00101123
0.000554597
0.00131633
0.00191847
0.00238457
0.00253194
0.00184523
0.00155773
0.00136211
0.00121774
0.00110713
0.00101936
0.000943673
0.000872543
0.000801549
0.000738121
0.000684953
0.000837918
0.000447107
0.00203695
0.00507215
0.0041863
0.00510417
0.00548989
0.00576075
0.00596896
0.00616125
0.00642916
0.00675504
0.00711125
0.0074602
0.00773543
0.00783138
0.00737873
0.00601347
0.00455727
0.00119437
0.00085426
0.00147423
0.00214519
0.00281249
0.00300304
0.000959353
0.000839892
0.000740499
0.000659996
0.00059503
0.000542382
0.000499586
0.000464977
0.000438057
0.000485433
0.000562187
0.000983165
0.000528378
0.00238378
0.00647792
0.00407207
0.00528752
0.00549847
0.00547731
0.00545772
0.0055499
0.00576798
0.00609074
0.00650079
0.00695783
0.00735761
0.00760847
0.00755112
0.00716013
0.00614504
0.0033736
0.00137592
0.00175186
0.0024082
0.0032119
0.00390862
0.00394274
0.00108049
0.000990392
0.000929024
0.000883724
0.000845426
0.000807357
0.000771214
0.000733029
0.000688399
0.00064844
0.000639021
0.00117175
0.000608552
0.00273783
0.00836872
0.00427099
0.00501896
0.00532039
0.00513999
0.00499317
0.00507682
0.00530726
0.00564341
0.00608582
0.0065871
0.00697888
0.00717339
0.00716792
0.00703066
0.0066253
0.00547842
0.0049651
0.0050009
0.005292
0.00563883
0.00585148
0.0057551
0.00490993
0.00447541
0.0042359
0.0040644
0.00389079
0.00366742
0.00328729
0.00279778
0.00224099
0.0017047
0.00127865
0.00119139
0.00103429
0.000813322
0.00086076
0.000935588
0.00311664
0.0104976
0.00584872
0.00464666
0.00506384
0.00505292
0.00486536
0.00493497
0.00517022
0.00550683
0.00595574
0.00643644
0.00679914
0.00691456
0.00680407
0.00664648
0.0065755
0.00648087
0.00667564
0.00701347
0.00725036
0.00729227
0.00713221
0.00679778
0.00633102
0.00595188
0.0056566
0.00539646
0.005141
0.0048699
0.00451974
0.00403965
0.00343241
0.00274552
0.00210982
0.00152998
0.00125755
0.0010969
0.0013812
0.000970514
0.00348933
0.0121021
0.0087246
0.0057104
0.00496902
0.00504001
0.00510345
0.00514032
0.00527418
0.00557144
0.00601341
0.00648992
0.00682228
0.0068586
0.0066492
0.00649778
0.00674685
0.00729956
0.00786217
0.00817949
0.00817986
0.00790726
0.00744583
0.00688436
0.00632521
0.00587532
0.00553458
0.00525831
0.00501655
0.0047996
0.00460221
0.00434407
0.00391964
0.00335248
0.00276341
0.00219745
0.00182809
0.00167467
0.00159625
0.00115311
0.00357893
0.0112149
0.00952693
0.00799825
0.00682855
0.00631025
0.0058235
0.00549385
0.00549004
0.00577414
0.00623146
0.00670192
0.00698125
0.00691619
0.00665963
0.00672328
0.00743539
0.00801968
0.00832384
0.00830957
0.00797904
0.00740766
0.00670481
0.00599598
0.00540698
0.00499422
0.0047158
0.00451583
0.00436786
0.00426811
0.00422381
0.00422587
0.00411281
0.00377575
0.00344721
0.0032642
0.003344
0.00353
0.0041932
0.00178524
0.00350478
0.00423034
0.00467525
0.00492478
0.00496206
0.0048888
0.00489226
0.00510056
0.00552048
0.00605417
0.00659932
0.00702791
0.00716464
0.0069173
0.00684716
0.00720828
0.00762576
0.00776868
0.00766461
0.00730179
0.00669376
0.00594303
0.00519353
0.00457849
0.00415286
0.00388186
0.00370005
0.00356185
0.00344405
0.00333344
0.00321999
0.00309542
0.00298242
0.0028846
0.0028198
0.00278326
0.0027138
0.00257082
0.00239712
0.00166671
0.0015797
0.00276042
0.00377651
0.00457223
0.00530111
0.00601021
0.00657157
0.00694745
0.00719138
0.0072241
0.00698611
0.00669739
0.00669845
0.00681785
0.00672592
0.006455
0.00602793
0.00545291
0.0047917
0.00414562
0.00363132
0.00328485
0.00307244
0.00294204
0.00285542
0.00279233
0.00274395
0.00270823
0.00268815
0.00269439
0.00271012
0.00272413
0.00272483
0.0026817
0.00254872
0.00231444
0.0020242
0.00134113
0.00238084
0.00465372
0.00595162
0.00679227
0.0074458
0.00749564
0.00710365
0.00671011
0.00637228
0.00573429
0.00528107
0.00517584
0.0051045
0.00490478
0.00460371
0.00423056
0.00379298
0.0033326
0.00291744
0.00259454
0.00237181
0.00224339
0.00218316
0.00217014
0.00219132
0.00223853
0.00230456
0.00238094
0.00247037
0.00257301
0.00268285
0.00279071
0.00287843
0.00292223
0.00288131
0.00284562
0.00261997
0.00135861
0.00249159
0.00255349
0.00260943
0.00289321
0.00272898
0.00241415
0.00203346
0.0017284
0.00154185
0.00136504
0.00120955
0.00108788
0.000984898
0.000906869
0.000852649
0.000813036
0.00078118
0.00075377
0.000731138
0.000715867
0.000710168
0.000714441
0.000727126
0.000745776
0.00076934
0.000797265
0.000829391
0.00086591
0.000907422
0.000955227
0.00100962
0.0010702
0.00113728
0.00121116
0.00129189
0.00138862
0.00143093
0.0014016
0.00130365
0.00120556
)
;

boundaryField
{
    floor
    {
        type            compressible::alphatWallFunction;
        Prt             0.85;
        value           nonuniform List<scalar> 
36
(
0.000160687
7.82028e-05
9.26091e-05
0.000105493
0.000110109
0.000108346
0.000101195
9.32149e-05
8.60068e-05
7.97063e-05
7.41872e-05
6.93294e-05
6.50468e-05
6.12226e-05
5.77161e-05
5.43683e-05
5.09838e-05
4.89604e-05
4.41647e-05
4.41641e-05
6.1061e-05
7.35464e-05
8.563e-05
0.000115678
0.000122505
0.000133176
0.000160685
0.000210156
0.000175558
0.000143842
7.82018e-05
0.00014384
7.75193e-05
0.000169344
0.000121557
0.000194189
)
;
    }
    ceiling
    {
        type            compressible::alphatWallFunction;
        Prt             0.85;
        value           nonuniform List<scalar> 
43
(
0.000340273
0.000348136
0.000355227
0.000391032
0.00037044
0.000330542
0.000281532
0.000241537
0.000216701
0.000192846
0.000171576
0.000154714
0.000140271
0.00012921
0.000121459
0.000115758
0.00011115
0.000107167
0.000103865
0.00010163
0.000100795
0.000101422
0.000103279
0.000106003
0.000109432
0.00011348
0.000118117
0.000123361
0.000129291
0.00013608
0.000143758
0.000152251
0.000161591
0.000171806
0.000182887
0.000196062
0.000201791
0.000197821
0.000184496
0.000171038
0.00046712
0.000555328
0.000326053
)
;
    }
    sWall
    {
        type            compressible::alphatWallFunction;
        Prt             0.85;
        value           uniform 0.00033903;
    }
    nWall
    {
        type            compressible::alphatWallFunction;
        Prt             0.85;
        value           nonuniform List<scalar> 6(0.000132957 0.000137898 0.000163428 0.000189266 0.000191642 0.000170697);
    }
    sideWalls
    {
        type            empty;
    }
    glass1
    {
        type            compressible::alphatWallFunction;
        Prt             0.85;
        value           nonuniform List<scalar> 9(0.00017166 0.000229167 0.000275991 0.000320288 0.000364871 0.000411952 0.000457736 0.000468805 0.000459997);
    }
    glass2
    {
        type            compressible::alphatWallFunction;
        Prt             0.85;
        value           nonuniform List<scalar> 2(0.000247085 0.000231543);
    }
    sun
    {
        type            compressible::alphatWallFunction;
        Prt             0.85;
        value           nonuniform List<scalar> 
14
(
0.00017621
0.00019138
0.000195548
0.000204522
0.000212747
0.000220501
0.000228226
0.000236039
0.000242405
0.000246398
0.000246851
0.000242606
0.000232164
0.00020987
)
;
    }
    Table_master
    {
        type            compressible::alphatWallFunction;
        Prt             0.85;
        value           nonuniform List<scalar> 9(0.000136678 0.000119641 0.000105246 9.34156e-05 8.37404e-05 7.5804e-05 6.92819e-05 6.3956e-05 5.97786e-05);
    }
    Table_slave
    {
        type            compressible::alphatWallFunction;
        Prt             0.85;
        value           nonuniform List<scalar> 9(0.000153706 0.000141066 0.000132381 0.000125926 0.000120439 0.000114955 0.00010972 0.000104157 9.76109e-05);
    }
    inlet
    {
        type            fixedValue;
        value           uniform 1.94e-05;
    }
    outlet
    {
        type            zeroGradient;
    }
}


// ************************************************************************* //
