/*--------------------------------*- C++ -*----------------------------------*\
  =========                 |
  \\      /  F ield         | OpenFOAM: The Open Source CFD Toolbox
   \\    /   O peration     | Website:  https://openfoam.org
    \\  /    A nd           | Version:  6
     \\/     M anipulation  |
\*---------------------------------------------------------------------------*/
FoamFile
{
    version     2.0;
    format      ascii;
    class       surfaceScalarField;
    location    "1310";
    object      phi;
}
// * * * * * * * * * * * * * * * * * * * * * * * * * * * * * * * * * * * * * //

dimensions      [1 0 -1 0 0 0 0];

internalField   nonuniform List<scalar> 
850
(
-0.00305327
0.00311372
-0.00414613
0.00109286
-0.0050153
0.00086917
-0.0057042
0.000688898
-0.0061763
0.000472097
-0.00639753
0.000221235
-0.00632827
-6.92558e-05
-0.00592437
-0.0004039
-0.00517402
-0.000750351
-0.00412874
-0.00104528
-0.00290032
-0.00122842
-0.00164141
-0.00125891
-0.000538847
-0.00110256
0.00013602
-0.000674867
0.000138371
-0.000922238
0.000925895
-0.000689588
-0.00023265
-5.99972e-05
-0.00062959
0.000543724
-0.000603721
0.00100313
-0.000459405
0.00125977
-0.000256643
0.00136788
-0.000108106
0.00142067
-5.27862e-05
0.00145099
-3.03224e-05
0.001466
-1.50154e-05
0.00146956
-3.55627e-06
0.00146252
7.04172e-06
0.0014392
2.33138e-05
0.00138059
5.86119e-05
0.00125454
0.000126053
0.00105074
0.000203801
0.00079374
0.000256998
0.000798579
-0.00220757
0.00548469
-0.00329532
0.00218061
-0.0042086
0.00178245
-0.00490639
0.0013867
-0.00538791
0.000953609
-0.00563082
0.000464152
-0.00559475
-0.000105335
-0.00524046
-0.000758182
-0.00456686
-0.00142396
-0.00364271
-0.00196943
-0.00258793
-0.0022832
-0.00154133
-0.00230551
-0.000628472
-0.00201542
9.31349e-05
-0.00139647
0.000872976
-0.00064147
0.00114871
-0.000271954
0.000956847
0.000196226
0.000969535
4.17524e-05
0.000895142
0.000421992
-0.00061289
0.000786826
-0.000994425
0.00109997
-0.000916869
0.00135108
-0.000710509
0.00140762
-0.000313187
0.00141575
-0.000116235
0.00142646
-6.34978e-05
0.00143545
-3.93059e-05
0.0014407
-2.02745e-05
0.00144287
-5.72018e-06
0.00144246
7.45156e-06
0.00143697
2.88074e-05
0.00140048
9.50932e-05
0.00124756
0.000278982
0.000978948
0.000472408
0.000644802
0.000591145
0.00145576
-0.0015624
0.00729751
-0.00251047
0.00312868
-0.00334313
0.00261511
-0.00396569
0.00200926
-0.00441325
0.00140117
-0.00466174
0.000712639
-0.00465601
-0.000111059
-0.00433462
-0.00107957
-0.00371299
-0.00204559
-0.00288849
-0.00279392
-0.00198632
-0.00318538
-0.00112236
-0.00316947
-0.000373166
-0.00276461
0.000240821
-0.00201046
0.000752269
-0.00115292
0.000899522
-0.000419207
0.000707541
0.000388207
0.00168834
0.00143681
-0.000527825
0.00163207
-0.000808158
0.00157436
-0.00093671
0.00160771
-0.000950219
0.00181148
-0.00091428
0.00149845
0.00138236
0.00131902
0.00127987
0.00125975
0.00125418
0.00126179
0.00129075
0.00138599
0.00115913
0.000505851
0.000870125
0.000761408
0.000498944
0.000962325
0.00197327
-0.00109551
0.00871767
-0.0018523
0.00388547
-0.0024366
0.0031994
-0.00288264
0.00245531
-0.00322772
0.00174624
-0.00344053
0.000925448
-0.00344187
-0.000109722
-0.00312331
-0.00139813
-0.00254736
-0.00262153
-0.00184561
-0.00349567
-0.00112994
-0.00390105
-0.000480233
-0.00381918
6.62043e-05
-0.00331105
0.000526743
-0.002471
0.000902728
-0.0015289
0.00111964
-0.000636115
0.00130359
0.000204256
0.00225695
0.000734976
0.0021666
0.000102285
0.00199351
-0.000354729
0.00190737
-0.00072202
0.00179643
-0.000825773
0.00166404
-0.00081783
0.0014326
-0.00068284
0.00175647
-0.000324026
0.00193435
-0.000178031
0.00206555
-0.000131354
0.00216667
-0.000101267
0.00222727
-6.0753e-05
0.00222507
2.03979e-06
0.00213246
9.24546e-05
0.00191312
0.000219195
0.00150711
0.000405854
0.00126982
0.000743138
0.000902476
0.00112875
0.000384131
0.00148067
0.00238104
-0.000756062
0.00986145
-0.00132702
0.00445642
-0.00150953
0.00338192
-0.00168805
0.00263382
-0.00185293
0.00191113
-0.00196186
0.00103438
-0.00191332
-0.000158269
-0.00155609
-0.00175535
-0.00105503
-0.00312259
-0.000537127
-0.00401358
-7.26654e-05
-0.00436551
0.000305943
-0.00419779
0.000597067
-0.00360217
0.000849867
-0.0027238
0.00106906
-0.00174809
0.00127622
-0.000843283
0.00158655
-0.000106074
0.00202968
0.00029185
0.00206319
6.87743e-05
0.00199552
-0.000287059
0.00181074
-0.000537243
0.00162263
-0.000637662
0.00144532
-0.000640519
0.00131647
-0.000553985
0.00137533
-0.000382887
0.00146362
-0.000266322
0.00154838
-0.000216111
0.00163019
-0.000183083
0.00170067
-0.000131233
0.00174005
-3.73369e-05
0.00172429
0.000108215
0.00163822
0.000305263
0.00148607
0.000558006
0.00132998
0.000899225
0.00115102
0.00130771
0.000803957
0.00182773
0.00101962
0.00216538
-0.00109556
0.0021363
-0.00179368
0.000717737
-0.00172091
-0.000638763
0.010941
-0.00101434
0.004832
-0.000633302
0.00300088
-0.000448431
0.00244895
-0.000383662
0.00184636
-0.000303141
0.00095386
-5.1146e-05
-0.000410264
0.000335367
-0.00214187
0.000693074
-0.0034803
0.000952881
-0.00427339
0.00109582
-0.00450845
0.00114609
-0.00424806
0.00113993
-0.00359601
0.00111665
-0.00270052
0.00110101
-0.00173245
0.00113289
-0.000875165
0.00126958
-0.00024276
0.00148391
7.75131e-05
0.00153485
1.78368e-05
0.00143657
-0.000188774
0.00126191
-0.000362589
0.00108202
-0.000457767
0.000924552
-0.000483052
0.000819453
-0.000448887
0.000808742
-0.000372176
0.000858285
-0.000315864
0.000934695
-0.000292521
0.00102571
-0.000274099
0.00112483
-0.000230352
0.00122215
-0.000134651
0.00129533
3.5031e-05
0.00133251
0.000268078
0.00134783
0.000542692
0.00138177
0.00086528
0.0014823
0.00120718
0.00168582
0.00162421
0.00203667
0.00181453
0.00233685
0.00183612
0.00182987
0.00122472
0.000174399
-0.000763802
0.0121921
-0.000621373
0.00468957
0.000492478
0.00188703
0.000960969
0.00198046
0.00121851
0.00158881
0.00160028
0.000572093
0.00210381
-0.00091379
0.00244096
-0.00247901
0.00257478
-0.00361412
0.00250716
-0.00420577
0.00227383
-0.00427512
0.00193678
-0.003911
0.00155977
-0.00321901
0.00120093
-0.00234167
0.000897007
-0.00142853
0.000705154
-0.000683312
0.000653186
-0.000190792
0.000703981
2.67181e-05
0.000711779
1.00388e-05
0.000635275
-0.000112271
0.000507741
-0.000235056
0.000367273
-0.000317299
0.000241294
-0.000357073
0.000155184
-0.000362777
0.000132313
-0.000349305
0.000161454
-0.000345006
0.000221229
-0.000352296
0.000301827
-0.000354697
0.00040423
-0.000332755
0.000533405
-0.000263826
0.000686491
-0.000118056
0.000844617
0.000109953
0.00100666
0.000380644
0.00120846
0.000663487
0.00148316
0.000932487
0.00188369
0.00122367
0.0024173
0.00128093
0.00318506
0.00106835
0.00336179
0.00104799
0.003605
0.00273621
0.00999918
0.00339204
0.00403374
0.00344974
0.00182933
0.00353559
0.00189461
0.0037471
0.00137731
0.00422329
9.58965e-05
0.00469456
-0.00138505
0.00478955
-0.00257401
0.00451513
-0.0033397
0.00396182
-0.00365247
0.00323049
-0.00354379
0.00242537
-0.00310588
0.00162842
-0.00242206
0.000922412
-0.00163566
0.000347474
-0.000853593
-2.73893e-06
-0.000333099
-0.00014131
-5.2221e-05
-0.000155922
4.13298e-05
-0.000163915
1.80318e-05
-0.000216167
-6.00185e-05
-0.000307064
-0.000144159
-0.000413356
-0.000211006
-0.000512652
-0.000257777
-0.000586873
-0.000288556
-0.00062482
-0.000311357
-0.000634012
-0.000335814
-0.000626169
-0.000360139
-0.000605611
-0.000375255
-0.00056736
-0.000371006
-0.000495193
-0.000335993
-0.000357839
-0.00025541
-0.000147626
-0.00010026
0.000103313
0.000129705
0.000388087
0.000378713
0.000706708
0.000613865
0.00108924
0.00084114
0.00150679
0.000863383
0.00189862
0.000676525
0.00120596
0.00174064
0.00509737
0.0105981
0.0146277
0.0125618
0.00389515
0.01123
0.0032264
0.010342
0.0022654
0.00953522
0.000902635
0.00853268
-0.000382511
0.0073536
-0.00139493
0.00608012
-0.00206622
0.00476101
-0.00233336
0.00342955
-0.00221233
0.00216434
-0.00184068
0.00100936
-0.00126708
5.61254e-05
-0.000682433
-0.000566568
-0.000230899
-0.000860341
-3.93267e-05
-0.000957439
4.48778e-05
-0.000976908
6.07982e-05
-0.000992162
3.32865e-05
-0.00103552
-1.66602e-05
-0.00110803
-7.16469e-05
-0.001197
-0.000122038
-0.00128876
-0.000166017
-0.00137436
-0.00020296
-0.00145156
-0.000234158
-0.00152717
-0.000260203
-0.0016104
-0.000276902
-0.00170982
-0.000275843
-0.00183504
-0.000245784
-0.00199894
-0.000172086
-0.00221696
-3.73962e-05
-0.00248355
0.000166332
-0.00280753
0.000453686
-0.00327131
0.000842495
-0.00398833
0.00133088
-0.00502978
0.00188259
-0.00651699
0.0023506
-0.0082555
0.00241504
-0.0077719
0.00125704
-0.00235752
0.00895059
0.00560296
0.00747204
0.00470495
0.00708016
0.00265729
0.00672935
0.00125344
0.0061193
0.000227548
0.0052467
-0.000522332
0.00417789
-0.000997413
0.00298215
-0.00113762
0.00169036
-0.000920532
0.000429398
-0.000579714
-0.000610524
-0.000227158
-0.00127178
-2.11747e-05
-0.00156413
6.14481e-05
-0.00167844
7.49884e-05
-0.00170805
7.44791e-05
-0.00171348
6.62278e-05
-0.00172821
4.80184e-05
-0.00176675
2.18805e-05
-0.00183046
-7.93385e-06
-0.00191182
-4.06782e-05
-0.0020032
-7.46381e-05
-0.00210245
-0.000103711
-0.00221093
-0.000125679
-0.00233206
-0.000139073
-0.00246798
-0.000140983
-0.00261748
-0.000126342
-0.00277514
-8.81171e-05
-0.00292864
-1.85927e-05
-0.0030624
9.63639e-05
-0.00317482
0.000278757
-0.00327581
0.000554678
-0.0033773
0.000943983
-0.00348605
0.00143963
-0.00356946
0.001966
-0.00356773
0.00234886
-0.00330961
0.00215693
-0.0019497
-0.000102878
-0.00422389
-0.000826182
0.00648246
0.000741712
0.00313706
0.00140705
0.00199195
0.00164559
0.0010149
0.00158143
0.000291704
0.00121019
-0.000151093
0.000527719
-0.000314939
-0.000365705
-0.000244197
-0.00124267
-4.35623e-05
-0.00188762
6.52336e-05
-0.00222803
0.000113254
-0.00235867
0.000109467
-0.00238127
8.4046e-05
-0.00237057
6.42886e-05
-0.00234904
5.29509e-05
-0.00232801
4.51936e-05
-0.00231662
3.66321e-05
-0.00232029
2.55418e-05
-0.00233952
1.13012e-05
-0.00237315
-7.04756e-06
-0.00242163
-2.61576e-05
-0.00248301
-4.23379e-05
-0.00255519
-5.34985e-05
-0.00263558
-5.8682e-05
-0.00272009
-5.64719e-05
-0.00280208
-4.43495e-05
-0.00287205
-1.81472e-05
-0.00291753
2.68852e-05
-0.0029178
9.66395e-05
-0.00284748
0.000208433
-0.00267201
0.000379209
-0.00236005
0.000632021
-0.00190377
0.000983347
-0.00128918
0.00135141
-0.000299463
0.00135915
0.00114775
0.00070971
0.00164257
-0.000597692
-0.00248964
-0.0120482
-0.0155768
-0.0090539
-0.00588943
-0.00387522
-0.00284172
-0.00253499
-0.00267408
-0.0029791
-0.0032148
-0.00325069
-0.00317817
-0.00305778
-0.0029412
-0.00285003
-0.00277861
-0.00271849
-0.00266609
-0.0026222
-0.00258936
-0.00257077
-0.00257057
-0.00258956
-0.00262483
-0.00267139
-0.00272327
-0.00277311
-0.002811
-0.00282287
-0.00278991
-0.00268741
-0.00247335
-0.00208877
-0.00145164
-0.000463479
0.000892356
0.00225564
0.0029694
0.00237589
)
;

boundaryField
{
    floor
    {
        type            calculated;
        value           nonuniform List<scalar> 
36
(
0
0
0
0
0
0
0
0
0
0
0
0
0
0
0
0
0
0
0
-4.83912e-06
-1.23785e-05
-1.857e-05
-2.36399e-05
-2.11163e-05
-1.96192e-05
-1.84536e-05
-2.35094e-06
-3.78386e-06
-4.35926e-06
-5.04456e-06
-3.65656e-06
-7.64361e-06
-1.10002e-05
-1.12613e-05
-1.38375e-05
-1.19385e-05
)
;
    }
    ceiling
    {
        type            calculated;
        value           nonuniform List<scalar> 
43
(
-4.18396e-05
-4.11748e-05
-4.04752e-05
-2.741e-05
-2.22648e-05
-1.85992e-05
-1.50234e-05
-1.20012e-05
-9.9261e-06
-8.49922e-06
-7.66496e-06
-7.28601e-06
-7.13865e-06
-7.11115e-06
-7.12245e-06
-7.14015e-06
-7.16708e-06
-7.20868e-06
-7.25812e-06
-7.28962e-06
-7.28847e-06
-7.25053e-06
-7.17124e-06
-7.06625e-06
-6.94071e-06
-6.79439e-06
-6.63456e-06
-6.45941e-06
-6.27626e-06
-6.07836e-06
-5.85939e-06
-5.62558e-06
-5.37668e-06
-5.10624e-06
-4.81183e-06
-4.42506e-06
-4.13959e-06
-4.04934e-06
-4.18173e-06
-3.6042e-06
6.94149e-06
4.1794e-06
-5.33158e-05
)
;
    }
    sWall
    {
        type            calculated;
        value           uniform -0.000241391;
    }
    nWall
    {
        type            calculated;
        value           nonuniform List<scalar> 6(-5.43174e-05 -6.54341e-05 -6.88131e-05 -8.33263e-05 -9.16834e-05 -0.000110143);
    }
    sideWalls
    {
        type            empty;
        value           nonuniform 0();
    }
    glass1
    {
        type            calculated;
        value           nonuniform List<scalar> 9(-6.04565e-05 -0.000163399 -0.000250418 -0.000324643 -0.000387715 -0.000440776 -0.000487278 -0.000543332 -0.000605855);
    }
    glass2
    {
        type            calculated;
        value           nonuniform List<scalar> 2(-0.00028641 -0.000317009);
    }
    sun
    {
        type            calculated;
        value           uniform 0;
    }
    Table_master
    {
        type            calculated;
        value           nonuniform List<scalar> 9(-1.5364e-07 -1.53789e-07 -1.53839e-07 -1.53869e-07 -1.5389e-07 -1.53902e-07 -1.53906e-07 -1.539e-07 -1.5387e-07);
    }
    Table_slave
    {
        type            calculated;
        value           nonuniform List<scalar> 9(1.53531e-07 1.53516e-07 1.53469e-07 1.53431e-07 1.53408e-07 1.53409e-07 1.53414e-07 1.53451e-07 1.53535e-07);
    }
    inlet
    {
        type            calculated;
        value           uniform -0.0106584;
    }
    outlet
    {
        type            calculated;
        value           nonuniform List<scalar> 2(0.0123314 0.0035698);
    }
}


// ************************************************************************* //
