/*--------------------------------*- C++ -*----------------------------------*\
  =========                 |
  \\      /  F ield         | OpenFOAM: The Open Source CFD Toolbox
   \\    /   O peration     | Website:  https://openfoam.org
    \\  /    A nd           | Version:  6
     \\/     M anipulation  |
\*---------------------------------------------------------------------------*/
FoamFile
{
    version     2.0;
    format      ascii;
    class       volVectorField;
    location    "4920";
    object      U;
}
// * * * * * * * * * * * * * * * * * * * * * * * * * * * * * * * * * * * * * //

dimensions      [0 1 -1 0 0 0 0];

internalField   nonuniform List<vector> 
458
(
(0.0348262 0.0885224 0)
(-0.17208 0.0265843 0)
(-0.199347 0.019113 0)
(-0.233222 0.0130811 0)
(-0.258394 0.00641368 0)
(-0.273598 -0.000804944 0)
(-0.276727 -0.00877825 0)
(-0.26548 -0.0177781 0)
(-0.239422 -0.0274271 0)
(-0.19971 -0.0361118 0)
(-0.150445 -0.0420515 0)
(-0.0978281 -0.0436513 0)
(-0.0487284 -0.0390812 0)
(-0.0062707 -0.0236844 0)
(-0.0102622 0.00977116 0)
(-0.0102376 0.0105127 0)
(-0.0372594 -0.0174875 0)
(-0.0145098 -0.029104 0)
(0.013671 -0.0251834 0)
(0.0334418 -0.0178893 0)
(0.0480582 -0.00955485 0)
(0.0568174 -0.00517628 0)
(0.060696 -0.00363245 0)
(0.0621314 -0.00308275 0)
(0.0627807 -0.00275989 0)
(0.0630906 -0.00250944 0)
(0.0630297 -0.00224147 0)
(0.0624319 -0.00179741 0)
(0.0608404 -0.000838789 0)
(0.0572385 0.00107457 0)
(0.0505192 0.00317072 0)
(0.0451145 0.00508659 0)
(-0.014147 0.0219481 0)
(0.214271 0.181889 0)
(-0.162147 0.0709924 0)
(-0.16294 0.057762 0)
(-0.198655 0.045743 0)
(-0.224132 0.0319881 0)
(-0.240108 0.0161754 0)
(-0.24461 -0.00241007 0)
(-0.235115 -0.0239667 0)
(-0.211866 -0.0461698 0)
(-0.176484 -0.0649267 0)
(-0.133354 -0.0764267 0)
(-0.0881257 -0.0781986 0)
(-0.0462595 -0.0687294 0)
(-0.0100266 -0.0460162 0)
(0.019409 -0.0133803 0)
(0.0442413 0.00784905 0)
(0.0548465 0.0347578 0)
(-0.0118102 0.0706828 0)
(0.0670406 0.043981 0)
(0.0102894 -0.0218338 0)
(0.0265188 -0.0378985 0)
(0.0407471 -0.035645 0)
(0.0531361 -0.0273415 0)
(0.0595583 -0.0120935 0)
(0.0611785 -0.00275342 0)
(0.0612282 0.000745582 0)
(0.0613928 0.00202316 0)
(0.0617181 0.00272184 0)
(0.0619431 0.00322166 0)
(0.0620005 0.00367495 0)
(0.0618965 0.00440718 0)
(0.0611854 0.00620503 0)
(0.0577888 0.0112235 0)
(0.049098 0.0155326 0)
(0.0476926 0.0187041 0)
(-0.058427 0.0475497 0)
(0.379536 0.272954 0)
(-0.180118 0.113732 0)
(-0.123512 0.0941083 0)
(-0.159197 0.0724339 0)
(-0.182599 0.0495026 0)
(-0.198409 0.0236424 0)
(-0.204062 -0.00653504 0)
(-0.195373 -0.0409797 0)
(-0.17359 -0.0757807 0)
(-0.141424 -0.103649 0)
(-0.10384 -0.118952 0)
(-0.0658949 -0.119155 0)
(-0.031823 -0.104118 0)
(-0.00227744 -0.0743968 0)
(0.0220298 -0.0400724 0)
(0.0375961 -0.0152194 0)
(0.0431777 0.0131628 0)
(-0.0236637 0.0623185 0)
(0.12249 -0.00753392 0)
(0.0725094 -0.0320916 0)
(0.0643115 -0.0419289 0)
(0.0672601 -0.0417566 0)
(0.0718701 -0.0380438 0)
(0.0734889 -0.0282278 0)
(0.0643657 -0.0183288 0)
(0.0574114 -0.0130267 0)
(0.0548129 -0.0100783 0)
(0.0541217 -0.00818581 0)
(0.0538877 -0.00689726 0)
(0.0539581 -0.0059023 0)
(0.0547576 -0.00475322 0)
(0.0572085 -0.00139856 0)
(0.0561031 0.0149939 0)
(0.0445872 0.0258692 0)
(0.0541324 0.0332466 0)
(-0.0993772 0.0727938 0)
(0.530024 0.346651 0)
(-0.216668 0.151755 0)
(-0.0801994 0.125835 0)
(-0.115538 0.0962963 0)
(-0.133417 0.0672238 0)
(-0.146929 0.0337629 0)
(-0.152515 -0.00711156 0)
(-0.14262 -0.0550542 0)
(-0.121287 -0.102309 0)
(-0.0929783 -0.137839 0)
(-0.0625316 -0.155425 0)
(-0.0335725 -0.153426 0)
(-0.00879837 -0.133436 0)
(0.0128643 -0.0979219 0)
(0.0304318 -0.0589717 0)
(0.0443558 -0.0228966 0)
(0.0599537 0.0131486 0)
(0.058821 0.053439 0)
(0.100332 0.0615057 0)
(0.0988148 -0.00244156 0)
(0.0851497 -0.0293889 0)
(0.0784659 -0.0376901 0)
(0.0736145 -0.0383937 0)
(0.067019 -0.0341074 0)
(0.0665998 -0.0208384 0)
(0.0772759 -0.01383 0)
(0.0862391 -0.0101071 0)
(0.0916384 -0.00782432 0)
(0.0948782 -0.00591662 0)
(0.0962847 -0.00385552 0)
(0.0945168 -0.00119013 0)
(0.0882548 0.00248032 0)
(0.0757126 0.0077431 0)
(0.0597987 0.025098 0)
(0.0440615 0.0405833 0)
(0.0629778 0.0533446 0)
(-0.131388 0.0942781 0)
(0.66268 0.403808 0)
(-0.262352 0.182677 0)
(-0.0350341 0.145256 0)
(-0.0687493 0.111319 0)
(-0.0779463 0.0792331 0)
(-0.086294 0.0412496 0)
(-0.0890491 -0.00798786 0)
(-0.0740294 -0.0688144 0)
(-0.0534833 -0.125901 0)
(-0.0315798 -0.165073 0)
(-0.011276 -0.181841 0)
(0.0061604 -0.175989 0)
(0.0193245 -0.151481 0)
(0.0303423 -0.114537 0)
(0.0401925 -0.0729567 0)
(0.0494368 -0.0337221 0)
(0.0619351 0.000674814 0)
(0.076037 0.0197157 0)
(0.0903256 -0.000568106 0)
(0.0896827 -0.0213731 0)
(0.082616 -0.0300338 0)
(0.0738093 -0.0325493 0)
(0.0655647 -0.031629 0)
(0.0586206 -0.0266319 0)
(0.0568397 -0.015512 0)
(0.0603933 -0.00902692 0)
(0.064735 -0.00637228 0)
(0.0684584 -0.00483 0)
(0.0717013 -0.00274981 0)
(0.0742082 0.000780935 0)
(0.0750578 0.005968 0)
(0.0731639 0.0129864 0)
(0.0682546 0.0224378 0)
(0.0612076 0.0371777 0)
(0.0500557 0.0536293 0)
(0.074859 0.0727482 0)
(-0.00684657 0.101381 0)
(0.055788 0.150674 0)
(-0.0835199 0.0748402 0)
(-0.277797 0.000487798 0)
(0.761894 0.451322 0)
(-0.308548 0.203337 0)
(0.00242947 0.143885 0)
(-0.0205846 0.116259 0)
(-0.0197907 0.085722 0)
(-0.0215006 0.047295 0)
(-0.0143143 -0.00693814 0)
(0.010314 -0.0859248 0)
(0.0269231 -0.146192 0)
(0.0388249 -0.182423 0)
(0.0460449 -0.194552 0)
(0.048893 -0.185049 0)
(0.0486285 -0.158118 0)
(0.0472238 -0.119916 0)
(0.0460503 -0.0779378 0)
(0.0464673 -0.0397064 0)
(0.0508194 -0.00999086 0)
(0.0599676 0.00482408 0)
(0.0662437 -0.0010521 0)
(0.0649904 -0.0110141 0)
(0.0586049 -0.0188064 0)
(0.0504342 -0.022911 0)
(0.0427965 -0.023661 0)
(0.0368207 -0.0211351 0)
(0.0342696 -0.0157711 0)
(0.0354192 -0.0122945 0)
(0.0383732 -0.0108632 0)
(0.0420295 -0.00977543 0)
(0.0460896 -0.0076394 0)
(0.0502722 -0.00338508 0)
(0.0544828 0.00368345 0)
(0.0569999 0.0131865 0)
(0.0581661 0.0249442 0)
(0.0592909 0.0395784 0)
(0.0583673 0.0559999 0)
(0.0797089 0.0766955 0)
(0.0654482 0.0889846 0)
(0.0997223 0.0967317 0)
(0.117478 0.0571989 0)
(-0.136895 -0.0299282 0)
(0.815611 0.494186 0)
(-0.334125 0.187369 0)
(0.0322405 0.0938 0)
(0.0390613 0.101055 0)
(0.0459302 0.0830006 0)
(0.0516227 0.0393707 0)
(0.0790967 -0.0311716 0)
(0.103108 -0.103704 0)
(0.113284 -0.157016 0)
(0.11286 -0.18633 0)
(0.10458 -0.192431 0)
(0.0907882 -0.178774 0)
(0.074093 -0.149767 0)
(0.0575 -0.111561 0)
(0.0429709 -0.0709089 0)
(0.0326163 -0.0356952 0)
(0.0281003 -0.0107565 0)
(0.0295003 0.000991008 0)
(0.0311357 -0.000280707 0)
(0.0296342 -0.00656923 0)
(0.0249825 -0.0126306 0)
(0.0188633 -0.0163694 0)
(0.0128382 -0.0177428 0)
(0.00803195 -0.0171051 0)
(0.00567092 -0.0151963 0)
(0.0060131 -0.0141018 0)
(0.00805218 -0.0139685 0)
(0.0110505 -0.0137427 0)
(0.0148458 -0.0123619 0)
(0.0195238 -0.00874017 0)
(0.0256926 -0.00163582 0)
(0.0333025 0.00886893 0)
(0.0400692 0.0208903 0)
(0.047878 0.03416 0)
(0.0558774 0.0479596 0)
(0.0754519 0.0644568 0)
(0.0882331 0.0697709 0)
(0.11967 0.0632096 0)
(0.163391 0.0513057 0)
(-0.0203526 0.0954881 0)
(0.921863 0.497285 0)
(-0.0766787 0.167419 0)
(0.110608 0.0261625 0)
(0.163736 0.0227935 0)
(0.161398 0.0155481 0)
(0.162864 -0.0293616 0)
(0.196487 -0.0804091 0)
(0.211269 -0.125542 0)
(0.205357 -0.158277 0)
(0.185088 -0.173981 0)
(0.155582 -0.171673 0)
(0.121083 -0.153972 0)
(0.0852886 -0.124273 0)
(0.0523631 -0.0880735 0)
(0.0244584 -0.0510591 0)
(0.00511455 -0.021929 0)
(-0.00463161 -0.00442838 0)
(-0.00655864 0.00175828 0)
(-0.0064398 0.000663028 0)
(-0.00764052 -0.00366349 0)
(-0.0109404 -0.00801369 0)
(-0.0154384 -0.0110777 0)
(-0.0200731 -0.0128481 0)
(-0.0239375 -0.0136848 0)
(-0.0263198 -0.014136 0)
(-0.0272116 -0.0148871 0)
(-0.0271758 -0.0158711 0)
(-0.0265942 -0.0165848 0)
(-0.0254669 -0.0164992 0)
(-0.0234876 -0.0150366 0)
(-0.0198624 -0.0114658 0)
(-0.0117098 -0.00490987 0)
(-9.41707e-05 0.00445888 0)
(0.0110861 0.0137605 0)
(0.0226897 0.0208653 0)
(0.0398996 0.0277363 0)
(0.0554301 0.0224378 0)
(0.0795691 0.00564845 0)
(0.14641 0.0479777 0)
(-0.428337 0.212666 0)
(1.06591 0.444164 0)
(0.518237 0.2983 0)
(0.529531 0.249857 0)
(0.518389 0.182905 0)
(0.469835 0.122439 0)
(0.433154 0.0601136 0)
(0.392043 -0.00742294 0)
(0.342838 -0.0669794 0)
(0.289079 -0.107862 0)
(0.232741 -0.126611 0)
(0.17536 -0.125099 0)
(0.118902 -0.108911 0)
(0.0654559 -0.0822851 0)
(0.0202367 -0.0512626 0)
(-0.0161005 -0.0208456 0)
(-0.032946 -0.00607238 0)
(-0.0401239 0.000441894 0)
(-0.0416803 0.00220728 0)
(-0.0420589 0.00100823 0)
(-0.0432011 -0.00163962 0)
(-0.0458291 -0.00451751 0)
(-0.0494783 -0.00704536 0)
(-0.0535039 -0.0091354 0)
(-0.0573688 -0.0108641 0)
(-0.0608166 -0.0123661 0)
(-0.06401 -0.0137476 0)
(-0.0673527 -0.0148461 0)
(-0.0712205 -0.0153024 0)
(-0.075967 -0.014632 0)
(-0.0820654 -0.0121818 0)
(-0.0902079 -0.0071148 0)
(-0.101119 0.0014281 0)
(-0.112753 0.0133219 0)
(-0.127984 0.028414 0)
(-0.152908 0.0467844 0)
(-0.190233 0.0673933 0)
(-0.241634 0.0862253 0)
(-0.297563 0.0999187 0)
(-0.371647 0.106912 0)
(-0.650671 0.106306 0)
(0.233924 0.052832 0)
(0.305889 0.115963 0)
(0.321217 0.0913684 0)
(0.299642 0.0395788 0)
(0.275045 -0.0106018 0)
(0.244385 -0.0469388 0)
(0.203096 -0.0684124 0)
(0.154002 -0.0754152 0)
(0.100437 -0.0686995 0)
(0.0461653 -0.0529175 0)
(-0.00862763 -0.0295158 0)
(-0.0451323 -0.0114984 0)
(-0.0635906 -0.00313999 0)
(-0.0709216 -0.00075816 0)
(-0.073157 -0.000284064 0)
(-0.0734752 -0.000982546 0)
(-0.0737772 -0.0025839 0)
(-0.0749159 -0.00467944 0)
(-0.0771313 -0.00676829 0)
(-0.0803871 -0.00854802 0)
(-0.0841832 -0.0100195 0)
(-0.0882903 -0.0111412 0)
(-0.0927197 -0.0119157 0)
(-0.097625 -0.0123097 0)
(-0.103157 -0.012133 0)
(-0.109347 -0.0110408 0)
(-0.116066 -0.00856361 0)
(-0.122967 -0.00415755 0)
(-0.129429 0.00273854 0)
(-0.134403 0.0123364 0)
(-0.138371 0.0256172 0)
(-0.141808 0.043179 0)
(-0.146019 0.064222 0)
(-0.151773 0.0850511 0)
(-0.155359 0.0955471 0)
(-0.141304 0.0734007 0)
(-0.110249 -0.0250101 0)
(-0.286615 -0.213742 0)
(0.120027 0.324336 0)
(0.00839083 0.203593 0)
(0.0392653 0.118451 0)
(0.058479 0.0604354 0)
(0.0631276 0.0216249 0)
(0.0601139 -0.00478647 0)
(0.0401993 -0.0199153 0)
(0.00542156 -0.0189557 0)
(-0.0365943 -0.00171987 0)
(-0.0701141 0.0128779 0)
(-0.0912276 0.020882 0)
(-0.100242 0.0232663 0)
(-0.102467 0.0233944 0)
(-0.102412 0.0234469 0)
(-0.10154 0.0241612 0)
(-0.100508 0.025288 0)
(-0.0997854 0.0264294 0)
(-0.099658 0.0271792 0)
(-0.100183 0.0271135 0)
(-0.101324 0.0259076 0)
(-0.103119 0.0238735 0)
(-0.105495 0.0216289 0)
(-0.108387 0.0194492 0)
(-0.111705 0.0174799 0)
(-0.115313 0.0158311 0)
(-0.118996 0.0146121 0)
(-0.122445 0.0139593 0)
(-0.125176 0.0140301 0)
(-0.126372 0.0155211 0)
(-0.124865 0.0198894 0)
(-0.119076 0.0282959 0)
(-0.107619 0.0417405 0)
(-0.0903521 0.0602412 0)
(-0.0683174 0.0804254 0)
(-0.0434463 0.0948378 0)
(-0.00758461 0.0857782 0)
(0.146942 0.00930603 0)
(-0.209933 -0.129684 0)
(-0.422116 -0.51603 0)
(-0.637319 -0.143275 0)
(-0.449398 0.17776 0)
(-0.357933 0.0560796 0)
(-0.213898 -0.00553907 0)
(-0.145609 -0.047788 0)
(-0.117164 -0.070538 0)
(-0.112984 -0.0713633 0)
(-0.122343 -0.0626888 0)
(-0.134861 -0.0549774 0)
(-0.140346 -0.0505066 0)
(-0.138588 -0.0490671 0)
(-0.134126 -0.0499533 0)
(-0.128945 -0.0527769 0)
(-0.124482 -0.0563054 0)
(-0.121038 -0.0599485 0)
(-0.118239 -0.0635904 0)
(-0.115826 -0.0672872 0)
(-0.113757 -0.0708886 0)
(-0.112106 -0.0739049 0)
(-0.111007 -0.0756846 0)
(-0.110621 -0.0757911 0)
(-0.11105 -0.0743577 0)
(-0.112257 -0.0719859 0)
(-0.114068 -0.0689137 0)
(-0.116259 -0.0652738 0)
(-0.118547 -0.0610861 0)
(-0.120565 -0.0562768 0)
(-0.12183 -0.0506304 0)
(-0.121709 -0.0438006 0)
(-0.119186 -0.0358139 0)
(-0.112353 -0.0266895 0)
(-0.0984057 -0.015883 0)
(-0.0748442 -0.00248626 0)
(-0.0415506 0.0143645 0)
(0.00931656 0.0362846 0)
(0.0618661 0.0423474 0)
(0.109598 0.0240446 0)
(0.172057 -0.0159426 0)
(-0.196289 -0.0826848 0)
)
;

boundaryField
{
    floor
    {
        type            noSlip;
    }
    ceiling
    {
        type            noSlip;
    }
    sWall
    {
        type            noSlip;
    }
    nWall
    {
        type            noSlip;
    }
    sideWalls
    {
        type            empty;
    }
    glass1
    {
        type            noSlip;
    }
    glass2
    {
        type            noSlip;
    }
    sun
    {
        type            noSlip;
    }
    Table_master
    {
        type            noSlip;
    }
    Table_slave
    {
        type            noSlip;
    }
    inlet
    {
        type            fixedValue;
        value           uniform (0.46194 -0.191342 0);
    }
    outlet
    {
        type            zeroGradient;
    }
}


// ************************************************************************* //
