/*--------------------------------*- C++ -*----------------------------------*\
  =========                 |
  \\      /  F ield         | OpenFOAM: The Open Source CFD Toolbox
   \\    /   O peration     | Website:  https://openfoam.org
    \\  /    A nd           | Version:  6
     \\/     M anipulation  |
\*---------------------------------------------------------------------------*/
FoamFile
{
    version     2.0;
    format      ascii;
    class       volScalarField;
    location    "32499.9999977314983";
    object      alphat;
}
// * * * * * * * * * * * * * * * * * * * * * * * * * * * * * * * * * * * * * //

dimensions      [1 -1 -1 0 0 0 0];

internalField   nonuniform List<scalar> 
778
(
0.00104101
0.00111055
0.00110653
0.00115454
0.00119853
0.00123849
0.0012757
0.00131158
0.00134772
0.00138613
0.00142278
0.00145763
0.00149197
0.00152891
0.00156744
0.000736788
0.00105577
0.00106439
0.00103868
0.000995584
0.000937939
0.000880484
0.000827586
0.000779932
0.000737223
0.000699166
0.00066498
0.000633832
0.000604754
0.000576452
0.000546857
0.000522259
0.000472685
0.00152469
0.00300732
0.00263933
0.00304641
0.00334171
0.00365472
0.00396693
0.00425467
0.00448634
0.00462134
0.00470083
0.00466853
0.00443616
0.00385976
0.00281922
0.00171642
0.00163652
0.00156652
0.00131863
0.00224652
0.00311445
0.00362738
0.0036516
0.00288122
0.00246418
0.00217507
0.00195553
0.00178085
0.00163195
0.00150039
0.00137798
0.00125822
0.00115075
0.00105808
0.00119135
0.000599328
0.00193419
0.00419884
0.00311335
0.00445337
0.00497597
0.00541804
0.00581944
0.00617269
0.00647203
0.00670694
0.00693469
0.00717471
0.00739575
0.00752808
0.00744264
0.00681573
0.00498528
0.00192161
0.00166346
0.00355802
0.00496623
0.00563353
0.00512459
0.00135234
0.00117602
0.00103991
0.00093337
0.000848558
0.000780097
0.000724267
0.00067887
0.000643482
0.000707326
0.000831925
0.00131645
0.000681847
0.00232916
0.00565849
0.002979
0.00500689
0.00578061
0.00619426
0.0064982
0.00672292
0.00689061
0.00702671
0.00722044
0.00754821
0.00802692
0.00862925
0.00923508
0.00953447
0.00895454
0.00668155
0.00191363
0.00442998
0.00659001
0.0076888
0.00796147
0.00679848
0.00153939
0.00140032
0.00129269
0.00120312
0.00112675
0.00105815
0.000993476
0.000929251
0.000859913
0.000803258
0.000832315
0.00142425
0.000750895
0.00271844
0.00749058
0.00300553
0.00475921
0.00594883
0.00630146
0.0064291
0.00643355
0.00636921
0.00631237
0.00639336
0.00671168
0.00729627
0.00812447
0.00908506
0.00997006
0.0105316
0.0105255
0.00944614
0.00961025
0.00982983
0.00986099
0.00966156
0.0090448
0.00719937
0.00621973
0.00554858
0.0050035
0.00446847
0.00395001
0.0034427
0.00293599
0.00241538
0.00185552
0.00141629
0.00141308
0.00111848
0.000894945
0.0011716
0.00112848
0.0031014
0.00954073
0.00353841
0.00401299
0.00569929
0.00609064
0.0060589
0.00584036
0.00552822
0.00527079
0.00526496
0.00559835
0.00626439
0.00722473
0.00834854
0.00947094
0.0104256
0.0110351
0.0111457
0.0110329
0.0108364
0.0105586
0.0102023
0.0097493
0.0090879
0.00845044
0.00787149
0.007312
0.00670758
0.00606191
0.00537212
0.00463233
0.00383786
0.0029951
0.00223307
0.0016769
0.00130202
0.0014513
0.00250904
0.00135213
0.00349216
0.0114359
0.00471514
0.00328764
0.00512051
0.00576081
0.00568947
0.00533627
0.00482411
0.0043735
0.00436017
0.00478081
0.00554312
0.00661681
0.00783827
0.00904688
0.0100862
0.0108299
0.0111713
0.0111437
0.0108979
0.0105266
0.0101021
0.00967903
0.00927003
0.00889466
0.008542
0.00816579
0.00771127
0.00716406
0.00651604
0.00576403
0.00491087
0.00397875
0.00306916
0.00222277
0.00163798
0.00145651
0.00254553
0.00158933
0.00382789
0.0128686
0.00642778
0.00313086
0.00405567
0.0051063
0.00525297
0.00496299
0.00435733
0.00374503
0.00388331
0.00443956
0.00529214
0.00639876
0.00766784
0.00893329
0.0100117
0.01076
0.011099
0.0110534
0.010736
0.0102687
0.00976656
0.00932154
0.00897867
0.00873373
0.00854273
0.00833535
0.00804677
0.00764284
0.00710762
0.00643767
0.0056393
0.00473697
0.0038014
0.00286211
0.00201501
0.00133878
0.00359003
0.00206154
0.00392909
0.0121737
0.00795067
0.0040481
0.00275016
0.00336833
0.00394189
0.00399084
0.00352352
0.00342471
0.00378027
0.00443454
0.00535657
0.00653028
0.0078605
0.00916499
0.0102395
0.01093
0.0111716
0.0110035
0.0105438
0.00994118
0.00934347
0.00886683
0.00856445
0.00841597
0.00834851
0.00826862
0.00810245
0.00781058
0.00737723
0.00680044
0.00608747
0.00525888
0.00435343
0.00334281
0.00199669
0.00164787
0.00533291
0.0023667
0.00384958
0.00981068
0.00820768
0.00555434
0.00366979
0.00284148
0.00269038
0.00281627
0.00305297
0.00342958
0.00396408
0.00470067
0.00570363
0.00696906
0.00837143
0.00969395
0.010712
0.0112718
0.0113294
0.0109521
0.0102883
0.00952408
0.00884182
0.00837464
0.00816083
0.00813571
0.00818146
0.00818011
0.00807178
0.00783463
0.00746114
0.00695029
0.00630642
0.00553723
0.00460849
0.00318817
0.00151034
0.00307749
0.00529156
0.00239534
0.00360583
0.00838316
0.00793335
0.00635364
0.00489184
0.00393924
0.00346775
0.00336094
0.00355592
0.00391502
0.0044377
0.00521556
0.00632321
0.00771006
0.0091828
0.0104761
0.0113525
0.0116778
0.011448
0.0107775
0.00986605
0.00895252
0.00825819
0.00791047
0.00787083
0.00798426
0.00809783
0.00809944
0.00798448
0.0077541
0.00740328
0.00692558
0.00631679
0.00556073
0.00448747
0.00251519
0.0017846
0.00361685
0.00488368
0.00235403
0.00328297
0.00755742
0.00765096
0.00672333
0.00572146
0.00496676
0.00452232
0.00436373
0.00440369
0.00462096
0.00510191
0.00597165
0.00725197
0.00878658
0.0102883
0.0114495
0.0120462
0.0119955
0.0113614
0.010329
0.00917508
0.0082107
0.0076668
0.00755819
0.00765316
0.00780093
0.00789823
0.00787023
0.0077371
0.00750497
0.00716428
0.006697
0.00608474
0.0052992
0.00406819
0.00198489
0.00208859
0.00381918
0.00478325
0.00228439
0.00299327
0.00675805
0.00730322
0.00686659
0.00622451
0.00568466
0.00532565
0.00515033
0.00509911
0.00528669
0.00589917
0.00703624
0.00858405
0.0102416
0.011641
0.0124776
0.0125944
0.0120013
0.0108645
0.00946785
0.00820087
0.00739321
0.00704402
0.00700292
0.00709787
0.00722197
0.007303
0.00728152
0.00715121
0.00692026
0.00657242
0.00607968
0.00541719
0.00456794
0.00342795
0.00200689
0.00215389
0.00392587
0.00537886
0.00229648
0.00300374
0.00670657
0.00746131
0.00694837
0.00642883
0.00600329
0.00569658
0.00549801
0.00549313
0.00594877
0.00702946
0.00863899
0.0104491
0.0120414
0.0130512
0.0132677
0.0126711
0.0113986
0.00976634
0.00818758
0.00705038
0.00639331
0.00608605
0.00600016
0.0060348
0.00611431
0.00618177
0.00617813
0.00604765
0.00579513
0.00538809
0.00479155
0.00402344
0.00320283
0.00250858
0.00204302
0.00234533
0.00417322
0.00533721
0.00243712
0.00270984
0.0028196
0.00416551
0.00489786
0.00512536
0.00513026
0.005082
0.00518071
0.00581657
0.00716436
0.0090525
0.0110799
0.0128016
0.013854
0.0140314
0.0133018
0.0118422
0.00992001
0.00808899
0.00666994
0.00573028
0.00518949
0.00492461
0.00480899
0.00476014
0.00473719
0.00471824
0.00466906
0.00450163
0.00420153
0.00373845
0.00313597
0.00254703
0.00216971
0.00208068
0.00226224
0.00289053
0.00479582
0.00549857
0.00246355
0.000964992
0.00174008
0.00266904
0.00341269
0.00427762
0.00575408
0.00792142
0.0103166
0.0124807
0.0140776
0.0148861
0.0147721
0.0137553
0.0119475
0.00981086
0.00779676
0.00621541
0.00516335
0.00458179
0.00428373
0.00410787
0.0039714
0.00384364
0.00371758
0.00359327
0.00346466
0.00329484
0.00304606
0.00272346
0.00239199
0.00218927
0.00221387
0.00246293
0.00291587
0.0036756
0.00523282
0.00598334
0.00246006
0.00178714
0.00246903
0.00359056
0.00559582
0.00831957
0.0110393
0.0131416
0.0146426
0.0155256
0.015733
0.0151599
0.013709
0.0116106
0.0092772
0.00717517
0.00562906
0.00473342
0.00430179
0.00408663
0.00394404
0.00381918
0.00369845
0.00358342
0.00347849
0.00338431
0.0032935
0.00318607
0.00304609
0.00288563
0.00274726
0.00271127
0.00284789
0.00316162
0.00360742
0.00414213
0.00469263
0.00491729
0.00235603
0.00323893
0.00785822
0.00724668
0.00648417
0.00823064
0.0109646
0.0132664
0.0148119
0.0156138
0.0157905
0.0154292
0.0145031
0.0129828
0.0109379
0.00868279
0.0066959
0.00538193
0.00472324
0.00442193
0.00424765
0.00410177
0.00395709
0.00381589
0.00369108
0.00359706
0.00354377
0.0035324
0.00355235
0.00357805
0.00358069
0.00357604
0.00359412
0.00367286
0.00385264
0.00415387
0.00455645
0.00499647
0.00529238
0.00525046
0.00235534
0.00309577
0.00598016
0.00772642
0.00988448
0.0109644
0.0120785
0.0127245
0.0128757
0.01262
0.0120149
0.0110776
0.00981197
0.00830112
0.0067816
0.0055638
0.00481183
0.00441515
0.00420683
0.00406407
0.00393133
0.0037933
0.00365456
0.00352971
0.00343823
0.00339995
0.00342995
0.00353305
0.00369807
0.00389067
0.00404738
0.00416144
0.00428125
0.00444668
0.00468914
0.00503066
0.00548005
0.00602808
0.00665483
0.00597599
0.00265096
0.00289452
0.00248041
0.00246742
0.00253824
0.00259603
0.00251519
0.00236035
0.00217917
0.00199609
0.00182096
0.00165801
0.00151283
0.00139413
0.00131026
0.00126231
0.00124204
0.00123946
0.00124383
0.0012514
0.00126187
0.00127659
0.00129757
0.00132658
0.00136427
0.00140967
0.0014604
0.00151356
0.00156675
0.00161893
0.00167088
0.00172301
0.00177737
0.00183794
0.00190839
0.00199093
0.00208508
0.00218688
0.00229345
0.00241849
0.00244586
)
;

boundaryField
{
    floor
    {
        type            compressible::alphatWallFunction;
        Prt             0.85;
        value           nonuniform List<scalar> 
36
(
0.000219897
0.000104477
0.000149993
0.000151197
0.000147597
0.000141542
0.000133394
0.000125214
0.000117628
0.000110744
0.000104532
9.89602e-05
9.39238e-05
8.93077e-05
8.49734e-05
8.07302e-05
7.62658e-05
7.25325e-05
6.49414e-05
6.49406e-05
8.4163e-05
9.64138e-05
0.000106527
0.000127283
0.00016611
0.000160148
0.000219895
0.000239727
0.000229114
0.00021977
0.000104476
0.000219767
0.000186287
0.000266729
0.00023269
0.000265685
)
;
    }
    ceiling
    {
        type            compressible::alphatWallFunction;
        Prt             0.85;
        value           nonuniform List<scalar> 
43
(
0.000391149
0.000338869
0.000337221
0.000346238
0.000353586
0.000343362
0.000323647
0.000300386
0.000276658
0.000253727
0.000232163
0.000212745
0.000196714
0.000185301
0.00017875
0.000175983
0.000175643
0.000176252
0.000177295
0.00017873
0.000180736
0.000183587
0.000187523
0.000192635
0.000198788
0.000205656
0.000212839
0.00022001
0.000227021
0.000233973
0.000240926
0.000248136
0.000256129
0.000265381
0.000276173
0.000288431
0.00030163
0.000315408
0.000331488
0.000334867
0.000368267
0.000382063
0.000248585
)
;
    }
    sWall
    {
        type            compressible::alphatWallFunction;
        Prt             0.85;
        value           nonuniform List<scalar> 9(0.000507618 0.000477883 0.000438181 0.000402221 0.000403519 0.000366692 0.000432099 0.000414397 0.000389398);
    }
    nWall
    {
        type            compressible::alphatWallFunction;
        Prt             0.85;
        value           nonuniform List<scalar> 
14
(
0.000159701
0.000190409
0.000222357
0.000327505
0.000322212
0.000313344
0.00031513
0.000332958
0.000336322
0.000335589
0.00032237
0.000322598
0.000360422
0.000334177
)
;
    }
    sideWalls
    {
        type            empty;
    }
    glass1
    {
        type            compressible::alphatWallFunction;
        Prt             0.85;
        value           nonuniform List<scalar> 9(0.00014393 0.000209138 0.000262697 0.000313308 0.000362382 0.000410006 0.000458016 0.000498872 0.000511235);
    }
    glass2
    {
        type            compressible::alphatWallFunction;
        Prt             0.85;
        value           nonuniform List<scalar> 2(0.000282313 0.000321522);
    }
    sun
    {
        type            compressible::alphatWallFunction;
        Prt             0.85;
        value           nonuniform List<scalar> 
14
(
0.000147965
0.000157647
0.000157086
0.00016375
0.00016983
0.00017533
0.000180432
0.000185337
0.000190261
0.000195479
0.000200443
0.000205149
0.000209774
0.000214735
)
;
    }
    Table_master
    {
        type            compressible::alphatWallFunction;
        Prt             0.85;
        value           nonuniform List<scalar> 9(0.000191146 0.000166971 0.000148026 0.000132995 0.000120886 0.000111007 0.000102873 9.62041e-05 9.09677e-05);
    }
    Table_slave
    {
        type            compressible::alphatWallFunction;
        Prt             0.85;
        value           nonuniform List<scalar> 9(0.000216411 0.000197666 0.000183013 0.000170715 0.000160147 0.000150584 0.000141501 0.000132413 0.000122518);
    }
    inlet
    {
        type            fixedValue;
        value           uniform 1.94e-05;
    }
    outlet
    {
        type            zeroGradient;
    }
}


// ************************************************************************* //
