/*--------------------------------*- C++ -*----------------------------------*\
  =========                 |
  \\      /  F ield         | OpenFOAM: The Open Source CFD Toolbox
   \\    /   O peration     | Website:  https://openfoam.org
    \\  /    A nd           | Version:  6
     \\/     M anipulation  |
\*---------------------------------------------------------------------------*/
FoamFile
{
    version     2.0;
    format      ascii;
    class       volScalarField;
    location    "32499.9999977314983";
    object      nut;
}
// * * * * * * * * * * * * * * * * * * * * * * * * * * * * * * * * * * * * * //

dimensions      [0 2 -1 0 0 0 0];

internalField   nonuniform List<scalar> 
778
(
0.000894331
0.00095307
0.000949565
0.000990747
0.00102849
0.00106276
0.00109468
0.00112545
0.00115644
0.00118938
0.00122081
0.00125067
0.0012801
0.00131174
0.00134476
0.00063226
0.000905601
0.000912967
0.000890912
0.000853955
0.00080452
0.000755249
0.000709887
0.000669021
0.000632395
0.00059976
0.000570444
0.000543733
0.000518797
0.000494527
0.000469148
0.000448058
0.000405569
0.00131082
0.00258119
0.0022651
0.00261446
0.00286789
0.00313653
0.00340446
0.00365138
0.00385015
0.00396595
0.00403405
0.00400614
0.00380649
0.00331162
0.00241863
0.00147244
0.00140383
0.00134377
0.00113105
0.00192683
0.00267118
0.00311108
0.00313185
0.00247113
0.00211346
0.00186551
0.00167722
0.00152742
0.00139972
0.00128688
0.0011819
0.0010792
0.000987046
0.000907589
0.00102196
0.000514201
0.00166409
0.00360451
0.00267221
0.00382244
0.00427115
0.00465076
0.00499545
0.00529878
0.00555578
0.0057574
0.00595273
0.00615836
0.00634745
0.00646013
0.00638585
0.00584718
0.0042764
0.00164825
0.0014267
0.00305154
0.00425926
0.00483157
0.00439509
0.00115984
0.00100862
0.000891891
0.000800516
0.000727778
0.000669064
0.000621183
0.00058225
0.000551903
0.000606671
0.000713562
0.00112921
0.000584988
0.00200535
0.00485865
0.00255721
0.00429816
0.00496271
0.00531821
0.00557954
0.00577282
0.00591704
0.00603398
0.00620018
0.00648111
0.00689114
0.00740676
0.00792501
0.00818028
0.00768146
0.00573097
0.0016413
0.0037994
0.00565189
0.00659426
0.00682814
0.00583072
0.00132026
0.00120099
0.00110868
0.00103186
0.000966368
0.000907534
0.000852062
0.00079698
0.000737512
0.000688935
0.00071388
0.00122166
0.000644224
0.00234211
0.00643349
0.00258033
0.00408608
0.00510798
0.00541137
0.00552161
0.00552599
0.00547117
0.00542259
0.00549209
0.00576499
0.0062659
0.00697518
0.00779749
0.00855469
0.00903453
0.00902807
0.0081017
0.00824225
0.00843054
0.00845732
0.00828636
0.00775745
0.00617472
0.00533453
0.00475892
0.00429142
0.00383254
0.00338786
0.00295275
0.00251814
0.00207163
0.00159145
0.00121475
0.00121207
0.00095954
0.000767799
0.00100519
0.000968512
0.00267377
0.00819681
0.00303826
0.00344581
0.0048944
0.00523122
0.00520472
0.00501773
0.00475017
0.00452937
0.00452441
0.00481043
0.00538141
0.00620408
0.00716626
0.00812687
0.00894375
0.00946516
0.00955932
0.00946241
0.00929392
0.00905581
0.00875036
0.00836194
0.00779474
0.00724804
0.00675149
0.00627162
0.00575319
0.00519939
0.00460773
0.00397319
0.00329175
0.00256891
0.00191533
0.00143835
0.00111691
0.00124503
0.00215253
0.00116052
0.00301234
0.0098283
0.00404939
0.00282326
0.0043978
0.00494849
0.004888
0.00458532
0.00414591
0.00375915
0.00374791
0.00410909
0.0047629
0.00568285
0.00672868
0.0077631
0.00865254
0.00928898
0.00958114
0.0095574
0.00934679
0.00902859
0.00866471
0.00830201
0.0079513
0.00762939
0.00732691
0.00700421
0.00661434
0.00614494
0.00558907
0.00494401
0.0042122
0.00341267
0.0026325
0.00190656
0.00140506
0.00124945
0.00218377
0.00136405
0.00330369
0.0110651
0.00552209
0.002689
0.00348353
0.00438656
0.00451324
0.00426476
0.00374493
0.00321931
0.00333852
0.00381633
0.00454768
0.00549585
0.00658239
0.00766535
0.00858814
0.00922864
0.00951896
0.00947995
0.00920812
0.00880772
0.00837732
0.0079958
0.0077018
0.00749172
0.00732788
0.00714997
0.00690238
0.00655585
0.0060967
0.00552199
0.00483713
0.00406312
0.00326064
0.00245499
0.00172845
0.00114843
0.00307999
0.00177042
0.00339343
0.0104834
0.00683795
0.00347862
0.00236261
0.00289379
0.00338694
0.00342947
0.00302846
0.0029442
0.00325024
0.00381226
0.00460303
0.00560845
0.00674706
0.00786326
0.00878274
0.00937382
0.00958092
0.00943726
0.0090436
0.00852725
0.0080149
0.00760623
0.00734691
0.00721954
0.00716162
0.00709303
0.00695041
0.00669996
0.00632816
0.00583333
0.00522169
0.00451091
0.00373422
0.00286736
0.00171275
0.00141366
0.00457609
0.00203352
0.00332467
0.0084571
0.00706659
0.00477741
0.00315463
0.00244204
0.00231211
0.0024205
0.00262454
0.00294898
0.00340872
0.00404107
0.00490069
0.00598409
0.00718401
0.00831546
0.00918671
0.00966625
0.00971613
0.00939348
0.00882498
0.00817008
0.00758514
0.00718449
0.00700107
0.00697946
0.00701862
0.00701736
0.00692432
0.00672079
0.00640031
0.00596201
0.00540964
0.00474978
0.0039531
0.00273478
0.00129566
0.00264141
0.00454354
0.00205821
0.00311427
0.00722991
0.00683489
0.00546922
0.0042084
0.00338777
0.00298192
0.00289016
0.00305832
0.00336749
0.00381644
0.0044832
0.00543145
0.00661794
0.0078776
0.00898409
0.00973457
0.0100139
0.0098181
0.00924443
0.00846359
0.00768049
0.00708503
0.00678672
0.00675262
0.0068498
0.0069471
0.00694834
0.00684961
0.00665186
0.00635082
0.00594096
0.00541866
0.00477005
0.00384938
0.00215759
0.00153128
0.00310525
0.00419451
0.00202286
0.00283578
0.00651979
0.00659475
0.00579115
0.00492568
0.00427461
0.00389156
0.00375509
0.00378952
0.00397576
0.00438726
0.00513106
0.00622574
0.00753774
0.00882204
0.00981606
0.0103281
0.0102864
0.00974466
0.00886072
0.00787181
0.0070448
0.00657817
0.00648484
0.00656613
0.00669272
0.00677603
0.00675187
0.00663754
0.0064383
0.00614594
0.005745
0.00521972
0.00454582
0.00348982
0.00170277
0.00179233
0.00327943
0.00410897
0.00196323
0.00258616
0.00583259
0.00629807
0.00591796
0.00536225
0.0048958
0.0045859
0.00443453
0.00438915
0.00454764
0.00506955
0.00604031
0.00736259
0.00877956
0.00997727
0.0106952
0.0107979
0.0102925
0.00932004
0.00812342
0.00703698
0.00634402
0.00604421
0.00600871
0.00608994
0.00619621
0.00626555
0.00624699
0.00613508
0.00593684
0.00563836
0.00521558
0.00464721
0.00391865
0.00294073
0.00172173
0.00184834
0.00337091
0.00462042
0.00197358
0.0025947
0.00578852
0.00643554
0.00599033
0.00554032
0.00517204
0.00490654
0.00473346
0.00472494
0.00511041
0.0060311
0.0074048
0.00895161
0.0103148
0.0111822
0.0113721
0.0108654
0.00977798
0.00838004
0.00702635
0.00605056
0.0054865
0.00522257
0.00514861
0.0051781
0.00524613
0.00530384
0.00530058
0.00518853
0.0049718
0.00462253
0.00411072
0.00345174
0.00274776
0.00215222
0.0017529
0.00201268
0.00358308
0.00458412
0.00209406
0.00234197
0.00243527
0.00359217
0.00421926
0.00441227
0.00441407
0.00436978
0.00444915
0.00498738
0.00613498
0.007746
0.00947928
0.0109555
0.0118627
0.0120224
0.0114047
0.0101584
0.00851277
0.00694265
0.00572492
0.00491827
0.00445388
0.00422632
0.00412689
0.00408479
0.00406492
0.00404851
0.00400619
0.00386244
0.0036049
0.00320754
0.00269063
0.00218537
0.00186172
0.00178546
0.00194144
0.00248099
0.00411778
0.0047225
0.00211668
0.000807592
0.00146517
0.00226021
0.00289869
0.0036375
0.00489607
0.00674585
0.00879524
0.0106534
0.0120318
0.012738
0.0126537
0.0117928
0.01025
0.00842027
0.00669293
0.00533575
0.00443252
0.00393311
0.00367707
0.00352596
0.00340869
0.00329891
0.00319061
0.00308381
0.00297332
0.0028275
0.00261396
0.00233711
0.0020527
0.00187884
0.00190013
0.00211416
0.00250331
0.003156
0.00449398
0.00513956
0.00211391
0.0014971
0.00207411
0.00302538
0.00472865
0.00704852
0.00937546
0.0111865
0.0124898
0.0132661
0.013463
0.0129886
0.0117564
0.00996303
0.00796387
0.00616059
0.00483341
0.00406434
0.00369362
0.00350877
0.00338625
0.00327898
0.00317528
0.00307649
0.00298635
0.00290543
0.00282737
0.00273502
0.00261477
0.00247699
0.00235823
0.00232747
0.00244502
0.00271479
0.00309816
0.00355809
0.00403172
0.00422531
0.00202491
0.00275782
0.00666696
0.00611977
0.00546562
0.00695538
0.00929697
0.0112827
0.012628
0.0133371
0.0135079
0.0132147
0.0124334
0.0111384
0.00938889
0.00745555
0.00575043
0.00462226
0.00405656
0.00379771
0.00364796
0.00352265
0.0033984
0.00327717
0.00317002
0.00308932
0.00304357
0.00303378
0.00305083
0.00307275
0.00307485
0.00307072
0.00308619
0.00315386
0.00330845
0.00356754
0.00391389
0.0042926
0.00454766
0.00451245
0.00202475
0.00263913
0.00509585
0.00657101
0.0083917
0.00932114
0.0102929
0.0108674
0.0110156
0.0108107
0.010302
0.00950487
0.00842309
0.00712854
0.00582486
0.00477936
0.00413355
0.00379279
0.0036138
0.00349113
0.00337711
0.00325858
0.00313947
0.00303231
0.00295383
0.00292104
0.00294686
0.00303544
0.00317715
0.00334247
0.00347691
0.0035747
0.00367747
0.00381952
0.00402785
0.00432143
0.00470785
0.00517918
0.00571831
0.00513581
0.0022787
0.00247358
0.0021196
0.00210889
0.00217007
0.00222063
0.00215394
0.00202352
0.00186972
0.00171362
0.00156388
0.0014243
0.00129979
0.00119791
0.00112589
0.0010847
0.00106727
0.00106504
0.00106879
0.00107529
0.00108431
0.00109698
0.00111505
0.00114003
0.00117246
0.0012115
0.00125512
0.0013008
0.00134649
0.00139129
0.00143589
0.00148063
0.0015273
0.00157934
0.0016399
0.00171087
0.00179187
0.00187949
0.00197123
0.00207888
0.00210272
)
;

boundaryField
{
    floor
    {
        type            nutkWallFunction;
        Cmu             0.09;
        kappa           0.41;
        E               9.8;
        value           nonuniform List<scalar> 
36
(
0.000160563
7.63683e-05
0.000109549
0.000110425
0.0001078
0.000103383
9.74398e-05
9.14734e-05
8.59395e-05
8.09179e-05
7.6386e-05
7.23209e-05
6.86463e-05
6.5278e-05
6.21151e-05
5.90186e-05
5.57603e-05
5.30358e-05
4.74964e-05
4.74963e-05
6.15299e-05
7.0472e-05
7.78532e-05
9.29985e-05
0.000121332
0.000117014
0.000160564
0.000175014
0.000167267
0.00016045
7.63683e-05
0.00016045
0.000136023
0.000194689
0.000169852
0.000193914
)
;
    }
    ceiling
    {
        type            nutkWallFunction;
        Cmu             0.09;
        kappa           0.41;
        E               9.8;
        value           nonuniform List<scalar> 
43
(
0.000284306
0.000246317
0.000245161
0.000251781
0.000257242
0.000250069
0.000235947
0.000219157
0.000201954
0.000185283
0.000169578
0.000155419
0.000143721
0.000135389
0.000130605
0.000128583
0.000128334
0.000128778
0.00012954
0.00013059
0.000132058
0.000134144
0.000137025
0.000140763
0.000145262
0.000150281
0.000155529
0.000160765
0.000165882
0.000170955
0.000176028
0.000181291
0.000187128
0.000193888
0.000201777
0.00021074
0.000220396
0.000230478
0.000242245
0.000244747
0.000270454
0.000280425
0.000177581
)
;
    }
    sWall
    {
        type            nutkWallFunction;
        Cmu             0.09;
        kappa           0.41;
        E               9.8;
        value           nonuniform List<scalar> 9(0.000373891 0.000352064 0.00032294 0.000296584 0.000297488 0.000270543 0.000314427 0.00030193 0.000284407);
    }
    nWall
    {
        type            nutkWallFunction;
        Cmu             0.09;
        kappa           0.41;
        E               9.8;
        value           nonuniform List<scalar> 
14
(
0.000117021
0.000139459
0.000162787
0.00023979
0.000235938
0.000229479
0.000230781
0.000243773
0.000246222
0.000245711
0.000236092
0.000236302
0.000263934
0.000244784
)
;
    }
    sideWalls
    {
        type            empty;
    }
    glass1
    {
        type            nutkWallFunction;
        Cmu             0.09;
        kappa           0.41;
        E               9.8;
        value           nonuniform List<scalar> 9(0.00010825 0.000156886 0.000196743 0.000234359 0.000270805 0.000306158 0.000341775 0.000372095 0.000381387);
    }
    glass2
    {
        type            nutkWallFunction;
        Cmu             0.09;
        kappa           0.41;
        E               9.8;
        value           nonuniform List<scalar> 2(0.000208379 0.000237244);
    }
    sun
    {
        type            nutkWallFunction;
        Cmu             0.09;
        kappa           0.41;
        E               9.8;
        value           nonuniform List<scalar> 
14
(
0.000108209
0.000115182
0.000114767
0.000119628
0.000124063
0.000128075
0.000131796
0.000135373
0.000138964
0.000142769
0.000146388
0.000149818
0.000153188
0.000156803
)
;
    }
    Table_master
    {
        type            nutkWallFunction;
        Cmu             0.09;
        kappa           0.41;
        E               9.8;
        value           nonuniform List<scalar> 9(0.000139348 0.000121724 0.000107913 9.69559e-05 8.81286e-05 8.09267e-05 7.49976e-05 7.01359e-05 6.6319e-05);
    }
    Table_slave
    {
        type            nutkWallFunction;
        Cmu             0.09;
        kappa           0.41;
        E               9.8;
        value           nonuniform List<scalar> 9(0.000157763 0.000144098 0.000133416 0.000124451 0.000116747 0.000109776 0.000103154 9.65291e-05 8.93157e-05);
    }
    inlet
    {
        type            calculated;
        value           uniform 0.000167705;
    }
    outlet
    {
        type            calculated;
        value           nonuniform List<scalar> 2(0.00275782 0.00666696);
    }
}


// ************************************************************************* //
