/*--------------------------------*- C++ -*----------------------------------*\
  =========                 |
  \\      /  F ield         | OpenFOAM: The Open Source CFD Toolbox
   \\    /   O peration     | Website:  https://openfoam.org
    \\  /    A nd           | Version:  6
     \\/     M anipulation  |
\*---------------------------------------------------------------------------*/
FoamFile
{
    version     2.0;
    format      ascii;
    class       volScalarField;
    location    "29799.9999981636902";
    object      epsilon;
}
// * * * * * * * * * * * * * * * * * * * * * * * * * * * * * * * * * * * * * //

dimensions      [0 2 -3 0 0 0 0];

internalField   nonuniform List<scalar> 
778
(
0.000253129
0.000306383
0.000303056
0.00034426
0.000385152
0.000424982
0.00046444
0.000504713
0.000547535
0.000595621
0.000644001
0.000692304
0.000742184
0.00079845
0.000860138
8.94208e-05
0.000262567
0.000268908
0.000249796
0.000219941
0.000183945
0.000152236
0.000126462
0.000105872
8.94192e-05
7.62733e-05
6.56224e-05
5.68271e-05
4.93621e-05
4.27549e-05
3.65068e-05
3.18093e-05
2.35961e-05
0.000797017
0.0014433
0.000287035
0.000259643
0.000261745
0.000267716
0.000276609
0.000290033
0.000310277
0.000340462
0.000379637
0.000430701
0.000499023
0.000600163
0.000785243
0.00112879
0.00097826
0.000858065
0.000512481
0.000369696
0.000294285
0.00024285
0.000203955
0.000186737
0.000154552
0.000124899
0.000100628
8.14428e-05
6.64942e-05
5.47991e-05
4.56138e-05
3.86936e-05
3.45058e-05
3.27481e-05
6.58178e-05
4.80919e-05
0.00163067
0.0040795
0.000407463
0.000242975
0.000229149
0.000231058
0.000238269
0.000250532
0.000268425
0.000292674
0.00032477
0.000366796
0.000421139
0.000494818
0.000601204
0.000724462
0.000829485
0.00158392
0.00102832
0.000512642
0.000367903
0.000294373
0.000262089
0.000551357
0.000362406
0.00025051
0.00018113
0.000136133
0.000105803
8.46995e-05
6.97658e-05
5.94233e-05
4.51099e-05
3.79646e-05
0.000108337
7.08307e-05
0.00285362
0.00877159
0.000710037
0.000240771
0.000202517
0.000200046
0.00020321
0.000209826
0.00022063
0.00023753
0.000263196
0.00029991
0.000349088
0.000412203
0.0004879
0.000560131
0.000612245
0.000824079
0.00156454
0.000729267
0.000459953
0.000358373
0.000301937
0.000291797
0.000814172
0.000612602
0.000481708
0.000388219
0.000318823
0.000264043
0.000218521
0.000178817
0.000141678
8.37167e-05
5.48338e-05
0.000149057
9.45591e-05
0.00454619
0.0158298
0.00134673
0.000258396
0.000175766
0.000166815
0.000165814
0.000167779
0.000173932
0.000187426
0.000211652
0.000248303
0.000297677
0.00035918
0.000427626
0.00048902
0.000528375
0.000582268
0.000627165
0.000483081
0.000393453
0.000331027
0.000282297
0.000248617
0.000247816
0.000226738
0.000202873
0.000180968
0.000162579
0.000146422
0.000131769
0.000118201
0.000105068
8.44701e-05
6.41334e-05
0.000105366
0.000138928
0.000160562
0.000377795
0.000329748
0.00676396
0.0248822
0.00255431
0.00031815
0.000155567
0.000137085
0.000132137
0.000130695
0.000134458
0.000148548
0.000176691
0.000218037
0.000270714
0.000333974
0.000401527
0.000462417
0.000502747
0.000521444
0.000504555
0.000438116
0.000373763
0.000315631
0.000264734
0.000223377
0.000193279
0.000169618
0.000150799
0.000135605
0.000123264
0.00011271
0.000103255
9.45062e-05
8.60886e-05
7.59204e-05
6.52932e-05
7.75982e-05
9.98081e-05
0.000213799
0.00109283
0.000561737
0.00967282
0.0336413
0.00458547
0.000465143
0.000150873
0.000116358
0.000107095
0.000103283
0.000107075
0.00012792
0.000166131
0.000215879
0.000273262
0.00033998
0.000409178
0.000470264
0.000509965
0.000520241
0.000494135
0.000437518
0.000371799
0.000307472
0.000250543
0.000204426
0.000169735
0.000144549
0.000126324
0.000112738
0.000102276
9.3695e-05
8.61946e-05
7.93217e-05
7.27987e-05
6.6152e-05
6.02737e-05
6.36644e-05
7.68845e-05
0.000178824
0.00165381
0.000926558
0.01276
0.0404099
0.00749274
0.000871694
0.000194331
0.000115391
9.73855e-05
9.14485e-05
9.86315e-05
0.000137689
0.000189273
0.000246261
0.000307065
0.000373863
0.000444834
0.000508094
0.000547364
0.000550851
0.000515603
0.0004515
0.000375512
0.000300985
0.000236498
0.000185967
0.000149314
0.000123988
0.000106727
9.45935e-05
8.57549e-05
7.88084e-05
7.28838e-05
6.75104e-05
6.24596e-05
5.76563e-05
5.38642e-05
5.55338e-05
7.10199e-05
0.000374781
0.00565597
0.00212849
0.0138278
0.0414575
0.0139369
0.00316578
0.000630518
0.000208097
0.000132676
0.000115964
0.000142389
0.000192822
0.000249203
0.000306405
0.000367467
0.000436926
0.000511492
0.000576125
0.000611136
0.000603201
0.000552108
0.000470942
0.000378536
0.000290997
0.000218334
0.000164077
0.000126822
0.000102654
8.73371e-05
7.74e-05
7.07136e-05
6.57007e-05
6.14764e-05
5.76121e-05
5.39459e-05
5.05377e-05
4.81208e-05
5.15739e-05
0.000102076
0.00117906
0.0148835
0.0031704
0.0130039
0.0283664
0.0144171
0.00572832
0.00210505
0.000834827
0.000413708
0.0002768
0.000278856
0.000314385
0.000355921
0.000401722
0.000458922
0.000531628
0.000610958
0.000674847
0.000699161
0.000670699
0.000593724
0.000486665
0.000372764
0.000270895
0.000191354
0.000135927
0.000100807
7.99868e-05
6.8066e-05
6.12848e-05
5.7195e-05
5.42334e-05
5.16567e-05
4.9164e-05
4.66982e-05
4.44486e-05
4.35059e-05
5.29689e-05
0.00022648
0.00389201
0.011035
0.00328763
0.010688
0.0193537
0.0120385
0.00630082
0.00317476
0.00167474
0.000986606
0.000678781
0.000559716
0.000517016
0.00051021
0.000531609
0.000584501
0.000664268
0.000749274
0.000806492
0.000807909
0.000744024
0.000627764
0.000485969
0.00034778
0.000233941
0.000152876
0.000102076
7.37657e-05
5.89624e-05
5.15051e-05
4.8066e-05
4.62639e-05
4.49384e-05
4.36236e-05
4.21789e-05
4.06906e-05
3.96243e-05
4.0897e-05
5.77575e-05
0.000281115
0.00325866
0.00959296
0.00332547
0.00807043
0.013768
0.0096914
0.00593307
0.0035694
0.00222717
0.00149047
0.00109263
0.000868887
0.000743211
0.000685822
0.000690776
0.000752353
0.00084758
0.00093517
0.000970303
0.000926422
0.000805043
0.000634313
0.00045205
0.000293432
0.000177925
0.000107391
6.96964e-05
5.26411e-05
4.4498e-05
4.0685e-05
3.92837e-05
3.86956e-05
3.82428e-05
3.7664e-05
3.69476e-05
3.64459e-05
3.73192e-05
4.33747e-05
7.35116e-05
0.000304419
0.0024223
0.00786309
0.0038587
0.00612299
0.0101686
0.00779145
0.00531253
0.00357012
0.00246909
0.00178793
0.00136813
0.0010928
0.000925975
0.000859701
0.00088848
0.000986374
0.00110211
0.00117344
0.00115177
0.00102624
0.000820418
0.000585518
0.00036872
0.00020894
0.000114901
7.21958e-05
5.22186e-05
4.27826e-05
3.81022e-05
3.58539e-05
3.50457e-05
3.47461e-05
3.45292e-05
3.42914e-05
3.42911e-05
3.56018e-05
4.14969e-05
6.26187e-05
0.000137058
0.000433152
0.002253
0.00626445
0.00428102
0.00618537
0.00781446
0.00680611
0.00474018
0.00336602
0.00246271
0.00186603
0.00146248
0.00119463
0.00106489
0.00107193
0.00118426
0.00133563
0.00144405
0.00144198
0.00130014
0.00104834
0.000739895
0.000456494
0.000238344
0.000131087
8.14595e-05
5.93544e-05
4.85064e-05
4.25479e-05
3.90341e-05
3.70022e-05
3.5972e-05
3.55001e-05
3.52421e-05
3.53066e-05
3.66214e-05
4.25227e-05
6.38383e-05
0.000132573
0.000325761
0.000836815
0.00239227
0.00621227
0.00368747
0.00454744
0.00511666
0.00418636
0.00336235
0.00264003
0.00207028
0.0016491
0.00136176
0.00124467
0.00130137
0.00148196
0.00169413
0.00183316
0.00182246
0.00163742
0.0012979
0.00090443
0.000518127
0.000277701
0.000154164
0.000100569
7.71124e-05
6.52646e-05
5.7949e-05
5.28938e-05
4.93606e-05
4.70176e-05
4.55836e-05
4.50442e-05
4.50937e-05
4.60033e-05
4.96078e-05
6.21533e-05
0.000102663
0.000222504
0.000538539
0.00128528
0.00282261
0.00517256
0.00309118
0.00139852
0.00142849
0.00143037
0.00135146
0.00130951
0.00142102
0.00170651
0.00204544
0.00231345
0.00241523
0.00229869
0.00197997
0.00152562
0.000975059
0.000563313
0.000309215
0.000184784
0.000131939
0.000109575
9.78838e-05
9.00138e-05
8.40147e-05
7.95257e-05
7.6568e-05
7.51244e-05
7.50044e-05
7.58244e-05
7.82348e-05
8.19716e-05
8.88354e-05
0.000105243
0.00014968
0.00026992
0.000575989
0.0012855
0.0027676
0.00540626
0.00284293
0.00118822
0.0017125
0.00194959
0.00230485
0.00275143
0.00315778
0.00334117
0.00331195
0.00309242
0.00270203
0.00213058
0.001508
0.00097044
0.000567863
0.000335926
0.000226925
0.000182882
0.000164506
0.000154703
0.000147817
0.000142512
0.000138833
0.000137261
0.000138304
0.000142236
0.000148894
0.000157569
0.000166942
0.000177513
0.000191082
0.000211708
0.00025373
0.000351356
0.000583914
0.00113499
0.00244695
0.00496289
0.00365742
0.00741888
0.00811421
0.004821
0.00340156
0.00372916
0.00413636
0.00414627
0.00393487
0.00358143
0.00313019
0.00262682
0.00208249
0.00152851
0.00103612
0.000669473
0.00044963
0.000346763
0.000306235
0.000290897
0.000283836
0.000278853
0.00027397
0.000269132
0.000265322
0.000264011
0.000266684
0.000274543
0.000288443
0.00030897
0.000336321
0.000369699
0.000407733
0.000454878
0.000533292
0.000665645
0.000911417
0.00144191
0.0031477
0.00458684
0.00418086
0.00650173
0.00514102
0.00435614
0.00461284
0.00453371
0.00426736
0.00368758
0.00304136
0.00245583
0.00196352
0.00156116
0.00123774
0.000979634
0.000781929
0.00063981
0.000551107
0.000503693
0.000482711
0.000477317
0.000480574
0.000487935
0.000496596
0.000505331
0.00051441
0.000525406
0.000540957
0.000564571
0.00060054
0.000653943
0.000730606
0.000836739
0.000977665
0.00115457
0.00136209
0.00163018
0.0020203
0.00264841
0.00406111
0.00552983
0.0046168
0.00535729
0.00337375
0.0033259
0.00362976
0.00389757
0.00357345
0.00298528
0.00238176
0.00186035
0.00143436
0.00109163
0.000822629
0.000626269
0.000502238
0.000441075
0.000417948
0.000416883
0.000427407
0.00044361
0.00046221
0.000481366
0.000500237
0.000518885
0.000538226
0.000559986
0.000586688
0.000621861
0.000670544
0.000739864
0.00083908
0.000978278
0.00116573
0.00140592
0.00170198
0.00206547
0.00250644
0.00301888
0.00362615
0.00429951
0.00365291
)
;

boundaryField
{
    floor
    {
        Cmu             0.09;
        kappa           0.41;
        E               9.8;
        type            epsilonWallFunction;
        value           nonuniform List<scalar> 
36
(
0.000860138
8.94208e-05
0.000262567
0.000268908
0.000249796
0.000219941
0.000183945
0.000152236
0.000126462
0.000105872
8.94192e-05
7.62733e-05
6.56224e-05
5.68271e-05
4.93621e-05
4.27549e-05
3.65068e-05
3.18093e-05
2.35961e-05
2.35961e-05
4.80919e-05
7.08307e-05
9.45591e-05
0.000160562
0.000377795
0.000329748
0.000860138
0.00112879
0.00097826
0.000858065
8.94208e-05
0.000858065
0.000512481
0.00158392
0.00102832
0.00156454
)
;
    }
    ceiling
    {
        Cmu             0.09;
        kappa           0.41;
        E               9.8;
        type            epsilonWallFunction;
        value           nonuniform List<scalar> 
43
(
0.00535729
0.00337375
0.0033259
0.00362976
0.00389757
0.00357345
0.00298528
0.00238176
0.00186035
0.00143436
0.00109163
0.000822629
0.000626269
0.000502238
0.000441075
0.000417948
0.000416883
0.000427407
0.00044361
0.00046221
0.000481366
0.000500237
0.000518885
0.000538226
0.000559986
0.000586688
0.000621861
0.000670544
0.000739864
0.00083908
0.000978278
0.00116573
0.00140592
0.00170198
0.00206547
0.00250644
0.00301888
0.00362615
0.00429951
0.00365291
0.00454744
0.00511666
0.00118822
)
;
    }
    sWall
    {
        Cmu             0.09;
        kappa           0.41;
        E               9.8;
        type            epsilonWallFunction;
        value           nonuniform List<scalar> 9(0.0130039 0.010688 0.00807043 0.00612299 0.00618537 0.00454744 0.00741888 0.00650173 0.00535729);
    }
    nWall
    {
        Cmu             0.09;
        kappa           0.41;
        E               9.8;
        type            epsilonWallFunction;
        value           nonuniform List<scalar> 
14
(
0.000329748
0.000561737
0.000926558
0.00328763
0.00332547
0.0038587
0.00428102
0.00368747
0.00309118
0.00284293
0.00365742
0.00418086
0.0046168
0.00365291
)
;
    }
    sideWalls
    {
        type            empty;
    }
    glass1
    {
        Cmu             0.09;
        kappa           0.41;
        E               9.8;
        type            epsilonWallFunction;
        value           nonuniform List<scalar> 9(0.000253129 0.000797017 0.00163067 0.00285362 0.00454619 0.00676396 0.00967282 0.01276 0.0138278);
    }
    glass2
    {
        Cmu             0.09;
        kappa           0.41;
        E               9.8;
        type            epsilonWallFunction;
        value           nonuniform List<scalar> 2(0.00212849 0.0031704);
    }
    sun
    {
        Cmu             0.09;
        kappa           0.41;
        E               9.8;
        type            epsilonWallFunction;
        value           nonuniform List<scalar> 
14
(
0.000253129
0.000306383
0.000303056
0.00034426
0.000385152
0.000424982
0.00046444
0.000504713
0.000547535
0.000595621
0.000644001
0.000692304
0.000742184
0.00079845
)
;
    }
    Table_master
    {
        Cmu             0.09;
        kappa           0.41;
        E               9.8;
        type            epsilonWallFunction;
        value           nonuniform List<scalar> 9(0.000551357 0.000362406 0.00025051 0.00018113 0.000136133 0.000105803 8.46995e-05 6.97658e-05 5.94233e-05);
    }
    Table_slave
    {
        Cmu             0.09;
        kappa           0.41;
        E               9.8;
        type            epsilonWallFunction;
        value           nonuniform List<scalar> 9(0.000814172 0.000612602 0.000481708 0.000388219 0.000318823 0.000264043 0.000218521 0.000178817 0.000141678);
    }
    inlet
    {
        type            turbulentMixingLengthDissipationRateInlet;
        mixingLength    0.01;
        phi             phi;
        k               k;
        value           uniform 0.000471671;
    }
    outlet
    {
        type            zeroGradient;
    }
}


// ************************************************************************* //
