/*--------------------------------*- C++ -*----------------------------------*\
  =========                 |
  \\      /  F ield         | OpenFOAM: The Open Source CFD Toolbox
   \\    /   O peration     | Website:  https://openfoam.org
    \\  /    A nd           | Version:  6
     \\/     M anipulation  |
\*---------------------------------------------------------------------------*/
FoamFile
{
    version     2.0;
    format      ascii;
    class       volScalarField;
    location    "29799.9999981636902";
    object      k;
}
// * * * * * * * * * * * * * * * * * * * * * * * * * * * * * * * * * * * * * //

dimensions      [0 2 -2 0 0 0 0];

internalField   nonuniform List<scalar> 
778
(
0.00158597
0.00180126
0.0017882
0.00194682
0.00209808
0.00224034
0.00237695
0.00251245
0.00265262
0.00280574
0.00295569
0.00310169
0.00324894
0.00341114
0.00358465
0.000792549
0.00162516
0.00165122
0.00157202
0.00144413
0.00128192
0.00113
0.000998564
0.000886999
0.000792542
0.000712826
0.000644817
0.000585831
0.000533332
0.00048461
0.000436165
0.000397897
0.000326058
0.00340706
0.00643386
0.00268776
0.00274636
0.00288809
0.00305468
0.00323499
0.00343063
0.00364364
0.00387363
0.00412529
0.00437858
0.00459393
0.00469893
0.00459325
0.00429679
0.00390575
0.00357889
0.00253817
0.00281333
0.00295488
0.00289642
0.00266299
0.00226374
0.00190455
0.00160851
0.00136903
0.00117542
0.00101678
0.000885078
0.000773869
0.000681083
0.000615096
0.000574596
0.000864659
0.000524144
0.00549093
0.0127823
0.0034783
0.00321235
0.0032977
0.00345554
0.00363687
0.0038409
0.00407097
0.0043272
0.00463485
0.00500972
0.00544946
0.00595877
0.00653003
0.0068592
0.00627709
0.00538549
0.00403788
0.00416992
0.00417314
0.00397519
0.00357702
0.00266497
0.00201465
0.00157502
0.00126881
0.00104884
0.000886613
0.000764404
0.000671682
0.000603541
0.000551374
0.00054864
0.00116657
0.000678501
0.0079738
0.021761
0.00449178
0.00339094
0.0033417
0.00343823
0.00354953
0.00366887
0.00380888
0.00399087
0.00425835
0.00464731
0.00516971
0.00582363
0.00655352
0.00713418
0.00722833
0.00724606
0.00534145
0.00554706
0.00537481
0.00512509
0.00478668
0.00434793
0.00345578
0.00285883
0.00243552
0.00210921
0.0018497
0.00163124
0.00143791
0.00125798
0.00107714
0.000800306
0.00065951
0.00142412
0.000822634
0.0108768
0.033639
0.00621396
0.0034252
0.00315842
0.00316704
0.00318957
0.00320975
0.00325186
0.00336063
0.003594
0.0039881
0.004552
0.00527512
0.00608541
0.00681637
0.00728162
0.00764152
0.00751292
0.00665101
0.00607126
0.00557798
0.00509862
0.00462923
0.00412306
0.00366539
0.0032745
0.00293665
0.00263027
0.00234674
0.0020782
0.00181758
0.00155426
0.00122137
0.000929596
0.00119135
0.00121681
0.00117084
0.00207118
0.00189173
0.0141754
0.0476049
0.00928615
0.00349029
0.00290866
0.00282277
0.00276433
0.00269937
0.00266395
0.00273422
0.00298035
0.00341358
0.00402253
0.0047966
0.00565216
0.00645962
0.00706611
0.00740366
0.00731943
0.00678647
0.00621278
0.00563593
0.00507377
0.00455581
0.00409126
0.00369556
0.00336284
0.00307331
0.00280618
0.00255071
0.00229806
0.0020414
0.00177334
0.00147099
0.00117732
0.00111212
0.00111159
0.0017267
0.00515895
0.00269836
0.017993
0.0606122
0.014364
0.00382
0.00271532
0.00252939
0.00241169
0.0022938
0.00222074
0.00231135
0.00263022
0.00313928
0.00380192
0.00463145
0.00552819
0.0063658
0.00699899
0.0073252
0.00725113
0.00681531
0.00621362
0.00555396
0.00491158
0.00434269
0.0038725
0.00350048
0.00320674
0.00296178
0.00274114
0.00252857
0.0023127
0.00208643
0.0018448
0.00158263
0.0013259
0.0011581
0.00109215
0.00157669
0.0064085
0.00376687
0.0216422
0.0704862
0.0214421
0.0051032
0.00274289
0.00237176
0.00220994
0.00208158
0.00202588
0.00221919
0.00264983
0.00323146
0.00393833
0.00477633
0.0057012
0.00657516
0.00722391
0.00751272
0.00738239
0.00689469
0.00619758
0.00542709
0.00469198
0.00406492
0.00357482
0.00321286
0.00294806
0.00274146
0.00256448
0.00239567
0.00222146
0.00203452
0.0018314
0.00161229
0.00139465
0.00122507
0.00115623
0.00218639
0.0142742
0.00655742
0.0228334
0.0694888
0.0325411
0.0110608
0.00406779
0.0025872
0.00223512
0.00210246
0.0021893
0.00251176
0.00300023
0.00360279
0.00433488
0.00521698
0.00619067
0.00709257
0.00772002
0.00792354
0.00766393
0.00702528
0.00616621
0.00525038
0.00440955
0.0037241
0.00321794
0.00287003
0.0026367
0.00247028
0.00233724
0.00221175
0.00207906
0.0019322
0.00176884
0.00159078
0.00141058
0.00127487
0.00135469
0.0044169
0.0289354
0.00855369
0.0219172
0.0516267
0.033645
0.0174365
0.00858775
0.00475791
0.00325971
0.00272869
0.00285167
0.00320945
0.00367159
0.00424726
0.00499925
0.00594589
0.00698389
0.00789635
0.008447
0.00848545
0.00800357
0.00712469
0.00604431
0.00495849
0.00401603
0.00329442
0.00280071
0.00249105
0.00230454
0.00218666
0.00209843
0.00201311
0.00191727
0.00180534
0.0016761
0.00153197
0.0013839
0.00128713
0.001741
0.0111895
0.0239622
0.00876275
0.0192309
0.0394303
0.0302368
0.0195667
0.0121818
0.00793711
0.00571494
0.00466663
0.00435927
0.00439686
0.0046506
0.00514619
0.0059409
0.00699229
0.00810267
0.00897639
0.00934983
0.0090979
0.008273
0.00706252
0.00571727
0.00446776
0.00346924
0.0027745
0.0023527
0.00211884
0.00199468
0.00192721
0.00187736
0.00182347
0.00175568
0.00167023
0.00156709
0.00145016
0.00133294
0.0012897
0.00200982
0.0105752
0.0231065
0.0088282
0.0159465
0.0315843
0.0266505
0.019539
0.0139755
0.0102828
0.00802522
0.00674859
0.00604553
0.00572743
0.00578073
0.00627658
0.00721889
0.00843401
0.009585
0.0102967
0.0103159
0.0095924
0.00828446
0.00666808
0.0050645
0.00373119
0.00280052
0.0022401
0.0019597
0.00181995
0.00175134
0.00171775
0.00169034
0.00165498
0.00160496
0.00153737
0.0014539
0.0013624
0.00128243
0.00131946
0.00227407
0.00927024
0.0214419
0.00974492
0.0132651
0.0256797
0.0233565
0.0186926
0.0145848
0.0115883
0.0095428
0.00820798
0.00729764
0.00683773
0.0069581
0.00772605
0.00899402
0.0103866
0.0114256
0.0117153
0.0111038
0.00968579
0.00778278
0.00576503
0.00403916
0.00284248
0.00219808
0.00186508
0.00170243
0.00162291
0.00158334
0.00156198
0.00154039
0.00150982
0.00146611
0.00140888
0.0013428
0.00128182
0.00127814
0.00158116
0.00301781
0.00957194
0.0192071
0.0104483
0.0133551
0.0224296
0.022068
0.0177658
0.014396
0.0118963
0.010085
0.00876888
0.00791714
0.00777358
0.00847687
0.00988185
0.0115489
0.0128968
0.0134172
0.012839
0.0112569
0.00896221
0.00651422
0.00430666
0.00295923
0.00221744
0.00184749
0.00166392
0.00157016
0.0015185
0.00148599
0.00146071
0.00143243
0.00139575
0.00134894
0.00129526
0.00125009
0.00126909
0.00154271
0.00248795
0.00475437
0.0102526
0.0194467
0.00946895
0.0108788
0.0117686
0.0129257
0.0125537
0.0113752
0.0100753
0.00894726
0.0082029
0.00830071
0.00941583
0.011301
0.0133827
0.0149807
0.0155496
0.0148324
0.0128465
0.0101042
0.00699144
0.00461343
0.00311093
0.00232082
0.00193287
0.00173895
0.00163134
0.0015633
0.00151373
0.00147193
0.00143193
0.00139019
0.00134456
0.00129618
0.00125548
0.00125846
0.00141605
0.00200752
0.003502
0.00642385
0.0110895
0.0161265
0.00841637
0.00354007
0.00481762
0.00598801
0.00659463
0.00727475
0.00878698
0.0113028
0.0141401
0.0165708
0.0180174
0.0181046
0.0167515
0.0141842
0.0105524
0.00724756
0.00476668
0.00327042
0.00250594
0.00214854
0.00197014
0.00186357
0.00178635
0.00172284
0.00166698
0.00161652
0.00157117
0.00153135
0.00150423
0.00148858
0.0014942
0.00155782
0.00178465
0.00241897
0.00389574
0.00672392
0.0112228
0.0168821
0.0079542
0.0044463
0.00628202
0.00809716
0.0110064
0.014677
0.0181372
0.0203811
0.0214567
0.0213957
0.0201771
0.0176177
0.0141005
0.0103956
0.00707985
0.00475128
0.00342295
0.00279497
0.00252175
0.00239329
0.00231801
0.00226306
0.00221818
0.0021823
0.00215853
0.00215126
0.00216303
0.00219161
0.00222788
0.00227445
0.00234049
0.00244817
0.00267947
0.00321047
0.00437955
0.00677383
0.0113619
0.0174324
0.00940495
0.0150763
0.0245447
0.018135
0.0143867
0.0169818
0.0206657
0.0227854
0.0234855
0.0230409
0.0216997
0.0196941
0.0170305
0.0138068
0.0104012
0.00738192
0.00523417
0.00405724
0.00354253
0.00334949
0.00328077
0.00325132
0.00322684
0.00319608
0.00316092
0.00313129
0.00312007
0.00313852
0.00319391
0.00328964
0.00342596
0.00359832
0.0038016
0.00406274
0.00448165
0.00516707
0.00636458
0.00867532
0.0146489
0.0178868
0.0102871
0.0138066
0.0170621
0.0178246
0.0207359
0.0216672
0.0220849
0.0210906
0.0192829
0.0171711
0.0150025
0.0128707
0.0108113
0.00884696
0.00708712
0.00568385
0.00477984
0.00431115
0.00411976
0.0040817
0.00412251
0.00419608
0.00427304
0.00433793
0.00438838
0.00443292
0.00448681
0.00456786
0.00469464
0.00488743
0.00517077
0.00557452
0.00612997
0.00685659
0.00774528
0.00887922
0.0104139
0.0127341
0.0173366
0.0202724
0.0109915
0.0121347
0.00891545
0.00883095
0.00936095
0.0098159
0.00926389
0.00821718
0.0070685
0.0059949
0.0050405
0.00420144
0.00347906
0.00290063
0.00250386
0.00229634
0.00221547
0.00221178
0.00224887
0.00230531
0.00236924
0.00243416
0.00249729
0.0025589
0.00262209
0.00269234
0.00277741
0.00288763
0.00303691
0.00324342
0.00352803
0.0039088
0.00439364
0.00497781
0.00565338
0.00643125
0.00731528
0.00827949
0.00935398
0.0104778
0.00940124
)
;

boundaryField
{
    floor
    {
        type            kqRWallFunction;
        value           nonuniform List<scalar> 
36
(
0.00358465
0.000792549
0.00162516
0.00165122
0.00157202
0.00144413
0.00128192
0.00113
0.000998564
0.000886999
0.000792542
0.000712826
0.000644817
0.000585831
0.000533332
0.00048461
0.000436165
0.000397897
0.000326058
0.000326058
0.000524144
0.000678501
0.000822634
0.00117084
0.00207118
0.00189173
0.00358465
0.00429679
0.00390575
0.00357889
0.000792549
0.00357889
0.00253817
0.00538549
0.00403788
0.00534145
)
;
    }
    ceiling
    {
        type            kqRWallFunction;
        value           nonuniform List<scalar> 
43
(
0.0121347
0.00891545
0.00883095
0.00936095
0.0098159
0.00926389
0.00821718
0.0070685
0.0059949
0.0050405
0.00420144
0.00347906
0.00290063
0.00250386
0.00229634
0.00221547
0.00221178
0.00224887
0.00230531
0.00236924
0.00243416
0.00249729
0.0025589
0.00262209
0.00269234
0.00277741
0.00288763
0.00303691
0.00324342
0.00352803
0.0039088
0.00439364
0.00497781
0.00565338
0.00643125
0.00731528
0.00827949
0.00935398
0.0104778
0.00940124
0.0108788
0.0117686
0.0044463
)
;
    }
    sWall
    {
        type            kqRWallFunction;
        value           nonuniform List<scalar> 9(0.0219172 0.0192309 0.0159465 0.0132651 0.0133551 0.0108788 0.0150763 0.0138066 0.0121347);
    }
    nWall
    {
        type            kqRWallFunction;
        value           nonuniform List<scalar> 
14
(
0.00189173
0.00269836
0.00376687
0.00876275
0.0088282
0.00974492
0.0104483
0.00946895
0.00841637
0.0079542
0.00940495
0.0102871
0.0109915
0.00940124
)
;
    }
    sideWalls
    {
        type            empty;
    }
    glass1
    {
        type            kqRWallFunction;
        value           nonuniform List<scalar> 9(0.00158597 0.00340706 0.00549093 0.0079738 0.0108768 0.0141754 0.017993 0.0216422 0.0228334);
    }
    glass2
    {
        type            kqRWallFunction;
        value           nonuniform List<scalar> 2(0.00655742 0.00855369);
    }
    sun
    {
        type            kqRWallFunction;
        value           nonuniform List<scalar> 
14
(
0.00158597
0.00180126
0.0017882
0.00194682
0.00209808
0.00224034
0.00237695
0.00251245
0.00265262
0.00280574
0.00295569
0.00310169
0.00324894
0.00341114
)
;
    }
    Table_master
    {
        type            kqRWallFunction;
        value           nonuniform List<scalar> 9(0.00266497 0.00201465 0.00157502 0.00126881 0.00104884 0.000886613 0.000764404 0.000671682 0.000603541);
    }
    Table_slave
    {
        type            kqRWallFunction;
        value           nonuniform List<scalar> 9(0.00345578 0.00285883 0.00243552 0.00210921 0.0018497 0.00163124 0.00143791 0.00125798 0.00107714);
    }
    inlet
    {
        type            turbulentIntensityKineticEnergyInlet;
        intensity       0.05;
        value           uniform 0.0009375;
    }
    outlet
    {
        type            zeroGradient;
    }
}


// ************************************************************************* //
