/*--------------------------------*- C++ -*----------------------------------*\
  =========                 |
  \\      /  F ield         | OpenFOAM: The Open Source CFD Toolbox
   \\    /   O peration     | Website:  https://openfoam.org
    \\  /    A nd           | Version:  6
     \\/     M anipulation  |
\*---------------------------------------------------------------------------*/
FoamFile
{
    version     2.0;
    format      ascii;
    class       volVectorField;
    location    "29799.9999981636902";
    object      U;
}
// * * * * * * * * * * * * * * * * * * * * * * * * * * * * * * * * * * * * * //

dimensions      [0 1 -1 0 0 0 0];

internalField   nonuniform List<vector> 
778
(
(0.0656028 0.0794066 0)
(-0.155173 0.0157638 0)
(-0.164297 0.0146227 0)
(-0.19241 0.0122717 0)
(-0.216841 0.00872013 0)
(-0.236894 0.00473795 0)
(-0.252012 0.00041027 0)
(-0.261771 -0.00437512 0)
(-0.26566 -0.0098166 0)
(-0.262676 -0.0161946 0)
(-0.250868 -0.024265 0)
(-0.22617 -0.0348792 0)
(-0.186057 -0.050394 0)
(-0.144136 -0.0751542 0)
(-0.150022 -0.108532 0)
(0.0546884 0.0354575 0)
(0.0158254 -0.0268797 0)
(0.0450322 -0.0232648 0)
(0.0694522 -0.0161612 0)
(0.0845229 -0.0103547 0)
(0.0917357 -0.00641635 0)
(0.0945721 -0.00434019 0)
(0.0956118 -0.00331836 0)
(0.0960742 -0.00273055 0)
(0.0962513 -0.00231607 0)
(0.0961282 -0.00195046 0)
(0.0956002 -0.0015093 0)
(0.0943395 -0.000755053 0)
(0.0914879 0.000849851 0)
(0.0852748 0.00407549 0)
(0.0737169 0.0077864 0)
(0.0600327 0.0116326 0)
(-0.00790319 0.0300192 0)
(0.258405 0.167391 0)
(-0.161233 0.0483882 0)
(-0.141597 0.0459764 0)
(-0.173999 0.0416086 0)
(-0.199357 0.0356584 0)
(-0.22007 0.0291164 0)
(-0.23609 0.0220426 0)
(-0.247331 0.0142113 0)
(-0.253495 0.00527971 0)
(-0.253802 -0.00516737 0)
(-0.247641 -0.0170926 0)
(-0.233933 -0.0308539 0)
(-0.214027 -0.0480715 0)
(-0.197451 -0.0699456 0)
(-0.193934 -0.0826187 0)
(-0.166336 -0.0425322 0)
(-0.105312 -0.0363452 0)
(-0.0983243 -0.0444347 0)
(0.10936 -0.0421722 0)
(0.0645141 -0.041219 0)
(0.0719899 -0.0323045 0)
(0.0859974 -0.0207435 0)
(0.0939233 -0.0104886 0)
(0.0961687 -0.00364212 0)
(0.0959268 -0.00020231 0)
(0.0955344 0.00123684 0)
(0.0954972 0.00188521 0)
(0.095579 0.00226339 0)
(0.0955879 0.00258993 0)
(0.0954889 0.00313479 0)
(0.0951981 0.00441739 0)
(0.0939399 0.00773575 0)
(0.088337 0.0167791 0)
(0.0745603 0.0253793 0)
(0.063203 0.0330124 0)
(-0.0519574 0.0636809 0)
(0.42999 0.25395 0)
(-0.194234 0.0847528 0)
(-0.11277 0.0784249 0)
(-0.148233 0.0669441 0)
(-0.17066 0.055483 0)
(-0.188747 0.0437049 0)
(-0.202575 0.0313178 0)
(-0.212256 0.0179796 0)
(-0.217597 0.00337296 0)
(-0.217944 -0.012653 0)
(-0.21268 -0.0303385 0)
(-0.201569 -0.0499153 0)
(-0.185924 -0.0715673 0)
(-0.169382 -0.0932019 0)
(-0.151005 -0.104543 0)
(-0.12017 -0.0931113 0)
(-0.0794907 -0.0948918 0)
(-0.0714173 -0.107522 0)
(0.0921618 -0.0882645 0)
(0.0626124 -0.0658331 0)
(0.074435 -0.0461895 0)
(0.0880953 -0.0293024 0)
(0.0949756 -0.0149666 0)
(0.0921003 -0.0120071 0)
(0.0878605 -0.00793334 0)
(0.0854891 -0.0057784 0)
(0.0847891 -0.00456464 0)
(0.0847563 -0.00380394 0)
(0.0850074 -0.00322961 0)
(0.0856605 -0.00259977 0)
(0.0874258 -0.00143821 0)
(0.0921178 0.00292398 0)
(0.0902789 0.0251275 0)
(0.073454 0.0424201 0)
(0.0702013 0.057559 0)
(-0.090029 0.101092 0)
(0.578562 0.325834 0)
(-0.240107 0.1218 0)
(-0.0808232 0.109211 0)
(-0.121561 0.0898377 0)
(-0.138989 0.0740472 0)
(-0.153045 0.0586071 0)
(-0.163798 0.0427185 0)
(-0.171384 0.0257716 0)
(-0.175586 0.00716071 0)
(-0.17564 -0.0135634 0)
(-0.170943 -0.036493 0)
(-0.161367 -0.0614675 0)
(-0.14749 -0.0873733 0)
(-0.130498 -0.110292 0)
(-0.109526 -0.123181 0)
(-0.082036 -0.124506 0)
(-0.0524118 -0.126316 0)
(-0.0332634 -0.123131 0)
(0.0165267 -0.0568034 0)
(0.060941 -0.0930831 0)
(0.0685552 -0.0792518 0)
(0.0791541 -0.0588827 0)
(0.0916394 -0.039641 0)
(0.102966 -0.0209862 0)
(0.115714 -0.0132175 0)
(0.126906 -0.00881522 0)
(0.132538 -0.00560819 0)
(0.133555 -0.00310908 0)
(0.131067 -0.000890883 0)
(0.12564 0.00127748 0)
(0.117139 0.00366281 0)
(0.10479 0.00672672 0)
(0.0855265 0.01117 0)
(0.0716279 0.0368759 0)
(0.0603008 0.0606503 0)
(0.0764317 0.0834864 0)
(-0.117855 0.13743 0)
(0.705748 0.38367 0)
(-0.287688 0.156991 0)
(-0.0476832 0.133765 0)
(-0.0962758 0.1069 0)
(-0.107722 0.0875715 0)
(-0.116751 0.0691438 0)
(-0.123537 0.0504115 0)
(-0.128193 0.0305467 0)
(-0.130546 0.00868068 0)
(-0.129731 -0.0158603 0)
(-0.125222 -0.0431093 0)
(-0.116585 -0.0727048 0)
(-0.103845 -0.102835 0)
(-0.0873448 -0.129088 0)
(-0.0673666 -0.145771 0)
(-0.0439995 -0.152232 0)
(-0.0201235 -0.152318 0)
(0.000432376 -0.143662 0)
(0.0309464 -0.114987 0)
(0.0570917 -0.109375 0)
(0.0706394 -0.0924699 0)
(0.080748 -0.0713002 0)
(0.0907924 -0.050849 0)
(0.100342 -0.0328127 0)
(0.109461 -0.0194267 0)
(0.116514 -0.0100533 0)
(0.119975 -0.00336605 0)
(0.120214 0.00188248 0)
(0.117843 0.0064278 0)
(0.113227 0.0107867 0)
(0.106389 0.0154722 0)
(0.0972553 0.0211859 0)
(0.0853211 0.0292257 0)
(0.0737403 0.0472822 0)
(0.0631949 0.0713852 0)
(0.0948864 0.0995367 0)
(0.0168415 0.138585 0)
(0.0964762 0.182906 0)
(0.140867 0.144303 0)
(-0.218792 0.201545 0)
(0.81046 0.431962 0)
(-0.331332 0.190656 0)
(-0.0173005 0.150225 0)
(-0.0733491 0.117498 0)
(-0.078569 0.0954874 0)
(-0.0821882 0.0749163 0)
(-0.0844421 0.0543076 0)
(-0.0854799 0.0326786 0)
(-0.0852243 0.0088155 0)
(-0.0825469 -0.0184537 0)
(-0.0773725 -0.0490615 0)
(-0.0687283 -0.0825301 0)
(-0.0567015 -0.116529 0)
(-0.0415965 -0.146331 0)
(-0.0245612 -0.166009 0)
(-0.00612993 -0.174483 0)
(0.0122721 -0.172701 0)
(0.0281933 -0.160947 0)
(0.0463393 -0.139278 0)
(0.0627546 -0.122322 0)
(0.0733838 -0.102494 0)
(0.0810235 -0.0804591 0)
(0.0877551 -0.0591302 0)
(0.0939244 -0.0402686 0)
(0.099263 -0.0251059 0)
(0.102978 -0.0137665 0)
(0.104621 -0.0050928 0)
(0.104242 0.00208377 0)
(0.102139 0.00854445 0)
(0.098556 0.014813 0)
(0.0936434 0.0214205 0)
(0.087622 0.0290018 0)
(0.0807442 0.0384676 0)
(0.0749495 0.0529588 0)
(0.069619 0.0730129 0)
(0.0917384 0.0987379 0)
(0.0735871 0.107385 0)
(0.0905123 0.0473807 0)
(0.146737 -0.036484 0)
(-0.325258 0.108134 0)
(0.87993 0.474671 0)
(-0.368657 0.220934 0)
(0.00373462 0.155525 0)
(-0.0526406 0.121543 0)
(-0.0521806 0.0978258 0)
(-0.0509982 0.0757937 0)
(-0.048995 0.0540124 0)
(-0.0464823 0.0314997 0)
(-0.0433011 0.00673425 0)
(-0.0373467 -0.0223381 0)
(-0.0302699 -0.0554069 0)
(-0.0204673 -0.0919846 0)
(-0.00861983 -0.128949 0)
(0.00465257 -0.16131 0)
(0.0177689 -0.181928 0)
(0.0306048 -0.190222 0)
(0.0424401 -0.187187 0)
(0.0527491 -0.174343 0)
(0.0626947 -0.153978 0)
(0.0712268 -0.13233 0)
(0.0766994 -0.109332 0)
(0.0801095 -0.0858535 0)
(0.082668 -0.0637013 0)
(0.0848812 -0.0442286 0)
(0.08671 -0.0281592 0)
(0.0878215 -0.0153997 0)
(0.0879908 -0.00516853 0)
(0.0870683 0.0034588 0)
(0.0852333 0.0111721 0)
(0.0826267 0.0185024 0)
(0.079413 0.0259572 0)
(0.0758568 0.0340435 0)
(0.0723427 0.0433166 0)
(0.0702293 0.055055 0)
(0.0688731 0.0696107 0)
(0.0817936 0.0886375 0)
(0.0848164 0.0916302 0)
(0.0904398 0.0535477 0)
(0.182039 0.0260696 0)
(-0.280455 0.156736 0)
(0.927971 0.51713 0)
(-0.383174 0.234123 0)
(0.0169104 0.132916 0)
(-0.0272992 0.116615 0)
(-0.0265178 0.0948906 0)
(-0.0227075 0.0723991 0)
(-0.0175968 0.050074 0)
(-0.0123272 0.0272197 0)
(-0.0053764 0.00183158 0)
(0.00459306 -0.0307745 0)
(0.0143153 -0.0653753 0)
(0.0256348 -0.103404 0)
(0.0373191 -0.140954 0)
(0.04805 -0.172241 0)
(0.0571975 -0.192411 0)
(0.0647347 -0.199845 0)
(0.070481 -0.195358 0)
(0.0744345 -0.181105 0)
(0.0771065 -0.159983 0)
(0.0784184 -0.135978 0)
(0.0779982 -0.110976 0)
(0.0764317 -0.0864775 0)
(0.0745579 -0.0639491 0)
(0.0729087 -0.0443905 0)
(0.0716275 -0.0281802 0)
(0.0705838 -0.0150365 0)
(0.069583 -0.00425654 0)
(0.0683364 0.00494367 0)
(0.0669445 0.0131559 0)
(0.0653731 0.0208778 0)
(0.0636886 0.0285485 0)
(0.0620565 0.0365333 0)
(0.0607479 0.0451277 0)
(0.0605913 0.0547863 0)
(0.0613864 0.0654097 0)
(0.069861 0.0784241 0)
(0.0794896 0.0809517 0)
(0.0803472 0.0594134 0)
(0.239968 0.0545849 0)
(-0.542151 0.234006 0)
(1.01133 0.506772 0)
(-0.137113 0.296306 0)
(0.0411037 0.161464 0)
(0.0406511 0.122022 0)
(0.013133 0.0919203 0)
(0.00871366 0.0653197 0)
(0.0141381 0.0413495 0)
(0.0207615 0.0169402 0)
(0.0325595 -0.0110583 0)
(0.0440211 -0.0421896 0)
(0.0558996 -0.0769722 0)
(0.0681995 -0.11474 0)
(0.0793774 -0.151242 0)
(0.0879274 -0.180718 0)
(0.0931946 -0.198714 0)
(0.0952814 -0.203815 0)
(0.0945888 -0.197084 0)
(0.0916602 -0.180965 0)
(0.0871725 -0.158518 0)
(0.0815797 -0.133065 0)
(0.0751815 -0.107039 0)
(0.068585 -0.0822556 0)
(0.0625206 -0.0600684 0)
(0.0575175 -0.0412022 0)
(0.0537776 -0.0257448 0)
(0.0512084 -0.0131993 0)
(0.049545 -0.00278365 0)
(0.0483909 0.00620819 0)
(0.0477039 0.0142927 0)
(0.0472483 0.0219271 0)
(0.0469564 0.0294692 0)
(0.0468485 0.0371675 0)
(0.0470059 0.0451603 0)
(0.0477796 0.0535394 0)
(0.0489911 0.0619212 0)
(0.0539515 0.0703315 0)
(0.0627195 0.0677408 0)
(0.0575445 0.0356423 0)
(0.28725 0.0693156 0)
(-0.758499 0.308211 0)
(0.779336 0.395597 0)
(0.000950464 0.319426 0)
(0.0934295 0.218859 0)
(0.110665 0.155096 0)
(0.0772324 0.106741 0)
(0.0598509 0.0674667 0)
(0.0582714 0.0356908 0)
(0.0624413 0.00635109 0)
(0.0738669 -0.0234897 0)
(0.0854415 -0.0551034 0)
(0.0976494 -0.089845 0)
(0.109541 -0.126407 0)
(0.118953 -0.16024 0)
(0.1241 -0.185968 0)
(0.124372 -0.200004 0)
(0.120189 -0.201518 0)
(0.112494 -0.191896 0)
(0.102357 -0.173709 0)
(0.0908179 -0.150008 0)
(0.0787173 -0.123832 0)
(0.0667484 -0.0977224 0)
(0.0556478 -0.0735902 0)
(0.0461511 -0.0526874 0)
(0.0387464 -0.035461 0)
(0.033559 -0.0217027 0)
(0.0303683 -0.0106303 0)
(0.0287225 -0.00132093 0)
(0.0281531 0.00687498 0)
(0.0283697 0.0144239 0)
(0.0290255 0.0217139 0)
(0.0299664 0.0290082 0)
(0.03109 0.0364823 0)
(0.0322693 0.044246 0)
(0.0333331 0.0523828 0)
(0.0332644 0.0607692 0)
(0.0315887 0.0695945 0)
(0.0163304 0.073754 0)
(0.00292755 0.103411 0)
(0.0130988 0.176412 0)
(-0.645126 0.294157 0)
(0.617249 0.220614 0)
(0.0047208 0.298015 0)
(0.113048 0.241482 0)
(0.148334 0.177468 0)
(0.130911 0.123402 0)
(0.117894 0.0777259 0)
(0.115037 0.0387915 0)
(0.117208 0.00330816 0)
(0.123573 -0.030795 0)
(0.131804 -0.0650861 0)
(0.141504 -0.100614 0)
(0.150412 -0.135553 0)
(0.155582 -0.165488 0)
(0.155074 -0.186043 0)
(0.148567 -0.194893 0)
(0.136956 -0.192071 0)
(0.121703 -0.179342 0)
(0.104308 -0.159303 0)
(0.0861417 -0.134883 0)
(0.0683014 -0.108877 0)
(0.051733 -0.083772 0)
(0.0373085 -0.0614318 0)
(0.0257905 -0.0429632 0)
(0.0174971 -0.0284331 0)
(0.0122665 -0.0172554 0)
(0.00948282 -0.00826725 0)
(0.0084454 -0.000471599 0)
(0.00871 0.00667299 0)
(0.00978394 0.0135366 0)
(0.0113872 0.0203908 0)
(0.0133616 0.0274044 0)
(0.0155639 0.0347299 0)
(0.017789 0.0425684 0)
(0.0197151 0.0512781 0)
(0.020398 0.0615513 0)
(0.0190655 0.0754481 0)
(-0.00156732 0.0978721 0)
(-0.00436 0.152074 0)
(0.0711896 0.185549 0)
(-0.545131 0.161265 0)
(0.570782 0.11825 0)
(-0.0203484 0.258517 0)
(0.113687 0.229818 0)
(0.165045 0.17596 0)
(0.166734 0.126062 0)
(0.16442 0.0809757 0)
(0.165424 0.0398625 0)
(0.168356 0.00153456 0)
(0.172309 -0.0354696 0)
(0.177879 -0.0719936 0)
(0.184059 -0.107706 0)
(0.187776 -0.139833 0)
(0.186007 -0.164459 0)
(0.177365 -0.178729 0)
(0.162292 -0.18183 0)
(0.142325 -0.174666 0)
(0.119398 -0.15929 0)
(0.0952568 -0.138162 0)
(0.0714935 -0.114024 0)
(0.0493118 -0.0893657 0)
(0.0298744 -0.0665992 0)
(0.0141666 -0.0474569 0)
(0.00284932 -0.0327436 0)
(-0.00438996 -0.0217466 0)
(-0.00822132 -0.0136507 0)
(-0.00996282 -0.00681173 0)
(-0.0102502 -0.000496586 0)
(-0.00935925 0.00562632 0)
(-0.00772351 0.0117802 0)
(-0.00547511 0.0181205 0)
(-0.00274549 0.0247526 0)
(0.000371002 0.0318756 0)
(0.00374276 0.0397615 0)
(0.00720934 0.0489171 0)
(0.010453 0.0607675 0)
(0.0137878 0.0790684 0)
(0.00411475 0.11137 0)
(-0.00940436 0.172696 0)
(0.169485 0.198053 0)
(-0.440818 0.119352 0)
(0.628436 0.0535953 0)
(0.00894356 0.197249 0)
(0.113702 0.196869 0)
(0.175048 0.157805 0)
(0.191346 0.117535 0)
(0.198049 0.0771217 0)
(0.203412 0.0371425 0)
(0.208625 -0.00161036 0)
(0.213114 -0.039734 0)
(0.217407 -0.0766097 0)
(0.219227 -0.11009 0)
(0.215412 -0.136991 0)
(0.204069 -0.154663 0)
(0.185282 -0.162076 0)
(0.160668 -0.159778 0)
(0.132391 -0.149184 0)
(0.102685 -0.132381 0)
(0.0732533 -0.111485 0)
(0.0458592 -0.0890429 0)
(0.0216209 -0.0672103 0)
(0.00211806 -0.048385 0)
(-0.0117716 -0.0341273 0)
(-0.0200202 -0.0245707 0)
(-0.0247531 -0.0174765 0)
(-0.0271514 -0.0116502 0)
(-0.02805 -0.00631418 0)
(-0.0278171 -0.00111239 0)
(-0.0265633 0.00414587 0)
(-0.024593 0.00960195 0)
(-0.0219483 0.0153681 0)
(-0.0187607 0.0215268 0)
(-0.0151382 0.0282231 0)
(-0.0111424 0.0357257 0)
(-0.00674161 0.0445515 0)
(-0.00214572 0.0566072 0)
(0.00174935 0.0780684 0)
(-0.000719085 0.110434 0)
(-0.0125822 0.15526 0)
(0.199531 0.187642 0)
(-0.372647 0.171401 0)
(0.47266 0.0748552 0)
(-0.13233 0.137485 0)
(0.094152 0.133126 0)
(0.172638 0.116593 0)
(0.203789 0.095123 0)
(0.218125 0.0641908 0)
(0.228138 0.0282302 0)
(0.237197 -0.00905544 0)
(0.243541 -0.0453605 0)
(0.245015 -0.0783242 0)
(0.23902 -0.105278 0)
(0.224201 -0.124122 0)
(0.201079 -0.133949 0)
(0.171576 -0.135179 0)
(0.138277 -0.129056 0)
(0.103478 -0.116859 0)
(0.0694749 -0.100457 0)
(0.0374473 -0.0814856 0)
(0.00974066 -0.0624711 0)
(-0.0131537 -0.0451941 0)
(-0.0276288 -0.0335238 0)
(-0.0366484 -0.0254954 0)
(-0.0418831 -0.0196616 0)
(-0.0448626 -0.0148453 0)
(-0.0463197 -0.0105165 0)
(-0.046641 -0.00632568 0)
(-0.0460038 -0.00207667 0)
(-0.0444186 0.00237399 0)
(-0.0421805 0.00713443 0)
(-0.039273 0.012325 0)
(-0.035887 0.0180572 0)
(-0.0322696 0.0244763 0)
(-0.0287212 0.0318393 0)
(-0.0255534 0.0408811 0)
(-0.0238251 0.0547186 0)
(-0.0262105 0.0783552 0)
(-0.0311006 0.104197 0)
(-0.0277367 0.121916 0)
(0.166586 0.169094 0)
(-0.453159 0.228113 0)
(0.724074 0.134553 0)
(0.0819447 0.115271 0)
(0.149755 0.0990953 0)
(0.222383 0.0802444 0)
(0.244077 0.0696354 0)
(0.248915 0.0474107 0)
(0.255213 0.0173899 0)
(0.261275 -0.0147512 0)
(0.260235 -0.0447075 0)
(0.249681 -0.0695762 0)
(0.229387 -0.0876293 0)
(0.200939 -0.0983459 0)
(0.166728 -0.101983 0)
(0.129328 -0.099515 0)
(0.0912528 -0.0921927 0)
(0.0539664 -0.0806982 0)
(0.0201299 -0.0666724 0)
(-0.0106797 -0.0512317 0)
(-0.0327362 -0.0389717 0)
(-0.0475522 -0.0302486 0)
(-0.056624 -0.0244753 0)
(-0.0622241 -0.0201464 0)
(-0.0656625 -0.0165336 0)
(-0.0676836 -0.0132099 0)
(-0.0685892 -0.0100129 0)
(-0.068511 -0.00680401 0)
(-0.0675065 -0.00343564 0)
(-0.0655394 0.000268769 0)
(-0.0629579 0.00440345 0)
(-0.0597722 0.00911195 0)
(-0.056198 0.0146305 0)
(-0.0527043 0.0212485 0)
(-0.050023 0.029533 0)
(-0.0488366 0.0408827 0)
(-0.0500712 0.0586055 0)
(-0.0585151 0.0856381 0)
(-0.0747341 0.113718 0)
(-0.070527 0.13035 0)
(-0.0385847 0.165986 0)
(-0.53141 0.210521 0)
(0.192244 0.0878885 0)
(0.226021 0.0995426 0)
(0.246759 0.0698343 0)
(0.242801 0.039575 0)
(0.239887 0.0120714 0)
(0.234801 -0.012772 0)
(0.220003 -0.0331832 0)
(0.196206 -0.0483758 0)
(0.165761 -0.0583079 0)
(0.131144 -0.0633963 0)
(0.0941855 -0.0639147 0)
(0.0569166 -0.060599 0)
(0.0213116 -0.0543059 0)
(-0.0132065 -0.0451642 0)
(-0.0398988 -0.036368 0)
(-0.0599 -0.0291203 0)
(-0.0733327 -0.0242969 0)
(-0.0820764 -0.021001 0)
(-0.0878375 -0.0185236 0)
(-0.0918463 -0.016228 0)
(-0.0946455 -0.0139901 0)
(-0.0964529 -0.0117987 0)
(-0.0973361 -0.00963328 0)
(-0.0973059 -0.00740776 0)
(-0.0963391 -0.00497235 0)
(-0.0943855 -0.00211946 0)
(-0.0912934 0.00136456 0)
(-0.0875891 0.00562446 0)
(-0.0831774 0.0109862 0)
(-0.0785049 0.0180063 0)
(-0.0743104 0.0275419 0)
(-0.070923 0.041171 0)
(-0.067668 0.0616546 0)
(-0.0677465 0.0920705 0)
(-0.0764751 0.130258 0)
(-0.0589836 0.161055 0)
(-0.0325442 0.150314 0)
(-0.579202 0.055046 0)
(0.451749 0.209056 0)
(0.207338 0.178407 0)
(0.153437 0.118621 0)
(0.140043 0.0640091 0)
(0.128472 0.0260192 0)
(0.114186 0.00203827 0)
(0.0987798 -0.0126602 0)
(0.077624 -0.021821 0)
(0.0527838 -0.0275594 0)
(0.0254636 -0.0302655 0)
(-0.0045129 -0.0298692 0)
(-0.0334322 -0.0273824 0)
(-0.0588599 -0.0240639 0)
(-0.0798057 -0.0209063 0)
(-0.0950931 -0.018902 0)
(-0.105725 -0.0175265 0)
(-0.113087 -0.016427 0)
(-0.118652 -0.0150158 0)
(-0.1232 -0.0132585 0)
(-0.126995 -0.0113228 0)
(-0.130059 -0.00942919 0)
(-0.132356 -0.00772097 0)
(-0.13385 -0.00625202 0)
(-0.134485 -0.00499919 0)
(-0.134149 -0.00386943 0)
(-0.132643 -0.00267376 0)
(-0.129678 -0.00107955 0)
(-0.124864 0.00138416 0)
(-0.118529 0.00528781 0)
(-0.111096 0.0113798 0)
(-0.102866 0.0207247 0)
(-0.093875 0.0347558 0)
(-0.0823738 0.0552333 0)
(-0.0668589 0.0840881 0)
(-0.0515371 0.123232 0)
(-0.0264204 0.169907 0)
(0.124037 0.1629 0)
(-0.439601 0.0355904 0)
(0.363183 -0.412851 0)
(-0.345274 -0.512292 0)
(-0.218542 -0.028838 0)
(-0.0923229 0.110632 0)
(-0.053242 0.0926555 0)
(-0.0310143 0.0548836 0)
(-0.0262857 0.0288915 0)
(-0.0314207 0.0122522 0)
(-0.0404906 0.00147811 0)
(-0.0511363 -0.00564811 0)
(-0.0648466 -0.0101237 0)
(-0.080335 -0.0126894 0)
(-0.0962888 -0.0145419 0)
(-0.111366 -0.0167392 0)
(-0.124273 -0.0193908 0)
(-0.133978 -0.022191 0)
(-0.140649 -0.024744 0)
(-0.145601 -0.0265101 0)
(-0.150037 -0.0275589 0)
(-0.15452 -0.0280684 0)
(-0.15906 -0.0281889 0)
(-0.16345 -0.0279871 0)
(-0.167449 -0.0274823 0)
(-0.170856 -0.0266698 0)
(-0.173521 -0.0255437 0)
(-0.175316 -0.0241018 0)
(-0.17607 -0.0223278 0)
(-0.175498 -0.0201525 0)
(-0.173175 -0.0173978 0)
(-0.168599 -0.0137037 0)
(-0.1613 -0.00846942 0)
(-0.151061 -0.000843359 0)
(-0.138335 0.010097 0)
(-0.123821 0.0248024 0)
(-0.105581 0.0429833 0)
(-0.0802329 0.0643776 0)
(-0.0470307 0.0892265 0)
(-0.00765525 0.122505 0)
(0.17344 0.131075 0)
(-0.399953 0.0918004 0)
(0.125149 -0.184255 0)
(-0.386977 -0.297067 0)
(-0.342606 -0.0968958 0)
(-0.26441 0.0510506 0)
(-0.210756 0.083401 0)
(-0.178623 0.0746242 0)
(-0.162307 0.0612312 0)
(-0.156264 0.0513021 0)
(-0.156298 0.0461041 0)
(-0.159558 0.0453977 0)
(-0.164132 0.0483213 0)
(-0.168346 0.0535492 0)
(-0.171529 0.0596623 0)
(-0.173545 0.0644427 0)
(-0.175074 0.0656343 0)
(-0.176826 0.0645758 0)
(-0.17938 0.063306 0)
(-0.18273 0.0631987 0)
(-0.186525 0.0641856 0)
(-0.19041 0.0655998 0)
(-0.194124 0.0667916 0)
(-0.197508 0.0673095 0)
(-0.200471 0.0668967 0)
(-0.20296 0.0654579 0)
(-0.20493 0.0629847 0)
(-0.206332 0.0594443 0)
(-0.207084 0.0547077 0)
(-0.207049 0.0486095 0)
(-0.206031 0.0411552 0)
(-0.20378 0.0327585 0)
(-0.199988 0.0243256 0)
(-0.194209 0.017099 0)
(-0.185587 0.0123437 0)
(-0.172179 0.0109974 0)
(-0.153752 0.0124634 0)
(-0.129553 0.0139294 0)
(-0.0932601 0.0128544 0)
(-0.0407183 0.0164333 0)
(0.177159 0.0711648 0)
(-0.417178 0.148267 0)
(1.14641 -0.0109585 0)
(-0.2942 -0.322036 0)
(-0.352417 -0.233011 0)
(-0.351833 -0.148682 0)
(-0.328234 -0.107305 0)
(-0.296523 -0.0985805 0)
(-0.269013 -0.100585 0)
(-0.248786 -0.106047 0)
(-0.234904 -0.113442 0)
(-0.225408 -0.122899 0)
(-0.218646 -0.134954 0)
(-0.213645 -0.149735 0)
(-0.21005 -0.165906 0)
(-0.207985 -0.180225 0)
(-0.207949 -0.188997 0)
(-0.210349 -0.192731 0)
(-0.214594 -0.192897 0)
(-0.219626 -0.191342 0)
(-0.224512 -0.189288 0)
(-0.228756 -0.18721 0)
(-0.232249 -0.185142 0)
(-0.235134 -0.182931 0)
(-0.237681 -0.180358 0)
(-0.2402 -0.177194 0)
(-0.242985 -0.173233 0)
(-0.246318 -0.168312 0)
(-0.250524 -0.1623 0)
(-0.256041 -0.155045 0)
(-0.263371 -0.146277 0)
(-0.272844 -0.135521 0)
(-0.284199 -0.122126 0)
(-0.296201 -0.105455 0)
(-0.30667 -0.0851821 0)
(-0.313036 -0.061632 0)
(-0.31233 -0.0362798 0)
(-0.302398 -0.0119386 0)
(-0.279168 0.0110058 0)
(-0.232604 0.04096 0)
(-0.203812 0.0912267 0)
(-0.574841 0.15677 0)
)
;

boundaryField
{
    floor
    {
        type            noSlip;
    }
    ceiling
    {
        type            noSlip;
    }
    sWall
    {
        type            noSlip;
    }
    nWall
    {
        type            noSlip;
    }
    sideWalls
    {
        type            empty;
    }
    glass1
    {
        type            noSlip;
    }
    glass2
    {
        type            noSlip;
    }
    sun
    {
        type            noSlip;
    }
    Table_master
    {
        type            noSlip;
    }
    Table_slave
    {
        type            noSlip;
    }
    inlet
    {
        type            fixedValue;
        value           uniform (0.5 0 0);
    }
    outlet
    {
        type            zeroGradient;
    }
}


// ************************************************************************* //
