/*--------------------------------*- C++ -*----------------------------------*\
  =========                 |
  \\      /  F ield         | OpenFOAM: The Open Source CFD Toolbox
   \\    /   O peration     | Website:  https://openfoam.org
    \\  /    A nd           | Version:  6
     \\/     M anipulation  |
\*---------------------------------------------------------------------------*/
FoamFile
{
    version     2.0;
    format      ascii;
    class       volScalarField;
    location    "2720";
    object      nut;
}
// * * * * * * * * * * * * * * * * * * * * * * * * * * * * * * * * * * * * * //

dimensions      [0 2 -1 0 0 0 0];

internalField   nonuniform List<scalar> 
458
(
0.0010694
0.00116385
0.00119015
0.00124709
0.00129953
0.00134918
0.00139886
0.00144928
0.00149051
0.0015164
0.00151933
0.00149175
0.00142419
0.00128118
0.00097197
0.000480385
0.000563154
0.000638474
0.000665728
0.000655308
0.000613238
0.00056669
0.00052504
0.000488959
0.000457621
0.000430258
0.000406311
0.000385078
0.000365739
0.000347395
0.000328976
0.000318032
0.00029229
0.00144197
0.00324217
0.00299027
0.00342626
0.00386096
0.00430809
0.0047092
0.00501944
0.00533805
0.00563623
0.00587539
0.00602074
0.00603434
0.00582457
0.00473417
0.00128297
0.0010644
0.000868435
0.00047652
0.00113084
0.00164828
0.00204889
0.00217554
0.00158549
0.00133847
0.00117037
0.00104633
0.000951289
0.000875905
0.000810898
0.000749778
0.000688773
0.000634283
0.000588569
0.000719992
0.000384244
0.00175321
0.00435764
0.00359596
0.00438457
0.00471606
0.00494881
0.00512777
0.00529283
0.00552249
0.00580154
0.00610642
0.00640534
0.00664158
0.00672468
0.00633672
0.00516458
0.00391419
0.00102567
0.000733993
0.00126657
0.0018431
0.0024167
0.00258057
0.00082421
0.000721588
0.000636194
0.000567031
0.000511218
0.000465988
0.000429221
0.000399489
0.000376363
0.000417094
0.00048304
0.000844731
0.00045409
0.00205319
0.00556653
0.00349819
0.00454286
0.00472453
0.00470676
0.00469026
0.00476955
0.00495622
0.00523208
0.00558273
0.005974
0.00631707
0.00653317
0.00648477
0.00614962
0.00527799
0.00289762
0.00118163
0.0015049
0.00206905
0.00275991
0.00335868
0.00338833
0.000928442
0.000851062
0.000798355
0.000759453
0.000726555
0.000693877
0.000662829
0.000630022
0.000591671
0.000557318
0.00054916
0.00100685
0.000522992
0.00235968
0.00719301
0.00366947
0.0043126
0.00457232
0.00441814
0.00429268
0.00436476
0.00456181
0.00484881
0.00522679
0.00565577
0.00599206
0.00615979
0.0061561
0.00603897
0.0056911
0.00470605
0.00426545
0.00429663
0.00454739
0.00484609
0.00502939
0.00494709
0.0042211
0.00384771
0.00364181
0.00349435
0.00334508
0.00315276
0.00282603
0.0024052
0.00192648
0.0014654
0.00109903
0.0010238
0.000888814
0.000699209
0.000740174
0.000804525
0.00268783
0.00902586
0.00502597
0.003993
0.00435231
0.00434397
0.00418407
0.00424395
0.00444497
0.00473203
0.00511534
0.00552675
0.0058379
0.00593769
0.00584395
0.00570964
0.00564933
0.00556844
0.00573634
0.00602743
0.00623177
0.00626841
0.00613144
0.0058444
0.00544346
0.00511757
0.00486366
0.00463996
0.00442042
0.00418735
0.00388609
0.00347327
0.00295102
0.00236035
0.00181364
0.00131491
0.00108078
0.000942861
0.00118734
0.000834447
0.00301094
0.0104109
0.00750075
0.00490832
0.00427133
0.00433318
0.00438914
0.00442089
0.00453418
0.00478696
0.0051642
0.00557207
0.00585765
0.00589003
0.00571167
0.00558297
0.00579802
0.00627374
0.00675798
0.00703139
0.0070327
0.00679895
0.0064026
0.00591977
0.00543917
0.00505226
0.00475926
0.00452169
0.0043139
0.00412724
0.00395733
0.0037353
0.00337002
0.00288237
0.00237573
0.00188894
0.00157133
0.00143952
0.00137215
0.000991352
0.00309063
0.00966332
0.00820301
0.00688316
0.00587485
0.00542877
0.0050104
0.00472522
0.00471875
0.00495951
0.00534983
0.00575318
0.00599404
0.00594026
0.005722
0.00577834
0.00639191
0.00689522
0.00715731
0.00714554
0.00686177
0.00637071
0.00576592
0.00515637
0.00464999
0.00429513
0.00405579
0.00388387
0.00375663
0.00367084
0.00363271
0.0036342
0.00353671
0.00324682
0.0029641
0.0028065
0.00287504
0.00303506
0.00360534
0.00153578
0.0030299
0.00365339
0.0040343
0.00424626
0.0042757
0.00421072
0.00421084
0.00438501
0.00474079
0.00519555
0.00566251
0.00603179
0.00615212
0.00594283
0.00588505
0.00619711
0.00655724
0.00668078
0.00659171
0.00627981
0.00575705
0.00511107
0.00446655
0.00393761
0.00357182
0.00333884
0.00318253
0.00306375
0.00296245
0.00286732
0.00276965
0.00266244
0.00256526
0.00248124
0.00242562
0.00239433
0.00233475
0.00221199
0.00206277
0.00143461
0.00133536
0.00234702
0.00322214
0.00390666
0.00453169
0.00514087
0.00562528
0.00595198
0.00616678
0.00620092
0.00600193
0.00575711
0.00575925
0.00586275
0.00578415
0.00555142
0.00518431
0.00468994
0.00412098
0.00356537
0.00312312
0.00282531
0.00264275
0.00253071
0.00245629
0.00240208
0.00236047
0.00232975
0.00231248
0.00231791
0.00233146
0.00234358
0.00234431
0.00230732
0.00219309
0.00199169
0.00174211
0.00115434
0.00201498
0.00395721
0.00507491
0.00580018
0.00636514
0.00641543
0.00608722
0.00575695
0.00547359
0.00492873
0.00454051
0.00445042
0.00438913
0.00421745
0.00395863
0.00363778
0.00326148
0.00286567
0.00250887
0.00223124
0.00203995
0.00192969
0.00187806
0.00186695
0.00188529
0.00192593
0.00198272
0.00204842
0.0021253
0.00221366
0.00230817
0.00240102
0.00247656
0.00251442
0.00247938
0.00244883
0.00225462
0.00116932
0.00211916
0.00217152
0.00221907
0.00246888
0.00233372
0.0020682
0.0017448
0.00148453
0.00132511
0.00117365
0.00104026
0.000935798
0.000847341
0.000780275
0.000733657
0.000699591
0.000672195
0.00064862
0.000629154
0.000616021
0.000611124
0.000614814
0.00062573
0.000641776
0.000662051
0.000686078
0.000713713
0.000745132
0.000780856
0.000821998
0.000868798
0.000920921
0.000978635
0.00104221
0.00111168
0.00119494
0.00123138
0.00120617
0.00112191
0.00103762
)
;

boundaryField
{
    floor
    {
        type            nutkWallFunction;
        Cmu             0.09;
        kappa           0.41;
        E               9.8;
        value           nonuniform List<scalar> 
36
(
0.000117415
5.72032e-05
6.77271e-05
7.71389e-05
8.05105e-05
7.92234e-05
7.40012e-05
6.81721e-05
6.29065e-05
5.83032e-05
5.42707e-05
5.07212e-05
4.75915e-05
4.47967e-05
4.22341e-05
3.97871e-05
3.73132e-05
3.58347e-05
3.233e-05
3.23299e-05
4.46858e-05
5.38133e-05
6.26455e-05
8.46295e-05
8.96381e-05
9.74411e-05
0.000117415
0.00015352
0.000128266
0.000105117
5.72032e-05
0.000105117
5.67064e-05
0.000123734
8.88851e-05
0.000141878
)
;
    }
    ceiling
    {
        type            nutkWallFunction;
        Cmu             0.09;
        kappa           0.41;
        E               9.8;
        value           nonuniform List<scalar> 
43
(
0.00024619
0.000251844
0.000256969
0.000283773
0.000269378
0.00024078
0.000205387
0.000176377
0.000158332
0.000140959
0.000125446
0.000113138
0.000102591
9.45097e-05
8.88438e-05
8.46766e-05
8.13076e-05
7.83954e-05
7.59813e-05
7.43474e-05
7.37371e-05
7.4197e-05
7.55557e-05
7.75476e-05
8.00561e-05
8.30168e-05
8.64069e-05
9.02423e-05
9.458e-05
9.95467e-05
0.000105161
0.000111373
0.000118204
0.000125676
0.00013378
0.000143419
0.000147615
0.000144714
0.000134969
0.000125139
0.000343193
0.000407608
0.000234818
)
;
    }
    sWall
    {
        type            nutkWallFunction;
        Cmu             0.09;
        kappa           0.41;
        E               9.8;
        value           uniform 0.000246257;
    }
    nWall
    {
        type            nutkWallFunction;
        Cmu             0.09;
        kappa           0.41;
        E               9.8;
        value           nonuniform List<scalar> 6(9.74417e-05 0.000101045 0.000119707 0.000138739 0.000140473 0.000125146);
    }
    sideWalls
    {
        type            empty;
    }
    glass1
    {
        type            nutkWallFunction;
        Cmu             0.09;
        kappa           0.41;
        E               9.8;
        value           nonuniform List<scalar> 9(0.000128958 0.000171809 0.000206643 0.000239576 0.000272694 0.000307648 0.000341633 0.000349964 0.000343641);
    }
    glass2
    {
        type            nutkWallFunction;
        Cmu             0.09;
        kappa           0.41;
        E               9.8;
        value           nonuniform List<scalar> 2(0.000182232 0.00017084);
    }
    sun
    {
        type            nutkWallFunction;
        Cmu             0.09;
        kappa           0.41;
        E               9.8;
        value           nonuniform List<scalar> 
14
(
0.000128854
0.000139823
0.00014286
0.000149409
0.000155412
0.00016107
0.000166708
0.000172409
0.000177052
0.000179962
0.00018029
0.000177191
0.000169574
0.000153315
)
;
    }
    Table_master
    {
        type            nutkWallFunction;
        Cmu             0.09;
        kappa           0.41;
        E               9.8;
        value           nonuniform List<scalar> 9(9.98119e-05 8.73713e-05 7.68586e-05 6.82194e-05 6.1154e-05 5.53583e-05 5.05954e-05 4.67064e-05 4.3656e-05);
    }
    Table_slave
    {
        type            nutkWallFunction;
        Cmu             0.09;
        kappa           0.41;
        E               9.8;
        value           nonuniform List<scalar> 9(0.000112263 0.000103036 9.66958e-05 9.19844e-05 8.79778e-05 8.39767e-05 8.01542e-05 7.60916e-05 7.13101e-05);
    }
    inlet
    {
        type            calculated;
        value           uniform 0.000167705;
    }
    outlet
    {
        type            calculated;
        value           nonuniform List<scalar> 2(0.00211916 0.00217152);
    }
}


// ************************************************************************* //
