/*--------------------------------*- C++ -*----------------------------------*\
  =========                 |
  \\      /  F ield         | OpenFOAM: The Open Source CFD Toolbox
   \\    /   O peration     | Website:  https://openfoam.org
    \\  /    A nd           | Version:  6
     \\/     M anipulation  |
\*---------------------------------------------------------------------------*/
FoamFile
{
    version     2.0;
    format      ascii;
    class       volScalarField;
    location    "4470";
    object      nut;
}
// * * * * * * * * * * * * * * * * * * * * * * * * * * * * * * * * * * * * * //

dimensions      [0 2 -1 0 0 0 0];

internalField   nonuniform List<scalar> 
458
(
0.0010694
0.00116385
0.00119015
0.00124709
0.00129953
0.00134919
0.00139889
0.00144931
0.00149053
0.00151643
0.00151935
0.00149179
0.00142425
0.00128125
0.00097197
0.000480394
0.000563169
0.000638494
0.000665747
0.000655327
0.000613255
0.000566705
0.000525054
0.000488968
0.00045763
0.000430268
0.000406311
0.000385078
0.000365739
0.000347395
0.000328976
0.000318032
0.00029229
0.001442
0.00324246
0.00299046
0.00342649
0.00386123
0.0043084
0.00470931
0.00501953
0.00533817
0.00563633
0.00587546
0.00602089
0.00603459
0.00582473
0.00473473
0.00128297
0.0010644
0.000868435
0.00047652
0.00113087
0.00164829
0.00204896
0.00217558
0.00158548
0.0013385
0.00117036
0.00104633
0.000951284
0.000875933
0.000810968
0.000749858
0.000688861
0.000634377
0.00058858
0.000720001
0.000384255
0.00175321
0.00435747
0.00359599
0.00438461
0.00471625
0.00494897
0.00512785
0.00529302
0.00552251
0.00580158
0.00610653
0.00640541
0.00664155
0.00672484
0.0063368
0.00516485
0.00391438
0.00102563
0.000734004
0.00126657
0.00184323
0.00241706
0.00258099
0.00082421
0.000721588
0.000636187
0.000567023
0.00051121
0.000465978
0.000429211
0.000399479
0.000376352
0.000417087
0.00048304
0.000844718
0.00045409
0.00205327
0.0055667
0.00349818
0.00454302
0.00472468
0.00470692
0.0046904
0.00476978
0.00495624
0.00523214
0.00558272
0.00597397
0.00631696
0.00653319
0.00648473
0.00614982
0.00527795
0.00289773
0.00118159
0.00150485
0.00206904
0.00276003
0.00335864
0.00338827
0.000928396
0.000851012
0.000798301
0.000759397
0.000726496
0.000693847
0.000662804
0.000630001
0.000591657
0.000557353
0.00054916
0.00100685
0.000522984
0.00235968
0.00719301
0.00366947
0.00431275
0.00457253
0.00441847
0.00429293
0.00436503
0.00456181
0.00484907
0.00522711
0.00565611
0.00599224
0.00615991
0.00615627
0.00603944
0.00569139
0.00470631
0.00426545
0.00429692
0.00454776
0.00484656
0.00502997
0.00494778
0.00422174
0.00384834
0.00364213
0.00349461
0.00334528
0.00315283
0.00282603
0.0024052
0.0019265
0.00146546
0.00109908
0.00102379
0.000888767
0.000699215
0.000740174
0.000804525
0.00268783
0.00902586
0.0050261
0.00399311
0.00435248
0.00434413
0.00418433
0.0042442
0.00444527
0.0047323
0.00511559
0.00552707
0.00583835
0.00593775
0.00584399
0.00571
0.00564956
0.00556874
0.00573669
0.00602783
0.00623222
0.00626873
0.00613148
0.00584451
0.0054436
0.00511771
0.00486345
0.00463966
0.00442036
0.00418766
0.00388634
0.00347343
0.00295119
0.00236043
0.00181365
0.00131491
0.00108078
0.000942861
0.00118734
0.000834447
0.00301107
0.0104104
0.00750081
0.00490765
0.00427111
0.00433303
0.00438927
0.00442081
0.00453407
0.00478692
0.00516419
0.00557212
0.00585779
0.00589002
0.00571167
0.00558304
0.00579812
0.00627367
0.00675824
0.00703197
0.00703334
0.00679968
0.00640269
0.0059199
0.0054393
0.00505235
0.00475932
0.00452171
0.00431388
0.00412721
0.00395729
0.00373505
0.00336972
0.00288239
0.00237593
0.00188909
0.00157134
0.00143955
0.00137216
0.000991352
0.00309071
0.00966355
0.00820327
0.0068832
0.00587502
0.00542899
0.00501065
0.00472542
0.0047189
0.0049597
0.00535009
0.00575354
0.00599451
0.00594038
0.0057222
0.00577855
0.00639247
0.00689589
0.00715799
0.00714622
0.00686249
0.00637147
0.00576611
0.00515637
0.00464999
0.00429513
0.00405579
0.00388382
0.00375673
0.00367095
0.00363284
0.0036342
0.00353671
0.00324679
0.00296416
0.00280665
0.00287512
0.00303521
0.00360528
0.00153578
0.0030299
0.0036534
0.0040343
0.00424626
0.0042757
0.00421072
0.00421091
0.0043852
0.00474104
0.00519586
0.00566291
0.0060323
0.00615282
0.00594298
0.00588502
0.00619705
0.00655729
0.00668107
0.00659212
0.0062799
0.00575725
0.00511091
0.00446655
0.0039376
0.00357182
0.00333884
0.00318253
0.00306375
0.00296245
0.00286725
0.00276959
0.00266235
0.00256516
0.00248131
0.00242569
0.00239427
0.00233475
0.00221198
0.00206266
0.00143461
0.00133523
0.00234712
0.00322224
0.00390681
0.00453201
0.00514127
0.00562579
0.00595249
0.00616705
0.00620146
0.00600171
0.00575695
0.00575887
0.00586274
0.00578415
0.00555142
0.00518431
0.00468994
0.00412076
0.0035651
0.00312286
0.0028251
0.00264257
0.00253071
0.00245629
0.00240208
0.00236047
0.00232975
0.00231248
0.00231791
0.00233146
0.00234359
0.00234432
0.00230725
0.00219301
0.00199165
0.0017421
0.00115432
0.00201499
0.00395737
0.0050748
0.00580009
0.00636503
0.00641514
0.00608745
0.00575738
0.00547368
0.0049287
0.00454036
0.00444996
0.00438855
0.00421687
0.00395802
0.00363717
0.0032607
0.00286494
0.00250825
0.00223081
0.00203964
0.00192945
0.00187788
0.00186684
0.00188529
0.00192593
0.00198272
0.00204841
0.00212513
0.00221351
0.00230802
0.00240089
0.00247649
0.00251435
0.00247936
0.0024488
0.00225455
0.00116928
0.00211913
0.00217149
0.00221907
0.00246888
0.00233372
0.00206827
0.00174489
0.00148453
0.00132511
0.00117365
0.00104026
0.000935843
0.000847391
0.00078033
0.000733677
0.000699622
0.000672227
0.000648652
0.000629188
0.000616056
0.000611159
0.000614842
0.000625757
0.000641803
0.000662077
0.000686103
0.00071372
0.000745156
0.000780895
0.00082205
0.000868847
0.000920967
0.000978678
0.00104225
0.00111172
0.00119497
0.00123142
0.00120621
0.00112193
0.00103762
)
;

boundaryField
{
    floor
    {
        type            nutkWallFunction;
        Cmu             0.09;
        kappa           0.41;
        E               9.8;
        value           nonuniform List<scalar> 
36
(
0.000117415
5.72044e-05
6.7729e-05
7.71414e-05
8.05129e-05
7.92258e-05
7.40034e-05
6.8174e-05
6.29082e-05
5.83043e-05
5.42719e-05
5.07225e-05
4.75915e-05
4.47967e-05
4.22341e-05
3.97871e-05
3.73132e-05
3.58347e-05
3.233e-05
3.23299e-05
4.46873e-05
5.38133e-05
6.26444e-05
8.46302e-05
8.96381e-05
9.74411e-05
0.000117415
0.00015352
0.000128266
0.000105117
5.72043e-05
0.000105117
5.67064e-05
0.000123729
8.88863e-05
0.000141874
)
;
    }
    ceiling
    {
        type            nutkWallFunction;
        Cmu             0.09;
        kappa           0.41;
        E               9.8;
        value           nonuniform List<scalar> 
43
(
0.000246187
0.000251841
0.000256969
0.000283773
0.000269378
0.000240788
0.000205397
0.000176377
0.000158332
0.000140959
0.000125446
0.000113144
0.000102598
9.45163e-05
8.88463e-05
8.46803e-05
8.13116e-05
7.83995e-05
7.59855e-05
7.43517e-05
7.37414e-05
7.42005e-05
7.55591e-05
7.7551e-05
8.00593e-05
8.30199e-05
8.64077e-05
9.02452e-05
9.45847e-05
9.9553e-05
0.000105167
0.000111379
0.000118209
0.00012568
0.000133785
0.000143423
0.000147618
0.000144718
0.000134972
0.000125139
0.000343193
0.000407609
0.000234819
)
;
    }
    sWall
    {
        type            nutkWallFunction;
        Cmu             0.09;
        kappa           0.41;
        E               9.8;
        value           uniform 0.000246254;
    }
    nWall
    {
        type            nutkWallFunction;
        Cmu             0.09;
        kappa           0.41;
        E               9.8;
        value           nonuniform List<scalar> 6(9.74417e-05 0.000101045 0.000119707 0.000138738 0.000140469 0.000125146);
    }
    sideWalls
    {
        type            empty;
    }
    glass1
    {
        type            nutkWallFunction;
        Cmu             0.09;
        kappa           0.41;
        E               9.8;
        value           nonuniform List<scalar> 9(0.000128958 0.000171812 0.000206643 0.000239585 0.000272694 0.000307648 0.000341646 0.000349973 0.000343641);
    }
    glass2
    {
        type            nutkWallFunction;
        Cmu             0.09;
        kappa           0.41;
        E               9.8;
        value           nonuniform List<scalar> 2(0.000182232 0.000170839);
    }
    sun
    {
        type            nutkWallFunction;
        Cmu             0.09;
        kappa           0.41;
        E               9.8;
        value           nonuniform List<scalar> 
14
(
0.000128854
0.000139823
0.00014286
0.000149409
0.000155412
0.000161071
0.000166712
0.000172412
0.000177055
0.000179965
0.000180293
0.000177196
0.00016958
0.000153322
)
;
    }
    Table_master
    {
        type            nutkWallFunction;
        Cmu             0.09;
        kappa           0.41;
        E               9.8;
        value           nonuniform List<scalar> 9(9.98119e-05 8.73713e-05 7.68578e-05 6.82185e-05 6.11529e-05 5.53572e-05 5.05941e-05 4.6705e-05 4.36545e-05);
    }
    Table_slave
    {
        type            nutkWallFunction;
        Cmu             0.09;
        kappa           0.41;
        E               9.8;
        value           nonuniform List<scalar> 9(0.000112258 0.00010303 9.66893e-05 9.19776e-05 8.79707e-05 8.3973e-05 8.0151e-05 7.60891e-05 7.13083e-05);
    }
    inlet
    {
        type            calculated;
        value           uniform 0.000167705;
    }
    outlet
    {
        type            calculated;
        value           nonuniform List<scalar> 2(0.00211913 0.00217149);
    }
}


// ************************************************************************* //
