/*--------------------------------*- C++ -*----------------------------------*=========                 |
  \      /  F ield         | OpenFOAM: The Open Source CFD Toolbox
   \    /   O peration     | Website:  https://openfoam.org
    \  /    A nd           | Version:  6
     \/     M anipulation  |
\*---------------------------------------------------------------------------*/
FoamFile
{
    version     2.0;
    format      ascii;
    class       volScalarField;
    location    "60";
    object      PPD;
}
// * * * * * * * * * * * * * * * * * * * * * * * * * * * * * * * * * * * * * //

dimensions      [0 0 0 0 0 0 0];

internalField   nonuniform List<scalar> 
458
(
39.698809455337525
27.634350500216797
25.231234351964417
23.827958288908334
23.306589839097143
23.6447724641194
25.013655175715982
27.773260263716878
32.20385338500313
33.12370572862659
32.076132651473586
31.702418681446886
32.2654250988614
34.22923764497058
35.68098643841681
88.07811256881821
83.01617636544026
79.69008213254813
76.8425015261679
75.09649975543238
74.90732045206066
75.63498498892052
77.28047995895272
79.70644858201248
82.63253598219728
85.79698051159971
89.01638233249928
92.02399159242378
94.53628775788908
96.39382751390147
97.61867928474862
98.32741349294784
98.63930262545796
36.36994157217213
28.759575669926335
27.293478264243888
25.826023770279875
25.12715264828475
24.966496974471696
24.803882878002796
25.08788644965395
27.64815447740878
31.23697188240247
33.14932899074557
33.977962188815454
34.32953648324224
34.4429842383896
33.87191516819897
34.47674273154905
38.10694053571859
43.44490173290835
90.68992332727245
87.06578338216805
75.36622781486719
70.72034001710806
69.44112020288355
70.30358439221108
71.98833189142901
74.86322391752746
78.96378852721826
83.42869075092342
87.64050268312064
91.41193656734622
94.23818547389229
96.10732682766951
97.2687564049984
98.00204313049693
98.44319073034652
98.64558673919743
36.770520840027224
29.199519907892252
29.951484268042137
29.44479830581949
28.86140908041186
27.35940029526091
23.906169331507144
21.7011619861661
23.942856743909743
28.84648256043951
33.524277093018256
36.555705136527585
37.72364209633401
37.5488531592856
36.76806098473473
37.280273316142505
39.009868795732736
40.51312713661601
91.87358256023597
75.9167718674984
66.9604960860471
64.38346509716231
65.10050239721663
66.58044690515301
70.31251058001351
76.36534970191803
84.60639827424271
91.63130718247902
95.12908172946845
96.61379258921002
97.3726046491787
97.79108486816097
98.02390252751036
98.29164730509247
98.5219982278353
98.64672987039957
39.57749280675262
29.884596344074907
32.66240051373126
34.64493302877244
35.18378541471493
30.298593982752365
22.64365459436368
19.14638670154318
21.505771505112193
27.58322208293582
34.620330184997314
40.02139533355678
42.57537061191956
42.569662370821455
41.29369080842596
40.35575147370076
39.49619773075219
38.53740925378059
38.99557462880759
46.849380998955574
50.10493977115885
54.145868671477146
59.592977074710284
65.54555084065424
71.07190199712349
72.72976677218969
73.90765460259993
75.27061899641899
76.72875497904614
78.54323042876258
81.00782521343044
84.57751070292726
89.63188738403102
95.81704907595592
97.86681359470838
98.47129471544572
98.63327845894388
43.787329458813666
31.27706301057637
35.28840615287231
40.746001123187646
43.9082877415166
31.47425340022869
20.935704033180684
17.336374149184778
20.018241292094373
27.636352305831892
37.26154269831516
45.2389923430929
49.42232215538448
49.66796419904377
47.66095543898277
45.47195409818981
43.58484019178093
42.36752353344471
43.44011723242919
46.091898472167074
50.66552383177564
57.17632768287883
64.6353879884388
71.68007564004411
77.14472229098683
80.01184978761039
81.96510913854937
83.84379755091388
85.97503073120872
88.24328987533309
90.72491257992118
93.28431296279885
95.5638458872368
97.26385374061796
98.17876599179009
98.53636342810796
98.63975081605382
98.70883014028706
98.80167323117588
98.8388334161407
48.668018812263135
33.705992904973655
38.9134767093335
46.54647157836409
43.5707789557661
29.585602519833614
18.981860527533684
15.635994999724304
19.34760614890837
29.413576229582247
42.35179804784523
53.012149262018994
58.992644579824265
59.49463852836124
56.40835552200236
53.333559661795725
51.080783843737734
50.03307908506932
51.58265284079967
55.51548141783795
61.58819436073479
68.77736420495503
75.77207609160415
81.58242243392183
85.78642764567829
88.33501829342819
90.19239261857314
91.91328784257954
93.44124948405602
94.8519526035233
96.14811476265865
97.14219802570896
97.8437261530131
98.24103908953987
98.50940246573592
98.63993103036225
98.67969999383499
98.72742545132874
98.76219097492404
98.82348849534503
54.1313669963083
38.83616781847817
47.813056949734
48.6518610802321
39.50260387635568
25.347658381063823
15.443329522915718
13.715237251414052
19.82339018059149
34.03506534513967
51.16546644164266
64.08500088756381
67.91368989574698
67.39605772050564
65.50233936385342
63.74031995849304
62.05044584744583
62.215064373265
65.28872047560603
70.44409163946551
76.4454068750776
82.31899219088045
87.15267027199798
90.73108294766863
92.7351132879445
94.21412256742441
95.22094959195316
96.00975339899917
96.68626346897263
97.3337609726654
97.87257066296023
98.2594730021789
98.5052131579491
98.61636836777768
98.68319533570632
98.71995147696789
98.72951773790626
98.76511908613303
98.78255065079712
98.81942747954365
61.44071293479967
56.34547715500939
54.911368510055524
48.396700757542845
33.60965346405192
17.42014795940817
10.545737295462047
12.062989507311869
23.048025889554054
44.308826345802785
65.06882849871624
74.28028977884242
75.5341119208606
74.75368042569998
73.59752611450965
73.02287396690227
73.62040585557232
76.04100166048192
80.17495301753118
84.69355904265947
88.58420334278705
91.80447611389174
93.97671534991147
95.18111272413653
96.07131812386368
96.69248037406038
97.17361911525337
97.59948855271297
97.9707423956977
98.2724248630688
98.49571868457178
98.64089444930602
98.72510614203814
98.75696921277407
98.77136393815199
98.78201406347546
98.79985931755658
98.84761409645097
98.85658089908601
98.88353219960467
71.96332974466279
67.02033347167152
60.64676702637396
44.74545485129329
16.18353535585554
6.414247368217573
6.051944069462891
12.757695583715218
35.257474952632265
65.23807321054456
77.66880681513646
80.2062357679539
80.60574911433639
80.44082739893187
80.64274797411693
81.62897493971059
83.61475381150494
86.51097241345316
89.69333567105267
92.37246856736809
94.28593063694152
95.66282906757806
96.6053848866127
97.22601947017284
97.6240412141684
97.91835433734572
98.15862562202618
98.35947191921932
98.52289217202356
98.64501864563924
98.73213876855584
98.7887655524627
98.81510038350692
98.82681813997063
98.8326386974271
98.84888595607033
98.87993542500176
98.9171000988794
98.93536016270761
98.96422921280428
97.82045476308885
94.99523024762252
74.20566025453101
23.232867793021256
5.387093478557091
33.68870327528819
70.1096613885241
81.05002362809591
85.03768901795173
86.40606198900673
87.03264140788264
87.63646280288306
88.49778632856199
89.75638342273689
91.36492933106989
93.13671447785586
94.78124507993296
96.0555546043889
96.93558388177648
97.51728115112635
97.8967170841783
98.15069368980085
98.32885480079428
98.46215466689465
98.57381868914624
98.66317409521686
98.73282852968102
98.7848672870052
98.82087127690201
98.84475020197202
98.85714382104047
98.8666539528237
98.87329830986438
98.88756431133437
98.90653464715187
98.93130494568022
98.9506427699794
98.93086028572888
92.23226252668591
19.676316244512492
9.48875391534122
34.03494211100154
59.11498579319238
77.37636119645177
86.37453834329015
89.66371520542457
91.09601706790508
91.94222980517667
92.63066184488372
93.32642997424314
94.09131442606508
94.92182607304598
95.76696101803088
96.56069388130521
97.22012174732025
97.71044427515717
98.04278748515506
98.26897276947693
98.41930986281797
98.52461336989953
98.60445320329113
98.67125406063042
98.72306222061295
98.76416193032989
98.79828535406172
98.82591216716483
98.84750076770443
98.86075107091051
98.87452668177299
98.88388361825092
98.89755128009377
98.91361995468472
98.93599046098578
98.9642500245222
98.92457563497648
98.9070844908743
6.153679812406779
6.402491352886898
5.632304551852414
30.841067011256243
70.34004842965177
85.38589529396549
90.42883612214762
92.87660859624971
94.23486512430844
95.05926255238371
95.63020409709694
96.07721722544339
96.46557793913877
96.82352797099296
97.15297743744065
97.46088740910933
97.74688212147576
97.99224227524304
98.18956170750961
98.33473537292375
98.44003014542857
98.51451410207528
98.56859755742269
98.61087358297866
98.6454588638411
98.67604788790518
98.69950245792124
98.72257797604975
98.74527696636984
98.76134107129249
98.77728013890999
98.79316418923935
98.8059950516781
98.81582833247516
98.82852371567176
98.83464597049337
98.83663919311948
98.8224586101025
98.76103770709865
98.73607505049631
)
;

boundaryField
{
    ".*"
    {
        type            zeroGradient;
    }
}


// ************************************************************************* //
