/*--------------------------------*- C++ -*----------------------------------*\
  =========                 |
  \\      /  F ield         | OpenFOAM: The Open Source CFD Toolbox
   \\    /   O peration     | Website:  https://openfoam.org
    \\  /    A nd           | Version:  6
     \\/     M anipulation  |
\*---------------------------------------------------------------------------*/
FoamFile
{
    version     2.0;
    format      ascii;
    class       volScalarField;
    location    "60";
    object      T;
}
// * * * * * * * * * * * * * * * * * * * * * * * * * * * * * * * * * * * * * //

dimensions      [0 0 0 1 0 0 0];

internalField   nonuniform List<scalar> 
458
(
302.634
302.363
302.324
302.299
302.277
302.254
302.232
302.223
302.269
302.365
302.432
302.483
302.524
302.565
302.619
304.646
304.357
304.154
304.019
304.005
304.048
304.119
304.213
304.335
304.482
304.65
304.84
305.05
305.271
305.488
305.684
305.837
305.923
302.789
302.398
302.344
302.313
302.283
302.244
302.185
302.15
302.219
302.349
302.457
302.533
302.579
302.611
302.639
302.673
302.723
302.808
304.842
304.522
304.011
303.875
303.859
303.892
303.96
304.079
304.261
304.48
304.715
304.97
305.218
305.437
305.617
305.763
305.872
305.933
302.965
302.461
302.401
302.382
302.356
302.294
302.168
302.088
302.178
302.351
302.51
302.622
302.681
302.705
302.716
302.735
302.764
302.819
304.877
304.078
303.781
303.713
303.759
303.804
303.888
304.077
304.442
304.899
305.253
305.47
305.613
305.709
305.768
305.836
305.9
305.94
303.154
302.546
302.485
302.495
302.492
302.388
302.161
302.034
302.14
302.368
302.594
302.751
302.829
302.848
302.841
302.835
302.835
302.849
302.891
303.115
303.226
303.374
303.558
303.747
303.902
303.992
304.062
304.126
304.189
304.266
304.373
304.54
304.82
305.384
305.735
305.889
305.941
303.35
302.652
302.584
302.626
302.66
302.471
302.136
301.985
302.111
302.409
302.716
302.93
303.029
303.042
303.014
302.98
302.955
302.949
302.989
303.086
303.251
303.473
303.72
303.954
304.144
304.271
304.369
304.463
304.573
304.702
304.865
305.073
305.32
305.601
305.808
305.909
305.944
305.957
305.978
306.012
303.54
302.784
302.706
302.763
302.775
302.476
302.083
301.918
302.097
302.493
302.896
303.168
303.286
303.289
303.233
303.176
303.139
303.137
303.207
303.357
303.575
303.832
304.093
304.327
304.514
304.65
304.768
304.892
305.024
305.18
305.359
305.541
305.7
305.812
305.895
305.938
305.953
305.962
305.972
305.987
303.733
302.974
302.906
302.967
302.837
302.385
301.926
301.81
302.114
302.652
303.162
303.48
303.591
303.57
303.494
303.435
303.415
303.457
303.592
303.804
304.056
304.322
304.57
304.782
304.955
305.106
305.226
305.339
305.46
305.587
305.708
305.809
305.883
305.921
305.946
305.96
305.964
305.972
305.98
305.991
303.975
303.421
303.32
303.254
302.782
302.077
301.605
301.674
302.221
302.954
303.556
303.86
303.916
303.881
303.83
303.805
303.831
303.939
304.136
304.378
304.623
304.871
305.08
305.249
305.388
305.492
305.579
305.664
305.747
305.823
305.886
305.931
305.959
305.97
305.975
305.978
305.982
305.994
306.004
306.03
304.329
304.049
303.828
303.304
302.101
301.191
301.033
301.623
302.594
303.537
304.071
304.239
304.275
304.267
304.269
304.305
304.393
304.545
304.752
304.974
305.173
305.349
305.493
305.603
305.682
305.746
305.803
305.855
305.901
305.938
305.966
305.985
305.994
305.998
306
306.006
306.018
306.034
306.044
306.06
295.093
295.566
296.793
298.605
300.476
302.293
303.747
304.327
304.562
304.647
304.685
304.72
304.771
304.851
304.965
305.111
305.275
305.432
305.565
305.67
305.749
305.808
305.853
305.889
305.921
305.948
305.97
305.987
305.999
306.007
306.011
306.014
306.016
306.021
306.028
306.037
306.042
306.04
295.817
298.075
300.779
302.353
303.457
304.225
304.682
304.887
304.988
305.052
305.107
305.166
305.236
305.32
305.417
305.523
305.627
305.718
305.789
305.843
305.882
305.911
305.934
305.954
305.97
305.983
305.994
306.003
306.01
306.014
306.018
306.02
306.023
306.026
306.03
306.034
306.034
306.031
300.437
300.402
300.4
302.719
304.056
304.689
304.984
305.165
305.284
305.366
305.429
305.483
305.534
305.585
305.636
305.688
305.741
305.791
305.835
305.87
305.897
305.917
305.932
305.944
305.954
305.963
305.97
305.977
305.984
305.989
305.994
305.999
306.003
306.006
306.01
306.012
306.013
306.009
305.992
305.988
)
;

boundaryField
{
    floor
    {
        type            wallHeatTransfer;
        Tinf            uniform 305.2;
        alphaWall       uniform 0.24;
        value           nonuniform List<scalar> 
36
(
302.839
304.727
304.466
304.274
304.142
304.125
304.169
304.238
304.328
304.441
304.574
304.724
304.892
305.074
305.261
305.441
305.596
305.704
305.749
305.749
305.768
305.778
305.783
305.808
305.841
305.883
302.839
302.87
302.932
303.037
304.727
303.037
304.897
303.029
304.926
303.088
)
;
    }
    ceiling
    {
        type            wallHeatTransfer;
        Tinf            uniform 303.2;
        alphaWall       uniform 0.24;
        value           nonuniform List<scalar> 
43
(
300.59
300.551
300.545
302.741
304.011
304.601
304.868
305.027
305.128
305.196
305.25
305.299
305.345
305.391
305.438
305.486
305.532
305.575
305.611
305.638
305.658
305.672
305.683
305.693
305.701
305.708
305.715
305.72
305.725
305.728
305.731
305.732
305.733
305.733
305.733
305.732
305.731
305.726
305.712
305.708
304.277
304.016
296.252
)
;
    }
    sWall
    {
        type            wallHeatTransfer;
        Tinf            uniform 315.2;
        alphaWall       uniform 0.36;
        value           uniform 301.633;
    }
    nWall
    {
        type            wallHeatTransfer;
        Tinf            uniform 307.2;
        alphaWall       uniform 0.36;
        value           nonuniform List<scalar> 6(306.273 306.229 306.21 306.204 306.18 306.162);
    }
    sideWalls
    {
        type            empty;
    }
    glass1
    {
        type            wallHeatTransfer;
        Tinf            uniform 315.2;
        alphaWall       uniform 4.3;
        value           nonuniform List<scalar> 9(310.488 310.043 309.763 309.547 309.362 309.186 309.086 309.176 309.425);
    }
    glass2
    {
        type            wallHeatTransfer;
        Tinf            uniform 307.2;
        alphaWall       uniform 4.3;
        value           nonuniform List<scalar> 2(306.865 306.849);
    }
    sun
    {
        type            wallHeatTransfer;
        Tinf            uniform 305.2;
        alphaWall       uniform 0.24;
        value           nonuniform List<scalar> 
14
(
302.849
302.58
302.535
302.501
302.471
302.441
302.413
302.401
302.444
302.541
302.612
302.67
302.721
302.773
)
;
    }
    Table_master
    {
        type            zeroGradient;
    }
    Table_slave
    {
        type            zeroGradient;
    }
    inlet
    {
        type            fixedValue;
        value           uniform 293.15;
    }
    outlet
    {
        type            zeroGradient;
    }
}


// ************************************************************************* //
