/*--------------------------------*- C++ -*----------------------------------*\
  =========                 |
  \\      /  F ield         | OpenFOAM: The Open Source CFD Toolbox
   \\    /   O peration     | Website:  https://openfoam.org
    \\  /    A nd           | Version:  6
     \\/     M anipulation  |
\*---------------------------------------------------------------------------*/
FoamFile
{
    version     2.0;
    format      ascii;
    class       volScalarField;
    location    "40999.9999993656747";
    object      alphat;
}
// * * * * * * * * * * * * * * * * * * * * * * * * * * * * * * * * * * * * * //

dimensions      [1 -1 -1 0 0 0 0];

internalField   nonuniform List<scalar> 
778
(
0.00104101
0.00111058
0.0011066
0.00115464
0.00119866
0.00123863
0.00127584
0.00131171
0.00134781
0.00138618
0.00142277
0.00145754
0.0014918
0.00152866
0.00156714
0.000736674
0.00105559
0.00106406
0.00103824
0.000995097
0.000937499
0.00088015
0.000827353
0.000779758
0.000737069
0.000699013
0.000664823
0.000633674
0.000604601
0.00057631
0.000546729
0.000522168
0.000472628
0.00152469
0.00300743
0.00263938
0.00304651
0.00334197
0.0036552
0.0039676
0.00425543
0.00448707
0.00462186
0.00470112
0.00466851
0.00443584
0.00385928
0.00281879
0.00171601
0.00163614
0.00156622
0.00131908
0.00224671
0.00311395
0.00362591
0.00364961
0.0028801
0.00246321
0.00217408
0.00195465
0.00178021
0.00163155
0.0015001
0.00137774
0.00125802
0.00115056
0.0010579
0.0011917
0.000599308
0.00193418
0.004199
0.00311347
0.00445335
0.00497615
0.00541851
0.00582016
0.00617354
0.00647279
0.00670733
0.00693471
0.00717416
0.00739455
0.00752635
0.00744087
0.00681453
0.00498503
0.00192143
0.0016637
0.00355884
0.00496718
0.0056337
0.00512424
0.00135203
0.00117558
0.00103942
0.000932885
0.000848133
0.000779752
0.000723999
0.000678658
0.000643305
0.000707183
0.000831901
0.00131758
0.000681921
0.00232915
0.00565875
0.00297917
0.00500686
0.00578066
0.00619458
0.00649879
0.00672367
0.00689135
0.00702715
0.00722056
0.00754773
0.00802557
0.0086271
0.00923269
0.00953282
0.00895507
0.00668689
0.00191348
0.00442621
0.00658878
0.00768975
0.00796262
0.00679906
0.00153934
0.00140017
0.00129241
0.00120274
0.00112633
0.00105772
0.00099306
0.000928861
0.000859529
0.000802918
0.000832276
0.00142672
0.000750987
0.00271843
0.00749097
0.00300575
0.00475924
0.00594881
0.00630159
0.00642941
0.00643397
0.00636963
0.00631259
0.00639329
0.00671091
0.00729434
0.0081213
0.00908113
0.00996631
0.0105283
0.0105227
0.00944351
0.00960787
0.00982933
0.0098619
0.00966267
0.00904528
0.0071992
0.00621896
0.00554738
0.00500227
0.00446704
0.0039483
0.00344071
0.00293391
0.00241355
0.00185392
0.00141463
0.0014134
0.00111836
0.00089576
0.00118658
0.00113739
0.00310139
0.00954125
0.00353875
0.00401308
0.0056993
0.00609064
0.0060589
0.00584031
0.00552806
0.00527056
0.00526456
0.00559728
0.00626189
0.00722055
0.00834299
0.0094654
0.0104198
0.0110299
0.0111415
0.0110302
0.0108355
0.0105591
0.0102032
0.00974986
0.0090878
0.00844967
0.00787014
0.00731033
0.00670531
0.00605896
0.00536862
0.00462866
0.0038345
0.002992
0.00222912
0.00167366
0.00130005
0.00145856
0.00254011
0.0013598
0.00349218
0.0114364
0.00471577
0.0032877
0.00512067
0.00576084
0.00568927
0.00533579
0.00482339
0.00437294
0.00435993
0.00478018
0.00554102
0.00661307
0.00783253
0.00904021
0.0100794
0.0108235
0.011166
0.01114
0.0108961
0.0105263
0.0101026
0.00967972
0.00927051
0.00889483
0.00854177
0.00816512
0.00770971
0.00716142
0.00651249
0.00576003
0.0049069
0.00397446
0.00306246
0.00221365
0.00163074
0.00145629
0.00258927
0.00160372
0.00382794
0.0128689
0.00642871
0.00313085
0.00405596
0.00510687
0.00525314
0.00496267
0.00435718
0.00374486
0.0038836
0.00443971
0.00529125
0.00639633
0.00766391
0.00892818
0.0100058
0.0107538
0.0110934
0.011049
0.0107335
0.0102679
0.00976696
0.00932251
0.00897988
0.00873507
0.00854403
0.00833638
0.00804685
0.00764164
0.00710516
0.00643441
0.00563562
0.00473181
0.00379071
0.00284152
0.00198431
0.00134186
0.00370382
0.0021004
0.00392908
0.0121727
0.00795131
0.00404829
0.00274941
0.00336854
0.00394313
0.00399181
0.00352446
0.00342512
0.00378077
0.00443518
0.00535714
0.00653061
0.0078603
0.00916368
0.0102366
0.0109255
0.0111664
0.010999
0.0105411
0.00994051
0.00934441
0.00886862
0.00856669
0.00841867
0.00835159
0.0082718
0.00810497
0.00781188
0.00737722
0.00679944
0.00608555
0.00525373
0.00433926
0.00331172
0.00190393
0.00173417
0.00567956
0.00240969
0.0038495
0.00980945
0.00820768
0.00555449
0.00366907
0.00284025
0.00268961
0.00281629
0.00305268
0.00342904
0.00396389
0.00470149
0.00570616
0.00697354
0.00837693
0.0096985
0.0107136
0.01127
0.0113253
0.0109479
0.010286
0.00952449
0.00884413
0.0083777
0.0081642
0.00813986
0.00818663
0.00818601
0.00807753
0.00783971
0.00746556
0.00695456
0.00631012
0.0055374
0.004615
0.00323893
0.00138831
0.00344906
0.00525639
0.00243446
0.00360569
0.00838249
0.00793328
0.00635354
0.00489098
0.00393758
0.00346558
0.0033584
0.00355317
0.00391258
0.00443637
0.00521687
0.00632903
0.0077209
0.00919646
0.0104884
0.0113597
0.0116786
0.0114445
0.0107735
0.00986483
0.0089546
0.00826145
0.00791351
0.00787456
0.00799038
0.00810607
0.00810854
0.00799361
0.00776319
0.00741326
0.0069378
0.00632943
0.00556899
0.00457139
0.00294615
0.00147475
0.00376112
0.00532864
0.00241867
0.00328286
0.007558
0.00765169
0.00672361
0.00572096
0.00496547
0.00452026
0.00436068
0.00440018
0.00461765
0.00510036
0.00597519
0.00726402
0.00880727
0.010313
0.0114707
0.012058
0.0119969
0.0113567
0.0103242
0.00917457
0.00821196
0.00766528
0.00755787
0.0076586
0.00781268
0.00791155
0.00788289
0.00774869
0.007516
0.00717725
0.00671046
0.00608675
0.0052473
0.00409327
0.00259482
0.00172118
0.00378206
0.00587645
0.00246007
0.00299341
0.00676196
0.00730662
0.00686841
0.00622513
0.00568432
0.00532438
0.0051482
0.00509622
0.00528364
0.00589921
0.00704552
0.0086072
0.0102768
0.0116791
0.0125068
0.0126069
0.0119986
0.0108558
0.00945994
0.00819426
0.00738158
0.00702985
0.0070005
0.00711653
0.00725532
0.0073344
0.00730372
0.0071646
0.00692784
0.00657888
0.00607489
0.00533352
0.00426975
0.0029904
0.00206047
0.00209675
0.00410384
0.00579863
0.00260944
0.00300444
0.00671208
0.00746593
0.00695109
0.0064303
0.0060037
0.00569599
0.00549667
0.00549038
0.005946
0.00703371
0.00865962
0.0104899
0.0120953
0.0131021
0.013299
0.0126757
0.0113847
0.00974976
0.00816376
0.00701348
0.00634791
0.00605672
0.00601154
0.00609175
0.00619454
0.00624817
0.00621441
0.00605848
0.0057974
0.00539928
0.00477745
0.00382917
0.0027033
0.00197337
0.00197109
0.00267252
0.00467006
0.00605502
0.0026273
0.00271031
0.00282055
0.00416532
0.00489714
0.00512436
0.00512901
0.00508062
0.00517782
0.00581079
0.00716177
0.00906607
0.0111198
0.012866
0.0139263
0.0140873
0.0133223
0.0118253
0.00988391
0.00803386
0.00659058
0.00563866
0.00511519
0.00489754
0.00484678
0.00485643
0.00485593
0.00480652
0.0046942
0.00449623
0.00420909
0.00381943
0.00326638
0.00255921
0.00199235
0.00192949
0.0024087
0.00333752
0.00469854
0.00570006
0.00248313
0.000964053
0.00173739
0.00266444
0.00340818
0.00427382
0.00574514
0.00791191
0.0103207
0.0125136
0.0141441
0.014974
0.0148533
0.0138001
0.0119416
0.00975119
0.0076924
0.00607605
0.00501636
0.00445676
0.00420369
0.00408778
0.00401074
0.00392129
0.00379623
0.00363427
0.00344988
0.00326132
0.00306151
0.00284925
0.00260498
0.00233152
0.00215323
0.00229604
0.0028663
0.00375978
0.00466583
0.00497675
0.00236475
0.00178758
0.00246742
0.00358807
0.00559114
0.0083106
0.0110341
0.0131426
0.014665
0.0155829
0.015822
0.015257
0.0137732
0.0116112
0.00919788
0.00701436
0.0054155
0.00451094
0.00410701
0.00394651
0.00387409
0.00381866
0.00374971
0.00365801
0.00354842
0.00343366
0.00332633
0.00323174
0.00314412
0.00305864
0.00297433
0.00289887
0.00287559
0.00301875
0.00347754
0.00429662
0.00532583
0.00622311
0.00241602
0.0032387
0.0078741
0.0072649
0.00648958
0.00822623
0.0109503
0.0132447
0.014794
0.0156149
0.0158193
0.0154926
0.0145741
0.0130115
0.0108655
0.00846918
0.00637021
0.00501444
0.00438016
0.00415584
0.00409593
0.00408221
0.00406487
0.00402562
0.00396269
0.00388357
0.00379956
0.00372192
0.00366052
0.0036239
0.00361847
0.00364393
0.00369692
0.00377618
0.00391507
0.0041746
0.00464551
0.00545849
0.00690476
0.00713712
0.00266084
0.00309532
0.00597909
0.00771362
0.00987462
0.010953
0.0120612
0.0127028
0.0128543
0.0126077
0.0120223
0.0111092
0.00985401
0.00829495
0.00663835
0.00523651
0.00436074
0.00395334
0.00382056
0.00381529
0.00385637
0.00390037
0.00392506
0.00392246
0.00389428
0.00384739
0.00379055
0.00373448
0.00369436
0.00369167
0.00375185
0.00389762
0.00413759
0.00444706
0.00477734
0.00516112
0.00570502
0.00650409
0.00781319
0.00768484
0.00277203
0.00289443
0.00248115
0.00246885
0.00254102
0.00260056
0.00252313
0.00237289
0.00219721
0.00201933
0.0018468
0.00168117
0.00152631
0.00139358
0.0012984
0.00124732
0.00122871
0.00122961
0.00123988
0.00125388
0.00126881
0.00128353
0.00129797
0.00131294
0.00132995
0.00135116
0.00137928
0.00141739
0.00146837
0.00153384
0.0016131
0.00170312
0.00180008
0.00190168
0.00200931
0.00212114
0.00223763
0.00236027
0.00249371
0.00263667
0.00253732
)
;

boundaryField
{
    floor
    {
        type            compressible::alphatWallFunction;
        Prt             0.85;
        value           nonuniform List<scalar> 
36
(
0.000219857
0.000104461
0.000149967
0.00015115
0.000147535
0.000141473
0.000133331
0.000125166
0.000117594
0.000110718
0.000104509
9.89373e-05
9.39003e-05
8.9284e-05
8.49504e-05
8.07087e-05
7.62463e-05
7.25185e-05
6.49326e-05
6.49318e-05
8.41597e-05
9.64242e-05
0.000106539
0.000127398
0.000168193
0.00016138
0.000219855
0.000239672
0.000229062
0.000219729
0.00010446
0.000219727
0.000186347
0.000266705
0.000232723
0.000265666
)
;
    }
    ceiling
    {
        type            compressible::alphatWallFunction;
        Prt             0.85;
        value           nonuniform List<scalar> 
43
(
0.00039114
0.000338965
0.000337404
0.00034659
0.000354158
0.000344368
0.000325248
0.000302716
0.000279698
0.000257159
0.0002353
0.000214637
0.000196728
0.000183757
0.000176746
0.000174177
0.000174295
0.00017571
0.000177637
0.000179693
0.000181716
0.000183697
0.000185741
0.000188053
0.000190922
0.000194711
0.00019983
0.000206661
0.000215416
0.000225991
0.000237969
0.000250821
0.000264223
0.000278337
0.000292935
0.000308035
0.000323822
0.000340882
0.00035901
0.000346268
0.000368324
0.000382182
0.000248643
)
;
    }
    sWall
    {
        type            compressible::alphatWallFunction;
        Prt             0.85;
        value           nonuniform List<scalar> 9(0.000507608 0.000477865 0.000438168 0.000402239 0.000403605 0.000366749 0.000432071 0.000414342 0.00038939);
    }
    nWall
    {
        type            compressible::alphatWallFunction;
        Prt             0.85;
        value           nonuniform List<scalar> 
14
(
0.000160932
0.000191441
0.000224277
0.000332541
0.0003306
0.000336209
0.000354997
0.00035699
0.000338542
0.000323434
0.000330462
0.000361194
0.000375135
0.000345573
)
;
    }
    sideWalls
    {
        type            empty;
    }
    glass1
    {
        type            compressible::alphatWallFunction;
        Prt             0.85;
        value           nonuniform List<scalar> 9(0.00014393 0.000209138 0.000262696 0.000313306 0.00036238 0.000410005 0.000458018 0.000498878 0.000511233);
    }
    glass2
    {
        type            compressible::alphatWallFunction;
        Prt             0.85;
        value           nonuniform List<scalar> 2(0.00028737 0.000327005);
    }
    sun
    {
        type            compressible::alphatWallFunction;
        Prt             0.85;
        value           nonuniform List<scalar> 
14
(
0.000147965
0.000157652
0.000157096
0.000163765
0.000169848
0.000175349
0.000180452
0.000185355
0.000190275
0.000195487
0.000200443
0.000205138
0.000209752
0.000214703
)
;
    }
    Table_master
    {
        type            compressible::alphatWallFunction;
        Prt             0.85;
        value           nonuniform List<scalar> 9(0.000191102 0.000166909 0.000147955 0.000132925 0.000120824 0.000110956 0.000102834 9.61727e-05 9.09413e-05);
    }
    Table_slave
    {
        type            compressible::alphatWallFunction;
        Prt             0.85;
        value           nonuniform List<scalar> 9(0.000216404 0.000197643 0.000182975 0.000170662 0.000160087 0.000150522 0.000141441 0.000132357 0.000122462);
    }
    inlet
    {
        type            fixedValue;
        value           uniform 1.94e-05;
    }
    outlet
    {
        type            zeroGradient;
    }
}


// ************************************************************************* //
