/*--------------------------------*- C++ -*----------------------------------*\
  =========                 |
  \\      /  F ield         | OpenFOAM: The Open Source CFD Toolbox
   \\    /   O peration     | Website:  https://openfoam.org
    \\  /    A nd           | Version:  6
     \\/     M anipulation  |
\*---------------------------------------------------------------------------*/
FoamFile
{
    version     2.0;
    format      ascii;
    class       volScalarField;
    location    "40999.9999993656747";
    object      nut;
}
// * * * * * * * * * * * * * * * * * * * * * * * * * * * * * * * * * * * * * //

dimensions      [0 2 -1 0 0 0 0];

internalField   nonuniform List<scalar> 
778
(
0.000894331
0.000953099
0.000949626
0.000990836
0.0010286
0.00106288
0.0010948
0.00112556
0.00115652
0.00118943
0.0012208
0.0012506
0.00127995
0.00131154
0.0013445
0.000632162
0.000905449
0.000912686
0.000890537
0.000853537
0.000804143
0.000754963
0.000709687
0.000668871
0.000632263
0.000599628
0.000570309
0.000543598
0.000518666
0.000494405
0.000469038
0.00044798
0.000405521
0.00131081
0.00258128
0.00226515
0.00261454
0.00286812
0.00313693
0.00340503
0.00365203
0.00385078
0.00396639
0.00403429
0.00400612
0.00380621
0.00331122
0.00241826
0.00147208
0.0014035
0.00134351
0.00113144
0.00192699
0.00267075
0.00310982
0.00313014
0.00247017
0.00211263
0.00186466
0.00167647
0.00152686
0.00139937
0.00128664
0.0011817
0.00107903
0.000986885
0.000907439
0.00102226
0.000514184
0.00166408
0.00360466
0.00267231
0.00382243
0.0042713
0.00465116
0.00499607
0.00529951
0.00555643
0.00575773
0.00595274
0.0061579
0.00634641
0.00645866
0.00638434
0.00584615
0.00427619
0.0016481
0.00142691
0.00305224
0.00426007
0.00483172
0.00439479
0.00115957
0.00100824
0.000891466
0.0008001
0.000727413
0.000668768
0.000620953
0.000582069
0.000551752
0.000606549
0.000713541
0.00113019
0.000585052
0.00200534
0.00485887
0.00255736
0.00429813
0.00496275
0.00531849
0.00558004
0.00577346
0.00591767
0.00603436
0.00620029
0.0064807
0.00689
0.00740492
0.00792297
0.00817887
0.00768193
0.00573556
0.00164117
0.00379617
0.00565083
0.00659507
0.00682913
0.00583122
0.00132022
0.00120086
0.00110844
0.00103154
0.000966001
0.000907161
0.000851706
0.000796645
0.000737182
0.000688644
0.000713847
0.00122378
0.000644303
0.0023421
0.00643382
0.00258051
0.00408611
0.00510796
0.00541149
0.00552187
0.00552635
0.00547153
0.00542279
0.00549203
0.00576433
0.00626425
0.00697247
0.00779413
0.00855149
0.00903171
0.00902567
0.00809946
0.00824022
0.00843012
0.0084581
0.00828731
0.00775786
0.00617458
0.00533387
0.00475789
0.00429036
0.00383131
0.00338639
0.00295104
0.00251636
0.00207005
0.00159008
0.00121333
0.00121234
0.000959432
0.000768499
0.00101804
0.00097615
0.00267377
0.00819726
0.00303855
0.00344589
0.0048944
0.00523122
0.00520473
0.00501768
0.00475003
0.00452917
0.00452407
0.00480951
0.00537926
0.00620049
0.00716149
0.00812212
0.00893875
0.00946074
0.00955572
0.0094601
0.00929316
0.00905619
0.00875111
0.00836242
0.00779465
0.00724737
0.00675033
0.00627018
0.00575124
0.00519685
0.00460473
0.00397004
0.00328887
0.00256625
0.00191194
0.00143557
0.00111522
0.00125126
0.0021792
0.0011671
0.00301236
0.00982876
0.00404994
0.00282331
0.00439794
0.00494851
0.00488783
0.00458491
0.00414529
0.00375867
0.0037477
0.00410855
0.00476109
0.00567963
0.00672374
0.00775737
0.00864665
0.00928352
0.00957659
0.00955427
0.00934526
0.00902837
0.00866518
0.0083026
0.00795171
0.00762953
0.00732671
0.00700364
0.00661299
0.00614268
0.00558603
0.00494058
0.0042088
0.003409
0.00262676
0.00189875
0.00139885
0.00124926
0.00222129
0.00137641
0.00330374
0.0110654
0.0055229
0.00268899
0.00348378
0.00438705
0.00451338
0.00426448
0.00374481
0.00321917
0.00333876
0.00381646
0.0045469
0.00549375
0.00657899
0.00766094
0.00858306
0.00922335
0.00951409
0.00947621
0.00920595
0.00880705
0.00837767
0.00799663
0.00770283
0.00749288
0.007329
0.00715085
0.00690246
0.00655482
0.00609459
0.0055192
0.00483398
0.0040587
0.00325147
0.00243733
0.00170212
0.00115108
0.00317764
0.00180378
0.00339342
0.0104825
0.0068385
0.00347879
0.00236197
0.00289397
0.003388
0.0034303
0.00302927
0.00294455
0.00325067
0.0038128
0.0046035
0.0056087
0.00674684
0.00786209
0.00878019
0.00936996
0.00957652
0.00943342
0.00904126
0.00852668
0.00801571
0.00760776
0.00734883
0.00722185
0.00716426
0.00709576
0.00695257
0.00670108
0.00632815
0.00583247
0.00522005
0.0045065
0.00372207
0.00284069
0.00163318
0.0014877
0.00487368
0.00207047
0.0033246
0.00845604
0.00706659
0.00477753
0.00315401
0.00244098
0.00231145
0.00242052
0.00262429
0.00294851
0.00340856
0.00404177
0.00490284
0.0059879
0.00718868
0.00831931
0.00918809
0.00966468
0.00971261
0.00938987
0.00882305
0.00817043
0.00758713
0.00718711
0.00700396
0.00698302
0.00702305
0.00702241
0.00692925
0.00672514
0.0064041
0.00596568
0.00541282
0.00474993
0.00395868
0.00277832
0.00119096
0.00296052
0.00451376
0.00209185
0.00311414
0.00722933
0.00683483
0.00546913
0.00420766
0.00338634
0.00298005
0.00288797
0.00305595
0.00336539
0.0038153
0.00448432
0.00543644
0.00662719
0.00788925
0.00899459
0.00974063
0.0100146
0.00981506
0.00924093
0.00846254
0.00768227
0.00708783
0.00678933
0.00675582
0.00685505
0.00695416
0.00695615
0.00685744
0.00665966
0.00635939
0.00595144
0.0054295
0.00477714
0.00392137
0.00252725
0.00126521
0.00322876
0.00457667
0.00207844
0.00283568
0.00652029
0.00659538
0.00579139
0.00492524
0.0042735
0.00388979
0.00375246
0.00378649
0.00397291
0.00438594
0.00513411
0.00623606
0.00755545
0.00884314
0.00983422
0.0103382
0.0102875
0.00974061
0.00885663
0.00787137
0.00704589
0.00657687
0.00648456
0.00657079
0.0067028
0.00678746
0.00676273
0.00664748
0.00644775
0.00615706
0.00575655
0.00522145
0.0045013
0.00351134
0.00222598
0.0014767
0.00324657
0.0050469
0.00211403
0.00258628
0.00583596
0.00630099
0.00591952
0.00536278
0.0048955
0.0045848
0.00443269
0.00438668
0.00454505
0.00506963
0.00604831
0.00738245
0.00880969
0.0100099
0.0107202
0.0108086
0.0102901
0.00931256
0.00811663
0.00703132
0.00633405
0.00603206
0.00600663
0.00610595
0.00622482
0.00629249
0.00626602
0.00614655
0.00594334
0.00564389
0.00521147
0.00457544
0.00366287
0.0025654
0.00176775
0.00179919
0.00352286
0.00497978
0.00224216
0.00259531
0.00579328
0.00643952
0.00599266
0.00554158
0.00517239
0.00490603
0.00473233
0.00472264
0.00510813
0.00603485
0.00742256
0.0089866
0.0103609
0.0112258
0.0113989
0.0108693
0.0097661
0.00836582
0.00700593
0.00601892
0.00544756
0.00519741
0.00515837
0.00522696
0.00531495
0.0053608
0.0053317
0.00519782
0.00497375
0.00463213
0.00409862
0.00328507
0.00231923
0.00169314
0.00169144
0.00229386
0.00400963
0.00520043
0.00225761
0.00234237
0.0024361
0.003592
0.00421863
0.0044114
0.004413
0.00436861
0.00444675
0.00498258
0.00613295
0.00775779
0.00951352
0.0110107
0.0119247
0.0120704
0.0114222
0.010144
0.0084818
0.00689538
0.00565687
0.00483968
0.00439015
0.0042031
0.0041593
0.00416737
0.00416676
0.00412423
0.00402775
0.0038578
0.00361138
0.00327703
0.00280251
0.0021958
0.00170953
0.00165583
0.00206758
0.00286574
0.00403562
0.00489709
0.00213412
0.000806803
0.00146287
0.00225625
0.00289479
0.00363427
0.00488853
0.00673791
0.00879893
0.0106817
0.0120887
0.0128134
0.0127233
0.0118312
0.0102449
0.00836911
0.00660343
0.00521622
0.00430644
0.00382586
0.00360841
0.00350871
0.00344239
0.00336546
0.003258
0.00311891
0.00296061
0.00279874
0.00262724
0.00244507
0.00223545
0.0020008
0.00184791
0.00197076
0.00246086
0.00322906
0.00400861
0.00427686
0.00203273
0.00149747
0.00207272
0.00302321
0.00472466
0.00704099
0.00937116
0.0111875
0.0125089
0.013315
0.0135391
0.0130718
0.0118114
0.0099636
0.00789585
0.00602266
0.00465019
0.00387348
0.00352652
0.00338856
0.00332621
0.00327846
0.00321913
0.00314031
0.00304617
0.00294764
0.00285551
0.0027743
0.00269907
0.00262565
0.00255322
0.00248841
0.00246845
0.00259154
0.00298591
0.00369018
0.00457551
0.00534767
0.0020767
0.00275774
0.00668073
0.00613544
0.00547021
0.00695164
0.0092849
0.0112643
0.0126127
0.013338
0.0135324
0.0132687
0.012494
0.0111628
0.00932667
0.00727222
0.00547091
0.00430686
0.00376214
0.0035694
0.00351783
0.0035059
0.00349088
0.00345707
0.00340295
0.00333499
0.00326288
0.00319627
0.00314363
0.00311226
0.00310764
0.00312949
0.0031749
0.00324283
0.003362
0.00358484
0.00398944
0.00468824
0.00593168
0.00613246
0.00228684
0.00263885
0.00509512
0.00656036
0.00838353
0.00931142
0.0102782
0.0108486
0.0109969
0.0107998
0.010308
0.00953156
0.00845893
0.00712313
0.00570187
0.00449838
0.00374628
0.00339634
0.00328223
0.00327762
0.00331281
0.00335051
0.00337163
0.00336934
0.00334514
0.0033049
0.00325618
0.00320814
0.00317383
0.00317168
0.00322352
0.00334884
0.003555
0.00382074
0.00410427
0.00443378
0.00490093
0.00558751
0.00671263
0.00660314
0.00238244
0.00247354
0.0021203
0.00211017
0.00217246
0.00222448
0.00216068
0.00203418
0.00188509
0.00173346
0.00158597
0.00144412
0.00131133
0.00119743
0.00111572
0.00107187
0.00105588
0.00105665
0.00106546
0.00107746
0.00109027
0.0011029
0.0011153
0.00112816
0.00114279
0.00116105
0.00118526
0.00121806
0.00126194
0.00131828
0.00138645
0.00146386
0.00154719
0.00163448
0.00172693
0.00182299
0.00192307
0.00202848
0.00214322
0.00226616
0.00218105
)
;

boundaryField
{
    floor
    {
        type            nutkWallFunction;
        Cmu             0.09;
        kappa           0.41;
        E               9.8;
        value           nonuniform List<scalar> 
36
(
0.000160534
7.63564e-05
0.000109531
0.000110391
0.000107754
0.000103332
9.7394e-05
9.14385e-05
8.59149e-05
8.08993e-05
7.63694e-05
7.23043e-05
6.86291e-05
6.52607e-05
6.20984e-05
5.90028e-05
5.5746e-05
5.30256e-05
4.74899e-05
4.74899e-05
6.15275e-05
7.04796e-05
7.7862e-05
9.30825e-05
0.000122851
0.000117912
0.000160534
0.000174974
0.000167229
0.00016042
7.63564e-05
0.00016042
0.000136067
0.000194671
0.000169876
0.0001939
)
;
    }
    ceiling
    {
        type            nutkWallFunction;
        Cmu             0.09;
        kappa           0.41;
        E               9.8;
        value           nonuniform List<scalar> 
43
(
0.000284303
0.000246393
0.000245299
0.000252038
0.000257656
0.000250794
0.000237104
0.000220844
0.00020416
0.000187778
0.00017186
0.000156796
0.000143731
0.000134264
0.000129147
0.000127271
0.000127357
0.000128388
0.000129794
0.000131293
0.000132769
0.000134215
0.000135708
0.000137399
0.000139498
0.00014227
0.000146015
0.000151013
0.000157415
0.000165147
0.000173901
0.000183291
0.00019308
0.000203386
0.000214044
0.000225072
0.000236606
0.000249075
0.000262327
0.000253047
0.000270496
0.000280512
0.000177622
)
;
    }
    sWall
    {
        type            nutkWallFunction;
        Cmu             0.09;
        kappa           0.41;
        E               9.8;
        value           nonuniform List<scalar> 9(0.000373884 0.000352051 0.00032293 0.000296597 0.000297551 0.000270586 0.000314418 0.0003019 0.000284405);
    }
    nWall
    {
        type            nutkWallFunction;
        Cmu             0.09;
        kappa           0.41;
        E               9.8;
        value           nonuniform List<scalar> 
14
(
0.00011792
0.000140213
0.000164189
0.000243473
0.000242071
0.000246172
0.000259878
0.000261347
0.000247907
0.000236901
0.000242028
0.000264463
0.000274656
0.000253085
)
;
    }
    sideWalls
    {
        type            empty;
    }
    glass1
    {
        type            nutkWallFunction;
        Cmu             0.09;
        kappa           0.41;
        E               9.8;
        value           nonuniform List<scalar> 9(0.00010825 0.000156886 0.000196742 0.000234358 0.000270804 0.000306157 0.000341777 0.000372099 0.000381385);
    }
    glass2
    {
        type            nutkWallFunction;
        Cmu             0.09;
        kappa           0.41;
        E               9.8;
        value           nonuniform List<scalar> 2(0.000212095 0.000241273);
    }
    sun
    {
        type            nutkWallFunction;
        Cmu             0.09;
        kappa           0.41;
        E               9.8;
        value           nonuniform List<scalar> 
14
(
0.000108209
0.000115185
0.000114774
0.000119639
0.000124076
0.000128089
0.00013181
0.000135386
0.000138974
0.000142775
0.000146388
0.00014981
0.000153172
0.000156779
)
;
    }
    Table_master
    {
        type            nutkWallFunction;
        Cmu             0.09;
        kappa           0.41;
        E               9.8;
        value           nonuniform List<scalar> 9(0.000139315 0.000121679 0.000107862 9.69052e-05 8.80837e-05 8.089e-05 7.49689e-05 7.0113e-05 6.62997e-05);
    }
    Table_slave
    {
        type            nutkWallFunction;
        Cmu             0.09;
        kappa           0.41;
        E               9.8;
        value           nonuniform List<scalar> 9(0.000157757 0.000144082 0.000133388 0.000124413 0.000116704 0.000109731 0.000103111 9.64882e-05 8.92751e-05);
    }
    inlet
    {
        type            calculated;
        value           uniform 0.000167705;
    }
    outlet
    {
        type            calculated;
        value           nonuniform List<scalar> 2(0.00275774 0.00668073);
    }
}


// ************************************************************************* //
