/*--------------------------------*- C++ -*----------------------------------*\
  =========                 |
  \\      /  F ield         | OpenFOAM: The Open Source CFD Toolbox
   \\    /   O peration     | Website:  https://openfoam.org
    \\  /    A nd           | Version:  6
     \\/     M anipulation  |
\*---------------------------------------------------------------------------*/
FoamFile
{
    version     2.0;
    format      ascii;
    class       volVectorField;
    location    "40999.9999993656747";
    object      U;
}
// * * * * * * * * * * * * * * * * * * * * * * * * * * * * * * * * * * * * * //

dimensions      [0 1 -1 0 0 0 0];

internalField   nonuniform List<vector> 
778
(
(0.0656014 0.0794064 0)
(-0.155174 0.0157632 0)
(-0.164297 0.0146215 0)
(-0.192408 0.0122705 0)
(-0.216837 0.00871958 0)
(-0.236889 0.00473839 0)
(-0.252006 0.000411895 0)
(-0.261768 -0.00437233 0)
(-0.26566 -0.00981291 0)
(-0.262681 -0.0161904 0)
(-0.250878 -0.0242609 0)
(-0.226185 -0.0348761 0)
(-0.186073 -0.0503929 0)
(-0.144148 -0.075156 0)
(-0.150026 -0.108538 0)
(0.0546884 0.0354831 0)
(0.015824 -0.0268911 0)
(0.0450413 -0.0232755 0)
(0.0694775 -0.0161712 0)
(0.0845651 -0.0103622 0)
(0.0917885 -0.00641761 0)
(0.094626 -0.00433854 0)
(0.095661 -0.00331723 0)
(0.09612 -0.00273062 0)
(0.0962969 -0.0023168 0)
(0.0961753 -0.00195133 0)
(0.0956484 -0.00150979 0)
(0.0943876 -0.000754778 0)
(0.0915344 0.000851231 0)
(0.0853177 0.0040786 0)
(0.0737527 0.00779331 0)
(0.0600513 0.0116455 0)
(-0.00786869 0.0300285 0)
(0.258403 0.167392 0)
(-0.161234 0.0483884 0)
(-0.141598 0.045974 0)
(-0.173997 0.0416053 0)
(-0.199352 0.0356555 0)
(-0.220063 0.0291147 0)
(-0.236082 0.0220431 0)
(-0.247324 0.0142145 0)
(-0.253491 0.00528551 0)
(-0.253804 -0.00515963 0)
(-0.247649 -0.0170848 0)
(-0.233947 -0.0308482 0)
(-0.214045 -0.0480699 0)
(-0.197472 -0.0699482 0)
(-0.19396 -0.0826218 0)
(-0.166366 -0.0425265 0)
(-0.105338 -0.0363413 0)
(-0.0983218 -0.0444414 0)
(0.109357 -0.0421761 0)
(0.0645023 -0.0412389 0)
(0.0719893 -0.0323315 0)
(0.0860148 -0.0207736 0)
(0.0939615 -0.0105149 0)
(0.0962214 -0.00364785 0)
(0.0959831 -0.000195718 0)
(0.0955881 0.0012429 0)
(0.095548 0.0018868 0)
(0.0956283 0.00226197 0)
(0.0956367 0.00258795 0)
(0.0955378 0.00313392 0)
(0.0952473 0.00441853 0)
(0.0939888 0.00773961 0)
(0.0883848 0.0167873 0)
(0.0746047 0.0253961 0)
(0.0632249 0.033045 0)
(-0.051881 0.0637014 0)
(0.429985 0.253952 0)
(-0.194235 0.0847533 0)
(-0.112772 0.0784211 0)
(-0.148232 0.0669386 0)
(-0.170657 0.0554778 0)
(-0.188741 0.0437018 0)
(-0.202568 0.0313186 0)
(-0.21225 0.0179853 0)
(-0.217593 0.00338348 0)
(-0.217944 -0.0126393 0)
(-0.212686 -0.0303242 0)
(-0.201579 -0.049904 0)
(-0.185936 -0.0715622 0)
(-0.169393 -0.0932038 0)
(-0.151015 -0.104549 0)
(-0.120177 -0.0931165 0)
(-0.0794905 -0.094899 0)
(-0.0713956 -0.107541 0)
(0.0921782 -0.0882506 0)
(0.0626174 -0.0658487 0)
(0.0744411 -0.046225 0)
(0.0881109 -0.029351 0)
(0.0950072 -0.0150205 0)
(0.09215 -0.0120459 0)
(0.087909 -0.00794512 0)
(0.0855352 -0.00577643 0)
(0.0848387 -0.00456033 0)
(0.0848086 -0.00380152 0)
(0.085059 -0.00322932 0)
(0.0857109 -0.00260014 0)
(0.0874759 -0.00143785 0)
(0.0921698 0.00292646 0)
(0.0903361 0.0251362 0)
(0.0735194 0.0424394 0)
(0.0702329 0.057613 0)
(-0.0898717 0.101148 0)
(0.578555 0.325836 0)
(-0.240107 0.121801 0)
(-0.0808258 0.109206 0)
(-0.121562 0.0898307 0)
(-0.138989 0.07404 0)
(-0.153042 0.0586022 0)
(-0.163793 0.0427182 0)
(-0.171379 0.0257775 0)
(-0.175582 0.00717322 0)
(-0.175639 -0.0135461 0)
(-0.170946 -0.0364748 0)
(-0.161374 -0.0614535 0)
(-0.147498 -0.087368 0)
(-0.130504 -0.110296 0)
(-0.109529 -0.123189 0)
(-0.0820359 -0.124515 0)
(-0.0524108 -0.126326 0)
(-0.033268 -0.123149 0)
(0.0165231 -0.0568087 0)
(0.0609399 -0.0930735 0)
(0.0685643 -0.0792666 0)
(0.0791655 -0.0589192 0)
(0.0916506 -0.0396923 0)
(0.102976 -0.0210421 0)
(0.115729 -0.0132647 0)
(0.126946 -0.00884422 0)
(0.132601 -0.00562282 0)
(0.133631 -0.00311489 0)
(0.131147 -0.000892017 0)
(0.125719 0.00127785 0)
(0.117218 0.00366235 0)
(0.10487 0.0067242 0)
(0.0856156 0.0111649 0)
(0.0717189 0.0368685 0)
(0.0604128 0.0606579 0)
(0.0764953 0.0835521 0)
(-0.117511 0.137575 0)
(0.705737 0.383673 0)
(-0.287686 0.156994 0)
(-0.0476873 0.13376 0)
(-0.0962787 0.106892 0)
(-0.107724 0.0875628 0)
(-0.116752 0.0691368 0)
(-0.123535 0.0504094 0)
(-0.128189 0.0305517 0)
(-0.130541 0.00869388 0)
(-0.129727 -0.0158405 0)
(-0.12522 -0.0430878 0)
(-0.116587 -0.0726883 0)
(-0.103847 -0.10283 0)
(-0.0873463 -0.129095 0)
(-0.0673678 -0.145783 0)
(-0.0439989 -0.152244 0)
(-0.0201233 -0.152327 0)
(0.000431668 -0.143669 0)
(0.0309454 -0.114992 0)
(0.0570957 -0.10938 0)
(0.070651 -0.0924899 0)
(0.0807628 -0.0713377 0)
(0.0908086 -0.0508994 0)
(0.10036 -0.0328658 0)
(0.10949 -0.0194674 0)
(0.116559 -0.0100812 0)
(0.120036 -0.00338439 0)
(0.120288 0.00187212 0)
(0.117922 0.00642391 0)
(0.113308 0.0107867 0)
(0.106469 0.0154722 0)
(0.0973365 0.0211816 0)
(0.0854118 0.0292141 0)
(0.0738517 0.0472584 0)
(0.0633558 0.0713629 0)
(0.0950524 0.099565 0)
(0.0172083 0.138743 0)
(0.0968456 0.182806 0)
(0.140512 0.145065 0)
(-0.219406 0.201437 0)
(0.810443 0.431966 0)
(-0.331326 0.190661 0)
(-0.0173072 0.150222 0)
(-0.0733534 0.117491 0)
(-0.0785736 0.0954773 0)
(-0.0821905 0.0749069 0)
(-0.0844411 0.0543025 0)
(-0.0854754 0.0326808 0)
(-0.0852163 0.0088266 0)
(-0.0825364 -0.018434 0)
(-0.0773625 -0.049038 0)
(-0.0687197 -0.082511 0)
(-0.0566949 -0.116522 0)
(-0.0415919 -0.146339 0)
(-0.0245623 -0.16602 0)
(-0.00613331 -0.174495 0)
(0.0122662 -0.172711 0)
(0.0281883 -0.160956 0)
(0.0463368 -0.139287 0)
(0.0627576 -0.122334 0)
(0.0733931 -0.102519 0)
(0.0810377 -0.0804998 0)
(0.0877742 -0.0591845 0)
(0.0939506 -0.0403289 0)
(0.099301 -0.0251615 0)
(0.103032 -0.0138116 0)
(0.10469 -0.00512473 0)
(0.104322 0.00206538 0)
(0.102223 0.00853824 0)
(0.0986378 0.0148148 0)
(0.0937188 0.0214229 0)
(0.0876918 0.0289944 0)
(0.0808186 0.0384391 0)
(0.0750503 0.0528978 0)
(0.0697951 0.072925 0)
(0.0919837 0.0986667 0)
(0.074043 0.107455 0)
(0.091068 0.0477265 0)
(0.146621 -0.0357915 0)
(-0.323517 0.107575 0)
(0.879906 0.474677 0)
(-0.368647 0.220941 0)
(0.00372337 0.155524 0)
(-0.0526469 0.121536 0)
(-0.0521873 0.0978142 0)
(-0.0510017 0.0757812 0)
(-0.0489939 0.0540032 0)
(-0.0464761 0.0314977 0)
(-0.0432878 0.00674124 0)
(-0.0373269 -0.0223212 0)
(-0.0302466 -0.055383 0)
(-0.0204434 -0.0919625 0)
(-0.00859976 -0.128936 0)
(0.00466433 -0.161311 0)
(0.017767 -0.181931 0)
(0.030594 -0.190229 0)
(0.0424244 -0.187196 0)
(0.052733 -0.174354 0)
(0.0626818 -0.153991 0)
(0.0712198 -0.132349 0)
(0.0766996 -0.109363 0)
(0.0801174 -0.0859011 0)
(0.0826855 -0.0637645 0)
(0.0849114 -0.0443012 0)
(0.0867568 -0.0282312 0)
(0.0878873 -0.0154614 0)
(0.0880731 -0.00521282 0)
(0.0871624 0.00343494 0)
(0.0853284 0.0111684 0)
(0.0827124 0.0185138 0)
(0.0794805 0.0259724 0)
(0.0759025 0.0340441 0)
(0.0723753 0.0432767 0)
(0.0702776 0.0549447 0)
(0.0690095 0.069413 0)
(0.0820789 0.0883834 0)
(0.0854003 0.0915054 0)
(0.0912739 0.0539265 0)
(0.181842 0.0269766 0)
(-0.278913 0.156914 0)
(0.92794 0.517137 0)
(-0.383161 0.234131 0)
(0.0168954 0.132916 0)
(-0.0273067 0.116606 0)
(-0.026526 0.0948757 0)
(-0.0227114 0.0723819 0)
(-0.0175937 0.0500584 0)
(-0.0123163 0.0272097 0)
(-0.00534703 0.00182184 0)
(0.00462443 -0.0307641 0)
(0.0143549 -0.0653546 0)
(0.0256759 -0.103379 0)
(0.0373528 -0.14093 0)
(0.0480681 -0.172224 0)
(0.0571966 -0.192401 0)
(0.064718 -0.199842 0)
(0.0704538 -0.195363 0)
(0.0744033 -0.181116 0)
(0.0770765 -0.160001 0)
(0.0783937 -0.136004 0)
(0.0779816 -0.111016 0)
(0.076426 -0.0865363 0)
(0.0745671 -0.064027 0)
(0.0729378 -0.0444818 0)
(0.0716813 -0.0282739 0)
(0.070664 -0.0151188 0)
(0.0696854 -0.00431569 0)
(0.0684538 0.00491491 0)
(0.0670607 0.0131601 0)
(0.0654707 0.0209106 0)
(0.0637494 0.0285958 0)
(0.0620658 0.0365672 0)
(0.0607033 0.0451022 0)
(0.06052 0.0546345 0)
(0.0613875 0.0650547 0)
(0.0701243 0.0778297 0)
(0.0803597 0.0803918 0)
(0.0819852 0.0599809 0)
(0.239303 0.0563762 0)
(-0.542115 0.234959 0)
(1.0113 0.506783 0)
(-0.1371 0.296316 0)
(0.0411 0.161468 0)
(0.0406525 0.122014 0)
(0.0131336 0.0919015 0)
(0.00871314 0.0652938 0)
(0.0141453 0.0413223 0)
(0.0207792 0.0169169 0)
(0.0325924 -0.0110734 0)
(0.0440654 -0.0421904 0)
(0.055954 -0.0769564 0)
(0.0682552 -0.114709 0)
(0.079423 -0.151204 0)
(0.087953 -0.18068 0)
(0.0931959 -0.198682 0)
(0.0952604 -0.203795 0)
(0.0945511 -0.197079 0)
(0.091613 -0.180973 0)
(0.0871222 -0.158537 0)
(0.0815316 -0.133098 0)
(0.0751404 -0.107089 0)
(0.0685564 -0.0823299 0)
(0.062512 -0.0601678 0)
(0.0575381 -0.0413215 0)
(0.0538357 -0.0258701 0)
(0.0513065 -0.0133115 0)
(0.0496771 -0.00286428 0)
(0.0485468 0.00617268 0)
(0.0478595 0.0143104 0)
(0.0473763 0.0219976 0)
(0.0470239 0.0295794 0)
(0.0468185 0.0372848 0)
(0.0468447 0.0452176 0)
(0.0474787 0.0534135 0)
(0.0486384 0.0613937 0)
(0.0539481 0.0690518 0)
(0.064227 0.0655308 0)
(0.0614774 0.0343893 0)
(0.286647 0.0700194 0)
(-0.749242 0.308802 0)
(0.779319 0.395608 0)
(0.000986313 0.319435 0)
(0.0934451 0.218864 0)
(0.110682 0.155094 0)
(0.0772517 0.106728 0)
(0.0598679 0.0674409 0)
(0.0582906 0.0356558 0)
(0.0624693 0.00631409 0)
(0.0739117 -0.0235204 0)
(0.0855 -0.0551179 0)
(0.0977176 -0.0898348 0)
(0.109609 -0.126371 0)
(0.119008 -0.160184 0)
(0.124133 -0.185905 0)
(0.124377 -0.199945 0)
(0.120167 -0.201475 0)
(0.11245 -0.191873 0)
(0.102297 -0.173707 0)
(0.0907472 -0.150024 0)
(0.0786415 -0.123867 0)
(0.0666734 -0.0977818 0)
(0.0555835 -0.0736828 0)
(0.0461112 -0.052816 0)
(0.0387483 -0.0356213 0)
(0.0336187 -0.0218763 0)
(0.0304917 -0.0107895 0)
(0.028902 -0.00143711 0)
(0.0283724 0.00682527 0)
(0.0285955 0.0144571 0)
(0.0292203 0.0218384 0)
(0.0300795 0.0292212 0)
(0.0310514 0.0367631 0)
(0.031982 0.0445331 0)
(0.0326605 0.0525357 0)
(0.0320414 0.0604651 0)
(0.0299845 0.068099 0)
(0.0141025 0.069925 0)
(0.00173022 0.102705 0)
(0.0129802 0.17864 0)
(-0.637083 0.29972 0)
(0.617236 0.220603 0)
(0.00477416 0.298014 0)
(0.113071 0.241486 0)
(0.148355 0.177468 0)
(0.130932 0.123392 0)
(0.117915 0.0777006 0)
(0.115062 0.0387531 0)
(0.117245 0.00326139 0)
(0.123627 -0.0308412 0)
(0.131874 -0.0651139 0)
(0.141585 -0.100609 0)
(0.150491 -0.135509 0)
(0.155647 -0.165413 0)
(0.155115 -0.185952 0)
(0.148581 -0.194805 0)
(0.13694 -0.192001 0)
(0.121661 -0.179297 0)
(0.104242 -0.159283 0)
(0.086053 -0.134886 0)
(0.068193 -0.108905 0)
(0.0516103 -0.0838332 0)
(0.0371884 -0.0615425 0)
(0.0256988 -0.0431298 0)
(0.0174685 -0.0286549 0)
(0.0123288 -0.0175054 0)
(0.0096459 -0.0085031 0)
(0.00869973 -0.000647693 0)
(0.00902835 0.00659365 0)
(0.0101241 0.013579 0)
(0.0117055 0.0205747 0)
(0.0135983 0.0277465 0)
(0.0156297 0.0352472 0)
(0.0175359 0.0432644 0)
(0.0188711 0.0521237 0)
(0.0184238 0.0623691 0)
(0.0152984 0.0757248 0)
(-0.00995791 0.0994948 0)
(-0.00964499 0.154783 0)
(0.0215823 0.185296 0)
(-0.541826 0.163335 0)
(0.570784 0.118205 0)
(-0.0202932 0.258512 0)
(0.1137 0.229827 0)
(0.165054 0.175966 0)
(0.166738 0.126053 0)
(0.164422 0.0809459 0)
(0.165433 0.0398115 0)
(0.168393 0.00146906 0)
(0.172365 -0.0355345 0)
(0.177955 -0.0720356 0)
(0.184146 -0.107705 0)
(0.187864 -0.139781 0)
(0.186083 -0.164365 0)
(0.177422 -0.178612 0)
(0.162326 -0.181713 0)
(0.142333 -0.174567 0)
(0.119375 -0.159215 0)
(0.0951978 -0.138112 0)
(0.0713897 -0.113996 0)
(0.0491597 -0.0893664 0)
(0.029678 -0.0666451 0)
(0.0139598 -0.0475809 0)
(0.00267968 -0.0329596 0)
(-0.00445202 -0.0220714 0)
(-0.00814837 -0.0140245 0)
(-0.00974356 -0.00716855 0)
(-0.00990108 -0.000769569 0)
(-0.00890648 0.00548792 0)
(-0.00722354 0.0118076 0)
(-0.00497416 0.0183406 0)
(-0.00229509 0.0251999 0)
(0.00072176 0.0326314 0)
(0.00387823 0.0408951 0)
(0.00690192 0.0506347 0)
(0.00914658 0.0632869 0)
(0.0111583 0.0822447 0)
(-0.00183954 0.116414 0)
(-0.0101313 0.184029 0)
(0.137888 0.202483 0)
(-0.470762 0.0832153 0)
(0.628478 0.0534873 0)
(0.00902819 0.197239 0)
(0.113698 0.196894 0)
(0.17503 0.157824 0)
(0.191316 0.117533 0)
(0.198013 0.0770877 0)
(0.203386 0.0370742 0)
(0.208624 -0.00170549 0)
(0.213149 -0.0398304 0)
(0.217475 -0.076675 0)
(0.219313 -0.110099 0)
(0.215504 -0.136936 0)
(0.204159 -0.154556 0)
(0.185368 -0.161941 0)
(0.160745 -0.159639 0)
(0.132449 -0.149056 0)
(0.102708 -0.132267 0)
(0.0732166 -0.111382 0)
(0.0457344 -0.0889503 0)
(0.0213951 -0.0671434 0)
(0.0017963 -0.048377 0)
(-0.0120957 -0.0342772 0)
(-0.020274 -0.0248902 0)
(-0.0248614 -0.0179431 0)
(-0.0270688 -0.0121913 0)
(-0.0277606 -0.0068369 0)
(-0.0273402 -0.00152464 0)
(-0.0259281 0.00391543 0)
(-0.0238836 0.0095904 0)
(-0.021218 0.0155933 0)
(-0.0180413 0.0220072 0)
(-0.014404 0.0290128 0)
(-0.0103102 0.0369497 0)
(-0.00574377 0.0465353 0)
(-0.00101429 0.0598197 0)
(0.00445373 0.0821512 0)
(0.00408407 0.117166 0)
(-0.00494369 0.175034 0)
(0.180294 0.198591 0)
(-0.356382 0.134034 0)
(0.472358 0.0748202 0)
(-0.132291 0.137508 0)
(0.0941205 0.133177 0)
(0.172589 0.116634 0)
(0.203723 0.0951342 0)
(0.218048 0.064152 0)
(0.228074 0.0281366 0)
(0.237172 -0.0091911 0)
(0.24356 -0.0454969 0)
(0.245067 -0.0784188 0)
(0.239094 -0.105305 0)
(0.224294 -0.124076 0)
(0.201195 -0.13385 0)
(0.171717 -0.135049 0)
(0.138434 -0.12891 0)
(0.103629 -0.116706 0)
(0.0695702 -0.100289 0)
(0.0374352 -0.0812922 0)
(0.0095523 -0.0622472 0)
(-0.0135196 -0.0450045 0)
(-0.0280996 -0.0334777 0)
(-0.0371232 -0.0256845 0)
(-0.0422583 -0.0201088 0)
(-0.0450458 -0.015508 0)
(-0.046247 -0.0112932 0)
(-0.0462852 -0.00708872 0)
(-0.0453778 -0.00269726 0)
(-0.0435602 0.00200889 0)
(-0.0412239 0.00706541 0)
(-0.0383097 0.0125339 0)
(-0.0349556 0.0184958 0)
(-0.0312871 0.0250698 0)
(-0.0273731 0.0325149 0)
(-0.0232942 0.0416735 0)
(-0.0198667 0.0556221 0)
(-0.0175562 0.0787023 0)
(-0.0142811 0.105481 0)
(-0.0119755 0.135137 0)
(0.191072 0.173281 0)
(-0.358486 0.198654 0)
(0.723966 0.134522 0)
(0.0819534 0.115258 0)
(0.149728 0.0991336 0)
(0.222326 0.0803118 0)
(0.24399 0.0696747 0)
(0.248812 0.0473739 0)
(0.255134 0.0172689 0)
(0.261226 -0.0149259 0)
(0.260218 -0.0448803 0)
(0.249691 -0.069702 0)
(0.229429 -0.0876865 0)
(0.201031 -0.0983358 0)
(0.166891 -0.101925 0)
(0.129565 -0.099424 0)
(0.0915399 -0.0920663 0)
(0.0542514 -0.0805225 0)
(0.0203015 -0.0664127 0)
(-0.0107308 -0.0508635 0)
(-0.0330678 -0.0385497 0)
(-0.0481022 -0.0299199 0)
(-0.0572898 -0.0243914 0)
(-0.0628851 -0.0204087 0)
(-0.0662013 -0.017159 0)
(-0.0679963 -0.0141333 0)
(-0.0685942 -0.0111036 0)
(-0.0681563 -0.00789428 0)
(-0.0667829 -0.00434385 0)
(-0.0645289 -0.000294714 0)
(-0.061707 0.00428134 0)
(-0.0585794 0.0093945 0)
(-0.0552518 0.0151771 0)
(-0.0521301 0.0218062 0)
(-0.0497161 0.0297165 0)
(-0.0484162 0.0402132 0)
(-0.0491104 0.0562665 0)
(-0.0541136 0.0790284 0)
(-0.0594114 0.0994371 0)
(-0.0417807 0.113002 0)
(0.0690511 0.162967 0)
(-0.467977 0.238785 0)
(0.192147 0.0879385 0)
(0.225937 0.0996387 0)
(0.246668 0.069891 0)
(0.242714 0.0395174 0)
(0.239829 0.0119092 0)
(0.234736 -0.0129737 0)
(0.219934 -0.033375 0)
(0.196154 -0.0485326 0)
(0.165771 -0.0584231 0)
(0.131264 -0.0634723 0)
(0.0944521 -0.063963 0)
(0.0573123 -0.0606027 0)
(0.021771 -0.054214 0)
(-0.0127889 -0.0448974 0)
(-0.0397721 -0.0358544 0)
(-0.0601075 -0.0284338 0)
(-0.0738711 -0.0235921 0)
(-0.0828551 -0.0204831 0)
(-0.0887347 -0.0183664 0)
(-0.0927362 -0.0165263 0)
(-0.0954136 -0.0147421 0)
(-0.0969961 -0.0129162 0)
(-0.0975559 -0.0109657 0)
(-0.0971058 -0.00876684 0)
(-0.0956403 -0.00614595 0)
(-0.0931524 -0.00288295 0)
(-0.0895951 0.00121854 0)
(-0.0857456 0.00617925 0)
(-0.0817938 0.0121369 0)
(-0.0782261 0.0194882 0)
(-0.0757383 0.0289163 0)
(-0.0744898 0.041798 0)
(-0.0747769 0.0604391 0)
(-0.0810636 0.0860789 0)
(-0.0930834 0.113248 0)
(-0.0853609 0.131195 0)
(-0.098789 0.145904 0)
(-0.563422 0.156714 0)
(0.451634 0.209183 0)
(0.207325 0.178522 0)
(0.153471 0.118683 0)
(0.14006 0.0639695 0)
(0.12844 0.0258971 0)
(0.114143 0.00188565 0)
(0.0986844 -0.0128275 0)
(0.0775624 -0.0220242 0)
(0.0528388 -0.0278081 0)
(0.0256966 -0.0305397 0)
(-0.00402947 -0.0301243 0)
(-0.0328317 -0.0274832 0)
(-0.0582834 -0.0238297 0)
(-0.0794609 -0.020189 0)
(-0.0951477 -0.0176977 0)
(-0.106212 -0.0160335 0)
(-0.113936 -0.0149641 0)
(-0.119727 -0.0139245 0)
(-0.124358 -0.012801 0)
(-0.128117 -0.0116368 0)
(-0.131052 -0.010526 0)
(-0.133136 -0.00951349 0)
(-0.13431 -0.00858972 0)
(-0.13447 -0.00768186 0)
(-0.133465 -0.00662159 0)
(-0.131116 -0.00509327 0)
(-0.127257 -0.00262447 0)
(-0.121719 0.00129428 0)
(-0.11546 0.00694596 0)
(-0.109387 0.0146063 0)
(-0.103688 0.025003 0)
(-0.0979888 0.0392471 0)
(-0.0906358 0.0589458 0)
(-0.0823751 0.0859056 0)
(-0.0763088 0.120988 0)
(-0.0482551 0.157194 0)
(0.0551038 0.150389 0)
(-0.54618 0.0123069 0)
(0.363624 -0.41274 0)
(-0.345442 -0.512561 0)
(-0.21867 -0.0287735 0)
(-0.0922849 0.110717 0)
(-0.0532276 0.0926803 0)
(-0.0310498 0.0548348 0)
(-0.0263672 0.0287913 0)
(-0.0315213 0.0121034 0)
(-0.0405274 0.00124504 0)
(-0.0510687 -0.00598995 0)
(-0.0646673 -0.0105418 0)
(-0.0799695 -0.013146 0)
(-0.0956942 -0.014958 0)
(-0.110614 -0.0170291 0)
(-0.123551 -0.0195396 0)
(-0.133571 -0.0222355 0)
(-0.140777 -0.0247581 0)
(-0.146295 -0.0265873 0)
(-0.15117 -0.027776 0)
(-0.155905 -0.028464 0)
(-0.160521 -0.0287592 0)
(-0.164844 -0.0287009 0)
(-0.168676 -0.0282991 0)
(-0.171841 -0.0275469 0)
(-0.174162 -0.0264262 0)
(-0.175419 -0.0249014 0)
(-0.175323 -0.022896 0)
(-0.17355 -0.0202443 0)
(-0.169831 -0.01662 0)
(-0.164053 -0.0114919 0)
(-0.156171 -0.00421447 0)
(-0.146618 0.00562656 0)
(-0.13684 0.0179519 0)
(-0.125803 0.0325003 0)
(-0.110754 0.0497758 0)
(-0.0887039 0.0702103 0)
(-0.0595806 0.0950008 0)
(-0.018369 0.128435 0)
(0.158054 0.135987 0)
(-0.407518 0.063226 0)
(0.125381 -0.184179 0)
(-0.387001 -0.297072 0)
(-0.342691 -0.0968502 0)
(-0.264426 0.0512192 0)
(-0.210772 0.0835381 0)
(-0.178659 0.0747183 0)
(-0.162379 0.0612769 0)
(-0.156374 0.0512923 0)
(-0.156434 0.0460372 0)
(-0.159693 0.0452748 0)
(-0.16417 0.0481181 0)
(-0.168321 0.0533353 0)
(-0.171555 0.0596089 0)
(-0.173744 0.0648607 0)
(-0.17546 0.067319 0)
(-0.177337 0.0678311 0)
(-0.179872 0.0676951 0)
(-0.183035 0.067879 0)
(-0.186544 0.0683584 0)
(-0.190138 0.0686892 0)
(-0.193628 0.0684641 0)
(-0.196885 0.067447 0)
(-0.199819 0.0655241 0)
(-0.202354 0.0626213 0)
(-0.204412 0.0586363 0)
(-0.2059 0.0534514 0)
(-0.206703 0.0470662 0)
(-0.206691 0.0397948 0)
(-0.205718 0.0323703 0)
(-0.203592 0.0258272 0)
(-0.199967 0.0212164 0)
(-0.194094 0.0192676 0)
(-0.18434 0.0199978 0)
(-0.171446 0.0223521 0)
(-0.154157 0.0257279 0)
(-0.128421 0.0284376 0)
(-0.0893161 0.0274552 0)
(-0.0317984 0.0290779 0)
(0.174437 0.0706419 0)
(-0.392548 0.120954 0)
(1.1462 -0.0110734 0)
(-0.294022 -0.322247 0)
(-0.352439 -0.233424 0)
(-0.351779 -0.149075 0)
(-0.328115 -0.107646 0)
(-0.296363 -0.0989397 0)
(-0.268845 -0.101009 0)
(-0.248679 -0.106605 0)
(-0.23497 -0.114232 0)
(-0.22581 -0.124008 0)
(-0.219564 -0.136361 0)
(-0.21519 -0.151204 0)
(-0.212146 -0.166977 0)
(-0.210338 -0.18064 0)
(-0.210042 -0.18938 0)
(-0.211468 -0.193597 0)
(-0.214191 -0.194551 0)
(-0.217542 -0.193851 0)
(-0.220966 -0.192489 0)
(-0.224223 -0.19082 0)
(-0.227351 -0.188847 0)
(-0.230543 -0.186412 0)
(-0.234046 -0.183291 0)
(-0.238109 -0.179248 0)
(-0.242994 -0.174059 0)
(-0.249004 -0.16752 0)
(-0.256471 -0.159432 0)
(-0.265626 -0.149581 0)
(-0.276352 -0.137756 0)
(-0.287896 -0.123831 0)
(-0.298747 -0.107859 0)
(-0.306805 -0.0900992 0)
(-0.309723 -0.0710603 0)
(-0.304976 -0.0516637 0)
(-0.29343 -0.0341891 0)
(-0.276128 -0.0193004 0)
(-0.247676 -0.00475998 0)
(-0.198756 0.0195472 0)
(-0.176434 0.067989 0)
(-0.570383 0.127831 0)
)
;

boundaryField
{
    floor
    {
        type            noSlip;
    }
    ceiling
    {
        type            noSlip;
    }
    sWall
    {
        type            noSlip;
    }
    nWall
    {
        type            noSlip;
    }
    sideWalls
    {
        type            empty;
    }
    glass1
    {
        type            noSlip;
    }
    glass2
    {
        type            noSlip;
    }
    sun
    {
        type            noSlip;
    }
    Table_master
    {
        type            noSlip;
    }
    Table_slave
    {
        type            noSlip;
    }
    inlet
    {
        type            fixedValue;
        value           uniform (0.5 0 0);
    }
    outlet
    {
        type            zeroGradient;
    }
}


// ************************************************************************* //
