/*--------------------------------*- C++ -*----------------------------------*=========                 |
  \      /  F ield         | OpenFOAM: The Open Source CFD Toolbox
   \    /   O peration     | Website:  https://openfoam.org
    \  /    A nd           | Version:  6
     \/     M anipulation  |
\*---------------------------------------------------------------------------*/
FoamFile
{
    version     2.0;
    format      ascii;
    class       volScalarField;
    location    "20";
    object      PMV;
}
// * * * * * * * * * * * * * * * * * * * * * * * * * * * * * * * * * * * * * //

dimensions      [0 0 0 0 0 0 0];

internalField   nonuniform List<scalar> 
458
(
2.468206829155802
2.2247078486935825
2.120097767305595
2.0366293463877407
1.968234410927518
1.9225742277130762
1.9103423928176482
1.9441801835747492
2.068046036916734
2.1496240565917804
2.2410870406461125
2.342101703923347
2.444117739598184
2.5484863621239966
2.642716540122378
2.7821797737419414
2.786362137816138
2.787755830685643
2.788220346972227
2.787755830685643
2.787755830685643
2.7872912903668907
2.7872912903668907
2.7872912903668907
2.7872912903668907
2.7872912903668907
2.7872912903668907
2.7872912903668907
2.7872912903668907
2.787755830685643
2.7872912903668907
2.7858975256753604
2.7821797737419414
2.4578762804687737
2.1901445025984754
2.055483873501856
1.9382236363448646
1.8447804672417702
1.7702322069441705
1.7146961302439168
1.7134895164472717
1.8674671688193998
2.023968495653399
2.162183681647696
2.2918258358360837
2.4121469584159367
2.519946352814194
2.60850577416615
2.6610017122406475
2.7239678496016295
2.767622800640183
2.7868267260618156
2.789149307264626
2.78961375117797
2.7900781708741107
2.7900781708741107
2.7905425663064864
2.7905425663064864
2.7905425663064864
2.7910069374282096
2.7910069374282096
2.7910069374282096
2.7910069374282096
2.7905425663064864
2.7905425663064864
2.7900781708741107
2.7900781708741107
2.789149307264626
2.7868267260618156
2.479324641650179
2.1771259970724453
2.041454776842357
1.9151294486963646
1.806004826482267
1.6946167701036852
1.5678140017415225
1.516065783274127
1.678332196572362
1.9012471780193478
2.1018996725319012
2.265488677810594
2.3986858736099914
2.5085585165702553
2.5951014875538276
2.6599985646156026
2.7118131242538897
2.7431603385786247
2.788220346972227
2.78961375117797
2.7900781708741107
2.7905425663064864
2.7910069374282096
2.7910069374282096
2.791471284192407
2.7919356065518377
2.7919356065518377
2.7919356065518377
2.7919356065518377
2.7919356065518377
2.7919356065518377
2.791471284192407
2.7910069374282096
2.7910069374282096
2.7905425663064864
2.785380510282175
2.5261762828367136
2.1901137607184094
2.067892011038101
1.9630525158705834
1.859345768614815
1.7038868206154327
1.4777735501593583
1.3522042794371314
1.5084049873448575
1.7798311351989886
2.04265674908674
2.251084934303453
2.400782540216179
2.5118052671369773
2.596921560033521
2.6608662359351536
2.7059283538391155
2.7332730240747827
2.755487256418981
2.783530055911325
2.788684839180594
2.7900781708741107
2.7905425663064864
2.7910069374282096
2.791471284192407
2.791471284192407
2.791471284192407
2.791471284192407
2.791471284192407
2.791471284192407
2.7919356065518377
2.7919356065518377
2.7919356065518377
2.7919356065518377
2.7919356065518377
2.791471284192407
2.784683059800133
2.590078035546109
2.2334373397261054
2.136089950304505
2.0891606756973466
2.0222670962029934
1.7913468420672483
1.4474693623703965
1.24040455123878
1.3671704227613586
1.6756536419891108
1.9965372749915644
2.253782015350629
2.4192674076810956
2.5279371135768822
2.6088330116716434
2.6684701468008463
2.7099153700974212
2.7373780002688077
2.7605279230263604
2.7786704057283935
2.788220346972227
2.78961375117797
2.7905425663064864
2.7910069374282096
2.7910069374282096
2.791471284192407
2.791471284192407
2.791471284192407
2.791471284192407
2.791471284192407
2.791471284192407
2.7919356065518377
2.7919356065518377
2.7923999044593235
2.7923999044593235
2.7928641778674
2.789936450243815
2.7834594785828135
2.780076448437441
2.7822408864027897
2.664050569012202
2.30446992701629
2.2420221517279377
2.2582634366827676
2.18141746460079
1.85859814596546
1.4328757306880753
1.171418089312595
1.2644249679226842
1.6040909865662365
1.9808396523951246
2.2835879978482003
2.454421868113728
2.5525457522006585
2.627199519110112
2.680708627469654
2.7179844816887857
2.74316491188136
2.7628705146552126
2.778055649968523
2.787755830685643
2.789149307264626
2.7900781708741107
2.7905425663064864
2.7910069374282096
2.7910069374282096
2.7910069374282096
2.7910069374282096
2.791471284192407
2.791471284192407
2.791471284192407
2.7919356065518377
2.7919356065518377
2.7928641778674
2.7933284267283804
2.794721025550563
2.7943099563746503
2.7904426575234758
2.7843233957429976
2.782447397972442
2.758539122463342
2.4159481451223925
2.3980837760798432
2.379991579455875
2.224240604886765
1.8284727588996161
1.3492807019890576
1.0808527500400336
1.1965679072255506
1.5862310802711082
2.021052301145948
2.324642379150732
2.4912149054459127
2.5805525385526944
2.646828202192684
2.6936818701858356
2.7258463979388887
2.7488892965016882
2.765736424472544
2.779077134848988
2.7872912903668907
2.789149307264626
2.7900781708741107
2.7905425663064864
2.7905425663064864
2.7910069374282096
2.7910069374282096
2.7910069374282096
2.7910069374282096
2.7910069374282096
2.791471284192407
2.791471284192407
2.7919356065518377
2.7928641778674
2.794256850617992
2.7965774774038503
2.7992772738479283
2.798986019698831
2.7929215902954585
2.7786346722180513
2.8790954901371086
2.651558865248657
2.588996716811003
2.499872123812773
2.1551395721397655
1.5891657745488799
1.089280858898716
0.922894803322347
1.172055024187608
1.6609735383239543
2.1414689028113996
2.404690369994424
2.524699161973322
2.6074259683806127
2.6655841406665175
2.7057037916155795
2.7337238000790975
2.753717561427106
2.768761148624983
2.7801471294297593
2.7872912903668907
2.788684839180594
2.78961375117797
2.7900781708741107
2.7900781708741107
2.7905425663064864
2.7905425663064864
2.7905425663064864
2.7905425663064864
2.7905425663064864
2.7910069374282096
2.791471284192407
2.7919356065518377
2.7933284267283804
2.7951851757439115
2.7988974808323017
2.7988010033516098
2.80227527275279
2.790755720030218
2.771204673048434
3.0
2.9224492555862667
2.766010462630416
2.4405189773551137
1.6012847742280394
0.8647945655964614
0.559112374159071
0.7350543453942107
1.2884108532913667
1.9166997920081825
2.286599250399446
2.4571169925359984
2.563938240311334
2.6346359881579597
2.683660674589459
2.717207252671866
2.741319152410801
2.7584364883741768
2.771532670782929
2.7821132052656665
2.7872912903668907
2.788684839180594
2.789149307264626
2.78961375117797
2.78961375117797
2.78961375117797
2.7900781708741107
2.7900781708741107
2.7900781708741107
2.7900781708741107
2.7905425663064864
2.7905425663064864
2.791471284192407
2.7928641778674
2.7956493011497043
2.7935270715725644
2.7906115482520586
2.789004721380067
2.783818652127228
2.7744293561405815
-2.8234802760796085
-2.6230544862925997
-2.041677732441875
-1.0805731793522544
-0.054918748830921627
0.9424206756389857
1.8300497461278733
2.187124037886617
2.396812392253666
2.524440049596985
2.6067851074663024
2.6623162056502707
2.70100551372509
2.7287441711725755
2.7485782973709014
2.76358946575784
2.775745529996221
2.7854328896848974
2.7872912903668907
2.787755830685643
2.788684839180594
2.788684839180594
2.788684839180594
2.788684839180594
2.789149307264626
2.789149307264626
2.789149307264626
2.789149307264626
2.789149307264626
2.78961375117797
2.7900781708741107
2.791471284192407
2.7933284267283804
2.7965774774038503
2.796888222065276
2.798856148084141
2.8067807456056473
2.774635805985986
-2.666618063508311
-1.144294343266371
0.13836621946094388
0.9572972800831621
1.4533274529338733
1.8673854027651622
2.187066320303618
2.384995808317213
2.510900744951159
2.593331943801221
2.6498297533915585
2.6896863099171884
2.718668239005813
2.7405019002526547
2.7573608100865026
2.7708074676356866
2.7819307144679746
2.784968229889997
2.786362137816138
2.7868267260618156
2.7868267260618156
2.7872912903668907
2.7872912903668907
2.7872912903668907
2.7871079817586297
2.7866709865048005
2.7863074566156527
2.786017139809082
2.785849681177667
2.786378399434762
2.7873809424418896
2.789149307264626
2.7905425663064864
2.7928641778674
2.794514260882692
2.785190785873379
2.7701965480083146
2.7671830311783707
-0.5897669346448672
-0.6157218430547057
-0.5010290921549695
0.7928619686926848
1.6127593933640152
2.018932986236403
2.2243332160033265
2.3677060200270006
2.4773945409611744
2.557684180546881
2.614652959638176
2.6553310938600108
2.6845758787096226
2.7060545491798527
2.721689065948824
2.7317626745787416
2.738220137787602
2.7411848969311134
2.7420295035636513
2.7421644131002947
2.7413249625037452
2.7406449976769967
2.740121991796127
2.7397200147098983
2.73940669567835
2.739160348769675
2.738963775303213
2.7388051556901054
2.7386749804596087
2.738562173194651
2.7384559381258393
2.7383440970746933
2.738732608689436
2.7390569261980207
2.739873237100214
2.741110815591239
2.741253514560135
2.738969618589259
2.7350196397733937
2.721401253655289
)
;

boundaryField
{
    ".*"
    {
        type            zeroGradient;
    }
}


// ************************************************************************* //
