/*--------------------------------*- C++ -*----------------------------------*=========                 |
  \      /  F ield         | OpenFOAM: The Open Source CFD Toolbox
   \    /   O peration     | Website:  https://openfoam.org
    \  /    A nd           | Version:  6
     \/     M anipulation  |
\*---------------------------------------------------------------------------*/
FoamFile
{
    version     2.0;
    format      ascii;
    class       volScalarField;
    location    "20";
    object      PPD;
}
// * * * * * * * * * * * * * * * * * * * * * * * * * * * * * * * * * * * * * //

dimensions      [0 0 0 0 0 0 0];

internalField   nonuniform List<scalar> 
458
(
92.73451970950372
85.77772971528502
81.86861676505448
78.37824961951908
75.2952904436782
73.13676091589146
72.54600009046251
74.16757502668412
79.72870611200807
83.02612448692308
86.34049397404945
89.50832018362757
92.17948846633236
94.38433542216032
95.95252787735771
97.63674442165633
97.67697832099087
97.69026466481755
97.694679623696
97.69026466481755
97.69026466481755
97.68584279947733
97.68584279947733
97.68584279947733
97.68584279947733
97.68584279947733
97.68584279947733
97.68584279947733
97.68584279947733
97.69026466481755
97.68584279947733
97.67253569363201
97.63674442165633
92.4999651844747
84.54582626251577
79.19389478947521
73.88504259502686
69.2981279309647
65.46194758925807
62.52723349908916
62.462889030702435
70.4367620352287
77.82199677284106
83.50576994345377
87.99703894790945
91.39869641945646
93.83230769492953
95.42677510332943
96.21416457338864
97.01777732403218
97.492406998878
97.6814140205703
97.70348885048243
97.70788313259617
97.71227053665869
97.71227053665869
97.7166510697713
97.7166510697713
97.7166510697713
97.72102473903274
97.72102473903274
97.72102473903274
97.72102473903274
97.7166510697713
97.7166510697713
97.71227053665869
97.71227053665869
97.70348885048243
97.6814140205703
92.98117535061247
84.0663722286269
78.58845928436381
72.77780494295007
67.31955868572777
61.453717780435674
54.58402072918378
51.765893196250815
60.57912656562539
72.10347591282732
81.13465637954859
87.15359759041644
91.05468710264684
93.60154820099757
95.20749708333527
96.20015198054236
96.87396430832467
97.23435887715382
97.694679623696
97.70788313259617
97.71227053665869
97.7166510697713
97.72102473903274
97.72102473903274
97.72539155154247
97.72975151439707
97.72975151439707
97.72975151439707
97.72975151439707
97.72975151439707
97.72975151439707
97.72539155154247
97.72102473903274
97.72102473903274
97.7166510697713
97.6675841018244
93.95599796756528
84.5447039772182
79.72219109182132
75.05417523833324
70.03085896540865
61.95004074732617
49.68714462812853
42.97685326478456
51.34934926537752
65.96318599855928
78.64066514089939
86.67731112043668
91.1088679195187
93.66795638988444
95.23771892261539
96.21227444745524
96.80244169352892
97.12436835174063
97.36686367284858
97.64979362786109
97.6990876832164
97.71227053665869
97.7166510697713
97.72102473903274
97.72539155154247
97.72539155154247
97.72539155154247
97.72539155154247
97.72539155154247
97.72539155154247
97.72975151439707
97.72975151439707
97.72975151439707
97.72975151439707
97.72975151439707
97.72539155154247
97.66089126260746
95.12334834494702
86.07935395788496
82.50072555595072
80.61172686876914
77.74673111040387
66.56187917316002
48.04988017602402
37.24045799336048
43.76452838725494
60.434963516392024
76.59394377307578
86.76730073156975
91.57699312980112
93.99063279944912
95.43203340112281
96.31725965088295
96.85103546312703
97.17043928035753
97.41959396839749
97.60256231257699
97.694679623696
97.70788313259617
97.7166510697713
97.72102473903274
97.72102473903274
97.72539155154247
97.72539155154247
97.72539155154247
97.72539155154247
97.72539155154247
97.72539155154247
97.72975151439707
97.72975151439707
97.73410463469423
97.73410463469423
97.73845091952951
97.71093239684316
97.6491129757068
97.61630398979143
97.63733625011189
96.25651244880646
88.38932587429198
86.37221230857863
86.91600547308654
84.22534793817738
69.99339620679045
47.26471034141842
33.85892509655241
38.448356658330454
56.55928825815358
75.87753256296308
87.73704435644997
92.42037326725442
94.45984317944186
95.7200097808736
96.48156767108468
96.94763733939872
97.23440898241505
97.44381637497534
97.59653454208741
97.69026466481755
97.70348885048243
97.71227053665869
97.7166510697713
97.72102473903274
97.72102473903274
97.72102473903274
97.72102473903274
97.72539155154247
97.72539155154247
97.72539155154247
97.72975151439707
97.72975151439707
97.73845091952951
97.7427903759969
97.75576784612741
97.751943299017
97.71570921406892
97.65743395290671
97.63933528862063
97.39888890342907
91.49419380697006
91.03908714147194
90.56179078464098
85.76147668589145
68.47077789870399
42.82345795497998
29.642012380451064
35.075901176048546
55.58722982276401
77.69291755384474
88.99819353291507
93.23839864392983
94.96079954181587
96.0125146469549
96.64956583496195
97.03953905192994
97.29657280664638
97.47320696609025
97.60654379926281
97.68584279947733
97.70348885048243
97.71227053665869
97.7166510697713
97.7166510697713
97.72102473903274
97.72102473903274
97.72102473903274
97.72102473903274
97.72102473903274
97.72539155154247
97.72539155154247
97.72975151439707
97.73845091952951
97.75144883220378
97.77297597272
97.79781466308724
97.79514567914615
97.73898792604163
97.60221226665627
98.4381761603524
96.08069983596012
95.10509326778873
93.42144458547776
83.23770307013683
55.747025374942005
30.022897267276306
22.986461886733977
33.8895117278383
59.64346664731551
82.71059327770168
91.20926148095076
93.92683326930582
95.40939205251516
96.2776769936446
96.79968764655274
97.1294558028048
97.34815227375728
97.50393785103321
97.61699313377308
97.68584279947733
97.6990876832164
97.70788313259617
97.71227053665869
97.71227053665869
97.7166510697713
97.7166510697713
97.7166510697713
97.7166510697713
97.7166510697713
97.72102473903274
97.72539155154247
97.72975151439707
97.7427903759969
97.76008006005145
97.79433382198594
97.79344890195439
97.82513900341183
97.71865947679076
97.52854874166981
100.0
98.71694802762275
97.47600334041742
92.09412894363953
56.40663026823122
20.78392499870624
11.545686634938548
16.373134856260805
39.66879534862305
72.85367756843058
87.83248615396136
92.48252065505137
94.66780942463939
95.83266037094816
96.52034931421458
96.93843345749319
97.21412922565135
97.39781687713156
97.53183772148738
97.6360996248292
97.68584279947733
97.6990876832164
97.70348885048243
97.70788313259617
97.70788313259617
97.70788313259617
97.71227053665869
97.71227053665869
97.71227053665869
97.71227053665869
97.7166510697713
97.7166510697713
97.72539155154247
97.73845091952951
97.7643854810664
97.74464514760906
97.71730119412543
97.70211950968634
97.65257524987753
97.56073488954739
98.01080687285611
95.65623767007737
78.59814772238744
29.629420257529972
5.062442555505314
23.757275805240482
68.55109522397463
84.4353347209845
91.00608639518998
93.9217068912192
95.39905208467397
96.23246688738419
96.74164773609932
97.07286617273068
97.29322379586793
97.45121445993563
97.57377667606076
97.66808613138649
97.68584279947733
97.69026466481755
97.6990876832164
97.6990876832164
97.6990876832164
97.6990876832164
97.70348885048243
97.70348885048243
97.70348885048243
97.70348885048243
97.70348885048243
97.70788313259617
97.71227053665869
97.72539155154247
97.7427903759969
97.77297597272
97.7758461389304
97.79395474022378
97.8656961247801
97.56278421303506
96.2918946048592
32.56804505117633
5.396651566720095
24.354696903122274
48.36570333525464
70.43268511513502
84.43321894572898
90.69546543832601
93.64950512375007
95.17797853016138
96.05588028522938
96.59849430661723
96.9557166346025
97.20511298096685
97.38656044916308
97.5245611735468
97.63433126737482
97.66362962714615
97.67697832099087
97.6814140205703
97.6814140205703
97.68584279947733
97.68584279947733
97.68584279947733
97.68409608292458
97.67992782867313
97.67645580662003
97.67368008630122
97.67207782317338
97.67713369341082
97.68669669980348
97.70348885048243
97.7166510697713
97.73845091952951
97.75384477240476
97.66576497686513
97.51841824635824
97.48794118460314
12.290263792829776
12.95256228379381
10.246557688886824
18.250474697869066
57.030629074575785
77.5988878267608
85.76469903075623
90.22822416294025
92.93878220060151
94.55436091597305
95.52480342159052
96.13443635388688
96.53230594260586
96.80398856084437
96.99121302545377
97.10727149374824
97.17981935807322
97.21264962427462
97.22194767551288
97.22343061780703
97.21419324364734
97.206693326685
97.20091395248625
97.19646565788489
97.19299464125756
97.19026320770665
97.18808216583835
97.186321272805
97.1848755098589
97.18362217284786
97.18244145868812
97.1811980224548
97.18551561660074
97.1891158673295
97.19816187174058
97.2118329273803
97.21340592118077
97.18814701785867
97.14404167917733
96.9878449449681
)
;

boundaryField
{
    ".*"
    {
        type            zeroGradient;
    }
}


// ************************************************************************* //
