/*--------------------------------*- C++ -*----------------------------------*\
  =========                 |
  \\      /  F ield         | OpenFOAM: The Open Source CFD Toolbox
   \\    /   O peration     | Website:  https://openfoam.org
    \\  /    A nd           | Version:  6
     \\/     M anipulation  |
\*---------------------------------------------------------------------------*/
FoamFile
{
    version     2.0;
    format      ascii;
    class       volScalarField;
    location    "4620";
    object      epsilon;
}
// * * * * * * * * * * * * * * * * * * * * * * * * * * * * * * * * * * * * * //

dimensions      [0 2 -3 0 0 0 0];

internalField   nonuniform List<scalar> 
458
(
0.000432798
0.000557902
0.000596576
0.000686362
0.000776642
0.000869128
0.000968762
0.00107734
0.00117191
0.00123406
0.00124121
0.00117486
0.00102241
0.000744345
0.000324955
3.92337e-05
6.32099e-05
9.2117e-05
0.000104423
9.95965e-05
8.16191e-05
6.44081e-05
5.12248e-05
4.13721e-05
3.39166e-05
2.81893e-05
2.37378e-05
2.02074e-05
1.73133e-05
1.48367e-05
1.25996e-05
1.13836e-05
8.83705e-06
0.00106111
0.00158339
0.000518396
0.000502568
0.000518403
0.000550855
0.000606193
0.000688384
0.000779615
0.000853829
0.000881926
0.000847694
0.000756804
0.000623953
0.000502
0.00074734
0.00042675
0.00023178
3.82919e-05
7.53676e-05
9.27341e-05
9.34117e-05
8.97138e-05
9.00217e-05
7.05468e-05
5.34834e-05
4.07981e-05
3.15299e-05
2.47349e-05
1.97173e-05
1.59629e-05
1.31644e-05
1.14025e-05
1.06878e-05
3.04948e-05
2.00783e-05
0.00190708
0.00384825
0.000603704
0.000458228
0.000465945
0.000508052
0.00058033
0.000683493
0.00079692
0.000884145
0.0009178
0.000887725
0.000801833
0.000667046
0.000517531
0.000416322
0.000352977
0.000381798
0.000139946
0.000139209
0.000125545
0.000111476
0.000103482
0.000198143
0.000132963
9.11208e-05
6.45156e-05
4.7278e-05
3.58063e-05
2.79816e-05
2.25601e-05
1.88644e-05
1.48246e-05
1.31276e-05
6.48905e-05
3.31352e-05
0.0030634
0.00799435
0.00090373
0.000438969
0.000429192
0.000481197
0.000574908
0.000717848
0.000862442
0.000957791
0.000989007
0.000952702
0.00085507
0.000703202
0.000548407
0.000432273
0.000365794
0.000380438
0.0005838
0.000375775
0.000245111
0.000178218
0.000140427
0.000122955
0.000283176
0.000218103
0.000180034
0.000154974
0.000135691
0.000118209
0.000103042
8.84879e-05
7.32943e-05
4.5398e-05
2.92889e-05
0.000114643
5.06206e-05
0.0046497
0.014428
0.00174036
0.000470822
0.000395576
0.000451526
0.000588808
0.000832703
0.00101847
0.00111171
0.00112818
0.00106906
0.000937332
0.000753649
0.000564816
0.000420018
0.000331633
0.000302656
0.000303803
0.00025356
0.000209337
0.000175075
0.000146256
0.000122029
0.000113025
0.000103776
9.75141e-05
9.21729e-05
8.61808e-05
7.87579e-05
7.08776e-05
6.31504e-05
5.58971e-05
4.60254e-05
3.61877e-05
7.4765e-05
0.000114606
0.000120976
0.000143505
0.000184282
0.00687176
0.021736
0.00400156
0.000790619
0.000465009
0.000473969
0.000700558
0.00111959
0.00130594
0.00136559
0.00134326
0.00124581
0.00106693
0.000825083
0.000577527
0.000388637
0.000278755
0.000238452
0.000228154
0.000218167
0.000201065
0.000176703
0.000149247
0.00012371
0.000107286
0.00010087
9.97211e-05
9.93213e-05
9.71846e-05
9.16496e-05
8.16992e-05
7.04394e-05
5.9795e-05
5.01395e-05
4.34332e-05
5.5522e-05
8.83481e-05
0.00010613
0.000206707
0.000205618
0.00966109
0.0261942
0.00879519
0.00280009
0.00145394
0.00114072
0.00148257
0.00172628
0.00178572
0.00174885
0.00164947
0.00148312
0.00122962
0.000907894
0.000588085
0.000355789
0.000234407
0.000200134
0.000202295
0.000202942
0.000189964
0.000166785
0.000141289
0.000120161
0.00010903
0.000108516
0.000113631
0.000120122
0.000125697
0.000128147
0.000124066
0.000111064
9.74673e-05
8.59144e-05
8.04264e-05
8.87041e-05
0.000120572
0.000176759
0.000327312
0.000344784
0.0104481
0.0301014
0.0160957
0.00965272
0.00596993
0.00418033
0.00338338
0.00287587
0.00253806
0.00228105
0.00203887
0.0017607
0.00139698
0.00096824
0.000561253
0.000300409
0.000190346
0.000174346
0.000179599
0.000177083
0.000162172
0.000141924
0.000124109
0.000113525
0.000112222
0.000119058
0.000131173
0.000146864
0.000165772
0.000187765
0.000212063
0.000232934
0.000245997
0.000273131
0.000329088
0.000480082
0.000820547
0.00137763
0.00411035
0.00128189
0.00984348
0.0172566
0.0132407
0.00999031
0.00750808
0.00579393
0.00458952
0.00379049
0.00325077
0.00282331
0.00242639
0.00200594
0.00148344
0.000913866
0.000406967
0.000216054
0.000158851
0.000147504
0.000144431
0.000136908
0.000124582
0.000112488
0.000104968
0.000104105
0.000109947
0.000121519
0.000138068
0.0001599
0.000188371
0.000225734
0.000275056
0.000339953
0.00042727
0.000551999
0.000734123
0.000976867
0.00125106
0.00149864
0.00170332
0.00104488
0.00347889
0.00472041
0.00512292
0.0050276
0.00473205
0.00431869
0.00378225
0.00315689
0.00254668
0.00194772
0.00116388
0.00053666
0.000254612
0.000159707
0.000129176
0.000118205
0.000110938
0.000103126
9.54828e-05
8.99973e-05
8.84701e-05
9.133e-05
9.81883e-05
0.000108632
0.000122683
0.000140911
0.000164565
0.000195768
0.000237994
0.000297015
0.000378476
0.000488603
0.000629971
0.000786488
0.00091134
0.000944813
0.000871177
0.000544303
0.00289523
0.00861957
0.00827916
0.00717022
0.00607265
0.00478765
0.00347702
0.00225632
0.00128246
0.00070988
0.000375242
0.000215445
0.000151306
0.000124245
0.000111167
0.000102278
9.42931e-05
8.71197e-05
8.17686e-05
7.89806e-05
7.90454e-05
8.20736e-05
8.80223e-05
9.70702e-05
0.000109733
0.000126933
0.000150053
0.000181164
0.000223223
0.000279994
0.000356633
0.000458312
0.000585867
0.000728699
0.000842148
0.000956399
0.000733673
0.000565744
0.00336773
0.00362358
0.00386705
0.00532556
0.00449791
0.00313107
0.00188006
0.00115779
0.000823425
0.000572118
0.000398374
0.000290056
0.00021534
0.000168153
0.000139761
0.000121188
0.000107503
9.65848e-05
8.81485e-05
8.27433e-05
8.0786e-05
8.2255e-05
8.6714e-05
9.35569e-05
0.000102706
0.000114298
0.000128661
0.000146424
0.000168521
0.000196593
0.000232115
0.000276443
0.000331735
0.00040067
0.000486241
0.000603873
0.000660826
0.000621062
0.000499765
0.000395349
)
;

boundaryField
{
    floor
    {
        Cmu             0.09;
        kappa           0.41;
        E               9.8;
        type            epsilonWallFunction;
        value           nonuniform List<scalar> 
36
(
0.000324955
3.92337e-05
6.32099e-05
9.2117e-05
0.000104423
9.95965e-05
8.16191e-05
6.44081e-05
5.12248e-05
4.13721e-05
3.39166e-05
2.81893e-05
2.37378e-05
2.02074e-05
1.73133e-05
1.48367e-05
1.25996e-05
1.13836e-05
8.83705e-06
8.83705e-06
2.00783e-05
3.31352e-05
5.06206e-05
0.000120976
0.000143505
0.000184282
0.000324955
0.00074734
0.00042675
0.00023178
3.92337e-05
0.00023178
3.82919e-05
0.000381798
0.000139946
0.0005838
)
;
    }
    ceiling
    {
        Cmu             0.09;
        kappa           0.41;
        E               9.8;
        type            epsilonWallFunction;
        value           nonuniform List<scalar> 
43
(
0.00336773
0.00362358
0.00386705
0.00532556
0.00449791
0.00313107
0.00188006
0.00115779
0.000823425
0.000572118
0.000398374
0.000290056
0.00021534
0.000168153
0.000139761
0.000121188
0.000107503
9.65848e-05
8.81485e-05
8.27433e-05
8.0786e-05
8.2255e-05
8.6714e-05
9.35569e-05
0.000102706
0.000114298
0.000128661
0.000146424
0.000168521
0.000196593
0.000232115
0.000276443
0.000331735
0.00040067
0.000486241
0.000603873
0.000660826
0.000621062
0.000499765
0.000395349
0.00984348
0.0172566
0.00289523
)
;
    }
    sWall
    {
        Cmu             0.09;
        kappa           0.41;
        E               9.8;
        type            epsilonWallFunction;
        value           uniform 0.00336773;
    }
    nWall
    {
        Cmu             0.09;
        kappa           0.41;
        E               9.8;
        type            epsilonWallFunction;
        value           nonuniform List<scalar> 6(0.000184282 0.000205618 0.000344784 0.000544303 0.000565744 0.000395349);
    }
    sideWalls
    {
        type            empty;
    }
    glass1
    {
        Cmu             0.09;
        kappa           0.41;
        E               9.8;
        type            epsilonWallFunction;
        value           nonuniform List<scalar> 9(0.000432798 0.00106111 0.00190708 0.0030634 0.0046497 0.00687176 0.00966109 0.0104481 0.00984348);
    }
    glass2
    {
        Cmu             0.09;
        kappa           0.41;
        E               9.8;
        type            epsilonWallFunction;
        value           nonuniform List<scalar> 2(0.00128189 0.00104488);
    }
    sun
    {
        Cmu             0.09;
        kappa           0.41;
        E               9.8;
        type            epsilonWallFunction;
        value           nonuniform List<scalar> 
14
(
0.000432798
0.000557902
0.000596576
0.000686362
0.000776642
0.000869128
0.000968762
0.00107734
0.00117191
0.00123406
0.00124121
0.00117486
0.00102241
0.000744345
)
;
    }
    Table_master
    {
        Cmu             0.09;
        kappa           0.41;
        E               9.8;
        type            epsilonWallFunction;
        value           nonuniform List<scalar> 9(0.000198143 0.000132963 9.11208e-05 6.45156e-05 4.7278e-05 3.58063e-05 2.79816e-05 2.25601e-05 1.88644e-05);
    }
    Table_slave
    {
        Cmu             0.09;
        kappa           0.41;
        E               9.8;
        type            epsilonWallFunction;
        value           nonuniform List<scalar> 9(0.000283176 0.000218103 0.000180034 0.000154974 0.000135691 0.000118209 0.000103042 8.84879e-05 7.32943e-05);
    }
    inlet
    {
        type            turbulentMixingLengthDissipationRateInlet;
        mixingLength    0.01;
        phi             phi;
        k               k;
        value           uniform 0.000471672;
    }
    outlet
    {
        type            zeroGradient;
    }
}


// ************************************************************************* //
