/*--------------------------------*- C++ -*----------------------------------*\
  =========                 |
  \\      /  F ield         | OpenFOAM: The Open Source CFD Toolbox
   \\    /   O peration     | Website:  https://openfoam.org
    \\  /    A nd           | Version:  6
     \\/     M anipulation  |
\*---------------------------------------------------------------------------*/
FoamFile
{
    version     2.0;
    format      ascii;
    class       volScalarField;
    location    "17600";
    object      alphat;
}
// * * * * * * * * * * * * * * * * * * * * * * * * * * * * * * * * * * * * * //

dimensions      [1 -1 -1 0 0 0 0];

internalField   nonuniform List<scalar> 
778
(
0.00104098
0.00111055
0.00110658
0.00115464
0.00119869
0.0012387
0.00127595
0.00131185
0.00134799
0.0013864
0.00142301
0.00145778
0.00149203
0.00152886
0.0015673
0.000736839
0.00105524
0.00106374
0.00103793
0.000994838
0.00093733
0.000880048
0.000827264
0.000779652
0.000736944
0.000698884
0.000664698
0.00063356
0.0006045
0.000576221
0.000546654
0.000522115
0.000472592
0.00152464
0.00300725
0.00263925
0.00304627
0.00334168
0.00365492
0.00396741
0.00425541
0.00448721
0.00462212
0.00470142
0.00466872
0.00443583
0.00385904
0.00281852
0.00171601
0.00163614
0.00156617
0.00131871
0.00224612
0.00311274
0.00362425
0.00364787
0.00287946
0.00246253
0.00217356
0.00195439
0.00178013
0.00163147
0.00149998
0.00137761
0.00125788
0.00115042
0.00105774
0.00119174
0.000599151
0.00193409
0.00419868
0.0031135
0.00445312
0.00497577
0.00541815
0.00581997
0.00617363
0.00647321
0.006708
0.00693553
0.00717488
0.00739475
0.00752555
0.00743865
0.00681105
0.00498193
0.00192118
0.00166382
0.00355987
0.00496734
0.00563228
0.00512136
0.00135133
0.00117493
0.00103891
0.00093252
0.000847885
0.000779583
0.000723869
0.000678543
0.000643195
0.000707227
0.000832002
0.00131817
0.000681611
0.00232902
0.00565816
0.00297923
0.00500692
0.00578042
0.00619432
0.00649867
0.00672385
0.00689192
0.00702814
0.00722193
0.00754929
0.00802694
0.00862768
0.00923192
0.0095302
0.00895035
0.00668029
0.00191371
0.00443132
0.00659475
0.0076934
0.00796352
0.0067975
0.0015391
0.00139979
0.00129197
0.00120232
0.00112595
0.00105739
0.000992752
0.000928557
0.000859202
0.000802806
0.000832446
0.00142805
0.000750357
0.00271825
0.00749009
0.00300554
0.00475974
0.00594881
0.00630147
0.00642937
0.00643414
0.00637017
0.00631361
0.0063948
0.00671279
0.00729622
0.00812264
0.00908178
0.00996623
0.0105282
0.0105232
0.00944531
0.00961174
0.00983346
0.00986481
0.00966379
0.00904439
0.00719691
0.00621611
0.0055444
0.00499843
0.00446327
0.00394505
0.00343811
0.00293191
0.00241197
0.00185251
0.00141331
0.00141325
0.00111762
0.00089524
0.00119272
0.00113611
0.00310117
0.0095402
0.00353805
0.00401381
0.00569961
0.00609067
0.00605891
0.00584045
0.00552845
0.00527129
0.00526563
0.00559859
0.00626295
0.00722067
0.00834254
0.00946459
0.0104202
0.0110317
0.0111443
0.0110338
0.010839
0.0105617
0.0102045
0.0097498
0.00908644
0.00844754
0.00786761
0.00730673
0.00670139
0.00605526
0.00536534
0.0046258
0.00383198
0.0029897
0.00222652
0.00167163
0.00129777
0.00146703
0.00256446
0.00135572
0.00349192
0.0114354
0.00471443
0.00328815
0.0051214
0.00576103
0.00568925
0.00533575
0.00482345
0.00437314
0.00436032
0.00478054
0.00554058
0.0066107
0.00782933
0.00903695
0.0100773
0.0108233
0.0111674
0.0111424
0.0108985
0.0105283
0.0101038
0.00968
0.00927007
0.00889396
0.00854064
0.00816318
0.00770738
0.00715899
0.00650999
0.0057574
0.00490428
0.00397208
0.00305974
0.00220875
0.00162581
0.0014618
0.00261295
0.00160375
0.00382767
0.0128683
0.00642698
0.0031304
0.0040574
0.00510787
0.0052533
0.00496238
0.00435786
0.00374462
0.00388363
0.00443934
0.00528927
0.00639191
0.00765755
0.0089215
0.0100004
0.0107507
0.0110923
0.0110491
0.0107338
0.0102682
0.00976701
0.00932235
0.0089795
0.00873458
0.00854352
0.00833548
0.00804583
0.00764052
0.00710376
0.00643259
0.00563371
0.00473054
0.00378966
0.00283402
0.00197266
0.00133097
0.00385801
0.00212438
0.0039289
0.0121733
0.00794997
0.00404604
0.00274956
0.00337126
0.00394509
0.00399245
0.00352498
0.00342546
0.00378116
0.00443456
0.00535389
0.0065239
0.00785098
0.00915393
0.0102285
0.0109198
0.0111628
0.0109963
0.0105386
0.00993822
0.00934252
0.00886716
0.00856541
0.00841741
0.00835046
0.00827069
0.00810422
0.00781145
0.00737681
0.00679892
0.00608556
0.00525543
0.00434192
0.00331067
0.00189549
0.00169928
0.00612517
0.00239586
0.00384946
0.00981115
0.00820743
0.00555223
0.00366674
0.00283929
0.0026902
0.00281749
0.00305354
0.00342995
0.00396453
0.00470036
0.0057014
0.00696457
0.00836526
0.00968687
0.0107042
0.011263
0.0113196
0.0109423
0.0102801
0.00951886
0.00883961
0.00837411
0.00816077
0.00813625
0.00818317
0.00818276
0.00807533
0.00783855
0.00746514
0.00695512
0.00631293
0.00554303
0.00462231
0.00332239
0.00145847
0.00306326
0.00580489
0.00244274
0.00360586
0.00838464
0.00793386
0.00635223
0.00488889
0.00393564
0.00346425
0.00335776
0.0035531
0.00391304
0.0044364
0.00521444
0.00632222
0.00770984
0.00918369
0.0104772
0.0113514
0.0116723
0.0114379
0.0107651
0.00985517
0.0089455
0.00825418
0.00790673
0.00786692
0.00798236
0.00809915
0.00810129
0.0079881
0.00775904
0.00740992
0.00693659
0.0063314
0.00556427
0.00451786
0.00296406
0.00158725
0.00327067
0.00647632
0.00247646
0.00328326
0.00755968
0.00765247
0.00672298
0.00571953
0.00496375
0.00451852
0.00435869
0.00439907
0.00461715
0.005099
0.00597056
0.00725479
0.00879515
0.0103019
0.0114637
0.0120549
0.0119942
0.0113506
0.0103136
0.00916253
0.00820105
0.00765459
0.00754509
0.00764383
0.00779957
0.00790082
0.00787216
0.00773998
0.00750724
0.00716759
0.00670697
0.00608261
0.00518984
0.00381086
0.00224741
0.00187007
0.00375967
0.0065371
0.00260904
0.00299377
0.00676236
0.00730671
0.00686765
0.00622382
0.00568263
0.00532248
0.00514659
0.00509515
0.00528246
0.00589596
0.0070381
0.00859628
0.0102668
0.0116752
0.0125106
0.0126145
0.0120029
0.0108525
0.00945045
0.00818567
0.00736997
0.00700889
0.0069701
0.00708687
0.00723701
0.00732747
0.00729665
0.00715978
0.00692051
0.00656947
0.0060718
0.00531283
0.00405518
0.00246725
0.00180269
0.00237691
0.00426427
0.00665957
0.00254282
0.00300387
0.00671258
0.0074652
0.00695006
0.006429
0.00600216
0.00569442
0.00549595
0.00548985
0.00594396
0.00702784
0.00864975
0.0104807
0.0120947
0.0131151
0.0133227
0.0127003
0.0114002
0.00975602
0.00816428
0.00700542
0.0063188
0.00600423
0.00594965
0.00604384
0.00617817
0.00625891
0.00622326
0.00606658
0.00579897
0.00541193
0.00485302
0.003974
0.00272752
0.00185245
0.00200779
0.00295105
0.00438993
0.00562841
0.00238574
0.00270988
0.00282051
0.00416496
0.00489667
0.00512418
0.00512949
0.00508207
0.00517951
0.00581093
0.00715783
0.00905729
0.011111
0.0128676
0.0139486
0.014131
0.0133759
0.0118735
0.00991968
0.00805733
0.00659389
0.00560985
0.00505318
0.00481388
0.00476476
0.00480575
0.00485551
0.00484534
0.0047338
0.0045065
0.00419576
0.00382079
0.00337719
0.00282426
0.00220757
0.00190382
0.00228385
0.00326473
0.00446415
0.00524382
0.00228814
0.000963493
0.00173708
0.00266662
0.00341442
0.00428353
0.00575201
0.00791336
0.0103155
0.0125067
0.0141476
0.0150034
0.014917
0.0138904
0.012036
0.00983463
0.00775188
0.00609787
0.00499444
0.00439618
0.0041158
0.00399171
0.00393194
0.00388207
0.00380089
0.00366103
0.00346197
0.00322513
0.00299021
0.00278598
0.00261766
0.00247066
0.00234167
0.00232308
0.00265668
0.00352664
0.00479157
0.00599465
0.00240413
0.00178738
0.00247201
0.00359917
0.00560874
0.00832782
0.0110477
0.0131475
0.014665
0.0155897
0.0158544
0.0153343
0.013902
0.0117739
0.00935804
0.00713509
0.0054692
0.00449309
0.00402836
0.00382652
0.00373849
0.00369445
0.00365664
0.0035994
0.00350784
0.00338407
0.00324856
0.00312825
0.00304318
0.00299784
0.0029848
0.00299737
0.00304522
0.00317339
0.00348905
0.00420554
0.00578432
0.00644791
0.00253687
0.00323748
0.00787089
0.00726861
0.00650463
0.00825066
0.0109752
0.0132651
0.0148077
0.0156232
0.0158286
0.0155238
0.0146556
0.0131587
0.0110732
0.00868052
0.00650354
0.00502725
0.0042739
0.00395681
0.00384344
0.00382202
0.00383949
0.00386328
0.00387076
0.00385049
0.0038049
0.00374814
0.00369778
0.00366604
0.00365729
0.00367349
0.00371778
0.00379992
0.00394291
0.00419018
0.0046229
0.00541309
0.00728003
0.00737062
0.00262226
0.00309492
0.00598278
0.00772927
0.00989387
0.010979
0.0120896
0.01273
0.0128782
0.0126286
0.0120478
0.0111572
0.00995448
0.00847761
0.00688908
0.00546576
0.00445369
0.00388049
0.00360496
0.00350472
0.00351065
0.00358057
0.00368094
0.00378247
0.00386335
0.00391399
0.00393826
0.00394864
0.0039577
0.00397229
0.00399456
0.00402911
0.00408941
0.00420135
0.00440008
0.00472237
0.00520827
0.00590959
0.00723701
0.00774832
0.00268997
0.00289515
0.00248116
0.00246885
0.0025409
0.00260033
0.00252281
0.00237331
0.00220011
0.00202723
0.00186231
0.00170568
0.00155816
0.0014265
0.00132378
0.00126213
0.00123537
0.00123065
0.00123931
0.00125545
0.00127524
0.00129618
0.00131677
0.00133633
0.00135494
0.00137331
0.00139263
0.00141437
0.00144019
0.00147208
0.00151287
0.00156657
0.00163808
0.00173172
0.00184891
0.0019872
0.00214221
0.0023105
0.00248985
0.00266899
0.00249888
)
;

boundaryField
{
    floor
    {
        type            compressible::alphatWallFunction;
        Prt             0.85;
        value           nonuniform List<scalar> 
36
(
0.000219879
0.000104485
0.000149918
0.000151105
0.000147494
0.000141437
0.000133308
0.000125152
0.000117582
0.000110703
0.000104491
9.89186e-05
9.38821e-05
8.92673e-05
8.49355e-05
8.06956e-05
7.6235e-05
7.25107e-05
6.49271e-05
6.49263e-05
8.41362e-05
9.63782e-05
0.000106447
0.000127322
0.000169017
0.000161187
0.000219877
0.000239673
0.000229064
0.000219723
0.000104484
0.000219721
0.000186295
0.000266673
0.000232737
0.000265696
)
;
    }
    ceiling
    {
        type            compressible::alphatWallFunction;
        Prt             0.85;
        value           nonuniform List<scalar> 
43
(
0.00039123
0.000338965
0.000337404
0.000346573
0.000354124
0.000344317
0.000325285
0.000303065
0.000280694
0.000259161
0.000238519
0.000218888
0.000201189
0.000187242
0.000178797
0.000175114
0.000174454
0.000175637
0.000177852
0.00018057
0.000183445
0.000186269
0.000188949
0.000191492
0.000193995
0.000196619
0.000199562
0.000203041
0.000207319
0.000212764
0.000219894
0.000229347
0.000241678
0.000257055
0.000275129
0.000295282
0.000317018
0.000340002
0.000362774
0.000341168
0.00036827
0.000382176
0.000248616
)
;
    }
    sWall
    {
        type            compressible::alphatWallFunction;
        Prt             0.85;
        value           nonuniform List<scalar> 9(0.000507603 0.000477887 0.000438218 0.000402284 0.000403533 0.000366695 0.000431919 0.000414293 0.000389479);
    }
    nWall
    {
        type            compressible::alphatWallFunction;
        Prt             0.85;
        value           nonuniform List<scalar> 
14
(
0.000160739
0.000190874
0.000224256
0.00033351
0.000337831
0.000354501
0.00034551
0.000325777
0.000313609
0.000329083
0.000345471
0.000356241
0.000364687
0.000340475
)
;
    }
    sideWalls
    {
        type            empty;
    }
    glass1
    {
        type            compressible::alphatWallFunction;
        Prt             0.85;
        value           nonuniform List<scalar> 9(0.000143926 0.000209131 0.000262684 0.000313289 0.000362358 0.000409978 0.000457986 0.000498844 0.000511212);
    }
    glass2
    {
        type            compressible::alphatWallFunction;
        Prt             0.85;
        value           nonuniform List<scalar> 2(0.000290382 0.000325113);
    }
    sun
    {
        type            compressible::alphatWallFunction;
        Prt             0.85;
        value           nonuniform List<scalar> 
14
(
0.00014796
0.000157647
0.000157093
0.000163765
0.000169852
0.000175358
0.000180466
0.000185374
0.000190299
0.000195516
0.000200474
0.00020517
0.000209782
0.00021473
)
;
    }
    Table_master
    {
        type            compressible::alphatWallFunction;
        Prt             0.85;
        value           nonuniform List<scalar> 9(0.000191007 0.00016682 0.000147884 0.000132874 0.000120789 0.000110932 0.000102815 9.61561e-05 9.09252e-05);
    }
    Table_slave
    {
        type            compressible::alphatWallFunction;
        Prt             0.85;
        value           nonuniform List<scalar> 9(0.000216371 0.000197593 0.000182914 0.000170605 0.000160036 0.000150476 0.000141399 0.000132314 0.000122416);
    }
    inlet
    {
        type            fixedValue;
        value           uniform 1.94e-05;
    }
    outlet
    {
        type            zeroGradient;
    }
}


// ************************************************************************* //
