/*--------------------------------*- C++ -*----------------------------------*\
  =========                 |
  \\      /  F ield         | OpenFOAM: The Open Source CFD Toolbox
   \\    /   O peration     | Website:  https://openfoam.org
    \\  /    A nd           | Version:  6
     \\/     M anipulation  |
\*---------------------------------------------------------------------------*/
FoamFile
{
    version     2.0;
    format      ascii;
    class       volScalarField;
    location    "17600";
    object      k;
}
// * * * * * * * * * * * * * * * * * * * * * * * * * * * * * * * * * * * * * //

dimensions      [0 2 -2 0 0 0 0];

internalField   nonuniform List<scalar> 
778
(
0.00158592
0.00180118
0.00178814
0.00194679
0.0020981
0.00224043
0.00237712
0.00251271
0.00265298
0.00280621
0.00295626
0.00310233
0.00324962
0.00341181
0.00358528
0.000792802
0.00162461
0.00165078
0.00157167
0.00144388
0.00128181
0.00112996
0.000998508
0.000886907
0.000792428
0.000712713
0.000644715
0.000585745
0.000533262
0.000484555
0.000436122
0.000397869
0.000326039
0.00340692
0.00643352
0.00268771
0.00274638
0.00288814
0.00305477
0.00323516
0.00343091
0.00364406
0.00387421
0.00412601
0.00437937
0.00459467
0.0046995
0.00459358
0.00429712
0.00390608
0.003579
0.00253702
0.00281221
0.00295365
0.00289531
0.00266213
0.00226328
0.00190436
0.00160846
0.00136902
0.00117542
0.00101675
0.00088503
0.000773813
0.000681025
0.000615027
0.00057449
0.000864459
0.000523985
0.00549063
0.0127814
0.00347819
0.00321242
0.0032978
0.00345568
0.00363708
0.00384122
0.00407143
0.00432783
0.00463559
0.00501049
0.00545006
0.00595896
0.00652955
0.00685805
0.00627603
0.00538476
0.00403797
0.00416955
0.00417225
0.00397405
0.00357571
0.00266349
0.00201353
0.00157431
0.00126841
0.00104862
0.00088649
0.000764316
0.000671603
0.000603462
0.000551317
0.000548555
0.00116645
0.00067811
0.00797326
0.021759
0.00449144
0.00339103
0.00334183
0.00343841
0.00354976
0.00366918
0.00380932
0.00399145
0.00425906
0.00464805
0.00517029
0.0058238
0.00655308
0.0071331
0.00722724
0.00724424
0.00534225
0.00554882
0.00537581
0.00512541
0.00478661
0.00434754
0.00345514
0.00285799
0.00243465
0.00210852
0.00184917
0.00163082
0.00143754
0.00125764
0.00107679
0.000799905
0.00065922
0.00142405
0.000821778
0.0108759
0.0336357
0.00621309
0.00342524
0.00315855
0.00316722
0.00318979
0.00321002
0.00325222
0.0033611
0.00359459
0.00398874
0.00455248
0.00527521
0.00608507
0.00681569
0.00728145
0.00764225
0.00751495
0.0066526
0.00607251
0.00557873
0.00509889
0.00462906
0.00412256
0.00366478
0.00327396
0.00293618
0.00262992
0.0023465
0.00207801
0.00181737
0.00155396
0.00122085
0.000928929
0.00119077
0.00121609
0.00116972
0.00207637
0.00188502
0.0141741
0.0476005
0.00928424
0.0034902
0.00290875
0.00282291
0.00276451
0.00269958
0.0026642
0.00273453
0.00298073
0.00341393
0.00402262
0.00479607
0.00565125
0.00645845
0.00706573
0.00740427
0.00732088
0.00678791
0.00621394
0.00563666
0.00507405
0.00455574
0.00409096
0.00369522
0.00336257
0.00307306
0.00280603
0.00255063
0.00229798
0.00204122
0.00177301
0.00147054
0.00117664
0.00111139
0.0011104
0.00173389
0.00518408
0.00268453
0.0179912
0.0606085
0.0143605
0.00381956
0.00271532
0.00252947
0.0024118
0.00229396
0.00222093
0.00231156
0.00263042
0.00313931
0.00380141
0.00462981
0.00552602
0.00636356
0.00699744
0.00732476
0.00725159
0.00681605
0.00621423
0.00555427
0.00491163
0.00434259
0.00387233
0.00350033
0.00320668
0.00296174
0.00274119
0.00252869
0.00231278
0.00208631
0.00184447
0.00158231
0.00132566
0.00115702
0.00109066
0.00158229
0.00643448
0.00375638
0.0216401
0.0704844
0.0214374
0.00510167
0.00274261
0.0023717
0.00220997
0.00208168
0.00202602
0.00221939
0.00265002
0.00323125
0.00393712
0.0047737
0.00569738
0.00657115
0.00722077
0.00751094
0.00738168
0.00689441
0.00619725
0.00542661
0.00469149
0.00406453
0.00357457
0.00321275
0.00294807
0.0027415
0.00256466
0.00239598
0.00222175
0.00203461
0.00183124
0.00161223
0.00139514
0.0012235
0.00115181
0.00219696
0.0147328
0.00659928
0.0228321
0.0694931
0.0325359
0.0110548
0.00406542
0.00258663
0.00223499
0.00210249
0.00218938
0.00251208
0.00300054
0.00360242
0.00433291
0.00521286
0.00618493
0.00708664
0.00771531
0.00792053
0.00766208
0.00702376
0.00616456
0.00524867
0.00440812
0.00372313
0.00321737
0.00286972
0.00263657
0.00247021
0.00233739
0.00221214
0.00207959
0.00193271
0.00176929
0.00159157
0.00141217
0.00127101
0.00132771
0.0043899
0.0305352
0.00839904
0.021917
0.0516345
0.0336435
0.0174305
0.00858274
0.00475518
0.00325859
0.00272841
0.00285162
0.0032098
0.00367187
0.00424644
0.00499609
0.00593988
0.00697605
0.00788874
0.00844126
0.00848172
0.00800077
0.00712171
0.00604081
0.004955
0.00401326
0.00329259
0.00279959
0.00249028
0.00230397
0.00218619
0.00209826
0.0020133
0.0019178
0.00180621
0.00167752
0.00153463
0.00138807
0.00128381
0.00163632
0.0100875
0.0259944
0.00873522
0.0192323
0.039438
0.0302379
0.0195635
0.0121779
0.007934
0.00571285
0.00466543
0.00435875
0.00439689
0.00465042
0.0051443
0.00593582
0.0069839
0.00809292
0.00896805
0.00934441
0.00909454
0.0082696
0.0070577
0.00571128
0.00446204
0.00346513
0.00277185
0.00235089
0.00211731
0.00199307
0.00192596
0.00187645
0.00182286
0.00175534
0.00167033
0.00156819
0.00145359
0.00133961
0.00129312
0.00189187
0.00904694
0.0261858
0.00898023
0.015949
0.0315892
0.0266523
0.0195379
0.0139734
0.0102807
0.00802335
0.00674663
0.00604448
0.00572692
0.00577957
0.00627278
0.00721102
0.00842312
0.00957455
0.01029
0.0103135
0.00959112
0.00828076
0.00666093
0.00505586
0.00372392
0.00279657
0.00223692
0.00195694
0.00181733
0.00174889
0.00171563
0.00168847
0.00165315
0.00160283
0.00153512
0.00145153
0.00136252
0.00129109
0.00137599
0.0024502
0.00904632
0.023349
0.00995753
0.0132668
0.0256791
0.0233564
0.0186918
0.0145836
0.0115868
0.00954125
0.00820677
0.00729687
0.00683686
0.00695538
0.00771921
0.00898276
0.0103744
0.0114181
0.0117151
0.0111085
0.0096885
0.00777878
0.00575606
0.00403129
0.0028371
0.00219495
0.00186217
0.00169895
0.00161909
0.00157982
0.00155906
0.00153801
0.0015075
0.00146293
0.00140375
0.00133585
0.00128024
0.0013251
0.00187411
0.0038228
0.00980876
0.0222512
0.00942489
0.0133513
0.0224296
0.0220669
0.017765
0.0143952
0.0118952
0.0100839
0.00876837
0.00791681
0.007772
0.00847135
0.00987077
0.0115353
0.0128882
0.0134204
0.0128531
0.0112737
0.00896969
0.00651114
0.00430286
0.00295824
0.00221844
0.00184786
0.0016619
0.00156566
0.00151271
0.00148057
0.00145693
0.00143025
0.00139468
0.00134791
0.00129238
0.00124322
0.00126022
0.00157206
0.00276247
0.00557211
0.0108705
0.0181286
0.00831109
0.0108763
0.0117675
0.0129253
0.0125538
0.011376
0.0100766
0.0089491
0.00820481
0.00830148
0.00941258
0.011291
0.0133681
0.0149707
0.0155558
0.0148591
0.0128824
0.0101353
0.00700376
0.00462335
0.00312202
0.00233246
0.00194235
0.00174359
0.00162989
0.0015564
0.00150376
0.00146212
0.00142519
0.00138728
0.0013451
0.00129998
0.00125953
0.00124966
0.00135478
0.00182328
0.00319429
0.00611812
0.0109541
0.0165032
0.00766252
0.00353947
0.00481864
0.00599304
0.00660341
0.00728567
0.00879525
0.0113059
0.0141345
0.0165585
0.0180081
0.0181133
0.0167886
0.0142444
0.010605
0.00729505
0.00480264
0.00330129
0.00253283
0.00216991
0.00198394
0.00186816
0.00178106
0.00170837
0.0016456
0.00159182
0.00154766
0.00151642
0.00149933
0.00149884
0.00152038
0.00158282
0.00175082
0.00220267
0.00333988
0.00581596
0.0102637
0.0171624
0.0084914
0.00444555
0.0062911
0.00811264
0.0110271
0.0146973
0.0181536
0.0203878
0.0214552
0.0213939
0.020188
0.0176517
0.0141667
0.0104829
0.00716747
0.00482891
0.00348409
0.00283866
0.00254863
0.00240499
0.00231631
0.00224909
0.00219202
0.00214305
0.00210523
0.00208489
0.00208945
0.00212331
0.00219132
0.00228996
0.00241476
0.00257408
0.00281181
0.00324684
0.00414223
0.00610401
0.0113291
0.0161774
0.00942172
0.015069
0.0244912
0.0181232
0.0144032
0.0170144
0.0207017
0.0228209
0.0235149
0.0230596
0.0217085
0.0197042
0.0170685
0.0138846
0.0105235
0.00751638
0.00533566
0.00411025
0.00354741
0.00331421
0.00321884
0.00317892
0.00315772
0.00313674
0.00310896
0.00307823
0.00305716
0.0030619
0.0031058
0.00319638
0.00333609
0.00352848
0.00378089
0.00411195
0.00457397
0.00528832
0.00645874
0.00864612
0.0150779
0.0177196
0.0100639
0.0138049
0.0170547
0.0178476
0.020761
0.0217028
0.0221239
0.021129
0.0193179
0.0172016
0.0150306
0.0129037
0.0108624
0.00894744
0.00725125
0.00588095
0.00492242
0.00436066
0.00407573
0.00396465
0.0039641
0.00403142
0.00413243
0.00423944
0.00433436
0.00441216
0.00448108
0.00455886
0.0046668
0.00482564
0.0050553
0.00537899
0.00582886
0.00645195
0.00731106
0.00848555
0.0101115
0.0124121
0.0169009
0.0210183
0.0105855
0.0121385
0.00891511
0.00883036
0.00935858
0.0098113
0.00925563
0.00820823
0.00706501
0.006005
0.0050718
0.00425723
0.00355448
0.00298035
0.00256701
0.00233331
0.0022353
0.00221805
0.00224923
0.00230815
0.00238157
0.00246061
0.00253963
0.00261589
0.00268944
0.00276298
0.00284132
0.00293067
0.00303837
0.00317384
0.00335101
0.00359113
0.00392371
0.00438213
0.00499328
0.00576835
0.00670597
0.00780533
0.00906883
0.0104249
0.00913659
)
;

boundaryField
{
    floor
    {
        type            kqRWallFunction;
        value           nonuniform List<scalar> 
36
(
0.00358528
0.000792802
0.00162461
0.00165078
0.00157167
0.00144388
0.00128181
0.00112996
0.000998508
0.000886907
0.000792428
0.000712713
0.000644715
0.000585745
0.000533262
0.000484555
0.000436122
0.000397869
0.000326039
0.000326039
0.000523985
0.00067811
0.000821778
0.00116972
0.00207637
0.00188502
0.00358528
0.00429712
0.00390608
0.003579
0.000792802
0.003579
0.00253702
0.00538476
0.00403797
0.00534225
)
;
    }
    ceiling
    {
        type            kqRWallFunction;
        value           nonuniform List<scalar> 
43
(
0.0121385
0.00891511
0.00883036
0.00935858
0.0098113
0.00925563
0.00820823
0.00706501
0.006005
0.0050718
0.00425723
0.00355448
0.00298035
0.00256701
0.00233331
0.0022353
0.00221805
0.00224923
0.00230815
0.00238157
0.00246061
0.00253963
0.00261589
0.00268944
0.00276298
0.00284132
0.00293067
0.00303837
0.00317384
0.00335101
0.00359113
0.00392371
0.00438213
0.00499328
0.00576835
0.00670597
0.00780533
0.00906883
0.0104249
0.00913659
0.0108763
0.0117675
0.00444555
)
;
    }
    sWall
    {
        type            kqRWallFunction;
        value           nonuniform List<scalar> 9(0.021917 0.0192323 0.015949 0.0132668 0.0133513 0.0108763 0.015069 0.0138049 0.0121385);
    }
    nWall
    {
        type            kqRWallFunction;
        value           nonuniform List<scalar> 
14
(
0.00188502
0.00268453
0.00375638
0.00873522
0.00898023
0.00995753
0.00942489
0.00831109
0.00766252
0.0084914
0.00942172
0.0100639
0.0105855
0.00913659
)
;
    }
    sideWalls
    {
        type            empty;
    }
    glass1
    {
        type            kqRWallFunction;
        value           nonuniform List<scalar> 9(0.00158592 0.00340692 0.00549063 0.00797326 0.0108759 0.0141741 0.0179912 0.0216401 0.0228321);
    }
    glass2
    {
        type            kqRWallFunction;
        value           nonuniform List<scalar> 2(0.00659928 0.00839904);
    }
    sun
    {
        type            kqRWallFunction;
        value           nonuniform List<scalar> 
14
(
0.00158592
0.00180118
0.00178814
0.00194679
0.0020981
0.00224043
0.00237712
0.00251271
0.00265298
0.00280621
0.00295626
0.00310233
0.00324962
0.00341181
)
;
    }
    Table_master
    {
        type            kqRWallFunction;
        value           nonuniform List<scalar> 9(0.00266349 0.00201353 0.00157431 0.00126841 0.00104862 0.00088649 0.000764316 0.000671603 0.000603462);
    }
    Table_slave
    {
        type            kqRWallFunction;
        value           nonuniform List<scalar> 9(0.00345514 0.00285799 0.00243465 0.00210852 0.00184917 0.00163082 0.00143754 0.00125764 0.00107679);
    }
    inlet
    {
        type            turbulentIntensityKineticEnergyInlet;
        intensity       0.05;
        value           uniform 0.0009375;
    }
    outlet
    {
        type            zeroGradient;
    }
}


// ************************************************************************* //
