/*--------------------------------*- C++ -*----------------------------------*\
  =========                 |
  \\      /  F ield         | OpenFOAM: The Open Source CFD Toolbox
   \\    /   O peration     | Website:  https://openfoam.org
    \\  /    A nd           | Version:  6
     \\/     M anipulation  |
\*---------------------------------------------------------------------------*/
FoamFile
{
    version     2.0;
    format      ascii;
    class       volScalarField;
    location    "8800";
    object      T;
}
// * * * * * * * * * * * * * * * * * * * * * * * * * * * * * * * * * * * * * //

dimensions      [0 0 0 1 0 0 0];

internalField   nonuniform List<scalar> 
778
(
302.475
302.148
302.696
302.132
302.178
302.921
302.127
302.149
302.226
303.139
302.123
302.149
302.181
302.288
303.347
302.118
302.151
302.191
302.215
302.363
303.542
302.114
302.152
302.205
302.235
302.25
302.45
303.709
302.109
302.152
302.219
302.263
302.274
302.287
302.546
303.862
302.105
302.151
302.231
302.291
302.314
302.305
302.334
302.69
304.071
302.1
302.148
302.24
302.318
302.356
302.352
302.328
302.426
303.149
304.056
302.095
302.144
302.245
302.341
302.398
302.403
302.376
302.358
302.752
303.466
304.059
302.087
302.137
302.246
302.358
302.436
302.455
302.429
302.39
302.498
303.082
303.608
304.09
302.078
302.123
302.24
302.367
302.469
302.506
302.484
302.439
302.427
302.774
303.284
303.7
304.156
302.066
302.103
302.222
302.364
302.489
302.551
302.537
302.488
302.448
302.6
303.015
303.429
303.823
304.096
302.053
302.074
302.191
302.344
302.492
302.584
302.585
302.535
302.487
302.536
302.83
303.21
303.577
303.839
304.241
302.037
302.145
302.303
302.473
302.596
302.625
302.577
302.524
302.528
302.728
303.05
303.389
303.64
304.055
302.01
302.088
302.238
302.424
302.584
302.653
302.624
302.564
302.547
302.687
302.95
303.253
303.506
303.713
301.989
302.034
302.157
302.34
302.532
302.655
302.671
302.627
302.602
302.688
302.902
303.164
303.398
303.469
294.558
301.977
301.987
302.075
302.23
302.429
302.604
302.684
302.687
302.678
302.736
302.897
303.117
303.318
303.31
296.217
294.758
301.951
302
302.117
302.29
302.485
302.627
302.698
302.732
302.791
302.919
303.101
303.262
303.191
297.899
295.525
297.146
301.94
302.017
302.148
302.32
302.497
302.626
302.714
302.798
302.916
303.068
303.2
303.076
298.871
296.316
296.499
298.703
299.802
301.909
301.943
302.026
302.157
302.321
302.474
302.601
302.713
302.83
302.951
303.018
302.786
299.237
296.977
297.388
299.267
300.061
300.33
301.167
301.886
301.899
301.94
302.023
302.143
302.279
302.41
302.528
302.636
302.715
302.69
302.269
299.274
297.527
298.484
299.562
301.226
300.465
301.115
301.897
301.876
301.878
301.892
301.931
302
302.093
302.194
302.288
302.364
302.388
302.269
301.713
299.343
298.209
299.381
300.197
301.324
301.108
301.916
301.885
301.872
301.868
301.869
301.879
301.906
301.951
302.005
302.057
302.085
302.052
301.862
301.274
299.554
299.012
300.072
300.762
301.562
301.97
301.901
301.88
301.87
301.865
301.86
301.857
301.858
301.866
301.878
301.884
301.865
301.786
301.566
301.04
299.909
299.767
300.588
301.198
301.8
301.945
301.896
301.879
301.87
301.865
301.86
301.852
301.843
301.831
301.815
301.788
301.738
301.634
301.423
301.014
300.344
300.397
300.998
301.516
301.983
301.937
301.894
301.879
301.87
301.866
301.862
301.856
301.845
301.828
301.802
301.762
301.7
301.596
301.42
301.138
300.794
300.914
301.347
301.749
302.109
301.935
301.893
301.88
301.87
301.867
301.865
301.861
301.854
301.841
301.818
301.782
301.726
301.64
301.513
301.341
301.195
301.363
301.636
301.925
302.194
301.936
301.895
301.882
301.87
301.868
301.867
301.867
301.865
301.858
301.845
301.821
301.783
301.726
301.65
301.567
301.526
301.677
301.864
302.057
302.252
301.939
301.897
301.883
301.87
301.869
301.869
301.871
301.872
301.873
301.87
301.861
301.844
301.818
301.787
301.763
301.796
301.891
302.022
302.152
302.294
301.943
301.899
301.885
301.87
301.869
301.87
301.873
301.877
301.882
301.886
301.89
301.891
301.891
301.893
301.912
301.959
302.03
302.122
302.214
302.323
301.947
301.901
301.886
301.87
301.869
301.871
301.874
301.88
301.887
301.895
301.905
301.917
301.933
301.957
301.992
302.039
302.104
302.18
302.253
302.343
301.952
301.903
301.887
301.87
301.869
301.871
301.875
301.88
301.888
301.897
301.908
301.924
301.945
301.975
302.016
302.069
302.135
302.208
302.276
302.357
301.956
301.906
301.889
301.869
301.869
301.871
301.874
301.88
301.887
301.896
301.906
301.919
301.939
301.97
302.014
302.072
302.144
302.22
302.289
302.367
301.961
301.908
301.891
301.869
301.869
301.87
301.873
301.878
301.885
301.893
301.901
301.911
301.927
301.955
301.999
302.062
302.141
302.223
302.296
302.375
301.966
301.911
301.894
301.879
301.869
301.87
301.872
301.877
301.882
301.889
301.895
301.902
301.915
301.938
301.981
302.047
302.132
302.22
302.297
302.378
301.971
301.916
301.899
301.892
301.872
301.869
301.871
301.875
301.88
301.885
301.89
301.895
301.904
301.924
301.962
302.029
302.118
302.212
302.294
302.378
301.976
301.923
301.91
301.913
301.881
301.87
301.87
301.873
301.877
301.881
301.885
301.889
301.896
301.911
301.945
302.009
302.102
302.2
302.286
302.374
301.981
301.934
301.928
301.982
301.9
301.875
301.869
301.871
301.874
301.878
301.881
301.884
301.89
301.902
301.93
301.991
302.084
302.186
302.274
302.368
301.987
301.951
301.991
301.957
301.889
301.872
301.87
301.871
301.874
301.877
301.88
301.885
301.895
301.919
301.975
302.067
302.171
302.262
302.359
301.996
302.004
301.969
301.926
301.881
301.87
301.87
301.872
301.874
301.877
301.881
301.889
301.911
301.963
302.054
302.158
302.25
302.351
302.028
301.982
301.94
301.905
301.876
301.869
301.869
301.871
301.873
301.877
301.885
301.905
301.954
302.045
302.149
302.24
302.344
302.082
301.955
301.919
301.891
301.873
301.869
301.869
301.871
301.874
301.882
301.902
301.951
302.041
302.145
302.235
302.34
302.095
301.937
301.905
301.883
301.872
301.869
301.869
301.872
301.88
301.9
301.95
302.041
302.146
302.235
302.34
302.075
301.948
301.91
301.888
301.874
301.871
301.873
301.879
301.899
301.951
302.046
302.152
302.239
302.343
302.258
302.003
302.022
301.901
301.884
301.882
301.885
301.901
301.953
302.051
302.163
302.249
302.351
302.427
302.2
302.033
301.938
301.922
301.909
301.91
301.956
302.057
302.174
302.264
302.363
302.432
302.212
302.063
302.013
301.979
301.938
301.963
302.06
302.185
302.282
302.378
302.437
302.212
302.134
302.103
302.01
301.981
302.061
302.193
302.301
302.397
302.425
302.256
302.241
302.137
302.029
302.065
302.196
302.319
302.418
302.447
302.348
302.28
302.125
302.083
302.197
302.334
302.437
302.481
302.39
302.252
302.133
302.198
302.343
302.453
302.498
302.35
302.231
302.209
302.345
302.462
302.438
302.306
302.252
302.342
302.463
302.393
302.299
302.338
302.458
302.391
302.34
302.449
302.416
302.441
302.462
)
;

boundaryField
{
    floor
    {
        type            wallHeatTransfer;
        Tinf            uniform 305.2;
        alphaWall       uniform 0.36;
        value           nonuniform List<scalar> 
36
(
302.482
302.531
302.499
302.49
302.494
302.508
302.532
302.559
302.587
302.615
302.642
302.668
302.694
302.72
302.745
302.772
302.802
302.833
302.907
302.907
302.78
302.712
302.662
302.579
302.482
302.584
302.482
302.417
302.406
302.401
302.531
302.401
302.378
302.327
302.3
302.28
)
;
    }
    ceiling
    {
        type            wallHeatTransfer;
        Tinf            uniform 303.2;
        alphaWall       uniform 0.36;
        value           nonuniform List<scalar> 
43
(
301.283
301.318
301.371
301.42
301.504
301.72
301.939
302.109
302.227
302.309
302.366
302.408
302.439
302.462
302.477
302.488
302.495
302.498
302.497
302.493
302.486
302.477
302.469
302.462
302.457
302.456
302.457
302.463
302.471
302.483
302.497
302.512
302.526
302.536
302.54
302.537
302.528
302.516
302.505
302.528
304.154
303.986
295.372
)
;
    }
    sWall
    {
        type            wallHeatTransfer;
        Tinf            uniform 315.2;
        alphaWall       uniform 0.54;
        value           nonuniform List<scalar> 9(305.091 305.144 305.251 305.396 305.342 305.571 301.828 302.218 302.813);
    }
    nWall
    {
        type            wallHeatTransfer;
        Tinf            uniform 308.2;
        alphaWall       uniform 0.54;
        value           nonuniform List<scalar> 
14
(
303.45
303.308
303.16
303.184
303.18
303.144
303.18
303.241
303.275
303.193
303.124
303.105
303.116
303.197
)
;
    }
    sideWalls
    {
        type            empty;
    }
    glass1
    {
        type            wallHeatTransfer;
        Tinf            uniform 315.2;
        alphaWall       uniform 4.3;
        value           nonuniform List<scalar> 9(311.737 310.932 310.416 310.015 309.69 309.426 309.192 309.022 309.062);
    }
    glass2
    {
        type            wallHeatTransfer;
        Tinf            uniform 308.2;
        alphaWall       uniform 4.3;
        value           nonuniform List<scalar> 2(305.681 305.605);
    }
    sun
    {
        type            wallHeatTransfer;
        Tinf            uniform 305.2;
        alphaWall       uniform 0.36;
        value           nonuniform List<scalar> 
14
(
302.964
302.674
302.662
302.642
302.626
302.612
302.599
302.587
302.575
302.563
302.55
302.536
302.52
302.502
)
;
    }
    Table_master
    {
        type            zeroGradient;
    }
    Table_slave
    {
        type            zeroGradient;
    }
    inlet
    {
        type            fixedValue;
        value           uniform 293.15;
    }
    outlet
    {
        type            zeroGradient;
    }
}


// ************************************************************************* //
