/*--------------------------------*- C++ -*----------------------------------*\
  =========                 |
  \\      /  F ield         | OpenFOAM: The Open Source CFD Toolbox
   \\    /   O peration     | Website:  https://openfoam.org
    \\  /    A nd           | Version:  6
     \\/     M anipulation  |
\*---------------------------------------------------------------------------*/
FoamFile
{
    version     2.0;
    format      ascii;
    class       volVectorField;
    location    "32299.9999977635125";
    object      U;
}
// * * * * * * * * * * * * * * * * * * * * * * * * * * * * * * * * * * * * * //

dimensions      [0 1 -1 0 0 0 0];

internalField   nonuniform List<vector> 
778
(
(0.0655947 0.0794098 0)
(-0.155181 0.0157693 0)
(-0.164316 0.0146302 0)
(-0.192443 0.0122817 0)
(-0.216891 0.00873235 0)
(-0.236965 0.0047513 0)
(-0.252106 0.000423233 0)
(-0.26189 -0.00436438 0)
(-0.2658 -0.00980999 0)
(-0.262832 -0.0161938 0)
(-0.251031 -0.0242715 0)
(-0.226326 -0.0348955 0)
(-0.18619 -0.0504234 0)
(-0.144241 -0.0752038 0)
(-0.150139 -0.108612 0)
(0.0546105 0.0354848 0)
(0.0156868 -0.0268622 0)
(0.0448485 -0.0232571 0)
(0.0692236 -0.0161543 0)
(0.0842642 -0.0103486 0)
(0.0914639 -0.00641343 0)
(0.094297 -0.00433525 0)
(0.0953279 -0.00331186 0)
(0.0957749 -0.00272532 0)
(0.0959392 -0.00231337 0)
(0.0958108 -0.0019504 0)
(0.095284 -0.00151157 0)
(0.0940292 -0.000759337 0)
(0.0911886 0.000842421 0)
(0.0849968 0.00406104 0)
(0.0734811 0.00776182 0)
(0.059856 0.0116003 0)
(-0.00796406 0.0299572 0)
(0.25839 0.167399 0)
(-0.161239 0.048402 0)
(-0.141617 0.0459931 0)
(-0.17403 0.0416307 0)
(-0.199404 0.0356868 0)
(-0.220139 0.02915 0)
(-0.236184 0.0220792 0)
(-0.247453 0.0142473 0)
(-0.253643 0.0053109 0)
(-0.253973 -0.00514491 0)
(-0.247826 -0.0170837 0)
(-0.234124 -0.0308612 0)
(-0.214218 -0.0480969 0)
(-0.197646 -0.0699921 0)
(-0.194138 -0.0826861 0)
(-0.166512 -0.0426025 0)
(-0.10541 -0.0364344 0)
(-0.0983418 -0.0445303 0)
(0.109327 -0.0419847 0)
(0.0644167 -0.0410963 0)
(0.0718144 -0.0322223 0)
(0.0857602 -0.0206828 0)
(0.0936319 -0.0104419 0)
(0.0958541 -0.0036355 0)
(0.0956164 -0.000190591 0)
(0.095231 0.00126036 0)
(0.0951946 0.00190821 0)
(0.0952739 0.00227788 0)
(0.0952789 0.00259434 0)
(0.0951773 0.00313165 0)
(0.0948859 0.00440878 0)
(0.0936301 0.00771883 0)
(0.0880397 0.0167391 0)
(0.0743019 0.0253016 0)
(0.0629937 0.0328975 0)
(-0.0520373 0.063479 0)
(0.429965 0.253964 0)
(-0.194236 0.0847766 0)
(-0.112794 0.0784529 0)
(-0.148268 0.066981 0)
(-0.170709 0.0555305 0)
(-0.188815 0.0437618 0)
(-0.202666 0.0313805 0)
(-0.212371 0.018042 0)
(-0.217735 0.00342718 0)
(-0.218104 -0.0126143 0)
(-0.212855 -0.0303193 0)
(-0.201754 -0.0499177 0)
(-0.186119 -0.0715914 0)
(-0.169591 -0.0932472 0)
(-0.151228 -0.104609 0)
(-0.120385 -0.0931978 0)
(-0.0796738 -0.0950209 0)
(-0.0715771 -0.107696 0)
(0.0920709 -0.0880322 0)
(0.0625055 -0.0656459 0)
(0.0742798 -0.046042 0)
(0.0878836 -0.0291743 0)
(0.094679 -0.0148327 0)
(0.0917416 -0.0120239 0)
(0.0875124 -0.00797961 0)
(0.085142 -0.00580224 0)
(0.0844487 -0.00456648 0)
(0.0844311 -0.00379636 0)
(0.0846931 -0.00322244 0)
(0.0853478 -0.00259745 0)
(0.0871076 -0.00144093 0)
(0.0917856 0.00291559 0)
(0.0899393 0.0250806 0)
(0.073151 0.0422966 0)
(0.0699228 0.0573615 0)
(-0.0901203 0.100728 0)
(0.578526 0.325855 0)
(-0.240103 0.121835 0)
(-0.0808518 0.109251 0)
(-0.121601 0.0898879 0)
(-0.139043 0.0741101 0)
(-0.153114 0.0586819 0)
(-0.163884 0.0428013 0)
(-0.17149 0.0258552 0)
(-0.175711 0.00723598 0)
(-0.175786 -0.0135057 0)
(-0.171104 -0.0364584 0)
(-0.161544 -0.0614558 0)
(-0.147688 -0.0873801 0)
(-0.130729 -0.110313 0)
(-0.109793 -0.123223 0)
(-0.082334 -0.12458 0)
(-0.0527447 -0.126435 0)
(-0.0336395 -0.123241 0)
(0.0160207 -0.0568228 0)
(0.0606027 -0.0929565 0)
(0.0683202 -0.0790881 0)
(0.0789719 -0.0587292 0)
(0.091476 -0.039491 0)
(0.102832 -0.0208261 0)
(0.115575 -0.0131792 0)
(0.126699 -0.00881541 0)
(0.132274 -0.00560927 0)
(0.133238 -0.00310083 0)
(0.130696 -0.00087428 0)
(0.125217 0.00129617 0)
(0.116677 0.00367523 0)
(0.104315 0.00672487 0)
(0.0850751 0.0111453 0)
(0.0712228 0.036795 0)
(0.0599582 0.0604678 0)
(0.076046 0.0832018 0)
(-0.117834 0.136842 0)
(0.705701 0.383699 0)
(-0.287675 0.157037 0)
(-0.0477163 0.133819 0)
(-0.0963216 0.106964 0)
(-0.10778 0.0876483 0)
(-0.116823 0.0692331 0)
(-0.123621 0.0505102 0)
(-0.12829 0.0306477 0)
(-0.130657 0.00877404 0)
(-0.129856 -0.0157853 0)
(-0.125361 -0.0430576 0)
(-0.116744 -0.0726711 0)
(-0.104038 -0.10281 0)
(-0.0875917 -0.129064 0)
(-0.0676693 -0.145768 0)
(-0.0443544 -0.152267 0)
(-0.020511 -0.152404 0)
(8.07978e-06 -0.143778 0)
(0.0305552 -0.115013 0)
(0.0567595 -0.109332 0)
(0.0703847 -0.092379 0)
(0.0805592 -0.0711881 0)
(0.0906398 -0.050724 0)
(0.100206 -0.0326835 0)
(0.109309 -0.0193285 0)
(0.116312 -0.00996028 0)
(0.119709 -0.00326864 0)
(0.119879 0.00197931 0)
(0.11744 0.0065157 0)
(0.112767 0.0108543 0)
(0.105891 0.0155074 0)
(0.0967441 0.021179 0)
(0.0848271 0.029171 0)
(0.0732811 0.0471643 0)
(0.0627886 0.0711799 0)
(0.0942925 0.0992412 0)
(0.0163462 0.138042 0)
(0.0955962 0.182856 0)
(0.14106 0.147213 0)
(-0.224765 0.203453 0)
(0.810407 0.431997 0)
(-0.331312 0.190714 0)
(-0.017335 0.150299 0)
(-0.0734009 0.117578 0)
(-0.0786342 0.0955773 0)
(-0.0822654 0.0750166 0)
(-0.0845285 0.054416 0)
(-0.0855729 0.0327892 0)
(-0.085322 0.00891987 0)
(-0.0826489 -0.0183654 0)
(-0.0774836 -0.0489909 0)
(-0.0688628 -0.0824641 0)
(-0.0568839 -0.116452 0)
(-0.0418561 -0.146239 0)
(-0.0248914 -0.165942 0)
(-0.00653156 -0.174474 0)
(0.0118518 -0.172766 0)
(0.0277625 -0.161048 0)
(0.0459413 -0.13936 0)
(0.0624194 -0.122359 0)
(0.0731251 -0.102477 0)
(0.0808337 -0.0803971 0)
(0.0876087 -0.059032 0)
(0.0937933 -0.0401449 0)
(0.0991152 -0.0249713 0)
(0.102782 -0.0136191 0)
(0.104357 -0.00493344 0)
(0.103895 0.00224689 0)
(0.10171 0.00869544 0)
(0.0980535 0.0149301 0)
(0.0930875 0.0214808 0)
(0.0870449 0.0289878 0)
(0.0801843 0.0383769 0)
(0.0744332 0.0528052 0)
(0.0691651 0.0728254 0)
(0.0911028 0.0985635 0)
(0.0727662 0.107302 0)
(0.0891573 0.0479152 0)
(0.146185 -0.0371098 0)
(-0.329485 0.105915 0)
(0.87989 0.474711 0)
(-0.368631 0.221004 0)
(0.00370767 0.155624 0)
(-0.0526975 0.121642 0)
(-0.0522532 0.0979304 0)
(-0.0510842 0.0759044 0)
(-0.0490897 0.0541269 0)
(-0.0465802 0.0316126 0)
(-0.0433964 0.00683946 0)
(-0.0374339 -0.0222442 0)
(-0.0303592 -0.055319 0)
(-0.020584 -0.0918761 0)
(-0.00879777 -0.128801 0)
(0.00437894 -0.161123 0)
(0.0174208 -0.181792 0)
(0.0301923 -0.190169 0)
(0.041993 -0.187232 0)
(0.0522991 -0.174458 0)
(0.062282 -0.154113 0)
(0.0708821 -0.132443 0)
(0.0764358 -0.109391 0)
(0.0799213 -0.08585 0)
(0.0825333 -0.0636354 0)
(0.0847696 -0.0441071 0)
(0.0865861 -0.0279905 0)
(0.0876493 -0.0151893 0)
(0.0877411 -0.00492617 0)
(0.0867152 0.00371528 0)
(0.0847704 0.0114142 0)
(0.0820586 0.0186935 0)
(0.0787639 0.0260582 0)
(0.0751722 0.0340228 0)
(0.0716874 0.0431675 0)
(0.0696695 0.0548201 0)
(0.0684621 0.0694091 0)
(0.0813126 0.0886679 0)
(0.0839732 0.0921987 0)
(0.0886424 0.0546491 0)
(0.180733 0.0245981 0)
(-0.282056 0.153616 0)
(0.927951 0.517167 0)
(-0.383162 0.234223 0)
(0.016898 0.133068 0)
(-0.0273618 0.116746 0)
(-0.026597 0.0950133 0)
(-0.0228026 0.0725218 0)
(-0.0177021 0.0501948 0)
(-0.012435 0.027332 0)
(-0.00548313 0.00192901 0)
(0.00450698 -0.0306919 0)
(0.0142252 -0.0652742 0)
(0.025512 -0.103244 0)
(0.0371284 -0.140723 0)
(0.0477745 -0.17198 0)
(0.0568381 -0.192196 0)
(0.0643064 -0.199738 0)
(0.0700145 -0.195383 0)
(0.0739679 -0.181239 0)
(0.0766796 -0.160175 0)
(0.0780632 -0.136169 0)
(0.0777309 -0.111119 0)
(0.0762514 -0.0865441 0)
(0.0744473 -0.0639278 0)
(0.0728372 -0.0442792 0)
(0.0715543 -0.0279813 0)
(0.0704621 -0.0147558 0)
(0.0693687 -0.00391085 0)
(0.0679852 0.00532502 0)
(0.0664392 0.0135276 0)
(0.0647107 0.0211821 0)
(0.0628945 0.0287196 0)
(0.0611938 0.0365071 0)
(0.0599283 0.0448665 0)
(0.0599754 0.0543312 0)
(0.0611638 0.0649828 0)
(0.0699376 0.0785645 0)
(0.0790622 0.082624 0)
(0.0772079 0.0624844 0)
(0.238662 0.051962 0)
(-0.558951 0.230515 0)
(1.0113 0.506846 0)
(-0.137358 0.296375 0)
(0.0410745 0.161575 0)
(0.0405564 0.122166 0)
(0.0130378 0.0920611 0)
(0.00861189 0.0654515 0)
(0.0140283 0.0414712 0)
(0.0206472 0.0170483 0)
(0.0324605 -0.0109735 0)
(0.0439269 -0.0421114 0)
(0.0557951 -0.0768555 0)
(0.0680577 -0.114533 0)
(0.0791685 -0.150937 0)
(0.087635 -0.180371 0)
(0.0928194 -0.198419 0)
(0.0948394 -0.203653 0)
(0.0941095 -0.19709 0)
(0.0911818 -0.181121 0)
(0.086734 -0.158769 0)
(0.0812156 -0.133342 0)
(0.0749144 -0.107276 0)
(0.0684228 -0.0824098 0)
(0.0624548 -0.0601122 0)
(0.0575199 -0.0411183 0)
(0.053799 -0.0255225 0)
(0.0511832 -0.0128383 0)
(0.0494051 -0.00230425 0)
(0.0480654 0.00676268 0)
(0.047157 0.0148559 0)
(0.0464612 0.0224139 0)
(0.0459452 0.0297744 0)
(0.0456828 0.0371656 0)
(0.0458485 0.0447209 0)
(0.0469511 0.0525889 0)
(0.0490471 0.0606513 0)
(0.0553648 0.0698085 0)
(0.0639812 0.0715648 0)
(0.0548756 0.0490228 0)
(0.294041 0.0722647 0)
(-0.774439 0.299779 0)
(0.779344 0.395782 0)
(0.000720536 0.31953 0)
(0.0933653 0.218948 0)
(0.110575 0.155219 0)
(0.0771401 0.106882 0)
(0.0597646 0.0676069 0)
(0.0581812 0.0358151 0)
(0.0623446 0.00645309 0)
(0.0737774 -0.0234084 0)
(0.0853509 -0.0550198 0)
(0.0975407 -0.0897031 0)
(0.109387 -0.126147 0)
(0.118728 -0.159859 0)
(0.123793 -0.185538 0)
(0.123986 -0.199635 0)
(0.119738 -0.201305 0)
(0.112006 -0.191885 0)
(0.101867 -0.173888 0)
(0.0903641 -0.150319 0)
(0.0783397 -0.124201 0)
(0.0664815 -0.0980709 0)
(0.0555176 -0.0738603 0)
(0.0461668 -0.0528315 0)
(0.0388844 -0.0354357 0)
(0.0337528 -0.021471 0)
(0.0305202 -0.0101758 0)
(0.0287266 -0.000663715 0)
(0.0279025 0.00767387 0)
(0.0278009 0.0152731 0)
(0.0280943 0.0225005 0)
(0.0286559 0.0295853 0)
(0.0294297 0.0366423 0)
(0.0304022 0.0436837 0)
(0.0316975 0.0506643 0)
(0.033094 0.0574122 0)
(0.0354595 0.0646275 0)
(0.0271311 0.0688159 0)
(0.0219242 0.0810388 0)
(0.134259 0.159987 0)
(-0.650972 0.303748 0)
(0.617285 0.220926 0)
(0.0046043 0.298156 0)
(0.113033 0.241569 0)
(0.148301 0.177584 0)
(0.130865 0.123546 0)
(0.117842 0.0778727 0)
(0.114977 0.0389242 0)
(0.117143 0.0034206 0)
(0.12351 -0.0307033 0)
(0.131738 -0.064986 0)
(0.141417 -0.100435 0)
(0.150272 -0.13523 0)
(0.155365 -0.165026 0)
(0.154774 -0.18553 0)
(0.148187 -0.194452 0)
(0.136506 -0.191807 0)
(0.121205 -0.17931 0)
(0.103795 -0.159498 0)
(0.0856501 -0.135251 0)
(0.0678867 -0.109348 0)
(0.0514562 -0.084261 0)
(0.0372339 -0.0618695 0)
(0.0259588 -0.0432728 0)
(0.017884 -0.0285248 0)
(0.012761 -0.0170384 0)
(0.0099312 -0.00769547 0)
(0.0086728 0.000426613 0)
(0.00860491 0.00780867 0)
(0.00923828 0.0147956 0)
(0.0103296 0.021642 0)
(0.0117177 0.0284914 0)
(0.0132405 0.0354145 0)
(0.0146844 0.0424065 0)
(0.0158386 0.0493901 0)
(0.0164993 0.0562917 0)
(0.016121 0.0648255 0)
(-0.00841587 0.0853936 0)
(-0.00235308 0.119519 0)
(0.1224 0.177924 0)
(-0.558928 0.240431 0)
(0.570768 0.118565 0)
(-0.0203036 0.258668 0)
(0.113747 0.229907 0)
(0.165091 0.176087 0)
(0.166748 0.126222 0)
(0.1644 0.0811376 0)
(0.16538 0.0400035 0)
(0.168302 0.00164726 0)
(0.172271 -0.0353815 0)
(0.177854 -0.0718844 0)
(0.18402 -0.107488 0)
(0.187685 -0.139439 0)
(0.18584 -0.163911 0)
(0.17711 -0.178127 0)
(0.161945 -0.181307 0)
(0.141885 -0.174335 0)
(0.118874 -0.159216 0)
(0.0946785 -0.138354 0)
(0.0709022 -0.114437 0)
(0.0488025 -0.0899578 0)
(0.0295674 -0.0672864 0)
(0.0142091 -0.0481753 0)
(0.00331219 -0.0333666 0)
(-0.00358354 -0.0220477 0)
(-0.00726996 -0.0134622 0)
(-0.00909607 -0.00606973 0)
(-0.0096749 0.000737177 0)
(-0.00925081 0.00722033 0)
(-0.00817761 0.0135916 0)
(-0.00656749 0.0200177 0)
(-0.00457363 0.026637 0)
(-0.00242721 0.0335903 0)
(-0.000531453 0.0410171 0)
(0.000503802 0.0490058 0)
(0.000421407 0.0580387 0)
(-0.00501681 0.0739094 0)
(-0.0366946 0.110488 0)
(-0.0276109 0.148269 0)
(0.0530324 0.183433 0)
(-0.525514 0.180883 0)
(0.62842 0.0537045 0)
(0.00940436 0.197317 0)
(0.113884 0.196983 0)
(0.175178 0.157982 0)
(0.19141 0.117743 0)
(0.198046 0.0773197 0)
(0.203365 0.0373016 0)
(0.208574 -0.00150849 0)
(0.213101 -0.0396765 0)
(0.21744 -0.0765151 0)
(0.219266 -0.109844 0)
(0.215415 -0.136532 0)
(0.204002 -0.154027 0)
(0.18512 -0.161373 0)
(0.160381 -0.159145 0)
(0.131947 -0.148739 0)
(0.102079 -0.132212 0)
(0.0725063 -0.111622 0)
(0.0450338 -0.0894755 0)
(0.0209241 -0.0679719 0)
(0.00177745 -0.0494157 0)
(-0.0114695 -0.0353693 0)
(-0.0191209 -0.0256524 0)
(-0.0233991 -0.0180538 0)
(-0.0256096 -0.0114819 0)
(-0.0266369 -0.0053331 0)
(-0.0267955 0.000569429 0)
(-0.0261777 0.00631989 0)
(-0.0249001 0.0120636 0)
(-0.0229626 0.0179757 0)
(-0.0204782 0.0242749 0)
(-0.0176866 0.0312554 0)
(-0.0150891 0.039316 0)
(-0.0136004 0.0490695 0)
(-0.0138171 0.0621937 0)
(-0.0189128 0.0864906 0)
(-0.0463777 0.133567 0)
(-0.0395872 0.178338 0)
(-0.0168295 0.173413 0)
(-0.542084 0.0902921 0)
(0.472549 0.074776 0)
(-0.132012 0.137615 0)
(0.0942725 0.133367 0)
(0.172749 0.116882 0)
(0.203833 0.0954208 0)
(0.218091 0.064448 0)
(0.228065 0.0284028 0)
(0.23716 -0.00899854 0)
(0.243589 -0.0453717 0)
(0.245138 -0.0782724 0)
(0.239177 -0.105028 0)
(0.224349 -0.123616 0)
(0.20117 -0.13323 0)
(0.171545 -0.134354 0)
(0.138044 -0.128258 0)
(0.102959 -0.116215 0)
(0.0686383 -0.100089 0)
(0.0363015 -0.0814733 0)
(0.00843145 -0.0628871 0)
(-0.0140818 -0.0463553 0)
(-0.0279197 -0.0352447 0)
(-0.0361043 -0.0274598 0)
(-0.0405348 -0.0213662 0)
(-0.0429017 -0.0158006 0)
(-0.044089 -0.0103853 0)
(-0.0445623 -0.00502597 0)
(-0.0444452 0.000204383 0)
(-0.0437166 0.00528039 0)
(-0.0423395 0.0103185 0)
(-0.0401687 0.0155524 0)
(-0.0372297 0.0213186 0)
(-0.0336763 0.0280865 0)
(-0.0299128 0.0365295 0)
(-0.0267827 0.0477766 0)
(-0.0244439 0.0641811 0)
(-0.0204165 0.09188 0)
(-0.0279819 0.141276 0)
(-0.0221245 0.202888 0)
(0.10446 0.195015 0)
(-0.493644 0.0336746 0)
(0.724091 0.13443 0)
(0.0818314 0.115243 0)
(0.149729 0.099265 0)
(0.222357 0.0805732 0)
(0.243989 0.070022 0)
(0.248766 0.0477312 0)
(0.25508 0.0175516 0)
(0.261236 -0.0147798 0)
(0.260319 -0.0448256 0)
(0.249882 -0.0696056 0)
(0.229675 -0.0874141 0)
(0.201261 -0.0978206 0)
(0.166996 -0.101175 0)
(0.129399 -0.0985083 0)
(0.0909708 -0.0911169 0)
(0.0531477 -0.0796841 0)
(0.0187554 -0.0659032 0)
(-0.0126552 -0.0509495 0)
(-0.0345594 -0.0396618 0)
(-0.0488588 -0.0319825 0)
(-0.0570457 -0.0270108 0)
(-0.0615736 -0.0229832 0)
(-0.0639707 -0.0189892 0)
(-0.0651736 -0.0146224 0)
(-0.0656612 -0.00991739 0)
(-0.0656844 -0.00507163 0)
(-0.0653058 -0.00033385 0)
(-0.0644731 0.00414806 0)
(-0.0631282 0.00844082 0)
(-0.0609523 0.0128274 0)
(-0.0578674 0.0177512 0)
(-0.0538789 0.0238304 0)
(-0.0491068 0.0319602 0)
(-0.0438198 0.0434879 0)
(-0.0374556 0.0604376 0)
(-0.0255479 0.0862118 0)
(-0.011433 0.127547 0)
(-0.00156908 0.187966 0)
(0.160826 0.185893 0)
(-0.375016 0.0882425 0)
(0.191734 0.0880542 0)
(0.225605 0.0998656 0)
(0.246384 0.070263 0)
(0.242462 0.0399178 0)
(0.2397 0.0121689 0)
(0.23476 -0.0129169 0)
(0.220119 -0.033425 0)
(0.196491 -0.0485088 0)
(0.166184 -0.0581487 0)
(0.131614 -0.0628438 0)
(0.0945474 -0.0629396 0)
(0.0568921 -0.0592029 0)
(0.0206424 -0.0525735 0)
(-0.0149346 -0.0432806 0)
(-0.0423408 -0.0348855 0)
(-0.0627083 -0.0286146 0)
(-0.075898 -0.0252282 0)
(-0.0838761 -0.0234055 0)
(-0.0884841 -0.0220064 0)
(-0.0911692 -0.0200599 0)
(-0.0926867 -0.0172788 0)
(-0.0934372 -0.0137063 0)
(-0.0936568 -0.00956752 0)
(-0.0935072 -0.00516863 0)
(-0.093056 -0.000839855 0)
(-0.0923039 0.00317528 0)
(-0.0913123 0.00682847 0)
(-0.0897185 0.0103658 0)
(-0.0873432 0.0142866 0)
(-0.0839331 0.0192693 0)
(-0.0790579 0.0261834 0)
(-0.0721542 0.0360894 0)
(-0.0621415 0.0501687 0)
(-0.045573 0.069674 0)
(-0.0196517 0.0968972 0)
(0.00632826 0.142822 0)
(0.18223 0.157766 0)
(-0.345623 0.146629 0)
(0.450853 0.209882 0)
(0.205859 0.178847 0)
(0.152413 0.118819 0)
(0.139469 0.0639817 0)
(0.128261 0.0257476 0)
(0.11438 0.00160905 0)
(0.0990721 -0.0131024 0)
(0.0780702 -0.0221221 0)
(0.0533327 -0.0274897 0)
(0.0259725 -0.0296122 0)
(-0.00432592 -0.0283896 0)
(-0.0340821 -0.024886 0)
(-0.0606286 -0.0207003 0)
(-0.0827717 -0.0173765 0)
(-0.0988621 -0.0163703 0)
(-0.109601 -0.0171019 0)
(-0.116331 -0.0187766 0)
(-0.120683 -0.0200684 0)
(-0.123669 -0.0202926 0)
(-0.125808 -0.0191891 0)
(-0.127321 -0.0167901 0)
(-0.128322 -0.0132829 0)
(-0.128883 -0.00897854 0)
(-0.12906 -0.00430368 0)
(-0.128887 0.000204685 0)
(-0.128422 0.00400055 0)
(-0.127885 0.00702803 0)
(-0.127062 0.00969085 0)
(-0.125703 0.0124682 0)
(-0.12337 0.0158592 0)
(-0.119326 0.0203846 0)
(-0.112692 0.0265799 0)
(-0.102375 0.0347254 0)
(-0.0855316 0.0442778 0)
(-0.0565015 0.0544668 0)
(-0.0147893 0.0724716 0)
(0.185308 0.123494 0)
(-0.415848 0.214435 0)
(0.3586 -0.417282 0)
(-0.346462 -0.5129 0)
(-0.218492 -0.0271398 0)
(-0.0934887 0.111064 0)
(-0.0539708 0.0925563 0)
(-0.0315561 0.0544448 0)
(-0.0266486 0.0281976 0)
(-0.0315128 0.0114388 0)
(-0.040162 0.000646881 0)
(-0.0506526 -0.00627824 0)
(-0.0643826 -0.0102721 0)
(-0.0800496 -0.0121702 0)
(-0.0965683 -0.0132657 0)
(-0.112497 -0.0151012 0)
(-0.12662 -0.0181007 0)
(-0.137961 -0.0215165 0)
(-0.145857 -0.024488 0)
(-0.1508 -0.0267215 0)
(-0.154132 -0.0282212 0)
(-0.156809 -0.0289621 0)
(-0.159215 -0.0289125 0)
(-0.161441 -0.0280518 0)
(-0.163471 -0.0264231 0)
(-0.165274 -0.0241297 0)
(-0.166837 -0.021301 0)
(-0.168148 -0.0180212 0)
(-0.1691 -0.014241 0)
(-0.169428 -0.0097323 0)
(-0.168949 -0.00506983 0)
(-0.16779 -0.000731166 0)
(-0.165975 0.00348183 0)
(-0.163351 0.00784747 0)
(-0.159619 0.0126347 0)
(-0.154717 0.0181143 0)
(-0.149041 0.0243951 0)
(-0.141714 0.0313791 0)
(-0.126243 0.0412269 0)
(-0.088533 0.0670741 0)
(-0.045886 0.130673 0)
(-0.545644 0.224971 0)
(0.122222 -0.186422 0)
(-0.388797 -0.298195 0)
(-0.343753 -0.0962871 0)
(-0.265361 0.0517919 0)
(-0.211664 0.0835749 0)
(-0.179559 0.0745329 0)
(-0.163334 0.0610434 0)
(-0.157369 0.051175 0)
(-0.157421 0.046239 0)
(-0.160647 0.0460356 0)
(-0.165162 0.0497118 0)
(-0.169478 0.0560352 0)
(-0.172749 0.063594 0)
(-0.174805 0.0706754 0)
(-0.176045 0.0753424 0)
(-0.177069 0.0752772 0)
(-0.178574 0.0693742 0)
(-0.180792 0.0623089 0)
(-0.183797 0.0559843 0)
(-0.187502 0.0510469 0)
(-0.191698 0.0476947 0)
(-0.196083 0.0459807 0)
(-0.200286 0.045841 0)
(-0.203935 0.0470599 0)
(-0.206721 0.0492045 0)
(-0.208479 0.0515462 0)
(-0.209185 0.0530023 0)
(-0.208801 0.0521767 0)
(-0.207228 0.0498666 0)
(-0.204456 0.047324 0)
(-0.200545 0.0447676 0)
(-0.195366 0.0422889 0)
(-0.188641 0.0400358 0)
(-0.180428 0.0381372 0)
(-0.171376 0.0362205 0)
(-0.159856 0.0327423 0)
(-0.133961 0.0268846 0)
(-0.0672064 0.0284516 0)
(0.115434 0.0738411 0)
(-0.57286 0.140882 0)
(1.14909 -0.0111761 0)
(-0.297828 -0.323704 0)
(-0.353602 -0.233252 0)
(-0.353304 -0.148904 0)
(-0.329603 -0.107676 0)
(-0.298139 -0.0992728 0)
(-0.27114 -0.101632 0)
(-0.251663 -0.107486 0)
(-0.238657 -0.115167 0)
(-0.22992 -0.124504 0)
(-0.223411 -0.135719 0)
(-0.217717 -0.1489 0)
(-0.212205 -0.163531 0)
(-0.206965 -0.178189 0)
(-0.202676 -0.190601 0)
(-0.200478 -0.198298 0)
(-0.201574 -0.199613 0)
(-0.206456 -0.19755 0)
(-0.214361 -0.193094 0)
(-0.224245 -0.186876 0)
(-0.235039 -0.179499 0)
(-0.245752 -0.171622 0)
(-0.255507 -0.163863 0)
(-0.26357 -0.156618 0)
(-0.269362 -0.149961 0)
(-0.272506 -0.143652 0)
(-0.272954 -0.13723 0)
(-0.271099 -0.13022 0)
(-0.267827 -0.123341 0)
(-0.263658 -0.11682 0)
(-0.258625 -0.110151 0)
(-0.252552 -0.102992 0)
(-0.24526 -0.0952712 0)
(-0.237338 -0.0871698 0)
(-0.230694 -0.0791713 0)
(-0.225002 -0.0718061 0)
(-0.206537 -0.0628194 0)
(-0.154158 -0.0395752 0)
(-0.140101 0.0143276 0)
(-0.654753 0.0684023 0)
)
;

boundaryField
{
    floor
    {
        type            noSlip;
    }
    ceiling
    {
        type            noSlip;
    }
    sWall
    {
        type            noSlip;
    }
    nWall
    {
        type            noSlip;
    }
    sideWalls
    {
        type            empty;
    }
    glass1
    {
        type            noSlip;
    }
    glass2
    {
        type            noSlip;
    }
    sun
    {
        type            noSlip;
    }
    Table_master
    {
        type            noSlip;
    }
    Table_slave
    {
        type            noSlip;
    }
    inlet
    {
        type            fixedValue;
        value           uniform (0.5 0 0);
    }
    outlet
    {
        type            zeroGradient;
    }
}


// ************************************************************************* //
