/*--------------------------------*- C++ -*----------------------------------*\
  =========                 |
  \\      /  F ield         | OpenFOAM: The Open Source CFD Toolbox
   \\    /   O peration     | Website:  https://openfoam.org
    \\  /    A nd           | Version:  6
     \\/     M anipulation  |
\*---------------------------------------------------------------------------*/
FoamFile
{
    version     2.0;
    format      ascii;
    class       volScalarField;
    location    "520";
    object      epsilon;
}
// * * * * * * * * * * * * * * * * * * * * * * * * * * * * * * * * * * * * * //

dimensions      [0 2 -3 0 0 0 0];

internalField   nonuniform List<scalar> 
458
(
0.000439945
0.000568135
0.000608493
0.000700565
0.000793293
0.000888462
0.000991214
0.00110292
0.00120003
0.00126344
0.0012699
0.00120043
0.00104205
0.000750154
0.000331746
3.99202e-05
6.42918e-05
9.40561e-05
0.000107132
0.000102341
8.37674e-05
6.60068e-05
5.24326e-05
4.23121e-05
3.46643e-05
2.87975e-05
2.42427e-05
2.06337e-05
1.76786e-05
1.51519e-05
1.28698e-05
1.15932e-05
8.97819e-06
0.00107333
0.0015939
0.0005282
0.00051288
0.000529676
0.000563564
0.000621027
0.000705778
0.000799379
0.000874927
0.000902731
0.000866469
0.000772509
0.000634406
0.000510023
0.000763787
0.000437073
0.000236749
3.87752e-05
7.6352e-05
9.49091e-05
9.59917e-05
9.2383e-05
9.27427e-05
7.25878e-05
5.49464e-05
4.18583e-05
3.23124e-05
2.5327e-05
2.01725e-05
1.63202e-05
1.34479e-05
1.1634e-05
1.08793e-05
3.02596e-05
2.0077e-05
0.0019242
0.00385743
0.000613397
0.000467252
0.000475976
0.000519904
0.00059489
0.00070152
0.000817906
0.000906871
0.000940778
0.000909013
0.000820007
0.000680898
0.000529353
0.000426653
0.000362361
0.000393692
0.000140069
0.000141137
0.000128426
0.000114702
0.000106811
0.00020409
0.000136677
9.34719e-05
6.60386e-05
4.82898e-05
3.64978e-05
2.84648e-05
2.29093e-05
1.91312e-05
1.50122e-05
1.32545e-05
6.40318e-05
3.29603e-05
0.00308407
0.00800259
0.000915763
0.000447175
0.000438114
0.000492331
0.000589807
0.00073796
0.000885548
0.000982581
0.00101449
0.000976553
0.000874735
0.000719437
0.000561817
0.000443582
0.000375655
0.000388989
0.000599699
0.000384969
0.000252022
0.000183895
0.000145301
0.000127457
0.00029331
0.00022555
0.000185681
0.000159314
0.000139012
0.000120806
0.000105045
8.99637e-05
7.42879e-05
4.58129e-05
2.94201e-05
0.000113221
5.02447e-05
0.00467526
0.0144337
0.00176091
0.000480087
0.000404115
0.000462759
0.000606784
0.000859317
0.00104551
0.00113969
0.00115703
0.0010955
0.000959432
0.000770815
0.000578255
0.000431091
0.0003412
0.000311001
0.000312298
0.000261365
0.000216451
0.00018155
0.000151988
0.000126921
0.000117414
0.000107504
0.000100639
9.47623e-05
8.82885e-05
8.04861e-05
7.22841e-05
6.42344e-05
5.66574e-05
4.64416e-05
3.63451e-05
7.42109e-05
0.000113004
0.000119986
0.00014282
0.000183569
0.0069031
0.0217433
0.00404349
0.000809119
0.00047822
0.00048932
0.000733799
0.00115837
0.00134021
0.00139941
0.00137734
0.00127737
0.00109223
0.000843239
0.000590722
0.000399025
0.000287609
0.000246712
0.000236553
0.000226466
0.00020905
0.000184006
0.00015551
0.000128736
0.000111182
0.000103894
0.000102063
0.000101083
9.84372e-05
9.25041e-05
8.23605e-05
7.09795e-05
6.02335e-05
5.04578e-05
4.364e-05
5.54035e-05
8.76483e-05
0.000105412
0.000205755
0.000204908
0.0096878
0.0262085
0.00885173
0.00285274
0.00149858
0.00118894
0.00154492
0.00177714
0.00182985
0.00179126
0.00169165
0.00152136
0.00125861
0.00092702
0.000600635
0.000365245
0.000242719
0.00020838
0.00021093
0.000211665
0.000198169
0.000173953
0.000147077
0.000124506
0.00011214
0.000110716
0.000115145
0.000121052
0.000126101
0.000128127
0.00012373
0.000110925
9.75612e-05
8.61615e-05
8.0763e-05
8.89911e-05
0.000120689
0.000176807
0.000326918
0.000344809
0.0104706
0.0300228
0.0160955
0.0096973
0.00604472
0.00427528
0.00345894
0.0029347
0.0025904
0.00233383
0.00209225
0.00180757
0.00142922
0.000986753
0.000571387
0.000307876
0.00019766
0.000182022
0.000187559
0.000184803
0.000168963
0.00014744
0.000128246
0.000116427
0.000114162
0.000120299
0.000131875
0.00014709
0.000165545
0.000187157
0.000211167
0.000231838
0.000245395
0.000272956
0.000329154
0.000480076
0.000819605
0.00137476
0.00409062
0.0012784
0.00986007
0.0172613
0.0132381
0.0099906
0.00752004
0.00581882
0.00462216
0.00383458
0.00330748
0.00289113
0.00249654
0.00206253
0.00151366
0.000925916
0.000408954
0.000220862
0.000163983
0.000152892
0.000149689
0.000141639
0.000128431
0.000115335
0.000106887
0.000105272
0.000110576
0.000121769
0.000138023
0.000159594
0.000187818
0.000224929
0.000273984
0.000338586
0.000425673
0.000550075
0.000731268
0.000972495
0.00124505
0.00149143
0.00169559
0.00104211
0.00344733
0.00468725
0.0051146
0.00505803
0.00479469
0.00440532
0.0038812
0.00325844
0.00263343
0.00199642
0.00115423
0.000529477
0.000250967
0.000158744
0.000129133
0.000118312
0.000110806
0.000102565
9.46149e-05
8.88119e-05
8.7017e-05
8.97136e-05
9.64998e-05
0.000106936
0.000121002
0.000139267
0.000162968
0.000194207
0.000236412
0.000295353
0.000376595
0.00048639
0.000627242
0.000783193
0.000907856
0.000942086
0.000869902
0.000543405
0.00289459
0.00872869
0.00843912
0.00733743
0.00623387
0.00491716
0.00357476
0.00229329
0.00131348
0.000716124
0.000369404
0.000208545
0.000144381
0.000116975
0.000103677
9.47187e-05
8.68746e-05
8.00884e-05
7.53504e-05
7.33367e-05
7.41078e-05
7.77286e-05
8.41668e-05
9.36075e-05
0.000106575
0.000123979
0.000147213
0.000178352
0.00022035
0.000276929
0.000353225
0.000454424
0.00058133
0.000723403
0.000835829
0.00094878
0.000734019
0.000565104
0.00337608
0.00363564
0.00388168
0.00535085
0.00451441
0.00313882
0.00190656
0.00119813
0.000855189
0.000591198
0.000405998
0.000291629
0.000212422
0.000164217
0.000135885
0.000117425
0.000103832
9.3031e-05
8.47428e-05
7.94946e-05
7.76682e-05
7.91696e-05
8.37617e-05
9.07002e-05
9.99028e-05
0.000111514
0.000125883
0.000143603
0.000165634
0.000193615
0.000228977
0.000273107
0.000328172
0.000396875
0.000482255
0.000599787
0.000655775
0.000615857
0.000495743
0.000392216
)
;

boundaryField
{
    floor
    {
        Cmu             0.09;
        kappa           0.41;
        E               9.8;
        type            epsilonWallFunction;
        value           nonuniform List<scalar> 
36
(
0.000331746
3.99202e-05
6.42918e-05
9.40561e-05
0.000107132
0.000102341
8.37674e-05
6.60068e-05
5.24326e-05
4.23121e-05
3.46643e-05
2.87975e-05
2.42427e-05
2.06337e-05
1.76786e-05
1.51519e-05
1.28698e-05
1.15932e-05
8.97819e-06
8.97819e-06
2.0077e-05
3.29603e-05
5.02447e-05
0.000119986
0.00014282
0.000183569
0.000331746
0.000763787
0.000437073
0.000236749
3.99202e-05
0.000236749
3.87752e-05
0.000393692
0.000140069
0.000599699
)
;
    }
    ceiling
    {
        Cmu             0.09;
        kappa           0.41;
        E               9.8;
        type            epsilonWallFunction;
        value           nonuniform List<scalar> 
43
(
0.00337608
0.00363564
0.00388168
0.00535085
0.00451441
0.00313882
0.00190656
0.00119813
0.000855189
0.000591198
0.000405998
0.000291629
0.000212422
0.000164217
0.000135885
0.000117425
0.000103832
9.3031e-05
8.47428e-05
7.94946e-05
7.76682e-05
7.91696e-05
8.37617e-05
9.07002e-05
9.99028e-05
0.000111514
0.000125883
0.000143603
0.000165634
0.000193615
0.000228977
0.000273107
0.000328172
0.000396875
0.000482255
0.000599787
0.000655775
0.000615857
0.000495743
0.000392216
0.00986007
0.0172613
0.00289459
)
;
    }
    sWall
    {
        Cmu             0.09;
        kappa           0.41;
        E               9.8;
        type            epsilonWallFunction;
        value           uniform 0.00337608;
    }
    nWall
    {
        Cmu             0.09;
        kappa           0.41;
        E               9.8;
        type            epsilonWallFunction;
        value           nonuniform List<scalar> 6(0.000183569 0.000204908 0.000344809 0.000543405 0.000565104 0.000392216);
    }
    sideWalls
    {
        type            empty;
    }
    glass1
    {
        Cmu             0.09;
        kappa           0.41;
        E               9.8;
        type            epsilonWallFunction;
        value           nonuniform List<scalar> 9(0.000439945 0.00107333 0.0019242 0.00308407 0.00467526 0.0069031 0.0096878 0.0104706 0.00986007);
    }
    glass2
    {
        Cmu             0.09;
        kappa           0.41;
        E               9.8;
        type            epsilonWallFunction;
        value           nonuniform List<scalar> 2(0.0012784 0.00104211);
    }
    sun
    {
        Cmu             0.09;
        kappa           0.41;
        E               9.8;
        type            epsilonWallFunction;
        value           nonuniform List<scalar> 
14
(
0.000439945
0.000568135
0.000608493
0.000700565
0.000793293
0.000888462
0.000991214
0.00110292
0.00120003
0.00126344
0.0012699
0.00120043
0.00104205
0.000750154
)
;
    }
    Table_master
    {
        Cmu             0.09;
        kappa           0.41;
        E               9.8;
        type            epsilonWallFunction;
        value           nonuniform List<scalar> 9(0.00020409 0.000136677 9.34719e-05 6.60386e-05 4.82898e-05 3.64978e-05 2.84648e-05 2.29093e-05 1.91312e-05);
    }
    Table_slave
    {
        Cmu             0.09;
        kappa           0.41;
        E               9.8;
        type            epsilonWallFunction;
        value           nonuniform List<scalar> 9(0.00029331 0.00022555 0.000185681 0.000159314 0.000139012 0.000120806 0.000105045 8.99637e-05 7.42879e-05);
    }
    inlet
    {
        type            turbulentMixingLengthDissipationRateInlet;
        mixingLength    0.01;
        phi             phi;
        k               k;
        value           uniform 0.000471672;
    }
    outlet
    {
        type            zeroGradient;
    }
}


// ************************************************************************* //
