/*--------------------------------*- C++ -*----------------------------------*\
  =========                 |
  \\      /  F ield         | OpenFOAM: The Open Source CFD Toolbox
   \\    /   O peration     | Website:  https://openfoam.org
    \\  /    A nd           | Version:  6
     \\/     M anipulation  |
\*---------------------------------------------------------------------------*/
FoamFile
{
    version     2.0;
    format      ascii;
    class       volScalarField;
    location    "520";
    object      T;
}
// * * * * * * * * * * * * * * * * * * * * * * * * * * * * * * * * * * * * * //

dimensions      [0 0 0 1 0 0 0];

internalField   nonuniform List<scalar> 
458
(
302.746
302.468
302.455
302.451
302.448
302.445
302.441
302.436
302.429
302.421
302.413
302.409
302.412
302.427
302.469
302.616
302.593
302.586
302.591
302.598
302.604
302.61
302.616
302.621
302.627
302.632
302.638
302.643
302.649
302.654
302.66
302.668
302.693
302.932
302.501
302.476
302.477
302.479
302.479
302.477
302.471
302.457
302.434
302.41
302.396
302.397
302.412
302.433
302.442
302.452
302.474
302.622
302.571
302.567
302.575
302.585
302.589
302.592
302.594
302.596
302.598
302.601
302.603
302.606
302.609
302.614
302.622
302.635
302.675
303.128
302.546
302.506
302.516
302.528
302.538
302.542
302.538
302.513
302.467
302.419
302.388
302.387
302.406
302.427
302.439
302.448
302.467
302.579
302.558
302.56
302.575
302.594
302.595
302.596
302.596
302.597
302.598
302.599
302.6
302.601
302.603
302.608
302.615
302.626
302.67
303.328
302.604
302.538
302.557
302.586
302.614
302.633
302.632
302.591
302.513
302.432
302.38
302.376
302.403
302.432
302.449
302.456
302.464
302.474
302.492
302.521
302.556
302.591
302.623
302.647
302.665
302.679
302.691
302.701
302.709
302.715
302.719
302.722
302.693
302.664
302.646
302.672
303.524
302.679
302.572
302.589
302.632
302.682
302.726
302.736
302.673
302.556
302.44
302.371
302.367
302.402
302.443
302.471
302.481
302.487
302.502
302.528
302.563
302.603
302.643
302.679
302.709
302.731
302.748
302.761
302.77
302.775
302.775
302.77
302.761
302.739
302.705
302.673
302.675
302.766
302.846
302.847
303.703
302.778
302.627
302.618
302.659
302.718
302.793
302.816
302.724
302.573
302.435
302.359
302.357
302.405
302.465
302.509
302.531
302.542
302.563
302.595
302.634
302.675
302.714
302.748
302.775
302.795
302.81
302.82
302.826
302.826
302.82
302.81
302.795
302.773
302.74
302.704
302.689
302.728
302.758
302.8
303.859
302.941
302.772
302.721
302.73
302.775
302.854
302.851
302.728
302.55
302.399
302.328
302.344
302.418
302.504
302.568
302.603
302.625
302.65
302.683
302.719
302.757
302.79
302.818
302.839
302.854
302.863
302.868
302.869
302.866
302.857
302.842
302.824
302.801
302.772
302.739
302.719
302.726
302.74
302.771
304.09
303.405
303.207
303.066
302.993
302.982
302.988
302.873
302.662
302.446
302.306
302.273
302.339
302.455
302.574
302.653
302.696
302.72
302.745
302.774
302.805
302.835
302.859
302.878
302.891
302.898
302.902
302.902
302.899
302.893
302.884
302.87
302.851
302.831
302.809
302.786
302.774
302.78
302.801
302.951
304.42
304.103
303.855
303.615
303.425
303.289
303.07
302.719
302.39
302.189
302.141
302.215
302.375
302.546
302.694
302.757
302.789
302.81
302.832
302.855
302.877
302.896
302.911
302.921
302.926
302.928
302.927
302.924
302.92
302.916
302.911
302.909
302.91
302.915
302.928
302.951
302.986
303.023
303.052
303.118
297.623
299.319
300.362
300.798
300.968
301.164
301.405
301.693
301.992
302.273
302.558
302.731
302.812
302.848
302.868
302.885
302.901
302.917
302.93
302.94
302.946
302.949
302.951
302.951
302.95
302.949
302.949
302.949
302.949
302.951
302.954
302.962
302.976
302.997
303.024
303.052
303.077
303.1
297.982
299.391
300.238
300.687
301.023
301.383
301.76
302.158
302.479
302.681
302.805
302.868
302.898
302.916
302.929
302.94
302.95
302.958
302.963
302.967
302.969
302.97
302.97
302.971
302.971
302.971
302.971
302.972
302.972
302.974
302.977
302.983
302.992
303.007
303.025
303.047
303.047
303.081
299.48
299.439
299.437
300.476
301.125
301.663
302.14
302.466
302.655
302.785
302.865
302.91
302.94
302.957
302.969
302.977
302.983
302.987
302.991
302.993
302.994
302.994
302.994
302.993
302.993
302.992
302.991
302.991
302.99
302.99
302.989
302.99
302.991
302.993
302.998
303.007
303.018
303.026
303.03
303.071
)
;

boundaryField
{
    floor
    {
        type            wallHeatTransfer;
        Tinf            uniform 305.2;
        alphaWall       uniform 0.24;
        value           nonuniform List<scalar> 
36
(
302.779
303.099
303.031
302.988
302.981
302.991
303.015
303.043
303.07
303.097
303.123
303.148
303.171
303.194
303.216
303.239
303.263
303.282
303.332
303.332
303.222
303.163
303.121
303.12
303.174
303.156
302.779
302.696
302.743
302.811
303.099
302.811
303.107
302.764
302.946
302.74
)
;
    }
    ceiling
    {
        type            wallHeatTransfer;
        Tinf            uniform 303.2;
        alphaWall       uniform 0.24;
        value           nonuniform List<scalar> 
43
(
299.708
299.666
299.659
300.624
301.244
301.76
302.216
302.526
302.704
302.826
302.901
302.944
302.973
302.99
303.001
303.009
303.015
303.02
303.024
303.026
303.027
303.027
303.027
303.025
303.024
303.023
303.021
303.02
303.018
303.017
303.016
303.015
303.015
303.016
303.019
303.026
303.036
303.043
303.048
303.085
304.363
304.067
298.315
)
;
    }
    sWall
    {
        type            wallHeatTransfer;
        Tinf            uniform 315.2;
        alphaWall       uniform 0.36;
        value           uniform 300.891;
    }
    nWall
    {
        type            wallHeatTransfer;
        Tinf            uniform 307.2;
        alphaWall       uniform 0.36;
        value           nonuniform List<scalar> 6(303.653 303.594 303.479 303.689 303.667 303.712);
    }
    sideWalls
    {
        type            empty;
    }
    glass1
    {
        type            wallHeatTransfer;
        Tinf            uniform 315.2;
        alphaWall       uniform 4.3;
        value           nonuniform List<scalar> 9(311.27 310.625 310.215 309.901 309.638 309.397 309.195 309.256 309.481);
    }
    glass2
    {
        type            wallHeatTransfer;
        Tinf            uniform 307.2;
        alphaWall       uniform 4.3;
        value           nonuniform List<scalar> 2(305.552 305.673);
    }
    sun
    {
        type            wallHeatTransfer;
        Tinf            uniform 305.2;
        alphaWall       uniform 0.24;
        value           nonuniform List<scalar> 
14
(
303.006
302.739
302.722
302.709
302.698
302.688
302.678
302.667
302.656
302.645
302.637
302.636
302.649
302.683
)
;
    }
    Table_master
    {
        type            zeroGradient;
    }
    Table_slave
    {
        type            zeroGradient;
    }
    inlet
    {
        type            fixedValue;
        value           uniform 295.15;
    }
    outlet
    {
        type            zeroGradient;
    }
}


// ************************************************************************* //
