/*--------------------------------*- C++ -*----------------------------------*\
  =========                 |
  \\      /  F ield         | OpenFOAM: The Open Source CFD Toolbox
   \\    /   O peration     | Website:  https://openfoam.org
    \\  /    A nd           | Version:  6
     \\/     M anipulation  |
\*---------------------------------------------------------------------------*/
FoamFile
{
    version     2.0;
    format      ascii;
    class       volVectorField;
    location    "9700";
    object      U;
}
// * * * * * * * * * * * * * * * * * * * * * * * * * * * * * * * * * * * * * //

dimensions      [0 1 -1 0 0 0 0];

internalField   nonuniform List<vector> 
778
(
(0.0655947 0.0794099 0)
(-0.155181 0.0157696 0)
(-0.164317 0.0146306 0)
(-0.192444 0.0122821 0)
(-0.216893 0.00873255 0)
(-0.236967 0.0047513 0)
(-0.252108 0.000422999 0)
(-0.261892 -0.00436485 0)
(-0.265801 -0.00981067 0)
(-0.262833 -0.0161946 0)
(-0.25103 -0.0242723 0)
(-0.226324 -0.0348962 0)
(-0.186188 -0.0504239 0)
(-0.144239 -0.0752039 0)
(-0.150139 -0.108611 0)
(0.0546094 0.0354807 0)
(0.0156836 -0.0268588 0)
(0.0448415 -0.023254 0)
(0.0692116 -0.0161513 0)
(0.0842473 -0.0103463 0)
(0.0914438 -0.00641276 0)
(0.094276 -0.00433541 0)
(0.0953076 -0.00331205 0)
(0.0957552 -0.00272532 0)
(0.0959197 -0.00231325 0)
(0.0957911 -0.00195024 0)
(0.0952641 -0.00151149 0)
(0.0940093 -0.00075946 0)
(0.0911693 0.000841954 0)
(0.0849789 0.00405995 0)
(0.073466 0.00775947 0)
(0.0598468 0.0115962 0)
(-0.00797288 0.0299533 0)
(0.25839 0.167399 0)
(-0.161239 0.0484024 0)
(-0.141617 0.045994 0)
(-0.174031 0.0416317 0)
(-0.199406 0.0356877 0)
(-0.220142 0.0291505 0)
(-0.236187 0.0220792 0)
(-0.247455 0.0142467 0)
(-0.253645 0.00530975 0)
(-0.253975 -0.00514649 0)
(-0.247826 -0.0170854 0)
(-0.234123 -0.0308625 0)
(-0.214216 -0.0480974 0)
(-0.197644 -0.0699918 0)
(-0.194136 -0.0826856 0)
(-0.166508 -0.0426038 0)
(-0.105407 -0.0364359 0)
(-0.0983428 -0.0445304 0)
(0.109326 -0.0419801 0)
(0.0644153 -0.0410894 0)
(0.0718087 -0.0322143 0)
(0.0857493 -0.0206743 0)
(0.0936152 -0.0104344 0)
(0.0958335 -0.00363337 0)
(0.0955949 -0.000191401 0)
(0.0952099 0.0012593 0)
(0.095174 0.00190781 0)
(0.0952536 0.00227803 0)
(0.0952587 0.00259466 0)
(0.0951571 0.00313177 0)
(0.0948656 0.00440842 0)
(0.09361 0.00771763 0)
(0.08802 0.0167363 0)
(0.0742841 0.0252954 0)
(0.0629827 0.0328864 0)
(-0.0520549 0.0634685 0)
(0.429965 0.253964 0)
(-0.194236 0.0847772 0)
(-0.112794 0.0784544 0)
(-0.148269 0.0669827 0)
(-0.170711 0.055532 0)
(-0.188817 0.0437627 0)
(-0.202668 0.0313805 0)
(-0.212374 0.0180409 0)
(-0.217737 0.00342517 0)
(-0.218106 -0.0126169 0)
(-0.212856 -0.0303221 0)
(-0.201754 -0.0499198 0)
(-0.186118 -0.0715923 0)
(-0.169591 -0.0932469 0)
(-0.151228 -0.104608 0)
(-0.120386 -0.0931975 0)
(-0.0796759 -0.0950211 0)
(-0.0715835 -0.107696 0)
(0.092065 -0.0880275 0)
(0.0625 -0.0656373 0)
(0.0742724 -0.0460306 0)
(0.0878725 -0.0291605 0)
(0.0946623 -0.0148171 0)
(0.0917199 -0.0120155 0)
(0.0874919 -0.00797713 0)
(0.0851223 -0.0058024 0)
(0.0844285 -0.00456723 0)
(0.0844102 -0.00379688 0)
(0.0846722 -0.00322258 0)
(0.0853272 -0.00259745 0)
(0.0870868 -0.0014411 0)
(0.0917642 0.00291484 0)
(0.0899162 0.025078 0)
(0.0731267 0.0422883 0)
(0.0699074 0.0573427 0)
(-0.090155 0.100704 0)
(0.578526 0.325855 0)
(-0.240102 0.121835 0)
(-0.0808519 0.109253 0)
(-0.121601 0.0898902 0)
(-0.139044 0.0741122 0)
(-0.153116 0.0586834 0)
(-0.163886 0.0428017 0)
(-0.171493 0.0258543 0)
(-0.175714 0.00723366 0)
(-0.175788 -0.0135089 0)
(-0.171106 -0.0364618 0)
(-0.161545 -0.0614583 0)
(-0.147689 -0.0873809 0)
(-0.13073 -0.110312 0)
(-0.109794 -0.123221 0)
(-0.082337 -0.124579 0)
(-0.0527489 -0.126434 0)
(-0.0336445 -0.123238 0)
(0.0160105 -0.0568203 0)
(0.0605941 -0.0929526 0)
(0.0683109 -0.0790791 0)
(0.0789626 -0.0587168 0)
(0.0914666 -0.0394758 0)
(0.102824 -0.0208094 0)
(0.115566 -0.0131681 0)
(0.126682 -0.00880903 0)
(0.132252 -0.00560568 0)
(0.133212 -0.00309887 0)
(0.130667 -0.0008733 0)
(0.125187 0.00129674 0)
(0.116647 0.00367583 0)
(0.104283 0.00672571 0)
(0.0850411 0.0111464 0)
(0.0711887 0.0367952 0)
(0.0599208 0.0604603 0)
(0.0760194 0.0831772 0)
(-0.117908 0.136792 0)
(0.705702 0.383699 0)
(-0.287675 0.157038 0)
(-0.047716 0.133822 0)
(-0.0963218 0.106966 0)
(-0.107781 0.0876511 0)
(-0.116824 0.0692352 0)
(-0.123623 0.0505112 0)
(-0.128293 0.0306471 0)
(-0.13066 0.00877171 0)
(-0.129859 -0.015789 0)
(-0.125363 -0.0430615 0)
(-0.116746 -0.072674 0)
(-0.10404 -0.10281 0)
(-0.0875939 -0.129063 0)
(-0.0676715 -0.145765 0)
(-0.0443573 -0.152264 0)
(-0.0205148 -0.152401 0)
(2.67598e-06 -0.143775 0)
(0.0305485 -0.115009 0)
(0.0567512 -0.109326 0)
(0.070375 -0.0923694 0)
(0.0805489 -0.0711754 0)
(0.0906291 -0.0507091 0)
(0.100195 -0.0326684 0)
(0.109295 -0.0193174 0)
(0.116294 -0.00995241 0)
(0.119687 -0.00326291 0)
(0.119853 0.00198329 0)
(0.117412 0.00651833 0)
(0.112737 0.0108562 0)
(0.10586 0.0155092 0)
(0.0967115 0.0211814 0)
(0.0847915 0.0291741 0)
(0.0732402 0.0471679 0)
(0.0627364 0.071179 0)
(0.094235 0.0992243 0)
(0.0162434 0.137991 0)
(0.0954884 0.182872 0)
(0.141093 0.147039 0)
(-0.224622 0.203454 0)
(0.810409 0.431997 0)
(-0.331312 0.190714 0)
(-0.0173342 0.150301 0)
(-0.0734009 0.117581 0)
(-0.0786344 0.0955806 0)
(-0.0822664 0.0750196 0)
(-0.0845304 0.0544178 0)
(-0.0855759 0.0327894 0)
(-0.0853259 0.00891818 0)
(-0.0826536 -0.0183689 0)
(-0.0774884 -0.0489951 0)
(-0.0688674 -0.0824676 0)
(-0.0568879 -0.116453 0)
(-0.0418594 -0.146237 0)
(-0.0248934 -0.16594 0)
(-0.00653332 -0.17447 0)
(0.0118499 -0.172762 0)
(0.0277593 -0.161043 0)
(0.0459364 -0.139354 0)
(0.0624125 -0.122352 0)
(0.0731165 -0.102467 0)
(0.0808237 -0.0803834 0)
(0.0875971 -0.059016 0)
(0.0937798 -0.0401282 0)
(0.0990988 -0.0249564 0)
(0.102762 -0.0136069 0)
(0.104333 -0.00492407 0)
(0.103868 0.00225353 0)
(0.101681 0.00869975 0)
(0.0980236 0.014933 0)
(0.0930573 0.0214837 0)
(0.0870141 0.0289924 0)
(0.0801505 0.0383849 0)
(0.0743917 0.0528179 0)
(0.0691056 0.0728403 0)
(0.091025 0.0985711 0)
(0.0726401 0.107278 0)
(0.0890146 0.047832 0)
(0.146175 -0.0372739 0)
(-0.329784 0.106006 0)
(0.879894 0.474711 0)
(-0.368632 0.221005 0)
(0.00370946 0.155627 0)
(-0.0526972 0.121646 0)
(-0.0522531 0.0979343 0)
(-0.051085 0.0759082 0)
(-0.0490917 0.0541299 0)
(-0.0465835 0.0316139 0)
(-0.0434015 0.00683885 0)
(-0.0374408 -0.0222468 0)
(-0.0303671 -0.0553232 0)
(-0.0205921 -0.0918803 0)
(-0.00880474 -0.128804 0)
(0.00437416 -0.161123 0)
(0.0174193 -0.181791 0)
(0.0301926 -0.190166 0)
(0.0419939 -0.187228 0)
(0.0522992 -0.174452 0)
(0.0622804 -0.154105 0)
(0.0708783 -0.132433 0)
(0.0764296 -0.109379 0)
(0.0799127 -0.0858342 0)
(0.0825219 -0.063617 0)
(0.0847548 -0.0440874 0)
(0.0865673 -0.0279716 0)
(0.087626 -0.015173 0)
(0.087714 -0.00491362 0)
(0.0866852 0.00372382 0)
(0.0847393 0.0114191 0)
(0.0820283 0.0186959 0)
(0.0787355 0.0260604 0)
(0.0751458 0.0340281 0)
(0.0716608 0.0431804 0)
(0.0696364 0.0548455 0)
(0.0684076 0.0694497 0)
(0.0812235 0.0887175 0)
(0.0838179 0.0922209 0)
(0.0884257 0.0545686 0)
(0.180729 0.0243525 0)
(-0.282386 0.153537 0)
(0.927956 0.517166 0)
(-0.383164 0.234224 0)
(0.0169006 0.133071 0)
(-0.0273616 0.11675 0)
(-0.0265968 0.0950181 0)
(-0.0228034 0.0725269 0)
(-0.0177046 0.0501993 0)
(-0.0124393 0.0273353 0)
(-0.00549182 0.00193257 0)
(0.00449758 -0.0306928 0)
(0.0142137 -0.0652776 0)
(0.0255003 -0.103249 0)
(0.0371187 -0.140728 0)
(0.0477686 -0.171985 0)
(0.0568366 -0.192199 0)
(0.0643083 -0.199737 0)
(0.0700184 -0.195379 0)
(0.073972 -0.181232 0)
(0.0766824 -0.160165 0)
(0.0780638 -0.136157 0)
(0.0777287 -0.111104 0)
(0.0762457 -0.086525 0)
(0.0744374 -0.0639054 0)
(0.0728222 -0.0442549 0)
(0.0715335 -0.0279574 0)
(0.0704355 -0.0147349 0)
(0.0693375 -0.00389497 0)
(0.0679509 0.00533504 0)
(0.0664047 0.0135318 0)
(0.0646788 0.0211818 0)
(0.0628681 0.0287177 0)
(0.0611748 0.0365088 0)
(0.0599164 0.0448799 0)
(0.0599646 0.0543685 0)
(0.0611343 0.0650582 0)
(0.0698513 0.0786851 0)
(0.0788539 0.0827422 0)
(0.0767842 0.0624263 0)
(0.238715 0.0515126 0)
(-0.559441 0.230229 0)
(1.01131 0.506845 0)
(-0.137367 0.296374 0)
(0.0410745 0.161577 0)
(0.040554 0.12217 0)
(0.0130358 0.0920668 0)
(0.00861012 0.0654586 0)
(0.0140248 0.0414784 0)
(0.0206414 0.0170546 0)
(0.0324511 -0.0109687 0)
(0.0439149 -0.0421097 0)
(0.0557807 -0.0768577 0)
(0.0680431 -0.11454 0)
(0.0791564 -0.150946 0)
(0.0876276 -0.18038 0)
(0.0928176 -0.198426 0)
(0.0948425 -0.203656 0)
(0.094116 -0.197088 0)
(0.0911897 -0.181114 0)
(0.0867418 -0.158757 0)
(0.0812217 -0.133327 0)
(0.0749178 -0.107257 0)
(0.068422 -0.0823862 0)
(0.0624483 -0.0600842 0)
(0.057506 -0.0410873 0)
(0.0537766 -0.0254917 0)
(0.0511524 -0.0128114 0)
(0.0493678 -0.00228427 0)
(0.048024 0.00677403 0)
(0.0471159 0.0148579 0)
(0.0464251 0.0224076 0)
(0.0459191 0.0297627 0)
(0.0456725 0.0371546 0)
(0.0458595 0.0447225 0)
(0.0469843 0.0526261 0)
(0.0490855 0.0607638 0)
(0.0553339 0.0700555 0)
(0.0636999 0.0719734 0)
(0.0539507 0.0495016 0)
(0.294144 0.0721726 0)
(-0.777254 0.299344 0)
(0.779347 0.395785 0)
(0.000709649 0.31953 0)
(0.0933616 0.218949 0)
(0.11057 0.155221 0)
(0.0771343 0.106887 0)
(0.059759 0.067614 0)
(0.0581749 0.0358241 0)
(0.0623364 0.00646255 0)
(0.0737654 -0.0234002 0)
(0.0853358 -0.055015 0)
(0.0975235 -0.089704 0)
(0.109369 -0.126155 0)
(0.118714 -0.159872 0)
(0.123784 -0.185554 0)
(0.123983 -0.199648 0)
(0.119742 -0.201313 0)
(0.112014 -0.191886 0)
(0.101878 -0.173882 0)
(0.0903768 -0.150307 0)
(0.0783523 -0.124184 0)
(0.0664924 -0.0980484 0)
(0.0555244 -0.0738311 0)
(0.0461663 -0.0527957 0)
(0.0388731 -0.035395 0)
(0.0337283 -0.0214298 0)
(0.030483 -0.0101401 0)
(0.0286793 -0.000637842 0)
(0.0278494 0.007687 0)
(0.0277481 0.0152717 0)
(0.028048 0.0224848 0)
(0.0286239 0.0295565 0)
(0.0294234 0.0366041 0)
(0.0304388 0.0436464 0)
(0.0318016 0.0506556 0)
(0.0332914 0.0574973 0)
(0.0357157 0.0649501 0)
(0.0275857 0.0695434 0)
(0.0214765 0.0813572 0)
(0.136219 0.159489 0)
(-0.652864 0.302452 0)
(0.617288 0.220934 0)
(0.00459505 0.298159 0)
(0.11303 0.241571 0)
(0.148296 0.177587 0)
(0.130859 0.12355 0)
(0.117835 0.0778803 0)
(0.114969 0.0389341 0)
(0.117133 0.00343216 0)
(0.123495 -0.0306917 0)
(0.13172 -0.0649782 0)
(0.141397 -0.100435 0)
(0.150253 -0.135239 0)
(0.155349 -0.165044 0)
(0.154763 -0.185551 0)
(0.148182 -0.194472 0)
(0.136508 -0.191821 0)
(0.121213 -0.179316 0)
(0.103808 -0.159496 0)
(0.0856674 -0.135241 0)
(0.0679072 -0.109332 0)
(0.0514779 -0.0842362 0)
(0.0372523 -0.061834 0)
(0.0259677 -0.0432265 0)
(0.0178764 -0.0284693 0)
(0.0127326 -0.0169809 0)
(0.009883 -0.00764535 0)
(0.00860601 0.000461559 0)
(0.00853335 0.00782416 0)
(0.00916642 0.0147903 0)
(0.0102643 0.021615 0)
(0.011667 0.0284406 0)
(0.0132181 0.0353357 0)
(0.0147183 0.0422953 0)
(0.0159845 0.0492526 0)
(0.016856 0.0561725 0)
(0.0168211 0.0648585 0)
(-0.0066665 0.0850381 0)
(-0.00186495 0.118591 0)
(0.132022 0.177087 0)
(-0.56029 0.240453 0)
(0.570768 0.118576 0)
(-0.0203102 0.258671 0)
(0.113747 0.229908 0)
(0.16509 0.17609 0)
(0.166745 0.126228 0)
(0.164396 0.0811471 0)
(0.165374 0.0400164 0)
(0.16829 0.00166267 0)
(0.172256 -0.0353661 0)
(0.177835 -0.0718737 0)
(0.183998 -0.107487 0)
(0.187664 -0.139451 0)
(0.185821 -0.163933 0)
(0.177096 -0.178154 0)
(0.161936 -0.181334 0)
(0.141882 -0.174355 0)
(0.118878 -0.159228 0)
(0.0946909 -0.138358 0)
(0.0709242 -0.114433 0)
(0.0488339 -0.0899455 0)
(0.0296058 -0.0672622 0)
(0.0142451 -0.0481331 0)
(0.00333436 -0.0333051 0)
(-0.00358903 -0.0219674 0)
(-0.00730621 -0.0133785 0)
(-0.00916055 -0.00599772 0)
(-0.00976034 0.000785154 0)
(-0.0093468 0.00724012 0)
(-0.00827471 0.0135841 0)
(-0.00666027 0.0199825 0)
(-0.00465857 0.0265697 0)
(-0.00249929 0.033476 0)
(-0.000573954 0.0408245 0)
(0.000550867 0.0486955 0)
(0.000689426 0.0575397 0)
(-0.0044002 0.0731724 0)
(-0.0353848 0.108889 0)
(-0.0261691 0.145602 0)
(0.0643023 0.183325 0)
(-0.526081 0.186513 0)
(0.628411 0.0537261 0)
(0.00938652 0.197322 0)
(0.113885 0.196983 0)
(0.175181 0.157985 0)
(0.191414 0.117749 0)
(0.198049 0.0773314 0)
(0.203365 0.0373184 0)
(0.208569 -0.00148723 0)
(0.213089 -0.0396549 0)
(0.217421 -0.0764995 0)
(0.219244 -0.109841 0)
(0.215391 -0.136544 0)
(0.20398 -0.154051 0)
(0.185099 -0.161404 0)
(0.160362 -0.159177 0)
(0.131934 -0.148766 0)
(0.102075 -0.132234 0)
(0.0725159 -0.111638 0)
(0.0450631 -0.0894856 0)
(0.0209739 -0.0679721 0)
(0.00184357 -0.0493985 0)
(-0.0114104 -0.0353146 0)
(-0.0190853 -0.0255622 0)
(-0.0234022 -0.0179387 0)
(-0.0256568 -0.011363 0)
(-0.026724 -0.00523306 0)
(-0.0269095 0.000633784 0)
(-0.026306 0.00634507 0)
(-0.0250272 0.0120548 0)
(-0.0230856 0.0179381 0)
(-0.0206031 0.0242091 0)
(-0.0178308 0.0311477 0)
(-0.0152828 0.0391285 0)
(-0.0138622 0.0487336 0)
(-0.0141555 0.0616433 0)
(-0.0198955 0.085875 0)
(-0.0479757 0.132196 0)
(-0.0420207 0.174681 0)
(-0.0198587 0.173227 0)
(-0.542083 0.102156 0)
(0.472609 0.074784 0)
(-0.132019 0.137613 0)
(0.0942807 0.133362 0)
(0.17276 0.116882 0)
(0.203844 0.0954269 0)
(0.218101 0.0644619 0)
(0.228071 0.0284246 0)
(0.237158 -0.00896959 0)
(0.243579 -0.0453421 0)
(0.245122 -0.0782509 0)
(0.239156 -0.105022 0)
(0.224324 -0.123626 0)
(0.201141 -0.133254 0)
(0.171512 -0.134385 0)
(0.13801 -0.128293 0)
(0.102928 -0.116249 0)
(0.068621 -0.100124 0)
(0.0363096 -0.0815103 0)
(0.00847911 -0.0629257 0)
(-0.0139985 -0.0463779 0)
(-0.0278199 -0.0352279 0)
(-0.0360136 -0.0273865 0)
(-0.0404779 -0.0212378 0)
(-0.0428981 -0.0156357 0)
(-0.0441472 -0.0102159 0)
(-0.0446765 -0.00488685 0)
(-0.0445923 0.000289786 0)
(-0.0438835 0.00530965 0)
(-0.042496 0.0103046 0)
(-0.0403105 0.0155143 0)
(-0.0373695 0.0212737 0)
(-0.033851 0.0280406 0)
(-0.0301946 0.0364689 0)
(-0.0272747 0.0476671 0)
(-0.0252015 0.0640338 0)
(-0.0219631 0.092007 0)
(-0.0313085 0.141652 0)
(-0.0247027 0.201312 0)
(0.0935405 0.192764 0)
(-0.510665 0.031383 0)
(0.724106 0.134436 0)
(0.0818327 0.115248 0)
(0.14974 0.0992608 0)
(0.222373 0.080571 0)
(0.244005 0.0700283 0)
(0.248781 0.0477484 0)
(0.255089 0.01758 0)
(0.261239 -0.014743 0)
(0.260317 -0.0447886 0)
(0.249873 -0.0695776 0)
(0.229659 -0.0874015 0)
(0.201235 -0.0978244 0)
(0.166957 -0.101191 0)
(0.129347 -0.098533 0)
(0.0909109 -0.0911491 0)
(0.0530914 -0.0797255 0)
(0.018726 -0.0659604 0)
(-0.0126325 -0.0510264 0)
(-0.0344757 -0.0397417 0)
(-0.0487297 -0.0320304 0)
(-0.0568981 -0.0269933 0)
(-0.0614395 -0.0228817 0)
(-0.0638808 -0.0188087 0)
(-0.0651528 -0.0143904 0)
(-0.0657221 -0.00967961 0)
(-0.0658215 -0.00487927 0)
(-0.0654949 -0.000223105 0)
(-0.064684 0.00417362 0)
(-0.0633134 0.00840537 0)
(-0.0610936 0.0127696 0)
(-0.057966 0.0177139 0)
(-0.0539596 0.0238508 0)
(-0.049228 0.0320585 0)
(-0.0440819 0.0436671 0)
(-0.0379053 0.0607514 0)
(-0.0262189 0.086967 0)
(-0.0132338 0.129096 0)
(-0.0036779 0.190107 0)
(0.158576 0.18723 0)
(-0.38197 0.0821718 0)
(0.191734 0.0880463 0)
(0.225609 0.0998585 0)
(0.246393 0.070268 0)
(0.242471 0.0399391 0)
(0.239706 0.0122038 0)
(0.234768 -0.0128757 0)
(0.220127 -0.0333837 0)
(0.196493 -0.0484737 0)
(0.166172 -0.0581249 0)
(0.131581 -0.0628327 0)
(0.0944879 -0.062938 0)
(0.0568105 -0.0592126 0)
(0.0205518 -0.0526024 0)
(-0.0150124 -0.0433447 0)
(-0.0423549 -0.0350003 0)
(-0.0626473 -0.0287635 0)
(-0.0757621 -0.0253735 0)
(-0.0836868 -0.0234972 0)
(-0.0882742 -0.0220016 0)
(-0.0909769 -0.0199376 0)
(-0.0925484 -0.017048 0)
(-0.0933825 -0.0134055 0)
(-0.0937028 -0.00925817 0)
(-0.0936524 -0.00492048 0)
(-0.0932797 -0.000706456 0)
(-0.0925754 0.00318265 0)
(-0.091563 0.00673695 0)
(-0.0898995 0.0102299 0)
(-0.0874134 0.0141705 0)
(-0.0838537 0.0192352 0)
(-0.0788088 0.0262823 0)
(-0.0717552 0.0363694 0)
(-0.0615933 0.0507389 0)
(-0.0447664 0.0708515 0)
(-0.0189266 0.0992308 0)
(0.00601809 0.146451 0)
(0.181479 0.159434 0)
(-0.347981 0.140259 0)
(0.450839 0.209875 0)
(0.205836 0.178839 0)
(0.152398 0.118817 0)
(0.139463 0.063994 0)
(0.128263 0.0257745 0)
(0.11438 0.00164421 0)
(0.0990804 -0.0130619 0)
(0.0780693 -0.0220762 0)
(0.0533086 -0.0274429 0)
(0.0259145 -0.0295687 0)
(-0.00442885 -0.0283555 0)
(-0.0341986 -0.0248854 0)
(-0.0607326 -0.0207674 0)
(-0.0828266 -0.0175469 0)
(-0.0988351 -0.0166432 0)
(-0.10948 -0.0174285 0)
(-0.116122 -0.019077 0)
(-0.120415 -0.0202567 0)
(-0.123385 -0.020304 0)
(-0.125554 -0.0189943 0)
(-0.127141 -0.0164005 0)
(-0.128248 -0.0127508 0)
(-0.128931 -0.00839248 0)
(-0.129229 -0.00377834 0)
(-0.129163 0.00055634 0)
(-0.128795 0.00411974 0)
(-0.12829 0.00696067 0)
(-0.127424 0.00949306 0)
(-0.125938 0.0121902 0)
(-0.123362 0.015542 0)
(-0.118942 0.0200716 0)
(-0.111793 0.0263439 0)
(-0.100764 0.0347259 0)
(-0.0829971 0.0448708 0)
(-0.0533986 0.0562156 0)
(-0.0118909 0.0760024 0)
(0.187741 0.123245 0)
(-0.402417 0.20758 0)
(0.358456 -0.417344 0)
(-0.346436 -0.512851 0)
(-0.218451 -0.0271202 0)
(-0.0935009 0.111059 0)
(-0.0539722 0.0925555 0)
(-0.0315497 0.0544584 0)
(-0.0266358 0.0282246 0)
(-0.0315002 0.0114786 0)
(-0.0401704 0.000706547 0)
(-0.0506867 -0.00619529 0)
(-0.0644503 -0.0101704 0)
(-0.0801624 -0.0120578 0)
(-0.0967144 -0.0131669 0)
(-0.112649 -0.015041 0)
(-0.126751 -0.0180803 0)
(-0.138033 -0.0214987 0)
(-0.145809 -0.0244811 0)
(-0.150614 -0.0267205 0)
(-0.153831 -0.0282065 0)
(-0.156444 -0.0289069 0)
(-0.158848 -0.0287969 0)
(-0.161132 -0.0278748 0)
(-0.16327 -0.0262076 0)
(-0.165217 -0.0239181 0)
(-0.166944 -0.0211405 0)
(-0.168416 -0.0179423 0)
(-0.169486 -0.0142469 0)
(-0.169869 -0.00982663 0)
(-0.169406 -0.00536633 0)
(-0.168263 -0.00121043 0)
(-0.166448 0.00284925 0)
(-0.163784 0.00706876 0)
(-0.159936 0.0117099 0)
(-0.154764 0.0170838 0)
(-0.14845 0.0233854 0)
(-0.139878 0.0305476 0)
(-0.122571 0.040492 0)
(-0.0810857 0.0659056 0)
(-0.0244139 0.129036 0)
(-0.536009 0.227672 0)
(0.122135 -0.186461 0)
(-0.388814 -0.298204 0)
(-0.343744 -0.0962859 0)
(-0.265361 0.0517674 0)
(-0.211662 0.0835506 0)
(-0.179553 0.0745175 0)
(-0.16332 0.0610397 0)
(-0.157346 0.0511837 0)
(-0.157393 0.0462574 0)
(-0.160619 0.046055 0)
(-0.165139 0.0497137 0)
(-0.16945 0.0559904 0)
(-0.172711 0.0634857 0)
(-0.174752 0.0704867 0)
(-0.17597 0.0750062 0)
(-0.176968 0.0745878 0)
(-0.178467 0.0684105 0)
(-0.180712 0.0612655 0)
(-0.183785 0.0550705 0)
(-0.187581 0.0504489 0)
(-0.191865 0.047544 0)
(-0.196301 0.0463345 0)
(-0.2005 0.0466762 0)
(-0.204089 0.0482727 0)
(-0.206786 0.0506109 0)
(-0.208458 0.0528947 0)
(-0.209108 0.0540245 0)
(-0.208686 0.0527294 0)
(-0.207078 0.050274 0)
(-0.204325 0.0476406 0)
(-0.200494 0.0449768 0)
(-0.195446 0.0423456 0)
(-0.188883 0.0398719 0)
(-0.180823 0.0376577 0)
(-0.171828 0.0352603 0)
(-0.160208 0.0308823 0)
(-0.134108 0.0232888 0)
(-0.0666759 0.0227501 0)
(0.123635 0.0708576 0)
(-0.588551 0.15779 0)
(1.14917 -0.0111505 0)
(-0.297913 -0.323666 0)
(-0.353602 -0.233154 0)
(-0.353322 -0.148814 0)
(-0.329629 -0.107598 0)
(-0.298168 -0.0991917 0)
(-0.271164 -0.101535 0)
(-0.251665 -0.107356 0)
(-0.238611 -0.114981 0)
(-0.229792 -0.124246 0)
(-0.223175 -0.13539 0)
(-0.217372 -0.148548 0)
(-0.211781 -0.16324 0)
(-0.206521 -0.178034 0)
(-0.202301 -0.190561 0)
(-0.200299 -0.198149 0)
(-0.201736 -0.199293 0)
(-0.207016 -0.197021 0)
(-0.215268 -0.192349 0)
(-0.225351 -0.18599 0)
(-0.236139 -0.178624 0)
(-0.246628 -0.170941 0)
(-0.25597 -0.16352 0)
(-0.263484 -0.15668 0)
(-0.268659 -0.150405 0)
(-0.271212 -0.144396 0)
(-0.271213 -0.138183 0)
(-0.269155 -0.131344 0)
(-0.265941 -0.124736 0)
(-0.261935 -0.118337 0)
(-0.257144 -0.111679 0)
(-0.251395 -0.104516 0)
(-0.244552 -0.0968576 0)
(-0.237305 -0.0889288 0)
(-0.231787 -0.0812225 0)
(-0.227965 -0.0742127 0)
(-0.211999 -0.0651388 0)
(-0.162278 -0.0400101 0)
(-0.152339 0.0171672 0)
(-0.663547 0.0788918 0)
)
;

boundaryField
{
    floor
    {
        type            noSlip;
    }
    ceiling
    {
        type            noSlip;
    }
    sWall
    {
        type            noSlip;
    }
    nWall
    {
        type            noSlip;
    }
    sideWalls
    {
        type            empty;
    }
    glass1
    {
        type            noSlip;
    }
    glass2
    {
        type            noSlip;
    }
    sun
    {
        type            noSlip;
    }
    Table_master
    {
        type            noSlip;
    }
    Table_slave
    {
        type            noSlip;
    }
    inlet
    {
        type            fixedValue;
        value           uniform (0.5 0 0);
    }
    outlet
    {
        type            zeroGradient;
    }
}


// ************************************************************************* //
