/*--------------------------------*- C++ -*----------------------------------*\
  =========                 |
  \\      /  F ield         | OpenFOAM: The Open Source CFD Toolbox
   \\    /   O peration     | Website:  https://openfoam.org
    \\  /    A nd           | Version:  6
     \\/     M anipulation  |
\*---------------------------------------------------------------------------*/
FoamFile
{
    version     2.0;
    format      ascii;
    class       volScalarField;
    location    "24899.9999989480384";
    object      k;
}
// * * * * * * * * * * * * * * * * * * * * * * * * * * * * * * * * * * * * * //

dimensions      [0 2 -2 0 0 0 0];

internalField   nonuniform List<scalar> 
778
(
0.00158588
0.0018011
0.00178804
0.00194666
0.00209798
0.00224033
0.00237706
0.00251272
0.00265308
0.00280641
0.0029566
0.00310282
0.00325025
0.00341255
0.00358612
0.000793037
0.00162452
0.0016509
0.00157192
0.00144422
0.00128216
0.00113024
0.000998683
0.000887007
0.000792491
0.000712767
0.00064477
0.000585803
0.000533321
0.000484611
0.000436173
0.000397908
0.000326059
0.00340686
0.00643322
0.00268761
0.00274629
0.00288803
0.00305467
0.00323509
0.00343091
0.00364417
0.00387449
0.00412649
0.00438008
0.00459557
0.00470048
0.0045945
0.00429811
0.00390707
0.00357978
0.00253573
0.00281143
0.00295318
0.00289526
0.0026624
0.00226375
0.00190485
0.00160888
0.00136935
0.00117565
0.00101689
0.000885124
0.000773882
0.00068108
0.000615065
0.000574515
0.000864237
0.000523926
0.00549052
0.0127805
0.00347801
0.00321237
0.00329774
0.00345563
0.00363705
0.00384127
0.00407161
0.00432821
0.00463619
0.00501131
0.00545104
0.00595996
0.00653029
0.00685841
0.00627633
0.005385
0.00403748
0.0041688
0.00417145
0.00397349
0.00357534
0.0026631
0.00201346
0.00157447
0.00126865
0.00104887
0.000886698
0.00076447
0.00067171
0.000603538
0.000551375
0.000548578
0.00116581
0.000677877
0.00797305
0.021757
0.00449105
0.00339098
0.00334181
0.0034384
0.00354979
0.00366929
0.00380954
0.00399185
0.00425965
0.00464885
0.00517126
0.00582475
0.0065537
0.00713311
0.00722685
0.00724211
0.00534298
0.00555037
0.0053762
0.00512527
0.0047864
0.00434732
0.00345479
0.00285769
0.0024345
0.00210859
0.00184935
0.00163104
0.00143776
0.00125784
0.00107697
0.00079999
0.000659293
0.00142259
0.000821309
0.0108755
0.0336321
0.00621222
0.00342517
0.00315853
0.00316723
0.00318985
0.00321016
0.00325244
0.00336146
0.0035951
0.00398945
0.0045534
0.00527618
0.00608593
0.00681622
0.00728219
0.00764347
0.00751727
0.00665409
0.00607335
0.00557904
0.00509892
0.00462895
0.00412235
0.00366466
0.003274
0.00293634
0.0026302
0.00234685
0.00207837
0.00181766
0.0015541
0.00122092
0.000929132
0.00119006
0.00121563
0.00116842
0.00206145
0.00187142
0.0141736
0.0475953
0.00928238
0.00349004
0.0029087
0.00282291
0.00276457
0.00269972
0.00266441
0.00273477
0.00298104
0.00341437
0.00402321
0.00479665
0.00565194
0.00645893
0.00706683
0.00740589
0.00732289
0.00678947
0.00621491
0.0056371
0.00507419
0.00455572
0.00409088
0.00369517
0.00336261
0.00307316
0.00280624
0.00255096
0.00229834
0.00204147
0.00177305
0.00147054
0.00117704
0.0011115
0.00111002
0.00172949
0.005163
0.00266782
0.0179902
0.0606028
0.0143569
0.00381916
0.00271522
0.00252945
0.00241186
0.00229411
0.00222114
0.00231172
0.00263053
0.00313936
0.00380143
0.00462943
0.00552585
0.00636358
0.00699794
0.00732587
0.00725303
0.00681727
0.00621496
0.00555455
0.00491168
0.00434256
0.00387228
0.00350028
0.00320667
0.00296175
0.00274135
0.00252902
0.00231318
0.0020866
0.0018445
0.00158231
0.00132642
0.00115788
0.00109048
0.00157559
0.0063836
0.0037262
0.0216389
0.0704797
0.0214319
0.00510052
0.0027424
0.00237166
0.00221003
0.00208186
0.00202628
0.00221961
0.0026501
0.00323104
0.00393645
0.00477245
0.00569572
0.00656964
0.00722
0.0075111
0.00738238
0.00689502
0.00619743
0.0054264
0.00469113
0.00406422
0.00357433
0.00321253
0.00294788
0.00274133
0.00256467
0.00239624
0.0022222
0.00203504
0.00183147
0.00161254
0.00139668
0.00122583
0.00115047
0.00216361
0.0147549
0.006501
0.0228317
0.0694965
0.0325292
0.0110496
0.00406381
0.00258635
0.00223506
0.00210274
0.00218977
0.00251261
0.00300091
0.00360218
0.00433154
0.00521008
0.00618115
0.00708299
0.00771288
0.00791958
0.00766199
0.00702363
0.00616387
0.00524751
0.00440691
0.00372214
0.00321662
0.00286909
0.00263601
0.00246966
0.00233705
0.00221214
0.00207992
0.00193323
0.00176993
0.00159274
0.00141542
0.00127617
0.00131486
0.00417852
0.0303018
0.00818065
0.0219175
0.0516413
0.0336415
0.0174259
0.00857983
0.00475419
0.00325865
0.00272895
0.00285245
0.00321086
0.00367262
0.00424605
0.0049936
0.00593488
0.00696945
0.00788253
0.00843713
0.00847991
0.00800011
0.00712076
0.00603883
0.00495233
0.00401065
0.00329053
0.00279805
0.00248902
0.0023028
0.00218505
0.00209732
0.00201266
0.0019175
0.00180627
0.00167812
0.0015367
0.00139379
0.00129388
0.00159519
0.0085398
0.0271258
0.00863705
0.0192339
0.0394436
0.0302384
0.0195614
0.012176
0.00793306
0.00571283
0.0046662
0.00436007
0.00439837
0.00465129
0.00514321
0.00593125
0.00697555
0.00808269
0.00895921
0.00933925
0.0090928
0.00826895
0.00705587
0.00570744
0.00445726
0.0034609
0.00276873
0.00234862
0.00211536
0.00199083
0.00192408
0.00187471
0.00182123
0.00175374
0.00166869
0.0015669
0.00145426
0.00134644
0.00132247
0.00198845
0.00834534
0.0264968
0.00881122
0.015951
0.0315916
0.0266527
0.0195371
0.0139726
0.0102801
0.00802325
0.00674689
0.00604557
0.00572822
0.00577982
0.00626973
0.00720264
0.00840984
0.00956015
0.0102795
0.0103093
0.0095914
0.008281
0.00665809
0.00504963
0.00371733
0.00279218
0.00223381
0.00195435
0.00181474
0.00174623
0.00171303
0.00168599
0.00165064
0.00159984
0.00153117
0.0014468
0.00135862
0.00130007
0.00149277
0.00301925
0.00909223
0.0239039
0.00882871
0.0132675
0.0256753
0.0233536
0.01869
0.0145824
0.0115859
0.00954072
0.0082069
0.00729754
0.00683748
0.00695384
0.00771203
0.00896798
0.0103547
0.0114003
0.0117062
0.0111096
0.00969382
0.00778052
0.00575237
0.00402437
0.0028328
0.00219289
0.00186075
0.00169689
0.00161612
0.0015765
0.00155579
0.00153523
0.00150517
0.0014604
0.00139977
0.00132936
0.00127525
0.00135779
0.00213248
0.00465004
0.0102482
0.0197232
0.00809211
0.0133475
0.0224237
0.0220612
0.0177616
0.0143928
0.0118935
0.0100828
0.00876808
0.00791714
0.00777156
0.00846605
0.00985609
0.0115113
0.0128624
0.0134039
0.0128531
0.011287
0.00898259
0.00651359
0.00430355
0.00295942
0.00222188
0.00185178
0.00166413
0.00156499
0.00150939
0.00147607
0.00145279
0.00142743
0.00139363
0.00134836
0.00129287
0.00123949
0.00123878
0.00149562
0.0026465
0.00556114
0.0105667
0.0162708
0.00748417
0.0108742
0.0117655
0.0129249
0.0125541
0.0113765
0.0100773
0.00894979
0.00820588
0.00830284
0.0094103
0.0112785
0.0133422
0.0149375
0.0155302
0.0148552
0.0129022
0.0101666
0.00702193
0.00463857
0.00313643
0.00234804
0.00195826
0.00175716
0.00163849
0.00155862
0.00150021
0.0014554
0.00141893
0.00138279
0.00134366
0.00130261
0.00126593
0.00125196
0.00131745
0.00164235
0.00271483
0.00531084
0.0098746
0.0171524
0.00771427
0.00354328
0.00482519
0.00600155
0.00661157
0.00729292
0.00880259
0.0113101
0.0141276
0.016535
0.0179721
0.01808
0.0167779
0.0142667
0.0106437
0.00734159
0.00484222
0.00333744
0.00256789
0.00220369
0.00201448
0.00189279
0.00179711
0.00171402
0.00164094
0.00157957
0.00153301
0.00150158
0.00148799
0.00149901
0.00154114
0.00162423
0.00178401
0.00213724
0.00299013
0.00503069
0.00993098
0.0155534
0.00885335
0.00444584
0.00629942
0.00812404
0.0110422
0.0147153
0.018167
0.0203901
0.0214421
0.0213666
0.0201564
0.0176318
0.0141731
0.0105197
0.00722656
0.00489831
0.0035533
0.00290229
0.00260333
0.00244924
0.00234984
0.00227177
0.00220287
0.00214014
0.00208643
0.00204914
0.00203879
0.00206574
0.00213929
0.00226492
0.0024423
0.00267267
0.00297877
0.00344145
0.00426612
0.00600121
0.0114602
0.0151015
0.00924626
0.0150699
0.0244335
0.0181007
0.0144127
0.0170411
0.0207366
0.02286
0.0235497
0.0230815
0.0217167
0.0197015
0.0170679
0.0139095
0.0106017
0.00764775
0.00547292
0.00422338
0.00362512
0.00335216
0.00321905
0.00315101
0.00311626
0.00309565
0.00307547
0.00304977
0.0030238
0.00301363
0.00303986
0.00311817
0.00325997
0.003471
0.00375602
0.00412722
0.00462242
0.00533579
0.00647194
0.00853723
0.0141993
0.0178654
0.00941124
0.0138073
0.0170476
0.0178789
0.0207885
0.0217347
0.022157
0.0211605
0.0193459
0.0172247
0.015049
0.0129211
0.0108901
0.00900726
0.00737048
0.00608057
0.00514396
0.00453839
0.004176
0.00397816
0.00390038
0.00391486
0.00399626
0.00411693
0.00424892
0.0043696
0.0044687
0.00455264
0.00464264
0.00476967
0.00495745
0.00522644
0.00559945
0.00611011
0.00681842
0.00782398
0.00924814
0.0112618
0.0152352
0.0214704
0.00931142
0.0121406
0.00891226
0.008827
0.00935127
0.00979881
0.00923331
0.0081769
0.0070288
0.00597159
0.00505116
0.00425873
0.00358285
0.00303074
0.00262265
0.00237127
0.0022621
0.00223165
0.00225155
0.00230603
0.00238382
0.00247533
0.00257259
0.00266982
0.00276397
0.00285495
0.00294553
0.00304074
0.00314665
0.0032693
0.00341414
0.00358808
0.0038034
0.00408296
0.00446523
0.00500342
0.00575124
0.00673939
0.00795597
0.00930936
0.00808531
)
;

boundaryField
{
    floor
    {
        type            kqRWallFunction;
        value           nonuniform List<scalar> 
36
(
0.00358612
0.000793037
0.00162452
0.0016509
0.00157192
0.00144422
0.00128216
0.00113024
0.000998683
0.000887007
0.000792491
0.000712767
0.00064477
0.000585803
0.000533321
0.000484611
0.000436173
0.000397908
0.000326059
0.000326059
0.000523926
0.000677877
0.000821309
0.00116842
0.00206145
0.00187142
0.00358612
0.00429811
0.00390707
0.00357978
0.000793037
0.00357978
0.00253573
0.005385
0.00403748
0.00534298
)
;
    }
    ceiling
    {
        type            kqRWallFunction;
        value           nonuniform List<scalar> 
43
(
0.0121406
0.00891226
0.008827
0.00935127
0.00979881
0.00923331
0.0081769
0.0070288
0.00597159
0.00505116
0.00425873
0.00358285
0.00303074
0.00262265
0.00237127
0.0022621
0.00223165
0.00225155
0.00230603
0.00238382
0.00247533
0.00257259
0.00266982
0.00276397
0.00285495
0.00294553
0.00304074
0.00314665
0.0032693
0.00341414
0.00358808
0.0038034
0.00408296
0.00446523
0.00500342
0.00575124
0.00673939
0.00795597
0.00930936
0.00808531
0.0108742
0.0117655
0.00444584
)
;
    }
    sWall
    {
        type            kqRWallFunction;
        value           nonuniform List<scalar> 9(0.0219175 0.0192339 0.015951 0.0132675 0.0133475 0.0108742 0.0150699 0.0138073 0.0121406);
    }
    nWall
    {
        type            kqRWallFunction;
        value           nonuniform List<scalar> 
14
(
0.00187142
0.00266782
0.0037262
0.00863705
0.00881122
0.00882871
0.00809211
0.00748417
0.00771427
0.00885335
0.00924626
0.00941124
0.00931142
0.00808531
)
;
    }
    sideWalls
    {
        type            empty;
    }
    glass1
    {
        type            kqRWallFunction;
        value           nonuniform List<scalar> 9(0.00158588 0.00340686 0.00549052 0.00797305 0.0108755 0.0141736 0.0179902 0.0216389 0.0228317);
    }
    glass2
    {
        type            kqRWallFunction;
        value           nonuniform List<scalar> 2(0.006501 0.00818065);
    }
    sun
    {
        type            kqRWallFunction;
        value           nonuniform List<scalar> 
14
(
0.00158588
0.0018011
0.00178804
0.00194666
0.00209798
0.00224033
0.00237706
0.00251272
0.00265308
0.00280641
0.0029566
0.00310282
0.00325025
0.00341255
)
;
    }
    Table_master
    {
        type            kqRWallFunction;
        value           nonuniform List<scalar> 9(0.0026631 0.00201346 0.00157447 0.00126865 0.00104887 0.000886698 0.00076447 0.00067171 0.000603538);
    }
    Table_slave
    {
        type            kqRWallFunction;
        value           nonuniform List<scalar> 9(0.00345479 0.00285769 0.0024345 0.00210859 0.00184935 0.00163104 0.00143776 0.00125784 0.00107697);
    }
    inlet
    {
        type            turbulentIntensityKineticEnergyInlet;
        intensity       0.05;
        value           uniform 0.0009375;
    }
    outlet
    {
        type            zeroGradient;
    }
}


// ************************************************************************* //
