/*--------------------------------*- C++ -*----------------------------------*\
  =========                 |
  \\      /  F ield         | OpenFOAM: The Open Source CFD Toolbox
   \\    /   O peration     | Website:  https://openfoam.org
    \\  /    A nd           | Version:  6
     \\/     M anipulation  |
\*---------------------------------------------------------------------------*/
FoamFile
{
    version     2.0;
    format      ascii;
    class       volScalarField;
    location    "42799.999999732383";
    object      k;
}
// * * * * * * * * * * * * * * * * * * * * * * * * * * * * * * * * * * * * * //

dimensions      [0 2 -2 0 0 0 0];

internalField   nonuniform List<scalar> 
778
(
0.00158603
0.00180122
0.00178801
0.00194646
0.00209757
0.0022397
0.00237621
0.00251165
0.00265183
0.00280502
0.00295519
0.00310152
0.00324916
0.00341178
0.00358567
0.000792626
0.0016263
0.0016528
0.00157386
0.00144596
0.00128337
0.001131
0.000999234
0.000887518
0.000793015
0.00071328
0.000645252
0.000586237
0.000533697
0.000484929
0.000436434
0.00039808
0.000326163
0.0034072
0.00643386
0.00268754
0.00274595
0.00288752
0.00305396
0.00323414
0.0034297
0.00364271
0.00387288
0.00412491
0.00437881
0.00459494
0.00470066
0.00459534
0.00429895
0.00390768
0.00358049
0.00253706
0.00281348
0.00295639
0.00289908
0.00266616
0.00226653
0.00190666
0.00161002
0.00137006
0.00117611
0.00101727
0.000885473
0.000774216
0.000681404
0.000615411
0.000574961
0.000864449
0.00052432
0.00549123
0.0127824
0.00347807
0.00321192
0.00329713
0.00345485
0.00363608
0.00384007
0.00407019
0.0043267
0.00463477
0.00501036
0.0054511
0.00596149
0.00653359
0.00686304
0.00628021
0.00538713
0.00403624
0.00416836
0.00417266
0.00397613
0.00357919
0.00266764
0.00201733
0.00157737
0.00127068
0.00105023
0.000887606
0.000765115
0.000672221
0.000603981
0.000551719
0.000548932
0.00116479
0.000678664
0.00797433
0.021761
0.00449156
0.00339051
0.00334115
0.00343763
0.00354891
0.00366826
0.00380834
0.00399054
0.00425834
0.00464794
0.00517134
0.00582636
0.00655693
0.00713745
0.00723056
0.00724563
0.00534147
0.00554671
0.0053732
0.00512358
0.00478599
0.0043482
0.00345655
0.00286026
0.00243743
0.00211132
0.00185178
0.00163314
0.00143959
0.00125948
0.00107854
0.000801441
0.000660348
0.00141957
0.000823131
0.0108776
0.0336386
0.00621377
0.0034248
0.00315791
0.00316653
0.00318913
0.0032094
0.00325159
0.00336045
0.00359405
0.00398878
0.00455383
0.00527842
0.00608973
0.00682077
0.00728532
0.00764398
0.00751488
0.00665137
0.00607043
0.00557678
0.00509784
0.00462924
0.00412373
0.00366658
0.00327603
0.00293839
0.00263207
0.00234851
0.00207988
0.00181908
0.00155549
0.00122275
0.000931674
0.00119033
0.00121702
0.00116936
0.0020069
0.00186386
0.0141764
0.0476033
0.0092859
0.00348996
0.00290822
0.00282236
0.00276405
0.00269923
0.00266391
0.00273413
0.00298035
0.00341417
0.00402455
0.00480064
0.00565787
0.00646564
0.00707176
0.00740797
0.00732239
0.00678778
0.00621276
0.00563534
0.00507332
0.00455587
0.00409177
0.00369631
0.00336367
0.00307423
0.00280726
0.00255199
0.00229949
0.00204275
0.00177432
0.00147198
0.00118
0.00111404
0.00111321
0.00169461
0.00501817
0.00267576
0.017994
0.0606097
0.0143631
0.00381987
0.00271502
0.00252912
0.00241157
0.00229386
0.00222091
0.00231125
0.00262994
0.00313944
0.00380371
0.00463564
0.0055347
0.00637327
0.00700606
0.00733095
0.00725523
0.00681767
0.00621456
0.00555411
0.00491158
0.00434286
0.00387278
0.00350068
0.0032068
0.00296183
0.00274143
0.00252928
0.00231385
0.00208773
0.00184576
0.00158335
0.00132865
0.00116332
0.00109534
0.00154323
0.00617829
0.00369716
0.021643
0.0704832
0.0214399
0.00510367
0.00274297
0.00237177
0.00221011
0.00208197
0.00202638
0.00221934
0.0026495
0.00323135
0.00393973
0.00478018
0.00570729
0.00658244
0.00723119
0.00751914
0.00738743
0.00689813
0.00619951
0.00542793
0.00469227
0.00406498
0.00357467
0.00321239
0.00294727
0.00274057
0.00256384
0.0023956
0.00222211
0.0020357
0.00183255
0.00161333
0.00139829
0.00123685
0.00116402
0.00207515
0.0133957
0.00623006
0.0228344
0.0694905
0.0325372
0.0110613
0.00406934
0.00258798
0.00223579
0.00210333
0.00219054
0.00251268
0.00300048
0.00360293
0.00433595
0.00521963
0.00619485
0.00709781
0.00772589
0.00792962
0.00766962
0.00702986
0.00616915
0.00525169
0.00440969
0.00372356
0.00321698
0.00286864
0.00263493
0.00246832
0.00233541
0.00221041
0.00207849
0.00193245
0.00176965
0.00159257
0.00141794
0.00130343
0.00138608
0.00390462
0.0253806
0.00823183
0.0219183
0.0516283
0.0336436
0.0174382
0.00859228
0.00476262
0.00326338
0.00273152
0.00285495
0.00321223
0.00367334
0.00424818
0.00499972
0.00594605
0.00698397
0.00789716
0.00844962
0.00849039
0.00801001
0.00713087
0.00604839
0.0049599
0.00401526
0.00329262
0.00279858
0.00248867
0.00230182
0.00218364
0.00209525
0.00201001
0.00191449
0.00180293
0.00167414
0.00153201
0.00139393
0.00133733
0.00189224
0.00968724
0.0226241
0.00841543
0.0192315
0.0394281
0.0302353
0.0195688
0.0121869
0.00794356
0.00572156
0.00467323
0.0043657
0.00440219
0.0046543
0.00514772
0.0059394
0.00698718
0.00809506
0.00896956
0.00934745
0.00910174
0.00828133
0.00707139
0.00572252
0.0044685
0.00346669
0.00277137
0.00234998
0.00211621
0.00199168
0.00192357
0.00187317
0.00181891
0.00175062
0.0016641
0.00155945
0.00144285
0.00133933
0.00141304
0.0034949
0.0106511
0.0184362
0.0081215
0.0159456
0.0315781
0.0266464
0.0195394
0.0139789
0.0102877
0.00803112
0.00675611
0.00605282
0.00573376
0.00578512
0.00627671
0.00721161
0.00841811
0.00956398
0.0102784
0.0103079
0.00959712
0.00829718
0.00668089
0.00506957
0.00373028
0.00279704
0.00223872
0.00195885
0.00181834
0.00174846
0.00171379
0.00168584
0.00165037
0.00159996
0.00153082
0.00144382
0.00134855
0.00128091
0.00151792
0.00389447
0.0103173
0.0168065
0.007701
0.0132621
0.0256645
0.023345
0.0186886
0.0145845
0.01159
0.00954605
0.00821209
0.00730235
0.00684274
0.00696072
0.00772003
0.00897307
0.0103504
0.0113835
0.0116828
0.0110927
0.00969661
0.00780235
0.00578077
0.00403932
0.00284389
0.00220064
0.00186946
0.00170628
0.0016241
0.0015812
0.00155753
0.0015355
0.00150636
0.00146517
0.00140976
0.00134143
0.00127017
0.00123902
0.00148321
0.00341542
0.00921433
0.0169514
0.00802327
0.0133514
0.0224051
0.0220511
0.0177572
0.0143914
0.0118941
0.0100848
0.00876938
0.00791975
0.00777762
0.00847462
0.00986067
0.0115007
0.0128272
0.0133471
0.0127955
0.0112525
0.00898604
0.00653393
0.00432134
0.00296644
0.00222688
0.00186136
0.00167994
0.00158383
0.00152592
0.00148583
0.00145497
0.00142512
0.0013915
0.00135146
0.00130572
0.00126007
0.00123429
0.00128986
0.00161805
0.00325477
0.00883144
0.0146178
0.00883884
0.0108769
0.0117609
0.0129224
0.0125523
0.0113741
0.0100741
0.0089457
0.00820351
0.00830707
0.00942105
0.0112863
0.0133293
0.0148859
0.0154347
0.014737
0.0128084
0.0101214
0.00701938
0.00463629
0.00312669
0.00233969
0.00196116
0.00177595
0.00167165
0.00159925
0.00153805
0.00148041
0.00142572
0.00137626
0.00133067
0.0012905
0.00126815
0.001295
0.00142862
0.00174717
0.00239281
0.00396291
0.00956569
0.0136529
0.00902521
0.00354535
0.00482583
0.00599658
0.00659837
0.00727342
0.00879716
0.0113186
0.0141378
0.016521
0.0179057
0.0179481
0.0165949
0.0140832
0.0105343
0.00726852
0.00479469
0.00329972
0.0025441
0.00220225
0.00204024
0.00194639
0.00187518
0.00180849
0.00173808
0.00166067
0.00157875
0.00150595
0.00145645
0.00144074
0.00149385
0.00168247
0.00209332
0.00280737
0.00394474
0.00588617
0.0100735
0.0154233
0.00868856
0.0044446
0.00628264
0.00809203
0.0110005
0.0146819
0.0181373
0.0203722
0.021411
0.0212868
0.0200025
0.0174211
0.0139147
0.010266
0.00702065
0.0047512
0.00347166
0.00288218
0.00263728
0.00252753
0.00246333
0.00241438
0.00237123
0.00232987
0.00228595
0.00223357
0.00216794
0.00209394
0.00205018
0.00206364
0.0021798
0.00247912
0.00306844
0.00405697
0.00555669
0.00771617
0.0105475
0.0134441
0.00805813
0.0150822
0.0245048
0.0180872
0.0143598
0.0169694
0.020675
0.0228144
0.02352
0.0230555
0.0216771
0.0196007
0.0169019
0.0137023
0.0103756
0.00747202
0.00542128
0.00430389
0.00381254
0.00360622
0.00349424
0.00340593
0.00332434
0.00325231
0.003198
0.00316817
0.00316397
0.00317868
0.00319897
0.00321289
0.00323809
0.00332218
0.00350101
0.00384444
0.00445564
0.00546064
0.00700538
0.00929245
0.0124838
0.0166078
0.00834132
0.0138113
0.0170589
0.0178508
0.020748
0.0216654
0.0220796
0.0210855
0.0192794
0.0171655
0.0149836
0.0128226
0.0107072
0.00872098
0.00704317
0.00584582
0.00515079
0.00480129
0.00462928
0.00452197
0.00443037
0.0043414
0.00426021
0.00420128
0.00418349
0.00422595
0.00434338
0.00454082
0.00480821
0.00511526
0.00540481
0.00565748
0.00594425
0.00635569
0.00699459
0.00798331
0.00947573
0.0116981
0.0152226
0.016131
0.0106752
0.0121321
0.0089096
0.00882036
0.00934063
0.00978251
0.00920689
0.0081293
0.00694334
0.00583273
0.00485434
0.00401881
0.00333691
0.00282585
0.00249292
0.00231632
0.00224839
0.00224434
0.00226406
0.00229406
0.00233214
0.00238251
0.00245313
0.00255332
0.00269084
0.00286881
0.00308379
0.00332659
0.00358585
0.00385287
0.0041265
0.00441149
0.00471096
0.00504587
0.00544301
0.00592581
0.0065044
0.00716736
0.00792013
0.00886141
0.00895228
)
;

boundaryField
{
    floor
    {
        type            kqRWallFunction;
        value           nonuniform List<scalar> 
36
(
0.00358567
0.000792626
0.0016263
0.0016528
0.00157386
0.00144596
0.00128337
0.001131
0.000999234
0.000887518
0.000793015
0.00071328
0.000645252
0.000586237
0.000533697
0.000484929
0.000436434
0.00039808
0.000326163
0.000326163
0.00052432
0.000678664
0.000823131
0.00116936
0.0020069
0.00186386
0.00358567
0.00429895
0.00390768
0.00358049
0.000792626
0.00358049
0.00253706
0.00538713
0.00403624
0.00534147
)
;
    }
    ceiling
    {
        type            kqRWallFunction;
        value           nonuniform List<scalar> 
43
(
0.0121321
0.0089096
0.00882036
0.00934063
0.00978251
0.00920689
0.0081293
0.00694334
0.00583273
0.00485434
0.00401881
0.00333691
0.00282585
0.00249292
0.00231632
0.00224839
0.00224434
0.00226406
0.00229406
0.00233214
0.00238251
0.00245313
0.00255332
0.00269084
0.00286881
0.00308379
0.00332659
0.00358585
0.00385287
0.0041265
0.00441149
0.00471096
0.00504587
0.00544301
0.00592581
0.0065044
0.00716736
0.00792013
0.00886141
0.00895228
0.0108769
0.0117609
0.0044446
)
;
    }
    sWall
    {
        type            kqRWallFunction;
        value           nonuniform List<scalar> 9(0.0219183 0.0192315 0.0159456 0.0132621 0.0133514 0.0108769 0.0150822 0.0138113 0.0121321);
    }
    nWall
    {
        type            kqRWallFunction;
        value           nonuniform List<scalar> 
14
(
0.00186386
0.00267576
0.00369716
0.00841543
0.0081215
0.007701
0.00802327
0.00883884
0.00902521
0.00868856
0.00805813
0.00834132
0.0106752
0.00895228
)
;
    }
    sideWalls
    {
        type            empty;
    }
    glass1
    {
        type            kqRWallFunction;
        value           nonuniform List<scalar> 9(0.00158603 0.0034072 0.00549123 0.00797433 0.0108776 0.0141764 0.017994 0.021643 0.0228344);
    }
    glass2
    {
        type            kqRWallFunction;
        value           nonuniform List<scalar> 2(0.00623006 0.00823183);
    }
    sun
    {
        type            kqRWallFunction;
        value           nonuniform List<scalar> 
14
(
0.00158603
0.00180122
0.00178801
0.00194646
0.00209757
0.0022397
0.00237621
0.00251165
0.00265183
0.00280502
0.00295519
0.00310152
0.00324916
0.00341178
)
;
    }
    Table_master
    {
        type            kqRWallFunction;
        value           nonuniform List<scalar> 9(0.00266764 0.00201733 0.00157737 0.00127068 0.00105023 0.000887606 0.000765115 0.000672221 0.000603981);
    }
    Table_slave
    {
        type            kqRWallFunction;
        value           nonuniform List<scalar> 9(0.00345655 0.00286026 0.00243743 0.00211132 0.00185178 0.00163314 0.00143959 0.00125948 0.00107854);
    }
    inlet
    {
        type            turbulentIntensityKineticEnergyInlet;
        intensity       0.05;
        value           uniform 0.0009375;
    }
    outlet
    {
        type            zeroGradient;
    }
}


// ************************************************************************* //
