/*--------------------------------*- C++ -*----------------------------------*\
  =========                 |
  \\      /  F ield         | OpenFOAM: The Open Source CFD Toolbox
   \\    /   O peration     | Website:  https://openfoam.org
    \\  /    A nd           | Version:  6
     \\/     M anipulation  |
\*---------------------------------------------------------------------------*/
FoamFile
{
    version     2.0;
    format      ascii;
    class       volVectorField;
    location    "42799.999999732383";
    object      U;
}
// * * * * * * * * * * * * * * * * * * * * * * * * * * * * * * * * * * * * * //

dimensions      [0 1 -1 0 0 0 0];

internalField   nonuniform List<vector> 
778
(
(0.0655973 0.0794073 0)
(-0.155178 0.0157647 0)
(-0.164303 0.0146235 0)
(-0.192418 0.0122744 0)
(-0.216853 0.0087254 0)
(-0.236914 0.00474585 0)
(-0.252044 0.000420253 0)
(-0.26182 -0.00436415 0)
(-0.265728 -0.00980618 0)
(-0.262763 -0.0161865 0)
(-0.25097 -0.0242609 0)
(-0.226277 -0.0348822 0)
(-0.186155 -0.0504077 0)
(-0.144212 -0.0751839 0)
(-0.150094 -0.108585 0)
(0.0546469 0.0355146 0)
(0.0157541 -0.0268951 0)
(0.0449621 -0.0232843 0)
(0.0693929 -0.0161793 0)
(0.0844831 -0.0103677 0)
(0.0917121 -0.00641805 0)
(0.0945505 -0.00433435 0)
(0.0955766 -0.00331221 0)
(0.0960231 -0.00272741 0)
(0.0961921 -0.00231581 0)
(0.0960687 -0.00195209 0)
(0.0955437 -0.00151152 0)
(0.0942861 -0.000756761 0)
(0.0914368 0.000848941 0)
(0.0852266 0.00407487 0)
(0.0736743 0.00778862 0)
(0.0599834 0.011643 0)
(-0.00787046 0.030007 0)
(0.258396 0.167395 0)
(-0.161236 0.048393 0)
(-0.141604 0.045978 0)
(-0.174005 0.041612 0)
(-0.199366 0.0356664 0)
(-0.220086 0.0291305 0)
(-0.236117 0.0220632 0)
(-0.247375 0.0142374 0)
(-0.253561 0.00530869 0)
(-0.253892 -0.00513911 0)
(-0.247751 -0.0170715 0)
(-0.234057 -0.030846 0)
(-0.214159 -0.0480815 0)
(-0.197589 -0.0699752 0)
(-0.194084 -0.0826611 0)
(-0.166476 -0.0425624 0)
(-0.105403 -0.0363877 0)
(-0.0983245 -0.044497 0)
(0.109343 -0.0420826 0)
(0.0644512 -0.0411948 0)
(0.0719087 -0.0323163 0)
(0.0859189 -0.0207732 0)
(0.0938576 -0.0105187 0)
(0.0961201 -0.00365267 0)
(0.0958889 -0.00018458 0)
(0.0954965 0.00126232 0)
(0.0954546 0.0019025 0)
(0.0955317 0.0022695 0)
(0.0955371 0.00258858 0)
(0.0954367 0.00313112 0)
(0.0951459 0.0044149 0)
(0.0938885 0.00773488 0)
(0.0882895 0.0167762 0)
(0.0745241 0.025376 0)
(0.063144 0.0330223 0)
(-0.0518608 0.0636236 0)
(0.429973 0.253957 0)
(-0.194236 0.0847618 0)
(-0.112781 0.078428 0)
(-0.148244 0.0669497 0)
(-0.170673 0.0554961 0)
(-0.188765 0.0437286 0)
(-0.202603 0.0313534 0)
(-0.212298 0.0180255 0)
(-0.217656 0.00342428 0)
(-0.218024 -0.012604 0)
(-0.212778 -0.0302996 0)
(-0.201681 -0.0498948 0)
(-0.186045 -0.0715714 0)
(-0.169509 -0.0932314 0)
(-0.151135 -0.104591 0)
(-0.120289 -0.0931681 0)
(-0.0795811 -0.094971 0)
(-0.0714601 -0.107637 0)
(0.0921504 -0.0881346 0)
(0.0625796 -0.0657724 0)
(0.0743821 -0.046184 0)
(0.088032 -0.0293316 0)
(0.0949012 -0.015005 0)
(0.0920257 -0.01209 0)
(0.0877865 -0.0079833 0)
(0.0854108 -0.00578949 0)
(0.0847215 -0.00455739 0)
(0.0847031 -0.00379436 0)
(0.0849597 -0.00322452 0)
(0.0856113 -0.00259905 0)
(0.0873732 -0.00143892 0)
(0.092062 0.00292473 0)
(0.0902299 0.0251214 0)
(0.0734379 0.0424019 0)
(0.070128 0.057573 0)
(-0.089792 0.101026 0)
(0.578535 0.325844 0)
(-0.240105 0.121815 0)
(-0.0808397 0.109217 0)
(-0.121579 0.0898458 0)
(-0.139011 0.0740633 0)
(-0.153069 0.0586358 0)
(-0.163827 0.0427623 0)
(-0.171422 0.0258295 0)
(-0.175636 0.00722764 0)
(-0.175708 -0.0134967 0)
(-0.171027 -0.0364379 0)
(-0.161467 -0.0614341 0)
(-0.147604 -0.087368 0)
(-0.130626 -0.110313 0)
(-0.109668 -0.123222 0)
(-0.0821877 -0.124564 0)
(-0.0525769 -0.126397 0)
(-0.0334532 -0.123216 0)
(0.0162806 -0.0568223 0)
(0.0607858 -0.0930162 0)
(0.068469 -0.0792051 0)
(0.0791006 -0.0588783 0)
(0.0915968 -0.0396656 0)
(0.102935 -0.0210162 0)
(0.115692 -0.013287 0)
(0.126899 -0.00887176 0)
(0.132546 -0.00563882 0)
(0.133559 -0.00311691 0)
(0.131047 -0.000883602 0)
(0.12559 0.00128989 0)
(0.117065 0.00367033 0)
(0.10471 0.00672178 0)
(0.0854744 0.0111469 0)
(0.0716083 0.0368224 0)
(0.0603561 0.0605795 0)
(0.0763723 0.0834817 0)
(-0.117208 0.137429 0)
(0.705708 0.383686 0)
(-0.287678 0.157014 0)
(-0.0477053 0.133777 0)
(-0.0963008 0.106912 0)
(-0.107751 0.0875905 0)
(-0.116782 0.069175 0)
(-0.123569 0.0504593 0)
(-0.128226 0.0306118 0)
(-0.130584 0.00875865 0)
(-0.129778 -0.0157794 0)
(-0.125282 -0.0430382 0)
(-0.116662 -0.0726543 0)
(-0.103944 -0.102812 0)
(-0.0874725 -0.12909 0)
(-0.0675255 -0.145794 0)
(-0.0441838 -0.152276 0)
(-0.0203236 -0.152384 0)
(0.000217258 -0.143741 0)
(0.0307547 -0.115019 0)
(0.0569438 -0.109375 0)
(0.0705479 -0.0924717 0)
(0.0806998 -0.0713217 0)
(0.0907686 -0.050887 0)
(0.100333 -0.032853 0)
(0.109464 -0.019457 0)
(0.116524 -0.0100595 0)
(0.119981 -0.00334872 0)
(0.120203 0.00191745 0)
(0.117804 0.00647175 0)
(0.113157 0.0108269 0)
(0.106296 0.0154931 0)
(0.097156 0.0211732 0)
(0.0852501 0.0291708 0)
(0.0737319 0.0471726 0)
(0.0633196 0.0712381 0)
(0.0949345 0.099449 0)
(0.0173499 0.138626 0)
(0.0967776 0.182738 0)
(0.140422 0.147579 0)
(-0.223745 0.202531 0)
(0.810409 0.431982 0)
(-0.331313 0.190687 0)
(-0.0173278 0.150249 0)
(-0.07338 0.117518 0)
(-0.0786061 0.0955092 0)
(-0.0822257 0.0749471 0)
(-0.0844764 0.0543533 0)
(-0.085509 0.0327419 0)
(-0.0852474 0.00889433 0)
(-0.082566 -0.0183661 0)
(-0.0773969 -0.0489759 0)
(-0.0687688 -0.0824557 0)
(-0.0567744 -0.116472 0)
(-0.0417194 -0.146293 0)
(-0.0247372 -0.165994 0)
(-0.00635134 -0.174504 0)
(0.0120369 -0.172762 0)
(0.0279584 -0.161027 0)
(0.0461325 -0.139351 0)
(0.0625967 -0.122381 0)
(0.0732835 -0.102547 0)
(0.0809742 -0.0805171 0)
(0.0877429 -0.0591931 0)
(0.0939375 -0.0403273 0)
(0.099292 -0.0251466 0)
(0.103012 -0.0137762 0)
(0.104646 -0.00506661 0)
(0.10424 0.00214175 0)
(0.102096 0.00862125 0)
(0.0984637 0.0148862 0)
(0.0935067 0.0214609 0)
(0.0874624 0.0289784 0)
(0.0806052 0.0383571 0)
(0.0748921 0.0527506 0)
(0.0697539 0.0727374 0)
(0.0919243 0.098509 0)
(0.0740871 0.107485 0)
(0.0908894 0.0484305 0)
(0.1463 -0.0354035 0)
(-0.324639 0.10579 0)
(0.879874 0.474696 0)
(-0.368629 0.220973 0)
(0.00370403 0.155564 0)
(-0.052677 0.121572 0)
(-0.0522252 0.097851 0)
(-0.0510424 0.0758224 0)
(-0.0490329 0.0540514 0)
(-0.0465096 0.0315539 0)
(-0.0433105 0.00680361 0)
(-0.0373359 -0.0222541 0)
(-0.030252 -0.055311 0)
(-0.0204639 -0.0918788 0)
(-0.00866152 -0.128838 0)
(0.0045359 -0.161203 0)
(0.0175791 -0.181857 0)
(0.030359 -0.190209 0)
(0.0421654 -0.187237 0)
(0.0524751 -0.17444 0)
(0.0624521 -0.154094 0)
(0.0710383 -0.132448 0)
(0.0765751 -0.109445 0)
(0.080048 -0.0859619 0)
(0.0826605 -0.0638036 0)
(0.0849164 -0.0443157 0)
(0.0867743 -0.0282147 0)
(0.0878972 -0.0154065 0)
(0.0880543 -0.00511777 0)
(0.0870927 0.00356218 0)
(0.0851929 0.011309 0)
(0.0825035 0.018639 0)
(0.079205 0.0260465 0)
(0.0755859 0.0340298 0)
(0.072066 0.043146 0)
(0.0700456 0.0546958 0)
(0.0689589 0.0691012 0)
(0.0821535 0.0881518 0)
(0.0855719 0.0917017 0)
(0.0911892 0.0549044 0)
(0.181134 0.0271288 0)
(-0.278084 0.155457 0)
(0.927918 0.517155 0)
(-0.383147 0.234178 0)
(0.0168823 0.132983 0)
(-0.0273394 0.116656 0)
(-0.026568 0.0949185 0)
(-0.0227569 0.0724235 0)
(-0.017636 0.0501018 0)
(-0.0123497 0.027255 0)
(-0.0053583 0.00185934 0)
(0.0046304 -0.0307125 0)
(0.0143689 -0.0652788 0)
(0.0256719 -0.10326 0)
(0.0372991 -0.140769 0)
(0.0479448 -0.172051 0)
(0.0570016 -0.192263 0)
(0.064465 -0.199779 0)
(0.0701683 -0.195389 0)
(0.0741155 -0.181216 0)
(0.0768162 -0.160145 0)
(0.0781838 -0.136159 0)
(0.077835 -0.111159 0)
(0.076346 -0.0866536 0)
(0.0745482 -0.0641114 0)
(0.0729675 -0.0445252 0)
(0.0717398 -0.0282643 0)
(0.0707233 -0.0150442 0)
(0.0697124 -0.00417317 0)
(0.0684119 0.00511394 0)
(0.0669221 0.0133882 0)
(0.0652166 0.0211257 0)
(0.0633794 0.028742 0)
(0.0616061 0.036579 0)
(0.0602212 0.0449143 0)
(0.060139 0.0542095 0)
(0.0613141 0.0644519 0)
(0.0704943 0.0773291 0)
(0.0810077 0.0807828 0)
(0.0819697 0.0619326 0)
(0.238674 0.0565295 0)
(-0.548889 0.234353 0)
(1.01128 0.506818 0)
(-0.137209 0.296348 0)
(0.0410856 0.161518 0)
(0.0406114 0.122072 0)
(0.0130916 0.0919499 0)
(0.00866818 0.0653303 0)
(0.0141055 0.041352 0)
(0.02075 0.0169434 0)
(0.0325913 -0.0110513 0)
(0.0440821 -0.0421555 0)
(0.0559772 -0.0768774 0)
(0.0682575 -0.114557 0)
(0.0793725 -0.150981 0)
(0.0878284 -0.180431 0)
(0.0929935 -0.198474 0)
(0.0949933 -0.203682 0)
(0.0942447 -0.197084 0)
(0.0912984 -0.181084 0)
(0.0868302 -0.158721 0)
(0.0812887 -0.133313 0)
(0.0749654 -0.107302 0)
(0.0684615 -0.08252 0)
(0.0625015 -0.0603188 0)
(0.0576054 -0.0414157 0)
(0.0539597 -0.0258833 0)
(0.0514482 -0.0132209 0)
(0.0497852 -0.00266158 0)
(0.0485634 0.00647312 0)
(0.047736 0.0146717 0)
(0.047075 0.0223619 0)
(0.0465261 0.0298664 0)
(0.046136 0.0373867 0)
(0.0460474 0.0449961 0)
(0.0467511 0.0527113 0)
(0.048388 0.0601244 0)
(0.0548227 0.0675694 0)
(0.0661201 0.0659905 0)
(0.0636106 0.0399378 0)
(0.29094 0.0715495 0)
(-0.74811 0.306527 0)
(0.779314 0.395696 0)
(0.000890485 0.319482 0)
(0.093423 0.218901 0)
(0.110652 0.155143 0)
(0.0772279 0.106779 0)
(0.0598492 0.0674795 0)
(0.0582754 0.0356759 0)
(0.062462 0.00631933 0)
(0.0739303 -0.0235202 0)
(0.0855358 -0.0550971 0)
(0.0977552 -0.089748 0)
(0.109619 -0.126179 0)
(0.118962 -0.159894 0)
(0.124009 -0.185576 0)
(0.124173 -0.199662 0)
(0.119894 -0.201307 0)
(0.112131 -0.191852 0)
(0.10196 -0.173824 0)
(0.0904217 -0.150242 0)
(0.0783578 -0.124143 0)
(0.0664593 -0.0980745 0)
(0.0554671 -0.0739674 0)
(0.0461154 -0.0530653 0)
(0.0388796 -0.0358018 0)
(0.0338544 -0.0219408 0)
(0.0307749 -0.0106929 0)
(0.0291532 -0.00115956 0)
(0.0285034 0.00726703 0)
(0.0285283 0.015016 0)
(0.0288908 0.0224424 0)
(0.0294359 0.02977 0)
(0.0300563 0.0371098 0)
(0.030637 0.0444453 0)
(0.0311041 0.0516246 0)
(0.0308873 0.0581085 0)
(0.0310104 0.0634925 0)
(0.0178295 0.0632102 0)
(0.0161201 0.0892342 0)
(0.0712051 0.171318 0)
(-0.634085 0.309857 0)
(0.617246 0.220746 0)
(0.00473919 0.298072 0)
(0.113078 0.241515 0)
(0.14836 0.17751 0)
(0.130939 0.123441 0)
(0.117923 0.0777392 0)
(0.115074 0.0387714 0)
(0.117268 0.00325931 0)
(0.123673 -0.0308548 0)
(0.131939 -0.065101 0)
(0.14165 -0.100507 0)
(0.150525 -0.13527 0)
(0.155619 -0.16505 0)
(0.155009 -0.18554 0)
(0.148392 -0.194444 0)
(0.136677 -0.191771 0)
(0.12134 -0.179238 0)
(0.103885 -0.15939 0)
(0.0856835 -0.135124 0)
(0.0678481 -0.109236 0)
(0.051334 -0.0842156 0)
(0.0370408 -0.0619537 0)
(0.0257371 -0.0435293 0)
(0.0177206 -0.0289835 0)
(0.0127593 -0.01767 0)
(0.0101648 -0.00841905 0)
(0.00918679 -0.000277772 0)
(0.00935601 0.00722742 0)
(0.0101821 0.014415 0)
(0.0114055 0.021531 0)
(0.0128514 0.0287274 0)
(0.0143188 0.0361227 0)
(0.0154713 0.0437897 0)
(0.0157692 0.0517829 0)
(0.0141904 0.0600354 0)
(0.0100397 0.0695647 0)
(-0.0227306 0.0952278 0)
(-0.0181342 0.140906 0)
(0.0167914 0.186755 0)
(-0.545829 0.211669 0)
(0.57078 0.11834 0)
(-0.0202294 0.258572 0)
(0.113745 0.229853 0)
(0.165097 0.17601 0)
(0.166768 0.126105 0)
(0.164437 0.0809836 0)
(0.165442 0.0398195 0)
(0.168427 0.00144598 0)
(0.172428 -0.035573 0)
(0.178052 -0.0720364 0)
(0.184252 -0.107587 0)
(0.18794 -0.139491 0)
(0.1861 -0.163927 0)
(0.177363 -0.178116 0)
(0.162183 -0.181269 0)
(0.142104 -0.174263 0)
(0.119061 -0.159097 0)
(0.0948095 -0.138182 0)
(0.070942 -0.114225 0)
(0.0487058 -0.0897393 0)
(0.0292958 -0.0671319 0)
(0.0137803 -0.0481831 0)
(0.00280769 -0.0336167 0)
(-0.00397674 -0.0226585 0)
(-0.00741196 -0.0143579 0)
(-0.0088818 -0.00711677 0)
(-0.00908174 -0.000282054 0)
(-0.00829416 0.00637421 0)
(-0.00695731 0.0130046 0)
(-0.00514631 0.0197544 0)
(-0.00298579 0.0267679 0)
(-0.000638969 0.0343018 0)
(0.00151299 0.0426441 0)
(0.00273596 0.0522372 0)
(0.00197496 0.0639506 0)
(-0.00166801 0.0822075 0)
(-0.0310848 0.124433 0)
(-0.0247719 0.180969 0)
(0.00564187 0.182021 0)
(-0.518818 0.0842147 0)
(0.628515 0.0534361 0)
(0.00940872 0.197237 0)
(0.113808 0.196943 0)
(0.175105 0.157901 0)
(0.191351 0.117611 0)
(0.19801 0.0771387 0)
(0.203364 0.0370756 0)
(0.208623 -0.00176501 0)
(0.213209 -0.0399228 0)
(0.217599 -0.0767143 0)
(0.219467 -0.109979 0)
(0.215646 -0.136605 0)
(0.204258 -0.154052 0)
(0.185401 -0.161364 0)
(0.160689 -0.159102 0)
(0.132277 -0.14865 0)
(0.102395 -0.132047 0)
(0.0727526 -0.111359 0)
(0.0451216 -0.0891162 0)
(0.0207417 -0.0675389 0)
(0.00124479 -0.0490106 0)
(-0.0122597 -0.0352329 0)
(-0.0199819 -0.0259614 0)
(-0.024098 -0.0188868 0)
(-0.0259347 -0.0127525 0)
(-0.0264406 -0.00683003 0)
(-0.026066 -0.000882205 0)
(-0.0249313 0.00512643 0)
(-0.0233364 0.011223 0)
(-0.0211833 0.0175023 0)
(-0.0184986 0.0241341 0)
(-0.015322 0.0314575 0)
(-0.0118346 0.0400232 0)
(-0.00856603 0.0508051 0)
(-0.00644835 0.0656417 0)
(-0.00306184 0.0891666 0)
(-0.0138199 0.134368 0)
(-0.0134568 0.204328 0)
(0.116374 0.203278 0)
(-0.465362 0.0407935 0)
(0.47201 0.0747147 0)
(-0.132064 0.137581 0)
(0.0941548 0.133327 0)
(0.172613 0.11679 0)
(0.20371 0.0952696 0)
(0.217992 0.0642316 0)
(0.228007 0.0281248 0)
(0.237159 -0.00931675 0)
(0.243642 -0.0456752 0)
(0.245233 -0.0785205 0)
(0.239311 -0.105206 0)
(0.224529 -0.123729 0)
(0.201419 -0.133302 0)
(0.171889 -0.134399 0)
(0.138498 -0.128265 0)
(0.10351 -0.116152 0)
(0.0692007 -0.0998871 0)
(0.036762 -0.0810743 0)
(0.00857977 -0.0622488 0)
(-0.0144738 -0.045493 0)
(-0.0288025 -0.0344797 0)
(-0.037331 -0.0271322 0)
(-0.0418481 -0.0217356 0)
(-0.0439956 -0.0169588 0)
(-0.044666 -0.0122031 0)
(-0.0444077 -0.00717994 0)
(-0.0435248 -0.00186002 0)
(-0.0420843 0.00364918 0)
(-0.0403652 0.00923028 0)
(-0.0380919 0.0149259 0)
(-0.0351667 0.020927 0)
(-0.0314793 0.0276117 0)
(-0.0269813 0.0356606 0)
(-0.0219078 0.0463957 0)
(-0.0168373 0.0623157 0)
(-0.00870046 0.0869099 0)
(-0.000620914 0.126713 0)
(0.00195285 0.189633 0)
(0.162058 0.196038 0)
(-0.348048 0.104147 0)
(0.72391 0.134405 0)
(0.0818408 0.115211 0)
(0.14964 0.099214 0)
(0.22224 0.0804834 0)
(0.243872 0.0698614 0)
(0.248662 0.0474838 0)
(0.255015 0.0172273 0)
(0.261186 -0.0151382 0)
(0.260284 -0.0451627 0)
(0.249862 -0.0698914 0)
(0.229697 -0.0876449 0)
(0.201375 -0.0980132 0)
(0.167272 -0.101365 0)
(0.129899 -0.0987038 0)
(0.0917075 -0.0912715 0)
(0.0540935 -0.0797218 0)
(0.0196953 -0.065673 0)
(-0.0119338 -0.0502875 0)
(-0.0345004 -0.038483 0)
(-0.0494962 -0.0305803 0)
(-0.0583188 -0.0258315 0)
(-0.0632863 -0.0224771 0)
(-0.0658174 -0.0194884 0)
(-0.0667803 -0.0162403 0)
(-0.0666359 -0.012487 0)
(-0.0657085 -0.00814428 0)
(-0.0642619 -0.00326056 0)
(-0.0623919 0.00197205 0)
(-0.0605759 0.00721196 0)
(-0.058496 0.0123659 0)
(-0.0559416 0.0176352 0)
(-0.0527854 0.023402 0)
(-0.0489015 0.0304694 0)
(-0.0442157 0.0404603 0)
(-0.0385297 0.0556199 0)
(-0.0291723 0.076893 0)
(-0.0121678 0.103788 0)
(0.00451093 0.14804 0)
(0.1804 0.169392 0)
(-0.32489 0.164843 0)
(0.191889 0.0880248 0)
(0.225685 0.0998156 0)
(0.246407 0.0701105 0)
(0.242466 0.039633 0)
(0.239686 0.0118063 0)
(0.234666 -0.0132763 0)
(0.219963 -0.0337578 0)
(0.19632 -0.048829 0)
(0.166097 -0.0584807 0)
(0.131729 -0.0632145 0)
(0.0949925 -0.0633935 0)
(0.0577403 -0.0597272 0)
(0.0218718 -0.0530533 0)
(-0.0133562 -0.0434913 0)
(-0.0410556 -0.034434 0)
(-0.0619575 -0.0273838 0)
(-0.0759601 -0.0233303 0)
(-0.0848166 -0.021266 0)
(-0.0902233 -0.020203 0)
(-0.0934825 -0.0191694 0)
(-0.0952308 -0.0177308 0)
(-0.0957813 -0.0156638 0)
(-0.0953204 -0.0128488 0)
(-0.0940388 -0.00922093 0)
(-0.0921833 -0.00479168 0)
(-0.0899601 0.000263619 0)
(-0.0877033 0.00548302 0)
(-0.0859563 0.0105226 0)
(-0.0842843 0.0155173 0)
(-0.0826766 0.0209016 0)
(-0.0809136 0.0274747 0)
(-0.0784494 0.0363933 0)
(-0.0747516 0.0485081 0)
(-0.0679606 0.0626336 0)
(-0.0510428 0.0750251 0)
(-0.0205493 0.0894706 0)
(0.166218 0.140528 0)
(-0.425529 0.230608 0)
(0.451187 0.209643 0)
(0.206523 0.178785 0)
(0.152904 0.118802 0)
(0.139739 0.0638954 0)
(0.128302 0.025598 0)
(0.11426 0.00143466 0)
(0.0988137 -0.0133301 0)
(0.0778306 -0.0224883 0)
(0.053292 -0.0280556 0)
(0.0263098 -0.0303976 0)
(-0.00336382 -0.0294109 0)
(-0.0325816 -0.0259911 0)
(-0.0587572 -0.0215147 0)
(-0.0808788 -0.0173122 0)
(-0.0974045 -0.0148878 0)
(-0.108946 -0.0140949 0)
(-0.116717 -0.0146187 0)
(-0.122166 -0.0155528 0)
(-0.126141 -0.0163816 0)
(-0.128999 -0.0168036 0)
(-0.130826 -0.0166464 0)
(-0.131627 -0.0157518 0)
(-0.131414 -0.0139572 0)
(-0.130261 -0.011112 0)
(-0.128334 -0.00712595 0)
(-0.125846 -0.0020764 0)
(-0.122903 0.00356358 0)
(-0.120583 0.00901307 0)
(-0.118888 0.0142675 0)
(-0.117594 0.0199331 0)
(-0.116424 0.0267874 0)
(-0.115064 0.0355619 0)
(-0.114205 0.0465345 0)
(-0.115293 0.0590175 0)
(-0.113841 0.0717342 0)
(-0.0941774 0.0909262 0)
(-0.0759674 0.146507 0)
(-0.539204 0.225896 0)
(0.361693 -0.414893 0)
(-0.346163 -0.51307 0)
(-0.218714 -0.0278513 0)
(-0.0928908 0.110991 0)
(-0.0536258 0.0926239 0)
(-0.0313735 0.0545095 0)
(-0.0266268 0.0282489 0)
(-0.0316381 0.0114265 0)
(-0.0403118 0.000455383 0)
(-0.0506456 -0.0067823 0)
(-0.0641517 -0.011123 0)
(-0.0792545 -0.0134407 0)
(-0.0949799 -0.0148736 0)
(-0.110305 -0.0166495 0)
(-0.124151 -0.0191466 0)
(-0.135503 -0.0220335 0)
(-0.143893 -0.0247893 0)
(-0.149995 -0.0268601 0)
(-0.154825 -0.0282888 0)
(-0.159019 -0.0291736 0)
(-0.162723 -0.0295626 0)
(-0.165832 -0.0294298 0)
(-0.168165 -0.0287194 0)
(-0.16957 -0.0273551 0)
(-0.169973 -0.0252426 0)
(-0.169406 -0.0222735 0)
(-0.168005 -0.0183379 0)
(-0.165978 -0.0133416 0)
(-0.163408 -0.00724754 0)
(-0.16046 -9.43743e-05 0)
(-0.157545 0.0073617 0)
(-0.154079 0.0148692 0)
(-0.149589 0.0230542 0)
(-0.143495 0.0326772 0)
(-0.135923 0.0441293 0)
(-0.128096 0.0576734 0)
(-0.115177 0.0751465 0)
(-0.0692784 0.100094 0)
(-0.0304428 0.115667 0)
(-0.596087 0.0553451 0)
(0.12407 -0.185205 0)
(-0.387938 -0.297651 0)
(-0.343342 -0.0964836 0)
(-0.264913 0.051796 0)
(-0.21125 0.0837635 0)
(-0.179178 0.0747394 0)
(-0.162993 0.0611781 0)
(-0.15708 0.0511501 0)
(-0.15718 0.0459661 0)
(-0.160411 0.0454386 0)
(-0.16474 0.0487228 0)
(-0.168991 0.0548906 0)
(-0.172437 0.0626977 0)
(-0.17477 0.070222 0)
(-0.176359 0.0755732 0)
(-0.177851 0.077497 0)
(-0.179814 0.0757731 0)
(-0.182283 0.0725536 0)
(-0.185163 0.0687228 0)
(-0.18833 0.0645048 0)
(-0.191659 0.0599068 0)
(-0.195027 0.0549717 0)
(-0.198325 0.0498735 0)
(-0.201444 0.0449666 0)
(-0.20425 0.0407613 0)
(-0.206549 0.037799 0)
(-0.208078 0.0364614 0)
(-0.208549 0.0367858 0)
(-0.207649 0.03826 0)
(-0.20495 0.0393458 0)
(-0.200901 0.0388761 0)
(-0.194981 0.0381818 0)
(-0.186457 0.0380772 0)
(-0.174599 0.0390624 0)
(-0.158842 0.0409841 0)
(-0.137583 0.042951 0)
(-0.102827 0.0462876 0)
(-0.037472 0.0601107 0)
(0.138808 0.0914264 0)
(-0.342703 0.0684305 0)
(1.14736 -0.0112642 0)
(-0.295654 -0.323402 0)
(-0.353063 -0.234071 0)
(-0.352466 -0.149678 0)
(-0.328702 -0.108268 0)
(-0.297072 -0.0997609 0)
(-0.269872 -0.1021 0)
(-0.250248 -0.108073 0)
(-0.237298 -0.116136 0)
(-0.229023 -0.126219 0)
(-0.223554 -0.138483 0)
(-0.219445 -0.152659 0)
(-0.215752 -0.167583 0)
(-0.212166 -0.181276 0)
(-0.208961 -0.191729 0)
(-0.206756 -0.197977 0)
(-0.206163 -0.199994 0)
(-0.207546 -0.199748 0)
(-0.2108 -0.198016 0)
(-0.215782 -0.195037 0)
(-0.222397 -0.190734 0)
(-0.230549 -0.184929 0)
(-0.240059 -0.177518 0)
(-0.250594 -0.168591 0)
(-0.2616 -0.158485 0)
(-0.272284 -0.147705 0)
(-0.281655 -0.136764 0)
(-0.28863 -0.125971 0)
(-0.292215 -0.115295 0)
(-0.291722 -0.104405 0)
(-0.287144 -0.0935312 0)
(-0.279593 -0.0840546 0)
(-0.269361 -0.0755222 0)
(-0.256585 -0.0671305 0)
(-0.241739 -0.0586405 0)
(-0.223563 -0.0502585 0)
(-0.192344 -0.0401426 0)
(-0.135713 -0.0189874 0)
(-0.118043 0.0249863 0)
(-0.572101 0.0653338 0)
)
;

boundaryField
{
    floor
    {
        type            noSlip;
    }
    ceiling
    {
        type            noSlip;
    }
    sWall
    {
        type            noSlip;
    }
    nWall
    {
        type            noSlip;
    }
    sideWalls
    {
        type            empty;
    }
    glass1
    {
        type            noSlip;
    }
    glass2
    {
        type            noSlip;
    }
    sun
    {
        type            noSlip;
    }
    Table_master
    {
        type            noSlip;
    }
    Table_slave
    {
        type            noSlip;
    }
    inlet
    {
        type            fixedValue;
        value           uniform (0.5 0 0);
    }
    outlet
    {
        type            zeroGradient;
    }
}


// ************************************************************************* //
