/*--------------------------------*- C++ -*----------------------------------*\
  =========                 |
  \\      /  F ield         | OpenFOAM: The Open Source CFD Toolbox
   \\    /   O peration     | Website:  https://openfoam.org
    \\  /    A nd           | Version:  6
     \\/     M anipulation  |
\*---------------------------------------------------------------------------*/
FoamFile
{
    version     2.0;
    format      ascii;
    class       volScalarField;
    location    "47000.0000005880356";
    object      epsilon;
}
// * * * * * * * * * * * * * * * * * * * * * * * * * * * * * * * * * * * * * //

dimensions      [0 2 -3 0 0 0 0];

internalField   nonuniform List<scalar> 
778
(
0.000253146
0.000306387
0.00030303
0.000344197
0.00038505
0.000424838
0.000464257
0.000504497
0.000547296
0.000595373
0.000643782
0.000692146
0.000742117
0.000798493
0.000860294
8.94107e-05
0.000262839
0.000269247
0.000250158
0.000220272
0.000184181
0.000152382
0.000126557
0.000105946
8.9486e-05
7.63347e-05
6.5678e-05
5.68758e-05
4.94033e-05
4.27889e-05
3.65337e-05
3.18267e-05
2.36053e-05
0.000797076
0.00144335
0.000287001
0.000259578
0.000261665
0.000267626
0.000276509
0.000289925
0.000310162
0.000340348
0.000379549
0.000430669
0.000499082
0.000600348
0.000785592
0.00112937
0.000978744
0.000858482
0.000512383
0.000369819
0.000294517
0.000243128
0.000204235
0.000187032
0.000154746
0.000125014
0.000100697
8.1489e-05
6.65286e-05
5.48272e-05
4.56384e-05
3.87161e-05
3.45286e-05
3.27769e-05
6.58212e-05
4.81199e-05
0.00163082
0.00407968
0.000407447
0.000242913
0.000229078
0.000230984
0.000238194
0.000250455
0.00026835
0.00029261
0.000324733
0.000366813
0.000421241
0.000495025
0.000601517
0.000724848
0.000829855
0.00158455
0.00102781
0.000512565
0.000367965
0.000294514
0.000262308
0.000552177
0.000363077
0.000251
0.000181463
0.000136349
0.000105941
8.47912e-05
6.98319e-05
5.94756e-05
4.51506e-05
3.80014e-05
0.000108195
7.08777e-05
0.00285394
0.00877195
0.000710066
0.000240721
0.000202456
0.000199985
0.000203154
0.000209776
0.000220586
0.000237497
0.000263186
0.00029995
0.00034921
0.000412422
0.00048819
0.000560419
0.000612421
0.000824131
0.00156431
0.000729058
0.000459862
0.00035833
0.000301929
0.000291825
0.000814473
0.000613061
0.000482241
0.000388735
0.00031928
0.000264427
0.000218838
0.000179082
0.000141911
8.38934e-05
5.49629e-05
0.000148623
9.46902e-05
0.00454675
0.0158302
0.00134683
0.000258367
0.000175717
0.000166767
0.000165773
0.000167748
0.000173908
0.000187409
0.000211653
0.000248352
0.000297819
0.000359447
0.000427989
0.000489402
0.000528664
0.000582399
0.000627191
0.000483043
0.000393383
0.000330959
0.000282259
0.000248618
0.000247849
0.000226795
0.000202943
0.000181032
0.000162636
0.000146474
0.000131817
0.000118245
0.000105108
8.45506e-05
6.42949e-05
0.000105291
0.000138966
0.00016045
0.000364309
0.000325336
0.00676479
0.0248821
0.00255449
0.000318154
0.000155534
0.000137049
0.000132108
0.000130676
0.000134445
0.000148534
0.000176685
0.000218077
0.000270868
0.000334299
0.000401994
0.000462927
0.000503186
0.000521734
0.000504707
0.000438163
0.000373745
0.000315598
0.000264719
0.00022339
0.000193306
0.000169644
0.000150815
0.000135609
0.000123263
0.000112711
0.000103263
9.45152e-05
8.60847e-05
7.59245e-05
6.54156e-05
7.76814e-05
9.9905e-05
0.00020868
0.00105918
0.000558745
0.00967385
0.0336403
0.00458558
0.00046521
0.000150865
0.000116339
0.000107079
0.000103273
0.000107068
0.000127893
0.000166096
0.000215888
0.000273408
0.000340347
0.000409739
0.000470899
0.000510536
0.000520661
0.000494397
0.000437653
0.000371854
0.000307494
0.000250564
0.000204453
0.000169758
0.000144558
0.000126316
0.000112717
0.000102254
9.36829e-05
8.61989e-05
7.93365e-05
7.2801e-05
6.61339e-05
6.03405e-05
6.38715e-05
7.6929e-05
0.000173094
0.0015889
0.000909484
0.012761
0.0404078
0.00749244
0.000871945
0.000194412
0.000115417
9.73991e-05
9.14611e-05
9.86665e-05
0.000137679
0.000189235
0.00024626
0.000307216
0.000374254
0.000445443
0.000508792
0.000548009
0.000551359
0.000515958
0.000451728
0.000375649
0.000301067
0.00023655
0.000185998
0.000149323
0.000123973
0.000106691
9.45471e-05
8.57098e-05
7.87771e-05
7.2877e-05
6.75277e-05
6.24801e-05
5.76595e-05
5.39367e-05
5.60178e-05
7.09277e-05
0.000344051
0.00526592
0.00200027
0.0138289
0.0414559
0.0139354
0.00316636
0.000631083
0.000208347
0.000132814
0.000116063
0.000142537
0.000192924
0.000249244
0.000306458
0.000367655
0.00043733
0.000512083
0.000576789
0.000611764
0.000603743
0.000552554
0.000471288
0.000378778
0.000291143
0.000218402
0.000164091
0.000126799
0.000102604
8.72686e-05
7.73247e-05
7.06374e-05
6.56337e-05
6.14315e-05
5.75975e-05
5.39553e-05
5.05712e-05
4.83479e-05
5.31362e-05
0.000103769
0.00101032
0.0129041
0.00304214
0.0130046
0.0283644
0.0144162
0.00572938
0.00210663
0.000836053
0.000414503
0.000277324
0.000279359
0.000314762
0.000356163
0.000401913
0.000459173
0.00053199
0.000611393
0.000675303
0.000699634
0.000671225
0.000594294
0.000487199
0.000373158
0.00027111
0.00019141
0.000135894
0.000100738
7.99047e-05
6.7976e-05
6.11882e-05
5.70891e-05
5.41226e-05
5.15484e-05
4.90643e-05
4.66072e-05
4.43988e-05
4.39251e-05
5.81551e-05
0.000267379
0.00345561
0.0100291
0.00313052
0.0106879
0.0193506
0.0120376
0.00630178
0.00317641
0.00167634
0.000987944
0.000679906
0.000560672
0.000517738
0.000510712
0.000531963
0.000584754
0.000664395
0.000749254
0.000806439
0.000808042
0.000744527
0.000628576
0.000486825
0.000348374
0.000234197
0.00015286
0.000101982
7.36777e-05
5.88915e-05
5.14373e-05
4.79739e-05
4.61503e-05
4.4807e-05
4.34715e-05
4.19912e-05
4.04313e-05
3.92473e-05
4.11033e-05
7.48057e-05
0.000682368
0.00342057
0.00737857
0.00297959
0.00806904
0.0137644
0.0096898
0.00593335
0.00357039
0.00222827
0.00149154
0.00109383
0.000869921
0.000744041
0.000686447
0.000691145
0.000752311
0.000846973
0.000934093
0.000969264
0.000926036
0.000805653
0.000635608
0.000453368
0.000294128
0.000178102
0.000107244
6.96602e-05
5.26448e-05
4.45069e-05
4.0664e-05
3.92126e-05
3.86006e-05
3.81371e-05
3.75517e-05
3.68056e-05
3.61257e-05
3.62729e-05
4.0759e-05
8.44893e-05
0.00061314
0.0028487
0.00658126
0.00284762
0.00612089
0.0101643
0.00778839
0.00531166
0.00357007
0.00246933
0.00178834
0.00136861
0.00109334
0.000926559
0.000860185
0.000888447
0.000985282
0.00109971
0.00117028
0.00114917
0.00102537
0.000821554
0.000587521
0.000370338
0.000209137
0.000114981
7.21822e-05
5.23094e-05
4.29654e-05
3.82951e-05
3.59628e-05
3.50278e-05
3.46739e-05
3.44678e-05
3.43167e-05
3.44076e-05
3.52842e-05
3.82307e-05
4.75801e-05
9.09159e-05
0.000455457
0.00221618
0.0053979
0.00335893
0.0061849
0.00780668
0.00680139
0.00473791
0.00336471
0.00246193
0.00186567
0.00146227
0.00119474
0.0010653
0.00107204
0.00118295
0.00133191
0.00143803
0.0014354
0.00129583
0.00104769
0.00074214
0.000458404
0.000239303
0.00013104
8.12624e-05
5.94058e-05
4.89243e-05
4.32302e-05
3.97489e-05
3.74867e-05
3.60807e-05
3.53847e-05
3.51259e-05
3.55128e-05
3.74071e-05
4.26808e-05
5.50823e-05
8.27998e-05
0.00015148
0.000445287
0.00199048
0.00413827
0.00361413
0.0045474
0.00511342
0.00418467
0.00336134
0.00263918
0.00206949
0.00164836
0.00136137
0.0012451
0.00130204
0.00148102
0.00168945
0.00182397
0.00181049
0.00162684
0.00129335
0.000905328
0.000520164
0.00027835
0.000153526
9.97342e-05
7.68555e-05
6.59458e-05
5.9589e-05
5.51881e-05
5.17303e-05
4.87659e-05
4.6195e-05
4.4602e-05
4.43264e-05
4.61499e-05
5.28486e-05
7.04306e-05
0.000109811
0.000188569
0.000342116
0.000702676
0.0020608
0.0039742
0.00365815
0.00140018
0.00143009
0.00143146
0.00135144
0.00130855
0.00142179
0.00170833
0.00204567
0.00230851
0.002403
0.00228092
0.00196153
0.0015131
0.000972392
0.000562761
0.000308253
0.000182987
0.000130308
0.000109104
9.92233e-05
9.34793e-05
8.95233e-05
8.64753e-05
8.37655e-05
8.0873e-05
7.74999e-05
7.41989e-05
7.38808e-05
7.79532e-05
9.18146e-05
0.000127332
0.000206281
0.000363714
0.000658213
0.00121596
0.00232261
0.00427635
0.00318803
0.00118786
0.00171177
0.00194719
0.00230224
0.00275074
0.00315649
0.00333904
0.00330574
0.00307901
0.00268102
0.00210842
0.00148591
0.000953578
0.000557168
0.000329084
0.000222939
0.000181436
0.000165756
0.00015894
0.000155359
0.000153557
0.000153195
0.000154022
0.000155489
0.00015662
0.00015618
0.000153351
0.000150609
0.000155019
0.000172011
0.000215234
0.000310828
0.000504407
0.000875577
0.00157252
0.00278167
0.00441581
0.00291933
0.00742299
0.00811932
0.00481484
0.00339538
0.00372413
0.00413439
0.00414688
0.00393722
0.00358305
0.00312905
0.00261702
0.00206781
0.00151472
0.00102711
0.000668129
0.000454649
0.000356024
0.000318001
0.000303508
0.000296092
0.000290555
0.000286004
0.000283038
0.000282634
0.000285624
0.000292287
0.000301942
0.000312644
0.000321479
0.000326481
0.000336369
0.000362516
0.000413623
0.000511961
0.00069951
0.00105122
0.00170801
0.00294541
0.00516275
0.00358084
0.00650413
0.00514306
0.00436147
0.00461442
0.00452981
0.00426068
0.0036802
0.00303508
0.00245145
0.00196042
0.00155715
0.00122639
0.000960631
0.000763276
0.000635082
0.000565357
0.000533595
0.000520767
0.000515795
0.000513626
0.000512584
0.000512994
0.00051644
0.000525293
0.000542299
0.000570109
0.00061063
0.000664159
0.000728458
0.000798074
0.000863909
0.000931197
0.00101762
0.00115083
0.00137363
0.00175316
0.00241428
0.00379128
0.00472281
0.00474381
0.00535504
0.00337177
0.00332214
0.00362231
0.00388502
0.00355255
0.0029539
0.00233789
0.00180425
0.00137044
0.00102865
0.000771497
0.000594349
0.000488436
0.000437354
0.00042127
0.00042222
0.000430391
0.000441267
0.000453305
0.000466757
0.000483199
0.000505305
0.00053663
0.000581182
0.000642614
0.000723091
0.000822386
0.000937998
0.0010667
0.00120726
0.00136281
0.00153422
0.00173207
0.00197363
0.00227454
0.00264005
0.00308729
0.00367693
0.0035845
)
;

boundaryField
{
    floor
    {
        Cmu             0.09;
        kappa           0.41;
        E               9.8;
        type            epsilonWallFunction;
        value           nonuniform List<scalar> 
36
(
0.000860294
8.94107e-05
0.000262839
0.000269247
0.000250158
0.000220272
0.000184181
0.000152382
0.000126557
0.000105946
8.9486e-05
7.63347e-05
6.5678e-05
5.68758e-05
4.94033e-05
4.27889e-05
3.65337e-05
3.18267e-05
2.36053e-05
2.36053e-05
4.81199e-05
7.08777e-05
9.46902e-05
0.00016045
0.000364309
0.000325336
0.000860294
0.00112937
0.000978744
0.000858482
8.94107e-05
0.000858482
0.000512383
0.00158455
0.00102781
0.00156431
)
;
    }
    ceiling
    {
        Cmu             0.09;
        kappa           0.41;
        E               9.8;
        type            epsilonWallFunction;
        value           nonuniform List<scalar> 
43
(
0.00535504
0.00337177
0.00332214
0.00362231
0.00388502
0.00355255
0.0029539
0.00233789
0.00180425
0.00137044
0.00102865
0.000771497
0.000594349
0.000488436
0.000437354
0.00042127
0.00042222
0.000430391
0.000441267
0.000453305
0.000466757
0.000483199
0.000505305
0.00053663
0.000581182
0.000642614
0.000723091
0.000822386
0.000937998
0.0010667
0.00120726
0.00136281
0.00153422
0.00173207
0.00197363
0.00227454
0.00264005
0.00308729
0.00367693
0.0035845
0.0045474
0.00511342
0.00118786
)
;
    }
    sWall
    {
        Cmu             0.09;
        kappa           0.41;
        E               9.8;
        type            epsilonWallFunction;
        value           nonuniform List<scalar> 9(0.0130046 0.0106879 0.00806904 0.00612089 0.0061849 0.0045474 0.00742299 0.00650413 0.00535504);
    }
    nWall
    {
        Cmu             0.09;
        kappa           0.41;
        E               9.8;
        type            epsilonWallFunction;
        value           nonuniform List<scalar> 
14
(
0.000325336
0.000558745
0.000909484
0.00313052
0.00297959
0.00284762
0.00335893
0.00361413
0.00365815
0.00318803
0.00291933
0.00358084
0.00474381
0.0035845
)
;
    }
    sideWalls
    {
        type            empty;
    }
    glass1
    {
        Cmu             0.09;
        kappa           0.41;
        E               9.8;
        type            epsilonWallFunction;
        value           nonuniform List<scalar> 9(0.000253146 0.000797076 0.00163082 0.00285394 0.00454675 0.00676479 0.00967385 0.012761 0.0138289);
    }
    glass2
    {
        Cmu             0.09;
        kappa           0.41;
        E               9.8;
        type            epsilonWallFunction;
        value           nonuniform List<scalar> 2(0.00200027 0.00304214);
    }
    sun
    {
        Cmu             0.09;
        kappa           0.41;
        E               9.8;
        type            epsilonWallFunction;
        value           nonuniform List<scalar> 
14
(
0.000253146
0.000306387
0.00030303
0.000344197
0.00038505
0.000424838
0.000464257
0.000504497
0.000547296
0.000595373
0.000643782
0.000692146
0.000742117
0.000798493
)
;
    }
    Table_master
    {
        Cmu             0.09;
        kappa           0.41;
        E               9.8;
        type            epsilonWallFunction;
        value           nonuniform List<scalar> 9(0.000552177 0.000363077 0.000251 0.000181463 0.000136349 0.000105941 8.47912e-05 6.98319e-05 5.94756e-05);
    }
    Table_slave
    {
        Cmu             0.09;
        kappa           0.41;
        E               9.8;
        type            epsilonWallFunction;
        value           nonuniform List<scalar> 9(0.000814473 0.000613061 0.000482241 0.000388735 0.00031928 0.000264427 0.000218838 0.000179082 0.000141911);
    }
    inlet
    {
        type            turbulentMixingLengthDissipationRateInlet;
        mixingLength    0.01;
        phi             phi;
        k               k;
        value           uniform 0.000471671;
    }
    outlet
    {
        type            zeroGradient;
    }
}


// ************************************************************************* //
