/*--------------------------------*- C++ -*----------------------------------*\
  =========                 |
  \\      /  F ield         | OpenFOAM: The Open Source CFD Toolbox
   \\    /   O peration     | Website:  https://openfoam.org
    \\  /    A nd           | Version:  6
     \\/     M anipulation  |
\*---------------------------------------------------------------------------*/
FoamFile
{
    version     2.0;
    format      ascii;
    class       surfaceScalarField;
    location    "47000.0000005880356";
    object      phi;
}
// * * * * * * * * * * * * * * * * * * * * * * * * * * * * * * * * * * * * * //

dimensions      [1 0 -1 0 0 0 0];

internalField   nonuniform List<scalar> 
1482
(
-0.00279976
0.00286379
-0.00348392
0.000684163
-0.0041445
0.000660576
-0.00475844
0.00061394
-0.00527966
0.00052122
-0.00569143
0.000411775
-0.00598256
0.000291124
-0.00613999
0.000157431
-0.0061464
6.41167e-06
-0.0059758
-0.000170593
-0.00559822
-0.000377582
-0.00498255
-0.000615672
-0.00405853
-0.000924018
-0.00257988
-0.00147865
-0.00257696
-6.4131e-05
6.89856e-05
0.000780844
-0.000844975
0.0014346
-0.000653752
0.00183526
-0.000400667
0.00205796
-0.000222693
0.00216274
-0.000104789
0.00221
-4.72562e-05
0.00223272
-2.27151e-05
0.00224247
-9.75852e-06
0.00224343
-9.52679e-07
0.00223641
7.02118e-06
0.00221738
1.90259e-05
0.00217301
4.43667e-05
0.00207006
0.000102951
0.00185303
0.000217033
0.00149481
0.000358219
0.00102209
0.000472721
0.00102853
-0.00204035
0.00507446
-0.00290841
0.00155222
-0.00369412
0.00144629
-0.00434498
0.00126481
-0.00488205
0.00105829
-0.00531063
0.000840357
-0.00562898
0.000609472
-0.00583032
0.000358775
-0.005904
8.00912e-05
-0.00584217
-0.000232428
-0.00563896
-0.000580786
-0.00528302
-0.000971616
-0.00477311
-0.00143392
-0.00428727
-0.00196449
-0.00470327
-0.00216096
-0.0031173
-0.00158053
-0.00163446
-0.00147715
-0.00161962
0.00131791
-0.00123871
0.00166266
-0.00118972
0.00191531
-0.000906405
0.00210766
-0.000593021
0.00221611
-0.000331141
0.00222532
-0.000113996
0.00222729
-4.92298e-05
0.00222885
-2.42769e-05
0.00222975
-1.06546e-05
0.00222972
-9.1862e-07
0.00222834
8.39504e-06
0.00222414
2.32261e-05
0.00221149
5.70173e-05
0.00214948
0.000164965
0.00189957
0.000466941
0.00146946
0.000788332
0.000904568
0.00103761
0.00194998
-0.00148823
0.00682061
-0.00235907
0.00242306
-0.00312892
0.00221614
-0.00371298
0.00184886
-0.00418345
0.00152876
-0.0045547
0.00121161
-0.00482856
0.000883338
-0.00500184
0.000532051
-0.00506814
0.000146391
-0.00501838
-0.000282188
-0.00484177
-0.000757395
-0.00453081
-0.00128258
-0.00411624
-0.0018485
-0.00371872
-0.00236201
-0.00329826
-0.00258143
-0.00236691
-0.00251188
-0.00127318
-0.00257088
-0.00287996
0.00115109
-0.00237535
0.00165475
-0.00169338
0.00195349
-0.00120515
0.00214705
-0.000786578
0.00217878
-0.000362872
0.00206494
0.00201587
0.00199174
0.00198124
0.00198048
0.00198903
0.00201241
0.00206958
0.0022347
0.00187643
0.000825212
0.0014283
0.00123646
0.000807428
0.00165848
0.00278343
-0.00110604
0.00825785
-0.00192791
0.00324493
-0.00256983
0.00285806
-0.00303002
0.00230906
-0.00339737
0.00189611
-0.00368595
0.00150019
-0.00389879
0.00109618
-0.00403407
0.000667334
-0.00408431
0.000196632
-0.00403632
-0.000330178
-0.00387778
-0.000915941
-0.00360448
-0.00155588
-0.00323893
-0.00221405
-0.00281693
-0.00278401
-0.00227745
-0.00312091
-0.00155775
-0.00323158
-0.000869552
-0.00325908
-0.000689659
-0.00305986
0.00144687
-0.00212109
0.00137827
-0.00230675
0.00169358
-0.00200869
0.00200598
-0.00151755
0.00227208
-0.00105268
0.00254739
-0.000638175
0.00286341
-0.000316177
0.00303211
-0.000168858
0.00309819
-6.6229e-05
0.00308221
1.58314e-05
0.00299298
8.90704e-05
0.00283155
0.000161277
0.00259014
0.00024126
0.00224583
0.000344157
0.00174129
0.000504377
0.00160517
0.000961337
0.00127822
0.00156341
0.000751539
0.00218516
0.00356926
-0.000803758
0.00945479
-0.00157988
0.00402105
-0.00204842
0.0033266
-0.002364
0.00262463
-0.00260819
0.0021403
-0.00279351
0.00168551
-0.002925
0.00122766
-0.00300339
0.000745731
-0.00302218
0.000215416
-0.00296477
-0.000387593
-0.00281787
-0.00106283
-0.00257446
-0.00179929
-0.00224102
-0.00254749
-0.00182464
-0.00320039
-0.00131938
-0.00362617
-0.000742868
-0.0038081
-0.000211564
-0.00379039
0.00026568
-0.0035371
0.00112668
-0.00298209
0.00149239
-0.00267246
0.00175092
-0.00226721
0.0020031
-0.00176973
0.00223287
-0.00128245
0.00244735
-0.000852651
0.00264965
-0.00051848
0.00276129
-0.000280494
0.00279905
-0.000103997
0.00277459
4.02976e-05
0.00269422
0.000169438
0.00256043
0.00029507
0.00237209
0.000429596
0.00212703
0.000589214
0.00183366
0.000797751
0.00162952
0.00116548
0.0014911
0.00170183
0.00131727
0.00235899
0.00231301
0.00257351
0.00134242
0.0010055
0.00187836
-0.000507185
0.00199706
-0.000575858
0.010477
-0.00132475
0.00476994
-0.00158425
0.0035861
-0.00175005
0.00279043
-0.00186387
0.00225412
-0.00193517
0.00175681
-0.00197042
0.00126291
-0.00197394
0.000749252
-0.00194252
0.000183998
-0.00185454
-0.000475578
-0.00170017
-0.0012172
-0.00146939
-0.00203007
-0.00116508
-0.0028518
-0.000793028
-0.00357244
-0.000373477
-0.00404572
6.67208e-05
-0.0042483
0.000471952
-0.00419562
0.000846395
-0.00391155
0.00129728
-0.00343298
0.0015959
-0.00297108
0.00179889
-0.00247021
0.0019702
-0.00194104
0.00212203
-0.00143428
0.00225715
-0.000987768
0.00236322
-0.000624551
0.00242302
-0.000340286
0.00243581
-0.000116793
0.0024066
6.95114e-05
0.00234003
0.000236001
0.00223987
0.000395237
0.00211021
0.000559249
0.0019584
0.000741033
0.00179945
0.000956696
0.00171048
0.00125445
0.00177197
0.00164034
0.00199118
0.00213977
0.00224459
0.00232011
0.00176067
0.00148941
0.000834976
0.000418507
0.00292935
-0.000543531
0.0115128
-0.00124373
0.00547014
-0.00119192
0.00353429
-0.00120011
0.00279862
-0.00119228
0.00224629
-0.0011586
0.00172313
-0.00110126
0.00120557
-0.00102603
0.000674022
-0.000927247
8.52135e-05
-0.000778162
-0.000624663
-0.000588915
-0.00140645
-0.00034897
-0.00227001
-6.5473e-05
-0.0031353
0.000238898
-0.00387681
0.000548489
-0.00435531
0.000843415
-0.00454322
0.00110633
-0.00445854
0.00133969
-0.00414491
0.00157137
-0.00366466
0.00173085
-0.00313057
0.00183056
-0.00256992
0.00190061
-0.00201109
0.00195685
-0.00149052
0.00200451
-0.00103543
0.00203833
-0.000658368
0.00205235
-0.000354308
0.00204282
-0.000107255
0.00201015
0.000102175
0.00195719
0.000288964
0.00188753
0.000464896
0.00180634
0.000640445
0.00172235
0.000825022
0.00165129
0.00102775
0.00163785
0.0012679
0.00172935
0.00154884
0.00195069
0.00191842
0.00222167
0.00204913
0.00224425
0.00146683
0.00165855
0.0010042
0.00469068
-0.000483754
0.012532
-0.00105167
0.00603806
-0.000697492
0.00318011
-0.000636473
0.0027376
-0.000567885
0.0021777
-0.000462906
0.00161815
-0.00033352
0.00107618
-0.000181863
0.000522365
7.79801e-06
-0.000104447
0.000226199
-0.000843064
0.000466056
-0.0016463
0.000723626
-0.00252758
0.000980138
-0.00339181
0.0012081
-0.00410477
0.00140696
-0.00455416
0.00156784
-0.0047041
0.00168553
-0.00457622
0.00176469
-0.00422407
0.0018177
-0.00371767
0.0018277
-0.00314057
0.00180299
-0.00254522
0.00176273
-0.00197083
0.00172196
-0.00144975
0.00168823
-0.0010017
0.00166147
-0.000631603
0.0016375
-0.000330341
0.00161114
-8.08918e-05
0.00157976
0.000133554
0.00154322
0.000325503
0.00150254
0.000505579
0.00146063
0.000682351
0.00142368
0.000861977
0.00140311
0.00104832
0.00142422
0.00124678
0.00151987
0.00145319
0.00174909
0.0016892
0.0020804
0.00171782
0.00223451
0.00131272
0.001734
0.0015047
0.00679216
0.00297845
0.0101407
0.00202307
0.00699344
0.000869698
0.00433348
0.00037119
0.00323611
0.000214323
0.00233457
0.000270977
0.0015615
0.000425324
0.000921836
0.000639731
0.000307959
0.000899481
-0.000364198
0.00116488
-0.00110846
0.00144362
-0.00192504
0.00171049
-0.00279445
0.00193607
-0.00361738
0.00209622
-0.00426491
0.00218533
-0.00464326
0.00220621
-0.00472497
0.00216775
-0.00453775
0.00208361
-0.00413992
0.00196895
-0.00360301
0.00182941
-0.00300103
0.00167724
-0.00239305
0.00152952
-0.00182311
0.00140107
-0.0013213
0.00130024
-0.000900876
0.00122818
-0.000559544
0.00117978
-0.000281932
0.00114732
-4.8435e-05
0.00112501
0.000155863
0.00110884
0.000341673
0.00109608
0.000518335
0.00108615
0.000692283
0.00108099
0.000867143
0.00108588
0.00104343
0.00111378
0.00121888
0.0011879
0.00137907
0.00137567
0.00150143
0.00173301
0.00136048
0.00187039
0.00117532
0.000542969
0.00283208
0.00771965
0.00403302
0.00624792
0.00366958
0.00735688
0.0025439
0.00545916
0.00189043
0.00388958
0.00153384
0.00269117
0.00138911
0.00170622
0.00142324
0.000887713
0.0015982
0.000133001
0.00185086
-0.000616864
0.00212853
-0.00138613
0.00240845
-0.00220496
0.00265317
-0.00303917
0.00282103
-0.00378523
0.00288518
-0.00432905
0.00284263
-0.0046007
0.00270742
-0.00458975
0.00250194
-0.00433226
0.00225047
-0.00388846
0.00197577
-0.0033283
0.00169497
-0.00272024
0.00142547
-0.00212355
0.00118548
-0.00158312
0.000990004
-0.00112583
0.000845715
-0.000756587
0.000751326
-0.000465155
0.000697489
-0.000228094
0.000672643
-2.35894e-05
0.000667278
0.000161228
0.000673833
0.000335119
0.000686831
0.000505337
0.000702763
0.00067635
0.000718717
0.000851189
0.00073115
0.00103099
0.000734215
0.00121582
0.000712786
0.0014005
0.000618657
0.00159556
5.77093e-05
0.00192144
-0.00158248
0.0028154
-0.00286319
0.00411266
0.00496083
0.00241062
0.00400183
0.00330629
0.00646121
0.00325019
0.00551525
0.00303926
0.00410051
0.00284832
0.00288211
0.00272533
0.00182922
0.00271187
0.00090117
0.0028015
4.33697e-05
0.00296422
-0.000779576
0.00317543
-0.00159734
0.00339308
-0.00242262
0.00355702
-0.0032031
0.0036125
-0.00384071
0.00353308
-0.00424961
0.00332442
-0.00439204
0.00301288
-0.0042782
0.00263289
-0.00395226
0.00221782
-0.00347338
0.00179725
-0.00290773
0.00139488
-0.00231787
0.0010326
-0.00176127
0.000730778
-0.0012813
0.000503768
-0.000898818
0.00035096
-0.000603779
0.000263162
-0.000377357
0.000223171
-0.000188103
0.000215856
-1.62744e-05
0.00022984
0.000147245
0.000256942
0.000308017
0.000291721
0.000470558
0.000329853
0.000638219
0.000365248
0.000815794
0.000388084
0.00100816
0.00037854
0.00122536
0.000294131
0.00148491
4.23084e-05
0.0018474
-0.000699831
0.00266381
-0.00193411
0.00404979
-0.00230315
0.00448167
0.00277479
0.0014573
0.0027388
0.00274879
0.00516972
0.00343275
0.00483129
0.00371885
0.00381441
0.00381758
0.00278338
0.00384623
0.00180057
0.00388333
0.000864066
0.00395365
-2.69475e-05
0.0040646
-0.000890522
0.00420531
-0.00173805
0.0043242
-0.00254152
0.00435051
-0.00322942
0.00423279
-0.00372299
0.00395905
-0.00397587
0.00355196
-0.00398493
0.0030514
-0.00377763
0.00250116
-0.00340202
0.00193986
-0.00291207
0.00140154
-0.0023694
0.000913209
-0.00182954
0.00050243
-0.00135049
0.000189398
-0.000968264
-1.91689e-05
-0.000690251
-0.000139397
-0.000483552
-0.000196882
-0.000319871
-0.000214017
-0.000170967
-0.000204334
-2.59572e-05
-0.00017635
0.000119261
-0.000135321
0.000266989
-8.44841e-05
0.000419721
-2.67225e-05
0.000580458
3.3074e-05
0.000755998
8.51548e-05
0.000956076
0.000109534
0.00120098
6.40566e-05
0.00153038
-0.000120734
0.00203222
-0.000454387
0.00299783
-0.0010616
0.00465743
-0.00135208
0.00477247
0.0015527
0.00217211
0.000792678
0.00294182
0.00440001
0.00359206
0.00418106
0.0041626
0.00324388
0.00449078
0.0024552
0.00466587
0.00162549
0.00478384
0.000746098
0.00489008
-0.000133187
0.00499781
-0.000998266
0.00507668
-0.00181692
0.00506105
-0.0025259
0.00489092
-0.0030593
0.00454404
-0.00337612
0.00403953
-0.00347134
0.00342231
-0.00336771
0.00274308
-0.00309839
0.00205004
-0.00270897
0.00138089
-0.00224293
0.000774382
-0.00176288
0.000257582
-0.00131274
-0.000129709
-0.000963205
-0.000381014
-0.000716961
-0.000523184
-0.000548083
-0.000593521
-0.000413214
-0.000621005
-0.000292386
-0.000619819
-0.000172152
-0.000598382
-4.73924e-05
-0.000561938
8.28181e-05
-0.000512857
0.000217908
-0.000451931
0.000358796
-0.000379693
0.00050822
-0.0002965
0.000672805
-0.00020553
0.000865106
-0.000116673
0.00111212
-5.50882e-05
0.00146878
-4.43209e-05
0.00202141
6.76965e-05
0.00288593
0.000411946
0.00431359
0.000626154
0.00455864
0.00231584
-0.00158236
0.00262015
0.0011151
0.00170256
0.00334783
0.00194833
0.00435063
0.00224108
0.00485496
0.00195087
0.00517055
0.0013099
0.00540021
0.000516441
0.00557974
-0.000312731
0.00568009
-0.00109863
0.00563917
-0.00177604
0.00540635
-0.0022931
0.00497016
-0.00262312
0.00435874
-0.00276471
0.00362501
-0.00273762
0.00282874
-0.00257144
0.00201944
-0.00228909
0.00124455
-0.00193407
0.00053429
-0.00153267
-6.26019e-05
-0.00116599
-0.000500689
-0.000874655
-0.000774392
-0.000689509
-0.00092961
-0.000561748
-0.0010125
-0.000465199
-0.00104841
-0.000377305
-0.00105361
-0.000287176
-0.0010369
-0.000188859
-0.00100438
-7.9904e-05
-0.000960861
3.9298e-05
-0.00090762
0.000164669
-0.00084319
0.000294366
-0.000765926
0.000430956
-0.000672932
0.000579812
-0.000562054
0.000754228
-0.000437175
0.000987222
-0.000309479
0.001341
-0.000146538
0.00185826
0.000228263
0.00251093
0.00103651
0.00350542
0.00149975
0.00409553
0.003961
0.00288187
0.00456924
0.00486921
0.00164836
0.00535546
0.00175483
0.00559198
0.00171435
0.00582406
0.00107783
0.00601234
0.00032816
0.00607897
-0.000379393
0.00595294
-0.000972638
0.00560137
-0.00142452
0.00503729
-0.00172906
0.00430789
-0.00189375
0.00347159
-0.00192843
0.00258662
-0.00185265
0.00170691
-0.00169174
0.00086447
-0.00144665
9.9673e-05
-0.00116927
-0.000527584
-0.000905417
-0.000972914
-0.000720674
-0.00125065
-0.000596936
-0.00141805
-0.000522119
-0.00151222
-0.000467595
-0.0015599
-0.000417519
-0.0015745
-0.000362699
-0.00156359
-0.000298077
-0.00153246
-0.000219963
-0.00148681
-0.00012554
-0.00143363
-1.3879e-05
-0.00137748
0.000108515
-0.00131804
0.000234929
-0.00125402
0.000366936
-0.00118451
0.000510309
-0.00110928
0.000679016
-0.00102574
0.000903673
-0.000916672
0.00123182
-0.000721793
0.00166305
-0.000260625
0.00204923
0.000848874
0.00239553
0.00145968
0.00348437
0.00557514
0.00793311
0.0053638
0.00581306
0.00387491
0.0055643
0.00196313
0.00563593
0.00100624
0.00559986
0.000364235
0.00535498
-0.000134528
0.00489106
-0.000508748
0.00424952
-0.000783006
0.00348447
-0.000964021
0.00264875
-0.00105805
0.00178351
-0.0010632
0.000924661
-0.00099381
0.000105232
-0.000872313
-0.000618166
-0.000723258
-0.00118793
-0.000599522
-0.00158962
-0.000503748
-0.0018591
-0.000451223
-0.00202997
-0.000426101
-0.00213908
-0.000413037
-0.00220669
-0.000399998
-0.00224276
-0.000381442
-0.00225152
-0.000353914
-0.00223534
-0.000314207
-0.00219675
-0.000258509
-0.00213983
-0.000182416
-0.00207179
-8.19083e-05
-0.00200584
4.25541e-05
-0.00194941
0.000178481
-0.00190266
0.000320171
-0.00186886
0.000476533
-0.00185167
0.000661909
-0.00184789
0.000900029
-0.00183079
0.00121481
-0.00176079
0.00159291
-0.00161974
0.00190772
-0.00133686
0.00211194
-0.000989186
0.00313595
0.00475522
0.00411041
0.00149996
0.0045112
0.00347415
0.00373905
0.00273532
0.00323465
0.00151065
0.00288752
0.000711354
0.00251924
0.000233734
0.00207115
-6.0672e-05
0.00153343
-0.000245286
0.00092497
-0.000355561
0.000262682
-0.000395759
-0.000417415
-0.000383099
-0.0010598
-0.000351426
-0.00161598
-0.000316138
-0.0020538
-0.000285446
-0.00237855
-0.000274811
-0.00260416
-0.000278192
-0.00276363
-0.00029181
-0.00288152
-0.000308267
-0.00297145
-0.000323145
-0.00303768
-0.00033377
-0.00308047
-0.000338611
-0.00309851
-0.000335798
-0.0030903
-0.000322308
-0.00305527
-0.000293433
-0.00299474
-0.000242873
-0.002913
-0.000163626
-0.0028203
-5.02007e-05
-0.00273474
9.28401e-05
-0.0026674
0.000252745
-0.00261473
0.000423816
-0.00257408
0.000621335
-0.00254414
0.000870308
-0.00251568
0.00118669
-0.00250712
0.00158469
-0.00276959
0.00217044
-0.00371577
0.00305819
-0.00391173
0.00333173
0.00102635
-0.00259835
-0.0067623
-0.00741646
-0.00746262
-0.00375055
-0.00216602
-0.00167197
0.00139556
-0.000758853
0.00182221
-0.000561598
0.0013134
-0.000642676
0.000792434
-0.000827466
0.000418531
-0.00106419
0.000176059
-0.001347
3.75525e-05
-0.00167801
-2.45212e-05
-0.00203481
-3.8938e-05
-0.00238927
-2.86135e-05
-0.00272053
-2.01689e-05
-0.00300464
-3.20538e-05
-0.00322276
-6.73779e-05
-0.00338682
-0.000110828
-0.00351678
-0.000148318
-0.00363013
-0.000178549
-0.00373371
-0.000204751
-0.00382727
-0.000229597
-0.00390704
-0.000253958
-0.00396798
-0.000277569
-0.00400478
-0.000298841
-0.00401299
-0.000313919
-0.00399034
-0.000315908
-0.00393766
-0.000295425
-0.00385849
-0.000242765
-0.00375792
-0.000150862
-0.00364723
-1.80642e-05
-0.00353691
0.000142191
-0.00341574
0.000302446
-0.00326591
0.000471403
-0.00306739
0.000671848
-0.00279518
0.000914727
-0.00240239
0.00119226
-0.00178192
0.00155038
-0.00088725
0.00216387
-0.000269452
0.0027142
0.000943724
-0.00734772
0.00103904
-0.0081221
-0.00668829
-0.00717536
-0.00311281
-0.0056548
-0.000125021
-0.00456245
0.000729871
-0.00397203
0.000722993
-0.00371446
0.000534909
-0.00364896
0.00035308
-0.00369073
0.000217891
-0.00378292
0.000129807
-0.00388405
7.66615e-05
-0.00397074
4.77942e-05
-0.00403285
3.35097e-05
-0.00407594
2.29031e-05
-0.00411482
6.76446e-06
-0.00416197
-2.03216e-05
-0.00422119
-5.17246e-05
-0.00428964
-7.99786e-05
-0.0043638
-0.000104466
-0.00444046
-0.000128117
-0.00451671
-0.000153324
-0.00458977
-0.000180786
-0.00465716
-0.000210008
-0.00471658
-0.00023919
-0.00476583
-0.000264423
-0.00480229
-0.000279215
-0.00482214
-0.000275418
-0.00481932
-0.000245541
-0.00478529
-0.000185015
-0.00471093
-9.26949e-05
-0.0045916
2.24603e-05
-0.00442288
0.000133335
-0.00418191
0.000230121
-0.00383516
0.000324902
-0.00334786
0.000427393
-0.00265821
0.000502721
-0.00153968
0.000432048
0.000439624
0.000184804
0.0020121
0.00114199
0.00313985
0.00158086
-0.00504263
-0.00809202
-0.00815732
-0.00737279
-0.00660288
-0.00602774
-0.00563922
-0.005389
-0.00522863
-0.00512212
-0.00504439
-0.00498033
-0.00492612
-0.00488747
-0.00487556
-0.00489487
-0.00494233
-0.00501425
-0.00510989
-0.00523097
-0.00537994
-0.00555881
-0.00576779
-0.00600314
-0.00625456
-0.00650345
-0.00672361
-0.00688415
-0.00695302
-0.00690718
-0.00675074
-0.00649777
-0.00615043
-0.00570121
-0.00517755
-0.00472568
-0.00452227
-0.00336292
)
;

boundaryField
{
    floor
    {
        type            calculated;
        value           nonuniform List<scalar> 
36
(
0
0
0
0
0
0
0
0
0
0
0
0
0
0
0
0
0
0
0
-6.43876e-06
-1.68818e-05
-2.60248e-05
-3.42888e-05
-3.49053e-05
-2.87575e-05
-2.85941e-05
-2.9203e-06
-5.4415e-06
-5.68781e-06
-5.90783e-06
-4.85461e-06
-8.93853e-06
-1.02093e-05
-1.28315e-05
-1.44567e-05
-1.54459e-05
)
;
    }
    ceiling
    {
        type            calculated;
        value           nonuniform List<scalar> 
43
(
-5.78722e-05
-6.48479e-05
-6.34509e-05
-5.97186e-05
-5.46461e-05
-4.6858e-05
-4.0158e-05
-3.53429e-05
-3.22273e-05
-3.04701e-05
-2.97763e-05
-2.99031e-05
-3.05563e-05
-3.13517e-05
-3.19688e-05
-3.23231e-05
-3.25117e-05
-3.26004e-05
-3.25958e-05
-3.2469e-05
-3.21776e-05
-3.16798e-05
-3.09483e-05
-2.99863e-05
-2.88427e-05
-2.76165e-05
-2.64369e-05
-2.54229e-05
-2.46428e-05
-2.40995e-05
-2.37409e-05
-2.3469e-05
-2.31515e-05
-2.2672e-05
-2.19544e-05
-2.09744e-05
-1.97811e-05
-1.84891e-05
-1.72019e-05
-1.62627e-05
1.9331e-05
1.51852e-05
-0.00024657
)
;
    }
    sWall
    {
        type            calculated;
        value           nonuniform List<scalar> 9(-0.000140237 -0.00016453 -0.000194272 -0.000225987 -0.000245113 -0.000281049 -0.000423575 -0.000453677 -0.000483973);
    }
    nWall
    {
        type            calculated;
        value           nonuniform List<scalar> 
14
(
-9.00997e-05
-9.73126e-05
-0.000102778
-0.000104394
-0.000117123
-0.000129899
-0.000136736
-0.000145431
-0.000154877
-0.000169766
-0.000183229
-0.000186315
-0.000183825
-0.00020662
)
;
    }
    sideWalls
    {
        type            empty;
        value           nonuniform 0();
    }
    glass1
    {
        type            calculated;
        value           nonuniform List<scalar> 9(-6.40339e-05 -0.00017032 -0.00025792 -0.000331202 -0.000393183 -0.000446386 -0.000492196 -0.000535477 -0.000587162);
    }
    glass2
    {
        type            calculated;
        value           nonuniform List<scalar> 2(-0.000367472 -0.00038452);
    }
    sun
    {
        type            calculated;
        value           uniform 0;
    }
    Table_master
    {
        type            calculated;
        value           nonuniform List<scalar> 9(-1.53991e-07 -1.54108e-07 -1.5414e-07 -1.5416e-07 -1.54173e-07 -1.54178e-07 -1.54177e-07 -1.54162e-07 -1.54109e-07);
    }
    Table_slave
    {
        type            calculated;
        value           nonuniform List<scalar> 9(1.53661e-07 1.53717e-07 1.53716e-07 1.53732e-07 1.53753e-07 1.53797e-07 1.53864e-07 1.53957e-07 1.54084e-07);
    }
    inlet
    {
        type            calculated;
        value           uniform -0.0116485;
    }
    outlet
    {
        type            calculated;
        value           nonuniform List<scalar> 2(0.00978416 0.0122807);
    }
}


// ************************************************************************* //
