/*--------------------------------*- C++ -*----------------------------------*\
  =========                 |
  \\      /  F ield         | OpenFOAM: The Open Source CFD Toolbox
   \\    /   O peration     | Website:  https://openfoam.org
    \\  /    A nd           | Version:  6
     \\/     M anipulation  |
\*---------------------------------------------------------------------------*/
FoamFile
{
    version     2.0;
    format      ascii;
    class       volScalarField;
    location    "70";
    object      alphat;
}
// * * * * * * * * * * * * * * * * * * * * * * * * * * * * * * * * * * * * * //

dimensions      [1 -1 -1 0 0 0 0];

internalField   nonuniform List<scalar> 
458
(
0.00170749
0.00191219
0.00202038
0.00214952
0.00228414
0.00242309
0.00253997
0.00261597
0.0026068
0.00248279
0.00234091
0.00217919
0.00200409
0.00183741
0.00165283
0.000939634
0.00112267
0.0013377
0.00150226
0.00154772
0.00147444
0.00137889
0.0012922
0.00121784
0.00115452
0.00110066
0.00105444
0.00101379
0.000976676
0.000940144
0.000899713
0.000846736
0.000764327
0.00208543
0.00534991
0.00553079
0.00650631
0.00740074
0.00807443
0.00869118
0.00928493
0.00979371
0.0097767
0.00935192
0.00867726
0.0075878
0.00593463
0.00393354
0.00186726
0.001682
0.00143695
0.000870065
0.00276561
0.00409038
0.00526068
0.00566301
0.00384566
0.00320683
0.00278833
0.00248183
0.00224333
0.00205662
0.00192415
0.00185541
0.00176078
0.00162413
0.00146796
0.00127173
0.000777274
0.0023939
0.00735942
0.00691174
0.00766177
0.00810426
0.0084196
0.00875437
0.00939695
0.0103041
0.0107752
0.0107844
0.010459
0.0098662
0.00863562
0.00682402
0.00473628
0.00362582
0.00160195
0.000925284
0.00271519
0.00448489
0.00619611
0.00662938
0.00187653
0.00165726
0.00146262
0.00129598
0.00115134
0.00102068
0.000899381
0.000795246
0.000757386
0.000969643
0.00116392
0.00122647
0.000761179
0.00268992
0.00901937
0.00739306
0.00794846
0.00798192
0.00791691
0.00799556
0.00873154
0.0097949
0.0105602
0.0108202
0.0106931
0.0103369
0.00964906
0.0084667
0.00684873
0.00533263
0.00308227
0.00171885
0.00217376
0.00369574
0.00599524
0.00808459
0.00840829
0.00210296
0.00192156
0.0017799
0.00166233
0.0015619
0.00147122
0.00138357
0.00129319
0.00119295
0.00108228
0.00106401
0.00117987
0.000759878
0.00299719
0.0110161
0.00822738
0.00848437
0.0082031
0.00767907
0.0076163
0.00842424
0.00961109
0.0105224
0.0108697
0.0107772
0.0104833
0.0100731
0.00941991
0.00843221
0.00730104
0.00599221
0.00596805
0.00725465
0.00900609
0.0107065
0.0118537
0.0120039
0.0101616
0.00894014
0.00813375
0.00752785
0.00687592
0.00612298
0.00526885
0.00430853
0.00325696
0.00221653
0.00151034
0.00126198
0.000832586
0.000667743
0.000672489
0.000732825
0.00333121
0.0132441
0.0104572
0.00963875
0.00858605
0.0076133
0.00753743
0.00847652
0.00982455
0.0108433
0.0112189
0.0111469
0.0109699
0.0108732
0.0107224
0.0104174
0.0101066
0.0100323
0.0110073
0.012611
0.0139374
0.0147157
0.0148181
0.0142366
0.0130854
0.011998
0.0110581
0.0101108
0.00906603
0.00791853
0.00666696
0.00531933
0.00391429
0.00259528
0.00167048
0.00127213
0.000898453
0.000794392
0.00126555
0.000821289
0.00360609
0.0145856
0.0131091
0.0108082
0.00869295
0.00743977
0.00756446
0.00880854
0.0103819
0.011484
0.0118824
0.0120148
0.0123384
0.012755
0.0129541
0.013118
0.0134382
0.0141203
0.0153295
0.0164277
0.0169216
0.016786
0.0160649
0.0149116
0.0136022
0.0124003
0.0112416
0.0100433
0.00879719
0.00747788
0.00609351
0.00468423
0.00333252
0.00220427
0.00147139
0.00118446
0.000951995
0.00101337
0.00120429
0.000820617
0.00365992
0.0118966
0.0110781
0.00913225
0.00734776
0.00679443
0.00767504
0.0094786
0.0112829
0.0123608
0.0128265
0.0136497
0.01436
0.0147138
0.0149807
0.0153653
0.0159404
0.0167079
0.0175029
0.0178735
0.0176037
0.0167472
0.0154485
0.013928
0.0124141
0.011006
0.00968141
0.0083884
0.00708939
0.00579285
0.00454233
0.00340116
0.00244102
0.00173817
0.00132517
0.00118428
0.00117694
0.00166284
0.0023794
0.00109876
0.00356594
0.00421478
0.00448517
0.004464
0.00473613
0.00606309
0.0083448
0.0107789
0.0124779
0.0132363
0.0139948
0.0147789
0.0151744
0.015375
0.0156728
0.0160998
0.0165946
0.017035
0.0172006
0.01688
0.0160238
0.0147202
0.0131465
0.011478
0.00989725
0.00850857
0.0072744
0.00612388
0.0050372
0.00403603
0.00315579
0.00242854
0.00187495
0.00150315
0.00130611
0.00128315
0.00145792
0.00186099
0.00184996
0.00115613
0.0010807
0.00235474
0.00530363
0.00875184
0.0114613
0.0129534
0.01352
0.0135585
0.0138559
0.0139776
0.0140462
0.0142274
0.014507
0.0147901
0.0149539
0.0148531
0.0143452
0.01339
0.0120854
0.0106101
0.00915957
0.0079056
0.00689436
0.00607702
0.00537307
0.00472786
0.00411975
0.00354462
0.00300893
0.00252991
0.00213405
0.00184853
0.00168907
0.00165795
0.00174466
0.00192399
0.00191613
0.00127685
0.00270236
0.0104269
0.0130933
0.0134578
0.0130368
0.0122204
0.0115206
0.0109866
0.0106034
0.0104169
0.0104227
0.0105388
0.0106732
0.0107382
0.010647
0.0103236
0.00973805
0.00895265
0.00810553
0.0073337
0.00670924
0.00622989
0.00584809
0.00551065
0.00517733
0.0048246
0.0044426
0.0040325
0.00360589
0.00318394
0.00279508
0.00247088
0.00223997
0.00212056
0.00212155
0.00231202
0.00297357
0.00146646
0.00287679
0.00301856
0.00314531
0.00356273
0.00308122
0.0026545
0.00240101
0.00219804
0.00203873
0.00194071
0.0018949
0.00187878
0.00187636
0.00187718
0.00187367
0.00186005
0.00183224
0.00178882
0.00173267
0.00167131
0.00161333
0.00156395
0.00152353
0.00148926
0.00145756
0.00142563
0.001392
0.00135649
0.0013199
0.00128361
0.00124927
0.00121857
0.00119319
0.0011751
0.00116682
0.00117166
0.00119381
0.00124475
0.00133712
0.00129827
)
;

boundaryField
{
    floor
    {
        type            compressible::alphatWallFunction;
        Prt             0.85;
        value           nonuniform List<scalar> 
36
(
0.000231385
0.000133769
0.000159449
0.000189015
0.000211286
0.000217399
0.000207561
0.000194644
0.000182838
0.000172641
0.000163902
0.000156426
0.000149978
0.000144281
0.000139055
0.000133887
0.000128138
0.000120556
0.000108641
0.00010864
0.000110505
0.000108157
0.000107961
9.44722e-05
9.5277e-05
0.000104145
0.000231383
0.000259718
0.000235268
0.000202459
0.000133767
0.000202457
0.000123864
0.00022461
0.000131715
0.00024015
)
;
    }
    ceiling
    {
        type            compressible::alphatWallFunction;
        Prt             0.85;
        value           nonuniform List<scalar> 
43
(
0.000388957
0.000406677
0.000422449
0.000474102
0.000414727
0.000361254
0.000329057
0.000303013
0.000282387
0.000269609
0.000263616
0.000261503
0.000261188
0.000261298
0.000260841
0.000259057
0.000255406
0.000249693
0.000242281
0.00023415
0.000226439
0.000219849
0.000214441
0.000209843
0.000205583
0.00020128
0.000196737
0.000191926
0.00018695
0.000181998
0.000177297
0.000173079
0.000169582
0.000167081
0.000165933
0.000166598
0.000169649
0.000176646
0.000189258
0.000183948
0.000474588
0.000553417
0.000366698
)
;
    }
    sWall
    {
        type            compressible::alphatWallFunction;
        Prt             0.85;
        value           uniform 0.00038773;
    }
    nWall
    {
        type            compressible::alphatWallFunction;
        Prt             0.85;
        value           nonuniform List<scalar> 6(0.000104008 0.000116784 0.000116755 0.000180784 0.000206555 0.000183681);
    }
    sideWalls
    {
        type            empty;
    }
    glass1
    {
        type            compressible::alphatWallFunction;
        Prt             0.85;
        value           nonuniform List<scalar> 9(0.000232968 0.000281897 0.000321216 0.000358508 0.000396812 0.000438026 0.000471681 0.000478387 0.000467213);
    }
    glass2
    {
        type            compressible::alphatWallFunction;
        Prt             0.85;
        value           nonuniform List<scalar> 2(0.000155838 0.000163816);
    }
    sun
    {
        type            compressible::alphatWallFunction;
        Prt             0.85;
        value           nonuniform List<scalar> 
14
(
0.00023864
0.000265584
0.000279703
0.00029645
0.000313792
0.000331578
0.000346456
0.000356091
0.00035494
0.000339201
0.00032109
0.0003003
0.000277598
0.00025579
)
;
    }
    Table_master
    {
        type            compressible::alphatWallFunction;
        Prt             0.85;
        value           nonuniform List<scalar> 9(0.000261072 0.000232118 0.000206056 0.000183428 0.00016351 0.000145259 0.000128068 0.000113108 0.000107647);
    }
    Table_slave
    {
        type            compressible::alphatWallFunction;
        Prt             0.85;
        value           nonuniform List<scalar> 9(0.00029058 0.000266957 0.000248344 0.000232776 0.00021938 0.000207204 0.000195356 0.000183051 0.000169286);
    }
    inlet
    {
        type            fixedValue;
        value           uniform 1.94e-05;
    }
    outlet
    {
        type            zeroGradient;
    }
}


// ************************************************************************* //
