/*--------------------------------*- C++ -*----------------------------------*=========                 |
  \      /  F ield         | OpenFOAM: The Open Source CFD Toolbox
   \    /   O peration     | Website:  https://openfoam.org
    \  /    A nd           | Version:  6
     \/     M anipulation  |
\*---------------------------------------------------------------------------*/
FoamFile
{
    version     2.0;
    format      ascii;
    class       volScalarField;
    location    "70";
    object      PMV;
}
// * * * * * * * * * * * * * * * * * * * * * * * * * * * * * * * * * * * * * //

dimensions      [0 0 0 0 0 0 0];

internalField   nonuniform List<scalar> 
458
(
1.2156708089552355
0.958308224312489
0.9047631302896324
0.8732958875894595
0.8638352418868662
0.8772036455055585
0.9175337836763859
0.989924066992891
1.0947777360264879
1.1016872714987955
1.0742419339419838
1.0625116854581118
1.0706708955168416
1.1078156553644483
1.1308718489549312
2.0268578207160632
1.9347897945945847
1.8819846679645968
1.83399641090157
1.808731616673747
1.7973401804140365
1.7975595747292694
1.809428835892775
1.8256234953594415
1.8438795078742576
1.8642224772844014
1.8875773906507745
1.9148128758560221
1.9473074350418171
1.9901284350095683
2.049079294048267
2.1402335778624355
2.289721958616695
1.141746584768803
0.9825209835567978
0.9524736233116753
0.921451904283752
0.9081593524727475
0.9088261914987019
0.9109345751304302
0.9257424921693734
0.9980390289910579
1.0735108002021423
1.1067535522731662
1.1182157280673302
1.1188849695262966
1.1146818921236017
1.0941435925429153
1.101566161912602
1.1686142092872107
1.264443886349805
2.086888821544556
1.939903165036676
1.7695459216476572
1.7126308024201717
1.711184299593664
1.7288855129671907
1.7502956077751346
1.7739440363214556
1.7991602618876947
1.8278068769458562
1.8643879357703173
1.9116730939191058
1.962159682449445
2.0176161156223005
2.077721353625357
2.1448264766997647
2.225499435798535
2.339841642472097
1.1457547277233453
0.9886009552136059
1.0102638717846402
1.0010543554987013
0.9902542211902486
0.9573892285558981
0.8803182502209006
0.838620836315915
0.9138848981256722
1.030813918897662
1.1259794968570156
1.1779231861899044
1.1930114233367477
1.1810714330689858
1.1575988246001565
1.1608043004705193
1.1876763447733043
1.2057135706772626
2.0799888540206237
1.7097271259486169
1.6026906905412543
1.6078107319790256
1.652314015482779
1.6742739875327903
1.7238178488641605
1.7739975224185314
1.8183276792867937
1.8708107613204639
1.9497887184803675
2.0705635507125617
2.2170760880472384
2.3110438058044758
2.3254874223955
2.322151297030587
2.329420027119374
2.3942246826379168
1.2000922428719003
0.9994513090090344
1.065216232862925
1.1078175952057279
1.117987033347913
1.0114295552747665
0.8399650777262785
0.7686221173368445
0.8548301976679265
1.011594474403538
1.1589414311050938
1.2559733219765492
1.2931448412047066
1.28287379074534
1.250094476399371
1.2240825955665362
1.1971518908596124
1.16642557385283
1.1668869695076134
1.2447801687470845
1.3309792229752158
1.4419299876344376
1.571455346065833
1.6994341744325114
1.8075508551701873
1.8507861328808528
1.8843381620259605
1.917176219478631
1.951063508483987
1.9835957194333205
2.0153042224890405
2.048275553311934
2.087692226285832
2.1924720169806053
2.291997761947073
2.36035498417939
2.434909630925037
1.2794410665983849
1.0260330255213521
1.1162439897834222
1.229063965314966
1.2781345385616925
1.0267549741903772
0.7913456933113736
0.7161850661524156
0.8198162999676264
1.022930827084936
1.2243188387926403
1.3657057549344553
1.4295032916945214
1.4219663165577419
1.3763521012951592
1.3280827102666886
1.2849714331910849
1.2542446293932825
1.2749671395401403
1.3353611627058883
1.439140771779401
1.5754832276906312
1.724834511710131
1.8662701996052022
1.9829027097214025
2.0518415681922164
2.0994678375442355
2.140975831989533
2.1761932192609996
2.2037283617544086
2.224242579542721
2.2375058923954754
2.2450032535609794
2.2628166733658905
2.3154474079162983
2.3875054017405097
2.467781004764495
2.7069988423702798
2.9688004633102345
2.9653794288785584
1.3696264669516414
1.074625536811498
1.1875086472419651
1.3325120722765953
1.2662888920934925
0.9848023051929328
0.7370040560734668
0.6661037105605919
0.8097077093529589
1.0751437358915406
1.3358965521618316
1.521226671958499
1.6145501448237582
1.610901143449339
1.5497054758326791
1.4898717141897628
1.4456892179923828
1.4277843552139982
1.4662249457905734
1.556542331266057
1.6844537487187399
1.8311531333377797
1.9784272300031864
2.110111552126804
2.2156802626211975
2.284864472090746
2.3311562836018105
2.3676958244708537
2.394489459179547
2.4121872980105636
2.421111071705345
2.418156511366687
2.4020910758237894
2.3791296808360594
2.388017338350245
2.4410773332443028
2.5167916666200423
2.6978806890975524
2.8243867398031486
2.9185872468225313
1.4699368715442669
1.1775185122079237
1.3627802444415489
1.3715619537045451
1.1902519401515255
0.8908139591681501
0.6350757678578896
0.6108134042605724
0.8369103997088371
1.1892473638736767
1.513598150122176
1.7382220021386212
1.7971253497156277
1.7812989929189302
1.743880535456803
1.7129330710641606
1.6841722199970734
1.694655911557426
1.763592951123892
1.8745979728439435
2.0068371089336594
2.145627455823617
2.276225603462493
2.3887019096701994
2.4615591240564165
2.5101390851052754
2.5468515978411177
2.5712866661241756
2.587714114285584
2.596625098619371
2.5961562209770026
2.58396067861781
2.5508125168704687
2.50781337869636
2.493046835168643
2.5287825949482756
2.590096136637262
2.7394379862900196
2.8398666102639254
2.913147474157381
1.6056948974144551
1.5152209608805893
1.4888599560815168
1.3615855800857306
1.0722521634881281
0.6858216693293738
0.4627630023221448
0.5686705954515135
0.9436869722024833
1.4081243778197619
1.781466084602117
1.9466040028326201
1.9700515454776721
1.954261273519007
1.9322442465447984
1.9250632286310525
1.944689546466839
2.004489230113149
2.101949564346409
2.2163580378353416
2.332329641352846
2.4450273455480533
2.5365038514667955
2.598470970896428
2.642868416727231
2.676453384122542
2.7003118186900803
2.716978242717188
2.726299535721806
2.728117930662458
2.7194129293393194
2.6998579404070813
2.669603015530349
2.636081660871665
2.620086200626249
2.6382603504684687
2.6854691772328643
2.826132022180193
2.8957593237587935
2.9477014787619984
1.8123484181688256
1.714105474433165
1.5946399196909522
1.2917642670277396
0.6466003486946478
0.20656221027861996
0.2090846700374355
0.6319715680267209
1.2422414141070315
1.803749026983197
2.038169845527262
2.0952462326694237
2.107749052482089
2.107837352117296
2.1170711114097878
2.1458312717568098
2.200476980103848
2.282014263446611
2.3809564924427797
2.4784478338244917
2.5646340727050685
2.6415891510730853
2.7048379210885085
2.754096975549867
2.790321696302725
2.814922761902377
2.831381904334559
2.8414483492820395
2.8445389454342207
2.840136005193935
2.8277366291472994
2.807814090294896
2.78424053282831
2.762704966681347
2.75497879249256
2.775951574415626
2.8364199846474247
2.9403896648174146
2.972147629205972
2.990200105717795
-2.787141160542841
-2.561007263701569
-1.9144829022625989
-0.8886280754010005
0.1906244045133668
1.235913170634418
1.892275413804333
2.1278091848096903
2.2327505817625326
2.2760886683447166
2.298393352532816
2.3205149473479514
2.352018362404241
2.397587409862179
2.4593147214536244
2.535207762873285
2.6173826660231474
2.6949573118276433
2.760798684757089
2.813638836697922
2.8534788715626864
2.8822724929816324
2.90192938017602
2.9149308004192376
2.9227724327513336
2.9259484988136384
2.9249785650118194
2.9188300682702053
2.9085679068305317
2.8952581257561185
2.880483661962502
2.8683797975975693
2.864040563996257
2.8771881268537127
2.914134590401478
2.9710564383436937
2.992409745615128
3.0
-2.3846898445975255
-0.752634869265397
0.5190719183745505
1.2117697416858488
1.6875849293946437
2.0520924857838927
2.2810384120953486
2.3891531197440674
2.445089659915832
2.482137857158231
2.5141824626527205
2.549044705475723
2.589306188597772
2.636982605312284
2.690886326038403
2.7482670853807205
2.8038255737975453
2.851864107095793
2.8903909142748745
2.918402027688982
2.9379985362100323
2.951265282959794
2.959771561208868
2.965628792464568
2.9682921022581974
2.968830364708501
2.966716912810629
2.9635749201790587
2.958369528351185
2.9516966783272895
2.944703995834
2.9391027089466646
2.9376143592178146
2.943274402248959
2.9605176793094987
2.9872282535391794
2.999525045138475
3.0
-0.16585284353805455
-0.18758680060334523
-0.10482174763586263
1.1716715441353747
1.921080159218523
2.2671838431014764
2.4294754773767986
2.5307535034922286
2.6000187345880788
2.6478530225257324
2.684500392759282
2.716580708344952
2.746917376511281
2.7766728419760547
2.806425124947712
2.8367161564740786
2.8669829644617995
2.894458411172997
2.9185964429433007
2.93776819690646
2.9514521590703757
2.9613037824075783
2.968422755322438
2.9727978798138466
2.976076632470098
2.978260688277825
2.9798986640700207
2.9804351181618816
2.980428324818142
2.979883493866359
2.9793635949652058
2.9777673284438952
2.97622129801767
2.9747276112935706
2.974379311192727
2.9756558552456567
2.9806213355208793
2.99033927332975
2.987610119050105
2.9864130494811003
)
;

boundaryField
{
    ".*"
    {
        type            zeroGradient;
    }
}


// ************************************************************************* //
