/*--------------------------------*- C++ -*----------------------------------*=========                 |
  \      /  F ield         | OpenFOAM: The Open Source CFD Toolbox
   \    /   O peration     | Website:  https://openfoam.org
    \  /    A nd           | Version:  6
     \/     M anipulation  |
\*---------------------------------------------------------------------------*/
FoamFile
{
    version     2.0;
    format      ascii;
    class       volScalarField;
    location    "70";
    object      PPD;
}
// * * * * * * * * * * * * * * * * * * * * * * * * * * * * * * * * * * * * * //

dimensions      [0 0 0 0 0 0 0];

internalField   nonuniform List<scalar> 
458
(
36.01259496158828
24.39561068132447
22.284369248167025
21.09758481625701
20.74871763350616
21.24276180238398
22.777494274836542
25.695184115236543
30.272635291151317
30.58802157985437
29.34498676159194
28.82173190694202
29.18517725469094
30.869108754913725
31.937851322615003
77.9495351844279
73.72159079882658
71.15741723229908
68.75181406963893
67.45994527431574
66.87228533003241
66.88363241777714
67.49581202149523
68.32549733535953
69.25260769841914
70.27482694463342
71.43331184780868
72.76249930611327
74.31539463352811
76.30263309529445
78.91856134485585
82.66251803527246
87.93096938992545
32.447980825146175
25.387416921531624
24.16003154541349
22.930105522001924
22.414867725814446
22.44054555595183
22.521850868031166
23.097931026952168
26.034953053949707
29.312230844847193
30.820302992244947
31.349010820501178
31.380015825736393
31.185539950796894
30.243771476246707
30.58247952556637
33.72442540728311
38.449313756888344
80.51768637303626
73.9648354342686
65.42603698593261
62.41708341490212
62.33989887146701
63.282191896722715
64.41490140108668
65.65600328200316
66.96638602697928
68.43684435183219
70.28309213059381
72.61051429385353
75.01252905167155
77.54036681496268
80.13582761597316
82.8408894952129
85.80523981995644
89.44316569929526
32.63695969279942
25.64002444534364
26.551516015061097
26.16184126538647
25.708958466911767
24.35841648061448
21.358921728428
19.83703006688559
22.635925012972777
27.432480977871066
31.709605182421114
34.171889094094226
34.90267011566094
34.32381140450987
33.198368035706295
33.351063294596415
34.64350084910963
35.52305346340903
80.23063164184254
62.26211343645707
56.483116176093155
56.761590590003365
59.17555745882277
60.36067693583178
63.01293246050936
65.65879744524139
67.95253678779807
70.6033052258754
74.43242708842918
79.83504246781352
85.51087988859979
88.59004022477892
89.02324388370583
88.92413506362483
89.13933968797127
90.93866663666793
35.247928721197866
26.09434039711175
28.941942056327463
30.86919792926308
31.33841912509787
26.60106635862161
19.884966686803168
17.44590823000061
20.420087374040122
26.60808078491675
33.26228519127777
38.021675551621364
39.91127250873815
39.38584340112342
37.72594818786711
36.428313884172816
35.10438133390983
33.61960564334849
33.64169092328606
37.45938456652194
41.866911259399465
47.751571173912154
54.7824087205374
61.71179098516086
67.39917686024279
69.60098113915079
71.27363662939013
72.87668006111393
74.49246634467703
76.00401707478109
77.43745357635919
78.88388222293513
80.5509691960726
84.63065972909219
88.00242802964121
90.02496309682401
91.95980587995183
39.21078794433177
27.226127405208032
31.25774942452614
36.6754143840791
39.14423362219216
27.25723411086679
18.199414749054696
15.791324789496315
19.174374752249847
27.092682283971257
36.440017417619416
43.68726729834891
47.083612801844325
46.679384140760874
44.2496945361656
41.71612588341766
39.49295168222154
37.93462443285146
38.98305628634627
42.095343704116786
47.60149180480734
55.00183971428674
63.06698431063089
70.37706036632669
75.97224062790639
79.03753132868322
81.03540816085768
82.69141319003049
84.03169760350828
85.03712139369073
85.76154539730935
86.21861304125915
86.47303249518535
87.0660432083734
88.72325078792768
90.76202504523215
92.72495379130605
96.81554515897122
98.96852866897514
98.95147514545961
43.89416745376282
29.36218027567847
34.63536797131022
41.94677587961956
38.54269666723031
25.482033798415245
16.434123968212575
14.321580895359745
18.82429416960916
29.385414751513537
42.123279895106606
52.04665188623301
57.12795476549974
56.929617623464075
53.59738632221061
50.342919810346366
47.95397912428573
46.99135979628614
49.06222004370375
53.96987928090836
60.908279793558016
68.60725271985899
75.76657606929152
81.46777185662235
85.4617562698733
87.77755904222835
89.19034397413509
90.22794415519799
90.94558059238837
91.39971366872007
91.6227459694462
91.549342965236
91.1425701922671
90.53863930331583
90.77556352950678
92.10741449062795
93.76898756858976
96.7025995272078
98.0184524135235
98.69389640591307
49.26295996804592
34.15238268274699
43.53305872468488
43.996402152494184
34.76851451621329
21.753288280678632
13.465444746084344
12.825071066314138
19.776143760958462
34.7197313619655
51.63169016987736
63.777137559206956
66.86117318619118
66.039661353145
64.07636749795725
62.43320832897962
60.893151995836405
61.45581588115392
65.11413727328302
70.79153890532395
77.05866211279388
82.87189261633908
87.50173546525285
90.7936467338211
92.58417920497075
93.63393839981103
94.35371778594319
94.79889387527166
95.083374781195
95.23280589495198
95.22502789137756
95.01940927711698
94.42769440726967
93.58623765059566
93.27742916511441
94.00721231453356
95.12365350371088
97.19334143579374
98.14543274805297
98.66085392741523
56.64652616208904
51.719944269767794
50.28803818464035
43.47012917996924
29.255886038234735
14.887312713468702
9.47035348150348
11.773476009629292
23.807788237645994
45.93891245060707
66.04836385933774
74.28217562041436
75.37960098990844
74.64280968934399
73.60015208326095
73.25634574074222
74.19167589492416
76.95310610763013
81.13668970251544
85.48562162788173
89.22472503183371
92.20096256831283
94.15710407872947
95.26333517844873
95.95475568866634
96.4250860711073
96.7330100882269
96.9357174527857
97.04476987616422
97.06568859052561
96.96449709011054
96.72734903617956
96.33270960537371
95.85429906368381
95.61013541603859
95.88674986584775
96.54394606864044
98.03310686751435
98.55062740574611
98.85959731190286
67.64587341356656
62.49573866431967
56.04502948104552
39.84050565680799
13.778565118468677
5.8848947147156
5.90667907745879
13.38208887642763
37.33230111671775
67.20328504317199
78.44546660185708
80.86246727979223
81.37225848940639
81.37583303310679
81.74762200742794
82.87977668680395
84.92036526086987
87.68697979614196
90.58766463819356
92.9619391525797
94.68032433820403
95.93596180350218
96.78905144589935
97.35217263935102
97.71456848267422
97.93746269283893
98.07666687268379
98.15803152972275
98.18245044285717
98.14758338547237
98.04650362588254
97.87491278650725
97.65663685279819
97.4421104853914
97.36149817371341
97.5758133629172
98.11774056965982
98.8197054873295
98.98499123544235
99.07007281382927
97.68441231508429
94.61485831674905
72.74654216293993
21.670784279962874
5.753406688498913
37.01626459904462
71.66430872879255
82.17493584123599
86.0557646968129
87.49733258496171
88.20182232257804
88.87531405521906
89.79111467788566
91.02621287639691
92.53293605932966
94.13213401353967
95.56782811437326
96.66574416315655
97.42240280502662
97.92627511577392
98.25162504796843
98.46014371035953
98.59055559414065
98.67176067691905
98.71886181546667
98.73754576824903
98.73186373455717
98.69535567204453
98.63251003273456
98.54734401894156
98.44780576680823
98.362203330729
98.3306018411137
98.4248661174132
98.66690009268814
98.97964843501329
99.08006721138229
100.0
90.68732884521722
16.92896599279068
10.634481348652088
35.82046841164025
61.07646627947352
79.04832176862953
87.6558716740258
90.8055526578931
92.20243220472297
93.04264497519809
93.7162662718372
94.3947650524909
95.11032298351309
95.86774155274217
96.61389524047623
97.28986925111754
97.83916285111233
98.23928972252162
98.5151428968166
98.69278241093676
98.80641372755584
98.87863446078707
98.92301664829816
98.9527260239274
98.96600915095452
98.96867670674793
98.95816991568313
98.94238636194281
98.91580290596501
98.8809210165547
98.84338002287934
98.81256678394362
98.80426674974045
98.83557892061808
98.92683939166771
99.05648869726522
99.11164533918276
100.0
5.57010261344746
5.729550940671871
5.227560022124209
33.87109492307839
73.06487531306513
87.20895434774309
91.82819336433226
94.04573327483472
95.28882220284495
96.02736123392424
96.53132095120048
96.93099836579059
97.2752832020133
97.58293227335038
97.86251691995848
98.12013311608587
98.3520837435378
98.54209250316255
98.69395169547086
98.80512685407426
98.87962544584026
98.93085486975737
98.9666571738302
98.98816403061763
99.00403733933692
99.01449599455962
99.02227978193497
99.0248179425041
99.02478583490833
99.02220792657242
99.01974271919033
99.01214146844188
99.00473292299804
98.99753153639102
98.9958461148933
99.00201186004202
99.02569772614325
99.07070493319598
99.05824335146296
99.0527337852108
)
;

boundaryField
{
    ".*"
    {
        type            zeroGradient;
    }
}


// ************************************************************************* //
