/*--------------------------------*- C++ -*----------------------------------*\
  =========                 |
  \\      /  F ield         | OpenFOAM: The Open Source CFD Toolbox
   \\    /   O peration     | Website:  https://openfoam.org
    \\  /    A nd           | Version:  6
     \\/     M anipulation  |
\*---------------------------------------------------------------------------*/
FoamFile
{
    version     2.0;
    format      ascii;
    class       volScalarField;
    location    "350";
    object      alphat;
}
// * * * * * * * * * * * * * * * * * * * * * * * * * * * * * * * * * * * * * //

dimensions      [1 -1 -1 0 0 0 0];

internalField   nonuniform List<scalar> 
775
(
0.000484647
0.000535878
0.000544572
0.000574584
0.000602159
0.000627023
0.000649935
0.000671802
0.000693812
0.000713339
0.000727106
0.000733773
0.000733157
0.000727982
0.000721482
0.000304243
0.000343673
0.000349589
0.000347226
0.000336897
0.000330441
0.000328861
0.000330595
0.000341031
0.000363487
0.000370806
0.000350913
0.000308821
0.000514892
0.000689909
0.00090728
0.00100956
0.000844845
0.000679825
0.00179596
0.0016893
0.00190513
0.00213388
0.0023874
0.0026499
0.00289732
0.00309363
0.00323944
0.00332647
0.00330957
0.00311168
0.00261167
0.00171168
0.000784184
0.00071758
0.000687693
0.000380608
0.00116745
0.00124384
0.00138082
0.0014464
0.00145772
0.00137797
0.00118707
0.0010157
0.000911078
0.00082508
0.000770628
0.000333183
0.000522659
0.00181439
0.00273356
0.00348916
0.00112014
0.000839991
0.0024952
0.00238823
0.00294408
0.00325354
0.00352663
0.00377375
0.00398995
0.00416848
0.00432079
0.00445504
0.00455164
0.00457952
0.00450119
0.00427046
0.0037888
0.00276198
0.000881903
0.000554293
0.000803968
0.000966337
0.00120842
0.00154173
0.00188973
0.00201514
0.00167959
0.00123098
0.000918276
0.000777516
0.000687702
0.000472123
0.00066097
0.00209009
0.00337359
0.00477186
0.00135369
0.000981892
0.00298578
0.00261014
0.00351649
0.00382622
0.00400496
0.00414287
0.00426231
0.00437221
0.00448732
0.00462358
0.0047734
0.00492206
0.00505042
0.00512089
0.00503273
0.00458363
0.00347234
0.000852964
0.00196794
0.00214196
0.00208913
0.00208282
0.00216918
0.00235123
0.00252499
0.00252617
0.00233532
0.00184068
0.00133933
0.00124062
0.000635614
0.000791574
0.00258305
0.00411865
0.00592161
0.00156531
0.0011115
0.0034159
0.00261722
0.0037404
0.004039
0.00410428
0.00412728
0.00415246
0.00419647
0.00427423
0.00440063
0.00457098
0.00477251
0.00498558
0.00517829
0.0052898
0.00524665
0.00495252
0.00427439
0.00412548
0.00399054
0.00368361
0.00337969
0.00316312
0.00306349
0.00304679
0.00301673
0.00289131
0.00260155
0.00221428
0.00200538
0.000703907
0.000880128
0.00277164
0.00451793
0.00675631
0.00174868
0.00123261
0.0038367
0.00257075
0.00373418
0.00404103
0.00401012
0.00393959
0.00389395
0.00389431
0.0039541
0.00408205
0.0042713
0.0045037
0.00475207
0.00498587
0.00516415
0.00526023
0.0052693
0.00515364
0.0050245
0.00487164
0.00464041
0.00432469
0.00401964
0.00377682
0.00361023
0.00348928
0.00336285
0.00319021
0.00297727
0.00260725
0.00227432
0.000726869
0.000698021
0.000712302
0.00170978
0.00260671
0.00444836
0.00722653
0.00190921
0.0013477
0.00424846
0.00254911
0.00358036
0.00392705
0.00383096
0.00369448
0.0036042
0.00358474
0.00364791
0.00379608
0.00401484
0.00427784
0.00454804
0.00479482
0.00498023
0.00508928
0.00515115
0.00516413
0.00512927
0.00506214
0.00494408
0.0047505
0.00450849
0.00426615
0.00405624
0.00388692
0.00374751
0.00362908
0.00354159
0.00340595
0.00296302
0.0024805
0.00251047
0.00244884
0.0023062
0.00262291
0.00446949
0.00761535
0.00198392
0.00146838
0.00459268
0.00259433
0.00333379
0.00375635
0.00363145
0.00345119
0.0033328
0.00330836
0.00339286
0.00358203
0.00384024
0.00413638
0.00442352
0.00467134
0.00483255
0.00492133
0.00495971
0.00496563
0.00495014
0.00492377
0.00487756
0.0047921
0.00465225
0.00448068
0.00430519
0.00414631
0.0040147
0.00391875
0.00387196
0.00385888
0.00375696
0.00343091
0.00292731
0.0025215
0.0022994
0.00257156
0.00470896
0.00766354
0.00203834
0.00166397
0.00483668
0.00271349
0.0029946
0.00355646
0.00345456
0.00324563
0.00310107
0.00307436
0.00320248
0.00345445
0.00375418
0.00408006
0.00437527
0.00460586
0.00474934
0.00480688
0.00480191
0.00476478
0.00472107
0.00468667
0.00466063
0.0046288
0.00457255
0.00448375
0.00437538
0.00426459
0.00416693
0.00409605
0.00406474
0.00407425
0.00408026
0.00398323
0.00367838
0.00307657
0.00222728
0.00262121
0.00502236
0.0080884
0.00216264
0.00202619
0.00626184
0.0030084
0.00242356
0.00325542
0.00331386
0.00311136
0.00293831
0.00289118
0.00310396
0.00342702
0.00375807
0.00408826
0.00438535
0.00460773
0.00472796
0.00474737
0.00469412
0.00460758
0.00452286
0.0044617
0.00442905
0.00441606
0.00440802
0.00438506
0.004345
0.00429517
0.00424696
0.0042122
0.00420106
0.00421702
0.00424458
0.00422842
0.00402814
0.00330126
0.00219382
0.00271446
0.00532253
0.00865638
0.0022988
0.00235886
0.00870868
0.00442557
0.00220601
0.00267226
0.00304594
0.00299007
0.00283613
0.00281455
0.00313965
0.00348804
0.00383336
0.00416942
0.00446403
0.00467063
0.00475857
0.00473208
0.00462738
0.00449333
0.00437189
0.00428758
0.00424694
0.00424342
0.00426425
0.00428981
0.00430809
0.00431699
0.00432066
0.00432565
0.00433814
0.00436064
0.00438513
0.00437198
0.00416738
0.00334605
0.00220126
0.00290199
0.00571657
0.00929955
0.00240714
0.00270667
0.0108517
0.00685382
0.00332059
0.00234763
0.00238534
0.00256081
0.00265881
0.00296492
0.00332819
0.00366456
0.00399809
0.00432673
0.00460869
0.00478741
0.00482951
0.00474588
0.00458547
0.00440818
0.00426093
0.0041671
0.00413056
0.00414366
0.00419378
0.00426178
0.00432904
0.00438668
0.0044318
0.00446511
0.00448877
0.00450402
0.0045055
0.00445858
0.00420737
0.00333445
0.00228787
0.00319142
0.006187
0.00991227
0.0025059
0.00302414
0.0117858
0.00907984
0.00558826
0.00379941
0.00305456
0.00299633
0.0032294
0.00345785
0.00368793
0.00394662
0.00424579
0.00455722
0.00481469
0.00494717
0.0049226
0.00476591
0.00454475
0.00433051
0.00417157
0.00408494
0.00406717
0.00410626
0.00418892
0.00429698
0.00440065
0.00448672
0.00454799
0.00458214
0.00459035
0.00457496
0.00453385
0.00443941
0.0041556
0.00333389
0.00250237
0.00360582
0.00671444
0.0104669
0.00258843
0.00307565
0.010091
0.00870752
0.00724396
0.00585438
0.00485584
0.00440265
0.00414452
0.00403558
0.00409291
0.00428344
0.00456192
0.00485712
0.00507201
0.00512608
0.00500239
0.0047521
0.00446832
0.00423106
0.00408384
0.00402812
0.00404586
0.00411639
0.00422353
0.00435564
0.00447566
0.0045595
0.00460503
0.00461215
0.00458501
0.0045289
0.00444498
0.00431577
0.00404727
0.00341581
0.00293912
0.00420864
0.007319
0.0109095
0.00267018
0.00295017
0.00350636
0.00414791
0.00441491
0.00445289
0.00432531
0.00419505
0.00412897
0.00419716
0.00438196
0.00464777
0.00495871
0.00522973
0.00535241
0.00526526
0.00499642
0.00463718
0.00431328
0.00409688
0.00400718
0.00401215
0.00407619
0.00417532
0.00429332
0.00441901
0.00454594
0.00461297
0.00463342
0.00461024
0.00455376
0.00447205
0.0043678
0.00423656
0.00404336
0.00372558
0.00370786
0.00507534
0.00806126
0.0113009
0.00275419
0.00417418
0.00521169
0.00488408
0.00473535
0.00471237
0.00481243
0.00497633
0.00515591
0.00535599
0.00556751
0.00566396
0.00554925
0.00522341
0.00478931
0.00436632
0.00410604
0.00399273
0.00398317
0.0040384
0.00413124
0.00424387
0.00436288
0.00447714
0.00457622
0.00464737
0.00468226
0.00466319
0.00461649
0.00455252
0.00447512
0.0043988
0.00434723
0.00438511
0.00480487
0.00619264
0.0089365
0.0116555
0.00282721
0.00239497
0.0042154
0.00452164
0.00467537
0.00490509
0.00534251
0.00574471
0.00584487
0.00592498
0.00594369
0.00573718
0.00533471
0.00482546
0.0044052
0.00413121
0.00400131
0.00396672
0.00399117
0.00405251
0.0041368
0.00423384
0.00433503
0.00443303
0.00452173
0.00459566
0.00465259
0.00469312
0.00472538
0.00475711
0.00479126
0.00485875
0.00500242
0.00530788
0.00596129
0.00728656
0.0097288
0.011815
0.00286983
0.00290019
0.00598468
0.0041633
0.00393044
0.00454682
0.00489083
0.00528495
0.0058507
0.00599951
0.00566044
0.00568215
0.00552658
0.00512662
0.0047229
0.00439801
0.00418452
0.00406841
0.00402012
0.00401048
0.00402263
0.00404826
0.00408358
0.00412684
0.00417742
0.00423556
0.00430236
0.00437966
0.00447016
0.00457806
0.00470955
0.00487254
0.00507768
0.00534719
0.00571493
0.00622841
0.0070092
0.00826637
0.0104919
0.0117978
0.00295592
0.0028973
0.0059215
0.00436147
0.00449713
0.00501197
0.00519956
0.0052995
0.00527356
0.00479906
0.0044501
0.00457587
0.00438875
0.00406142
0.00383102
0.00369108
0.00360879
0.00356937
0.00355949
0.00356695
0.00358354
0.0036053
0.00363128
0.00366256
0.00370164
0.00375206
0.00381794
0.00390358
0.00401344
0.00415226
0.0043254
0.00453973
0.00480562
0.00514044
0.00557084
0.00612034
0.00679446
0.00763499
0.00911307
0.0106717
0.00290027
0.00200187
0.00197364
0.0018235
0.00172884
0.00163392
0.00156554
0.00151721
0.00146625
0.00121049
0.00113609
0.00111751
0.00109374
0.00107194
0.00106236
0.00106274
0.00106994
0.00108214
0.00109812
0.00111717
0.00113903
0.00116382
0.00119187
0.00122365
0.00125969
0.00130057
0.00134689
0.00139933
0.00145865
0.00152581
0.001602
0.00168872
0.00178785
0.00190167
0.00203285
0.00218437
0.00235942
0.00256026
0.00278515
0.00302058
0.00267857
)
;

boundaryField
{
    floor
    {
        type            compressible::alphatWallFunction;
        Prt             0.85;
        value           nonuniform List<scalar> 
42
(
0.000102428
3.84222e-05
4.48087e-05
4.57585e-05
4.53796e-05
4.37183e-05
4.26766e-05
4.24211e-05
4.27014e-05
4.4384e-05
4.79818e-05
4.91484e-05
4.59718e-05
3.917e-05
7.15786e-05
9.77837e-05
0.000129236
0.000143714
0.000120309
3.91694e-05
7.15777e-05
4.31194e-05
7.27614e-05
6.50131e-05
9.35119e-05
8.975e-05
0.000112621
9.98387e-05
0.000103206
9.89764e-05
0.000125359
0.000101073
0.000102427
0.000111561
0.000101856
9.74677e-05
3.84217e-05
9.74666e-05
5.07045e-05
0.000125623
7.75589e-05
0.000121479
)
;
    }
    ceiling
    {
        type            compressible::alphatWallFunction;
        Prt             0.85;
        value           nonuniform List<scalar> 
43
(
0.000277456
0.000273748
0.000254076
0.000241584
0.000228983
0.000219857
0.000213383
0.000206538
0.000171697
0.000161399
0.000158821
0.000155516
0.000152474
0.000151135
0.000151187
0.000152193
0.000153896
0.000156126
0.000158777
0.000161814
0.000165248
0.000169124
0.000173503
0.000178455
0.000184051
0.00019037
0.000197492
0.000205515
0.000214553
0.000224751
0.000236292
0.000249405
0.000264361
0.000281477
0.0003011
0.000323594
0.000349187
0.0003776
0.000407085
0.000364164
0.000398327
0.000467214
0.000328086
)
;
    }
    sWall
    {
        type            compressible::alphatWallFunction;
        Prt             0.85;
        value           nonuniform List<scalar> 9(0.00027901 0.000321899 0.000366059 0.000405852 0.000412271 0.000396638 0.000390363 0.000389989 0.000275848);
    }
    nWall
    {
        type            compressible::alphatWallFunction;
        Prt             0.85;
        value           nonuniform List<scalar> 
18
(
0.00011979
0.000158623
0.000190702
0.000219235
0.000243614
0.000264726
0.000274489
0.000315207
0.00032907
0.000341645
0.00035212
0.000362463
0.000373088
0.00038223
0.000387546
0.0003983
0.000391382
0.000363524
)
;
    }
    sideWalls
    {
        type            empty;
    }
    glass1
    {
        type            compressible::alphatWallFunction;
        Prt             0.85;
        value           nonuniform List<scalar> 9(6.67821e-05 9.60834e-05 0.000119355 0.000139533 0.000157669 0.000174396 0.00019012 0.000206446 0.000232594);
    }
    glass2
    {
        type            compressible::alphatWallFunction;
        Prt             0.85;
        value           nonuniform List<scalar> 2(0.000281737 0.000297833);
    }
    sun
    {
        type            compressible::alphatWallFunction;
        Prt             0.85;
        value           nonuniform List<scalar> 
14
(
6.6955e-05
7.47809e-05
7.60997e-05
8.06325e-05
8.47714e-05
8.84835e-05
9.18882e-05
9.5124e-05
9.8368e-05
0.000101235
0.000103251
0.000104226
0.000104136
0.000103379
)
;
    }
    inlet
    {
        type            fixedValue;
        value           uniform 1.94e-05;
    }
    outlet
    {
        type            zeroGradient;
    }
}


// ************************************************************************* //
