/*--------------------------------*- C++ -*----------------------------------*=========                 |
  \      /  F ield         | OpenFOAM: The Open Source CFD Toolbox
   \    /   O peration     | Website:  https://openfoam.org
    \  /    A nd           | Version:  6
     \/     M anipulation  |
\*---------------------------------------------------------------------------*/
FoamFile
{
    version     2.0;
    format      ascii;
    class       volScalarField;
    location    "350";
    object      PMV;
}
// * * * * * * * * * * * * * * * * * * * * * * * * * * * * * * * * * * * * * //

dimensions      [0 0 0 0 0 0 0];

internalField   nonuniform List<scalar> 
458
(
1.3253185027288132
1.0787632367929811
1.0451862971442707
1.0164331659764432
0.9983973188886749
0.9905419564015764
0.9943895636376692
1.0104259423855768
1.0421235221422218
1.093212294576265
1.167749324442325
1.2293600032957763
1.2446411934009969
1.2527590158181303
1.2646965835343946
1.3911999970936584
1.3773597249938907
1.3735415520355816
1.3807005676938744
1.386904842912492
1.3911999970936584
1.3853200195895443
1.3816907376471312
1.3828935580361135
1.3850550122029424
1.3883094200715334
1.392312145347033
1.396950741029273
1.404146517977525
1.4157021087828812
1.4288977574378066
1.434146197592271
1.4494134897819988
1.257286438509425
1.0920436259862314
1.079144846174567
1.0510398120654616
1.034721243245226
1.0270869636198638
1.028913945688951
1.0376702327314298
1.052964230967544
1.0787607990316792
1.121061053210495
1.1855054619618457
1.2436861411041216
1.2532365279054607
1.2447868164327471
1.2077723872684112
1.2137063529765884
1.2411362563948518
1.349783229195324
1.3625639130189402
1.3625639130189402
1.3716324389669896
1.3733764562569089
1.3741901744473592
1.3747002369990737
1.3771559189625
1.3782938319533138
1.3794829791346892
1.3808455258029597
1.3825655326740378
1.3846032821687044
1.388636880303423
1.3981183955793548
1.4093340447556921
1.417446081828314
1.4047883183878527
1.2871158556055473
1.083848000507897
1.1129920794020076
1.0988332336309765
1.0926584711648046
1.0897425853505052
1.090082339915888
1.0846723033749774
1.0691854731048729
1.0571857855445521
1.071612419022792
1.126175431232658
1.2226027001033233
1.2608766154612026
1.2666065483657263
1.2617431097051388
1.258653223561677
1.2488534427094342
1.2569931629825353
1.314203733546851
1.3222703339458133
1.3331221126807398
1.3461199420006928
1.3512167616747655
1.37452826030636
1.3921544630868279
1.3931089244316404
1.3940633811164016
1.3954950573805605
1.3964495023642813
1.397881161022049
1.3993128090633287
1.4030607452572674
1.4074252788481962
1.401759509819181
1.3321915120620107
1.360512162681999
1.078717733019412
1.137571922514315
1.1507166173923211
1.1697960721405882
1.181911112718397
1.1835235680143044
1.1521887596808988
1.0891497891357234
1.0356425642526728
1.030709712314276
1.0860266294903231
1.181169394238842
1.2700030081188534
1.2818857954773517
1.2828407200434604
1.2444428846354088
1.219830711166202
1.1756238750775612
1.2398526815173614
1.2784636786897796
1.3087790274285758
1.3432206237125952
1.381724792624313
1.4108906918027098
1.407748531846664
1.405175393600733
1.40667313877835
1.4104695016207753
1.415595521577623
1.4249514987426493
1.43970512736769
1.4645433544298236
1.4608921965762596
1.4417800124115794
1.384022721525185
1.2887133627532452
1.4538237448931157
1.0874553207095472
1.1559512608246947
1.1967875052794879
1.2557053308004242
1.3042436442556258
1.3073140242964358
1.219548572679795
1.1035128194814379
1.016900284625268
1.0005024586142868
1.0598556742472038
1.1596462275279904
1.2617059030924969
1.3038481821807544
1.30480302594833
1.2804833751981413
1.2529756407805117
1.2541170854164048
1.2729865523490316
1.307936924048852
1.3525887877382512
1.398514055424685
1.4433877490960554
1.4785129125721608
1.4907074230684576
1.4949876863954261
1.497921627361315
1.4989143012759951
1.4979357985028634
1.4971946910831435
1.4973817534404577
1.496572452946582
1.4792690743882781
1.4489362468270377
1.3718294875261074
1.3683508840619383
1.3739668636083422
1.4594742716115607
1.3391863983983263
1.5506881506181558
1.1184332524001512
1.188693408307063
1.2301188244170977
1.320612335130775
1.3911999970936584
1.3955828140172721
1.2393713770602204
1.0961385685031653
0.996829289564704
0.9798201493881867
1.0458603559075832
1.160071429175115
1.2801302450826193
1.3353560481116011
1.3396522481668558
1.336788123798892
1.3377428359315808
1.3428381707822732
1.3674103293998106
1.4058796793861685
1.4475051524224694
1.4789899086424327
1.504745512518487
1.5247745757857791
1.5386025251234294
1.5481382346449637
1.5543360846414718
1.5571965334929132
1.556719796312108
1.5524290844925348
1.5452775920396957
1.53116988127776
1.4989877635119375
1.4593647240620058
1.3859244959908548
1.3768467531146924
1.3726590273756718
1.3978991764012445
1.40666947484297
1.6433647062671368
1.205561050997305
1.3095917140710245
1.2923380216711062
1.352384728984987
1.424797565651781
1.336357976832372
1.2060174943971769
1.0611366426457292
0.9648016488540484
0.9616395420304171
1.0506335882660396
1.190744833755251
1.337537890789471
1.3792687847011809
1.3878593296795554
1.3878593296795554
1.3940633811164016
1.4141058742643153
1.4436884136377537
1.4751738998477797
1.50569933966077
1.5324039585504052
1.552905837090302
1.567207613732722
1.5767412544914041
1.581983047928932
1.583889611954654
1.583889611954654
1.580554510385379
1.5738812370562358
1.5643473835575286
1.5524290844925348
1.5362240174780468
1.4899015904299482
1.4258316682277252
1.394479752020413
1.3734999596416106
1.346290694699578
1.451020279931897
1.783920815871895
1.5764448684964323
1.519540188721904
1.4059568435319207
1.385447481851575
1.3686010795295918
1.2801984235355996
1.1230341416743443
0.9739294395498544
0.9066076401100465
0.9502782276695497
1.0893473001995224
1.2724458529017986
1.3988355942316435
1.4351004426827043
1.4455967936745295
1.449890570768219
1.4608630591713319
1.4832828082011587
1.5109452788866575
1.537172111333548
1.5605336454421779
1.5786478968714417
1.5910389660755138
1.5986644841794067
1.6024770629505516
1.603430188698976
1.6024770629505516
1.5996176402082383
1.5948517848969201
1.5886558940388529
1.5796012072440482
1.5686377050846851
1.555289574455875
1.5400329240391186
1.5233440206397806
1.5139425607094545
1.4861720132609098
1.4090542667248778
1.3224469101191791
1.9928580963907385
1.8474606985874202
1.687540606609622
1.5478232700294712
1.4572423347330694
1.3755563776996933
1.1464900800595992
0.9178451536367329
0.8035773916259502
0.8322709047126104
0.9830458884844069
1.2111585535815068
1.3974039426470912
1.4689726908921055
1.4956838511538904
1.5061762509314542
1.5152372713337812
1.529542988530686
1.5490917686950136
1.5695910904949069
1.587702652308128
1.6020004972280002
1.6059528002047851
1.6030290561521452
1.5984350311166322
1.5923832357599803
1.5849885620749558
1.5766761453553226
1.5661291434158047
1.554704296562375
1.5410200595950667
1.5256757101952791
1.511163801654899
1.4937122408611225
1.473986674168694
1.4556916262616082
1.4443248129566935
1.4400402315593441
1.4299961939767514
1.39994084605112
-1.704697095206948
-0.8336197640379822
-0.3107933210148655
-0.13862444619025474
0.04176567172718761
0.2781933880939688
0.5754800015857504
0.8922397636685595
1.2059592829456292
1.4121971571363807
1.486977136777484
1.5013166091947658
1.5109366932495718
1.5210500583995046
1.5336741267289165
1.5486798215685438
1.5634893381669785
1.5743513731016223
1.5805169872368066
1.581692729002122
1.5796681573835307
1.5755424564627125
1.5691752533457661
1.5617750661013696
1.553736527757588
1.5452318041425748
1.536661230087058
1.5290845282383012
1.5229830618268712
1.518476074951611
1.5153549478793822
1.512672043073291
1.5100233460457029
1.5106467330600477
1.5204416462928214
1.5578324890949666
1.6280769456003452
1.476655798509652
-1.7124027968713245
-0.6406547867678467
-0.050556336103489606
0.2626578939904198
0.516621733212822
0.8118305612960883
1.1352705862254031
1.3415616442892484
1.4081335082590387
1.4585517328458317
1.4866604712871125
1.5033499094805847
1.5150565345691378
1.5251898089396594
1.5352942153411986
1.54417914226419
1.5520351652471571
1.5573402620098151
1.5606653142952165
1.5613423110128348
1.5605131041271432
1.5587008272362484
1.555502814635593
1.5520081473124945
1.548844586471563
1.545684694636993
1.54274492015146
1.5409878420541032
1.540360546628412
1.5426992358693585
1.5485717106637717
1.5595791553086622
1.5711230793134232
1.5804755657410585
1.591352405773173
1.6272244041500905
1.5737829397322831
1.5182710179821655
-1.1212062441814796
-1.122602180702337
-0.9982666186011723
-0.17658290261764878
0.4314273686990978
0.8710627308309719
1.1607747448737435
1.2979813571403152
1.3833945913769232
1.4346666967032111
1.4678186005873781
1.4910862884971718
1.505902440121907
1.5155301165494293
1.5223843515251116
1.52705993617146
1.529838587860489
1.5304319314919093
1.5294568441419234
1.5266639461580487
1.5230325143806749
1.5195132413901777
1.5160640477060117
1.5132770638729909
1.5112191114392477
1.5100119828953518
1.5093527580568336
1.5105999577873144
1.5137386713320222
1.5189717103434248
1.5278425709454122
1.5411387852825573
1.5634650879167753
1.6031887607009703
1.6529818776883412
1.6586979558007025
1.629728235096417
1.5742889591745415
1.5258527410909488
1.5388617593648952
)
;

boundaryField
{
    ".*"
    {
        type            zeroGradient;
    }
}


// ************************************************************************* //
