/*--------------------------------*- C++ -*----------------------------------*=========                 |
  \      /  F ield         | OpenFOAM: The Open Source CFD Toolbox
   \    /   O peration     | Website:  https://openfoam.org
    \  /    A nd           | Version:  6
     \/     M anipulation  |
\*---------------------------------------------------------------------------*/
FoamFile
{
    version     2.0;
    format      ascii;
    class       volScalarField;
    location    "350";
    object      PPD;
}
// * * * * * * * * * * * * * * * * * * * * * * * * * * * * * * * * * * * * * //

dimensions      [0 0 0 0 0 0 0];

internalField   nonuniform List<scalar> 
458
(
41.57238664624128
29.547964757682067
28.057878609255084
26.814336129571032
26.050012223092097
25.720966455554063
25.881841507786902
26.558402184262775
27.923972808334085
30.201407307303924
33.68298614142306
36.69012056288671
37.452423461837554
37.859874768218425
38.462098763171404
45.03718748732947
44.30302400157778
44.101032392028394
44.479960321037275
44.809025066248914
45.03718748732947
44.72491047852352
44.532436098677366
44.59620286888423
44.71084905890547
44.88360597506074
45.09631209677677
45.34311325944441
45.72660050566978
46.34396601473045
47.05111049988532
47.3329684366528
48.154653453445604
38.08785033645207
30.148287420858296
29.565129366921937
28.31474328805197
27.601755028126533
27.271545059495935
27.35037301403213
27.729883023185266
28.399461301994265
29.547855124692802
31.480933226047654
34.53828324256516
37.40459970833981
37.88389497078211
37.45971755357658
35.624044080805646
35.91579270015775
37.27703260221961
42.84981343223493
43.52166149122132
43.52166149122132
44.00012646621767
44.092303856638075
44.13532916736025
44.162304340202375
44.29223601953503
44.35247743397904
44.415453841463204
44.48764163925772
44.57881050913621
44.686882606799195
44.900998032759105
45.405290114803044
46.00352036209142
46.43729599101737
45.76084048023907
39.60255503367788
29.777092038979774
31.107518345895386
30.457551492671627
30.17622833688543
30.04383474941774
30.059245980019625
29.81432114060449
29.11883473287962
28.585772031791706
29.227268280436036
31.718731183885424
36.35503440864377
38.269000102861256
38.558782973777475
38.3127693158262
38.15677604812398
37.663632978995054
38.07306686900674
40.996013139574856
41.41406294306036
41.97857330106486
42.65779759928285
42.92502210627228
44.153208694502965
45.087928161714366
45.13868246616861
45.18945032810742
45.26562738230968
45.31642881982666
45.392655895930716
45.46891265676693
45.66868802510045
45.90158307135871
45.599305545778826
41.93007014395271
43.413607923678256
29.545918359118403
32.25169774588785
32.87161418758534
33.78108907069122
34.36438129537335
34.44234758726401
32.941383545964044
30.01695510810339
27.64175043956145
27.427974206556456
29.87553957825753
34.32854340159005
38.730936838518765
39.335430961979945
39.38415559705485
37.44249129186641
36.21793692441578
34.061121575433134
37.212881878323266
39.160996132057335
40.71565639331926
42.506005871951174
44.53424118244161
46.08669005822255
45.91884277648924
45.78149372168335
45.86142910771896
46.06418311416977
46.33826322675244
46.83940323773913
47.63185109686781
48.97131985401582
48.77404077365627
47.74349926211556
44.65608582225495
39.684274585682786
48.39247558233241
29.940188344212828
33.12000971738361
35.08660953958271
38.00817544840668
40.48175094638574
40.64005195257418
36.20399476678326
30.67162012672155
26.834294008506916
26.13859107136868
28.703932685169832
33.295860738530564
38.31088951295498
40.46137698153133
40.51057583357027
39.26391209190003
37.87077089155979
37.92820476075307
38.88239412839722
40.67219224257922
42.997039552364484
45.4263633126025
47.83004312144449
49.72719031823815
50.38825702121671
50.62053256866495
50.77981395497064
50.83371716046459
50.78058342138833
50.74034428571668
50.75050070503086
50.70656182071968
49.76815027477124
48.12893014350745
44.01053860094383
43.826824565402205
44.12352051482991
48.697460806630495
42.295064893681904
53.650923154108256
31.359086784271838
34.69284348143526
36.72782709333806
41.32802618346488
45.03718748732947
45.27029776304298
37.188838370861866
30.334621728671408
25.98414290592939
25.27565975846983
28.087394505592997
33.31612423990359
39.24591094737265
42.09507685595953
42.319407113678544
42.169813906636975
42.21966071956566
42.485994789908425
43.77718697517684
45.819077859007095
48.051808623285034
49.7530278449429
51.1504713835809
52.239721225447816
52.99258219280124
53.512004040392426
53.84967264285107
54.005523698728055
53.97954850503314
53.74577271342223
53.35616600030382
52.58784640150353
50.837706465149054
48.69154509727679
44.756988435729305
44.27587237428771
44.05437904361534
45.39361529803404
45.861233523211645
58.69127934709488
35.51557675432777
40.75761683110068
39.86991045082187
42.98632633996832
46.83114899962345
42.14736119233906
35.53795416850086
28.760714680887048
24.659358352819964
24.530715144046027
28.296877312566522
34.79246074155806
42.20895875179653
44.40410855057575
44.85970350955411
44.85970350955411
45.18945032810742
46.25857771282106
47.84623090941081
49.54637523843257
51.20230141871195
52.655036847139634
53.77174759025912
54.5509824346822
55.07037003368031
55.355885056576874
55.45972022736333
55.45972022736333
55.278079159725294
54.91456888467767
54.39514358156933
53.74577271342223
52.86304876509569
50.344540516323526
46.88660556829245
45.2116015386236
44.09883337888566
42.66674220902883
48.24127640819466
66.1761414037662
55.05422478453854
51.954893452386635
45.82319614094145
44.731674082703094
43.84003114233761
39.24938617859244
31.57257184238739
25.032885773983296
22.35518587856933
24.071736198577042
30.025909666526516
38.85492989262852
45.44349045341486
47.38424935512706
47.949000902329594
48.18037038665966
48.77246691741745
49.98563955145081
51.48744342008511
52.91468039711247
54.18734897198814
55.17422855803055
55.84900923475334
56.264058206992694
56.47149473424778
56.523343772268795
56.47149473424778
56.31592322301081
56.056561207616504
55.71926377585462
55.22615489187697
54.62889876683205
53.901622924264764
53.070487517141224
52.161868035329434
51.650419442803894
50.14226787341617
45.98857570931583
41.42322918293832
76.42690853961734
69.43341112376608
61.07408640112
53.49484531884256
48.57695586237023
44.20759194048736
32.67168621180372
22.789599604162802
18.614087553719273
19.611607694734133
25.409169419199344
35.79040627497652
45.367243560080134
49.21080589102304
50.65832205883886
51.228218098725
51.72083134761367
52.49927537515525
53.563951626260305
54.68084164762852
55.66736048025933
56.44556866352125
56.66055264052424
56.501523041377645
56.25157224548203
55.92219016165824
55.519567492844416
55.06682330817914
54.492222762738024
53.86973437204383
53.12425330588175
52.28876608391441
51.49932410280732
50.551306171232966
49.48210569048448
48.493259478620914
47.88049789778786
47.649879585702514
47.110072806431965
45.50237454226114
61.993366529585614
19.659351109364323
7.007687380097238
5.398134701127788
5.036112177259284
6.607352300156734
11.938172970309395
21.807208942181205
35.53509998650959
46.156518436900605
50.18592542531552
50.96418862681388
51.4869766393295
52.037042158791245
52.724196604143074
53.54150902749145
54.348392543765826
54.94018060611989
55.276035391274895
55.34007304757863
55.22980157025914
55.005066221711694
54.65818586560319
54.25498902113794
53.817006449721596
53.35367172466739
52.88685838744556
52.47431736366379
52.14222519959249
51.89700270997441
51.727231464890316
51.581330513051384
51.43732212048503
51.4712123958628
52.003938730546196
54.04017408128584
57.86253714864242
49.626612547116345
62.40491925320993
13.616306382533281
5.052915348843371
6.432349616678067
10.580975939422629
18.897455708400244
32.143734114840925
42.419223417423346
45.93940002834814
48.647646073329334
50.168753805064746
51.07464441101893
51.71100166805362
52.262320232475055
52.81241531880734
53.29632930802432
53.72431097596175
54.01335481318462
54.19452308371375
54.231409935552215
54.18622975750677
54.087486125534426
53.913241246381176
53.72283897380024
53.55048528398686
53.37834287151181
53.218204735615465
53.12249850059954
53.08833175312288
53.21571629013412
53.535619251276685
54.13534262433168
54.764306642992764
55.27377928890188
55.86607311886087
57.816272469589194
54.90921388009237
51.88584756238134
31.487672132040828
31.552498759410128
26.044518236016856
5.646358526593389
8.881698746461723
21.014903029316386
33.34965393243188
40.15952944158567
44.6227716721208
47.36093862971797
49.148389805751535
50.40881199722827
51.213338315899314
51.73675853813562
52.10964532270913
52.36410880517696
52.51536777017529
52.54767010893057
52.494585733032004
52.34255462799136
52.144916305542104
51.953427387382874
51.76579879754821
51.614229768941996
51.502331230230425
51.4367043830436
51.40086786845244
51.468669405632276
51.63933174109762
51.92396609027982
52.406709965523966
53.1307200007946
54.34707125339097
56.5102106987579
59.211669685581384
59.52057688672903
57.95213357810948
54.93678048334702
52.29840143363751
53.006700826884554
)
;

boundaryField
{
    ".*"
    {
        type            zeroGradient;
    }
}


// ************************************************************************* //
