/*--------------------------------*- C++ -*----------------------------------*\
  =========                 |
  \\      /  F ield         | OpenFOAM: The Open Source CFD Toolbox
   \\    /   O peration     | Website:  https://openfoam.org
    \\  /    A nd           | Version:  6
     \\/     M anipulation  |
\*---------------------------------------------------------------------------*/
FoamFile
{
    version     2.0;
    format      ascii;
    class       volScalarField;
    location    "4100";
    object      alphat;
}
// * * * * * * * * * * * * * * * * * * * * * * * * * * * * * * * * * * * * * //

dimensions      [1 -1 -1 0 0 0 0];

internalField   nonuniform List<scalar> 
778
(
0.001041
0.00111058
0.0011066
0.00115465
0.00119868
0.00123867
0.00127588
0.00131176
0.00134787
0.00138624
0.00142283
0.00145759
0.00149184
0.00152869
0.00156715
0.000736698
0.0010555
0.00106396
0.00103813
0.000994997
0.000937425
0.000880101
0.000827317
0.000779723
0.000737031
0.000698973
0.000664784
0.000633638
0.000604568
0.00057628
0.000546704
0.00052215
0.000472617
0.00152468
0.00300742
0.00263937
0.00304647
0.00334195
0.0036552
0.00396764
0.00425552
0.00448719
0.00462199
0.00470124
0.00466859
0.00443584
0.00385922
0.00281871
0.00171597
0.0016361
0.00156617
0.00131906
0.0022466
0.00311363
0.00362539
0.00364903
0.00287985
0.00246297
0.00217388
0.00195451
0.00178014
0.0016315
0.00150005
0.0013777
0.00125797
0.00115052
0.00105786
0.00119176
0.000599275
0.00193416
0.00419897
0.0031135
0.00445331
0.0049761
0.00541849
0.00582021
0.00617366
0.00647298
0.00670754
0.00693491
0.00717429
0.00739451
0.00752606
0.00744029
0.00681377
0.00498445
0.00192137
0.00166376
0.00355913
0.00496729
0.0056334
0.00512361
0.00135186
0.00117541
0.00103927
0.000932765
0.000848044
0.000779688
0.000723951
0.000678618
0.000643269
0.00070718
0.000831924
0.00131784
0.000681866
0.00232912
0.00565868
0.00297921
0.00500687
0.00578062
0.00619457
0.00649883
0.0067238
0.00689156
0.00702742
0.00722089
0.00754804
0.00802577
0.00862706
0.00923237
0.00953224
0.00895437
0.00668643
0.00191353
0.00442675
0.00658982
0.0076906
0.00796294
0.00679883
0.00153929
0.00140008
0.0012923
0.00120262
0.00112621
0.00105761
0.000992961
0.000928765
0.000859428
0.000802862
0.00083231
0.00142728
0.000750868
0.00271839
0.00749086
0.00300574
0.00475935
0.00594881
0.00630159
0.00642944
0.00643406
0.0063698
0.00631285
0.00639362
0.00671126
0.00729459
0.00812131
0.00908094
0.00996601
0.010528
0.0105226
0.00944372
0.00960849
0.0098302
0.00986265
0.00966306
0.00904518
0.00719876
0.00621833
0.00554666
0.00500136
0.00446612
0.00394744
0.00343996
0.00293328
0.00241304
0.00185348
0.00141419
0.00141341
0.0011182
0.000895734
0.00118939
0.001138
0.00310135
0.00954112
0.00353866
0.00401325
0.00569937
0.00609066
0.00605891
0.00584034
0.00552813
0.0052707
0.00526476
0.00559747
0.00626189
0.00722019
0.00834237
0.00946473
0.0104194
0.0110298
0.0111417
0.0110308
0.0108362
0.0105597
0.0102036
0.00974994
0.00908754
0.00844918
0.0078695
0.00730943
0.00670426
0.00605788
0.00536758
0.0046277
0.00383365
0.00299122
0.0022282
0.00167291
0.00129938
0.0014611
0.0025489
0.0013597
0.00349214
0.0114363
0.0047156
0.0032878
0.00512084
0.00576089
0.00568926
0.00533575
0.00482334
0.00437293
0.00435999
0.0047802
0.00554072
0.0066122
0.00783126
0.00903884
0.0100783
0.0108229
0.0111658
0.0111402
0.0108965
0.0105268
0.010103
0.00967988
0.00927049
0.00889469
0.00854153
0.00816467
0.00770908
0.00716066
0.00651163
0.00575909
0.00490597
0.00397356
0.00306125
0.00221172
0.00162897
0.00145742
0.00259895
0.00160529
0.0038279
0.0128689
0.00642851
0.00313077
0.0040563
0.00510715
0.00525321
0.00496259
0.0043573
0.0037448
0.00388364
0.00443964
0.00529072
0.0063951
0.00766209
0.00892618
0.010004
0.0107525
0.0110926
0.0110486
0.0107333
0.0102679
0.00976704
0.0093226
0.00897994
0.00873512
0.00854408
0.00833632
0.00804668
0.00764132
0.00710466
0.00643374
0.00563489
0.00473109
0.00378948
0.00283784
0.0019785
0.00134005
0.0037454
0.00211042
0.00392905
0.0121727
0.00795115
0.00404787
0.00274935
0.00336911
0.00394366
0.00399204
0.00352466
0.00342524
0.00378091
0.0044351
0.00535645
0.00652911
0.00785816
0.00916134
0.0102345
0.0109238
0.0111651
0.010998
0.0105403
0.00993996
0.0093441
0.00886849
0.00856665
0.00841867
0.00835166
0.0082719
0.00810509
0.00781196
0.00737718
0.00679929
0.00608543
0.00525368
0.00433846
0.00330803
0.00189199
0.00173829
0.00580133
0.00241615
0.00384948
0.00980964
0.00820766
0.00555406
0.00366851
0.00283993
0.00268968
0.00281657
0.00305287
0.00342921
0.00396404
0.00470132
0.00570531
0.00697192
0.0083748
0.00969629
0.0107117
0.0112682
0.0113236
0.0109462
0.0102845
0.00952327
0.00884335
0.0083772
0.00816377
0.00813947
0.00818637
0.00818587
0.00807763
0.00784
0.00746597
0.00695519
0.0063112
0.00553877
0.00461715
0.00326485
0.00139979
0.00342753
0.00535548
0.00244258
0.00360571
0.00838288
0.00793342
0.00635327
0.00489046
0.00393702
0.00346511
0.00335805
0.00355292
0.00391248
0.00443627
0.00521646
0.00632803
0.0077194
0.00919485
0.0104871
0.0113585
0.0116773
0.0114427
0.0107712
0.00986255
0.00895275
0.00826013
0.00791228
0.00787319
0.00798914
0.00810529
0.00810778
0.00799327
0.0077632
0.0074136
0.00693888
0.00633119
0.00556888
0.00456633
0.00300481
0.0014755
0.00368857
0.00559749
0.00243981
0.00328293
0.00755848
0.00765198
0.00672353
0.00572062
0.004965
0.00451972
0.00435999
0.00439962
0.00461725
0.00509993
0.00597449
0.00726305
0.00880645
0.0103128
0.0114712
0.0120584
0.0119964
0.0113549
0.0103214
0.00917182
0.00820963
0.00766276
0.00755499
0.00765574
0.00781074
0.00791044
0.00788159
0.00774782
0.00751517
0.00717655
0.00671132
0.00608586
0.00523061
0.00403129
0.00254501
0.00175344
0.00373998
0.00599845
0.00253394
0.0029935
0.00676248
0.00730701
0.00686844
0.00622493
0.00568395
0.00532387
0.00514765
0.00509572
0.00528312
0.00589852
0.00704473
0.00860689
0.0102778
0.0116818
0.0125105
0.0126099
0.0119994
0.0108543
0.00945707
0.00819174
0.00737797
0.00702392
0.00699341
0.00711138
0.00725399
0.00733557
0.007304
0.00716475
0.00692707
0.00657762
0.00607369
0.00532076
0.00420254
0.00284702
0.00197358
0.00215636
0.00419194
0.00598912
0.00265198
0.00300438
0.00671274
0.00746622
0.00695114
0.00643018
0.00600343
0.0056956
0.00549639
0.00549003
0.00594535
0.00703285
0.00865934
0.0104916
0.0121002
0.0131099
0.0133074
0.0126817
0.0113869
0.00974961
0.00816168
0.00700842
0.00633743
0.00604229
0.0059984
0.00608563
0.00619754
0.00625626
0.0062196
0.00606143
0.00579843
0.0054036
0.00479193
0.00383653
0.00266033
0.00191532
0.00198126
0.00276704
0.00465952
0.00632783
0.00260315
0.00271025
0.00282062
0.00416516
0.0048969
0.00512415
0.00512893
0.00508077
0.00517795
0.00581037
0.00716075
0.00906539
0.0111215
0.0128724
0.0139382
0.0141025
0.0133363
0.0118345
0.00988843
0.00803394
0.00658421
0.00562418
0.00509466
0.00487608
0.00483133
0.00485314
0.00486586
0.00482344
0.00470844
0.00449865
0.0042075
0.00382793
0.00330619
0.00261994
0.00201598
0.00191057
0.00240465
0.00336551
0.00461575
0.00544167
0.00244283
0.000963812
0.0017369
0.00266414
0.00340881
0.00427548
0.00574587
0.00791145
0.0103199
0.0125149
0.014151
0.014989
0.0148756
0.0138248
0.011962
0.00976391
0.00769572
0.00606818
0.00499838
0.00443215
0.0041769
0.00406454
0.00399671
0.00391914
0.00380305
0.00364222
0.00345051
0.00325121
0.0030467
0.00284443
0.0026276
0.00238419
0.00219355
0.00227645
0.0028088
0.00372728
0.00472941
0.00523266
0.00233981
0.00178757
0.00246816
0.00359014
0.00559459
0.00831368
0.0110367
0.0131437
0.0146667
0.0155894
0.0158379
0.0152846
0.0138093
0.0116479
0.00922575
0.00702593
0.00540789
0.00448714
0.00407251
0.00390787
0.00383816
0.00379084
0.0037319
0.00364766
0.00353996
0.00342206
0.00331038
0.00321493
0.0031334
0.00306173
0.00299707
0.00294257
0.00292832
0.00304496
0.00345016
0.0042646
0.00543248
0.00637056
0.00248883
0.00323846
0.00787546
0.00726821
0.00649365
0.00823128
0.0109546
0.0132473
0.0147953
0.0156167
0.0158242
0.0155076
0.0146022
0.0130515
0.0109079
0.00849683
0.00636961
0.00498327
0.00432511
0.00408765
0.00402664
0.00402285
0.00402301
0.00400383
0.00395911
0.0038942
0.00382049
0.00375004
0.00369229
0.00365425
0.00364182
0.0036588
0.00370712
0.00379392
0.00393588
0.00419328
0.00465353
0.0054677
0.00704972
0.00724578
0.00265632
0.0030952
0.00597976
0.00771552
0.00987781
0.0109577
0.012066
0.0127069
0.0128576
0.0126108
0.0120275
0.0111211
0.0098807
0.0083378
0.00668401
0.005256
0.00433917
0.00389411
0.00373701
0.00372393
0.00377335
0.00383853
0.00389173
0.00391928
0.00391913
0.0038969
0.00386097
0.00381958
0.00378219
0.0037634
0.00378535
0.00387514
0.00405736
0.00434017
0.00470959
0.00512852
0.00567712
0.00647349
0.0078039
0.00776044
0.00275452
0.00289456
0.0024812
0.00246895
0.00254122
0.00260091
0.00252378
0.00237412
0.00219947
0.00202316
0.00185259
0.0016888
0.00153473
0.00140087
0.00130305
0.00124959
0.00122904
0.00122903
0.00123944
0.00125434
0.0012706
0.00128671
0.00130222
0.00131752
0.00133372
0.00135251
0.00137613
0.00140739
0.00144956
0.00150585
0.00157823
0.00166611
0.00176637
0.00187514
0.00199089
0.00211519
0.00224382
0.0023761
0.0025166
0.00265962
0.00253576
)
;

boundaryField
{
    floor
    {
        type            compressible::alphatWallFunction;
        Prt             0.85;
        value           nonuniform List<scalar> 
36
(
0.000219859
0.000104464
0.000149954
0.000151136
0.000147521
0.000141459
0.000133321
0.000125159
0.000117589
0.000110713
0.000104504
9.89315e-05
9.38946e-05
8.92786e-05
8.49454e-05
8.07042e-05
7.62424e-05
7.25159e-05
6.49309e-05
6.493e-05
8.41547e-05
9.64158e-05
0.000106521
0.000127394
0.000168578
0.000161462
0.000219856
0.000239667
0.000229057
0.000219723
0.000104463
0.000219721
0.000186344
0.000266698
0.000232731
0.000265672
)
;
    }
    ceiling
    {
        type            compressible::alphatWallFunction;
        Prt             0.85;
        value           nonuniform List<scalar> 
43
(
0.000391157
0.000338971
0.000337416
0.000346615
0.0003542
0.000344448
0.000325402
0.000303002
0.000280191
0.000257914
0.000236309
0.00021577
0.000197724
0.000184401
0.000177066
0.000174229
0.00017422
0.000175651
0.000177701
0.000179939
0.000182153
0.000184281
0.000186375
0.000188582
0.00019113
0.000194318
0.000198519
0.000204168
0.000211688
0.000221333
0.000233016
0.000246301
0.000260651
0.000275832
0.000292046
0.000308732
0.000325772
0.000343743
0.000361886
0.00034606
0.000368317
0.00038219
0.000248641
)
;
    }
    sWall
    {
        type            compressible::alphatWallFunction;
        Prt             0.85;
        value           nonuniform List<scalar> 9(0.000507606 0.000477867 0.000438177 0.00040225 0.000403598 0.000366742 0.000432041 0.000414327 0.000389406);
    }
    nWall
    {
        type            compressible::alphatWallFunction;
        Prt             0.85;
        value           nonuniform List<scalar> 
14
(
0.000161013
0.000191423
0.000224482
0.000333557
0.000333291
0.000345528
0.000360294
0.000353557
0.000333221
0.000320281
0.0003399
0.000360611
0.000372919
0.000345365
)
;
    }
    sideWalls
    {
        type            empty;
    }
    glass1
    {
        type            compressible::alphatWallFunction;
        Prt             0.85;
        value           nonuniform List<scalar> 9(0.00014393 0.000209137 0.000262693 0.000313302 0.000362376 0.00041 0.000458013 0.000498872 0.000511229);
    }
    glass2
    {
        type            compressible::alphatWallFunction;
        Prt             0.85;
        value           nonuniform List<scalar> 2(0.000288657 0.000327798);
    }
    sun
    {
        type            compressible::alphatWallFunction;
        Prt             0.85;
        value           nonuniform List<scalar> 
14
(
0.000147964
0.000157652
0.000157097
0.000163767
0.000169851
0.000175353
0.000180457
0.000185361
0.000190282
0.000195495
0.00020045
0.000205144
0.000209757
0.000214707
)
;
    }
    Table_master
    {
        type            compressible::alphatWallFunction;
        Prt             0.85;
        value           nonuniform List<scalar> 9(0.000191079 0.000166885 0.000147934 0.000132908 0.000120812 0.000110947 0.000102827 9.61668e-05 9.0936e-05);
    }
    Table_slave
    {
        type            compressible::alphatWallFunction;
        Prt             0.85;
        value           nonuniform List<scalar> 9(0.000216397 0.000197632 0.000182959 0.000170646 0.000160071 0.000150507 0.000141428 0.000132343 0.000122448);
    }
    inlet
    {
        type            fixedValue;
        value           uniform 1.94e-05;
    }
    outlet
    {
        type            zeroGradient;
    }
}


// ************************************************************************* //
