/*--------------------------------*- C++ -*----------------------------------*\
  =========                 |
  \\      /  F ield         | OpenFOAM: The Open Source CFD Toolbox
   \\    /   O peration     | Website:  https://openfoam.org
    \\  /    A nd           | Version:  6
     \\/     M anipulation  |
\*---------------------------------------------------------------------------*/
FoamFile
{
    version     2.0;
    format      ascii;
    class       volVectorField;
    location    "4100";
    object      U;
}
// * * * * * * * * * * * * * * * * * * * * * * * * * * * * * * * * * * * * * //

dimensions      [0 1 -1 0 0 0 0];

internalField   nonuniform List<vector> 
778
(
(0.0709364 0.0786125 0)
(-0.154144 0.0142744 0)
(0.26757 0.167479 0)
(-0.162357 0.0145352 0)
(-0.164908 0.0470905 0)
(0.443293 0.255332 0)
(-0.1917 0.0122162 0)
(-0.143899 0.0481429 0)
(-0.201127 0.0840844 0)
(0.595994 0.328738 0)
(-0.217683 0.00863205 0)
(-0.178723 0.0443131 0)
(-0.114719 0.0823489 0)
(-0.250047 0.121884 0)
(0.726768 0.387963 0)
(-0.239522 0.00453831 0)
(-0.206287 0.0388958 0)
(-0.15325 0.0712873 0)
(-0.0806002 0.114613 0)
(-0.300646 0.157699 0)
(0.834333 0.437367 0)
(-0.256551 5.15424e-05 0)
(-0.22929 0.032773 0)
(-0.177399 0.0601703 0)
(-0.125146 0.0957055 0)
(-0.0448063 0.139755 0)
(-0.346839 0.191897 0)
(0.905452 0.481046 0)
(-0.268289 -0.0049192 0)
(-0.247604 0.0260112 0)
(-0.197157 0.0485072 0)
(-0.143346 0.0802784 0)
(-0.0984101 0.113438 0)
(-0.0118009 0.155827 0)
(-0.385738 0.222737 0)
(0.949424 0.524144 0)
(-0.274256 -0.0105659 0)
(-0.261092 0.0184072 0)
(-0.21257 0.0360442 0)
(-0.158334 0.0649863 0)
(-0.109474 0.0944786 0)
(-0.0744843 0.123967 0)
(0.0111561 0.160063 0)
(-0.401418 0.235783 0)
(1.03072 0.516024 0)
(-0.273517 -0.0171798 0)
(-0.26949 0.00962404 0)
(-0.223785 0.0225234 0)
(-0.16993 0.0491466 0)
(-0.118802 0.0760872 0)
(-0.0782088 0.102458 0)
(-0.0532719 0.127564 0)
(0.0236854 0.135382 0)
(-0.15402 0.298809 0)
(0.796902 0.406539 0)
(-0.263673 -0.0255597 0)
(-0.272102 -0.000775634 0)
(-0.230735 0.00772656 0)
(-0.178362 0.0322586 0)
(-0.125754 0.0573372 0)
(-0.0817452 0.0818524 0)
(-0.0504276 0.10451 0)
(-0.0283557 0.12226 0)
(0.0420312 0.160891 0)
(-0.00623545 0.324238 0)
(0.630852 0.230062 0)
(-0.239918 -0.0368838 0)
(-0.267903 -0.0129642 0)
(-0.232993 -0.00840585 0)
(-0.183583 0.0138081 0)
(-0.130531 0.0375902 0)
(-0.0837734 0.0611666 0)
(-0.0490319 0.0824584 0)
(-0.0243733 0.101221 0)
(0.0388562 0.125128 0)
(0.0932824 0.219789 0)
(0.00294379 0.303564 0)
(0.578593 0.12309 0)
(-0.19922 -0.0539532 0)
(-0.25593 -0.0275396 0)
(-0.229645 -0.026097 0)
(-0.185158 -0.00661412 0)
(-0.133148 0.0161659 0)
(-0.0844685 0.0397267 0)
(-0.0467566 0.0605666 0)
(-0.02017 0.0788169 0)
(0.0135742 0.0968321 0)
(0.110104 0.156901 0)
(0.114612 0.243677 0)
(-0.0179876 0.263835 0)
(0.632138 0.0542143 0)
(-0.157247 -0.0818246 0)
(-0.237531 -0.0469243 0)
(-0.220813 -0.0462415 0)
(-0.182343 -0.0292246 0)
(-0.133198 -0.00749481 0)
(-0.0839024 0.0167014 0)
(-0.0439065 0.0382165 0)
(-0.0148206 0.0564983 0)
(0.0104984 0.0711387 0)
(0.0766753 0.109923 0)
(0.149968 0.179654 0)
(0.117039 0.232944 0)
(0.0134416 0.200987 0)
(0.479851 0.0731837 0)
(-0.169154 -0.120017 0)
(-0.223144 -0.0729353 0)
(-0.207885 -0.0699445 0)
(-0.175547 -0.0544098 0)
(-0.130402 -0.0335359 0)
(-0.0814472 -0.00887044 0)
(-0.040548 0.0145653 0)
(-0.00939025 0.0338203 0)
(0.0164097 0.0479115 0)
(0.0600129 0.0720523 0)
(0.131807 0.12649 0)
(0.168854 0.178836 0)
(0.118372 0.200034 0)
(-0.131527 0.140714 0)
(0.731609 0.130992 0)
(-0.221821 -0.0898219 0)
(-0.194444 -0.0955495 0)
(-0.165331 -0.0821472 0)
(-0.124725 -0.0623072 0)
(-0.0778634 -0.0371751 0)
(-0.0346531 -0.0119675 0)
(-0.0041562 0.00938039 0)
(0.0232203 0.024586 0)
(0.0590152 0.0418092 0)
(0.118548 0.0819921 0)
(0.169981 0.129638 0)
(0.180541 0.160868 0)
(0.0975638 0.137176 0)
(0.0770383 0.11359 0)
(-0.190646 -0.0503539 0)
(-0.177893 -0.111225 0)
(-0.152297 -0.109074 0)
(-0.115936 -0.0935364 0)
(-0.0720336 -0.0685698 0)
(-0.0291611 -0.0416509 0)
(0.00631358 -0.0203147 0)
(0.0326696 -0.00178796 0)
(0.0633412 0.0143358 0)
(0.115724 0.0445231 0)
(0.167263 0.0856258 0)
(0.196808 0.121251 0)
(0.178113 0.120306 0)
(0.147761 0.0991203 0)
(-0.120817 -0.0493936 0)
(-0.145119 -0.102917 0)
(-0.13409 -0.127543 0)
(-0.103492 -0.123813 0)
(-0.0635325 -0.102964 0)
(-0.0215824 -0.0750216 0)
(0.0145787 -0.0506829 0)
(0.044195 -0.0309079 0)
(0.0741314 -0.014071 0)
(0.117881 0.0108353 0)
(0.168196 0.0458214 0)
(0.203351 0.0819069 0)
(0.210163 0.0990591 0)
(0.225664 0.0825522 0)
(0.211936 0.0779038 0)
(-0.111255 -0.0608588 0)
(-0.100284 -0.111578 0)
(-0.107717 -0.135265 0)
(-0.0863855 -0.147273 0)
(-0.05178 -0.137113 0)
(-0.0119377 -0.112003 0)
(0.0247208 -0.0851849 0)
(0.0552284 -0.0619038 0)
(0.0853567 -0.0433036 0)
(0.124475 -0.0212796 0)
(0.171012 0.00910193 0)
(0.208731 0.0431999 0)
(0.224898 0.0690317 0)
(0.250375 0.0733032 0)
(0.242967 0.0910707 0)
(0.36144 0.203516 0)
(-0.0939548 -0.130549 0)
(-0.0797132 -0.143631 0)
(-0.0648391 -0.161564 0)
(-0.0368709 -0.165 0)
(-0.000380134 -0.149264 0)
(0.0360298 -0.123122 0)
(0.0673432 -0.0967365 0)
(0.0971165 -0.0747679 0)
(0.132568 -0.0530099 0)
(0.175184 -0.0257822 0)
(0.213562 0.00614492 0)
(0.235066 0.0342825 0)
(0.256949 0.05234 0)
(0.264249 0.0668684 0)
(0.181981 0.17487 0)
(-0.241729 -0.014823 0)
(-0.0637579 -0.140208 0)
(-0.0426344 -0.168655 0)
(-0.0199078 -0.182338 0)
(0.0121212 -0.179612 0)
(0.0472848 -0.16005 0)
(0.0797001 -0.134314 0)
(0.109717 -0.10957 0)
(0.142458 -0.0861066 0)
(0.180799 -0.0600421 0)
(0.218326 -0.0300591 0)
(0.24421 -0.00159789 0)
(0.264615 0.0230615 0)
(0.264022 0.0386381 0)
(0.149581 0.116768 0)
(-0.109287 0.0920396 0)
(-0.368308 -0.541277 0)
(-0.348344 -0.10566 0)
(-0.021369 -0.0651189 0)
(-0.0225663 -0.162393 0)
(-0.00263841 -0.188182 0)
(0.0244899 -0.197558 0)
(0.0573017 -0.189694 0)
(0.0905505 -0.169923 0)
(0.121693 -0.145758 0)
(0.153276 -0.120974 0)
(0.188239 -0.0947588 0)
(0.223767 -0.0658334 0)
(0.252386 -0.0373558 0)
(0.274641 -0.00979912 0)
(0.267789 0.0117517 0)
(0.144505 0.0647722 0)
(-0.0657554 0.0685502 0)
(-0.27451 0.0458034 0)
(0.438354 -0.395863 0)
(-0.387246 -0.290935 0)
(-0.344504 -0.255326 0)
(0.0406989 -0.101627 0)
(0.00988972 -0.128539 0)
(0.0139019 -0.179401 0)
(0.0361759 -0.202297 0)
(0.0655646 -0.207167 0)
(0.0983666 -0.19744 0)
(0.130699 -0.178305 0)
(0.162482 -0.154855 0)
(0.195573 -0.128931 0)
(0.229076 -0.100538 0)
(0.258266 -0.0715321 0)
(0.28052 -0.0417609 0)
(0.26925 -0.0133321 0)
(0.135729 0.0239586 0)
(-0.0481014 0.0374606 0)
(-0.224041 0.0840707 0)
(-0.342281 -0.175279 0)
(0.149808 -0.173223 0)
(-0.25377 -0.315742 0)
(0.0774568 -0.0908804 0)
(0.0538123 -0.0847275 0)
(0.0417987 -0.122355 0)
(0.0340397 -0.157141 0)
(0.0469184 -0.193742 0)
(0.0719108 -0.210787 0)
(0.102487 -0.212365 0)
(0.134872 -0.201627 0)
(0.16709 -0.18279 0)
(0.199344 -0.158977 0)
(0.231069 -0.131538 0)
(0.258911 -0.101806 0)
(0.277963 -0.0694103 0)
(0.259251 -0.0350864 0)
(0.120458 -0.00512079 0)
(-0.046377 0.01923 0)
(-0.196434 0.0803481 0)
(-0.327552 -0.133528 0)
(1.13718 0.00280634 0)
(0.0963075 -0.0547414 0)
(0.0504241 -0.0651575 0)
(0.070027 -0.0635894 0)
(0.0594645 -0.103206 0)
(0.0537315 -0.139478 0)
(0.0582523 -0.174528 0)
(0.0764701 -0.201387 0)
(0.103063 -0.213406 0)
(0.133589 -0.212151 0)
(0.165186 -0.200253 0)
(0.196464 -0.18058 0)
(0.22618 -0.155152 0)
(0.251026 -0.12525 0)
(0.264022 -0.0904223 0)
(0.236384 -0.051728 0)
(0.101797 -0.0197353 0)
(-0.0521938 0.00720566 0)
(-0.181892 0.0696564 0)
(-0.300171 -0.120774 0)
(0.0783593 -0.0147564 0)
(0.0523069 -0.0401896 0)
(0.0670672 -0.0459464 0)
(0.0864852 -0.0439521 0)
(0.0741964 -0.0803891 0)
(0.0676609 -0.117522 0)
(0.0688699 -0.15223 0)
(0.0799684 -0.181988 0)
(0.100744 -0.201943 0)
(0.127399 -0.209311 0)
(0.156538 -0.205009 0)
(0.185666 -0.190869 0)
(0.212444 -0.168624 0)
(0.232913 -0.139537 0)
(0.238447 -0.103565 0)
(0.202567 -0.0621675 0)
(0.0781041 -0.0249447 0)
(-0.0606255 -0.00127823 0)
(-0.176506 0.0604705 0)
(-0.275233 -0.122127 0)
(0.0372036 -0.0180813 0)
(0.0679395 -0.0290575 0)
(0.0839625 -0.0301812 0)
(0.100348 -0.0249322 0)
(0.0879779 -0.0585084 0)
(0.0786837 -0.0932606 0)
(0.0765479 -0.127199 0)
(0.0822928 -0.157444 0)
(0.0964498 -0.181132 0)
(0.117505 -0.194948 0)
(0.142288 -0.197484 0)
(0.167625 -0.189214 0)
(0.190237 -0.171154 0)
(0.205276 -0.144105 0)
(0.203397 -0.108542 0)
(0.162004 -0.0667009 0)
(0.0515839 -0.0267281 0)
(-0.0711601 -0.0070745 0)
(-0.176714 0.0557526 0)
(-0.256673 -0.128755 0)
(0.0597022 -0.0153856 0)
(0.0856672 -0.0191339 0)
(0.0933959 -0.0165716 0)
(0.115406 -0.0162527 0)
(0.100287 -0.0390218 0)
(0.0882633 -0.0697631 0)
(0.0820805 -0.101166 0)
(0.0828765 -0.130398 0)
(0.0907974 -0.154997 0)
(0.105306 -0.172299 0)
(0.124217 -0.179966 0)
(0.144291 -0.177046 0)
(0.161582 -0.163555 0)
(0.170724 -0.139921 0)
(0.162319 -0.10644 0)
(0.118328 -0.0659697 0)
(0.0228446 -0.0271482 0)
(-0.0845066 -0.0105714 0)
(-0.179585 0.0557654 0)
(-0.24401 -0.137018 0)
(0.0824709 -0.0113419 0)
(0.0954484 -0.0102046 0)
(0.0920045 -0.0128756 0)
(0.129285 -0.0109272 0)
(0.111746 -0.0239417 0)
(0.0966111 -0.0487741 0)
(0.0863965 -0.0763445 0)
(0.082168 -0.103099 0)
(0.0841537 -0.126763 0)
(0.0919764 -0.145042 0)
(0.10421 -0.155703 0)
(0.117964 -0.156935 0)
(0.12925 -0.14791 0)
(0.13235 -0.128385 0)
(0.118873 -0.0988737 0)
(0.0747497 -0.0615229 0)
(-0.00932682 -0.0255826 0)
(-0.0990664 -0.0126826 0)
(-0.183052 0.0592541 0)
(-0.235172 -0.146329 0)
(0.0957543 -0.00764591 0)
(0.0987501 -0.00332358 0)
(0.0880324 -0.0082913 0)
(0.136905 -0.00706612 0)
(0.120752 -0.0131389 0)
(0.10364 -0.0315212 0)
(0.0899132 -0.0542738 0)
(0.0808904 -0.0775511 0)
(0.0771301 -0.0989574 0)
(0.0784749 -0.116471 0)
(0.0838316 -0.128078 0)
(0.0908942 -0.131998 0)
(0.0957719 -0.126701 0)
(0.0933023 -0.111587 0)
(0.0755342 -0.0867605 0)
(0.0334139 -0.0544774 0)
(-0.0392407 -0.0229529 0)
(-0.113747 -0.0146164 0)
(-0.185788 0.0646567 0)
(-0.228416 -0.157628 0)
(0.101746 -0.00465363 0)
(0.0989187 0.000216546 0)
(0.0856682 -0.00588645 0)
(0.139178 -0.00411234 0)
(0.125661 -0.0053764 0)
(0.108662 -0.0183587 0)
(0.0926713 -0.0357781 0)
(0.0795582 -0.0550698 0)
(0.0704667 -0.0735268 0)
(0.0656626 -0.0891263 0)
(0.0644442 -0.100263 0)
(0.064806 -0.10523 0)
(0.0635879 -0.102736 0)
(0.0556887 -0.0915378 0)
(0.0353912 -0.0717543 0)
(-0.00626665 -0.0447781 0)
(-0.0654744 -0.0199027 0)
(-0.127133 -0.0173343 0)
(-0.187321 0.0703971 0)
(-0.222933 -0.171535 0)
(0.103812 -0.00304327 0)
(0.0986984 0.00162731 0)
(0.0851372 -0.00455317 0)
(0.137337 -0.00153981 0)
(0.126876 0.000718493 0)
(0.111246 -0.00820612 0)
(0.0944423 -0.0208706 0)
(0.0783879 -0.0362023 0)
(0.0647572 -0.0515784 0)
(0.0543973 -0.0648917 0)
(0.0470859 -0.0745983 0)
(0.0413934 -0.079625 0)
(0.0342716 -0.0785348 0)
(0.0221803 -0.0707224 0)
(-0.00106678 -0.055239 0)
(-0.0380151 -0.0353209 0)
(-0.0868176 -0.0172136 0)
(-0.138314 -0.0201161 0)
(-0.187897 0.0744698 0)
(-0.218684 -0.186973 0)
(0.104293 -0.0023358 0)
(0.0988066 0.0022082 0)
(0.085366 -0.00370624 0)
(0.132108 0.000936965 0)
(0.124954 0.00595003 0)
(0.111467 0.000178399 0)
(0.0950448 -0.00882465 0)
(0.077342 -0.0207434 0)
(0.0603052 -0.0333994 0)
(0.0453212 -0.044614 0)
(0.0327784 -0.0528875 0)
(0.021699 -0.0571824 0)
(0.0100952 -0.0570834 0)
(-0.00635839 -0.0510912 0)
(-0.0292818 -0.041062 0)
(-0.0610735 -0.02803 0)
(-0.102291 -0.0158664 0)
(-0.14618 -0.0228852 0)
(-0.188067 0.0744717 0)
(-0.216086 -0.200776 0)
(0.104308 -0.00197771 0)
(0.0990198 0.00252636 0)
(0.0858653 -0.00306462 0)
(0.12343 0.0036092 0)
(0.120393 0.0109001 0)
(0.10957 0.00770133 0)
(0.0943399 0.00134317 0)
(0.0762785 -0.00799252 0)
(0.0571111 -0.0185453 0)
(0.0387096 -0.0282816 0)
(0.0220859 -0.0355938 0)
(0.00704394 -0.0396868 0)
(-0.0085302 -0.0396241 0)
(-0.0255934 -0.037188 0)
(-0.0475781 -0.0316078 0)
(-0.0766536 -0.0234072 0)
(-0.112908 -0.0152898 0)
(-0.151249 -0.025524 0)
(-0.188601 0.0726826 0)
(-0.215821 -0.209034 0)
(0.104111 -0.00171165 0)
(0.0991323 0.00282439 0)
(0.0867531 -0.00237184 0)
(0.110541 0.00697075 0)
(0.113267 0.016118 0)
(0.105881 0.0149252 0)
(0.0924455 0.0104183 0)
(0.0748752 0.00292502 0)
(0.0549591 -0.00617226 0)
(0.0344312 -0.0151207 0)
(0.0150647 -0.0222948 0)
(-0.00274406 -0.0266253 0)
(-0.0194185 -0.0285903 0)
(-0.0372533 -0.0282333 0)
(-0.0588853 -0.0256951 0)
(-0.0865549 -0.0206944 0)
(-0.120254 -0.0148584 0)
(-0.155049 -0.0276056 0)
(-0.190052 0.0713867 0)
(-0.218265 -0.212664 0)
(0.103663 -0.00144439 0)
(0.0991088 0.00337666 0)
(0.0887965 -0.00111809 0)
(0.0904332 0.0117863 0)
(0.103539 0.0223424 0)
(0.100593 0.0224037 0)
(0.0895673 0.0189569 0)
(0.0732133 0.0126704 0)
(0.0533589 0.00455454 0)
(0.0320477 -0.00406125 0)
(0.0110929 -0.0117059 0)
(-0.00808605 -0.0171961 0)
(-0.0257814 -0.0207194 0)
(-0.0439868 -0.0221649 0)
(-0.0657167 -0.0215448 0)
(-0.0930687 -0.0187746 0)
(-0.125829 -0.0141019 0)
(-0.158759 -0.0290643 0)
(-0.192483 0.0715222 0)
(-0.222606 -0.213135 0)
(0.102829 -0.00106471 0)
(0.098868 0.0047268 0)
(0.0939164 0.00348249 0)
(0.0751512 0.0383282 0)
(0.0907733 0.0309324 0)
(0.09397 0.030792 0)
(0.0859042 0.0274879 0)
(0.071279 0.0217498 0)
(0.052313 0.0141944 0)
(0.0309381 0.00570636 0)
(0.00934682 -0.00254291 0)
(-0.0107042 -0.00937665 0)
(-0.0291494 -0.0143073 0)
(-0.0479489 -0.0171613 0)
(-0.0699652 -0.0181457 0)
(-0.0976089 -0.0169573 0)
(-0.130499 -0.0128778 0)
(-0.162859 -0.030031 0)
(-0.195589 0.0727583 0)
(-0.22764 -0.211968 0)
(0.10124 -0.000333997 0)
(0.0976096 0.00822776 0)
(0.0923681 0.0264988 0)
(0.0631593 0.0631623 0)
(0.0781678 0.0497297 0)
(0.0863256 0.0410197 0)
(0.0817549 0.0365366 0)
(0.0691436 0.0306191 0)
(0.0515161 0.0232197 0)
(0.0308575 0.0146953 0)
(0.00917338 0.00590334 0)
(-0.0115271 -0.00207775 0)
(-0.0306859 -0.00832989 0)
(-0.0500953 -0.012527 0)
(-0.0726119 -0.0148673 0)
(-0.100861 -0.0150485 0)
(-0.134503 -0.0113607 0)
(-0.167301 -0.0305914 0)
(-0.199016 0.0743259 0)
(-0.232427 -0.21022 0)
(0.0979754 0.00130003 0)
(0.0918411 0.0176828 0)
(0.0754305 0.0445945 0)
(0.0782225 0.0873865 0)
(0.0668348 0.0746861 0)
(0.0796706 0.0562697 0)
(0.077542 0.0466637 0)
(0.0669821 0.039659 0)
(0.0508633 0.0320049 0)
(0.0312877 0.0233263 0)
(0.0100696 0.0140454 0)
(-0.0109588 0.00510336 0)
(-0.0308977 -0.0023476 0)
(-0.050931 -0.00786579 0)
(-0.0740132 -0.0115118 0)
(-0.103064 -0.0129997 0)
(-0.137813 -0.00976519 0)
(-0.17179 -0.0307722 0)
(-0.202483 0.0755349 0)
(-0.236513 -0.20834 0)
(0.0911576 0.00463693 0)
(0.0775988 0.0268804 0)
(0.0713582 0.060846 0)
(-0.1162 0.143413 0)
(0.0979491 0.103909 0)
(0.0735131 0.0770719 0)
(0.074681 0.0591566 0)
(0.0650755 0.0491663 0)
(0.0503558 0.0408065 0)
(0.0320155 0.0318649 0)
(0.011571 0.0221719 0)
(-0.00945063 0.0123915 0)
(-0.0299302 0.0038167 0)
(-0.0506725 -0.00298142 0)
(-0.074315 -0.00795151 0)
(-0.104261 -0.0107877 0)
(-0.140338 -0.0082228 0)
(-0.175994 -0.0305592 0)
(-0.205791 0.0759161 0)
(-0.239851 -0.206383 0)
(0.0786698 0.00859382 0)
(0.0649725 0.0353785 0)
(-0.0889355 0.105554 0)
(0.0198605 0.144843 0)
(0.095148 0.103514 0)
(0.0724998 0.0743789 0)
(0.0642867 0.0595965 0)
(0.0500611 0.0497577 0)
(0.0329061 0.040472 0)
(0.0134758 0.030422 0)
(-0.00723653 0.0199264 0)
(-0.0280833 0.0102836 0)
(-0.0493342 0.00223618 0)
(-0.0735744 -0.00406448 0)
(-0.104439 -0.00833633 0)
(-0.141984 -0.00678373 0)
(-0.179626 -0.029925 0)
(-0.208802 0.0752356 0)
(-0.242655 -0.204215 0)
(0.0632445 0.0129223 0)
(-0.0499615 0.0667151 0)
(0.09986 0.187958 0)
(0.0765171 0.113102 0)
(0.0848667 0.0939933 0)
(0.0643409 0.0708586 0)
(0.0503458 0.0589425 0)
(0.0338045 0.0492399 0)
(0.0156097 0.0389088 0)
(-0.00446548 0.027762 0)
(-0.0254337 0.0171367 0)
(-0.0471952 0.00786727 0)
(-0.0717551 0.000284543 0)
(-0.103554 -0.00551473 0)
(-0.142647 -0.00543292 0)
(-0.182461 -0.0288517 0)
(-0.211407 0.0734487 0)
(-0.245259 -0.201622 0)
(-0.0049129 0.0317296 0)
(0.142207 0.148981 0)
(0.0933317 0.0522541 0)
(0.0872064 0.0974208 0)
(0.0722686 0.084477 0)
(0.0509618 0.0679746 0)
(0.0345422 0.0582205 0)
(0.0177259 0.0478026 0)
(-0.00128347 0.0360118 0)
(-0.0221105 0.0244131 0)
(-0.044235 0.0139942 0)
(-0.0691896 0.00514493 0)
(-0.101545 -0.00214644 0)
(-0.142185 -0.00409374 0)
(-0.184315 -0.0273293 0)
(-0.213509 0.0705908 0)
(-0.248013 -0.198364 0)
(-0.222106 0.206832 0)
(0.148721 -0.0363473 0)
(0.0923939 0.0580615 0)
(0.08131 0.0873142 0)
(0.0554432 0.077009 0)
(0.0340602 0.0672507 0)
(0.0194686 0.0574194 0)
(0.00219297 0.0450495 0)
(-0.0182444 0.0322119 0)
(-0.0406212 0.0206835 0)
(-0.0658674 0.0106164 0)
(-0.0982309 0.00194184 0)
(-0.140376 -0.0025911 0)
(-0.184965 -0.0253323 0)
(-0.215007 0.0666416 0)
(-0.251218 -0.194217 0)
(-0.328649 0.108854 0)
(0.18408 0.0277413 0)
(0.0813569 0.0646611 0)
(0.0638262 0.0748264 0)
(0.0321114 0.0765689 0)
(0.0198248 0.0683714 0)
(0.0057027 0.0552386 0)
(-0.0138999 0.0408076 0)
(-0.0365781 0.0280363 0)
(-0.0619762 0.0168864 0)
(-0.0942277 0.00682791 0)
(-0.136933 -0.000592647 0)
(-0.184084 -0.0227776 0)
(-0.215773 0.0614646 0)
(-0.255141 -0.188992 0)
(-0.283145 0.158373 0)
(0.242577 0.0572162 0)
(0.0577103 0.0416552 0)
(0.0171854 0.0805283 0)
(0.0182746 0.0826027 0)
(0.00883709 0.0679146 0)
(-0.0090706 0.0507128 0)
(-0.0323542 0.0362771 0)
(-0.0579548 0.0241794 0)
(-0.0893903 0.0127945 0)
(-0.131526 0.00236436 0)
(-0.181232 -0.0194706 0)
(-0.215638 0.0549149 0)
(-0.26009 -0.182529 0)
(-0.549779 0.237129 0)
(0.291826 0.0726949 0)
(0.0042071 0.106126 0)
(-0.00267526 0.104531 0)
(0.0123935 0.0864832 0)
(-0.00396901 0.0636091 0)
(-0.0281616 0.0460329 0)
(-0.0544705 0.0329674 0)
(-0.084228 0.0203332 0)
(-0.124719 0.00677393 0)
(-0.175943 -0.015039 0)
(-0.214384 0.0470878 0)
(-0.266469 -0.174631 0)
(-0.766852 0.312062 0)
(0.0198723 0.179786 0)
(-0.00519363 0.156891 0)
(0.00277362 0.11826 0)
(0.00139866 0.0848108 0)
(-0.0248648 0.059984 0)
(-0.0521416 0.0444597 0)
(-0.0795126 0.0302161 0)
(-0.116863 0.0133759 0)
(-0.167817 -0.00888899 0)
(-0.211769 0.0385439 0)
(-0.274699 -0.164983 0)
(-0.652333 0.299873 0)
(0.0659086 0.189943 0)
(-0.0116079 0.180007 0)
(0.000391852 0.117248 0)
(-0.0245896 0.0830018 0)
(-0.0519514 0.0616906 0)
(-0.0756213 0.0439065 0)
(-0.108397 0.023162 0)
(-0.156943 -0.000278904 0)
(-0.207487 0.0303208 0)
(-0.284936 -0.1531 0)
(-0.552879 0.168081 0)
(0.167541 0.203903 0)
(-0.0140518 0.165217 0)
(-0.0265495 0.10903 0)
(-0.0583365 0.0875806 0)
(-0.0722008 0.0640199 0)
(-0.0993808 0.0374642 0)
(-0.144033 0.0115791 0)
(-0.201097 0.0236754 0)
(-0.296648 -0.138398 0)
(-0.458329 0.117996 0)
(0.200492 0.195445 0)
(-0.0275081 0.127964 0)
(-0.0715715 0.113985 0)
(-0.0730339 0.0935169 0)
(-0.0881141 0.0579583 0)
(-0.129638 0.0269148 0)
(-0.191579 0.0196913 0)
(-0.308314 -0.120391 0)
(-0.378919 0.167831 0)
(0.187097 0.173773 0)
(-0.0637987 0.129278 0)
(-0.0825474 0.129753 0)
(-0.0735374 0.0867766 0)
(-0.111481 0.0454942 0)
(-0.177243 0.0190024 0)
(-0.317583 -0.0989093 0)
(-0.441454 0.227413 0)
(-0.00672143 0.171184 0)
(-0.066369 0.157311 0)
(-0.0599925 0.126119 0)
(-0.0861195 0.0673099 0)
(-0.158717 0.0202662 0)
(-0.321785 -0.0744267 0)
(-0.525398 0.227582 0)
(-0.0553146 0.152017 0)
(-0.0344425 0.172024 0)
(-0.052985 0.0930527 0)
(-0.133801 0.0212171 0)
(-0.317864 -0.0483945 0)
(-0.586986 0.0872471 0)
(0.112409 0.167175 0)
(-0.0136043 0.127638 0)
(-0.0962965 0.0195637 0)
(-0.305286 -0.0240866 0)
(-0.474775 0.030476 0)
(0.172186 0.137882 0)
(-0.0429703 0.0223472 0)
(-0.279687 -0.00129273 0)
(-0.406912 0.0878426 0)
(0.178523 0.0754908 0)
(-0.231133 0.0292223 0)
(-0.417332 0.144769 0)
(-0.200903 0.0815053 0)
(-0.57919 0.14727 0)
)
;

boundaryField
{
    floor
    {
        type            noSlip;
    }
    ceiling
    {
        type            noSlip;
    }
    sWall
    {
        type            noSlip;
    }
    nWall
    {
        type            noSlip;
    }
    sideWalls
    {
        type            empty;
    }
    glass1
    {
        type            noSlip;
    }
    glass2
    {
        type            noSlip;
    }
    sun
    {
        type            noSlip;
    }
    Table_master
    {
        type            noSlip;
    }
    Table_slave
    {
        type            noSlip;
    }
    inlet
    {
        type            fixedValue;
        value           uniform (0.5 0 0);
    }
    outlet
    {
        type            zeroGradient;
    }
}


// ************************************************************************* //
