/*--------------------------------*- C++ -*----------------------------------*\
  =========                 |
  \\      /  F ield         | OpenFOAM: The Open Source CFD Toolbox
   \\    /   O peration     | Website:  https://openfoam.org
    \\  /    A nd           | Version:  6
     \\/     M anipulation  |
\*---------------------------------------------------------------------------*/
FoamFile
{
    version     2.0;
    format      ascii;
    class       volScalarField;
    location    "910";
    object      epsilon;
}
// * * * * * * * * * * * * * * * * * * * * * * * * * * * * * * * * * * * * * //

dimensions      [0 2 -3 0 0 0 0];

internalField   nonuniform List<scalar> 
458
(
0.000432896
0.000558025
0.000596722
0.000686532
0.000776842
0.000869345
0.000968953
0.00107758
0.00117218
0.00123433
0.00124143
0.00117496
0.00102233
0.000744104
0.000325009
3.9238e-05
6.32104e-05
9.21162e-05
0.000104431
9.96079e-05
8.16256e-05
6.44112e-05
5.1226e-05
4.13745e-05
3.39184e-05
2.81899e-05
2.37405e-05
2.02097e-05
1.73154e-05
1.48388e-05
1.26016e-05
1.1385e-05
8.83801e-06
0.00106119
0.00158358
0.000518657
0.000502831
0.0005187
0.000551204
0.000606593
0.000688851
0.000780143
0.000854382
0.000882454
0.00084816
0.000757158
0.000624164
0.000502162
0.000747532
0.000426876
0.000231845
3.82978e-05
7.5374e-05
9.27724e-05
9.34656e-05
8.97691e-05
9.00715e-05
7.05869e-05
5.35116e-05
4.08189e-05
3.1545e-05
2.47467e-05
1.97272e-05
1.59711e-05
1.31714e-05
1.14084e-05
1.06904e-05
3.04839e-05
2.00739e-05
0.00190741
0.00384812
0.000603989
0.000458488
0.000466253
0.000508434
0.0005808
0.000684083
0.000797628
0.000884912
0.000918583
0.000888439
0.000802408
0.000667455
0.00051787
0.00041662
0.000353256
0.000382032
0.000139907
0.000139237
0.000125608
0.000111563
0.000103574
0.000198216
0.000133007
9.11545e-05
6.45395e-05
4.72949e-05
3.58186e-05
2.79911e-05
2.25671e-05
1.88699e-05
1.48304e-05
1.31291e-05
6.48598e-05
3.31305e-05
0.00306327
0.00799482
0.000904132
0.000439149
0.000429403
0.000481473
0.000575278
0.000718372
0.000863239
0.000958664
0.000989926
0.000953566
0.000855765
0.000703735
0.000548825
0.000432627
0.000366102
0.000380717
0.000584153
0.000376032
0.000245319
0.000178397
0.000140563
0.00012308
0.000283373
0.000218264
0.000180175
0.000155099
0.000135804
0.000118277
0.000103096
8.85294e-05
7.33236e-05
4.5408e-05
2.92959e-05
0.000114625
5.0622e-05
0.00465025
0.0144275
0.00174089
0.000471063
0.000395806
0.000451844
0.000589276
0.000833394
0.0010191
0.00111245
0.00112902
0.00106984
0.000937971
0.000754107
0.000565148
0.000420295
0.000331857
0.000302857
0.00030396
0.000253737
0.000209504
0.000175234
0.000146403
0.000122161
0.000113144
0.000103881
9.75928e-05
9.22393e-05
8.6236e-05
7.87975e-05
7.09072e-05
6.31742e-05
5.59155e-05
4.60371e-05
3.61945e-05
7.47499e-05
0.000114575
0.000120965
0.000143501
0.000184278
0.00687247
0.0217351
0.00400276
0.000791163
0.000465389
0.000474395
0.000701425
0.00112072
0.00130695
0.00136663
0.00134433
0.00124686
0.00106781
0.000825649
0.000577933
0.000388947
0.000279004
0.000238681
0.000228376
0.000218383
0.000201273
0.00017689
0.000149413
0.00012385
0.000107401
0.000100964
9.979e-05
9.93788e-05
9.72345e-05
9.16896e-05
8.17302e-05
7.04641e-05
5.98164e-05
5.01548e-05
4.34452e-05
5.55246e-05
8.83474e-05
0.000106123
0.000206696
0.000205616
0.00965951
0.0261943
0.00879718
0.00280224
0.00145535
0.00114205
0.00148449
0.00172776
0.00178694
0.00175004
0.00165068
0.00148429
0.00123059
0.000908553
0.00058852
0.000356102
0.000234668
0.000200367
0.000202526
0.000203171
0.000190184
0.000166989
0.000141454
0.000120291
0.000109132
0.000108595
0.000113695
0.000120181
0.000125748
0.000128193
0.000124112
0.000111103
9.75037e-05
8.59497e-05
8.04618e-05
8.87347e-05
0.000120594
0.000176784
0.000327322
0.000344821
0.0104475
0.0300929
0.0160953
0.00965402
0.00597215
0.00418295
0.00338535
0.00287729
0.00253924
0.00228225
0.00204016
0.0017619
0.00139785
0.000968764
0.000561573
0.000300635
0.000190528
0.000174529
0.000179783
0.000177262
0.000162334
0.000142064
0.000124205
0.000113592
0.000112267
0.000119084
0.00013119
0.000146868
0.000165746
0.00018773
0.00021203
0.000232948
0.00024603
0.000273149
0.000329114
0.000480087
0.000820436
0.00137752
0.00410976
0.00128196
0.00984397
0.0172558
0.0132406
0.00999047
0.00750858
0.00579475
0.00459061
0.00379184
0.0032523
0.00282504
0.0024282
0.00200746
0.00148445
0.000914349
0.000407125
0.000216193
0.000158988
0.000147641
0.000144562
0.000137029
0.000124681
0.000112549
0.000105012
0.000104133
0.000109965
0.000121527
0.00013807
0.000159895
0.000188358
0.000225714
0.000275027
0.000339921
0.000427245
0.000551958
0.000734025
0.000976696
0.00125092
0.00149859
0.00170342
0.00104497
0.0034788
0.00472013
0.00512316
0.00502885
0.00473412
0.00432117
0.003785
0.00315983
0.00254925
0.00194913
0.0011637
0.000536497
0.000254516
0.000159687
0.000129175
0.000118204
0.000110932
0.00010311
9.54528e-05
8.99585e-05
8.84251e-05
9.12831e-05
9.81416e-05
0.000108596
0.00012265
0.000140882
0.000164538
0.000195746
0.000237974
0.000296995
0.000378458
0.000488592
0.000629958
0.000786467
0.000911335
0.000944857
0.000871319
0.000544328
0.002895
0.00862285
0.00828464
0.00717533
0.00607729
0.00479129
0.00347983
0.00225737
0.00128347
0.000710191
0.000375195
0.000215328
0.000151164
0.000124061
0.000110971
0.000102079
9.40892e-05
8.69293e-05
8.16e-05
7.88394e-05
7.89264e-05
8.19701e-05
8.79313e-05
9.69905e-05
0.000109669
0.000126876
0.000150001
0.000181119
0.000223187
0.000279975
0.000356612
0.000458299
0.000585869
0.000728686
0.000842145
0.000956394
0.000733742
0.000565831
0.00336792
0.00362374
0.00386697
0.00532531
0.00449689
0.00312918
0.00187907
0.00115808
0.000823757
0.000572363
0.000398498
0.000290061
0.000215272
0.000168066
0.000139691
0.000121114
0.00010743
9.65168e-05
8.80859e-05
8.26834e-05
8.07253e-05
8.21904e-05
8.66482e-05
9.34897e-05
0.000102637
0.000114226
0.0001286
0.000146348
0.000168424
0.000196472
0.000231989
0.000276309
0.000331593
0.000400519
0.000486095
0.000603732
0.000660687
0.000620922
0.000499648
0.000395292
)
;

boundaryField
{
    floor
    {
        Cmu             0.09;
        kappa           0.41;
        E               9.8;
        type            epsilonWallFunction;
        value           nonuniform List<scalar> 
36
(
0.000325009
3.9238e-05
6.32104e-05
9.21162e-05
0.000104431
9.96079e-05
8.16256e-05
6.44112e-05
5.1226e-05
4.13745e-05
3.39184e-05
2.81899e-05
2.37405e-05
2.02097e-05
1.73154e-05
1.48388e-05
1.26016e-05
1.1385e-05
8.83801e-06
8.83801e-06
2.00739e-05
3.31305e-05
5.0622e-05
0.000120965
0.000143501
0.000184278
0.000325009
0.000747532
0.000426876
0.000231845
3.9238e-05
0.000231845
3.82978e-05
0.000382032
0.000139907
0.000584153
)
;
    }
    ceiling
    {
        Cmu             0.09;
        kappa           0.41;
        E               9.8;
        type            epsilonWallFunction;
        value           nonuniform List<scalar> 
43
(
0.00336792
0.00362374
0.00386697
0.00532531
0.00449689
0.00312918
0.00187907
0.00115808
0.000823757
0.000572363
0.000398498
0.000290061
0.000215272
0.000168066
0.000139691
0.000121114
0.00010743
9.65168e-05
8.80859e-05
8.26834e-05
8.07253e-05
8.21904e-05
8.66482e-05
9.34897e-05
0.000102637
0.000114226
0.0001286
0.000146348
0.000168424
0.000196472
0.000231989
0.000276309
0.000331593
0.000400519
0.000486095
0.000603732
0.000660687
0.000620922
0.000499648
0.000395292
0.00984397
0.0172558
0.002895
)
;
    }
    sWall
    {
        Cmu             0.09;
        kappa           0.41;
        E               9.8;
        type            epsilonWallFunction;
        value           uniform 0.00336792;
    }
    nWall
    {
        Cmu             0.09;
        kappa           0.41;
        E               9.8;
        type            epsilonWallFunction;
        value           nonuniform List<scalar> 6(0.000184278 0.000205616 0.000344821 0.000544328 0.000565831 0.000395292);
    }
    sideWalls
    {
        type            empty;
    }
    glass1
    {
        Cmu             0.09;
        kappa           0.41;
        E               9.8;
        type            epsilonWallFunction;
        value           nonuniform List<scalar> 9(0.000432896 0.00106119 0.00190741 0.00306327 0.00465025 0.00687247 0.00965951 0.0104475 0.00984397);
    }
    glass2
    {
        Cmu             0.09;
        kappa           0.41;
        E               9.8;
        type            epsilonWallFunction;
        value           nonuniform List<scalar> 2(0.00128196 0.00104497);
    }
    sun
    {
        Cmu             0.09;
        kappa           0.41;
        E               9.8;
        type            epsilonWallFunction;
        value           nonuniform List<scalar> 
14
(
0.000432896
0.000558025
0.000596722
0.000686532
0.000776842
0.000869345
0.000968953
0.00107758
0.00117218
0.00123433
0.00124143
0.00117496
0.00102233
0.000744104
)
;
    }
    Table_master
    {
        Cmu             0.09;
        kappa           0.41;
        E               9.8;
        type            epsilonWallFunction;
        value           nonuniform List<scalar> 9(0.000198216 0.000133007 9.11545e-05 6.45395e-05 4.72949e-05 3.58186e-05 2.79911e-05 2.25671e-05 1.88699e-05);
    }
    Table_slave
    {
        Cmu             0.09;
        kappa           0.41;
        E               9.8;
        type            epsilonWallFunction;
        value           nonuniform List<scalar> 9(0.000283373 0.000218264 0.000180175 0.000155099 0.000135804 0.000118277 0.000103096 8.85294e-05 7.33236e-05);
    }
    inlet
    {
        type            turbulentMixingLengthDissipationRateInlet;
        mixingLength    0.01;
        phi             phi;
        k               k;
        value           uniform 0.000471672;
    }
    outlet
    {
        type            zeroGradient;
    }
}


// ************************************************************************* //
