/*--------------------------------*- C++ -*----------------------------------*\
  =========                 |
  \\      /  F ield         | OpenFOAM: The Open Source CFD Toolbox
   \\    /   O peration     | Website:  https://openfoam.org
    \\  /    A nd           | Version:  6
     \\/     M anipulation  |
\*---------------------------------------------------------------------------*/
FoamFile
{
    version     2.0;
    format      ascii;
    class       volScalarField;
    location    "10";
    object      epsilon;
}
// * * * * * * * * * * * * * * * * * * * * * * * * * * * * * * * * * * * * * //

dimensions      [0 2 -3 0 0 0 0];

internalField   nonuniform List<scalar> 
458
(
0.00238471
0.00381366
0.00413352
0.00455812
0.00486414
0.00497348
0.00484406
0.0045239
0.00412437
0.00374714
0.00344473
0.00320306
0.00297301
0.00264974
0.00208811
0.000509118
0.0011672
0.00152117
0.00149916
0.00118199
0.000735693
0.000570108
0.00052575
0.000515505
0.000513675
0.000514939
0.000522629
0.000554377
0.000665023
0.00094867
0.00105459
0.000859202
0.000451363
0.00536714
0.00535274
0.00334325
0.002989
0.00292618
0.00289653
0.00281857
0.00268603
0.0025325
0.00239196
0.00227768
0.0021841
0.00209734
0.00201309
0.00204167
0.00374031
0.00216425
0.000800462
0.00129117
0.00130831
0.00138387
0.00135718
0.00120854
0.000913683
0.000641642
0.000563159
0.000545749
0.000542745
0.000544825
0.00055761
0.000612104
0.000796197
0.00100484
0.00105958
0.000981159
0.000884883
0.00855541
0.00929613
0.00443259
0.00328575
0.00297218
0.00285821
0.00275512
0.00261696
0.00246457
0.00232876
0.00222308
0.00214443
0.00208342
0.00203955
0.00204562
0.0021981
0.00209731
0.00334267
0.00317146
0.00179152
0.00164943
0.00160984
0.00158767
0.00178505
0.000662767
0.000534258
0.000517127
0.000514927
0.000516809
0.000529931
0.000619785
0.00136965
0.00133384
0.00132662
0.00129796
0.00143673
0.0119707
0.0147173
0.00603636
0.00389348
0.00329291
0.0030899
0.00294532
0.00276725
0.00257554
0.00240877
0.00228456
0.00219994
0.00214308
0.00210703
0.00209677
0.00212401
0.00216983
0.0025845
0.00547911
0.00248006
0.00199553
0.0018761
0.00188125
0.00211172
0.00423891
0.00303679
0.00282824
0.0027587
0.00273683
0.00274623
0.00278974
0.00291743
0.00364823
0.00187919
0.00166898
0.00173319
0.00299517
0.015462
0.0206559
0.00784313
0.00460384
0.00372916
0.00345144
0.00325612
0.00300862
0.00274526
0.00252316
0.00236549
0.00226422
0.00220199
0.0021651
0.00214823
0.00215294
0.00218855
0.00232498
0.00261118
0.0022632
0.00207917
0.00200657
0.00200384
0.00208384
0.00229729
0.00214395
0.00205263
0.00200824
0.00199078
0.00199183
0.00201074
0.00205423
0.0021232
0.00192543
0.00186049
0.00191856
0.00227009
0.00442015
0.00262968
0.00140985
0.0187021
0.0256384
0.00976769
0.00545888
0.00434954
0.00398795
0.00370921
0.00334174
0.00295955
0.002653
0.00244465
0.00231772
0.00224479
0.00220358
0.00218202
0.00217608
0.00218804
0.00222652
0.00226722
0.00218467
0.00211061
0.00206966
0.0020587
0.00207401
0.00209934
0.00205299
0.0020075
0.00197839
0.00196452
0.00196286
0.00197145
0.00198797
0.00200139
0.00196976
0.00196943
0.00202306
0.00212817
0.00223094
0.00206988
0.0023127
0.0203105
0.0281075
0.0123604
0.00709364
0.005528
0.0048706
0.0043859
0.00380676
0.00323164
0.00279275
0.00251287
0.0023533
0.00226719
0.00222066
0.00219493
0.00218173
0.00217836
0.00218264
0.00218165
0.00215057
0.00211649
0.00209208
0.0020787
0.00207297
0.00206571
0.0020409
0.00201447
0.001995
0.00198416
0.00198105
0.00198404
0.00199106
0.00199898
0.0020068
0.00204322
0.00212657
0.00222045
0.00220753
0.00214226
0.0027688
0.0189634
0.0290279
0.0162693
0.0110124
0.00802519
0.00633799
0.00536497
0.00442648
0.00354846
0.00292427
0.00255846
0.00236611
0.00226896
0.00221824
0.00218918
0.00217085
0.00215898
0.00215067
0.00214064
0.00212305
0.00210388
0.00208745
0.00207438
0.00206294
0.00204977
0.00203185
0.0020139
0.00199985
0.00199105
0.00198713
0.00198711
0.0019905
0.0019997
0.00202592
0.00209777
0.00223977
0.00240964
0.00256976
0.00317664
0.00260566
0.0157863
0.0217844
0.0151688
0.0107832
0.00804019
0.00659518
0.00591099
0.00492488
0.00378522
0.00298842
0.00256091
0.00235512
0.00225611
0.00220417
0.00217217
0.00214955
0.00213228
0.00211832
0.00210547
0.00209184
0.00207827
0.00206545
0.00205312
0.00204043
0.00202653
0.00201146
0.00199731
0.00198603
0.00197831
0.0019738
0.00197176
0.00197254
0.00198102
0.00201419
0.0021107
0.0023143
0.00255244
0.00258781
0.00252104
0.00232147
0.00200185
0.0026219
0.00328359
0.00445353
0.00505833
0.00450705
0.00356249
0.00288549
0.00252262
0.00234782
0.00225747
0.0022041
0.00216738
0.00213922
0.00211661
0.00209825
0.00208311
0.00207003
0.00205813
0.00204645
0.00203406
0.00202049
0.00200593
0.00199135
0.00197829
0.00196792
0.00196048
0.00195536
0.00195147
0.00194852
0.00194959
0.00196609
0.00202247
0.00214242
0.00228409
0.00228478
0.00223477
0.00228718
0.00374592
0.0116361
0.00854427
0.00652643
0.00522053
0.00419656
0.0034169
0.00292492
0.0026468
0.00249039
0.00239414
0.00232773
0.00227745
0.00223732
0.00220492
0.00217927
0.00215954
0.00214431
0.00213143
0.00211857
0.00210404
0.00208743
0.00206968
0.00205249
0.00203759
0.00202601
0.00201777
0.00201196
0.00200655
0.00200043
0.00199437
0.00199259
0.00200501
0.00203479
0.00203858
0.00197018
0.00217185
0.00215316
0.00495716
0.00545865
0.00591401
0.0084054
0.00758432
0.00694171
0.00642435
0.00582521
0.0052121
0.00471419
0.00433876
0.00404963
0.00381898
0.00363114
0.0034771
0.00335122
0.00325016
0.003172
0.00311471
0.00307398
0.00304275
0.0030132
0.00297991
0.00294156
0.0029006
0.00286115
0.00282676
0.00279929
0.00277858
0.00276386
0.00275092
0.00274274
0.00274878
0.00277827
0.00284236
0.00291216
0.00285023
0.00246765
0.00185793
0.0012099
)
;

boundaryField
{
    floor
    {
        Cmu             0.09;
        kappa           0.41;
        E               9.8;
        type            epsilonWallFunction;
        value           nonuniform List<scalar> 
36
(
0.00208811
0.000509118
0.0011672
0.00152117
0.00149916
0.00118199
0.000735693
0.000570108
0.00052575
0.000515505
0.000513675
0.000514939
0.000522629
0.000554377
0.000665023
0.00094867
0.00105459
0.000859202
0.000451363
0.000451363
0.000884883
0.00143673
0.00299517
0.00442015
0.00262968
0.00140985
0.00208811
0.00374031
0.00216425
0.000800462
0.000509118
0.000800462
0.00129117
0.00334267
0.00317146
0.00547911
)
;
    }
    ceiling
    {
        Cmu             0.09;
        kappa           0.41;
        E               9.8;
        type            epsilonWallFunction;
        value           nonuniform List<scalar> 
43
(
0.00495716
0.00545865
0.00591401
0.0084054
0.00758432
0.00694171
0.00642435
0.00582521
0.0052121
0.00471419
0.00433876
0.00404963
0.00381898
0.00363114
0.0034771
0.00335122
0.00325016
0.003172
0.00311471
0.00307398
0.00304275
0.0030132
0.00297991
0.00294156
0.0029006
0.00286115
0.00282676
0.00279929
0.00277858
0.00276386
0.00275092
0.00274274
0.00274878
0.00277827
0.00284236
0.00291216
0.00285023
0.00246765
0.00185793
0.0012099
0.0157863
0.0217844
0.00374592
)
;
    }
    sWall
    {
        Cmu             0.09;
        kappa           0.41;
        E               9.8;
        type            epsilonWallFunction;
        value           uniform 0.00495716;
    }
    nWall
    {
        Cmu             0.09;
        kappa           0.41;
        E               9.8;
        type            epsilonWallFunction;
        value           nonuniform List<scalar> 6(0.00140985 0.0023127 0.0027688 0.00228718 0.00215316 0.0012099);
    }
    sideWalls
    {
        type            empty;
    }
    glass1
    {
        Cmu             0.09;
        kappa           0.41;
        E               9.8;
        type            epsilonWallFunction;
        value           nonuniform List<scalar> 9(0.00238471 0.00536714 0.00855541 0.0119707 0.015462 0.0187021 0.0203105 0.0189634 0.0157863);
    }
    glass2
    {
        Cmu             0.09;
        kappa           0.41;
        E               9.8;
        type            epsilonWallFunction;
        value           nonuniform List<scalar> 2(0.00260566 0.00232147);
    }
    sun
    {
        Cmu             0.09;
        kappa           0.41;
        E               9.8;
        type            epsilonWallFunction;
        value           nonuniform List<scalar> 
14
(
0.00238471
0.00381366
0.00413352
0.00455812
0.00486414
0.00497348
0.00484406
0.0045239
0.00412437
0.00374714
0.00344473
0.00320306
0.00297301
0.00264974
)
;
    }
    Table_master
    {
        Cmu             0.09;
        kappa           0.41;
        E               9.8;
        type            epsilonWallFunction;
        value           nonuniform List<scalar> 9(0.00178505 0.000662767 0.000534258 0.000517127 0.000514927 0.000516809 0.000529931 0.000619785 0.00136965);
    }
    Table_slave
    {
        Cmu             0.09;
        kappa           0.41;
        E               9.8;
        type            epsilonWallFunction;
        value           nonuniform List<scalar> 9(0.00423891 0.00303679 0.00282824 0.0027587 0.00273683 0.00274623 0.00278974 0.00291743 0.00364823);
    }
    inlet
    {
        type            turbulentMixingLengthDissipationRateInlet;
        mixingLength    0.01;
        phi             phi;
        k               k;
        value           uniform 0.000471672;
    }
    outlet
    {
        type            zeroGradient;
    }
}


// ************************************************************************* //
