/*--------------------------------*- C++ -*----------------------------------*\
  =========                 |
  \\      /  F ield         | OpenFOAM: The Open Source CFD Toolbox
   \\    /   O peration     | Website:  https://openfoam.org
    \\  /    A nd           | Version:  6
     \\/     M anipulation  |
\*---------------------------------------------------------------------------*/
FoamFile
{
    version     2.0;
    format      ascii;
    class       volScalarField;
    location    "10";
    object      nut;
}
// * * * * * * * * * * * * * * * * * * * * * * * * * * * * * * * * * * * * * //

dimensions      [0 2 -1 0 0 0 0];

internalField   nonuniform List<scalar> 
458
(
0.00186985
0.00219956
0.00228313
0.00237057
0.00242656
0.00244037
0.00240548
0.00233037
0.00224132
0.00216638
0.00210403
0.00206298
0.00201685
0.00194219
0.00179721
0.00111699
0.00148282
0.00161985
0.00161497
0.00149373
0.00127443
0.00116932
0.00113742
0.00112979
0.00112841
0.00112931
0.0011348
0.00115691
0.00122802
0.00137661
0.00142333
0.00133221
0.00106953
0.0024383
0.0103269
0.0125822
0.0141917
0.0154016
0.0162913
0.0167875
0.0168466
0.016532
0.0160171
0.0154416
0.0147495
0.0140115
0.0128429
0.00990669
0.0021981
0.00182871
0.00130555
0.00153516
0.00717133
0.00912403
0.00906271
0.00740686
0.00435753
0.00337832
0.00305764
0.00297193
0.00295467
0.00296455
0.00302208
0.00323099
0.00387668
0.00596982
0.00665674
0.00551463
0.00135011
0.00284282
0.0139174
0.0168701
0.0197514
0.0219359
0.0237551
0.0252032
0.0260557
0.0262353
0.0258858
0.0252348
0.0243566
0.023259
0.0216355
0.018779
0.01379
0.0102724
0.0021116
0.00206616
0.010625
0.0139586
0.0136173
0.00996852
0.00171681
0.00123096
0.00114376
0.00113102
0.00112931
0.00113057
0.00113977
0.00120026
0.00156227
0.00780332
0.00956131
0.00776005
0.00158565
0.00317704
0.0156447
0.0178605
0.0208707
0.0232891
0.025743
0.0282825
0.0303341
0.0315062
0.0318085
0.0315027
0.0307639
0.0296527
0.0280445
0.0256431
0.0222036
0.0180787
0.0110559
0.0024878
0.0103309
0.01636
0.0186494
0.0176478
0.0125239
0.00228946
0.00204355
0.00199357
0.00197556
0.00196868
0.00196888
0.0019764
0.00200262
0.00215843
0.00993129
0.0124937
0.0100457
0.00200231
0.00345647
0.0165057
0.0174848
0.0194698
0.0212909
0.0240782
0.0277845
0.0312611
0.0336725
0.0348987
0.0351875
0.0347878
0.0338665
0.0324648
0.0305031
0.0279052
0.0246765
0.020471
0.0162474
0.0194251
0.022203
0.0232919
0.0224252
0.0194467
0.0147381
0.0138606
0.0135224
0.013351
0.01326
0.0132176
0.0132121
0.0132651
0.0135835
0.0163019
0.0169284
0.0148315
0.00936844
0.00221796
0.00182965
0.00145563
0.00367365
0.0166629
0.0163977
0.0163702
0.0169999
0.0199456
0.0248178
0.0297432
0.0334804
0.0357793
0.0367907
0.0368249
0.0361859
0.0350562
0.0334969
0.0315416
0.0292676
0.0268385
0.0250316
0.0256676
0.0266282
0.0269462
0.026279
0.0246423
0.0225575
0.0215558
0.0210424
0.0207555
0.0205885
0.0204907
0.020436
0.020428
0.0205474
0.0210222
0.0205503
0.0186059
0.015093
0.0105387
0.00736167
0.00176966
0.00376068
0.0158155
0.0147957
0.0124741
0.011979
0.0148298
0.0203947
0.0264886
0.0315234
0.0348935
0.0366132
0.0370663
0.0367073
0.0358387
0.034621
0.0331566
0.0315666
0.0300552
0.0290194
0.0288924
0.0290482
0.0289796
0.0284505
0.0274802
0.026355
0.0255604
0.0250497
0.0247248
0.0245156
0.0243725
0.0242553
0.0241268
0.0239401
0.0235624
0.0224578
0.0202256
0.0167129
0.0123083
0.00833471
0.00189709
0.00366516
0.0121712
0.0108642
0.00899139
0.00816162
0.0101821
0.0156595
0.0224679
0.0284632
0.0326417
0.034833
0.0355598
0.0353879
0.0347166
0.0337637
0.0326574
0.0315159
0.0304871
0.0297538
0.0294201
0.0292653
0.0290426
0.0286139
0.0279816
0.027279
0.0266909
0.0262557
0.0259495
0.0257343
0.0255691
0.0254073
0.025187
0.0248055
0.024057
0.0225435
0.0197857
0.0154264
0.0100493
0.00591524
0.00186923
0.00344805
0.00380588
0.00389941
0.00393346
0.0041871
0.00626764
0.011736
0.0188526
0.0250866
0.0293074
0.031468
0.0321405
0.0319928
0.0314397
0.030683
0.0298394
0.0290023
0.0282644
0.0277084
0.0273572
0.0271174
0.0268677
0.0265302
0.0260987
0.0256321
0.0252112
0.0248733
0.0246194
0.02443
0.0242731
0.0241067
0.0238676
0.0234495
0.0226493
0.0211011
0.0182188
0.0134604
0.00789225
0.00414748
0.00182439
0.00061858
0.00131782
0.0032512
0.00739887
0.012876
0.0180534
0.0221937
0.0248214
0.0259457
0.0261845
0.0259491
0.0254756
0.0248917
0.0242761
0.0236884
0.0231784
0.0227812
0.022498
0.0222845
0.0220803
0.0218428
0.0215644
0.0212693
0.0209944
0.0207635
0.0205822
0.0204421
0.0203235
0.0201932
0.0200038
0.0196829
0.0191204
0.0181252
0.016416
0.0137213
0.0102187
0.0068877
0.00183546
0.00235936
0.00724015
0.00918367
0.0109728
0.0128729
0.0145842
0.0157398
0.0162976
0.0164285
0.016323
0.016091
0.0157948
0.015474
0.0151571
0.014866
0.0146179
0.0144226
0.014277
0.0141634
0.014058
0.0139431
0.0138142
0.013679
0.0135511
0.013441
0.0133524
0.0132823
0.0132216
0.0131555
0.013063
0.0129156
0.012674
0.0122755
0.0116078
0.0105131
0.00887881
0.00681943
0.00181608
0.00247102
0.00257909
0.00267291
0.00298574
0.00285744
0.00275918
0.00269063
0.00261421
0.00252818
0.00244951
0.00238317
0.00232684
0.00227818
0.00223618
0.00220034
0.00217026
0.0021456
0.00212609
0.00211137
0.00210067
0.00209252
0.00208526
0.0020776
0.00206912
0.00206022
0.00205171
0.00204435
0.0020385
0.00203408
0.00203071
0.00202783
0.00202488
0.00202147
0.00201725
0.00201128
0.00199909
0.00196349
0.00186781
0.00169998
0.00144808
)
;

boundaryField
{
    floor
    {
        type            nutkWallFunction;
        Cmu             0.09;
        kappa           0.41;
        E               9.8;
        value           nonuniform List<scalar> 
36
(
0.000211621
0.000134711
0.000176579
0.000191959
0.000191416
0.000177816
0.000152909
0.000140818
0.000137128
0.000136245
0.000136085
0.00013619
0.000136826
0.000139388
0.000147595
0.00016459
0.000169888
0.000159523
0.00012919
0.00012919
0.00016156
0.000188144
0.000234173
0.000257522
0.000215118
0.000173367
0.000211621
0.000255392
0.000215086
0.000156408
0.000134711
0.000156409
0.000182469
0.000246051
0.000241137
0.000286543
)
;
    }
    ceiling
    {
        type            nutkWallFunction;
        Cmu             0.09;
        kappa           0.41;
        E               9.8;
        value           nonuniform List<scalar> 
43
(
0.000284235
0.000295721
0.000305654
0.000338645
0.000325326
0.000315083
0.000307877
0.00029978
0.000290643
0.000282268
0.000275183
0.000269151
0.000263929
0.000259415
0.000255558
0.000252318
0.000249659
0.000247553
0.000245964
0.000244808
0.000243929
0.000243143
0.000242313
0.000241393
0.000240425
0.0002395
0.0002387
0.000238063
0.000237584
0.000237219
0.000236907
0.000236587
0.000236214
0.00023575
0.000235089
0.00023375
0.000229857
0.000219371
0.000200777
0.000172518
0.000386897
0.000423528
0.000272106
)
;
    }
    sWall
    {
        type            nutkWallFunction;
        Cmu             0.09;
        kappa           0.41;
        E               9.8;
        value           uniform 0.000284306;
    }
    nWall
    {
        type            nutkWallFunction;
        Cmu             0.09;
        kappa           0.41;
        E               9.8;
        value           nonuniform List<scalar> 6(0.000173375 0.000208518 0.000222583 0.000215801 0.000213572 0.00017253);
    }
    sideWalls
    {
        type            empty;
    }
    glass1
    {
        type            nutkWallFunction;
        Cmu             0.09;
        kappa           0.41;
        E               9.8;
        value           nonuniform List<scalar> 9(0.000219733 0.000281361 0.000324265 0.000359238 0.000388196 0.000410538 0.000419449 0.000409655 0.000387309);
    }
    glass2
    {
        type            nutkWallFunction;
        Cmu             0.09;
        kappa           0.41;
        E               9.8;
        value           nonuniform List<scalar> 2(0.000219593 0.000214668);
    }
    sun
    {
        type            nutkWallFunction;
        Cmu             0.09;
        kappa           0.41;
        E               9.8;
        value           nonuniform List<scalar> 
14
(
0.000219479
0.000255432
0.000264492
0.00027385
0.000279802
0.000281233
0.000277473
0.000269428
0.000259897
0.000251856
0.000245151
0.000240725
0.000235718
0.000227566
)
;
    }
    Table_master
    {
        type            nutkWallFunction;
        Cmu             0.09;
        kappa           0.41;
        E               9.8;
        value           nonuniform List<scalar> 9(0.000202759 0.000147922 0.000137863 0.000136387 0.00013619 0.000136336 0.000137402 0.000144399 0.000185556);
    }
    Table_slave
    {
        type            nutkWallFunction;
        Cmu             0.09;
        kappa           0.41;
        E               9.8;
        value           nonuniform List<scalar> 9(0.000265305 0.000238669 0.000233215 0.000231247 0.000230495 0.000230518 0.00023134 0.000234207 0.00025117);
    }
    inlet
    {
        type            calculated;
        value           uniform 0.000167705;
    }
    outlet
    {
        type            calculated;
        value           nonuniform List<scalar> 2(0.00247102 0.00257909);
    }
}


// ************************************************************************* //
