/*--------------------------------*- C++ -*----------------------------------*\
  =========                 |
  \\      /  F ield         | OpenFOAM: The Open Source CFD Toolbox
   \\    /   O peration     | Website:  https://openfoam.org
    \\  /    A nd           | Version:  6
     \\/     M anipulation  |
\*---------------------------------------------------------------------------*/
FoamFile
{
    version     2.0;
    format      ascii;
    class       surfaceScalarField;
    location    "10";
    object      phi;
}
// * * * * * * * * * * * * * * * * * * * * * * * * * * * * * * * * * * * * * //

dimensions      [1 0 -1 0 0 0 0];

internalField   nonuniform List<scalar> 
850
(
-0.00238053
0.00242406
-0.00290393
0.000523103
-0.00281212
-9.2111e-05
-0.00249257
-0.000319863
-0.00200297
-0.000489918
-0.0014325
-0.000570787
-0.00088782
-0.000544983
-0.000447943
-0.000440134
-0.000143811
-0.000304321
3.38107e-05
-0.000177743
0.000115403
-8.16617e-05
0.000135431
-2.00649e-05
0.000118852
1.6562e-05
7.81548e-05
4.06924e-05
7.87162e-05
-2.47618e-05
2.55813e-05
-1.129e-05
-1.34607e-05
7.19527e-06
-1.84767e-05
1.84459e-05
-1.12426e-05
2.34246e-05
-4.97038e-06
2.17416e-05
1.69254e-06
2.13852e-05
3.66821e-07
2.15262e-05
-1.30398e-07
2.13977e-05
1.39245e-07
2.08566e-05
5.51914e-07
1.96047e-05
1.26265e-06
1.70921e-05
2.52332e-06
1.29047e-05
4.19794e-06
9.71535e-06
3.19949e-06
2.39599e-05
-1.42351e-05
4.59522e-05
-2.19825e-05
5.06597e-05
-4.69549e-06
5.15036e-05
-0.00160319
0.00414345
-0.00222114
0.00114068
-0.00237538
6.17524e-05
-0.00222992
-0.000465676
-0.00188606
-0.00083414
-0.00143441
-0.00102282
-0.000970993
-0.0010088
-0.000569595
-0.000841912
-0.000266608
-0.000607624
-6.61556e-05
-0.00037843
4.71671e-05
-0.000195141
9.73321e-05
-7.03265e-05
0.000108865
4.97301e-06
0.000103178
4.63498e-05
0.000120974
6.09082e-05
7.76492e-05
4.42252e-05
3.30682e-05
4.56397e-05
3.65951e-05
2.93266e-05
-1.83823e-06
2.10647e-05
-5.19265e-06
1.44499e-05
-1.18573e-05
1.61448e-05
-1.29335e-05
2.10498e-05
-9.87153e-06
2.08948e-05
1.85147e-06
2.10697e-05
1.95562e-07
2.11439e-05
-2.00944e-07
2.12338e-05
5.27987e-08
2.13051e-05
4.84185e-07
2.12937e-05
1.27761e-06
2.10287e-05
2.792e-06
2.04644e-05
4.76601e-06
1.80618e-05
5.60624e-06
2.65126e-05
-2.26812e-05
2.20173e-05
-1.74816e-05
5.30596e-06
1.20232e-05
5.89128e-05
-0.00112767
0.00544993
-0.00176866
0.0017813
-0.00206574
0.000358489
-0.0020312
-0.0005005
-0.00176228
-0.00110335
-0.00135988
-0.00142558
-0.000932191
-0.00143692
-0.000559211
-0.00121535
-0.000276233
-0.000891009
-8.61847e-05
-0.000568799
2.51389e-05
-0.000306692
7.81474e-05
-0.000123484
9.38967e-05
-1.08682e-05
9.07856e-05
4.94078e-05
7.78105e-05
7.38548e-05
4.45353e-05
7.74871e-05
1.43766e-05
7.57952e-05
5.34313e-05
1.15936e-05
-1.09348e-05
8.08974e-06
-1.68517e-06
1.37666e-06
-5.14131e-06
1.62277e-06
-1.31771e-05
1.87647e-05
-2.70112e-05
2.07706e-05
2.11204e-05
2.10737e-05
2.12807e-05
2.1919e-05
2.33508e-05
2.62971e-05
3.12174e-05
3.69787e-05
7.49075e-05
-6.06057e-05
7.08186e-05
-1.33869e-05
2.83712e-05
5.44777e-05
9.03676e-05
-0.000860708
0.00654563
-0.00151107
0.00243138
-0.00186527
0.000712516
-0.00187923
-0.000486624
-0.0016311
-0.00135157
-0.0012295
-0.00182741
-0.000806542
-0.0018603
-0.000454229
-0.00156817
-0.000202134
-0.00114359
-4.31258e-05
-0.000728209
4.37819e-05
-0.000393896
8.04599e-05
-0.000160362
8.63274e-05
-1.68634e-05
7.6648e-05
5.90104e-05
6.05032e-05
8.99562e-05
4.31083e-05
9.48593e-05
3.25659e-05
8.63276e-05
2.63659e-05
5.96285e-05
1.77209e-06
2.70197e-05
-1.57325e-05
6.5716e-06
-2.15834e-05
4.16759e-06
-2.61042e-05
-6.18841e-07
-3.37814e-05
-5.49854e-06
-5.39514e-05
-6.83998e-06
-5.38038e-05
-2.9913e-07
-5.22779e-05
-1.67779e-06
-4.80958e-05
-4.33414e-06
-3.97804e-05
-8.46734e-06
-2.50034e-05
-1.49288e-05
-4.33262e-07
-2.47217e-05
3.8281e-05
-3.88654e-05
9.57178e-05
-5.7587e-05
0.000170659
-7.50892e-05
0.000195129
-8.50698e-05
0.000239185
-5.74341e-05
0.000266009
2.76646e-05
0.000359921
-0.000722953
0.00755547
-0.00135493
0.00306327
-0.00166965
0.00102736
-0.00166879
-0.000487211
-0.00140749
-0.00161256
-0.000990513
-0.00224433
-0.000571687
-0.00227947
-0.000253204
-0.00188722
-5.34243e-05
-0.00134395
5.16911e-05
-0.000833812
9.34593e-05
-0.000436028
9.78059e-05
-0.000164961
8.3437e-05
-2.6574e-06
6.26507e-05
7.96974e-05
4.22491e-05
0.000110301
2.58272e-05
0.000111251
1.56166e-05
9.6523e-05
4.66273e-06
7.05758e-05
-1.34434e-05
4.51237e-05
-2.7332e-05
2.04602e-05
-3.44131e-05
1.12493e-05
-4.01826e-05
5.15143e-06
-4.67588e-05
1.07838e-06
-5.32139e-05
-3.84329e-07
-5.37901e-05
2.7746e-07
-5.22291e-05
-3.23857e-06
-4.78973e-05
-8.66571e-06
-3.96515e-05
-1.67128e-05
-2.56525e-05
-2.89271e-05
-3.21216e-06
-4.7161e-05
3.14048e-05
-7.34804e-05
8.30617e-05
-0.00010924
0.00015805
-0.000150071
0.00026207
-0.000189079
0.000430511
-0.00022586
0.000718422
-0.000260225
0.00136346
-0.000285091
0.00167459
-0.000307711
0.00139515
0.000283401
0.00142277
-0.000703145
0.00859488
-0.00119043
0.00355073
-0.0012596
0.00109704
-0.00116021
-0.000585805
-0.000903346
-0.00186842
-0.000523954
-0.0026231
-0.000165073
-0.0026385
6.81445e-05
-0.00212105
0.000170825
-0.00144731
0.000187129
-0.000850702
0.000160255
-0.000409595
0.000118536
-0.000123547
7.73988e-05
3.82832e-05
4.3664e-05
0.000113313
1.89258e-05
0.000134971
2.40881e-06
0.00012773
-7.80321e-06
0.000106716
-1.67134e-05
7.94769e-05
-2.51096e-05
5.35161e-05
-3.53668e-05
3.0716e-05
-4.21593e-05
1.80415e-05
-4.73521e-05
1.03443e-05
-5.18334e-05
5.55986e-06
-5.4951e-05
2.73337e-06
-5.51078e-05
4.3435e-07
-5.39393e-05
-4.40706e-06
-5.08757e-05
-1.17291e-05
-4.50889e-05
-2.24993e-05
-3.55296e-05
-3.84858e-05
-2.07119e-05
-6.19772e-05
1.55477e-06
-9.57444e-05
3.49311e-05
-0.000142612
8.8727e-05
-0.000203858
0.000181592
-0.000281928
0.000345397
-0.00038964
0.000628111
-0.0005429
0.00105175
-0.000708678
0.00134681
-0.000602717
0.00109592
0.000534333
0.00254335
-0.000513894
0.00949561
-0.000547369
0.00358458
-7.42148e-05
0.000624716
0.000117082
-0.000775772
0.000223034
-0.00197236
0.00038888
-0.00278729
0.000530139
-0.00277948
0.000551519
-0.00214307
0.000468802
-0.00136544
0.000343383
-0.000726006
0.00022211
-0.000288853
0.000125298
-2.70912e-05
5.71179e-05
0.000106238
1.34867e-05
0.00015681
-1.20332e-05
0.000160415
-2.54923e-05
0.000141148
-3.19064e-05
0.000113109
-3.59296e-05
8.34896e-05
-3.94709e-05
5.70525e-05
-4.46797e-05
3.59226e-05
-4.89825e-05
2.23433e-05
-5.2483e-05
1.38444e-05
-5.53513e-05
8.42791e-06
-5.72645e-05
4.64633e-06
-5.77868e-05
9.56441e-07
-5.76589e-05
-4.53515e-06
-5.68271e-05
-1.2561e-05
-5.51297e-05
-2.41966e-05
-5.25806e-05
-4.10343e-05
-4.9473e-05
-6.50834e-05
-4.64363e-05
-9.87779e-05
-4.39821e-05
-0.000145059
-3.98818e-05
-0.000207946
-2.53579e-05
-0.00029643
1.8512e-05
-0.000433471
0.000133681
-0.000658006
0.000401757
-0.000976666
0.000874995
-0.00107587
0.00109495
0.000314424
0.00366592
0.00190693
0.00803126
0.0025603
0.00293165
0.00291766
0.00026812
0.00288903
-0.000745733
0.00260044
-0.00168099
0.00217335
-0.0023571
0.00170392
-0.00230896
0.00122829
-0.0016681
0.000802114
-0.000940358
0.000469916
-0.000394724
0.000238997
-5.85656e-05
9.31992e-05
0.000118304
9.44013e-06
0.000189755
-3.36899e-05
0.000199801
-5.24247e-05
0.000179072
-5.78298e-05
0.000146512
-5.70624e-05
0.00011232
-5.4852e-05
8.12684e-05
-5.35196e-05
5.57147e-05
-5.40472e-05
3.64475e-05
-5.53053e-05
2.35999e-05
-5.68411e-05
1.53793e-05
-5.84239e-05
1.001e-05
-5.98097e-05
6.03149e-06
-6.09164e-05
2.06257e-06
-6.21967e-05
-3.25542e-06
-6.3989e-05
-1.07691e-05
-6.68255e-05
-2.13603e-05
-7.18452e-05
-3.60142e-05
-8.13363e-05
-5.55909e-05
-9.96222e-05
-8.04886e-05
-0.000134378
-0.000110296
-0.000198105
-0.000144204
-0.000310065
-0.00018444
-0.000498145
-0.000245333
-0.000794823
-0.000361228
-0.00122592
-0.000545429
-0.00170953
-0.000592129
-0.0016532
0.000258126
0.00219254
0.00852335
0.0114456
0.0102291
0.00148486
0.00886538
0.000618864
0.00721604
-2.88636e-05
0.0052467
-0.000383835
0.00334187
-0.000402495
0.00189971
-0.000227021
0.000978012
-2.02566e-05
0.000440175
0.000141943
0.000143718
0.000237171
-7.96628e-06
0.000269567
-7.66421e-05
0.000258193
-0.000100205
0.000223231
-0.000101264
0.000180058
-9.27389e-05
0.000137948
-8.18067e-05
0.000101368
-7.22823e-05
7.17337e-05
-6.56797e-05
4.91067e-05
-6.20912e-05
3.28561e-05
-6.0561e-05
2.20678e-05
-6.03334e-05
1.51503e-05
-6.09208e-05
1.05962e-05
-6.20449e-05
7.15447e-06
-6.37021e-05
3.71864e-06
-6.62652e-05
-6.93366e-07
-7.02823e-05
-6.75283e-06
-7.66791e-05
-1.49641e-05
-8.71859e-05
-2.55075e-05
-0.000105095
-3.76807e-05
-0.000136754
-4.88268e-05
-0.000194696
-5.23472e-05
-0.000303947
-3.49372e-05
-0.000515766
2.74131e-05
-0.000936705
0.000175682
-0.00176788
0.000470102
-0.00324456
0.000931491
-0.00512436
0.00128788
-0.00515951
0.000293369
-0.00276309
0.00863511
0.00367177
0.00658193
0.00267394
0.00500067
0.00155171
0.00344978
0.00116193
0.00203818
0.00100261
0.00100677
0.00079978
0.000372644
0.000611321
2.97393e-05
0.000483527
-0.000133036
0.000399252
-0.000192876
0.000329027
-0.000198653
0.00026376
-0.000179519
0.000203982
-0.000152067
0.000152545
-0.000125045
0.000110894
-0.000102455
7.87611e-05
-8.56174e-05
5.48869e-05
-7.43105e-05
3.77948e-05
-6.75254e-05
2.60677e-05
-6.39137e-05
1.84537e-05
-6.24064e-05
1.3641e-05
-6.23149e-05
1.05029e-05
-6.32929e-05
8.13055e-06
-6.53259e-05
5.74988e-06
-6.87316e-05
2.71059e-06
-7.40682e-05
-1.41795e-06
-8.22042e-05
-6.82949e-06
-9.44695e-05
-1.32434e-05
-0.000112907
-1.92432e-05
-0.000140549
-2.11833e-05
-0.000182086
-1.08055e-05
-0.000244405
2.73937e-05
-0.000336035
0.000119071
-0.000461459
0.000301161
-0.000595226
0.000603971
-0.000599257
0.000935679
-0.00015519
0.000843983
0.000527398
-0.000389139
-0.0021934
-0.00115881
0.00488857
-0.000704292
0.00221866
-0.000692345
0.0015375
-0.000694626
0.00116059
-0.000657991
0.000962187
-0.000634265
0.00077327
-0.000609348
0.000584712
-0.000562357
0.000435578
-0.000490898
0.000327264
-0.000407228
0.000245067
-0.000324382
0.000180756
-0.000251254
0.000130771
-0.00019181
9.30563e-05
-0.000146507
6.5568e-05
-0.00011388
4.61209e-05
-9.16765e-05
3.26762e-05
-7.74774e-05
2.35907e-05
-6.90331e-05
1.76196e-05
-6.44403e-05
1.38574e-05
-6.23493e-05
1.15467e-05
-6.19454e-05
1.00959e-05
-6.28514e-05
9.03336e-06
-6.50516e-05
7.94697e-06
-6.88296e-05
6.4855e-06
-7.46774e-05
4.42679e-06
-8.32906e-05
1.78087e-06
-9.53189e-05
-1.2178e-06
-0.000111034
-3.53045e-06
-0.000129592
-2.62647e-06
-0.00014721
6.81382e-06
-0.000154796
3.49862e-05
-0.000132227
9.65171e-05
-4.21765e-05
0.000211142
0.000178653
0.000383202
0.000583993
0.000530433
0.00102192
0.000406151
0.000944269
-0.000311418
-0.00120125
-0.0104472
-0.0137477
-0.00882406
-0.00658442
-0.00503418
-0.00386829
-0.00290663
-0.00213773
-0.00155965
-0.00113199
-0.000813364
-0.000577353
-0.000405919
-0.000284658
-0.000201255
-0.000145452
-0.000109189
-8.64425e-05
-7.28352e-05
-6.52381e-05
-6.14333e-05
-5.99681e-05
-5.99865e-05
-6.11053e-05
-6.33516e-05
-6.70996e-05
-7.29419e-05
-8.1459e-05
-9.29968e-05
-0.000106863
-0.00011984
-0.000123386
-9.87556e-05
-1.25692e-05
0.000188299
0.000561282
0.0010814
0.00147677
0.00115367
)
;

boundaryField
{
    floor
    {
        type            calculated;
        value           nonuniform List<scalar> 
36
(
0
0
0
0
0
0
0
0
0
0
0
0
0
0
0
0
0
0
0
-8.224e-07
-2.09021e-06
-3.07357e-06
-3.53116e-06
-3.39142e-06
-3.93086e-06
-4.61769e-06
-5.55739e-07
-9.03011e-07
-1.05293e-06
-1.3733e-06
-7.98252e-07
-2.13619e-06
-1.89579e-06
-2.45501e-06
-2.4912e-06
-2.42444e-06
)
;
    }
    ceiling
    {
        type            calculated;
        value           nonuniform List<scalar> 
43
(
-3.70366e-05
-3.66399e-05
-3.61123e-05
-2.22263e-05
-1.43069e-05
-7.13247e-06
-1.31542e-06
2.95289e-06
5.73422e-06
7.39165e-06
8.34432e-06
8.89931e-06
9.24063e-06
9.46685e-06
9.62872e-06
9.7516e-06
9.84742e-06
9.92125e-06
9.97582e-06
1.00151e-05
1.00454e-05
1.00743e-05
1.01069e-05
1.01448e-05
1.01858e-05
1.0226e-05
1.02616e-05
1.02904e-05
1.03125e-05
1.03285e-05
1.03432e-05
1.0354e-05
1.03522e-05
1.03311e-05
1.02828e-05
1.02437e-05
1.03547e-05
1.08239e-05
1.17213e-05
1.35282e-05
1.20992e-05
9.64161e-06
-5.799e-05
)
;
    }
    sWall
    {
        type            calculated;
        value           uniform -0.000217502;
    }
    nWall
    {
        type            calculated;
        value           nonuniform List<scalar> 6(-2.29789e-05 -2.46333e-05 -2.7587e-05 -4.22345e-05 -4.78348e-05 -6.10724e-05);
    }
    sideWalls
    {
        type            empty;
        value           nonuniform 0();
    }
    glass1
    {
        type            calculated;
        value           nonuniform List<scalar> 9(-4.37537e-05 -0.000116446 -0.00017907 -0.000235225 -0.000287042 -0.00033631 -0.000386765 -0.000442454 -0.000504008);
    }
    glass2
    {
        type            calculated;
        value           nonuniform List<scalar> 2(-0.000179824 -0.000203853);
    }
    sun
    {
        type            calculated;
        value           uniform 0;
    }
    Table_master
    {
        type            calculated;
        value           nonuniform List<scalar> 9(-1.52396e-07 -1.52603e-07 -1.52624e-07 -1.52628e-07 -1.52628e-07 -1.52627e-07 -1.52624e-07 -1.52607e-07 -1.52448e-07);
    }
    Table_slave
    {
        type            calculated;
        value           nonuniform List<scalar> 9(1.5209e-07 1.52314e-07 1.52329e-07 1.52335e-07 1.5234e-07 1.52345e-07 1.52339e-07 1.52313e-07 1.52126e-07);
    }
    inlet
    {
        type            calculated;
        value           uniform -0.0108207;
    }
    outlet
    {
        type            calculated;
        value           nonuniform List<scalar> 2(0.0107002 0.00333583);
    }
}


// ************************************************************************* //
