/*--------------------------------*- C++ -*----------------------------------*\
  =========                 |
  \\      /  F ield         | OpenFOAM: The Open Source CFD Toolbox
   \\    /   O peration     | Website:  https://openfoam.org
    \\  /    A nd           | Version:  6
     \\/     M anipulation  |
\*---------------------------------------------------------------------------*/
FoamFile
{
    version     2.0;
    format      ascii;
    class       volScalarField;
    location    "10";
    object      T;
}
// * * * * * * * * * * * * * * * * * * * * * * * * * * * * * * * * * * * * * //

dimensions      [0 0 0 1 0 0 0];

internalField   nonuniform List<scalar> 
458
(
304.456
304.166
304.108
304.079
304.064
304.064
304.075
304.091
304.108
304.121
304.13
304.135
304.138
304.141
304.146
304.153
304.145
304.144
304.144
304.144
304.145
304.145
304.146
304.146
304.146
304.146
304.146
304.146
304.145
304.145
304.145
304.146
304.154
304.568
304.191
304.083
304.024
303.995
303.99
304.006
304.033
304.062
304.088
304.108
304.121
304.129
304.134
304.138
304.14
304.143
304.152
304.145
304.141
304.14
304.14
304.14
304.14
304.14
304.14
304.14
304.14
304.14
304.14
304.14
304.14
304.14
304.141
304.142
304.147
304.678
304.208
304.054
303.968
303.923
303.913
303.933
303.971
304.015
304.055
304.085
304.106
304.12
304.128
304.133
304.136
304.139
304.142
304.142
304.139
304.139
304.139
304.138
304.138
304.139
304.139
304.139
304.139
304.139
304.139
304.139
304.139
304.139
304.14
304.141
304.144
304.781
304.219
304.02
303.905
303.841
303.821
303.843
303.897
303.959
304.016
304.059
304.09
304.11
304.122
304.13
304.134
304.136
304.138
304.139
304.139
304.138
304.138
304.138
304.138
304.137
304.137
304.137
304.137
304.137
304.137
304.138
304.138
304.138
304.139
304.14
304.142
304.144
304.875
304.233
303.996
303.853
303.762
303.716
303.734
303.804
303.891
303.97
304.03
304.072
304.1
304.116
304.126
304.132
304.135
304.136
304.137
304.138
304.138
304.138
304.137
304.137
304.137
304.137
304.137
304.137
304.137
304.138
304.138
304.138
304.139
304.14
304.142
304.144
304.148
304.152
304.154
304.168
304.963
304.276
304.023
303.86
303.724
303.614
303.604
303.691
303.81
303.917
303.998
304.054
304.089
304.111
304.123
304.13
304.134
304.136
304.137
304.137
304.137
304.137
304.137
304.137
304.137
304.137
304.137
304.137
304.137
304.138
304.138
304.138
304.14
304.141
304.145
304.149
304.156
304.164
304.164
304.171
305.078
304.398
304.172
304.014
303.801
303.551
303.458
303.551
303.711
303.857
303.966
304.037
304.081
304.107
304.121
304.129
304.133
304.135
304.136
304.137
304.137
304.137
304.137
304.137
304.137
304.137
304.137
304.137
304.137
304.138
304.138
304.139
304.14
304.143
304.148
304.157
304.17
304.185
304.186
304.185
305.268
304.721
304.526
304.358
304.047
303.572
303.296
303.371
303.592
303.796
303.938
304.026
304.077
304.106
304.121
304.129
304.133
304.135
304.136
304.136
304.137
304.137
304.137
304.137
304.137
304.137
304.137
304.137
304.137
304.137
304.138
304.139
304.141
304.144
304.152
304.166
304.19
304.222
304.248
304.285
305.551
305.282
305.009
304.705
304.231
303.452
302.986
303.104
303.455
303.745
303.924
304.025
304.079
304.107
304.122
304.129
304.133
304.135
304.136
304.136
304.136
304.136
304.137
304.137
304.137
304.137
304.137
304.137
304.137
304.137
304.138
304.138
304.14
304.145
304.154
304.174
304.212
304.26
304.294
304.318
296.523
297.329
298.035
299.459
301.205
302.568
303.354
303.749
303.944
304.039
304.087
304.112
304.124
304.13
304.133
304.135
304.135
304.136
304.136
304.136
304.136
304.136
304.136
304.136
304.136
304.136
304.136
304.137
304.137
304.138
304.139
304.142
304.149
304.162
304.182
304.206
304.208
304.2
297.171
298.272
299.561
300.947
302.168
303.048
303.572
303.852
303.994
304.066
304.101
304.119
304.127
304.131
304.133
304.134
304.135
304.135
304.135
304.135
304.135
304.135
304.135
304.135
304.135
304.135
304.135
304.136
304.136
304.136
304.137
304.139
304.143
304.15
304.161
304.171
304.169
304.178
299.569
299.485
299.453
300.707
301.675
302.505
303.146
303.59
303.855
303.996
304.067
304.102
304.118
304.126
304.129
304.131
304.131
304.132
304.132
304.132
304.132
304.132
304.132
304.132
304.132
304.132
304.132
304.132
304.132
304.132
304.132
304.132
304.133
304.133
304.135
304.138
304.143
304.147
304.146
304.167
)
;

boundaryField
{
    floor
    {
        type            wallHeatTransfer;
        Tinf            uniform 305.2;
        alphaWall       uniform 0.24;
        value           nonuniform List<scalar> 
36
(
304.221
304.26
304.233
304.225
304.225
304.231
304.243
304.25
304.253
304.253
304.253
304.253
304.253
304.251
304.246
304.237
304.234
304.241
304.264
304.264
304.24
304.227
304.212
304.213
304.224
304.249
304.221
304.204
304.217
304.247
304.26
304.247
304.23
304.208
304.209
304.197
)
;
    }
    ceiling
    {
        type            wallHeatTransfer;
        Tinf            uniform 303.2;
        alphaWall       uniform 0.24;
        value           nonuniform List<scalar> 
43
(
299.771
299.686
299.652
300.827
301.752
302.541
303.15
303.57
303.819
303.951
304.017
304.048
304.063
304.069
304.072
304.073
304.073
304.073
304.072
304.072
304.072
304.072
304.072
304.072
304.072
304.071
304.071
304.071
304.071
304.071
304.071
304.071
304.071
304.072
304.074
304.078
304.082
304.083
304.077
304.088
305.455
305.204
297.529
)
;
    }
    sWall
    {
        type            wallHeatTransfer;
        Tinf            uniform 315.2;
        alphaWall       uniform 0.36;
        value           uniform 300.838;
    }
    nWall
    {
        type            wallHeatTransfer;
        Tinf            uniform 307.2;
        alphaWall       uniform 0.36;
        value           nonuniform List<scalar> 6(304.512 304.474 304.473 304.501 304.486 304.525);
    }
    sideWalls
    {
        type            empty;
    }
    glass1
    {
        type            wallHeatTransfer;
        Tinf            uniform 315.2;
        alphaWall       uniform 4.3;
        value           nonuniform List<scalar> 9(310.605 310.032 309.727 309.526 309.386 309.295 309.302 309.463 309.755);
    }
    glass2
    {
        type            wallHeatTransfer;
        Tinf            uniform 307.2;
        alphaWall       uniform 4.3;
        value           nonuniform List<scalar> 2(305.926 305.964);
    }
    sun
    {
        type            wallHeatTransfer;
        Tinf            uniform 305.2;
        alphaWall       uniform 0.24;
        value           nonuniform List<scalar> 
14
(
304.507
304.228
304.173
304.143
304.129
304.128
304.139
304.155
304.172
304.186
304.196
304.202
304.207
304.211
)
;
    }
    Table_master
    {
        type            zeroGradient;
    }
    Table_slave
    {
        type            zeroGradient;
    }
    inlet
    {
        type            fixedValue;
        value           uniform 295.15;
    }
    outlet
    {
        type            zeroGradient;
    }
}


// ************************************************************************* //
