/*--------------------------------*- C++ -*----------------------------------*\
  =========                 |
  \\      /  F ield         | OpenFOAM: The Open Source CFD Toolbox
   \\    /   O peration     | Website:  https://openfoam.org
    \\  /    A nd           | Version:  6
     \\/     M anipulation  |
\*---------------------------------------------------------------------------*/
FoamFile
{
    version     2.0;
    format      ascii;
    class       volVectorField;
    location    "10";
    object      U;
}
// * * * * * * * * * * * * * * * * * * * * * * * * * * * * * * * * * * * * * //

dimensions      [0 1 -1 0 0 0 0];

internalField   nonuniform List<vector> 
458
(
(0.0334626 0.0664998 0)
(-0.133858 0.0084916 0)
(-0.124959 -0.0096231 0)
(-0.114934 -0.0143588 0)
(-0.0973143 -0.0185499 0)
(-0.0740819 -0.0201595 0)
(-0.0496334 -0.018395 0)
(-0.0281173 -0.0142192 0)
(-0.0119929 -0.00932634 0)
(-0.00168622 -0.00505754 0)
(0.00368603 -0.00204588 0)
(0.00565218 -0.000284466 0)
(0.00563998 0.000665432 0)
(0.0041429 0.00121951 0)
(-0.000749335 0.00210933 0)
(0.00748029 0.000717387 0)
(-0.0010636 -7.89552e-05 0)
(-0.000250434 -0.000586139 0)
(0.000537116 -0.000343203 0)
(0.000920887 -0.000126273 0)
(0.000996886 8.89886e-05 0)
(0.000924343 6.68847e-05 0)
(0.000924547 5.66376e-05 0)
(0.000928344 6.55899e-05 0)
(0.000914471 7.85374e-05 0)
(0.000877499 0.000100945 0)
(0.000799512 0.000143624 0)
(0.000643286 0.000194584 0)
(0.000404592 9.96547e-05 0)
(0.000670033 -0.000567888 0)
(0.00171981 -0.000921759 0)
(0.00258227 -0.000169619 0)
(-0.0072623 0.00126808 0)
(0.162391 0.139957 0)
(-0.115733 0.0380895 0)
(-0.10292 -0.00114291 0)
(-0.100825 -0.0181788 0)
(-0.0898424 -0.0300301 0)
(-0.0719817 -0.0359495 0)
(-0.0514812 -0.0350403 0)
(-0.0323713 -0.0289424 0)
(-0.0170506 -0.0205838 0)
(-0.00628906 -0.0125111 0)
(0.000275351 -0.00615644 0)
(0.00354399 -0.00193277 0)
(0.0046815 0.000593642 0)
(0.00473457 0.00209272 0)
(0.0044455 0.00301456 0)
(0.00492178 0.00432138 0)
(0.00303887 0.00691436 0)
(-0.0180015 0.0118576 0)
(0.0120944 0.000468547 0)
(0.000635934 -0.000142718 0)
(0.000475178 -0.000605653 0)
(0.000594338 -0.000572737 0)
(0.000776458 -0.000424878 0)
(0.000979051 2.41158e-05 0)
(0.000923341 4.12494e-05 0)
(0.000903704 3.59072e-05 0)
(0.000913702 5.1359e-05 0)
(0.000918887 7.37011e-05 0)
(0.000923355 0.000110004 0)
(0.000925764 0.000164142 0)
(0.000856899 0.000205708 0)
(0.00065265 5.02147e-05 0)
(0.00101241 -0.000881554 0)
(0.0014553 -0.000768289 0)
(0.00160717 0.000608166 0)
(-0.0141429 0.00249665 0)
(0.272692 0.20655 0)
(-0.116651 0.0631587 0)
(-0.0877494 0.00875889 0)
(-0.0900598 -0.0210518 0)
(-0.083123 -0.0417403 0)
(-0.0679095 -0.0526148 0)
(-0.0491085 -0.0526349 0)
(-0.0313303 -0.0444393 0)
(-0.0170647 -0.0325207 0)
(-0.00696594 -0.0206576 0)
(-0.00065851 -0.01101 0)
(0.00266088 -0.00429905 0)
(0.00395189 -0.000207149 0)
(0.00409624 0.00197909 0)
(0.00369491 0.00282624 0)
(0.00295864 0.00269998 0)
(0.00154075 0.00250441 0)
(-0.00943646 0.00114667 0)
(0.00919209 -0.00078044 0)
(0.000236413 -0.000388371 0)
(-4.65577e-07 -0.000398768 0)
(-8.13159e-07 -0.000603013 0)
(0.000203317 -0.000868433 0)
(0.00107819 -0.000831124 0)
(0.00102403 -0.00152515 0)
(0.000911492 -0.00166526 0)
(0.000910069 -0.00167931 0)
(0.000931147 -0.00166927 0)
(0.000981698 -0.00164177 0)
(0.0010689 -0.00157673 0)
(0.000986498 -0.00143285 0)
(0.000903512 -0.000743367 0)
(0.0028415 -0.00133829 0)
(0.00359285 -6.13314e-05 0)
(0.00387208 0.00260517 0)
(-0.0161182 0.00714975 0)
(0.366295 0.260775 0)
(-0.129265 0.0911898 0)
(-0.0782469 0.0228734 0)
(-0.0821573 -0.0214243 0)
(-0.0769919 -0.0527671 0)
(-0.0622593 -0.0698352 0)
(-0.0434745 -0.0709804 0)
(-0.0262447 -0.060218 0)
(-0.0131755 -0.0442664 0)
(-0.00448328 -0.0284021 0)
(0.000599299 -0.015463 0)
(0.00304808 -0.0063771 0)
(0.00379621 -0.000762131 0)
(0.00359867 0.00224355 0)
(0.00298122 0.00349026 0)
(0.0022663 0.00370121 0)
(0.00176565 0.00350002 0)
(0.000626126 0.00273057 0)
(0.000661474 0.00567824 0)
(0.000133241 0.000215832 0)
(-0.000965618 0.00011195 0)
(-0.00106268 -0.00012148 0)
(-0.00127984 -0.000405267 0)
(-0.00169601 -0.00067497 0)
(-0.00250994 -0.000464683 0)
(-0.00241108 -0.000669417 0)
(-0.00218721 -0.000787832 0)
(-0.00192211 -0.000926137 0)
(-0.00143902 -0.00113175 0)
(-0.000614119 -0.00144539 0)
(0.000695076 -0.00190675 0)
(0.00264092 -0.00251058 0)
(0.00617221 -0.00288416 0)
(0.00772477 -0.00258829 0)
(0.00947605 -0.000681343 0)
(0.011402 0.00287279 0)
(0.000309732 0.0141605 0)
(0.44544 0.306697 0)
(-0.148414 0.119987 0)
(-0.070341 0.0383712 0)
(-0.0724462 -0.0203849 0)
(-0.0670983 -0.0633962 0)
(-0.051989 -0.0875555 0)
(-0.033016 -0.0895159 0)
(-0.0166812 -0.0751702 0)
(-0.00561048 -0.0544429 0)
(0.000687463 -0.0343919 0)
(0.00357921 -0.0184622 0)
(0.00436649 -0.00741354 0)
(0.00400974 -0.000663535 0)
(0.00316515 0.00286826 0)
(0.00223219 0.00427327 0)
(0.0014265 0.00443415 0)
(0.000896526 0.00391244 0)
(0.000389761 0.00276162 0)
(-0.000224063 0.00171821 0)
(-0.000867505 0.000561729 0)
(-0.00137849 0.000320749 0)
(-0.00161503 0.000101265 0)
(-0.00186678 -7.96542e-05 0)
(-0.00215415 -0.00013378 0)
(-0.00236528 1.63209e-05 0)
(-0.00232603 -8.97872e-05 0)
(-0.00218598 -0.000272458 0)
(-0.00192864 -0.000552231 0)
(-0.0014673 -0.000986455 0)
(-0.000707262 -0.00164028 0)
(0.000473161 -0.00258408 0)
(0.00223518 -0.00384673 0)
(0.0050468 -0.0051197 0)
(0.00878068 -0.00592687 0)
(0.0143888 -0.00580828 0)
(0.0239612 -0.00437099 0)
(0.0399075 4.61029e-05 0)
(0.0672784 -0.00150035 0)
(0.0841433 0.0227468 0)
(-0.0461183 0.0655482 0)
(0.511652 0.348907 0)
(-0.170996 0.144112 0)
(-0.0576838 0.0479664 0)
(-0.0501834 -0.0214057 0)
(-0.0435356 -0.075151 0)
(-0.0302797 -0.106281 0)
(-0.014015 -0.107782 0)
(-0.00102804 -0.0880488 0)
(0.00598553 -0.0615522 0)
(0.00820102 -0.0374413 0)
(0.00769836 -0.0190463 0)
(0.00604605 -0.00673693 0)
(0.00416961 0.000487299 0)
(0.00252173 0.00404109 0)
(0.00126057 0.00526126 0)
(0.000387253 0.00516961 0)
(-0.000150121 0.00440476 0)
(-0.000538899 0.00324798 0)
(-0.000919702 0.0021017 0)
(-0.00131727 0.00112728 0)
(-0.00169268 0.000646727 0)
(-0.0019397 0.000345928 0)
(-0.00214664 0.000156471 0)
(-0.00231959 6.35206e-05 0)
(-0.00240018 1.51468e-05 0)
(-0.00237293 -0.000163953 0)
(-0.00228209 -0.000447388 0)
(-0.00209954 -0.000868118 0)
(-0.0017785 -0.00149893 0)
(-0.00126571 -0.00243427 0)
(-0.000494231 -0.00378418 0)
(0.000640528 -0.00564718 0)
(0.0024425 -0.00799123 0)
(0.00547252 -0.0107371 0)
(0.0107484 -0.0141459 0)
(0.0199221 -0.018682 0)
(0.0344028 -0.0238843 0)
(0.0522715 -0.023274 0)
(0.0703454 0.0147223 0)
(-0.0439186 0.0867382 0)
(0.588993 0.388939 0)
(-0.180835 0.14603 0)
(-0.0241333 0.031429 0)
(0.00797828 -0.0367324 0)
(0.0128324 -0.0917761 0)
(0.0155747 -0.124211 0)
(0.0202799 -0.121699 0)
(0.0234318 -0.0952474 0)
(0.0221012 -0.0630623 0)
(0.0174475 -0.0356575 0)
(0.0119711 -0.0160799 0)
(0.0072096 -0.00379724 0)
(0.00366845 0.00288651 0)
(0.00131436 0.00577203 0)
(-0.000114999 0.00640067 0)
(-0.000902331 0.00585804 0)
(-0.00128365 0.00480222 0)
(-0.00147736 0.00356947 0)
(-0.00162964 0.00241807 0)
(-0.00181614 0.00148373 0)
(-0.00202832 0.000904328 0)
(-0.0021958 0.000544816 0)
(-0.00233424 0.000319519 0)
(-0.00244131 0.000171311 0)
(-0.00249453 3.13994e-05 0)
(-0.00249961 -0.000198594 0)
(-0.00247855 -0.000540932 0)
(-0.00242432 -0.0010421 0)
(-0.00233 -0.00177849 0)
(-0.00220039 -0.00285044 0)
(-0.00205813 -0.00438341 0)
(-0.00194053 -0.00652497 0)
(-0.00181698 -0.00944359 0)
(-0.00144981 -0.0134816 0)
(-0.000308686 -0.0194987 0)
(0.00276854 -0.0288008 0)
(0.0101322 -0.0408564 0)
(0.024926 -0.0432952 0)
(0.0565053 0.00664836 0)
(-0.0479023 0.125979 0)
(0.720781 0.394271 0)
(-0.0366866 0.12141 0)
(0.0768879 -0.030784 0)
(0.136465 -0.0822796 0)
(0.132946 -0.108657 0)
(0.108262 -0.126172 0)
(0.0818263 -0.117861 0)
(0.0603169 -0.0873142 0)
(0.0419588 -0.0530866 0)
(0.026237 -0.0261409 0)
(0.0143853 -0.00845171 0)
(0.00647442 0.00164973 0)
(0.00173515 0.00637223 0)
(-0.000824912 0.00780419 0)
(-0.00203177 0.00746791 0)
(-0.00246951 0.00634437 0)
(-0.00251479 0.0049836 0)
(-0.00241852 0.00365823 0)
(-0.00232813 0.00252253 0)
(-0.00231024 0.00164152 0)
(-0.00235616 0.00105818 0)
(-0.00241978 0.000687389 0)
(-0.00248939 0.000447791 0)
(-0.00255523 0.000273946 0)
(-0.00260759 0.000101078 0)
(-0.0026552 -0.000139468 0)
(-0.00271734 -0.000484695 0)
(-0.00280956 -0.000979466 0)
(-0.00296304 -0.00168289 0)
(-0.00324485 -0.00266368 0)
(-0.00378768 -0.00399762 0)
(-0.0048366 -0.005772 0)
(-0.00680197 -0.00812956 0)
(-0.0103469 -0.0114599 0)
(-0.0165603 -0.0167576 0)
(-0.0267005 -0.0254362 0)
(-0.0397291 -0.0355 0)
(-0.0487588 -0.0267631 0)
(-0.0812488 0.0478942 0)
(-0.364163 0.167358 0)
(0.910092 0.361194 0)
(0.416493 0.238615 0)
(0.41741 0.173321 0)
(0.419468 0.088011 0)
(0.365212 0.0121933 0)
(0.274575 -0.0421938 0)
(0.17822 -0.0593859 0)
(0.103915 -0.0455439 0)
(0.0565775 -0.0235555 0)
(0.0276805 -0.00634702 0)
(0.0109302 0.00385012 0)
(0.00194939 0.00862061 0)
(-0.00238688 0.00995162 0)
(-0.0041117 0.00937352 0)
(-0.00448911 0.00793575 0)
(-0.00423976 0.00626698 0)
(-0.00377084 0.00469283 0)
(-0.00330573 0.00335023 0)
(-0.00295071 0.00228899 0)
(-0.00273493 0.00150801 0)
(-0.00263321 0.000986496 0)
(-0.0026012 0.000651223 0)
(-0.0026125 0.000430329 0)
(-0.00265078 0.000263938 0)
(-0.00270894 9.78559e-05 0)
(-0.0027955 -0.000118033 0)
(-0.00293071 -0.000417361 0)
(-0.0031434 -0.000830412 0)
(-0.00348558 -0.00138203 0)
(-0.0040561 -0.00207429 0)
(-0.00504434 -0.00285592 0)
(-0.00682098 -0.00357405 0)
(-0.0101275 -0.00392457 0)
(-0.0164766 -0.00343302 0)
(-0.0288316 -0.0014784 0)
(-0.0524951 0.00242199 0)
(-0.0953931 0.00693909 0)
(-0.162342 0.00421111 0)
(-0.263384 -0.0115783 0)
(-0.481086 -0.0242211 0)
(0.294498 -0.0466721 0)
(0.289809 -0.00429738 0)
(0.252679 -0.00245572 0)
(0.182445 0.00468664 0)
(0.112164 0.013718 0)
(0.0594329 0.0163403 0)
(0.0258028 0.015811 0)
(0.00653419 0.0152023 0)
(-0.0034901 0.0146294 0)
(-0.00772018 0.0133516 0)
(-0.00880361 0.0113906 0)
(-0.00831196 0.00912602 0)
(-0.00719268 0.00692203 0)
(-0.00595995 0.00499626 0)
(-0.00486528 0.00342995 0)
(-0.00400942 0.00221915 0)
(-0.00340765 0.00132638 0)
(-0.00302823 0.000700808 0)
(-0.00281537 0.000289235 0)
(-0.00271285 2.47355e-05 0)
(-0.00268288 -0.000152317 0)
(-0.00270344 -0.000289761 0)
(-0.00276664 -0.000427682 0)
(-0.00287957 -0.000599723 0)
(-0.00306129 -0.000828226 0)
(-0.00334123 -0.00112697 0)
(-0.00376454 -0.00149041 0)
(-0.0044004 -0.00186434 0)
(-0.00535268 -0.00209107 0)
(-0.00678058 -0.00181236 0)
(-0.00893036 -0.000328071 0)
(-0.0121509 0.00358101 0)
(-0.0167421 0.0117558 0)
(-0.0220716 0.0260968 0)
(-0.0254948 0.0447772 0)
(-0.0241277 0.0527025 0)
(0.0332339 -0.00223093 0)
(-0.143941 -0.139389 0)
(0.140909 0.240139 0)
(-0.0487926 0.127826 0)
(-0.0391157 0.0793935 0)
(-0.031833 0.0602964 0)
(-0.0296973 0.0506263 0)
(-0.0288748 0.0400891 0)
(-0.0276742 0.0298179 0)
(-0.0258584 0.0220002 0)
(-0.0230868 0.0164412 0)
(-0.0195323 0.0121669 0)
(-0.0157956 0.00868356 0)
(-0.0123502 0.00583643 0)
(-0.00945865 0.00358115 0)
(-0.00719672 0.00186174 0)
(-0.00552766 0.000594384 0)
(-0.00436261 -0.000313787 0)
(-0.00359615 -0.000945371 0)
(-0.00312501 -0.00136986 0)
(-0.00285743 -0.00164505 0)
(-0.00272192 -0.00182511 0)
(-0.00267263 -0.0019536 0)
(-0.00268463 -0.00206282 0)
(-0.00274985 -0.00217738 0)
(-0.00287474 -0.00231602 0)
(-0.00307681 -0.0024898 0)
(-0.00338183 -0.00270111 0)
(-0.0038194 -0.0029314 0)
(-0.00441424 -0.00311466 0)
(-0.00516203 -0.00310079 0)
(-0.00597642 -0.00253231 0)
(-0.00659107 -0.000756886 0)
(-0.00639722 0.00323629 0)
(-0.0042344 0.0107032 0)
(0.00182452 0.0224131 0)
(0.0140403 0.0342518 0)
(0.0330058 0.0298394 0)
(0.0826636 -0.0159963 0)
(-0.150044 -0.0716851 0)
(-0.335774 -0.449173 0)
(-0.559192 -0.135875 0)
(-0.416231 0.130678 0)
(-0.361715 0.060751 0)
(-0.252193 0.0441516 0)
(-0.191655 0.0435744 0)
(-0.145751 0.0461076 0)
(-0.108841 0.0458412 0)
(-0.0799942 0.0435138 0)
(-0.0582609 0.0411759 0)
(-0.0420148 0.0394441 0)
(-0.0299204 0.0382452 0)
(-0.0210704 0.0375067 0)
(-0.0147495 0.0371635 0)
(-0.0103552 0.0371355 0)
(-0.00738112 0.0373248 0)
(-0.0054222 0.0376282 0)
(-0.00417179 0.0379522 0)
(-0.00340506 0.0382323 0)
(-0.00296051 0.0384505 0)
(-0.00272314 0.0386404 0)
(-0.00261407 0.0388555 0)
(-0.00258474 0.0391349 0)
(-0.00260915 0.0394809 0)
(-0.00267988 0.0398574 0)
(-0.00280611 0.04021 0)
(-0.00300896 0.0404925 0)
(-0.0033138 0.0406789 0)
(-0.00374214 0.040777 0)
(-0.0042904 0.0408279 0)
(-0.00488402 0.0409736 0)
(-0.00527976 0.041382 0)
(-0.0048912 0.0423223 0)
(-0.00269386 0.0442794 0)
(0.00325826 0.047976 0)
(0.0148901 0.0537232 0)
(0.0333782 0.0599684 0)
(0.0570962 0.0609338 0)
(0.108997 0.0486624 0)
(-0.208392 0.0387281 0)
)
;

boundaryField
{
    floor
    {
        type            noSlip;
    }
    ceiling
    {
        type            noSlip;
    }
    sWall
    {
        type            noSlip;
    }
    nWall
    {
        type            noSlip;
    }
    sideWalls
    {
        type            empty;
    }
    glass1
    {
        type            noSlip;
    }
    glass2
    {
        type            noSlip;
    }
    sun
    {
        type            noSlip;
    }
    Table_master
    {
        type            noSlip;
    }
    Table_slave
    {
        type            noSlip;
    }
    inlet
    {
        type            fixedValue;
        value           uniform (0.46194 -0.191342 0);
    }
    outlet
    {
        type            zeroGradient;
    }
}


// ************************************************************************* //
