/*--------------------------------*- C++ -*----------------------------------*\
  =========                 |
  \\      /  F ield         | OpenFOAM: The Open Source CFD Toolbox
   \\    /   O peration     | Website:  https://openfoam.org
    \\  /    A nd           | Version:  6
     \\/     M anipulation  |
\*---------------------------------------------------------------------------*/
FoamFile
{
    version     2.0;
    format      ascii;
    class       volScalarField;
    location    "1480";
    object      epsilon;
}
// * * * * * * * * * * * * * * * * * * * * * * * * * * * * * * * * * * * * * //

dimensions      [0 2 -3 0 0 0 0];

internalField   nonuniform List<scalar> 
458
(
0.000432832
0.000557945
0.000596638
0.000686432
0.000776729
0.000869205
0.000968788
0.00107739
0.00117196
0.00123411
0.00124123
0.00117482
0.00102228
0.000744124
0.000324975
3.92331e-05
6.32046e-05
9.21074e-05
0.000104417
9.95926e-05
8.16149e-05
6.44043e-05
5.12213e-05
4.13707e-05
3.39152e-05
2.81878e-05
2.37388e-05
2.02083e-05
1.73141e-05
1.48374e-05
1.26004e-05
1.1384e-05
8.83734e-06
0.00106105
0.00158339
0.000518521
0.000502697
0.000518552
0.000551034
0.000606391
0.000688612
0.00077987
0.000854094
0.000882177
0.000847922
0.000756972
0.000624048
0.000502055
0.000747432
0.000426806
0.00023181
3.82943e-05
7.53664e-05
9.27474e-05
9.34334e-05
8.97352e-05
9.00385e-05
7.05626e-05
5.34951e-05
4.08073e-05
3.1537e-05
2.4741e-05
1.97227e-05
1.59676e-05
1.31686e-05
1.14065e-05
1.0689e-05
3.04892e-05
2.00748e-05
0.00190712
0.00384786
0.000603827
0.00045836
0.00046611
0.000508263
0.000580585
0.000683812
0.000797306
0.000884565
0.000918235
0.000888124
0.000802158
0.000667283
0.000517725
0.000416482
0.000353127
0.000381936
0.000139907
0.000139217
0.000125575
0.000111524
0.000103531
0.000198172
0.000132979
9.11352e-05
6.45266e-05
4.72862e-05
3.58128e-05
2.7987e-05
2.25644e-05
1.88681e-05
1.48285e-05
1.31281e-05
6.48736e-05
3.31329e-05
0.00306286
0.00799441
0.00090389
0.000439031
0.000429279
0.000481314
0.000575059
0.00071807
0.000862873
0.000958268
0.000989517
0.000953188
0.000855472
0.000703518
0.000548652
0.000432474
0.000365961
0.000380584
0.000583991
0.000375908
0.000245219
0.000178317
0.000140495
0.000123017
0.000283281
0.000218196
0.00018012
0.000155055
0.000135769
0.000118249
0.000103075
8.85131e-05
7.3312e-05
4.53999e-05
2.92918e-05
0.000114639
5.06234e-05
0.0046497
0.0144273
0.00174048
0.000470922
0.00039568
0.000451674
0.000589009
0.000833003
0.0010187
0.00111202
0.00112856
0.00106943
0.000937638
0.000753873
0.000564976
0.000420154
0.000331733
0.000302744
0.000303863
0.000253641
0.000209414
0.00017515
0.000146326
0.000122094
0.000113085
0.00010383
9.75507e-05
9.22036e-05
8.62059e-05
7.87734e-05
7.08873e-05
6.31583e-05
5.59038e-05
4.60298e-05
3.61902e-05
7.47563e-05
0.000114588
0.000120968
0.000143505
0.000184282
0.00687178
0.021735
0.00400202
0.000790877
0.000465196
0.00047417
0.000700952
0.00112018
0.00130647
0.00136613
0.00134382
0.00124636
0.00106742
0.00082538
0.000577749
0.000388806
0.000278883
0.00023857
0.000228271
0.000218282
0.000201174
0.000176796
0.000149326
0.000123779
0.000107345
0.000100921
9.97571e-05
9.93518e-05
9.72129e-05
9.1673e-05
8.17165e-05
7.04522e-05
5.98064e-05
5.01471e-05
4.34393e-05
5.55247e-05
8.83472e-05
0.000106128
0.000206706
0.000205618
0.00965898
0.0261941
0.0087963
0.0028013
0.00145467
0.00114139
0.00148363
0.00172708
0.00178636
0.00174946
0.00165009
0.00148371
0.00123015
0.00090826
0.000588334
0.000355967
0.00023455
0.000200255
0.000202416
0.000203063
0.00019008
0.000166895
0.000141371
0.000120226
0.000109085
0.000108562
0.000113672
0.000120162
0.000125736
0.000128185
0.000124106
0.000111093
9.74902e-05
8.59344e-05
8.04461e-05
8.87221e-05
0.000120583
0.000176775
0.000327316
0.000344802
0.0104469
0.0300956
0.0160952
0.0096532
0.0059709
0.0041815
0.00338429
0.00287653
0.00253858
0.00228157
0.00203944
0.00176126
0.00139739
0.000968487
0.000561421
0.000300527
0.00019043
0.00017443
0.000179683
0.000177167
0.000162248
0.000141993
0.000124147
0.000113549
0.000112237
0.000119066
0.000131178
0.000146862
0.000165745
0.000187735
0.000212033
0.000232945
0.00024601
0.00027312
0.000329073
0.000480059
0.000820463
0.00137758
0.00411005
0.00128191
0.00984343
0.0172556
0.0132404
0.00999032
0.00750825
0.00579422
0.00459002
0.00379118
0.00325153
0.00282413
0.00242725
0.00200668
0.00148398
0.000914141
0.000407067
0.000216123
0.000158917
0.000147572
0.000144497
0.00013697
0.000124631
0.00011251
0.000104983
0.000104113
0.000109952
0.00012152
0.000138067
0.000159895
0.000188364
0.000225721
0.000275035
0.000339927
0.000427243
0.000551956
0.000734037
0.000976753
0.00125102
0.00149865
0.00170334
0.00104493
0.00347926
0.00472061
0.00512322
0.00502831
0.00473317
0.00431997
0.00378363
0.00315836
0.00254799
0.00194845
0.0011638
0.000536578
0.000254556
0.000159698
0.000129175
0.000118204
0.000110935
0.000103117
9.54638e-05
8.99739e-05
8.84441e-05
9.13037e-05
9.81628e-05
0.000108617
0.000122669
0.000140899
0.000164554
0.00019576
0.000237987
0.000297008
0.000378471
0.000488607
0.000629977
0.000786496
0.000911374
0.000944894
0.000871305
0.000544329
0.0028951
0.00862104
0.00828235
0.00717317
0.00607528
0.00478959
0.00347844
0.0022568
0.00128296
0.000710063
0.00037524
0.000215403
0.000151253
0.000124161
0.000111079
0.000102189
9.41986e-05
8.70302e-05
8.16884e-05
7.89144e-05
7.89899e-05
8.20243e-05
8.79783e-05
9.70318e-05
0.000109706
0.000126909
0.000150032
0.000181148
0.000223215
0.000280004
0.000356644
0.000458336
0.000585907
0.000728732
0.000842198
0.000956453
0.000733739
0.000565826
0.00336791
0.00362376
0.00386702
0.00532546
0.00449752
0.00312995
0.00187934
0.00115787
0.000823527
0.000572199
0.000398415
0.000290006
0.000215267
0.000168085
0.00013972
0.000121148
0.000107465
9.65491e-05
8.81138e-05
8.27088e-05
8.075e-05
8.22172e-05
8.66746e-05
9.35157e-05
0.000102663
0.000114251
0.000128625
0.000146374
0.000168452
0.000196501
0.000232018
0.00027634
0.000331626
0.000400559
0.000486135
0.000603764
0.00066072
0.00062096
0.00049969
0.000395322
)
;

boundaryField
{
    floor
    {
        Cmu             0.09;
        kappa           0.41;
        E               9.8;
        type            epsilonWallFunction;
        value           nonuniform List<scalar> 
36
(
0.000324975
3.92331e-05
6.32046e-05
9.21074e-05
0.000104417
9.95926e-05
8.16149e-05
6.44043e-05
5.12213e-05
4.13707e-05
3.39152e-05
2.81878e-05
2.37388e-05
2.02083e-05
1.73141e-05
1.48374e-05
1.26004e-05
1.1384e-05
8.83734e-06
8.83734e-06
2.00748e-05
3.31329e-05
5.06234e-05
0.000120968
0.000143505
0.000184282
0.000324975
0.000747432
0.000426806
0.00023181
3.92331e-05
0.00023181
3.82943e-05
0.000381936
0.000139907
0.000583991
)
;
    }
    ceiling
    {
        Cmu             0.09;
        kappa           0.41;
        E               9.8;
        type            epsilonWallFunction;
        value           nonuniform List<scalar> 
43
(
0.00336791
0.00362376
0.00386702
0.00532546
0.00449752
0.00312995
0.00187934
0.00115787
0.000823527
0.000572199
0.000398415
0.000290006
0.000215267
0.000168085
0.00013972
0.000121148
0.000107465
9.65491e-05
8.81138e-05
8.27088e-05
8.075e-05
8.22172e-05
8.66746e-05
9.35157e-05
0.000102663
0.000114251
0.000128625
0.000146374
0.000168452
0.000196501
0.000232018
0.00027634
0.000331626
0.000400559
0.000486135
0.000603764
0.00066072
0.00062096
0.00049969
0.000395322
0.00984343
0.0172556
0.0028951
)
;
    }
    sWall
    {
        Cmu             0.09;
        kappa           0.41;
        E               9.8;
        type            epsilonWallFunction;
        value           uniform 0.00336791;
    }
    nWall
    {
        Cmu             0.09;
        kappa           0.41;
        E               9.8;
        type            epsilonWallFunction;
        value           nonuniform List<scalar> 6(0.000184282 0.000205618 0.000344802 0.000544329 0.000565826 0.000395322);
    }
    sideWalls
    {
        type            empty;
    }
    glass1
    {
        Cmu             0.09;
        kappa           0.41;
        E               9.8;
        type            epsilonWallFunction;
        value           nonuniform List<scalar> 9(0.000432832 0.00106105 0.00190712 0.00306286 0.0046497 0.00687178 0.00965898 0.0104469 0.00984343);
    }
    glass2
    {
        Cmu             0.09;
        kappa           0.41;
        E               9.8;
        type            epsilonWallFunction;
        value           nonuniform List<scalar> 2(0.00128191 0.00104493);
    }
    sun
    {
        Cmu             0.09;
        kappa           0.41;
        E               9.8;
        type            epsilonWallFunction;
        value           nonuniform List<scalar> 
14
(
0.000432832
0.000557945
0.000596638
0.000686432
0.000776729
0.000869205
0.000968788
0.00107739
0.00117196
0.00123411
0.00124123
0.00117482
0.00102228
0.000744124
)
;
    }
    Table_master
    {
        Cmu             0.09;
        kappa           0.41;
        E               9.8;
        type            epsilonWallFunction;
        value           nonuniform List<scalar> 9(0.000198172 0.000132979 9.11352e-05 6.45266e-05 4.72862e-05 3.58128e-05 2.7987e-05 2.25644e-05 1.88681e-05);
    }
    Table_slave
    {
        Cmu             0.09;
        kappa           0.41;
        E               9.8;
        type            epsilonWallFunction;
        value           nonuniform List<scalar> 9(0.000283281 0.000218196 0.00018012 0.000155055 0.000135769 0.000118249 0.000103075 8.85131e-05 7.3312e-05);
    }
    inlet
    {
        type            turbulentMixingLengthDissipationRateInlet;
        mixingLength    0.01;
        phi             phi;
        k               k;
        value           uniform 0.000471672;
    }
    outlet
    {
        type            zeroGradient;
    }
}


// ************************************************************************* //
