/*--------------------------------*- C++ -*----------------------------------*\
  =========                 |
  \\      /  F ield         | OpenFOAM: The Open Source CFD Toolbox
   \\    /   O peration     | Website:  https://openfoam.org
    \\  /    A nd           | Version:  6
     \\/     M anipulation  |
\*---------------------------------------------------------------------------*/
FoamFile
{
    version     2.0;
    format      ascii;
    class       volScalarField;
    location    "7600";
    object      alphat;
}
// * * * * * * * * * * * * * * * * * * * * * * * * * * * * * * * * * * * * * //

dimensions      [1 -1 -1 0 0 0 0];

internalField   nonuniform List<scalar> 
778
(
0.00104097
0.00111051
0.00110651
0.00115455
0.00119858
0.00123858
0.00127584
0.00131176
0.00134793
0.00138638
0.00142306
0.0014579
0.00149222
0.00152912
0.00156761
0.000736961
0.00105541
0.00106404
0.00103835
0.000995312
0.000937772
0.000880396
0.000827517
0.000779843
0.000737108
0.000699043
0.000664858
0.000633719
0.000604655
0.000576367
0.000546787
0.000522212
0.000472652
0.00152464
0.0030071
0.00263917
0.00304615
0.00334139
0.00365443
0.00396675
0.00425468
0.00448657
0.00462173
0.00470127
0.00466884
0.00443619
0.00385947
0.00281887
0.00171644
0.00163657
0.00156653
0.00131828
0.00224595
0.00311324
0.00362566
0.00364977
0.0028805
0.00246345
0.00217454
0.00195528
0.00178082
0.00163191
0.0015003
0.00137787
0.0012581
0.00115062
0.00105793
0.0011914
0.000599178
0.0019341
0.00419843
0.00311337
0.0044531
0.00497555
0.00541766
0.00581926
0.00617284
0.00647257
0.00670778
0.00693571
0.00717562
0.00739611
0.00752736
0.00744038
0.00681209
0.0049819
0.00192145
0.00166361
0.00355925
0.00496657
0.00563219
0.00512166
0.00135162
0.00117535
0.00103939
0.000932997
0.000848309
0.000779933
0.000724146
0.000678764
0.000643378
0.000707369
0.000832024
0.00131706
0.000681548
0.00232904
0.00565777
0.00297904
0.00500696
0.00578033
0.00619398
0.0064981
0.00672317
0.00689132
0.00702791
0.00722208
0.00755008
0.00802856
0.00863002
0.00923436
0.00953169
0.00894916
0.00667295
0.00191394
0.00443635
0.00659679
0.00769289
0.00796263
0.00679691
0.00153913
0.00139992
0.00129221
0.00120267
0.00112636
0.00105781
0.000993166
0.000928957
0.000859607
0.000803187
0.0008325
0.00142562
0.000750282
0.00271827
0.00748948
0.00300528
0.00475975
0.00594882
0.00630133
0.00642907
0.00643378
0.00636987
0.00631358
0.00639512
0.00671384
0.00729836
0.00812587
0.00908559
0.00996974
0.0105313
0.010526
0.00944809
0.0096148
0.00983465
0.00986447
0.00966308
0.00904406
0.00719691
0.00621672
0.00554549
0.00499964
0.00446482
0.00394692
0.00344024
0.00293409
0.00241392
0.0018543
0.00141514
0.00141303
0.00111772
0.000894403
0.00117869
0.00112722
0.00310118
0.00953936
0.00353759
0.00401379
0.00569963
0.00609067
0.00605891
0.00584053
0.00552866
0.00527162
0.00526617
0.00559977
0.0062654
0.00722445
0.00834745
0.00946931
0.0104255
0.0110367
0.0111487
0.011037
0.0108405
0.0105618
0.010204
0.00974942
0.00908652
0.00844822
0.00786888
0.00730837
0.00670373
0.00605832
0.00536896
0.00462961
0.00383557
0.00299316
0.00223085
0.00167503
0.00129973
0.00146005
0.00253632
0.00134832
0.0034919
0.0114345
0.00471354
0.00328814
0.00512132
0.00576103
0.00568944
0.00533621
0.00482415
0.00437369
0.00436058
0.00478111
0.0055423
0.00661342
0.00783374
0.00904221
0.010083
0.010829
0.0111725
0.0111461
0.0109005
0.0105288
0.0101034
0.00967942
0.00926959
0.00889374
0.00854085
0.00816388
0.00770903
0.00716174
0.00651368
0.00576162
0.00490861
0.00397695
0.00306709
0.00221809
0.00163287
0.00146142
0.00257131
0.00158924
0.00382763
0.0128675
0.00642565
0.00313037
0.00405723
0.00510741
0.00525315
0.00496261
0.00435808
0.00374469
0.00388333
0.00443904
0.00528953
0.00639301
0.00765961
0.00892458
0.0100046
0.0107556
0.0110971
0.0110529
0.0107361
0.0102688
0.00976653
0.00932131
0.00897822
0.00873318
0.00854225
0.00833458
0.00804595
0.00764198
0.0071065
0.00643622
0.00563796
0.00473654
0.00380116
0.00285445
0.00200252
0.00132473
0.00373164
0.00207863
0.00392894
0.0121743
0.00794905
0.00404568
0.00275037
0.00337139
0.00394414
0.00399158
0.00352413
0.00342511
0.00378076
0.0044338
0.00535258
0.00652199
0.00784897
0.00915286
0.0102293
0.0109226
0.0111666
0.0109997
0.0105404
0.00993815
0.00934106
0.00886501
0.00856289
0.00841454
0.0083474
0.00826772
0.00810209
0.00781063
0.00737736
0.00680057
0.00608837
0.00526166
0.00435673
0.00334232
0.00198972
0.00160605
0.0057153
0.00235171
0.00384957
0.0098125
0.00820735
0.00555192
0.00366723
0.00284035
0.002691
0.00281764
0.00305395
0.00343063
0.00396484
0.00469937
0.00569803
0.0069584
0.00835748
0.00967997
0.0107005
0.0112631
0.0113222
0.0109449
0.0102807
0.009517
0.00883622
0.00837025
0.00815672
0.00813159
0.00817786
0.00817711
0.00807012
0.00783419
0.00746154
0.00695185
0.00631053
0.00554414
0.00461717
0.00327915
0.00159209
0.00263497
0.00588644
0.00240947
0.00360606
0.00838533
0.00793391
0.00635223
0.00488949
0.00393695
0.00346614
0.00336011
0.00355572
0.00391543
0.00443767
0.00521277
0.00631544
0.0076974
0.00916812
0.0104631
0.0113429
0.0116703
0.0114398
0.0107669
0.00985388
0.00894121
0.00824922
0.00790211
0.00786155
0.00797503
0.00809011
0.0080923
0.00797963
0.00775082
0.00740086
0.00692529
0.00632015
0.00555481
0.00442343
0.00260037
0.0016717
0.00333402
0.00587327
0.00240193
0.00328343
0.00755923
0.00765186
0.00672269
0.00571985
0.00496475
0.00452026
0.00436128
0.00440226
0.00462019
0.0051002
0.00596642
0.00724183
0.00877338
0.0102763
0.0114422
0.0120431
0.0119924
0.0113537
0.0103154
0.00915994
0.00819708
0.00765309
0.00754195
0.00763504
0.00778616
0.00788694
0.00785995
0.00772945
0.00749727
0.00715504
0.00669106
0.00608396
0.00521994
0.00359294
0.00181105
0.00215828
0.00374485
0.00543966
0.00233623
0.00299369
0.00675904
0.00730376
0.00686597
0.00622314
0.0056828
0.00532352
0.00514851
0.00509776
0.00528506
0.00589525
0.00702812
0.00857276
0.010232
0.0116385
0.0124836
0.0126042
0.0120064
0.0108599
0.00945561
0.00818975
0.00737791
0.00701619
0.00696366
0.00706165
0.00720266
0.00729876
0.00727729
0.00714942
0.00691474
0.00656336
0.00607932
0.00541647
0.00434965
0.00258925
0.00175055
0.00256819
0.00393032
0.0048819
0.00225208
0.0030032
0.00670775
0.00746082
0.00694734
0.00642744
0.00600163
0.00569486
0.00549718
0.0054922
0.00594579
0.0070225
0.00862882
0.0104413
0.0120443
0.0130695
0.0132974
0.012701
0.0114168
0.00977335
0.00818773
0.00703872
0.00635298
0.00601591
0.00592127
0.0059786
0.0061024
0.00620558
0.00619687
0.00606243
0.0057983
0.00539994
0.00487043
0.00420574
0.00332561
0.00224492
0.00186034
0.00271707
0.00407726
0.00537096
0.00224481
0.00270946
0.00281978
0.00416524
0.00489747
0.00512523
0.00513067
0.00508327
0.00518183
0.00581518
0.00715822
0.00904257
0.011073
0.0128091
0.0138856
0.0140863
0.0133666
0.0118996
0.00996291
0.00811749
0.00667167
0.00568785
0.00510384
0.00481509
0.00470757
0.00470388
0.00474952
0.00478227
0.00471919
0.00451863
0.00418417
0.00374453
0.00326544
0.00282394
0.00245649
0.00215965
0.00211811
0.00284765
0.00441515
0.00555693
0.00240992
0.000965258
0.0017411
0.00267212
0.003419
0.00428698
0.00575916
0.00791971
0.0103089
0.0124756
0.0140898
0.0149302
0.0148541
0.0138644
0.0120596
0.00991084
0.00786906
0.00623953
0.00512883
0.00449661
0.00416542
0.00398238
0.00386956
0.00379225
0.00372652
0.00363975
0.00348914
0.00325087
0.00295483
0.00266639
0.00245676
0.00236004
0.00236877
0.00247465
0.00273726
0.00341635
0.0052071
0.00579713
0.00244943
0.00178732
0.00247431
0.0036028
0.00561527
0.00833854
0.0110541
0.0131463
0.0146456
0.0155447
0.0157875
0.015264
0.0138649
0.0118022
0.00946993
0.00732313
0.00569252
0.00470312
0.0041905
0.00391969
0.0037557
0.00364562
0.00356836
0.00350946
0.00345128
0.00337058
0.00324712
0.00308974
0.00293541
0.0028311
0.00281164
0.00288347
0.00303534
0.00327019
0.00364246
0.00431189
0.00591961
0.00628657
0.00249001
0.00323835
0.00785569
0.00725192
0.00650331
0.00826028
0.0109944
0.0132898
0.0148272
0.0156257
0.0158109
0.0154846
0.0146075
0.0131378
0.0111441
0.00890436
0.00684517
0.0053854
0.0045765
0.00415691
0.00391251
0.0037546
0.00365733
0.0036125
0.00361054
0.00363454
0.00366065
0.0036636
0.0036309
0.00358853
0.0035625
0.00357172
0.00362728
0.0037288
0.00386773
0.00404063
0.00426727
0.00460884
0.00516765
0.0054308
0.00237419
0.00309564
0.00598526
0.0077466
0.00990838
0.010996
0.0121122
0.0127559
0.0129023
0.0126438
0.0120476
0.0111434
0.00994927
0.00853066
0.00706161
0.00580146
0.0049031
0.00430708
0.00392246
0.00365899
0.00347815
0.00337202
0.00334118
0.0033826
0.00348391
0.00362161
0.00376279
0.00387197
0.00393033
0.0039732
0.00402537
0.00410052
0.00420419
0.0043363
0.00449568
0.00468737
0.00492316
0.00519268
0.00564215
0.00600074
0.00231774
0.00289526
0.00248021
0.0024674
0.00253817
0.00259595
0.00251512
0.00236141
0.00218375
0.00200758
0.00184256
0.00169085
0.00155376
0.00143563
0.00134335
0.00128161
0.00124971
0.00123997
0.0012416
0.00125226
0.00127094
0.00129628
0.00132622
0.0013584
0.0013908
0.00142215
0.0014521
0.00148131
0.00151099
0.00154205
0.00157663
0.00161631
0.00166191
0.00171365
0.00177133
0.00183479
0.00190595
0.00199886
0.00213208
0.00230453
0.00223248
)
;

boundaryField
{
    floor
    {
        type            compressible::alphatWallFunction;
        Prt             0.85;
        value           nonuniform List<scalar> 
36
(
0.000219921
0.000104502
0.000149942
0.000151149
0.000147552
0.000141505
0.000133371
0.000125202
0.000117618
0.000110731
0.000104516
9.89424e-05
9.39061e-05
8.92913e-05
8.49589e-05
8.07178e-05
7.62554e-05
7.25256e-05
6.49365e-05
6.49357e-05
8.41406e-05
9.63698e-05
0.000106438
0.000127204
0.000167062
0.000159956
0.000219919
0.00023973
0.000229121
0.000219771
0.000104501
0.000219769
0.000186238
0.000266709
0.00023271
0.000265725
)
;
    }
    ceiling
    {
        type            compressible::alphatWallFunction;
        Prt             0.85;
        value           nonuniform List<scalar> 
43
(
0.000391242
0.000338843
0.000337217
0.000346226
0.000353568
0.00034334
0.000323761
0.000300944
0.000278112
0.000256524
0.000236488
0.00021822
0.000202343
0.000189847
0.000181437
0.000177068
0.000175734
0.000175953
0.000177408
0.000179959
0.000183423
0.000187514
0.00019191
0.000196331
0.0002006
0.000204668
0.000208625
0.000212634
0.000216812
0.000221448
0.000226753
0.000232837
0.000239721
0.000247369
0.00025574
0.000265039
0.000277012
0.000294153
0.000316338
0.000307317
0.000368217
0.000382084
0.000248608
)
;
    }
    sWall
    {
        type            compressible::alphatWallFunction;
        Prt             0.85;
        value           nonuniform List<scalar> 9(0.000507617 0.00047791 0.000438237 0.000402273 0.00040345 0.000366642 0.000432028 0.000414382 0.00038949);
    }
    nWall
    {
        type            compressible::alphatWallFunction;
        Prt             0.85;
        value           nonuniform List<scalar> 
14
(
0.000159508
0.000189877
0.00022232
0.000329258
0.000328234
0.000319781
0.000309028
0.000308316
0.000329381
0.000334357
0.000339457
0.000324657
0.00031745
0.000306638
)
;
    }
    sideWalls
    {
        type            empty;
    }
    glass1
    {
        type            compressible::alphatWallFunction;
        Prt             0.85;
        value           nonuniform List<scalar> 9(0.000143925 0.000209131 0.000262686 0.000313292 0.000362361 0.00040998 0.000457984 0.00049884 0.000511216);
    }
    glass2
    {
        type            compressible::alphatWallFunction;
        Prt             0.85;
        value           nonuniform List<scalar> 2(0.00028445 0.000319585);
    }
    sun
    {
        type            compressible::alphatWallFunction;
        Prt             0.85;
        value           nonuniform List<scalar> 
14
(
0.000147959
0.000157641
0.000157083
0.000163752
0.000169836
0.000175342
0.000180451
0.000185361
0.000190291
0.000195513
0.00020048
0.000205186
0.000209808
0.000214765
)
;
    }
    Table_master
    {
        type            compressible::alphatWallFunction;
        Prt             0.85;
        value           nonuniform List<scalar> 9(0.000191049 0.00016688 0.000147953 0.000132943 0.000120851 0.000110984 0.000102856 9.6189e-05 9.09528e-05);
    }
    Table_slave
    {
        type            compressible::alphatWallFunction;
        Prt             0.85;
        value           nonuniform List<scalar> 9(0.000216376 0.000197612 0.000182949 0.000170655 0.000160093 0.000150536 0.000141458 0.000132372 0.000122475);
    }
    inlet
    {
        type            fixedValue;
        value           uniform 1.94e-05;
    }
    outlet
    {
        type            zeroGradient;
    }
}


// ************************************************************************* //
