/*--------------------------------*- C++ -*----------------------------------*\
  =========                 |
  \\      /  F ield         | OpenFOAM: The Open Source CFD Toolbox
   \\    /   O peration     | Website:  https://openfoam.org
    \\  /    A nd           | Version:  6
     \\/     M anipulation  |
\*---------------------------------------------------------------------------*/
FoamFile
{
    version     2.0;
    format      ascii;
    class       volScalarField;
    location    "7600";
    object      alphat;
}
// * * * * * * * * * * * * * * * * * * * * * * * * * * * * * * * * * * * * * //

dimensions      [1 -1 -1 0 0 0 0];

internalField   nonuniform List<scalar> 
662
(
0.00116421
0.00125931
0.00128138
0.00134172
0.00139795
0.00145121
0.00150398
0.00155931
0.00161531
0.00166752
0.00170909
0.00172548
0.00169378
0.00158535
0.00129139
0.000578729
0.000680054
0.000770946
0.000800303
0.00078478
0.000732595
0.000675773
0.000625136
0.000581387
0.00054347
0.000510433
0.000481554
0.00045602
0.000432835
0.000410925
0.000389054
0.000376686
0.000346651
0.00158797
0.00335165
0.00299696
0.0034282
0.00383652
0.00426057
0.00467142
0.00501811
0.00535714
0.00576851
0.00623627
0.00669578
0.00702297
0.00703496
0.00611113
0.00155807
0.00128267
0.00104295
0.000576456
0.00136696
0.00199591
0.00248186
0.00262996
0.0019133
0.00161174
0.00140725
0.00125663
0.00114148
0.00105023
0.000972526
0.000899561
0.000826565
0.00076083
0.000704672
0.000860253
0.000458402
0.0019696
0.0046621
0.00344909
0.00438723
0.00477385
0.0050144
0.00514684
0.00522481
0.00535622
0.00564106
0.00611704
0.00678192
0.00749147
0.00796701
0.00779266
0.00644468
0.00501921
0.0012515
0.000908572
0.00155561
0.00225495
0.00294945
0.00313944
0.000992563
0.000866038
0.000761515
0.000677216
0.000609377
0.000554523
0.000509975
0.000473983
0.00044597
0.000493361
0.000571989
0.00100819
0.000542918
0.0023599
0.00640165
0.00345118
0.00453702
0.0049635
0.00497142
0.00477959
0.0045707
0.00451137
0.00467352
0.00513112
0.00594801
0.0069079
0.00762372
0.00787646
0.00765163
0.00669793
0.00369779
0.00145583
0.00185292
0.00255171
0.00340499
0.00414177
0.00415899
0.00111888
0.0010195
0.000950997
0.000900081
0.000857288
0.000815992
0.000776898
0.000735951
0.000688648
0.000648498
0.000644729
0.00120949
0.000623913
0.00274938
0.00835739
0.00444311
0.00415242
0.00481555
0.00489862
0.00460669
0.00418477
0.00398751
0.00406146
0.00449754
0.0054205
0.00645853
0.00713113
0.00744548
0.00749217
0.00717624
0.00598413
0.00545238
0.00547128
0.00576605
0.00610973
0.00630524
0.00615999
0.00518176
0.00467756
0.00439235
0.00418593
0.00398277
0.0037257
0.00332204
0.00281442
0.00224489
0.00170215
0.0012767
0.00119906
0.00106037
0.000837293
0.000880086
0.000954811
0.00318738
0.0100963
0.00660548
0.00436946
0.00418763
0.00437925
0.00443375
0.00411375
0.00388827
0.00390437
0.0043268
0.00524951
0.00633617
0.00692561
0.00713116
0.00715571
0.00718301
0.00715185
0.0074
0.00773454
0.00793791
0.00793111
0.00771661
0.0073167
0.00675699
0.00628937
0.00591617
0.00558795
0.00527341
0.00495201
0.00456293
0.00405681
0.00343573
0.00274521
0.00211468
0.00152
0.00126871
0.00112415
0.00141088
0.000991182
0.00149147
0.00471795
0.00614815
0.00535371
0.00452416
0.00418469
0.00415215
0.00412467
0.00395342
0.00385482
0.00416421
0.00508834
0.00659831
0.00702455
0.00711821
0.00716376
0.00753265
0.00815491
0.0087148
0.00898448
0.00892459
0.00858743
0.00805829
0.00741985
0.00676577
0.00621258
0.00577264
0.00540848
0.00509335
0.00481896
0.00458224
0.00431824
0.00390069
0.00334345
0.00277419
0.00221968
0.00186147
0.00170228
0.00159335
0.00117006
0.00116725
0.00237543
0.00342181
0.00414469
0.00446725
0.00442603
0.00425711
0.00406282
0.00382884
0.00383892
0.00449422
0.00568508
0.00705668
0.00729229
0.00733185
0.00761449
0.00833731
0.00888623
0.00914308
0.00907289
0.00868185
0.00804246
0.00726028
0.00645544
0.00575505
0.00522991
0.0048522
0.00457166
0.00436271
0.00422041
0.00414909
0.00414074
0.00407974
0.00376405
0.0034634
0.00329871
0.00335684
0.0034547
0.00419566
0.00177651
0.000315989
0.00151065
0.00242319
0.00300267
0.00326663
0.00333783
0.0035024
0.00421146
0.00549499
0.00669836
0.00745577
0.00749751
0.0077533
0.00810588
0.00842314
0.00851457
0.00837624
0.00797122
0.00730903
0.00648738
0.00564805
0.00492739
0.00439458
0.0040288
0.00377032
0.00357406
0.00341618
0.00328298
0.00316388
0.00304931
0.00295023
0.00286871
0.00281507
0.0027858
0.00272558
0.00259702
0.00242305
0.00166373
0.000742611
0.000770928
0.0014149
0.00213216
0.00275938
0.00346317
0.00456122
0.00593503
0.0069658
0.00732132
0.00732301
0.00743683
0.00752288
0.00748309
0.0072952
0.00701696
0.0066112
0.00605048
0.00537845
0.00469187
0.00410852
0.00367712
0.00338041
0.00317554
0.00302687
0.0029145
0.0028298
0.00277067
0.00273957
0.00274171
0.00276383
0.00279501
0.00282767
0.00284205
0.00281125
0.00272644
0.00243426
0.00137537
0.00125684
0.00338227
0.00175942
0.00154575
0.00233583
0.00337338
0.00450619
0.00572298
0.00668421
0.00704903
0.00683138
0.00619764
0.00561921
0.00569095
0.00555431
0.00533686
0.00510265
0.00482427
0.0044763
0.00407655
0.00367362
0.00331236
0.00302592
0.00281706
0.00267216
0.00257757
0.00252438
0.00250655
0.00251786
0.00254953
0.00260591
0.00268679
0.00278528
0.0028924
0.00299313
0.00306865
0.00312722
0.00324119
0.00219332
0.0014252
0.000965953
0.0023389
0.00319637
0.00386859
0.0044017
0.00484204
0.00511978
0.00515499
0.00488867
0.00432164
0.00336891
0.00203228
0.001004
0.000977197
0.000951534
0.000927453
0.000904009
0.000879511
0.000854411
0.000831604
0.000814636
0.000806104
0.00080537
0.000811628
0.000824139
0.000842403
0.000866235
0.000895768
0.000931562
0.000974867
0.00102561
0.00108357
0.00114891
0.00122159
0.00130102
0.00138702
0.00143581
0.00130347
0.00121914
0.0013818
0.00250162
0.0064263
0.0060466
0.00491747
0.00430712
0.00414991
0.00417025
0.00404535
0.00388223
0.00393728
0.00456289
0.0056737
0.00184628
0.00299168
0.00381608
0.00436523
0.00447646
0.00434555
0.0041683
0.0039399
0.00377503
0.00407349
0.00505987
0.0062654
0.000985808
0.00200427
0.00275641
0.00316844
0.00331435
0.00338161
0.00376665
0.00481428
0.00615079
0.00708679
0.000593051
0.00106162
0.00178229
0.00245414
0.00307961
0.00394886
0.00525191
0.00652805
0.00721903
0.00735565
0.00356923
0.00286027
0.00135576
0.00190947
0.00282312
0.00392233
0.00511719
0.00626734
0.0069362
0.00701703
0.00651664
0.00601227
0.00246399
0.00275439
0.00361039
0.00414309
0.00463686
0.00500543
0.00517316
0.00505979
0.00464432
0.00390283
0.00272114
0.00146502
0.00156088
0.00314111
0.00468281
0.00512664
0.0048873
0.00450847
0.00427514
0.00413757
0.00393295
0.00384328
0.00427186
0.00532091
0.00123333
0.0013622
0.00184167
0.0027061
0.00342637
0.00377446
0.0038333
0.0037446
0.0036375
0.00391175
0.00488523
0.00616303
0.000551055
0.000874128
0.0017034
0.00239442
0.0028339
0.00313909
0.00371634
0.00490645
0.00627135
0.00714933
0.000585501
0.000923148
0.00157437
0.00238711
0.00331388
0.00450589
0.00582764
0.00682206
0.0072281
0.00703669
0.00126851
0.00319301
0.00277058
0.00286741
0.00367904
0.00459488
0.00547147
0.00619032
0.00651919
0.00632767
0.00563594
0.00474257
0.00115947
0.00105649
0.00112001
0.00116234
0.00115127
0.00109184
0.00099373
0.000866884
0.000733359
0.000610944
0.000506856
0.000469319
0.00215982
0.00417365
0.00504015
0.00506037
0.00468854
0.00436813
0.00421317
0.0040396
0.00385076
0.00397071
0.00474217
0.00591631
0.00126207
0.00138397
0.00226885
0.00310889
0.00364544
0.00383057
0.00379928
0.00367514
0.00369517
0.00431765
0.00553381
0.00667626
0.000529992
0.00128735
0.00207967
0.00264292
0.00298754
0.00335577
0.00424497
0.00561584
0.00679228
0.00735111
0.000657357
0.00122082
0.00196723
0.00283001
0.00386756
0.00519605
0.00638145
0.00711383
0.00717219
0.00697931
0.00347748
0.0031435
0.00267433
0.00325035
0.00413075
0.00504136
0.00586449
0.00641672
0.00648713
0.00604267
0.00516018
0.00461514
0.00102952
0.00109249
0.00114373
0.00116414
0.0011267
0.00104725
0.000932773
0.000799356
0.000670587
0.000554864
0.000475863
0.00048068
)
;

boundaryField
{
    floor
    {
        type            compressible::alphatWallFunction;
        Prt             0.85;
        value           nonuniform List<scalar> 
36
(
0.000182656
8.11453e-05
9.62253e-05
0.000109521
0.000113775
0.000111529
0.000103936
9.55949e-05
8.80895e-05
8.1545e-05
7.58238e-05
7.07985e-05
6.63724e-05
6.2431e-05
5.8828e-05
5.54005e-05
5.19556e-05
4.99968e-05
4.52048e-05
4.52041e-05
6.28009e-05
7.57419e-05
8.79098e-05
0.000119119
0.000125259
0.000135889
0.000182654
0.000218728
0.000181461
0.000148279
8.11443e-05
0.000148277
8.08028e-05
0.000177189
0.000129305
0.000204988
)
;
    }
    ceiling
    {
        type            compressible::alphatWallFunction;
        Prt             0.85;
        value           nonuniform List<scalar> 
58
(
0.000146464
0.000155274
0.0001624
0.000165237
0.000160062
0.000148996
0.000132868
0.000113767
9.49613e-05
7.76783e-05
6.56229e-05
6.63653e-05
0.000142952
0.000139174
0.000135545
0.000132129
0.000128793
0.000125296
0.000121701
0.000118424
0.000115979
0.000114748
0.000114642
0.000115545
0.00011735
0.000119978
0.000123397
0.000127619
0.000132713
0.000138847
0.000145993
0.000154106
0.000163192
0.000173231
0.000184123
0.000195833
0.000202438
0.00018446
0.000172899
0.000195135
0.0001789
0.000195496
8.20355e-05
0.000137516
0.000150244
0.000159106
0.000164982
0.000163463
0.000155219
0.000141484
0.000123479
0.000104179
8.61044e-05
7.03803e-05
6.46136e-05
0.000165881
0.000192546
0.000105317
)
;
    }
    sWall
    {
        type            compressible::alphatWallFunction;
        Prt             0.85;
        value           nonuniform List<scalar> 4(0.000178986 0.000163976 0.000177386 0.000136932);
    }
    nWall
    {
        type            compressible::alphatWallFunction;
        Prt             0.85;
        value           nonuniform List<scalar> 6(0.000135663 0.000140796 0.000165754 0.000193906 0.000200654 0.000194784);
    }
    sideWalls
    {
        type            empty;
    }
    glass1
    {
        type            compressible::alphatWallFunction;
        Prt             0.85;
        value           nonuniform List<scalar> 10(0.000160772 0.000217486 0.000267268 0.000317211 0.000366255 0.000420587 0.00021572 0.00017261 0.000206743 0.000163535);
    }
    glass2
    {
        type            compressible::alphatWallFunction;
        Prt             0.85;
        value           nonuniform List<scalar> 2(0.000245843 0.000231067);
    }
    sun
    {
        type            compressible::alphatWallFunction;
        Prt             0.85;
        value           nonuniform List<scalar> 
14
(
0.000165185
0.000178267
0.000181289
0.000189526
0.000197164
0.000204368
0.000211474
0.000218896
0.00022638
0.000233328
0.000238845
0.000241014
0.000236813
0.000222376
)
;
    }
    Table_master
    {
        type            compressible::alphatWallFunction;
        Prt             0.85;
        value           nonuniform List<scalar> 9(0.000141368 0.000123393 0.000108308 9.59599e-05 8.58876e-05 7.7642e-05 7.08711e-05 6.53463e-05 6.10096e-05);
    }
    Table_slave
    {
        type            compressible::alphatWallFunction;
        Prt             0.85;
        value           nonuniform List<scalar> 9(0.000159052 0.000145163 0.000135497 0.000128261 0.000122141 0.000116201 0.000110545 0.000104584 9.76472e-05);
    }
    inlet
    {
        type            fixedValue;
        value           uniform 1.94e-05;
    }
    outlet
    {
        type            zeroGradient;
    }
}


// ************************************************************************* //
