/*--------------------------------*- C++ -*----------------------------------*\
  =========                 |
  \\      /  F ield         | OpenFOAM: The Open Source CFD Toolbox
   \\    /   O peration     | Website:  https://openfoam.org
    \\  /    A nd           | Version:  6
     \\/     M anipulation  |
\*---------------------------------------------------------------------------*/
FoamFile
{
    version     2.0;
    format      ascii;
    class       volScalarField;
    location    "7600";
    object      epsilon;
}
// * * * * * * * * * * * * * * * * * * * * * * * * * * * * * * * * * * * * * //

dimensions      [0 2 -3 0 0 0 0];

internalField   nonuniform List<scalar> 
662
(
0.000354077
0.000446833
0.000470668
0.000540317
0.000611108
0.000683619
0.000760883
0.000847929
0.000942537
0.00103675
0.00111603
0.00114823
0.00108599
0.000890536
0.00048151
4.34084e-05
7.0416e-05
0.000102583
0.000114761
0.000108219
8.80402e-05
6.91065e-05
5.47101e-05
4.40113e-05
3.59518e-05
2.97876e-05
2.50139e-05
2.12433e-05
1.81662e-05
1.55457e-05
1.31941e-05
1.19764e-05
9.33633e-06
0.000900491
0.00145497
0.000404198
0.000386837
0.000398024
0.000415236
0.000441696
0.000485403
0.000549981
0.000632337
0.000718016
0.000775166
0.000766194
0.00068665
0.000586613
0.000845496
0.000471784
0.000253682
4.29046e-05
8.59773e-05
0.000104171
0.000103765
9.83738e-05
9.77342e-05
7.61829e-05
5.74746e-05
4.36362e-05
3.35761e-05
2.62384e-05
2.08395e-05
1.68171e-05
1.38258e-05
1.19254e-05
1.11652e-05
3.30816e-05
2.15868e-05
0.00172218
0.00400897
0.00051015
0.000333208
0.000326366
0.000336692
0.000357538
0.000396316
0.00045933
0.000545326
0.000642261
0.000726082
0.00075109
0.000688986
0.000565886
0.00047087
0.000403598
0.000438321
0.000167917
0.000162065
0.000143624
0.000125557
0.000115058
0.000218964
0.00014545
9.88879e-05
6.95494e-05
5.06728e-05
3.81838e-05
2.97012e-05
2.38463e-05
1.98635e-05
1.54191e-05
1.36803e-05
7.14598e-05
3.58639e-05
0.00296888
0.0087592
0.000943336
0.000323984
0.000282273
0.000284987
0.000298979
0.00033599
0.000406306
0.000496156
0.000596259
0.000702088
0.000750935
0.000689803
0.00057502
0.000474996
0.000418415
0.000443485
0.000690073
0.000436578
0.000281687
0.000202417
0.000157543
0.000136736
0.000313839
0.000237468
0.000192771
0.000163457
0.000141249
0.000121814
0.000105138
8.93786e-05
7.323e-05
4.46698e-05
2.91309e-05
0.000129022
5.44337e-05
0.0047045
0.0138912
0.00223316
0.000468442
0.000303077
0.000277389
0.000279679
0.000331248
0.000432496
0.000525793
0.000621124
0.000742035
0.000791324
0.00071058
0.000570394
0.000441428
0.000355971
0.000332446
0.000333102
0.000280616
0.000232522
0.000194011
0.000161148
0.000133652
0.000123506
0.000112282
0.000104122
9.71032e-05
8.97036e-05
8.1198e-05
7.23679e-05
6.37944e-05
5.58272e-05
4.5464e-05
3.60347e-05
8.1888e-05
0.000130305
0.000131702
0.000153065
0.000195461
0.00734218
0.0214091
0.00587113
0.00155117
0.000750708
0.00049731
0.000412753
0.000473877
0.000582534
0.000649615
0.000728414
0.00084721
0.000887359
0.000761477
0.000570451
0.000399485
0.000291614
0.000252775
0.000245657
0.000237929
0.000219839
0.000192571
0.000161748
0.000133185
0.000114525
0.000106277
0.000103513
0.000101721
9.85167e-05
9.23249e-05
8.2024e-05
7.04607e-05
5.95983e-05
4.98527e-05
4.38346e-05
5.91525e-05
9.88826e-05
0.000117216
0.000220577
0.000218567
0.0121869
0.0152793
0.0110709
0.00573053
0.00286354
0.00156015
0.00103429
0.000895274
0.000884463
0.000853697
0.000875176
0.000990662
0.0010432
0.00082867
0.000571881
0.000362537
0.000246366
0.000213791
0.000218162
0.000219373
0.000204959
0.000179268
0.000150995
0.000127287
0.000113981
0.000111623
0.000115113
0.00012026
0.000124958
0.000127212
0.000123803
0.000111314
9.81392e-05
8.69777e-05
8.25221e-05
9.23557e-05
0.000125719
0.000180361
0.000347754
0.000359455
0.00597544
0.00864649
0.00752981
0.00630372
0.0049403
0.00353797
0.00247283
0.00179479
0.0013581
0.00114667
0.00117498
0.00130413
0.00118353
0.000854845
0.000526403
0.000299385
0.000203517
0.000188946
0.000193959
0.000190703
0.000174465
0.000152287
0.000132175
0.000119252
0.000115769
0.000120651
0.000131054
0.000145362
0.000163383
0.000185256
0.000210513
0.000234686
0.000249563
0.000278311
0.000335862
0.000482085
0.00079041
0.0013284
0.00455688
0.00126072
0.000878895
0.00294318
0.00313891
0.00278712
0.00226839
0.00180012
0.00151773
0.00152477
0.00170081
0.00170196
0.00118176
0.000730442
0.000365279
0.000221647
0.000175041
0.000165176
0.000161918
0.000153363
0.000139306
0.000124828
0.000114643
0.000111132
0.000114509
0.000123813
0.000138305
0.000158399
0.000185653
0.000222607
0.000272774
0.000340453
0.000432622
0.000561961
0.000751646
0.00100815
0.001308
0.00159676
0.00183901
0.00103752
0.00136974
0.00127731
0.00177487
0.00202022
0.0020634
0.00209927
0.00226227
0.0024089
0.00224712
0.00169908
0.000781469
0.000441144
0.000261573
0.000190566
0.000164717
0.000154694
0.000147357
0.000138223
0.000127861
0.000118826
0.000113387
0.0001124
0.000115716
0.000122984
0.000134209
0.000150027
0.000171838
0.000202036
0.000244527
0.000305206
0.000390888
0.000509651
0.000669176
0.00086423
0.00106784
0.00123688
0.00117916
0.0005861
0.00694214
0.00744247
0.00179533
0.00211027
0.00263649
0.00293501
0.00312103
0.00314331
0.00285296
0.00228523
0.00153729
0.000801265
0.000308924
0.000242525
0.000209214
0.000195626
0.000189134
0.000183233
0.000175519
0.000166023
0.000155917
0.000146541
0.000139413
0.000135263
0.000134403
0.000137201
0.000144281
0.000156599
0.000175544
0.000203158
0.000242489
0.000297618
0.000373936
0.000477417
0.000611334
0.000770143
0.00094697
0.00126952
0.000652871
0.000652017
0.00316003
0.00359686
0.00342346
0.00423669
0.00447693
0.00408437
0.00333761
0.0023953
0.00150422
0.000875203
0.000495866
0.00033087
0.000227618
0.000209899
0.000193811
0.00017948
0.00016622
0.000153077
0.000140348
0.00012941
0.000121651
0.00011787
0.000117548
0.000120309
0.000125958
0.000134519
0.00014626
0.000161734
0.000181906
0.00020847
0.000242743
0.000286269
0.000341243
0.000410205
0.000495555
0.000600512
0.000666207
0.0004985
0.000408116
0.000594859
0.0127594
0.0161514
0.00826071
0.00405941
0.0020681
0.00122293
0.000918982
0.000893579
0.000872056
0.000852501
0.000926195
0.00104644
0.00933397
0.00832703
0.006879
0.00565829
0.00421325
0.00295145
0.0020993
0.00154885
0.00122225
0.00113379
0.00124402
0.00132027
0.00246614
0.00314279
0.0030028
0.00253187
0.00201926
0.00162721
0.00148453
0.00161205
0.00174187
0.0015808
0.000970074
0.00155464
0.00193028
0.00205674
0.00206856
0.00216559
0.00235835
0.00237885
0.00201173
0.00138253
0.0207618
0.00416603
0.00181399
0.00244366
0.00279146
0.0030402
0.00316261
0.00303989
0.00259164
0.00193757
0.00114727
0.000547954
0.00863481
0.0034037
0.00381096
0.00446778
0.00433478
0.00374581
0.0028781
0.00192512
0.00115456
0.000656973
0.000389473
0.000294519
0.0138539
0.0112492
0.00956167
0.00709333
0.0046952
0.00290936
0.00188923
0.00139932
0.00114616
0.00100154
0.00100608
0.00112891
0.00705399
0.00930459
0.00763156
0.00547378
0.00437047
0.00338077
0.00252227
0.0018856
0.00145513
0.00129785
0.00139994
0.00150645
0.00174744
0.00161642
0.00216525
0.00224219
0.00204264
0.00180247
0.00173792
0.00191713
0.00203995
0.0018046
0.000661251
0.00144682
0.00194097
0.00223975
0.00247089
0.00271703
0.00284976
0.00262987
0.00209315
0.00132013
0.00713884
0.00556221
0.00251916
0.00299803
0.00349312
0.00355629
0.00336427
0.00290372
0.00222416
0.00155605
0.000918563
0.000451858
0.00545402
0.00412629
0.00491995
0.00550743
0.00537506
0.00460873
0.00349222
0.00232868
0.0014145
0.000819452
0.000468407
0.000371985
0.0118702
0.0109726
0.00833832
0.00585688
0.00369803
0.00231197
0.00159886
0.00125644
0.00105951
0.000982253
0.00106344
0.00117155
0.00745777
0.00973602
0.00628124
0.00489024
0.00386717
0.00292672
0.00217702
0.00164136
0.00133824
0.00132716
0.00147405
0.00146485
0.00120995
0.00195466
0.00225349
0.00216137
0.00191443
0.00173327
0.00181
0.00201028
0.00197234
0.00155832
0.000863292
0.00173855
0.00210299
0.00235861
0.0025906
0.00282694
0.00277983
0.0024016
0.00171982
0.00097015
0.0168115
0.00376161
0.00263111
0.00333642
0.0035552
0.00349032
0.00316938
0.00257758
0.00188186
0.00123341
0.00064769
0.000346108
0.00381761
0.00456414
0.00524205
0.00554377
0.00505126
0.00407724
0.00289492
0.00182909
0.00108271
0.000614256
0.000387721
0.000399674
)
;

boundaryField
{
    floor
    {
        Cmu             0.09;
        kappa           0.41;
        E               9.8;
        type            epsilonWallFunction;
        value           nonuniform List<scalar> 
36
(
0.00048151
4.34084e-05
7.0416e-05
0.000102583
0.000114761
0.000108219
8.80402e-05
6.91065e-05
5.47101e-05
4.40113e-05
3.59518e-05
2.97876e-05
2.50139e-05
2.12433e-05
1.81662e-05
1.55457e-05
1.31941e-05
1.19764e-05
9.33633e-06
9.33633e-06
2.15868e-05
3.58639e-05
5.44337e-05
0.000131702
0.000153065
0.000195461
0.00048151
0.000845496
0.000471784
0.000253682
4.34084e-05
0.000253682
4.29046e-05
0.000438321
0.000167917
0.000690073
)
;
    }
    ceiling
    {
        Cmu             0.09;
        kappa           0.41;
        E               9.8;
        type            epsilonWallFunction;
        value           nonuniform List<scalar> 
58
(
0.00381761
0.00456414
0.00524205
0.00554377
0.00505126
0.00407724
0.00289492
0.00182909
0.00108271
0.000614256
0.000387721
0.000399674
0.000227618
0.000209899
0.000193811
0.00017948
0.00016622
0.000153077
0.000140348
0.00012941
0.000121651
0.00011787
0.000117548
0.000120309
0.000125958
0.000134519
0.00014626
0.000161734
0.000181906
0.00020847
0.000242743
0.000286269
0.000341243
0.000410205
0.000495555
0.000600512
0.000666207
0.0004985
0.000408116
0.000594859
0.00745777
0.00973602
0.000661251
0.00316003
0.00412629
0.00491995
0.00550743
0.00537506
0.00460873
0.00349222
0.00232868
0.0014145
0.000819452
0.000468407
0.000371985
0.00597544
0.00930459
0.00136974
)
;
    }
    sWall
    {
        Cmu             0.09;
        kappa           0.41;
        E               9.8;
        type            epsilonWallFunction;
        value           nonuniform List<scalar> 4(0.00713884 0.00545402 0.00694214 0.00316003);
    }
    nWall
    {
        Cmu             0.09;
        kappa           0.41;
        E               9.8;
        type            epsilonWallFunction;
        value           nonuniform List<scalar> 6(0.000195461 0.000218567 0.000359455 0.0005861 0.000652017 0.000594859);
    }
    sideWalls
    {
        type            empty;
    }
    glass1
    {
        Cmu             0.09;
        kappa           0.41;
        E               9.8;
        type            epsilonWallFunction;
        value           nonuniform List<scalar> 10(0.000354077 0.000900491 0.00172218 0.00296888 0.0047045 0.00734218 0.0138539 0.00705399 0.0121869 0.00597544);
    }
    glass2
    {
        Cmu             0.09;
        kappa           0.41;
        E               9.8;
        type            epsilonWallFunction;
        value           nonuniform List<scalar> 2(0.00126072 0.00103752);
    }
    sun
    {
        Cmu             0.09;
        kappa           0.41;
        E               9.8;
        type            epsilonWallFunction;
        value           nonuniform List<scalar> 
14
(
0.000354077
0.000446833
0.000470668
0.000540317
0.000611108
0.000683619
0.000760883
0.000847929
0.000942537
0.00103675
0.00111603
0.00114823
0.00108599
0.000890536
)
;
    }
    Table_master
    {
        Cmu             0.09;
        kappa           0.41;
        E               9.8;
        type            epsilonWallFunction;
        value           nonuniform List<scalar> 9(0.000218964 0.00014545 9.88879e-05 6.95494e-05 5.06728e-05 3.81838e-05 2.97012e-05 2.38463e-05 1.98635e-05);
    }
    Table_slave
    {
        Cmu             0.09;
        kappa           0.41;
        E               9.8;
        type            epsilonWallFunction;
        value           nonuniform List<scalar> 9(0.000313839 0.000237468 0.000192771 0.000163457 0.000141249 0.000121814 0.000105138 8.93786e-05 7.323e-05);
    }
    inlet
    {
        type            turbulentMixingLengthDissipationRateInlet;
        mixingLength    0.01;
        phi             phi;
        k               k;
        value           uniform 0.000471671;
    }
    outlet
    {
        type            zeroGradient;
    }
}


// ************************************************************************* //
