/*--------------------------------*- C++ -*----------------------------------*\
  =========                 |
  \\      /  F ield         | OpenFOAM: The Open Source CFD Toolbox
   \\    /   O peration     | Website:  https://openfoam.org
    \\  /    A nd           | Version:  6
     \\/     M anipulation  |
\*---------------------------------------------------------------------------*/
FoamFile
{
    version     2.0;
    format      ascii;
    class       volScalarField;
    location    "35599.9999982655499";
    object      k;
}
// * * * * * * * * * * * * * * * * * * * * * * * * * * * * * * * * * * * * * //

dimensions      [0 2 -2 0 0 0 0];

internalField   nonuniform List<scalar> 
778
(
0.00158602
0.00180121
0.00178799
0.00194644
0.00209755
0.00223969
0.0023762
0.00251166
0.00265185
0.00280505
0.00295524
0.00310158
0.00324924
0.00341187
0.00358577
0.00079265
0.00162628
0.00165281
0.00157389
0.001446
0.00128341
0.00113103
0.000999255
0.000887529
0.000793021
0.000713286
0.000645258
0.000586243
0.000533703
0.000484935
0.00043644
0.000398084
0.000326165
0.00340719
0.00643383
0.00268752
0.00274594
0.00288751
0.00305395
0.00323413
0.0034297
0.00364273
0.00387292
0.00412498
0.0043789
0.00459505
0.00470077
0.00459543
0.00429905
0.00390776
0.00358054
0.00253694
0.00281338
0.00295632
0.00289906
0.00266617
0.00226657
0.00190671
0.00161007
0.0013701
0.00117614
0.00101729
0.000885483
0.000774223
0.00068141
0.000615416
0.000574964
0.00086443
0.000524311
0.00549121
0.0127823
0.00347805
0.00321191
0.00329712
0.00345484
0.00363608
0.00384008
0.00407022
0.00432675
0.00463485
0.00501047
0.00545121
0.0059616
0.00653366
0.00686306
0.00628023
0.00538715
0.00403623
0.0041683
0.00417257
0.00397606
0.00357914
0.00266759
0.00201732
0.00157738
0.0012707
0.00105026
0.00088763
0.000765133
0.000672233
0.00060399
0.000551726
0.000548935
0.00116474
0.000678634
0.00797431
0.0217608
0.00449152
0.0033905
0.00334114
0.00343762
0.00354891
0.00366828
0.00380838
0.00399059
0.00425842
0.00464804
0.00517146
0.00582647
0.00655701
0.00713748
0.00723057
0.00724551
0.00534159
0.0055469
0.00537327
0.00512358
0.00478597
0.00434818
0.00345652
0.00286023
0.00243741
0.00211133
0.0018518
0.00163317
0.00143961
0.0012595
0.00107856
0.000801445
0.00066035
0.00141944
0.000823071
0.0108775
0.0336383
0.00621369
0.00342479
0.00315791
0.00316653
0.00318914
0.00320942
0.00325162
0.0033605
0.00359411
0.00398887
0.00455394
0.00527853
0.00608984
0.00682085
0.00728544
0.00764416
0.00751517
0.00665157
0.00607056
0.00557684
0.00509786
0.00462923
0.00412371
0.00366656
0.00327603
0.0029384
0.00263209
0.00234855
0.00207992
0.00181911
0.0015555
0.00122275
0.000931683
0.00119025
0.00121695
0.00116921
0.0020054
0.0018623
0.0141763
0.0476029
0.00928574
0.00348994
0.00290821
0.00282236
0.00276406
0.00269925
0.00266393
0.00273416
0.00298039
0.00341422
0.00402462
0.0048007
0.00565794
0.0064657
0.00707189
0.00740817
0.00732264
0.00678798
0.00621291
0.00563542
0.00507336
0.00455588
0.00409177
0.0036963
0.00336368
0.00307423
0.00280728
0.00255202
0.00229953
0.00204278
0.00177432
0.00147197
0.00118003
0.00111403
0.00111314
0.00169429
0.00501706
0.00267371
0.0179939
0.0606093
0.0143628
0.00381983
0.00271501
0.00252912
0.00241158
0.00229388
0.00222094
0.00231127
0.00262995
0.00313944
0.0038037
0.00463557
0.00553463
0.00637323
0.00700609
0.00733107
0.0072554
0.00681783
0.00621467
0.00555417
0.0049116
0.00434286
0.00387278
0.00350067
0.0032068
0.00296183
0.00274145
0.00252932
0.00231389
0.00208776
0.00184576
0.00158335
0.00132872
0.00116338
0.00109529
0.00154268
0.00617399
0.00369399
0.0216429
0.0704829
0.0214395
0.00510356
0.00274295
0.00237176
0.00221012
0.002082
0.00202642
0.00221937
0.0026495
0.00323131
0.00393962
0.00477997
0.00570701
0.00658218
0.00723104
0.00751912
0.0073875
0.00689821
0.00619954
0.00542792
0.00469223
0.00406495
0.00357465
0.00321237
0.00294725
0.00274055
0.00256385
0.00239564
0.00222216
0.00203575
0.00183257
0.00161337
0.00139847
0.00123703
0.00116381
0.0020726
0.0134
0.00622344
0.0228344
0.0694909
0.0325367
0.0110608
0.00406918
0.00258795
0.00223581
0.00210336
0.00219059
0.00251276
0.00300053
0.00360288
0.00433573
0.00521921
0.00619428
0.00709727
0.00772551
0.00792945
0.00766958
0.00702983
0.00616906
0.00525155
0.00440953
0.00372344
0.00321688
0.00286857
0.00263486
0.00246825
0.00233537
0.00221042
0.00207854
0.00193252
0.00176973
0.00159272
0.00141832
0.00130376
0.00138431
0.00388806
0.0253654
0.00821875
0.0219183
0.0516289
0.0336434
0.0174377
0.00859197
0.00476251
0.00326339
0.00273159
0.00285507
0.00321237
0.00367343
0.00424811
0.00499935
0.00594533
0.00698303
0.00789629
0.00844902
0.00849011
0.00800989
0.00713072
0.00604812
0.00495954
0.00401492
0.00329234
0.00279838
0.00248851
0.00230167
0.00218349
0.00209513
0.00200995
0.00191447
0.00180296
0.00167424
0.00153231
0.00139465
0.00133822
0.00188546
0.00955622
0.0227273
0.00840863
0.0192317
0.0394288
0.0302355
0.0195686
0.0121867
0.00794346
0.00572157
0.00467334
0.00436587
0.00440238
0.0046544
0.00514756
0.00593875
0.00698602
0.00809367
0.00896836
0.00934675
0.00910148
0.00828121
0.00707112
0.00572199
0.00446785
0.00346612
0.00277096
0.00234968
0.00211594
0.00199142
0.00192332
0.00187295
0.00181872
0.00175045
0.00166394
0.00155935
0.00144301
0.00134027
0.0014172
0.00349721
0.0105802
0.0185032
0.00811691
0.0159458
0.0315784
0.0266466
0.0195393
0.0139788
0.0102877
0.00803114
0.00675617
0.00605296
0.00573392
0.00578515
0.00627629
0.00721046
0.00841632
0.00956209
0.010277
0.0103074
0.00959716
0.00829719
0.00668048
0.00506871
0.00372939
0.00279646
0.00223828
0.00195848
0.00181796
0.00174807
0.00171341
0.0016855
0.00165006
0.00159963
0.00153042
0.00144325
0.00134811
0.00128234
0.00153959
0.0039745
0.0103072
0.016681
0.0076747
0.0132622
0.0256641
0.0233447
0.0186884
0.0145844
0.01159
0.00954603
0.00821213
0.00730244
0.00684283
0.00696052
0.00771907
0.00897111
0.0103478
0.0113813
0.0116818
0.011093
0.00969733
0.00780257
0.00578025
0.0040384
0.00284329
0.00220035
0.00186925
0.00170597
0.00162364
0.00158066
0.00155703
0.0015351
0.00150606
0.00146488
0.00140931
0.00134065
0.00126932
0.00124051
0.00150569
0.0035096
0.00923587
0.0170339
0.00788766
0.0133509
0.0224044
0.0220505
0.0177568
0.0143912
0.011894
0.0100848
0.00876939
0.00791984
0.00777762
0.00847396
0.00985876
0.0114976
0.012824
0.0133452
0.0127957
0.0112543
0.00898775
0.00653427
0.00432139
0.00296658
0.00222734
0.00186189
0.00168025
0.0015837
0.00152538
0.00148505
0.00145426
0.00142467
0.00139138
0.0013516
0.00130588
0.00125976
0.00123263
0.00128556
0.00161621
0.0032871
0.00880704
0.0146998
0.00877675
0.0108766
0.0117605
0.0129221
0.0125522
0.0113741
0.0100741
0.0089458
0.00820372
0.00830737
0.00942086
0.0112847
0.013326
0.0148818
0.0154318
0.014737
0.0128113
0.0101255
0.00702176
0.00463822
0.00312857
0.00234179
0.00196337
0.00177787
0.00167292
0.00159959
0.00153743
0.00147914
0.00142446
0.00137549
0.00133056
0.0012911
0.0012692
0.00129491
0.00142229
0.0017249
0.00234547
0.0039025
0.00950658
0.0135933
0.00896505
0.00354548
0.00482613
0.00599713
0.0065991
0.00727431
0.00879823
0.0113193
0.0141369
0.0165178
0.0179011
0.0179443
0.0165943
0.0140867
0.0105396
0.00727455
0.00479969
0.00330433
0.00254874
0.00220692
0.00204465
0.0019501
0.00187774
0.00180945
0.0017371
0.00165778
0.00157474
0.00150293
0.00145482
0.00144154
0.00149817
0.00168892
0.00209335
0.00278394
0.00388026
0.0057798
0.0101116
0.0152901
0.00876496
0.00444451
0.00628346
0.00809337
0.0110025
0.0146843
0.0181391
0.0203724
0.0214089
0.0212827
0.0199984
0.0174194
0.0139169
0.0102717
0.00702842
0.00475998
0.00348054
0.00289069
0.002645
0.00253408
0.0024684
0.00241773
0.00237256
0.00232871
0.00228161
0.00222544
0.00215654
0.00208262
0.00204259
0.00206217
0.00218804
0.00249922
0.00309573
0.00407553
0.00554209
0.00764978
0.0104746
0.0134911
0.00808241
0.0150819
0.0244989
0.0180854
0.0143611
0.0169727
0.0206794
0.0228195
0.0235245
0.0230581
0.0216779
0.0196014
0.0169055
0.0137112
0.0103895
0.00749021
0.00543924
0.00431825
0.00382232
0.00361118
0.00349458
0.00340243
0.00331827
0.00324518
0.00319112
0.0031621
0.00315803
0.00317093
0.00318714
0.0031965
0.00322489
0.00331308
0.00349994
0.00385581
0.00448013
0.0054904
0.00702194
0.00926758
0.0123493
0.016198
0.00824844
0.0138113
0.017058
0.0178537
0.020751
0.0216693
0.0220839
0.0210898
0.0192831
0.0171683
0.0149853
0.0128239
0.0107104
0.00873006
0.00706155
0.00587119
0.0051785
0.0048234
0.00464186
0.004524
0.00442254
0.00432584
0.00424022
0.00418097
0.00416713
0.004217
0.00434321
0.00454754
0.00481594
0.00511423
0.00538315
0.00562251
0.00590643
0.00632196
0.00696613
0.00795414
0.00943213
0.0116123
0.0149794
0.0157991
0.0105409
0.0121324
0.00890927
0.00881981
0.00933958
0.00978077
0.00920397
0.00812521
0.00693855
0.00582833
0.0048518
0.0040195
0.00334132
0.002833
0.00250073
0.00232276
0.00225238
0.00224637
0.00226455
0.00229355
0.00233168
0.00238363
0.00245752
0.00256229
0.00270456
0.00288575
0.00310082
0.00333979
0.0035917
0.00384931
0.0041134
0.00438764
0.00467802
0.00500668
0.00539933
0.00587766
0.00645023
0.00710425
0.00783853
0.00874981
0.00888397
)
;

boundaryField
{
    floor
    {
        type            kqRWallFunction;
        value           nonuniform List<scalar> 
36
(
0.00358577
0.00079265
0.00162628
0.00165281
0.00157389
0.001446
0.00128341
0.00113103
0.000999255
0.000887529
0.000793021
0.000713286
0.000645258
0.000586243
0.000533703
0.000484935
0.00043644
0.000398084
0.000326165
0.000326165
0.000524311
0.000678634
0.000823071
0.00116921
0.0020054
0.0018623
0.00358577
0.00429905
0.00390776
0.00358054
0.00079265
0.00358054
0.00253694
0.00538715
0.00403623
0.00534159
)
;
    }
    ceiling
    {
        type            kqRWallFunction;
        value           nonuniform List<scalar> 
43
(
0.0121324
0.00890927
0.00881981
0.00933958
0.00978077
0.00920397
0.00812521
0.00693855
0.00582833
0.0048518
0.0040195
0.00334132
0.002833
0.00250073
0.00232276
0.00225238
0.00224637
0.00226455
0.00229355
0.00233168
0.00238363
0.00245752
0.00256229
0.00270456
0.00288575
0.00310082
0.00333979
0.0035917
0.00384931
0.0041134
0.00438764
0.00467802
0.00500668
0.00539933
0.00587766
0.00645023
0.00710425
0.00783853
0.00874981
0.00888397
0.0108766
0.0117605
0.00444451
)
;
    }
    sWall
    {
        type            kqRWallFunction;
        value           nonuniform List<scalar> 9(0.0219183 0.0192317 0.0159458 0.0132622 0.0133509 0.0108766 0.0150819 0.0138113 0.0121324);
    }
    nWall
    {
        type            kqRWallFunction;
        value           nonuniform List<scalar> 
14
(
0.0018623
0.00267371
0.00369399
0.00840863
0.00811691
0.0076747
0.00788766
0.00877675
0.00896505
0.00876496
0.00808241
0.00824844
0.0105409
0.00888397
)
;
    }
    sideWalls
    {
        type            empty;
    }
    glass1
    {
        type            kqRWallFunction;
        value           nonuniform List<scalar> 9(0.00158602 0.00340719 0.00549121 0.00797431 0.0108775 0.0141763 0.0179939 0.0216429 0.0228344);
    }
    glass2
    {
        type            kqRWallFunction;
        value           nonuniform List<scalar> 2(0.00622344 0.00821875);
    }
    sun
    {
        type            kqRWallFunction;
        value           nonuniform List<scalar> 
14
(
0.00158602
0.00180121
0.00178799
0.00194644
0.00209755
0.00223969
0.0023762
0.00251166
0.00265185
0.00280505
0.00295524
0.00310158
0.00324924
0.00341187
)
;
    }
    Table_master
    {
        type            kqRWallFunction;
        value           nonuniform List<scalar> 9(0.00266759 0.00201732 0.00157738 0.0012707 0.00105026 0.00088763 0.000765133 0.000672233 0.00060399);
    }
    Table_slave
    {
        type            kqRWallFunction;
        value           nonuniform List<scalar> 9(0.00345652 0.00286023 0.00243741 0.00211133 0.0018518 0.00163317 0.00143961 0.0012595 0.00107856);
    }
    inlet
    {
        type            turbulentIntensityKineticEnergyInlet;
        intensity       0.05;
        value           uniform 0.0009375;
    }
    outlet
    {
        type            zeroGradient;
    }
}


// ************************************************************************* //
