/*--------------------------------*- C++ -*----------------------------------*\
  =========                 |
  \\      /  F ield         | OpenFOAM: The Open Source CFD Toolbox
   \\    /   O peration     | Website:  https://openfoam.org
    \\  /    A nd           | Version:  6
     \\/     M anipulation  |
\*---------------------------------------------------------------------------*/
FoamFile
{
    version     2.0;
    format      ascii;
    class       volVectorField;
    location    "35599.9999982655499";
    object      U;
}
// * * * * * * * * * * * * * * * * * * * * * * * * * * * * * * * * * * * * * //

dimensions      [0 1 -1 0 0 0 0];

internalField   nonuniform List<vector> 
778
(
(0.0655971 0.0794074 0)
(-0.155178 0.0157649 0)
(-0.164304 0.0146239 0)
(-0.192419 0.0122748 0)
(-0.216855 0.00872589 0)
(-0.236917 0.00474633 0)
(-0.252048 0.000420653 0)
(-0.261825 -0.0043639 0)
(-0.265733 -0.00980615 0)
(-0.262768 -0.0161867 0)
(-0.250975 -0.0242614 0)
(-0.226282 -0.034883 0)
(-0.186159 -0.0504089 0)
(-0.144215 -0.0751857 0)
(-0.150098 -0.108587 0)
(0.0546441 0.0355138 0)
(0.0157498 -0.0268941 0)
(0.0449559 -0.0232837 0)
(0.0693844 -0.0161787 0)
(0.0844729 -0.0103672 0)
(0.0917011 -0.00641798 0)
(0.0945394 -0.0043343 0)
(0.0955656 -0.00331202 0)
(0.0960116 -0.00272718 0)
(0.09618 -0.00231564 0)
(0.0960563 -0.00195202 0)
(0.0955313 -0.00151157 0)
(0.0942739 -0.000756916 0)
(0.091425 0.000848651 0)
(0.0852156 0.00407431 0)
(0.0736649 0.00778755 0)
(0.0599766 0.0116414 0)
(-0.00787445 0.0300045 0)
(0.258395 0.167395 0)
(-0.161236 0.0483933 0)
(-0.141604 0.0459786 0)
(-0.174006 0.041613 0)
(-0.199367 0.0356676 0)
(-0.220088 0.0291319 0)
(-0.236121 0.0220646 0)
(-0.24738 0.0142386 0)
(-0.253566 0.00530958 0)
(-0.253898 -0.00513869 0)
(-0.247757 -0.0170717 0)
(-0.234064 -0.0308466 0)
(-0.214165 -0.0480826 0)
(-0.197595 -0.0699768 0)
(-0.19409 -0.0826634 0)
(-0.16648 -0.0425656 0)
(-0.105405 -0.0363914 0)
(-0.098325 -0.0445 0)
(0.109342 -0.0420761 0)
(0.0644493 -0.0411897 0)
(0.0719036 -0.0323122 0)
(0.0859107 -0.0207696 0)
(0.0938464 -0.0105159 0)
(0.0961074 -0.00365234 0)
(0.0958763 -0.000184626 0)
(0.0954843 0.00126289 0)
(0.0954427 0.00190338 0)
(0.0955198 0.00227023 0)
(0.095525 0.00258891 0)
(0.0954245 0.00313108 0)
(0.0951337 0.00441456 0)
(0.0938763 0.00773419 0)
(0.0882776 0.0167747 0)
(0.0745134 0.0253729 0)
(0.0631359 0.033017 0)
(-0.0518679 0.0636158 0)
(0.429972 0.253957 0)
(-0.194236 0.0847624 0)
(-0.112782 0.0784291 0)
(-0.148245 0.0669513 0)
(-0.170675 0.0554981 0)
(-0.188768 0.0437309 0)
(-0.202606 0.0313558 0)
(-0.212302 0.0180277 0)
(-0.217661 0.00342579 0)
(-0.21803 -0.0126033 0)
(-0.212784 -0.0302998 0)
(-0.201687 -0.0498956 0)
(-0.186052 -0.0715727 0)
(-0.169516 -0.0932331 0)
(-0.151142 -0.104593 0)
(-0.120296 -0.093171 0)
(-0.0795876 -0.0949752 0)
(-0.0714673 -0.107642 0)
(0.0921467 -0.0881287 0)
(0.0625768 -0.0657657 0)
(0.0743778 -0.0461772 0)
(0.0880253 -0.0293246 0)
(0.0948907 -0.0149976 0)
(0.0920118 -0.0120886 0)
(0.0877729 -0.00798458 0)
(0.0853972 -0.00579066 0)
(0.0847081 -0.00455776 0)
(0.0846901 -0.00379418 0)
(0.0849472 -0.00322421 0)
(0.085599 -0.0025989 0)
(0.0873608 -0.001439 0)
(0.0920491 0.00292438 0)
(0.0902163 0.02512 0)
(0.0734247 0.0423974 0)
(0.070117 0.0575641 0)
(-0.0898042 0.101011 0)
(0.578534 0.325845 0)
(-0.240105 0.121816 0)
(-0.0808405 0.109219 0)
(-0.12158 0.0898479 0)
(-0.139012 0.074066 0)
(-0.153071 0.0586389 0)
(-0.16383 0.0427655 0)
(-0.171426 0.0258324 0)
(-0.17564 0.00722983 0)
(-0.175713 -0.0134956 0)
(-0.171032 -0.0364377 0)
(-0.161472 -0.0614346 0)
(-0.14761 -0.0873687 0)
(-0.130634 -0.110314 0)
(-0.109677 -0.123223 0)
(-0.0821985 -0.124566 0)
(-0.0525888 -0.126401 0)
(-0.0334656 -0.123219 0)
(0.0162644 -0.0568233 0)
(0.0607757 -0.093014 0)
(0.0684619 -0.0791996 0)
(0.0790952 -0.0588715 0)
(0.0915923 -0.0396579 0)
(0.102931 -0.0210077 0)
(0.115688 -0.0132831 0)
(0.126892 -0.00887025 0)
(0.132535 -0.00563819 0)
(0.133545 -0.00311643 0)
(0.131031 -0.000883033 0)
(0.125572 0.00129051 0)
(0.117046 0.00367083 0)
(0.10469 0.00672194 0)
(0.085455 0.0111465 0)
(0.0715904 0.0368209 0)
(0.0603392 0.0605739 0)
(0.0763559 0.0834696 0)
(-0.117226 0.137402 0)
(0.705707 0.383686 0)
(-0.287678 0.157015 0)
(-0.0477061 0.133779 0)
(-0.0963021 0.106915 0)
(-0.107753 0.0875937 0)
(-0.116784 0.0691787 0)
(-0.123571 0.0504632 0)
(-0.128229 0.0306154 0)
(-0.130588 0.00876147 0)
(-0.129783 -0.0157777 0)
(-0.125287 -0.0430376 0)
(-0.116667 -0.0726541 0)
(-0.10395 -0.102811 0)
(-0.0874813 -0.129088 0)
(-0.0675366 -0.145793 0)
(-0.044197 -0.152277 0)
(-0.0203377 -0.152388 0)
(0.000202349 -0.143746 0)
(0.0307418 -0.115021 0)
(0.0569331 -0.109375 0)
(0.0705398 -0.0924686 0)
(0.0806941 -0.0713165 0)
(0.0907645 -0.0508803 0)
(0.10033 -0.0328458 0)
(0.109459 -0.0194513 0)
(0.116516 -0.0100547 0)
(0.11997 -0.00334416 0)
(0.120189 0.00192156 0)
(0.117787 0.00647516 0)
(0.113138 0.0108294 0)
(0.106275 0.0154944 0)
(0.0971353 0.0211732 0)
(0.0852295 0.0291698 0)
(0.0737114 0.0471707 0)
(0.0632983 0.0712335 0)
(0.0949055 0.099439 0)
(0.0173141 0.1386 0)
(0.0967266 0.182742 0)
(0.140461 0.147662 0)
(-0.223965 0.202623 0)
(0.810408 0.431983 0)
(-0.331312 0.190688 0)
(-0.0173286 0.150251 0)
(-0.0733815 0.117521 0)
(-0.0786079 0.0955129 0)
(-0.082228 0.0749513 0)
(-0.0844792 0.0543577 0)
(-0.0855121 0.0327459 0)
(-0.0852508 0.00889763 0)
(-0.0825696 -0.0183639 0)
(-0.0774007 -0.0489747 0)
(-0.0687735 -0.0824544 0)
(-0.0567809 -0.116469 0)
(-0.0417291 -0.146289 0)
(-0.0247495 -0.165991 0)
(-0.00636635 -0.174503 0)
(0.0120216 -0.172764 0)
(0.027943 -0.161032 0)
(0.0461187 -0.139355 0)
(0.0625855 -0.122383 0)
(0.0732752 -0.102547 0)
(0.0809686 -0.0805139 0)
(0.0877389 -0.0591874 0)
(0.0939339 -0.04032 0)
(0.0992872 -0.0251388 0)
(0.103004 -0.0137684 0)
(0.104635 -0.00505896 0)
(0.104225 0.00214878 0)
(0.102077 0.00862707 0)
(0.0984431 0.0148903 0)
(0.0934846 0.0214627 0)
(0.08744 0.0289781 0)
(0.0805836 0.0383556 0)
(0.0748709 0.0527494 0)
(0.0697309 0.0727375 0)
(0.0918896 0.0985097 0)
(0.0740324 0.107481 0)
(0.0908054 0.0484354 0)
(0.146292 -0.035466 0)
(-0.324938 0.105734 0)
(0.879874 0.474696 0)
(-0.368628 0.220975 0)
(0.00370381 0.155568 0)
(-0.0526785 0.121576 0)
(-0.0522272 0.0978553 0)
(-0.051045 0.075827 0)
(-0.049036 0.0540561 0)
(-0.046513 0.0315582 0)
(-0.043314 0.00680707 0)
(-0.0373394 -0.0222517 0)
(-0.0302556 -0.0553092 0)
(-0.0204686 -0.0918759 0)
(-0.00866861 -0.128833 0)
(0.00452522 -0.161195 0)
(0.0175661 -0.181851 0)
(0.0303439 -0.190207 0)
(0.0421493 -0.187239 0)
(0.0524592 -0.174445 0)
(0.0624379 -0.154101 0)
(0.0710269 -0.132453 0)
(0.076567 -0.109447 0)
(0.0800428 -0.0859609 0)
(0.0826572 -0.0637989 0)
(0.0849136 -0.0443079 0)
(0.0867702 -0.0282048 0)
(0.0878901 -0.0153952 0)
(0.0880432 -0.00510618 0)
(0.0870769 0.00357311 0)
(0.0851727 0.011318 0)
(0.08248 0.018645 0)
(0.0791798 0.0260488 0)
(0.0755611 0.0340283 0)
(0.0720438 0.0431424 0)
(0.0700268 0.0546941 0)
(0.0689411 0.0691074 0)
(0.0821235 0.0881722 0)
(0.0855083 0.0917372 0)
(0.0910719 0.0549311 0)
(0.181095 0.0270297 0)
(-0.278262 0.155319 0)
(0.927919 0.517155 0)
(-0.383147 0.234181 0)
(0.0168828 0.132988 0)
(-0.027341 0.116661 0)
(-0.0265702 0.0949235 0)
(-0.0227598 0.0724288 0)
(-0.0176396 0.050107 0)
(-0.0123538 0.0272596 0)
(-0.00536323 0.00186322 0)
(0.00462636 -0.0307103 0)
(0.0143644 -0.0652764 0)
(0.0256659 -0.103255 0)
(0.0372906 -0.140761 0)
(0.0479336 -0.172041 0)
(0.056988 -0.192255 0)
(0.0644494 -0.199776 0)
(0.0701519 -0.195391 0)
(0.0740996 -0.181223 0)
(0.0768022 -0.160154 0)
(0.0781728 -0.136168 0)
(0.0778276 -0.111165 0)
(0.0763419 -0.0866552 0)
(0.0745465 -0.0641079 0)
(0.0729666 -0.044517 0)
(0.0717375 -0.0282519 0)
(0.0707176 -0.0150289 0)
(0.0697016 -0.00415657 0)
(0.0683947 0.00513008 0)
(0.0668988 0.0134018 0)
(0.0651884 0.0211345 0)
(0.0633488 0.0287445 0)
(0.0615767 0.0365745 0)
(0.0601978 0.0449045 0)
(0.0601264 0.0542007 0)
(0.0613138 0.0644584 0)
(0.0704898 0.0773757 0)
(0.080943 0.0808913 0)
(0.0817594 0.0620239 0)
(0.238649 0.0563468 0)
(-0.549584 0.234155 0)
(1.01128 0.50682 0)
(-0.137219 0.29635 0)
(0.0410848 0.161521 0)
(0.0406081 0.122078 0)
(0.0130884 0.0919558 0)
(0.00866489 0.0653364 0)
(0.0141016 0.0413578 0)
(0.0207454 0.0169485 0)
(0.0325865 -0.0110477 0)
(0.044077 -0.042153 0)
(0.0559711 -0.0768742 0)
(0.0682498 -0.114551 0)
(0.0793626 -0.15097 0)
(0.0878162 -0.180419 0)
(0.0929791 -0.198463 0)
(0.0949774 -0.203677 0)
(0.0942283 -0.197086 0)
(0.0912828 -0.181092 0)
(0.0868167 -0.158733 0)
(0.0812785 -0.133326 0)
(0.0749593 -0.107312 0)
(0.0684595 -0.0825248 0)
(0.0625028 -0.0603172 0)
(0.0576082 -0.0414071 0)
(0.0539613 -0.0258683 0)
(0.0514455 -0.0132005 0)
(0.0497756 -0.00263816 0)
(0.0485446 0.00649666 0)
(0.0477083 0.0146919 0)
(0.0470396 0.0223752 0)
(0.0464862 0.0298695 0)
(0.046097 0.0373768 0)
(0.0460182 0.0449727 0)
(0.0467454 0.0526796 0)
(0.0484229 0.0601067 0)
(0.0548913 0.0676336 0)
(0.0660799 0.0662916 0)
(0.0633108 0.0405294 0)
(0.291208 0.0716413 0)
(-0.749077 0.306148 0)
(0.779315 0.395702 0)
(0.00087994 0.319485 0)
(0.0934199 0.218903 0)
(0.110648 0.155147 0)
(0.0772239 0.106785 0)
(0.0598457 0.0674857 0)
(0.0582716 0.0356822 0)
(0.0624576 0.00632483 0)
(0.0739253 -0.0235159 0)
(0.0855299 -0.0550936 0)
(0.0977481 -0.0897434 0)
(0.109611 -0.126171 0)
(0.118951 -0.159881 0)
(0.123996 -0.185562 0)
(0.124158 -0.19965 0)
(0.119878 -0.201301 0)
(0.112114 -0.191854 0)
(0.101944 -0.173833 0)
(0.0904086 -0.150257 0)
(0.0783485 -0.124159 0)
(0.0664551 -0.0980889 0)
(0.0554685 -0.0739764 0)
(0.0461222 -0.0530666 0)
(0.0388896 -0.0357936 0)
(0.0338636 -0.0219225 0)
(0.0307784 -0.0106656 0)
(0.0291467 -0.00112633 0)
(0.0284834 0.00730158 0)
(0.0284948 0.0150467 0)
(0.0288447 0.0224639 0)
(0.0293806 0.0297766 0)
(0.0299978 0.0370947 0)
(0.0305874 0.0444008 0)
(0.0310901 0.0515418 0)
(0.0309706 0.0579875 0)
(0.031283 0.0633865 0)
(0.0184132 0.0632702 0)
(0.0170776 0.0882871 0)
(0.0758666 0.170541 0)
(-0.634609 0.309962 0)
(0.617248 0.220758 0)
(0.00473164 0.298077 0)
(0.113076 0.241517 0)
(0.148358 0.177513 0)
(0.130936 0.123446 0)
(0.117921 0.0777456 0)
(0.115071 0.0387781 0)
(0.117264 0.0032658 0)
(0.123668 -0.0308492 0)
(0.131934 -0.0650961 0)
(0.141643 -0.1005 0)
(0.150516 -0.135259 0)
(0.155607 -0.165035 0)
(0.154995 -0.185524 0)
(0.148377 -0.19443 0)
(0.136661 -0.191765 0)
(0.121323 -0.179241 0)
(0.103868 -0.159402 0)
(0.0856695 -0.135142 0)
(0.0678389 -0.109257 0)
(0.051332 -0.0842364 0)
(0.0370479 -0.0619695 0)
(0.0257539 -0.043536 0)
(0.0177437 -0.0289771 0)
(0.0127819 -0.0176477 0)
(0.0101789 -0.0083817 0)
(0.00918582 -0.000230035 0)
(0.00933516 0.00727838 0)
(0.0101411 0.0144619 0)
(0.0113453 0.0215669 0)
(0.0127739 0.0287451 0)
(0.0142266 0.0361123 0)
(0.0153694 0.0437343 0)
(0.0156742 0.051648 0)
(0.0141719 0.0597603 0)
(0.0101587 0.0690919 0)
(-0.0225415 0.0945974 0)
(-0.0173534 0.139615 0)
(0.0211618 0.186622 0)
(-0.546361 0.214478 0)
(0.570779 0.118354 0)
(-0.0202315 0.258577 0)
(0.113747 0.229854 0)
(0.165099 0.176013 0)
(0.166769 0.126111 0)
(0.164437 0.0809905 0)
(0.165442 0.0398271 0)
(0.168425 0.00145353 0)
(0.172425 -0.0355663 0)
(0.178048 -0.0720302 0)
(0.184247 -0.107578 0)
(0.187933 -0.139478 0)
(0.18609 -0.16391 0)
(0.177351 -0.178097 0)
(0.162168 -0.181254 0)
(0.142087 -0.174256 0)
(0.119042 -0.1591 0)
(0.0947898 -0.138195 0)
(0.0709242 -0.114247 0)
(0.0486946 -0.0897681 0)
(0.0292965 -0.0671627 0)
(0.0137977 -0.0482111 0)
(0.00284245 -0.0336351 0)
(-0.00393255 -0.0226554 0)
(-0.00736939 -0.0143292 0)
(-0.00885276 -0.00706367 0)
(-0.00907518 -0.000212354 0)
(-0.00831612 0.00644946 0)
(-0.00700687 0.0130755 0)
(-0.00522165 0.0198132 0)
(-0.00308545 0.026809 0)
(-0.000768496 0.0343141 0)
(0.00134086 0.042619 0)
(0.00248948 0.0521302 0)
(0.00165618 0.0636896 0)
(-0.00233313 0.0818876 0)
(-0.0323941 0.12427 0)
(-0.0262369 0.179498 0)
(0.00175951 0.181244 0)
(-0.520008 0.0895078 0)
(0.628512 0.0534462 0)
(0.00942239 0.197239 0)
(0.113816 0.196944 0)
(0.175112 0.157905 0)
(0.191357 0.117618 0)
(0.198014 0.0771468 0)
(0.203366 0.0370847 0)
(0.208623 -0.00175618 0)
(0.213209 -0.0399155 0)
(0.217599 -0.0767073 0)
(0.219465 -0.109969 0)
(0.215642 -0.13659 0)
(0.204251 -0.154032 0)
(0.185391 -0.161342 0)
(0.160674 -0.159083 0)
(0.132256 -0.148639 0)
(0.102369 -0.132047 0)
(0.0727239 -0.111373 0)
(0.0450944 -0.0891429 0)
(0.020726 -0.0675793 0)
(0.00125105 -0.0490605 0)
(-0.0122238 -0.0352837 0)
(-0.0199223 -0.0259949 0)
(-0.0240257 -0.018888 0)
(-0.0258653 -0.0127138 0)
(-0.0263913 -0.00675395 0)
(-0.0260497 -0.00078128 0)
(-0.0249562 0.00523435 0)
(-0.0233975 0.0113235 0)
(-0.0212739 0.0175875 0)
(-0.0186125 0.0242036 0)
(-0.0154632 0.031517 0)
(-0.0120288 0.0400809 0)
(-0.00888035 0.0508572 0)
(-0.00694939 0.0656581 0)
(-0.00389045 0.089258 0)
(-0.0156926 0.135067 0)
(-0.0150054 0.204356 0)
(0.111796 0.202441 0)
(-0.477892 0.0370569 0)
(0.472024 0.0747128 0)
(-0.132053 0.137584 0)
(0.0941613 0.133331 0)
(0.172621 0.116797 0)
(0.203717 0.0952782 0)
(0.217997 0.064242 0)
(0.22801 0.0281358 0)
(0.237162 -0.00930732 0)
(0.243645 -0.0456681 0)
(0.245238 -0.0785133 0)
(0.239316 -0.105194 0)
(0.224532 -0.12371 0)
(0.201417 -0.133277 0)
(0.171881 -0.134372 0)
(0.13848 -0.12824 0)
(0.10348 -0.116134 0)
(0.0691604 -0.0998818 0)
(0.036714 -0.0810864 0)
(0.00853431 -0.0622822 0)
(-0.0144923 -0.0455587 0)
(-0.0287861 -0.0345636 0)
(-0.0372758 -0.0272144 0)
(-0.0417605 -0.0217913 0)
(-0.0438899 -0.0169662 0)
(-0.044563 -0.0121507 0)
(-0.0443315 -0.0070706 0)
(-0.0434954 -0.00171349 0)
(-0.0421149 0.00380171 0)
(-0.040444 0.00936533 0)
(-0.0382004 0.0150335 0)
(-0.0352836 0.021012 0)
(-0.0315901 0.0276973 0)
(-0.0270928 0.0357873 0)
(-0.0220622 0.0466034 0)
(-0.017073 0.0626006 0)
(-0.00888928 0.0873143 0)
(-0.0012158 0.127894 0)
(0.00109829 0.191608 0)
(0.160816 0.197009 0)
(-0.35327 0.0993313 0)
(0.723918 0.134401 0)
(0.0818343 0.11521 0)
(0.149639 0.0992145 0)
(0.222242 0.0804885 0)
(0.243875 0.0698709 0)
(0.248664 0.0474958 0)
(0.255017 0.0172388 0)
(0.26119 -0.0151302 0)
(0.260292 -0.0451579 0)
(0.249872 -0.0698855 0)
(0.229709 -0.0876326 0)
(0.201385 -0.0979917 0)
(0.167275 -0.101334 0)
(0.129889 -0.0986667 0)
(0.0916798 -0.0912337 0)
(0.0540432 -0.079689 0)
(0.0196272 -0.0656552 0)
(-0.0120163 -0.0502971 0)
(-0.0345613 -0.0385395 0)
(-0.0495225 -0.0306796 0)
(-0.0582988 -0.025955 0)
(-0.0632165 -0.0225962 0)
(-0.0657041 -0.0195696 0)
(-0.0666392 -0.016254 0)
(-0.066492 -0.0124158 0)
(-0.0655944 -0.00798935 0)
(-0.0642082 -0.00304829 0)
(-0.0624229 0.00218897 0)
(-0.0606874 0.00738772 0)
(-0.0586446 0.0124819 0)
(-0.0560818 0.0176934 0)
(-0.0528621 0.0234337 0)
(-0.0488589 0.030534 0)
(-0.0440035 0.0406147 0)
(-0.0380718 0.055867 0)
(-0.0282629 0.0773212 0)
(-0.0107676 0.10515 0)
(0.00536192 0.151352 0)
(0.17997 0.171198 0)
(-0.325187 0.159872 0)
(0.191877 0.0880245 0)
(0.225674 0.0998181 0)
(0.2464 0.0701197 0)
(0.24246 0.0396464 0)
(0.239685 0.0118175 0)
(0.234671 -0.0132714 0)
(0.219976 -0.033757 0)
(0.196339 -0.0488253 0)
(0.166118 -0.0584667 0)
(0.131745 -0.0631855 0)
(0.094993 -0.0633484 0)
(0.0577159 -0.0596672 0)
(0.0218168 -0.0529857 0)
(-0.0134531 -0.0434263 0)
(-0.0411672 -0.0343989 0)
(-0.0620679 -0.0273999 0)
(-0.0760437 -0.0234108 0)
(-0.0848549 -0.0214033 0)
(-0.0902035 -0.0203727 0)
(-0.0934 -0.0193347 0)
(-0.0950901 -0.0178496 0)
(-0.0955973 -0.0156969 0)
(-0.0951204 -0.0127691 0)
(-0.0938631 -0.00902264 0)
(-0.0920795 -0.00450205 0)
(-0.0899545 0.000575553 0)
(-0.0878647 0.00572883 0)
(-0.0862107 0.0106549 0)
(-0.0845747 0.0155172 0)
(-0.0829135 0.0207765 0)
(-0.0809686 0.027247 0)
(-0.0781574 0.0360718 0)
(-0.0738519 0.0480791 0)
(-0.0659655 0.0621921 0)
(-0.0477125 0.074986 0)
(-0.0173062 0.0906244 0)
(0.173844 0.140222 0)
(-0.412338 0.226374 0)
(0.451162 0.209661 0)
(0.206469 0.178791 0)
(0.152865 0.118802 0)
(0.139717 0.0638932 0)
(0.128298 0.0255918 0)
(0.114275 0.00142433 0)
(0.0988363 -0.0133398 0)
(0.0778584 -0.0224892 0)
(0.0533169 -0.0280361 0)
(0.0263204 -0.0303493 0)
(-0.00338379 -0.029329 0)
(-0.0326459 -0.0258771 0)
(-0.0588668 -0.0213845 0)
(-0.0810234 -0.0172003 0)
(-0.0975611 -0.0148433 0)
(-0.109086 -0.0141578 0)
(-0.116815 -0.0148042 0)
(-0.122204 -0.0158442 0)
(-0.126106 -0.0167371 0)
(-0.128884 -0.0171646 0)
(-0.130633 -0.0169448 0)
(-0.13137 -0.015919 0)
(-0.131125 -0.0139364 0)
(-0.129988 -0.0108744 0)
(-0.128141 -0.0066887 0)
(-0.125789 -0.00152489 0)
(-0.123051 0.00405759 0)
(-0.120974 0.00932041 0)
(-0.119442 0.0143627 0)
(-0.11824 0.0198033 0)
(-0.117081 0.0263973 0)
(-0.115648 0.0348293 0)
(-0.114548 0.0453341 0)
(-0.114926 0.0571767 0)
(-0.111995 0.0690618 0)
(-0.088919 0.0882326 0)
(-0.0598463 0.147249 0)
(-0.530777 0.232383 0)
(0.361485 -0.415066 0)
(-0.346192 -0.513069 0)
(-0.2187 -0.0277944 0)
(-0.0929352 0.110998 0)
(-0.0536536 0.0926146 0)
(-0.031391 0.0544912 0)
(-0.0266336 0.0282229 0)
(-0.0316313 0.0113979 0)
(-0.0402891 0.000430734 0)
(-0.0506213 -0.0067917 0)
(-0.0641337 -0.011107 0)
(-0.0792547 -0.0133951 0)
(-0.0950139 -0.0148031 0)
(-0.110397 -0.0165606 0)
(-0.124288 -0.0190867 0)
(-0.135692 -0.0219987 0)
(-0.144108 -0.024772 0)
(-0.150187 -0.0268548 0)
(-0.154955 -0.0282931 0)
(-0.159062 -0.0291816 0)
(-0.162662 -0.0295627 0)
(-0.165657 -0.0294041 0)
(-0.167881 -0.0286454 0)
(-0.169202 -0.0272082 0)
(-0.16957 -0.0250015 0)
(-0.169036 -0.0219296 0)
(-0.167747 -0.0179054 0)
(-0.165903 -0.0128645 0)
(-0.163533 -0.00679164 0)
(-0.160887 0.000276679 0)
(-0.158147 0.00747793 0)
(-0.154808 0.0147193 0)
(-0.150441 0.0226395 0)
(-0.144546 0.0319463 0)
(-0.137438 0.0429562 0)
(-0.130484 0.0558172 0)
(-0.11822 0.0722697 0)
(-0.0731421 0.0964568 0)
(-0.0493165 0.114191 0)
(-0.59981 0.068811 0)
(0.123942 -0.18529 0)
(-0.388004 -0.297694 0)
(-0.343377 -0.0964634 0)
(-0.264946 0.0518136 0)
(-0.211283 0.0837603 0)
(-0.179213 0.074728 0)
(-0.163029 0.0611655 0)
(-0.157118 0.0511441 0)
(-0.157218 0.0459768 0)
(-0.160449 0.0454785 0)
(-0.164782 0.048807 0)
(-0.169043 0.0550316 0)
(-0.172498 0.0628967 0)
(-0.174815 0.0704566 0)
(-0.176389 0.0758505 0)
(-0.17784 0.0777399 0)
(-0.179759 0.0757985 0)
(-0.18219 0.0722751 0)
(-0.185048 0.0681536 0)
(-0.188212 0.0636881 0)
(-0.191558 0.05891 0)
(-0.194969 0.0538962 0)
(-0.19833 0.0488621 0)
(-0.201523 0.0441932 0)
(-0.204398 0.0403959 0)
(-0.206737 0.0379578 0)
(-0.208261 0.0371628 0)
(-0.208685 0.0379192 0)
(-0.207711 0.0395441 0)
(-0.205 0.0402724 0)
(-0.200974 0.0395414 0)
(-0.195037 0.0387038 0)
(-0.186541 0.0384823 0)
(-0.174838 0.0393292 0)
(-0.159529 0.0410799 0)
(-0.139121 0.0429482 0)
(-0.105058 0.0465872 0)
(-0.0397102 0.0610397 0)
(0.133014 0.0919768 0)
(-0.344931 0.0656419 0)
(1.14749 -0.011265 0)
(-0.295804 -0.323458 0)
(-0.353106 -0.234059 0)
(-0.352526 -0.149666 0)
(-0.328763 -0.108265 0)
(-0.297148 -0.0997705 0)
(-0.269972 -0.102122 0)
(-0.250378 -0.108106 0)
(-0.237458 -0.116169 0)
(-0.229198 -0.126232 0)
(-0.223708 -0.138446 0)
(-0.219528 -0.152553 0)
(-0.21571 -0.167427 0)
(-0.211967 -0.181141 0)
(-0.208598 -0.191713 0)
(-0.20626 -0.198117 0)
(-0.205616 -0.200174 0)
(-0.207071 -0.199873 0)
(-0.210521 -0.198025 0)
(-0.215803 -0.194862 0)
(-0.222785 -0.19031 0)
(-0.231321 -0.184215 0)
(-0.241166 -0.176523 0)
(-0.251909 -0.167397 0)
(-0.262923 -0.157237 0)
(-0.273366 -0.146583 0)
(-0.282241 -0.135917 0)
(-0.288509 -0.125472 0)
(-0.291274 -0.115122 0)
(-0.289991 -0.104475 0)
(-0.284989 -0.0940971 0)
(-0.277294 -0.0850825 0)
(-0.267076 -0.0768046 0)
(-0.25444 -0.0685077 0)
(-0.239878 -0.0600205 0)
(-0.222045 -0.0515433 0)
(-0.19072 -0.0411982 0)
(-0.133107 -0.0201139 0)
(-0.115557 0.0230498 0)
(-0.573907 0.0621232 0)
)
;

boundaryField
{
    floor
    {
        type            noSlip;
    }
    ceiling
    {
        type            noSlip;
    }
    sWall
    {
        type            noSlip;
    }
    nWall
    {
        type            noSlip;
    }
    sideWalls
    {
        type            empty;
    }
    glass1
    {
        type            noSlip;
    }
    glass2
    {
        type            noSlip;
    }
    sun
    {
        type            noSlip;
    }
    Table_master
    {
        type            noSlip;
    }
    Table_slave
    {
        type            noSlip;
    }
    inlet
    {
        type            fixedValue;
        value           uniform (0.5 0 0);
    }
    outlet
    {
        type            zeroGradient;
    }
}


// ************************************************************************* //
