/*--------------------------------*- C++ -*----------------------------------*\
  =========                 |
  \\      /  F ield         | OpenFOAM: The Open Source CFD Toolbox
   \\    /   O peration     | Website:  https://openfoam.org
    \\  /    A nd           | Version:  6
     \\/     M anipulation  |
\*---------------------------------------------------------------------------*/
FoamFile
{
    version     2.0;
    format      ascii;
    class       volScalarField;
    location    "1000";
    object      alphat;
}
// * * * * * * * * * * * * * * * * * * * * * * * * * * * * * * * * * * * * * //

dimensions      [1 -1 -1 0 0 0 0];

internalField   nonuniform List<scalar> 
662
(
0.00109266
0.00117279
0.0011815
0.00123518
0.0012856
0.00133321
0.00137995
0.00142831
0.00147771
0.00152341
0.00155976
0.00157498
0.0015507
0.00146226
0.00124011
0.000530756
0.000626683
0.000693853
0.000698187
0.000679335
0.000637703
0.000592795
0.000552027
0.000516078
0.000484497
0.000456824
0.000432225
0.000410037
0.000389593
0.000370071
0.000350619
0.000346776
0.000324869
0.00154026
0.00310941
0.00274272
0.00315988
0.00352107
0.00390612
0.00429118
0.00463114
0.00494169
0.00530727
0.00570929
0.00608908
0.00635387
0.00635659
0.00564857
0.00139553
0.00114906
0.00094712
0.000546961
0.00120873
0.00168846
0.00207228
0.00218899
0.0016626
0.00143048
0.00127048
0.00115016
0.00105465
0.000970339
0.000895314
0.000826637
0.000761673
0.000706522
0.000653113
0.000832738
0.000460727
0.00194024
0.00436871
0.00306697
0.004087
0.00444086
0.00465933
0.00479575
0.00489223
0.00501678
0.00526212
0.0056422
0.00614249
0.00669357
0.00711606
0.00706685
0.00577263
0.00455941
0.0010817
0.000918791
0.00148621
0.00201381
0.00253082
0.00265316
0.000854599
0.000752359
0.000668653
0.000601527
0.000547723
0.000504442
0.000469288
0.000440666
0.000418049
0.000462551
0.000526809
0.000979857
0.000557267
0.0023437
0.00608463
0.00303092
0.00421549
0.00463261
0.00462231
0.00445337
0.00428407
0.00424496
0.00438903
0.00474032
0.00531762
0.00605911
0.00674438
0.00711389
0.00688665
0.00597444
0.00324438
0.00128806
0.00182486
0.00244606
0.00309386
0.00359862
0.00351087
0.000937802
0.000862544
0.000817636
0.000788974
0.000766313
0.000741609
0.000712964
0.000682284
0.000645182
0.000614953
0.000611889
0.00119319
0.000642767
0.00273816
0.00799248
0.00393476
0.00380531
0.00451787
0.00455258
0.00424167
0.00386107
0.00368734
0.00377179
0.0041038
0.00472423
0.00554744
0.00627155
0.00666309
0.0067255
0.00639007
0.00524143
0.00486217
0.00473617
0.0048663
0.00504511
0.00512505
0.00496166
0.00418292
0.00386127
0.00371815
0.0036224
0.00351249
0.00335377
0.00307014
0.00264859
0.00214468
0.00164748
0.00123572
0.00113842
0.00110482
0.000865341
0.0008948
0.000969597
0.00319044
0.00978098
0.00609469
0.00391664
0.00386613
0.00414935
0.00417131
0.00386634
0.0034969
0.00353028
0.00384262
0.00448594
0.00531033
0.00593253
0.00624331
0.00627322
0.00622023
0.00613033
0.00620406
0.00632202
0.00633943
0.00621585
0.00597128
0.00562475
0.00520976
0.00491919
0.00471927
0.00455043
0.00438072
0.00419643
0.00398192
0.00364763
0.00317583
0.002597
0.00202465
0.00142451
0.00124237
0.00113449
0.00142566
0.00100701
0.00149243
0.00463898
0.00591733
0.00499117
0.00403919
0.00367857
0.00368004
0.00371096
0.00356329
0.00351081
0.00369555
0.00424869
0.00527496
0.00581255
0.00605535
0.00602249
0.00613807
0.00650819
0.00682832
0.00691166
0.00674404
0.00638801
0.0059262
0.00543675
0.0050156
0.0047345
0.00454614
0.00439361
0.00425424
0.00412458
0.00401034
0.00390705
0.00361338
0.00314762
0.00263674
0.00211696
0.00180669
0.00168887
0.00160603
0.00119277
0.00116709
0.00236708
0.00340281
0.00414427
0.00441255
0.00423764
0.00394658
0.0037511
0.00361551
0.00357184
0.00383469
0.00446549
0.00537535
0.00585259
0.00606716
0.00604437
0.00631208
0.00659763
0.00669585
0.00655181
0.00618757
0.00568795
0.00516145
0.00470529
0.00437834
0.00417074
0.0040305
0.00392497
0.00384862
0.00380944
0.00382102
0.00389445
0.00395967
0.00368027
0.00341309
0.00329079
0.00341405
0.00355983
0.00433986
0.00180417
0.000342492
0.00165057
0.00265874
0.00326754
0.00349839
0.00352022
0.00351179
0.0036892
0.00422439
0.00491102
0.00546607
0.00595608
0.00617553
0.00614024
0.00606835
0.00596382
0.00578012
0.00547085
0.005058
0.00462186
0.0042403
0.00394931
0.00374223
0.00358971
0.00346485
0.00335538
0.00325866
0.00317412
0.00309902
0.00302793
0.0029599
0.0029019
0.00286472
0.00284413
0.0027824
0.00264266
0.00245956
0.00169032
0.000689698
0.000857655
0.00164365
0.00243917
0.00299379
0.00336543
0.00374359
0.00431435
0.00496825
0.00531305
0.00520045
0.00595825
0.00616075
0.00581426
0.00536714
0.00500655
0.00471468
0.00443347
0.00415645
0.00390623
0.00369773
0.00352816
0.00338579
0.00325981
0.00314496
0.00304146
0.00295271
0.00288402
0.00284269
0.00283678
0.00286001
0.002893
0.00292745
0.00294352
0.00291592
0.00284184
0.00253699
0.00141407
0.00123198
0.00297654
0.00148722
0.00139159
0.00216374
0.00298291
0.00367077
0.00430292
0.00487459
0.00514107
0.00527653
0.00472739
0.00395131
0.0047068
0.00483809
0.00461836
0.00435344
0.00411646
0.00391102
0.00372018
0.00353982
0.00337247
0.00321969
0.00308171
0.00296004
0.00285907
0.00278502
0.00274272
0.0027324
0.00274788
0.00277787
0.00284483
0.00293675
0.00304023
0.00313809
0.00321409
0.00328019
0.00339422
0.00228685
0.0014693
0.000965967
0.00214114
0.00287283
0.00340139
0.00384994
0.00419545
0.00442483
0.00452108
0.00434699
0.00371529
0.00349535
0.00208563
0.000973575
0.000979796
0.00097326
0.000952778
0.000932065
0.000915165
0.000899701
0.000885969
0.000874764
0.000866989
0.000863451
0.000864843
0.000871761
0.000884674
0.000903924
0.000929815
0.000962869
0.00100424
0.00105605
0.00111579
0.0011839
0.00125962
0.00134156
0.00142864
0.0014771
0.0013488
0.00125871
0.0014127
0.00249756
0.00628617
0.00576191
0.00449187
0.00380135
0.00367133
0.0037177
0.00364456
0.00351857
0.00356494
0.00392773
0.00463673
0.00184463
0.00297448
0.0038088
0.00435097
0.00435984
0.00408765
0.00383265
0.00368112
0.00357019
0.00365198
0.00411751
0.00482862
0.00107043
0.00219747
0.00301657
0.00342127
0.00352369
0.00350802
0.00356151
0.00391282
0.00458059
0.0051675
0.00062839
0.00121863
0.00206511
0.00274793
0.00319201
0.00354125
0.00400665
0.00464469
0.00521992
0.00527244
0.00333424
0.00242654
0.00118161
0.00175985
0.00260221
0.00333797
0.00398971
0.00460662
0.00504787
0.00521908
0.00517039
0.00417506
0.00228904
0.00249816
0.00318801
0.00363509
0.00403955
0.00432397
0.00448966
0.00449636
0.00398775
0.00363404
0.00299477
0.00125506
0.00156237
0.00311122
0.00459826
0.00497808
0.00459406
0.00406006
0.00374843
0.00366122
0.00358391
0.00353893
0.00374116
0.00432308
0.00122993
0.00136345
0.00185424
0.00278958
0.00355918
0.00386386
0.00383682
0.00370996
0.00359165
0.00360892
0.00398644
0.00466593
0.000587635
0.00100796
0.00197421
0.002736
0.00315867
0.00335005
0.00351056
0.00390332
0.0045676
0.00515893
0.000590069
0.000945891
0.00168898
0.00248533
0.00313837
0.00369113
0.00427891
0.00482854
0.00527351
0.0052233
0.00124157
0.00279985
0.00232975
0.00239834
0.0030958
0.00376712
0.00435069
0.0048139
0.00506212
0.00487656
0.00479026
0.00363993
0.00113916
0.00105685
0.00111884
0.00116126
0.00115678
0.00111376
0.0010412
0.000936956
0.000781581
0.000664784
0.000577773
0.000468576
0.00215652
0.00411862
0.00493322
0.00484905
0.00431164
0.00386798
0.00368494
0.00362974
0.00354571
0.00359485
0.00399036
0.00470452
0.00126198
0.0013866
0.00231062
0.00322758
0.0037671
0.00387608
0.00377488
0.0036486
0.00356746
0.00374487
0.00431166
0.00499394
0.000598559
0.00149383
0.00239693
0.00298639
0.00327222
0.00341793
0.00366751
0.00421264
0.00490919
0.00529088
0.000675654
0.00129308
0.00209813
0.00283185
0.00341812
0.00397632
0.00456604
0.00506759
0.00536367
0.00493902
0.00317814
0.00268267
0.00221892
0.00273846
0.00345192
0.00406243
0.00459902
0.00498268
0.00499095
0.00483678
0.00447357
0.00279818
0.00102802
0.00109174
0.00114306
0.00116507
0.00113928
0.00108104
0.000994045
0.000863442
0.000720258
0.000620005
0.000523225
0.000463946
)
;

boundaryField
{
    floor
    {
        type            compressible::alphatWallFunction;
        Prt             0.85;
        value           nonuniform List<scalar> 
36
(
0.000175628
7.38934e-05
8.83189e-05
9.82575e-05
9.88952e-05
9.61205e-05
8.99587e-05
8.32567e-05
7.71181e-05
7.16584e-05
6.68228e-05
6.2553e-05
5.873e-05
5.52578e-05
5.20372e-05
4.89414e-05
4.58357e-05
4.52195e-05
4.16903e-05
4.16897e-05
6.3156e-05
7.79081e-05
9.07086e-05
0.000123138
0.000127353
0.000137974
0.000175626
0.000196835
0.000163068
0.000134779
7.38925e-05
0.000134777
7.63511e-05
0.000153699
0.000130761
0.000182205
)
;
    }
    ceiling
    {
        type            compressible::alphatWallFunction;
        Prt             0.85;
        value           nonuniform List<scalar> 
58
(
0.000146245
0.000155159
0.000162297
0.000165355
0.000161796
0.000153704
0.000141513
0.000122969
0.00010225
8.74483e-05
7.28717e-05
6.37811e-05
0.000138657
0.000139536
0.000138613
0.000135717
0.00013278
0.000130377
0.000128175
0.000126215
0.000124613
0.0001235
0.000122993
0.000123192
0.000124182
0.000126029
0.000128775
0.000132459
0.000137144
0.000142983
0.000150255
0.000158588
0.000168028
0.000178449
0.000189647
0.000201463
0.000208003
0.000190634
0.00017833
0.000199316
0.000178889
0.000195852
8.27168e-05
0.000137509
0.000150286
0.000158933
0.000164822
0.000164215
0.000158257
0.000148136
0.000133445
0.000111178
9.40936e-05
8.11255e-05
6.44948e-05
0.000165859
0.000192716
9.75645e-05
)
;
    }
    sWall
    {
        type            compressible::alphatWallFunction;
        Prt             0.85;
        value           nonuniform List<scalar> 4(0.000175278 0.000161151 0.00017396 0.00013692);
    }
    nWall
    {
        type            compressible::alphatWallFunction;
        Prt             0.85;
        value           nonuniform List<scalar> 6(0.000137744 0.000143015 0.000168882 0.00019914 0.000206597 0.000198961);
    }
    sideWalls
    {
        type            empty;
    }
    glass1
    {
        type            compressible::alphatWallFunction;
        Prt             0.85;
        value           nonuniform List<scalar> 10(0.000151014 0.000211194 0.00026348 0.000315154 0.000364846 0.000420949 0.000215911 0.000172151 0.000206867 0.00016351);
    }
    glass2
    {
        type            compressible::alphatWallFunction;
        Prt             0.85;
        value           nonuniform List<scalar> 2(0.000249419 0.000234527);
    }
    sun
    {
        type            compressible::alphatWallFunction;
        Prt             0.85;
        value           nonuniform List<scalar> 
14
(
0.00015525
0.000166355
0.000167558
0.000174954
0.000181869
0.000188368
0.000194725
0.000201276
0.000207942
0.000214086
0.000218958
0.000220994
0.000217743
0.000205856
)
;
    }
    Table_master
    {
        type            compressible::alphatWallFunction;
        Prt             0.85;
        value           nonuniform List<scalar> 9(0.000121756 0.000106978 9.46982e-05 8.47157e-05 7.66151e-05 7.0027e-05 6.46236e-05 6.01862e-05 5.66538e-05);
    }
    Table_slave
    {
        type            compressible::alphatWallFunction;
        Prt             0.85;
        value           nonuniform List<scalar> 9(0.000133631 0.000122899 0.000116442 0.000112299 0.000109011 0.000105413 0.000101223 9.6712e-05 9.12242e-05);
    }
    inlet
    {
        type            fixedValue;
        value           uniform 1.94e-05;
    }
    outlet
    {
        type            zeroGradient;
    }
}


// ************************************************************************* //
