/*--------------------------------*- C++ -*----------------------------------*\
  =========                 |
  \\      /  F ield         | OpenFOAM: The Open Source CFD Toolbox
   \\    /   O peration     | Website:  https://openfoam.org
    \\  /    A nd           | Version:  6
     \\/     M anipulation  |
\*---------------------------------------------------------------------------*/
FoamFile
{
    version     2.0;
    format      ascii;
    class       volScalarField;
    location    "1000";
    object      epsilon;
}
// * * * * * * * * * * * * * * * * * * * * * * * * * * * * * * * * * * * * * //

dimensions      [0 2 -3 0 0 0 0];

internalField   nonuniform List<scalar> 
796
(
2.84316e-05
2.80202e-05
1.75715e-05
1.90616e-05
2.1124e-05
2.32563e-05
2.54001e-05
2.75414e-05
2.96799e-05
3.18243e-05
3.39926e-05
3.62146e-05
3.85378e-05
4.1012e-05
4.34231e-05
4.57225e-05
4.78463e-05
4.97078e-05
5.11894e-05
5.21333e-05
5.23328e-05
5.15412e-05
4.95251e-05
4.61766e-05
4.16167e-05
3.6159e-05
2.99171e-05
2.53169e-05
2.11717e-05
1.74223e-05
1.40957e-05
1.14536e-05
9.45638e-06
7.8915e-06
6.75043e-06
6.67507e-06
8.03854e-06
1.68786e-05
5.41263e-05
4.12513e-05
0.000173259
0.000453745
3.00913e-05
1.32188e-05
1.32188e-05
1.3933e-05
1.46488e-05
1.53503e-05
1.60631e-05
1.68208e-05
1.76615e-05
1.8629e-05
1.97746e-05
2.11516e-05
2.26522e-05
2.42532e-05
2.59209e-05
2.76038e-05
2.92258e-05
3.06744e-05
3.17838e-05
3.23253e-05
3.20426e-05
3.0757e-05
2.84686e-05
2.50998e-05
2.16308e-05
1.87271e-05
1.61154e-05
1.37942e-05
1.17736e-05
1.00547e-05
8.61391e-06
7.37669e-06
6.36656e-06
5.9892e-06
9.02025e-06
4.14393e-05
0.000259765
0.00014119
0.000465756
0.00148119
9.55925e-05
1.54325e-05
1.18622e-05
1.20395e-05
1.25061e-05
1.30503e-05
1.36787e-05
1.44182e-05
1.52975e-05
1.63424e-05
1.75728e-05
1.8995e-05
2.05797e-05
2.22982e-05
2.41082e-05
2.59534e-05
2.77615e-05
2.94328e-05
3.08137e-05
3.16723e-05
3.17324e-05
3.07836e-05
2.8665e-05
2.5753e-05
2.29175e-05
2.02351e-05
1.76949e-05
1.53629e-05
1.32743e-05
1.14304e-05
9.81769e-06
8.43651e-06
7.39104e-06
7.42289e-06
1.49758e-05
9.91e-05
0.000721248
0.000313742
0.000919714
0.0030309
0.000248044
2.29325e-05
1.1629e-05
1.11355e-05
1.14837e-05
1.19905e-05
1.26153e-05
1.33754e-05
1.4295e-05
1.53975e-05
1.67004e-05
1.82071e-05
1.98873e-05
2.16932e-05
2.35616e-05
2.5423e-05
2.72055e-05
2.88266e-05
3.01552e-05
3.09786e-05
3.10571e-05
3.01826e-05
2.83389e-05
2.61367e-05
2.37818e-05
2.13422e-05
1.89309e-05
1.66453e-05
1.4539e-05
1.26313e-05
1.09237e-05
9.46058e-06
8.45243e-06
9.20731e-06
2.38193e-05
0.000185739
0.00131854
0.000540141
0.00152205
0.00494918
0.000522944
3.88003e-05
1.20168e-05
1.04179e-05
1.06418e-05
1.11386e-05
1.17848e-05
1.25922e-05
1.35899e-05
1.48087e-05
1.62732e-05
1.79774e-05
1.98665e-05
2.1857e-05
2.38501e-05
2.57546e-05
2.74951e-05
2.90031e-05
3.01567e-05
3.07492e-05
3.05975e-05
2.96323e-05
2.81844e-05
2.63603e-05
2.42099e-05
2.18861e-05
1.95432e-05
1.72949e-05
1.52055e-05
1.33038e-05
1.16012e-05
1.01592e-05
9.29603e-06
1.11496e-05
3.66658e-05
0.000304871
0.00197609
0.000801273
0.00224624
0.00708704
0.000937407
6.97882e-05
1.32982e-05
9.81071e-06
9.85688e-06
1.0363e-05
1.10658e-05
1.19705e-05
1.31183e-05
1.45549e-05
1.63168e-05
1.83733e-05
2.06248e-05
2.29278e-05
2.51323e-05
2.71314e-05
2.88575e-05
3.02664e-05
3.12228e-05
3.14902e-05
3.09947e-05
3.00846e-05
2.8774e-05
2.69721e-05
2.47793e-05
2.23808e-05
1.99576e-05
1.76427e-05
1.55127e-05
1.36023e-05
1.19254e-05
1.0548e-05
9.884e-06
1.30414e-05
5.22849e-05
0.000437127
0.0026465
0.00108278
0.00306305
0.00930939
0.00148452
0.000125724
1.61245e-05
9.3788e-06
9.14227e-06
9.66719e-06
1.04638e-05
1.15261e-05
1.29143e-05
1.46977e-05
1.69301e-05
1.95268e-05
2.23051e-05
2.50218e-05
2.74646e-05
2.95462e-05
3.12401e-05
3.25513e-05
3.32913e-05
3.31674e-05
3.25159e-05
3.15481e-05
3.01115e-05
2.81425e-05
2.57435e-05
2.31182e-05
2.04782e-05
1.79835e-05
1.57271e-05
1.37489e-05
1.20627e-05
1.07338e-05
1.02753e-05
1.49495e-05
7.07055e-05
0.000581821
0.00330646
0.00137615
0.00394529
0.0115039
0.00214186
0.000217856
2.17589e-05
9.24519e-06
8.52898e-06
9.05901e-06
9.97701e-06
1.12566e-05
1.29895e-05
1.52875e-05
1.8231e-05
2.1619e-05
2.50993e-05
2.82812e-05
3.09005e-05
3.29735e-05
3.45673e-05
3.57571e-05
3.62355e-05
3.58835e-05
3.50429e-05
3.38319e-05
3.215e-05
2.99054e-05
2.71821e-05
2.42049e-05
2.12268e-05
1.84459e-05
1.59775e-05
1.38655e-05
1.21145e-05
1.07918e-05
1.05341e-05
1.70602e-05
9.31421e-05
0.000739064
0.00394292
0.00167607
0.00487953
0.0135618
0.00288425
0.000357943
3.29967e-05
9.67284e-06
8.06797e-06
8.5445e-06
9.59193e-06
1.11477e-05
1.33668e-05
1.64533e-05
2.04938e-05
2.50281e-05
2.93639e-05
3.29641e-05
3.55811e-05
3.74749e-05
3.88658e-05
3.98899e-05
4.02041e-05
3.96282e-05
3.84406e-05
3.6908e-05
3.49251e-05
3.23264e-05
2.91678e-05
2.57061e-05
2.22544e-05
1.90663e-05
1.62895e-05
1.39712e-05
1.20994e-05
1.07449e-05
1.07135e-05
1.96533e-05
0.00012103
0.000910389
0.00455511
0.00197941
0.00579659
0.0154658
0.00370637
0.000563512
5.70638e-05
1.15037e-05
7.96047e-06
8.20933e-06
9.35478e-06
1.12487e-05
1.41781e-05
1.85728e-05
2.44333e-05
3.05296e-05
3.57103e-05
3.94742e-05
4.17596e-05
4.32211e-05
4.42986e-05
4.51923e-05
4.53579e-05
4.43879e-05
4.27583e-05
4.08826e-05
3.85768e-05
3.55528e-05
3.18332e-05
2.77246e-05
2.36247e-05
1.98676e-05
1.6654e-05
1.40417e-05
1.19961e-05
1.05949e-05
1.08858e-05
2.32053e-05
0.000156538
0.00109951
0.00515429
0.00228276
0.00675851
0.0170025
0.00461
0.000871559
0.000116302
1.88795e-05
9.3456e-06
8.63793e-06
9.68465e-06
1.19548e-05
1.59945e-05
2.28997e-05
3.17205e-05
3.95001e-05
4.50506e-05
4.83498e-05
4.98087e-05
5.05314e-05
5.12475e-05
5.19815e-05
5.18466e-05
5.03132e-05
4.81786e-05
4.59826e-05
4.33597e-05
3.98401e-05
3.54153e-05
3.0462e-05
2.5485e-05
2.09304e-05
1.70903e-05
1.40682e-05
1.18031e-05
1.0379e-05
1.12138e-05
2.86086e-05
0.00020279
0.00131073
0.00575331
0.0025793
0.00769522
0.0181669
0.00578479
0.00139067
0.000281684
5.85999e-05
2.05428e-05
1.36624e-05
1.31453e-05
1.54823e-05
2.13226e-05
3.33113e-05
4.56599e-05
5.39771e-05
5.85668e-05
6.02907e-05
6.03529e-05
6.00002e-05
6.01341e-05
6.06027e-05
5.99836e-05
5.76779e-05
5.50074e-05
5.25738e-05
4.96787e-05
4.56119e-05
4.03498e-05
3.43477e-05
2.82184e-05
2.25438e-05
1.77758e-05
1.41812e-05
1.16595e-05
1.02952e-05
1.21424e-05
3.77684e-05
0.000264423
0.00154603
0.0063306
0.00286938
0.0086086
0.0189924
0.00698679
0.00225144
0.000781877
0.000273991
0.000102901
5.06788e-05
3.5729e-05
3.39289e-05
4.33842e-05
5.91713e-05
7.06274e-05
7.66381e-05
7.81389e-05
7.67404e-05
7.4198e-05
7.21217e-05
7.14733e-05
7.1603e-05
7.02224e-05
6.6871e-05
6.37046e-05
6.12109e-05
5.81678e-05
5.35934e-05
4.74845e-05
4.03416e-05
3.28217e-05
2.56212e-05
1.94424e-05
1.50294e-05
1.2225e-05
1.11177e-05
1.50904e-05
5.53646e-05
0.000349708
0.0018091
0.00681698
0.00318243
0.00956994
0.0179756
0.0083465
0.00360098
0.00171923
0.000841298
0.000430646
0.000241126
0.000153842
0.000116347
0.000111428
0.000115125
0.000116002
0.000112583
0.000106158
9.86176e-05
9.18478e-05
8.74399e-05
8.59968e-05
8.57582e-05
8.31533e-05
7.84252e-05
7.49546e-05
7.27307e-05
6.98424e-05
6.50794e-05
5.85091e-05
5.05541e-05
4.17473e-05
3.27784e-05
2.46205e-05
1.90552e-05
1.60985e-05
1.60108e-05
2.55817e-05
9.38517e-05
0.000475056
0.00212038
0.00719721
0.0035476
0.00913226
0.016952
0.00965914
0.00592778
0.00347291
0.00198982
0.00117093
0.00072233
0.000474162
0.000337952
0.000263871
0.000220354
0.000189222
0.000163939
0.000142718
0.000125591
0.000113286
0.000106524
0.000104776
0.000104159
9.95044e-05
9.30724e-05
8.97715e-05
8.83903e-05
8.63617e-05
8.23815e-05
7.66501e-05
6.92662e-05
6.04335e-05
5.06953e-05
4.12213e-05
3.48414e-05
3.34193e-05
3.8896e-05
6.68221e-05
0.000188785
0.000674718
0.00250514
0.00762621
0.00386122
0.00738677
0.0112675
0.011413
0.00805161
0.00529925
0.00337562
0.00213818
0.00137632
0.00091699
0.000641757
0.00046776
0.000353644
0.00027592
0.000221074
0.000181823
0.000154565
0.000137722
0.000130308
0.000129701
0.000128421
0.000120138
0.000111837
0.000109615
0.000110015
0.000110436
0.000109914
0.000108155
0.000104774
9.96678e-05
9.32187e-05
8.6823e-05
8.42844e-05
9.26643e-05
0.000119131
0.000191798
0.000397779
0.00101314
0.00298337
0.00797687
0.0040376
0.0114848
0.0170117
0.00713342
0.00397848
0.00245548
0.00159839
0.00108588
0.000768212
0.000564013
0.000423911
0.000326036
0.000257552
0.00021073
0.000181033
0.000165778
0.00016248
0.000165598
0.000161829
0.00014665
0.000136754
0.000137071
0.000141031
0.000146929
0.000153972
0.000161568
0.000169085
0.000176175
0.000183029
0.000190966
0.000203892
0.000235562
0.000299481
0.000430953
0.000723063
0.00144967
0.00352588
0.00827583
0.00424
0.00973185
0.0115542
0.00552636
0.00324104
0.00210135
0.00143272
0.00100987
0.00073268
0.000546313
0.000418151
0.000329986
0.000271158
0.000234799
0.000216547
0.000213415
0.000221254
0.000229726
0.00021479
0.000185352
0.000175671
0.000179877
0.000189496
0.000203781
0.000222933
0.000246906
0.000275491
0.000308651
0.000346863
0.000391695
0.000446939
0.000520894
0.000644829
0.000855759
0.00124669
0.0020671
0.00417596
0.0082212
0.00459577
0.0033764
0.0195073
0.00749306
0.00665792
0.00312262
0.00205539
0.00146252
0.00106916
0.000798005
0.000613536
0.000491436
0.000414515
0.000367881
0.000343042
0.00033524
0.000341787
0.000359934
0.000380857
0.0003833
0.000317832
0.00026056
0.000253275
0.00026382
0.000281962
0.000307711
0.00034202
0.000386086
0.000441304
0.000509475
0.000593133
0.0006961
0.000824473
0.00098851
0.00120696
0.00152639
0.00201841
0.00282124
0.00443398
0.00819658
0.00447402
0.00306339
0.00394048
0.00454054
0.00345106
0.00203368
0.0016119
0.00120392
0.000921673
0.000713589
0.000557322
0.000438317
0.000349646
0.000290704
0.00024939
0.000220025
0.00019971
0.000186462
0.00017679
0.000161407
0.000121762
0.000127951
0.00016631
0.000215452
0.000271491
0.000334548
0.000405787
0.000486996
0.000580599
0.000689838
0.000819096
0.000974409
0.00116423
0.0014006
0.00170073
0.00208959
0.00260156
0.00328263
0.00418557
0.0053303
0.00356579
)
;

boundaryField
{
    floor
    {
        Cmu             0.09;
        kappa           0.41;
        E               9.8;
        type            epsilonWallFunction;
        value           nonuniform List<scalar> 
40
(
2.84316e-05
2.80202e-05
1.75715e-05
1.90616e-05
2.1124e-05
2.32563e-05
2.54001e-05
2.75414e-05
2.96799e-05
3.18243e-05
3.39926e-05
3.62146e-05
3.85378e-05
4.1012e-05
4.34231e-05
4.57225e-05
4.78463e-05
4.97078e-05
5.11894e-05
5.21333e-05
5.23328e-05
5.15412e-05
4.95251e-05
4.61766e-05
4.16167e-05
3.6159e-05
2.99171e-05
2.53169e-05
2.11717e-05
1.74223e-05
1.40957e-05
1.14536e-05
9.45638e-06
7.8915e-06
6.75043e-06
6.67507e-06
8.03854e-06
1.68786e-05
5.41263e-05
4.12513e-05
)
;
    }
    ceiling
    {
        Cmu             0.09;
        kappa           0.41;
        E               9.8;
        type            epsilonWallFunction;
        value           nonuniform List<scalar> 
43
(
0.00306339
0.00394048
0.00454054
0.00345106
0.00203368
0.0016119
0.00120392
0.000921673
0.000713589
0.000557322
0.000438317
0.000349646
0.000290704
0.00024939
0.000220025
0.00019971
0.000186462
0.00017679
0.000161407
0.000121762
0.000127951
0.00016631
0.000215452
0.000271491
0.000334548
0.000405787
0.000486996
0.000580599
0.000689838
0.000819096
0.000974409
0.00116423
0.0014006
0.00170073
0.00208959
0.00260156
0.00328263
0.00418557
0.0053303
0.00356579
0.00738677
0.0112675
0.00973185
)
;
    }
    sWall
    {
        Cmu             0.09;
        kappa           0.41;
        E               9.8;
        type            epsilonWallFunction;
        value           nonuniform List<scalar> 
18
(
2.84316e-05
0.000173259
0.000465756
0.000919714
0.00152205
0.00224624
0.00306305
0.00394529
0.00487953
0.00579659
0.00675851
0.00769522
0.0086086
0.00956994
0.00913226
0.00738677
0.0033764
0.00306339
)
;
    }
    nWall
    {
        Cmu             0.09;
        kappa           0.41;
        E               9.8;
        type            epsilonWallFunction;
        value           nonuniform List<scalar> 
20
(
4.12513e-05
0.00014119
0.000313742
0.000540141
0.000801273
0.00108278
0.00137615
0.00167607
0.00197941
0.00228276
0.0025793
0.00286938
0.00318243
0.0035476
0.00386122
0.0040376
0.00424
0.00459577
0.00447402
0.00356579
)
;
    }
    sideWalls
    {
        type            empty;
    }
    inlet
    {
        type            fixedValue;
        value           uniform 0.00082175;
    }
    outlet
    {
        type            zeroGradient;
    }
}


// ************************************************************************* //
