/*--------------------------------*- C++ -*----------------------------------*\
  =========                 |
  \\      /  F ield         | OpenFOAM: The Open Source CFD Toolbox
   \\    /   O peration     | Website:  https://openfoam.org
    \\  /    A nd           | Version:  6
     \\/     M anipulation  |
\*---------------------------------------------------------------------------*/
FoamFile
{
    version     2.0;
    format      ascii;
    class       volScalarField;
    location    "1000";
    object      k;
}
// * * * * * * * * * * * * * * * * * * * * * * * * * * * * * * * * * * * * * //

dimensions      [0 2 -2 0 0 0 0];

internalField   nonuniform List<scalar> 
775
(
0.0003003
0.000391937
0.000444848
0.000499529
0.000547616
0.000590799
0.000630652
0.000668738
0.000706958
0.000745758
0.000776115
0.00079555
0.000803768
0.000805665
0.000806384
4.94661e-05
6.10361e-05
7.51077e-05
9.07552e-05
0.0001039
0.000112223
0.000114973
0.00011492
0.000112559
0.000108873
0.000105591
9.8228e-05
5.76898e-05
0.00014152
0.00032828
0.000532629
0.000745045
0.000592134
0.000474767
0.000827359
0.000712084
0.000768696
0.000822958
0.000880261
0.000943316
0.00101332
0.00108884
0.00116593
0.00123465
0.00127988
0.00128209
0.00122311
0.00109144
0.00092841
0.000765085
0.000564999
0.000141042
0.000166038
0.000198454
0.000237501
0.00027321
0.000297558
0.000301102
0.000286136
0.000258134
0.000228383
0.000202659
0.000185204
0.000135264
0.00026936
0.000588462
0.00120406
0.00262946
0.00124788
0.000647113
0.00125105
0.000906275
0.000949121
0.000993853
0.00104779
0.00111446
0.00119562
0.00128924
0.00138918
0.0014889
0.00157346
0.00162576
0.00163862
0.00162209
0.00155445
0.00134659
0.00100605
0.000534511
0.000487435
0.000439267
0.000418761
0.000417068
0.000425005
0.000430601
0.000427255
0.000410777
0.000373564
0.000332312
0.000315716
0.000195618
0.000389773
0.000814624
0.00191157
0.00500402
0.00199437
0.000814352
0.00165439
0.00103753
0.00105509
0.00108398
0.00112776
0.00118793
0.00126614
0.00136122
0.00146846
0.00158305
0.00169034
0.00177431
0.00182752
0.00185081
0.00182272
0.00168844
0.00145871
0.00104455
0.00108516
0.000984342
0.000842093
0.000723277
0.000639323
0.000586775
0.000555749
0.000535306
0.000515787
0.000489947
0.000455126
0.000441765
0.000257643
0.000511505
0.00101524
0.00253027
0.00706539
0.00274233
0.00097547
0.00204176
0.00112629
0.00110432
0.00111362
0.00114558
0.00119746
0.00127119
0.00136731
0.00148311
0.00161317
0.00174012
0.00184519
0.00191795
0.0019548
0.00194497
0.00187598
0.00177732
0.00160432
0.00145023
0.00130317
0.0011503
0.00099237
0.000859345
0.000757313
0.000684135
0.000633082
0.0005957
0.000564292
0.000534593
0.000515675
0.000332574
0.000620455
0.0011979
0.0028868
0.00810184
0.00343576
0.00113328
0.00242279
0.0011925
0.00111329
0.00110087
0.00112216
0.00116765
0.00123992
0.00134225
0.00147493
0.00162978
0.0017817
0.00190525
0.00198648
0.00202017
0.00200227
0.00193687
0.00184261
0.00172114
0.00157869
0.00143657
0.00129361
0.00114883
0.0010097
0.000889083
0.000791592
0.000716351
0.000658994
0.000613801
0.000576059
0.000544905
0.00051598
0.000395859
0.000352503
0.000419247
0.000698438
0.00148248
0.00327764
0.00857774
0.00387343
0.00129628
0.00278416
0.00125315
0.00109496
0.00105966
0.00107148
0.00111256
0.00118718
0.0013036
0.00146746
0.00166298
0.00184911
0.00199195
0.00207667
0.00209943
0.00206069
0.00197117
0.0018562
0.00172581
0.00158543
0.00144758
0.00131627
0.00119118
0.00106927
0.000955124
0.000854867
0.000771027
0.000702903
0.00064758
0.000601387
0.000561364
0.000524942
0.000491162
0.000509442
0.000658959
0.000998554
0.00221929
0.00504446
0.00779483
0.00369169
0.00149836
0.00308011
0.00132719
0.00106189
0.00100366
0.00100529
0.00104085
0.00111884
0.00125833
0.00147847
0.00173508
0.00196237
0.00212223
0.00220411
0.00220812
0.00214144
0.0020227
0.00187323
0.00171124
0.00155067
0.00140262
0.00127165
0.00115671
0.00105342
0.000956171
0.000867253
0.000788809
0.000721702
0.00066531
0.000618121
0.000578909
0.000548382
0.000532549
0.000556064
0.000674147
0.00109003
0.00273621
0.00431653
0.00565975
0.00320282
0.00190766
0.00360505
0.0014762
0.00103182
0.000948969
0.00093701
0.000961937
0.00104075
0.00121915
0.0015433
0.00187609
0.00214002
0.00230608
0.00237275
0.00235042
0.00225055
0.0020918
0.00189966
0.00169895
0.00150898
0.00134186
0.00120203
0.00108783
0.00099423
0.000912632
0.000839441
0.000773814
0.000715868
0.000665684
0.000623094
0.000588209
0.000562706
0.000552087
0.000568751
0.000645506
0.000918626
0.00191711
0.00357204
0.00536037
0.00329851
0.00340575
0.00958134
0.00223174
0.00105189
0.000913425
0.000884063
0.000894974
0.000977781
0.00125395
0.00173269
0.00212637
0.00239801
0.00254962
0.00259046
0.00252938
0.00238124
0.00217055
0.00192888
0.0016866
0.00146601
0.00127905
0.00112858
0.0010113
0.000920798
0.000850229
0.000791378
0.000740108
0.000694589
0.000654257
0.000619097
0.000589549
0.000566973
0.000554536
0.000558637
0.000596792
0.000754985
0.00146457
0.00364439
0.00927647
0.00457122
0.00541593
0.0232756
0.00550486
0.00134771
0.000941433
0.000880571
0.000892486
0.00103965
0.00153994
0.0021031
0.00251891
0.00276918
0.00287787
0.00286364
0.00273925
0.00252355
0.00224747
0.00194962
0.0016653
0.00141778
0.00121649
0.00106038
0.000942837
0.00085574
0.000792899
0.000745451
0.000706903
0.000673485
0.000643417
0.0006161
0.000591677
0.000571005
0.000555901
0.000550056
0.000566356
0.000682493
0.00140766
0.00482423
0.0151044
0.00587691
0.00807214
0.035698
0.012652
0.00299581
0.00138858
0.00112659
0.00114134
0.00150342
0.00224972
0.00280592
0.00313358
0.00328285
0.00329354
0.00318412
0.00296563
0.00265973
0.0023046
0.00194668
0.00162502
0.00136075
0.00115721
0.00100636
0.000896397
0.000816831
0.000761822
0.000723881
0.000695582
0.000672036
0.000650425
0.000629393
0.000608627
0.000588663
0.000571017
0.000559463
0.000569141
0.000701872
0.00170774
0.00655524
0.0200542
0.00708303
0.0109998
0.0403919
0.0208087
0.00832707
0.00440554
0.00300539
0.0026951
0.0032498
0.00369211
0.00391613
0.00397862
0.00392568
0.0037742
0.00352365
0.00317643
0.00275743
0.00231421
0.00190148
0.00155859
0.00129844
0.00111304
0.000983733
0.000892427
0.000826474
0.000780123
0.000750105
0.00072929
0.000712507
0.000696307
0.000678737
0.000659159
0.000638078
0.000617407
0.000602615
0.000616699
0.000818983
0.00227293
0.00836968
0.0236735
0.00811639
0.0117446
0.0369684
0.0250675
0.0174112
0.0118998
0.00853547
0.00696639
0.00619215
0.0056723
0.00528245
0.00494798
0.00461749
0.00424988
0.00381518
0.00330786
0.00276231
0.00223884
0.0017982
0.00147073
0.00124938
0.00110972
0.00102028
0.000958799
0.000912593
0.000875575
0.000851543
0.000835702
0.000823019
0.000809597
0.000793054
0.000772659
0.000749272
0.000726133
0.000713035
0.000751652
0.00110344
0.00310798
0.0102035
0.0262371
0.00904997
0.0111041
0.016443
0.0172945
0.0153319
0.0129825
0.0108562
0.00925651
0.00804379
0.00713499
0.00640042
0.00576116
0.00516371
0.00456072
0.00392079
0.00324757
0.00259887
0.00204581
0.00164394
0.00139352
0.00125099
0.00118282
0.001146
0.00112241
0.00110352
0.00108507
0.0010658
0.00105559
0.00104894
0.00104027
0.00102692
0.00100855
0.000987164
0.000969794
0.000977456
0.00109327
0.00171828
0.00432062
0.0122076
0.0284074
0.00975652
0.0153515
0.0224318
0.0161029
0.0129043
0.0108662
0.00932558
0.00800092
0.00689751
0.00597566
0.00516374
0.00438622
0.00361084
0.00285607
0.00222002
0.00175767
0.00149933
0.00139059
0.00135348
0.0013534
0.0013686
0.00138921
0.00141012
0.00142798
0.00143807
0.00144592
0.00145908
0.00147034
0.00147719
0.00148087
0.00148611
0.00150875
0.00159303
0.0018833
0.00287777
0.00599151
0.014354
0.0298226
0.010277
0.0110976
0.0188741
0.0138255
0.0108746
0.00901518
0.00771167
0.00667299
0.00582145
0.00508117
0.00436038
0.00360696
0.00286581
0.00218372
0.00175349
0.00154596
0.00147605
0.00148225
0.00152507
0.00158631
0.00165663
0.00173177
0.00180949
0.00188845
0.0019673
0.00204248
0.00211343
0.00218539
0.00225921
0.00234258
0.00244485
0.00259635
0.00287604
0.00347581
0.00486479
0.0082395
0.0164982
0.0304426
0.0107459
0.0117961
0.0317922
0.0123636
0.0143667
0.00816035
0.00633422
0.0055651
0.00499935
0.00462206
0.00425974
0.00382832
0.0032427
0.00256617
0.00201822
0.00166742
0.00151489
0.00148741
0.00152552
0.00159902
0.00169422
0.00180501
0.00192829
0.00206265
0.00220777
0.00236416
0.00253306
0.00271599
0.00291482
0.00313243
0.00337324
0.00364245
0.0039604
0.00436714
0.00495843
0.0059279
0.00763978
0.0109984
0.0187111
0.0298259
0.0116124
0.01172
0.0149682
0.00773556
0.00446457
0.00254531
0.00233759
0.00264542
0.00297948
0.0031949
0.00320787
0.00300239
0.00261389
0.0021755
0.00184945
0.00168149
0.00162979
0.00164104
0.00168676
0.00175546
0.00184312
0.00194876
0.00207269
0.00221618
0.00238152
0.00257217
0.002793
0.00305041
0.0033526
0.00371011
0.00413678
0.00465137
0.0052804
0.00606564
0.00707687
0.0084366
0.0103322
0.0131174
0.01844
0.0288558
0.0112493
0.0101063
0.00791332
0.00559658
0.00345502
0.00121393
0.000856341
0.000953101
0.00102798
0.00104688
0.00100929
0.000933922
0.000854222
0.000806098
0.000804208
0.000838282
0.000893707
0.000961577
0.00103816
0.0011224
0.00121451
0.00131554
0.00142711
0.00155138
0.00169111
0.00184969
0.00203121
0.00224068
0.00248414
0.00276904
0.00310471
0.00350307
0.0039797
0.00455539
0.00525811
0.00612585
0.00720937
0.00856991
0.0102573
0.0122167
0.00959128
)
;

boundaryField
{
    floor
    {
        type            kqRWallFunction;
        value           nonuniform List<scalar> 
42
(
0.000806384
4.94661e-05
6.10361e-05
7.51077e-05
9.07552e-05
0.0001039
0.000112223
0.000114973
0.00011492
0.000112559
0.000108873
0.000105591
9.8228e-05
5.76898e-05
0.00014152
0.00032828
0.000532629
0.000745045
0.000592134
5.76898e-05
0.00014152
0.000135264
0.00026936
0.000195618
0.000389773
0.000257643
0.000511505
0.000332574
0.000395859
0.000352503
0.000620455
0.000419247
0.000806384
0.00092841
0.000765085
0.000564999
4.94661e-05
0.000564999
0.000141042
0.00100605
0.000534511
0.00104455
)
;
    }
    ceiling
    {
        type            kqRWallFunction;
        value           nonuniform List<scalar> 
43
(
0.0101063
0.00791332
0.00559658
0.00345502
0.00121393
0.000856341
0.000953101
0.00102798
0.00104688
0.00100929
0.000933922
0.000854222
0.000806098
0.000804208
0.000838282
0.000893707
0.000961577
0.00103816
0.0011224
0.00121451
0.00131554
0.00142711
0.00155138
0.00169111
0.00184969
0.00203121
0.00224068
0.00248414
0.00276904
0.00310471
0.00350307
0.0039797
0.00455539
0.00525811
0.00612585
0.00720937
0.00856991
0.0102573
0.0122167
0.00959128
0.0111041
0.016443
0.0110976
)
;
    }
    sWall
    {
        type            kqRWallFunction;
        value           nonuniform List<scalar> 9(0.00340575 0.00541593 0.00807214 0.0109998 0.0117446 0.0111041 0.0117961 0.01172 0.0101063);
    }
    nWall
    {
        type            kqRWallFunction;
        value           nonuniform List<scalar> 
18
(
0.000592134
0.00124788
0.00199437
0.00274233
0.00343576
0.00387343
0.00369169
0.00457122
0.00587691
0.00708303
0.00811639
0.00904997
0.00975652
0.010277
0.0107459
0.0116124
0.0112493
0.00959128
)
;
    }
    sideWalls
    {
        type            empty;
    }
    glass1
    {
        type            kqRWallFunction;
        value           nonuniform List<scalar> 9(0.0003003 0.000474767 0.000647113 0.000814352 0.00097547 0.00113328 0.00129628 0.00149836 0.00190766);
    }
    glass2
    {
        type            kqRWallFunction;
        value           nonuniform List<scalar> 2(0.00320282 0.00329851);
    }
    sun
    {
        type            kqRWallFunction;
        value           nonuniform List<scalar> 
14
(
0.0003003
0.000391937
0.000444848
0.000499529
0.000547616
0.000590799
0.000630652
0.000668738
0.000706958
0.000745758
0.000776115
0.00079555
0.000803768
0.000805665
)
;
    }
    inlet
    {
        type            fixedValue;
        value           uniform 0.00735;
    }
    outlet
    {
        type            zeroGradient;
    }
}


// ************************************************************************* //
