/*--------------------------------*- C++ -*----------------------------------*\
  =========                 |
  \\      /  F ield         | OpenFOAM: The Open Source CFD Toolbox
   \\    /   O peration     | Website:  https://openfoam.org
    \\  /    A nd           | Version:  6
     \\/     M anipulation  |
\*---------------------------------------------------------------------------*/
FoamFile
{
    version     2.0;
    format      ascii;
    class       surfaceScalarField;
    location    "1000";
    object      phi;
}
// * * * * * * * * * * * * * * * * * * * * * * * * * * * * * * * * * * * * * //

dimensions      [1 0 -1 0 0 0 0];

internalField   nonuniform List<scalar> 
1530
(
-0.00211856
0.00215797
-0.00215802
3.94887e-05
-0.00227568
0.000117685
-0.00244929
0.000173628
-0.00263828
0.000189019
-0.00282306
0.000184798
-0.00299403
0.000170996
-0.00314529
0.000151292
-0.00327257
0.000127302
-0.00337224
9.96942e-05
-0.0034409
6.86858e-05
-0.00347516
3.42826e-05
-0.00347156
-3.57995e-06
-0.00342673
-4.48075e-05
-0.00333799
-8.87074e-05
-0.00320332
-0.000134646
-0.00302138
-0.000181916
-0.00279168
-0.00022968
-0.00251488
-0.00027677
-0.00219354
-0.000321324
-0.00183332
-0.000360197
-0.00144479
-0.000388506
-0.00104452
-0.000400239
-0.000653753
-0.000390747
-0.000294151
-0.000359578
2.20788e-05
-0.000316206
0.00027962
-0.000257517
0.000466647
-0.000187003
0.000588113
-0.000121442
0.000652414
-6.42762e-05
0.000669753
-1.73133e-05
0.000652463
1.73155e-05
0.000615533
3.69566e-05
0.000580046
3.55126e-05
0.000576868
3.20412e-06
0.000639647
-6.27527e-05
0.00080036
-0.000160687
0.00106939
-0.000269007
0.00125452
-0.000185099
0.00126857
-0.00144151
0.00368272
-0.00185077
0.000448776
-0.00209572
0.000362657
-0.00229561
0.000373544
-0.0024836
0.000377031
-0.00265791
0.000359134
-0.00281467
0.000327781
-0.00295054
0.000287186
-0.00306241
0.000239202
-0.00314723
0.00018453
-0.00320184
0.000123325
-0.00322305
5.5519e-05
-0.0032077
-1.89063e-05
-0.00315305
-9.9436e-05
-0.00305695
-0.000184785
-0.00291778
-0.00027379
-0.00273458
-0.000365088
-0.00250716
-0.000457081
-0.00223628
-0.000547623
-0.00192429
-0.000633295
-0.00157631
-0.000708148
-0.00120221
-0.000762586
-0.000817836
-0.000784589
-0.000443209
-0.000765351
-9.63724e-05
-0.000706392
0.000201761
-0.000614316
0.000441986
-0.000497718
0.000627561
-0.000372555
0.00076083
-0.000254687
0.000846125
-0.000149547
0.000890169
-6.13325e-05
0.000902564
4.94504e-06
0.000895435
4.41104e-05
0.000881455
4.95182e-05
0.000872713
1.19712e-05
0.00088414
-7.41546e-05
0.0009308
-0.000207322
0.000981581
-0.000319763
0.000838564
-4.2057e-05
0.00214009
-0.00103738
0.0048315
-0.00156681
0.00097823
-0.0018631
0.000658967
-0.00207459
0.000585063
-0.00225908
0.000561549
-0.00242346
0.000523534
-0.00256784
0.000472185
-0.00269097
0.000410336
-0.00279082
0.000339078
-0.00286478
0.000258521
-0.00290984
0.000168405
-0.00292274
6.84439e-05
-0.00290026
-4.13603e-05
-0.00283975
-0.000159922
-0.00273932
-0.000285191
-0.00259779
-0.000415301
-0.00241469
-0.000548162
-0.00219024
-0.000681507
-0.00192535
-0.000812489
-0.00162197
-0.000936654
-0.00128439
-0.00104571
-0.000921835
-0.00112512
-0.000550673
-0.00115573
-0.000192285
-0.00112372
0.000130399
-0.00102905
0.000403839
-0.000887733
0.000626973
-0.00072083
0.000803208
-0.000548767
0.000933435
-0.00038489
0.00102099
-0.000237078
0.00107123
-0.000111551
0.0010908
-1.46029e-05
0.00108735
4.75909e-05
0.00106825
6.86386e-05
0.00103916
4.10859e-05
0.00100507
-4.00412e-05
0.000966471
-0.000168694
0.00087381
-0.000227077
0.000613498
0.00021828
0.00279966
-0.000776394
0.00574062
-0.001334
0.00153586
-0.00164294
0.000967937
-0.00185225
0.000794399
-0.00202561
0.000734932
-0.0021761
0.000674047
-0.00230623
0.000602342
-0.00241579
0.000519917
-0.00250323
0.000426549
-0.0025661
0.000321414
-0.00260127
0.000203599
-0.00260529
7.24817e-05
-0.00257474
-7.18849e-05
-0.00250705
-0.000227581
-0.00240063
-0.000391596
-0.0022548
-0.000561103
-0.00206986
-0.000733083
-0.00184667
-0.000904669
-0.00158649
-0.00107265
-0.00129086
-0.00123226
-0.000962998
-0.00137355
-0.000611617
-0.00147648
-0.000254855
-0.00151247
8.14217e-05
-0.00145997
0.00037775
-0.00132536
0.000628314
-0.00113827
0.000834774
-0.000927267
0.000997571
-0.000711541
0.00111773
-0.000505022
0.0011981
-0.000317425
0.00124287
-0.000156305
0.00125682
-2.85264e-05
0.0012446
5.98393e-05
0.00121015
0.000103107
0.00115563
9.56299e-05
0.00108036
3.52556e-05
0.000974146
-6.24555e-05
0.00077722
-3.01269e-05
0.00046631
0.000529215
0.00332283
-0.000572708
0.00646404
-0.00112808
0.00209125
-0.00144592
0.0012858
-0.00164566
0.000994163
-0.0018
0.0008893
-0.00193159
0.000805663
-0.00204417
0.000714946
-0.00213793
0.000613697
-0.0022114
0.000500047
-0.00226202
0.000372054
-0.00228639
0.000227996
-0.00228071
6.68228e-05
-0.00224122
-0.000111347
-0.0021653
-0.000303481
-0.00205146
-0.000505412
-0.00189968
-0.00071286
-0.0017113
-0.000921443
-0.00148817
-0.00112777
-0.00123227
-0.00132852
-0.000944931
-0.00151958
-0.000628363
-0.00169009
-0.000291486
-0.00181333
4.34551e-05
-0.00184739
0.00035005
-0.00176655
0.00061895
-0.00159424
0.000848428
-0.00136773
0.00103612
-0.00111494
0.00118196
-0.00085736
0.00128753
-0.000610574
0.00135558
-0.000385445
0.00138934
-0.00019005
0.00139205
-3.12076e-05
0.00136612
8.57897e-05
0.00131316
0.000156097
0.00123332
0.000175493
0.00112289
0.000145703
0.000961509
9.8952e-05
0.000692725
0.000238681
0.000354693
0.000867271
0.00374398
-0.000404887
0.00703579
-0.000942246
0.00262864
-0.00126938
0.00161295
-0.00145856
0.00118337
-0.00158897
0.00101973
-0.0016977
0.000914416
-0.00178997
0.000807247
-0.00186619
0.000689934
-0.00192479
0.000558677
-0.00196295
0.000410238
-0.00197678
0.000241849
-0.00196174
5.18113e-05
-0.00191335
-0.000159713
-0.0018287
-0.000388115
-0.00170646
-0.000627619
-0.00154749
-0.000871806
-0.00135462
-0.00111429
-0.00113088
-0.00135149
-0.000879252
-0.00158013
-0.000601067
-0.00179774
-0.000297982
-0.00199316
1.86614e-05
-0.00212996
0.000320864
-0.00214957
0.000596003
-0.00204166
0.000839651
-0.00183786
0.00104509
-0.00157315
0.00120975
-0.00127957
0.00133438
-0.000981971
0.00142141
-0.000697583
0.00147373
-0.00043774
0.00149388
-0.000210178
0.00148357
-2.08685e-05
0.00144332
0.00012606
0.00137286
0.000226582
0.0012706
0.000277774
0.00113131
0.000285022
0.00093079
0.000299491
0.000629635
0.000539861
0.000271732
0.0012252
0.00409111
-0.000268059
0.0074858
-0.00077715
0.00313775
-0.00110813
0.00194396
-0.00128968
0.00136495
-0.00139413
0.00112421
-0.00147753
0.000997836
-0.00154776
0.000877505
-0.00160543
0.000747622
-0.00164888
0.000602155
-0.00167496
0.000436342
-0.00167901
0.000245922
-0.00165514
2.79619e-05
-0.0015977
-0.000217122
-0.00150358
-0.000482212
-0.00137205
-0.000759127
-0.00120522
-0.00103861
-0.001008
-0.00131149
-0.000784387
-0.00157509
-0.000538401
-0.00182609
-0.00027131
-0.00206481
1.45662e-05
-0.00227901
0.000298571
-0.00241394
0.000567254
-0.00241823
0.000814688
-0.00228908
0.00102972
-0.00205287
0.00120593
-0.00174934
0.00134222
-0.00141585
0.00144091
-0.00108063
0.00150557
-0.000762227
0.00153954
-0.000471687
0.00154494
-0.000215554
0.00152199
2.11155e-06
0.00146972
0.000178351
0.00138649
0.000309835
0.00126941
0.000394872
0.00111176
0.000442705
0.000888752
0.000522518
0.000572963
0.000855674
0.000210538
0.00158765
0.00438552
-0.000159175
0.00784135
-0.000634474
0.00361308
-0.000957038
0.00226654
-0.00113414
0.00154208
-0.00121325
0.00120334
-0.00127031
0.00105492
-0.00131767
0.000924895
-0.00135618
0.000786153
-0.00138416
0.00063016
-0.00139818
0.000450388
-0.00139274
0.000240503
-0.00135966
-5.0889e-06
-0.00129191
-0.000284845
-0.00118673
-0.00058737
-0.00104507
-0.000900765
-0.000870773
-0.00121288
-0.000671485
-0.00151075
-0.000451232
-0.00179532
-0.000214835
-0.00206247
3.61469e-05
-0.00231577
0.000291363
-0.00253421
0.00054172
-0.00266428
0.000782236
-0.00265873
0.00099847
-0.00250529
0.00117934
-0.00223372
0.00132044
-0.00189042
0.00142307
-0.00151846
0.00149157
-0.00114911
0.00153092
-0.000801552
0.001545
-0.000485745
0.00153565
-0.00020618
0.00150208
3.57107e-05
0.00144227
0.000238175
0.00135343
0.000398706
0.00123144
0.000516878
0.00106779
0.000606385
0.000836012
0.000754317
0.000519471
0.00117224
0.00016492
0.00194222
0.00464244
-8.6218e-05
0.00813782
-0.000516724
0.00404361
-0.000807466
0.00255731
-0.000980554
0.00171519
-0.00103998
0.00126279
-0.00107176
0.00108672
-0.00109659
0.000949754
-0.00111562
0.000805206
-0.00112723
0.000641794
-0.00112777
0.000450952
-0.00111099
0.000223748
-0.00106693
-4.91235e-05
-0.000986237
-0.000365512
-0.000867389
-0.000706193
-0.000715616
-0.00105251
-0.000536382
-0.00139209
-0.000340431
-0.00170668
-0.000130242
-0.00200548
8.70034e-05
-0.00227969
0.000307359
-0.0025361
0.000528571
-0.0027554
0.000750135
-0.00288582
0.000958326
-0.0028669
0.00113712
-0.00268406
0.00127731
-0.00237388
0.00137756
-0.00199065
0.00144217
-0.00158304
0.00147773
-0.00118465
0.00149057
-0.000814365
0.00148505
-0.000480204
0.0014627
-0.000183809
0.00142226
7.61731e-05
0.00136099
0.000299472
0.0012749
0.000484819
0.00115841
0.000633389
0.00100025
0.00076457
0.000771187
0.000983407
0.000466224
0.00147723
0.00012986
0.00227861
0.00487216
-5.96703e-07
0.00836266
-0.000392911
0.00443594
-0.000623379
0.0027878
-0.000798482
0.00189032
-0.000859807
0.00132414
-0.000873388
0.00110033
-0.000878657
0.000955048
-0.000879029
0.000805603
-0.000873567
0.000636356
-0.00085871
0.00043612
-0.000827633
0.000192696
-0.000766601
-0.00011013
-0.000665048
-0.000467039
-0.000529053
-0.000842162
-0.000369749
-0.00121179
-0.00019301
-0.0015688
-9.1124e-06
-0.00189055
0.000175385
-0.00218996
0.000358258
-0.00246254
0.000541873
-0.0027197
0.000730226
-0.00294373
0.000917037
-0.00307261
0.00108515
-0.00303499
0.00121846
-0.00281736
0.00131103
-0.00246642
0.00136548
-0.00204509
0.00138944
-0.00160698
0.00139158
-0.00118676
0.00137915
-0.000801913
0.0013567
-0.000457736
0.00132536
-0.000152449
0.0012836
0.000117956
0.00122803
0.000355072
0.00115347
0.0005594
0.00105244
0.000734447
0.000909691
0.000907339
0.000692471
0.00120065
0.000408662
0.00176106
9.85275e-05
0.00258877
0.0050782
0.000155697
0.00844456
-0.000112095
0.00470376
-0.000314233
0.00298996
-0.000519601
0.00209571
-0.000632123
0.00143669
-0.000656251
0.00112448
-0.000651413
0.000950235
-0.000635995
0.00079021
-0.000612722
0.000613108
-0.000578055
0.000401478
-0.000522834
0.0001375
-0.000432551
-0.000200388
-0.000302792
-0.000596772
-0.000151474
-0.000993455
8.39421e-06
-0.00137164
0.000166055
-0.00172644
0.000318272
-0.00204275
0.000461769
-0.00233343
0.000602698
-0.00260345
0.000744547
-0.00286152
0.00089081
-0.00308997
0.00103269
-0.00321447
0.00115025
-0.00315253
0.00122864
-0.00289573
0.0012669
-0.00250465
0.00127226
-0.00205042
0.00125557
-0.00159027
0.00122684
-0.00115801
0.00119337
-0.000768417
0.00115919
-0.000423536
0.00112485
-0.000118089
0.0010886
0.000154231
0.00104639
0.000397305
0.000991861
0.000613955
0.000915333
0.000810999
0.000796316
0.00102638
0.000598777
0.00139822
0.000343201
0.00201666
6.01146e-05
0.00287188
0.00525337
0.000311309
0.00838427
0.000178405
0.00483669
7.02987e-05
0.0030981
-7.76858e-05
0.00224372
-0.000259227
0.00161825
-0.000357527
0.00122281
-0.000374735
0.000967467
-0.000353718
0.000769219
-0.000313508
0.000572923
-0.00025296
0.000340955
-0.000154333
3.88986e-05
-1.65802e-05
-0.000338115
0.000135319
-0.000748645
0.000283678
-0.00114179
0.000420461
-0.00150839
0.000538894
-0.00184485
0.00064452
-0.00214835
0.000737751
-0.00242664
0.000824048
-0.00268972
0.000910369
-0.00294783
0.00100117
-0.00318076
0.00108477
-0.00329805
0.00113892
-0.00320666
0.00115219
-0.00290898
0.0011307
-0.00248315
0.00108633
-0.00200602
0.00103256
-0.00153648
0.000979328
-0.00110476
0.00093234
-0.000721406
0.00089403
-0.000385203
0.00086406
-8.80957e-05
0.00084034
0.000177976
0.000818427
0.000419242
0.000791147
0.00064126
0.000746985
0.000855186
0.000659055
0.00111433
0.000492073
0.00156522
0.000276496
0.00223226
1.66164e-05
0.00313179
0.00539246
5.84716e-05
0.00859023
0.000145605
0.00474958
0.000511572
0.00273215
0.000596817
0.0021585
0.000416095
0.001799
0.000219228
0.0014197
0.000114718
0.001072
9.42377e-05
0.000789724
0.000135707
0.000531479
0.000230667
0.000246021
0.000371868
-0.000102276
0.000528377
-0.000494599
0.000667631
-0.000887873
0.000784316
-0.00125845
0.000874543
-0.0015986
0.000937551
-0.00190783
0.000978256
-0.00218903
0.00100168
-0.00245005
0.00101535
-0.00270337
0.00102926
-0.00296171
0.00104868
-0.00320016
0.00105804
-0.00330739
0.00103413
-0.00318272
0.000972222
-0.00284704
0.000888175
-0.00239908
0.000797097
-0.00191492
0.000713955
-0.00145331
0.000646259
-0.00103704
0.000596056
-0.00067118
0.000562768
-0.000351891
0.000544656
-6.99602e-05
0.000539209
0.000183448
0.000542353
0.000416123
0.000547127
0.00063651
0.000540726
0.000861612
0.000489877
0.00116521
0.000372692
0.00168243
0.000227587
0.00237739
6.37743e-06
0.00335303
0.00552835
-0.000288785
0.0091561
0.000315049
0.00414577
0.00127483
0.0017724
0.0015759
0.00185745
0.00141998
0.00195494
0.00120308
0.00163663
0.00104626
0.00122884
0.000960697
0.000875314
0.000950947
0.000541254
0.0010183
0.000178693
0.0011307
-0.000214645
0.00123974
-0.000603619
0.00132195
-0.000970057
0.0013692
-0.00130567
0.00138039
-0.00160977
0.00135862
-0.00188603
0.00130997
-0.00214036
0.00124163
-0.00238168
0.00116297
-0.00262469
0.0010864
-0.00288512
0.00101693
-0.00313068
0.00093397
-0.00322441
0.000816684
-0.00306542
0.000671295
-0.00270163
0.000525742
-0.0022535
0.000395673
-0.00178483
0.00029422
-0.00135184
0.000223348
-0.000966142
0.00018
-0.000627808
0.000159769
-0.000331636
0.000158919
-6.90856e-05
0.00017494
0.000167452
0.000204909
0.000386179
0.00024268
0.000598764
0.000272328
0.000831989
0.000261193
0.00117637
0.000218831
0.00172482
0.000193866
0.00240238
6.59846e-05
0.00348093
0.00573023
0.00167603
0.00778041
0.00285019
0.00297163
0.00348196
0.00114066
0.00336703
0.0019724
0.00301122
0.00231078
0.00271302
0.00193485
0.00247058
0.00147131
0.0022928
0.00105312
0.00219157
0.000642502
0.00215176
0.000218529
0.00214106
-0.000203913
0.00212657
-0.000589104
0.00208732
-0.000930782
0.00201517
-0.0012335
0.00190987
-0.00150444
0.00177479
-0.00175094
0.00161497
-0.00198052
0.00143636
-0.00220304
0.00124804
-0.00243636
0.00106347
-0.00270053
0.00088592
-0.0029531
0.000689756
-0.00302822
0.00046437
-0.00284001
0.000233242
-0.00247048
3.10836e-05
-0.00205132
-0.00012505
-0.00162867
-0.000233756
-0.00124311
-0.00030081
-0.000899065
-0.000333206
-0.000595387
-0.00033801
-0.000326808
-0.00032103
-8.6041e-05
-0.000285102
0.000131548
-0.000232179
0.000333281
-0.000168721
0.000535331
-0.000112184
0.000775478
-7.69506e-05
0.00114116
-3.00901e-05
0.00167797
8.60979e-05
0.0022862
8.41022e-05
0.00348293
0.00595694
0.00810484
0.0110654
0.00977332
0.00243271
0.00742847
0.00431728
0.00606531
0.00367396
0.0051555
0.00284468
0.00448072
0.00214611
0.00401181
0.00152206
0.00369946
0.000954874
0.00346645
0.000451562
0.00325602
6.54235e-06
0.00305121
-0.000384273
0.00284243
-0.000721971
0.00262186
-0.00101291
0.00238467
-0.00126722
0.00212858
-0.00149483
0.00185291
-0.00170483
0.00155852
-0.00190863
0.00125114
-0.00212896
0.000942039
-0.00239141
0.000632601
-0.00264365
0.000297842
-0.00269344
-4.98843e-05
-0.00249226
-0.000355859
-0.00216449
-0.000597541
-0.00180962
-0.000771666
-0.00145452
-0.000889716
-0.00112503
-0.000959393
-0.000829362
-0.000987776
-0.000566979
-0.000982248
-0.000332311
-0.000949995
-0.00011827
-0.000896925
7.85029e-05
-0.000826337
0.000262718
-0.00074214
0.000451161
-0.00065204
0.000685406
-0.000542794
0.00103194
-0.000393167
0.00152837
-0.000267039
0.00216008
-0.000244606
0.00346048
0.00586275
0.00121764
0.00347609
0.00275338
0.00278155
0.0039063
0.00252106
0.00420173
0.00254927
0.00417195
0.00217591
0.00408201
0.00161203
0.0039804
0.00105651
0.0038601
0.000571891
0.00370207
0.000164589
0.00349894
-0.000181115
0.00325696
-0.000479967
0.0029816
-0.000737529
0.00267578
-0.000961373
0.0023399
-0.00115893
0.00197324
-0.00133814
0.00157558
-0.00151096
0.00115073
-0.00170409
0.000702562
-0.00194323
0.00023024
-0.0021713
-0.000265254
-0.00219793
-0.000717806
-0.00203969
-0.00108416
-0.00179811
-0.00137106
-0.0015227
-0.00158158
-0.00124398
-0.00172461
-0.000981974
-0.00180885
-0.0007451
-0.00184206
-0.000533733
-0.00183104
-0.000343311
-0.00178249
-0.000166794
-0.00170697
3.002e-06
-0.00160908
0.000164849
-0.00148454
0.000326649
-0.0013256
0.000526495
-0.00109261
0.000798984
-0.000766599
0.00120239
-0.000523175
0.00191668
-0.000430465
0.00336778
0.00559013
-7.5615e-05
0.00356289
0.00156943
0.00113653
0.00235601
0.0017345
0.00284351
0.00206179
0.00320642
0.00181302
0.00345885
0.00135962
0.00360346
0.000911919
0.00365036
0.000525009
0.00361322
0.000201751
0.0035023
-7.01727e-05
0.00331729
-0.000294931
0.00306177
-0.000481992
0.00274082
-0.000640392
0.00235854
-0.000776631
0.00191923
-0.00089881
0.00142852
-0.00102022
0.000894763
-0.00117031
0.000316043
-0.00136449
-0.000308223
-0.00154702
-0.000928717
-0.00157741
-0.00147801
-0.00149037
-0.00193939
-0.00133671
-0.00230829
-0.00115377
-0.00258711
-0.00096513
-0.0027835
-0.000785545
-0.00290652
-0.000622056
-0.00296429
-0.000475931
-0.00296287
-0.000344712
-0.00290561
-0.000224041
-0.00279475
-0.000107838
-0.00264049
1.06029e-05
-0.00244739
0.000133562
-0.0021899
0.000269037
-0.00180227
0.000411384
-0.00118545
0.000585622
-0.000340536
0.00107181
0.000137071
0.00289021
0.00589101
0.00794365
-0.00769078
0.000720311
-0.00080139
0.000116504
0.00416671
-9.74522e-05
0.00135051
0.000607561
0.00102951
0.001427
0.00124237
0.00213457
0.00110547
0.00268813
0.000806087
0.00306868
0.000531389
0.00328951
0.000304193
0.00337291
0.000118374
0.00332865
-2.58831e-05
0.00316128
-0.000127543
0.00289162
-0.000212312
0.00253318
-0.000281927
0.00209745
-0.000340885
0.00159507
-0.000396413
0.0010355
-0.000460634
0.000427571
-0.000562359
-0.000163583
-0.000773319
-0.000851348
-0.000859231
-0.00157425
-0.000854486
-0.00225437
-0.000810227
-0.00285363
-0.000737422
-0.00335615
-0.000651224
-0.00375878
-0.000562461
-0.00406616
-0.000478132
-0.00428617
-0.00040202
-0.00442666
-0.000335419
-0.00449335
-0.000278013
-0.00448845
-0.000228936
-0.00440894
-0.000187343
-0.00424844
-0.000149889
-0.0040151
-9.97715e-05
-0.00371419
-3.18516e-05
-0.00329858
-4.19873e-06
-0.00256713
-0.000145776
-0.00137157
-0.000123691
-0.000492544
0.00201124
0.00557239
-0.00712249
-0.0079191
-0.00374722
-0.00239819
-0.00137406
-0.000139226
0.000956753
0.00175218
0.00227194
0.00256362
0.00266867
0.00262876
0.00248662
0.00225929
0.00196205
0.00160574
0.00119399
0.000718364
0.000141681
-0.000644783
-0.001517
-0.00238413
-0.00320652
-0.00395565
-0.00461819
-0.0051916
-0.00568034
-0.00609265
-0.00643803
-0.00672567
-0.0069639
-0.00716019
-0.00731868
-0.00742671
-0.00746649
-0.00747828
-0.00763134
-0.00776199
-0.00575742
)
;

boundaryField
{
    floor
    {
        type            calculated;
        value           uniform 0;
    }
    ceiling
    {
        type            calculated;
        value           nonuniform List<scalar> 
43
(
-1.53127e-07
-4.75814e-06
-5.15186e-06
1.49558e-06
5.39479e-06
7.56084e-06
9.50995e-06
1.06764e-05
1.16565e-05
1.25342e-05
1.33363e-05
1.40529e-05
1.46152e-05
1.50423e-05
1.53274e-05
1.54443e-05
1.53541e-05
1.50144e-05
1.43406e-05
1.3162e-05
1.30056e-05
1.26673e-05
1.21911e-05
1.17397e-05
1.13403e-05
1.098e-05
1.06406e-05
1.03081e-05
9.97428e-06
9.63591e-06
9.29363e-06
8.95028e-06
8.60959e-06
8.27524e-06
7.94993e-06
7.63362e-06
7.32143e-06
7.0098e-06
6.72942e-06
8.6586e-06
1.42654e-05
1.11409e-05
-1.11728e-05
)
;
    }
    sWall
    {
        type            calculated;
        value           nonuniform List<scalar> 
18
(
-3.93866e-05
-8.32219e-05
-0.000111368
-0.000132708
-0.000150684
-0.000166841
-0.000181931
-0.000196353
-0.000210227
-0.000224213
-0.000237578
-0.000250997
-0.000264403
-0.000277064
-0.000300316
-0.00033868
-0.000520482
-0.000568127
)
;
    }
    nWall
    {
        type            calculated;
        value           nonuniform List<scalar> 
20
(
-1.40317e-05
-3.29274e-05
-4.60521e-05
-5.68276e-05
-6.64378e-05
-7.53712e-05
-8.38446e-05
-9.1977e-05
-9.98383e-05
-0.000107491
-0.000115025
-0.000122449
-0.000129477
-0.000135863
-0.000142594
-0.000150409
-0.000157841
-0.000163768
-0.000173881
-0.000193648
)
;
    }
    sideWalls
    {
        type            empty;
        value           nonuniform 0();
    }
    inlet
    {
        type            calculated;
        value           uniform -0.002261;
    }
    outlet
    {
        type            calculated;
        value           nonuniform List<scalar> 2(0.000267632 0.00802474);
    }
}


// ************************************************************************* //
