/*--------------------------------*- C++ -*----------------------------------*\
  =========                 |
  \\      /  F ield         | OpenFOAM: The Open Source CFD Toolbox
   \\    /   O peration     | Website:  https://openfoam.org
    \\  /    A nd           | Version:  6
     \\/     M anipulation  |
\*---------------------------------------------------------------------------*/
FoamFile
{
    version     2.0;
    format      ascii;
    class       volScalarField;
    location    "720";
    object      alphat;
}
// * * * * * * * * * * * * * * * * * * * * * * * * * * * * * * * * * * * * * //

dimensions      [1 -1 -1 0 0 0 0];

internalField   nonuniform List<scalar> 
458
(
0.00124423
0.00135537
0.00138606
0.00145239
0.00151348
0.00157134
0.00162922
0.00168799
0.00173605
0.00176626
0.00176968
0.00173752
0.00165873
0.00149196
0.00113189
0.000559158
0.000655528
0.000743225
0.000774969
0.000762836
0.000713835
0.000659627
0.000611128
0.000569121
0.000532638
0.000500772
0.000472894
0.000448174
0.000425661
0.000404309
0.000382868
0.000370116
0.000340128
0.0016766
0.00377429
0.00348128
0.00398886
0.00449506
0.00501581
0.00548311
0.00584467
0.00621615
0.00656394
0.00684291
0.00701219
0.00702752
0.00678218
0.00551149
0.00149421
0.00123962
0.00101132
0.000554626
0.00131639
0.00191836
0.00238439
0.00253174
0.00184511
0.00155763
0.00136202
0.00121764
0.00110701
0.00101924
0.000943548
0.000872457
0.000801485
0.000738079
0.000684906
0.000837859
0.000447095
0.00203715
0.00507286
0.00418644
0.0051041
0.00548999
0.00576105
0.00596942
0.00616192
0.00642999
0.00675602
0.00711236
0.00746135
0.00773622
0.00783135
0.00737813
0.00601292
0.00455679
0.00119454
0.000854254
0.00147419
0.00214507
0.00281227
0.00300273
0.000959472
0.00083999
0.000740583
0.000660068
0.000595088
0.000542428
0.000499624
0.000465006
0.000438078
0.000485412
0.000562177
0.000983159
0.000528353
0.00238399
0.00647905
0.0040726
0.00528763
0.00549876
0.0054777
0.00545817
0.00555039
0.00576861
0.00609158
0.00650194
0.00695932
0.007359
0.00760904
0.00755099
0.0071597
0.00614461
0.00337368
0.00137612
0.00175162
0.00240785
0.00321148
0.00390814
0.00394234
0.00108068
0.000990559
0.000929175
0.000883857
0.000845537
0.000807452
0.000771296
0.000733096
0.000688451
0.000648423
0.000639032
0.00117192
0.000608525
0.00273805
0.00837019
0.00427192
0.00501922
0.00532075
0.00514032
0.00499333
0.00507681
0.00530738
0.00564375
0.0060865
0.00658834
0.00698018
0.00717432
0.00716825
0.00703045
0.00662487
0.00547839
0.00496503
0.00500053
0.00529146
0.00563816
0.00585091
0.00575473
0.00490965
0.00447525
0.00423586
0.00406439
0.00389091
0.0036675
0.00328723
0.0027977
0.00224099
0.00170476
0.00127877
0.00119163
0.00103437
0.000813307
0.000860745
0.000935573
0.00311686
0.0104991
0.00585002
0.00464715
0.00506395
0.00505282
0.00486477
0.00493462
0.00516999
0.00550676
0.00595603
0.00643711
0.00680012
0.00691551
0.00680471
0.00664671
0.0065754
0.00648063
0.00667503
0.00701262
0.0072494
0.00729142
0.00713176
0.00679781
0.00633127
0.00595229
0.00565722
0.00539726
0.00514187
0.00487062
0.0045203
0.00404008
0.00343268
0.0027458
0.00211009
0.00153031
0.00125784
0.00109705
0.0013813
0.000970504
0.00348947
0.0121033
0.00872581
0.00571175
0.00496992
0.00504031
0.00510331
0.00514012
0.00527397
0.00557126
0.00601342
0.00649016
0.00682291
0.0068594
0.00664995
0.00649829
0.00674693
0.00729906
0.00786119
0.00817823
0.00817873
0.0079066
0.00744602
0.00688529
0.0063264
0.00587659
0.00553594
0.00525966
0.0050178
0.00480054
0.00460302
0.00434488
0.00392032
0.003353
0.00276384
0.00219785
0.00182839
0.0016749
0.00159642
0.00115314
0.00357906
0.0112151
0.00952743
0.00799935
0.00683007
0.006312
0.00582427
0.00549424
0.00549026
0.00577426
0.00623145
0.00670203
0.00698168
0.00691691
0.00666053
0.00672397
0.00743514
0.00801876
0.00832274
0.00830856
0.0079786
0.00740797
0.00670598
0.00599765
0.00540868
0.0049957
0.00471713
0.00451696
0.00436866
0.00426874
0.00422441
0.00422644
0.00411342
0.00377629
0.00344791
0.00326476
0.00334429
0.00353038
0.00419368
0.00178524
0.00350489
0.00423038
0.00467512
0.0049245
0.00496178
0.00488869
0.0048926
0.00510107
0.00552089
0.00605468
0.00659983
0.00702834
0.00716516
0.00691821
0.00684887
0.00720933
0.00762607
0.00776852
0.00766459
0.00730217
0.0066948
0.00594457
0.00519542
0.00458021
0.00415426
0.00388291
0.00370088
0.0035625
0.00344445
0.00333368
0.00322016
0.00309559
0.00298265
0.00288492
0.00282009
0.00278342
0.00271386
0.00257091
0.00239728
0.00166669
0.00157921
0.00275974
0.00377615
0.00457251
0.00530183
0.00601095
0.00657244
0.0069488
0.00719273
0.00722474
0.0069867
0.00669839
0.00670023
0.00681999
0.00672794
0.00645696
0.00602989
0.00545501
0.00479378
0.00414746
0.00363271
0.00328592
0.00307318
0.0029426
0.0028559
0.00279265
0.00274411
0.00270833
0.00268826
0.00269452
0.00271027
0.00272432
0.00272504
0.00268189
0.00254889
0.00231462
0.00202438
0.00134112
0.00238083
0.0046547
0.00595297
0.00679332
0.00744624
0.00749581
0.00710472
0.00671216
0.00637364
0.00573486
0.00528241
0.00517804
0.00510722
0.00490734
0.00460602
0.00423248
0.0037947
0.00333407
0.00291865
0.00259556
0.00237254
0.00224387
0.00218351
0.0021704
0.00219158
0.00223872
0.00230475
0.00238116
0.00247052
0.0025731
0.00268292
0.00279076
0.00287853
0.00292241
0.00288149
0.0028458
0.00261999
0.00135861
0.00249161
0.00255351
0.00260943
0.00289315
0.00272875
0.00241383
0.00203336
0.00172862
0.00154213
0.00136528
0.00120969
0.00108797
0.000984875
0.000906791
0.000852551
0.000812927
0.000781054
0.000753639
0.000731014
0.000715747
0.000710049
0.000714312
0.000727001
0.000745657
0.000769229
0.00079716
0.000829293
0.000865815
0.000907338
0.000955141
0.00100955
0.00107013
0.00113721
0.0012111
0.00129183
0.00138857
0.00143086
0.00140152
0.0013036
0.00120551
)
;

boundaryField
{
    floor
    {
        type            compressible::alphatWallFunction;
        Prt             0.85;
        value           nonuniform List<scalar> 
36
(
0.000160698
7.82089e-05
9.26147e-05
0.000105501
0.000110119
0.000108357
0.000101205
9.32224e-05
8.60131e-05
7.9712e-05
7.41927e-05
6.93335e-05
6.50506e-05
6.1226e-05
5.77196e-05
5.43721e-05
5.09878e-05
4.89637e-05
4.41672e-05
4.41666e-05
6.10592e-05
7.35425e-05
8.5626e-05
0.000115676
0.000122503
0.000133174
0.000160697
0.000210172
0.000175575
0.000143854
7.82079e-05
0.000143853
7.75236e-05
0.000169367
0.000121556
0.000194215
)
;
    }
    ceiling
    {
        type            compressible::alphatWallFunction;
        Prt             0.85;
        value           nonuniform List<scalar> 
43
(
0.000340276
0.000348139
0.000355228
0.000391025
0.00037041
0.000330502
0.000281519
0.000241566
0.000216737
0.000192879
0.000171596
0.000154727
0.000140268
0.000129199
0.000121445
0.000115743
0.000111132
0.000107148
0.000103847
0.000101613
0.000100778
0.000101403
0.000103261
0.000105985
0.000109416
0.000113465
0.000118103
0.000123348
0.000129279
0.000136068
0.000143747
0.000152242
0.000161582
0.000171797
0.000182879
0.000196055
0.000201782
0.000197811
0.000184489
0.000171032
0.000467133
0.000555333
0.000326051
)
;
    }
    sWall
    {
        type            compressible::alphatWallFunction;
        Prt             0.85;
        value           uniform 0.000339033;
    }
    nWall
    {
        type            compressible::alphatWallFunction;
        Prt             0.85;
        value           nonuniform List<scalar> 6(0.000132955 0.000137897 0.000163431 0.000189265 0.000191643 0.000170691);
    }
    sideWalls
    {
        type            empty;
    }
    glass1
    {
        type            compressible::alphatWallFunction;
        Prt             0.85;
        value           nonuniform List<scalar> 9(0.000171675 0.000229186 0.000276017 0.000320314 0.000364898 0.00041198 0.000457753 0.000468821 0.00046001);
    }
    glass2
    {
        type            compressible::alphatWallFunction;
        Prt             0.85;
        value           nonuniform List<scalar> 2(0.000247084 0.000231541);
    }
    sun
    {
        type            compressible::alphatWallFunction;
        Prt             0.85;
        value           nonuniform List<scalar> 
14
(
0.000176225
0.000191396
0.000195564
0.000204538
0.000212764
0.000220519
0.000228246
0.000236061
0.000242429
0.000246421
0.000246872
0.000242622
0.000232172
0.000209869
)
;
    }
    Table_master
    {
        type            compressible::alphatWallFunction;
        Prt             0.85;
        value           nonuniform List<scalar> 9(0.000136695 0.000119655 0.000105258 9.34263e-05 8.37491e-05 7.5811e-05 6.92876e-05 6.39605e-05 5.97819e-05);
    }
    Table_slave
    {
        type            compressible::alphatWallFunction;
        Prt             0.85;
        value           nonuniform List<scalar> 9(0.000153731 0.00014109 0.000132402 0.000125945 0.000120455 0.000114969 0.000109732 0.000104167 9.76185e-05);
    }
    inlet
    {
        type            fixedValue;
        value           uniform 1.94e-05;
    }
    outlet
    {
        type            zeroGradient;
    }
}


// ************************************************************************* //
