/*--------------------------------*- C++ -*----------------------------------*\
  =========                 |
  \\      /  F ield         | OpenFOAM: The Open Source CFD Toolbox
   \\    /   O peration     | Website:  https://openfoam.org
    \\  /    A nd           | Version:  6
     \\/     M anipulation  |
\*---------------------------------------------------------------------------*/
FoamFile
{
    version     2.0;
    format      ascii;
    class       volScalarField;
    location    "41499.9999994675381";
    object      nut;
}
// * * * * * * * * * * * * * * * * * * * * * * * * * * * * * * * * * * * * * //

dimensions      [0 2 -1 0 0 0 0];

internalField   nonuniform List<scalar> 
778
(
0.0008943
0.000953033
0.000949545
0.000990748
0.00102852
0.00106283
0.00109477
0.00112558
0.0011566
0.00118957
0.00122102
0.00125089
0.00128031
0.00131193
0.00134491
0.000632399
0.00090533
0.000912718
0.000890686
0.000853777
0.000804422
0.000755206
0.000709852
0.000668966
0.000632319
0.000599676
0.00057036
0.000543657
0.000518731
0.000494471
0.000469103
0.000448028
0.000405548
0.00131077
0.00258101
0.00226497
0.00261424
0.00286762
0.00313627
0.00340428
0.00365134
0.00385029
0.00396622
0.00403438
0.0040064
0.00380654
0.00331144
0.00241839
0.00147248
0.00140389
0.00134379
0.00113076
0.00192638
0.00267028
0.00310984
0.00313055
0.00247064
0.00211296
0.00186516
0.0016771
0.00152744
0.00139971
0.00128684
0.00118184
0.00107913
0.000986956
0.000907484
0.00102198
0.000514087
0.00166403
0.00360419
0.00267221
0.00382223
0.00427081
0.00465043
0.00499526
0.00529884
0.00555616
0.00575804
0.00595352
0.00615911
0.00634781
0.00645969
0.00638423
0.00584447
0.00427383
0.00164815
0.00142681
0.00305245
0.00425949
0.00483054
0.00439287
0.0011593
0.00100813
0.00089152
0.000800259
0.000727614
0.000668961
0.000621109
0.000582184
0.000551836
0.000606713
0.000713641
0.00112963
0.000584755
0.00200525
0.00485808
0.00255723
0.0042982
0.00496248
0.00531797
0.00557943
0.00577296
0.00591755
0.00603489
0.00620146
0.00648261
0.00689252
0.00740751
0.00792464
0.00817828
0.00767736
0.00572411
0.00164155
0.00380454
0.0056572
0.00659739
0.006829
0.00582951
0.00132007
0.0012007
0.00110833
0.00103154
0.000966091
0.000907296
0.000851852
0.00079678
0.000737303
0.000688902
0.000714025
0.00122258
0.000643749
0.00234199
0.00643262
0.00258012
0.00408649
0.00510797
0.00541126
0.00552156
0.00552615
0.00547167
0.00542353
0.00549348
0.00576674
0.00626767
0.00697649
0.00779817
0.00855471
0.00903462
0.00902874
0.00810344
0.00824597
0.00843436
0.00846001
0.00828751
0.00775689
0.00617286
0.00533228
0.00475662
0.00428854
0.00382982
0.00338559
0.00295098
0.00251681
0.00207063
0.00159063
0.00121398
0.00121202
0.000958955
0.000767329
0.0010098
0.000966971
0.00267361
0.00819572
0.0030376
0.00344642
0.00489466
0.00523124
0.00520474
0.00501787
0.00475053
0.00453003
0.00452539
0.00481161
0.00538235
0.00620412
0.00716575
0.00812594
0.00894403
0.00946676
0.00956197
0.00946577
0.00929717
0.00905827
0.00875168
0.00836202
0.0077937
0.00724638
0.00674956
0.00626893
0.00575037
0.0051968
0.00460551
0.00397133
0.00329022
0.00256764
0.00191389
0.00143712
0.00111527
0.00125136
0.00217212
0.00115712
0.00301215
0.00982721
0.00404812
0.00282364
0.00439842
0.00494866
0.00488799
0.00458531
0.004146
0.00375934
0.00374824
0.00410936
0.00476236
0.00568039
0.00672545
0.00775982
0.00865042
0.00928867
0.00958241
0.0095595
0.00934897
0.00903032
0.00866574
0.00830229
0.00795094
0.00762866
0.00732603
0.00700278
0.00661271
0.00614332
0.00558748
0.00494242
0.00421074
0.00341162
0.00263138
0.00190353
0.00140153
0.00125321
0.00220128
0.00136312
0.00330349
0.0110643
0.0055204
0.00268862
0.00348472
0.00438739
0.00451337
0.00426449
0.00374552
0.00321906
0.00333851
0.0038159
0.00454565
0.00549143
0.0065761
0.00765877
0.0085829
0.00922555
0.00951779
0.00947986
0.00920835
0.00880786
0.00837727
0.00799555
0.00770136
0.0074912
0.00732742
0.00714931
0.00690176
0.00655528
0.00609601
0.00552111
0.00483639
0.00406322
0.00326121
0.0024503
0.00172054
0.00113732
0.00318075
0.00178115
0.00339331
0.0104839
0.00683666
0.00347674
0.00236281
0.00289615
0.00338862
0.00342999
0.00302887
0.00294449
0.0032506
0.00381161
0.00459981
0.00560183
0.00673792
0.00785373
0.00877482
0.00936831
0.00957733
0.00943457
0.00904111
0.00852489
0.00801293
0.00760466
0.00734552
0.00721823
0.00716055
0.00709213
0.00694999
0.00669995
0.0063283
0.00583355
0.00522261
0.00451351
0.00373774
0.00286883
0.00171279
0.00137683
0.00484367
0.00202083
0.00332467
0.00845856
0.00706632
0.00477552
0.00315268
0.00244123
0.00231264
0.00242158
0.00262533
0.00294984
0.00340933
0.00403998
0.00489606
0.00597532
0.00717259
0.00830409
0.0091775
0.00965952
0.00971074
0.00938804
0.00881913
0.00816444
0.00758055
0.00718081
0.00699758
0.00697592
0.00701544
0.00701464
0.00692269
0.00672017
0.00640041
0.00596305
0.00541272
0.00475529
0.00395962
0.00280285
0.00136311
0.00228015
0.00499977
0.00206755
0.00311445
0.00723163
0.00683533
0.00546813
0.00420661
0.00338609
0.0029808
0.00288967
0.00305834
0.00336797
0.00381649
0.00448089
0.0054249
0.00660717
0.00786506
0.00897298
0.00972649
0.010008
0.00981187
0.00923626
0.00845403
0.00767138
0.0070777
0.00677988
0.006745
0.00684208
0.00694047
0.00694218
0.00684528
0.0066488
0.00634841
0.0059401
0.00542059
0.00476502
0.00379325
0.00220285
0.00144392
0.00288488
0.00492057
0.00205646
0.00283614
0.00652119
0.00659542
0.00579064
0.00492446
0.00427313
0.00389008
0.00375336
0.00378862
0.00397535
0.004386
0.00512667
0.0062169
0.00752592
0.00881094
0.00980888
0.0103249
0.0102839
0.0097389
0.00885035
0.00785985
0.00703391
0.00656738
0.00647195
0.00655136
0.00668024
0.00676641
0.00674301
0.00663088
0.00643171
0.00613808
0.0057396
0.00521907
0.0044867
0.00308926
0.00154305
0.00187394
0.00321436
0.00452648
0.0019965
0.00258648
0.00583317
0.00629831
0.00591738
0.00536116
0.00489438
0.00458432
0.00443323
0.00438827
0.00454654
0.00506643
0.00603328
0.00735215
0.00876963
0.00997273
0.010698
0.0108049
0.0102967
0.00931697
0.00811425
0.00702861
0.00633268
0.00602306
0.00597762
0.00605983
0.00617865
0.00626045
0.00624231
0.00613301
0.00593227
0.00563103
0.00521571
0.00465345
0.00377701
0.0022935
0.00149988
0.00218902
0.00336562
0.00416074
0.00192826
0.00259424
0.00578914
0.00643489
0.00598936
0.00553915
0.00517072
0.00490524
0.00473292
0.00472441
0.00510825
0.00602532
0.00739543
0.00894283
0.0103135
0.0111932
0.0113934
0.0108887
0.00979325
0.00838666
0.00702808
0.00604387
0.00545757
0.00516872
0.00508498
0.00512949
0.00523132
0.00531868
0.00531337
0.0051999
0.00497447
0.0046311
0.00417242
0.00360455
0.00288444
0.0019897
0.00159176
0.00228944
0.00348949
0.00466949
0.00194029
0.00234164
0.00243536
0.00359194
0.00421897
0.00441221
0.00441444
0.00437084
0.00445024
0.00498669
0.00613031
0.00773729
0.00947124
0.0109572
0.0118829
0.0120621
0.0114542
0.0102047
0.00854897
0.00696892
0.0057318
0.00489087
0.00439075
0.00414093
0.00404366
0.00403359
0.0040669
0.00409396
0.0040447
0.00387693
0.00359088
0.00320748
0.00278502
0.00239946
0.00209524
0.00186858
0.00182841
0.00241942
0.00380888
0.00474869
0.00207238
0.000807886
0.0014661
0.00226277
0.00290373
0.00364498
0.00490058
0.00674506
0.00878882
0.0106473
0.0120372
0.0127674
0.0127132
0.0118757
0.0103385
0.00850284
0.006757
0.00536443
0.00441529
0.00387405
0.00358853
0.00342761
0.00332496
0.00325222
0.00319149
0.00311793
0.0029948
0.00279546
0.00254007
0.00228365
0.00209375
0.0020079
0.00202251
0.0021276
0.0023664
0.00294826
0.00450075
0.00497519
0.00210281
0.00149722
0.00207822
0.00303493
0.00474409
0.00706403
0.00938746
0.01119
0.0124905
0.0132776
0.0135009
0.0130655
0.0118757
0.0101138
0.00812079
0.00628822
0.00489837
0.00405592
0.003619
0.00338581
0.00324083
0.00313983
0.00306649
0.00301046
0.00295872
0.0028925
0.00279196
0.0026587
0.00252149
0.0024222
0.00239709
0.00245754
0.00259439
0.00280574
0.00313204
0.00370074
0.0050264
0.00540826
0.00213033
0.00275744
0.00666442
0.00612305
0.00548036
0.0069789
0.00932138
0.0113027
0.0126413
0.0133466
0.0135228
0.0132565
0.0125137
0.0112594
0.00955432
0.00764117
0.00588942
0.00464971
0.00396373
0.00360589
0.00339224
0.00324737
0.00315094
0.00309876
0.00308589
0.00310083
0.0031248
0.00313498
0.00311459
0.00308023
0.00305626
0.00306108
0.00310749
0.0031979
0.00332427
0.00347734
0.00366165
0.00390962
0.00427498
0.00443919
0.00202948
0.0026391
0.00510004
0.00658759
0.00841116
0.00934689
0.0103208
0.0108938
0.011038
0.0108301
0.0103269
0.00955402
0.00852897
0.00731135
0.006055
0.00498585
0.00423448
0.003738
0.00341496
0.00318721
0.00302227
0.00291514
0.00286932
0.00288614
0.00295935
0.00307261
0.0031996
0.00330807
0.00337077
0.00341245
0.00345869
0.0035243
0.00361609
0.00373489
0.00387856
0.00404773
0.00424921
0.00448587
0.0048153
0.00496524
0.00198612
0.00247414
0.00211943
0.00210885
0.00216992
0.00222037
0.00215347
0.0020236
0.00187218
0.00172119
0.00157932
0.00144886
0.00133142
0.0012309
0.00115304
0.0011013
0.00107424
0.00106616
0.00106727
0.00107571
0.00109098
0.00111235
0.00113834
0.00116697
0.0011963
0.00122498
0.00125244
0.001279
0.00130578
0.00133332
0.00136353
0.00139811
0.00143806
0.00148377
0.001535
0.00159082
0.00165031
0.00171952
0.00182175
0.00196642
0.00192357
)
;

boundaryField
{
    floor
    {
        type            nutkWallFunction;
        Cmu             0.09;
        kappa           0.41;
        E               9.8;
        value           nonuniform List<scalar> 
36
(
0.000160581
7.63856e-05
0.000109517
0.000110396
0.000107773
0.000103362
9.74285e-05
9.14687e-05
8.59356e-05
8.09114e-05
7.63767e-05
7.23106e-05
6.8636e-05
6.52686e-05
6.2107e-05
5.90117e-05
5.57547e-05
5.30321e-05
4.74937e-05
4.74936e-05
6.15155e-05
7.04429e-05
7.77945e-05
9.29405e-05
0.000121854
0.000116821
0.000160581
0.000175018
0.000167274
0.000160453
7.63856e-05
0.000160453
0.000135988
0.000194678
0.000169865
0.000193942
)
;
    }
    ceiling
    {
        type            nutkWallFunction;
        Cmu             0.09;
        kappa           0.41;
        E               9.8;
        value           nonuniform List<scalar> 
43
(
0.000284366
0.000246298
0.000245156
0.000251763
0.000257209
0.000250009
0.000235941
0.000219404
0.000202763
0.000186977
0.000172324
0.000159012
0.000147522
0.000138557
0.000132566
0.000129418
0.000128478
0.000128605
0.000129583
0.000131354
0.000133835
0.000136853
0.000140176
0.000143577
0.000146896
0.000150067
0.000153125
0.0001562
0.000159349
0.000162791
0.000166717
0.000171242
0.000176407
0.000182178
0.000188443
0.000195075
0.000202681
0.000213843
0.000229648
0.00022516
0.000270418
0.000280433
0.000177594
)
;
    }
    sWall
    {
        type            nutkWallFunction;
        Cmu             0.09;
        kappa           0.41;
        E               9.8;
        value           nonuniform List<scalar> 9(0.000373891 0.000352083 0.000322977 0.000296618 0.000297438 0.000270507 0.000314387 0.000301927 0.000284467);
    }
    nWall
    {
        type            nutkWallFunction;
        Cmu             0.09;
        kappa           0.41;
        E               9.8;
        value           nonuniform List<scalar> 
14
(
0.000116828
0.000139057
0.000162665
0.000240769
0.000239522
0.000232967
0.000225562
0.000227074
0.000241328
0.000244609
0.000247483
0.000236542
0.000231931
0.000225194
)
;
    }
    sideWalls
    {
        type            empty;
    }
    glass1
    {
        type            nutkWallFunction;
        Cmu             0.09;
        kappa           0.41;
        E               9.8;
        value           nonuniform List<scalar> 9(0.000108247 0.000156882 0.000196736 0.000234349 0.000270792 0.000306141 0.000341755 0.000372074 0.000381375);
    }
    glass2
    {
        type            nutkWallFunction;
        Cmu             0.09;
        kappa           0.41;
        E               9.8;
        value           nonuniform List<scalar> 2(0.000209518 0.00023584);
    }
    sun
    {
        type            nutkWallFunction;
        Cmu             0.09;
        kappa           0.41;
        E               9.8;
        value           nonuniform List<scalar> 
14
(
0.000108206
0.000115177
0.000114764
0.000119628
0.000124066
0.000128082
0.000131807
0.000135388
0.000138983
0.000142791
0.000146413
0.000149843
0.000153212
0.000156824
)
;
    }
    Table_master
    {
        type            nutkWallFunction;
        Cmu             0.09;
        kappa           0.41;
        E               9.8;
        value           nonuniform List<scalar> 9(0.000139287 0.000121668 0.00010787 9.69257e-05 8.81092e-05 8.09146e-05 7.49889e-05 7.0128e-05 6.63108e-05);
    }
    Table_slave
    {
        type            nutkWallFunction;
        Cmu             0.09;
        kappa           0.41;
        E               9.8;
        value           nonuniform List<scalar> 9(0.00015774 0.000144064 0.000133377 0.000124415 0.000116715 0.000109748 0.00010313 9.65056e-05 8.92909e-05);
    }
    inlet
    {
        type            calculated;
        value           uniform 0.000167705;
    }
    outlet
    {
        type            calculated;
        value           nonuniform List<scalar> 2(0.00275744 0.00666442);
    }
}


// ************************************************************************* //
