/*--------------------------------*- C++ -*----------------------------------*\
  =========                 |
  \\      /  F ield         | OpenFOAM: The Open Source CFD Toolbox
   \\    /   O peration     | Website:  https://openfoam.org
    \\  /    A nd           | Version:  6
     \\/     M anipulation  |
\*---------------------------------------------------------------------------*/
FoamFile
{
    version     2.0;
    format      ascii;
    class       volScalarField;
    location    "42999.9999997731284";
    object      alphat;
}
// * * * * * * * * * * * * * * * * * * * * * * * * * * * * * * * * * * * * * //

dimensions      [1 -1 -1 0 0 0 0];

internalField   nonuniform List<scalar> 
778
(
0.00104101
0.00111059
0.00110659
0.00115462
0.00119864
0.0012386
0.0012758
0.00131167
0.00134777
0.00138614
0.00142274
0.00145751
0.00149179
0.00152867
0.00156716
0.000736669
0.00105568
0.00106416
0.00103835
0.000995209
0.000937589
0.000880212
0.000827398
0.000779798
0.00073711
0.000699055
0.000664865
0.000633715
0.000604639
0.000576344
0.000546759
0.000522189
0.000472642
0.0015247
0.00300744
0.0026394
0.00304654
0.00334198
0.00365517
0.00396752
0.00425532
0.00448693
0.00462173
0.00470101
0.00466846
0.00443587
0.00385938
0.00281889
0.00171608
0.0016362
0.00156628
0.00131905
0.00224677
0.00311422
0.00362641
0.0036502
0.00288038
0.00246346
0.00217431
0.00195481
0.00178031
0.00163162
0.00150016
0.00137779
0.00125807
0.00115061
0.00105795
0.00119163
0.000599334
0.00193419
0.00419902
0.00311345
0.0044534
0.00497619
0.0054185
0.00582008
0.00617339
0.0064726
0.00670715
0.00693457
0.00717412
0.00739469
0.00752673
0.00744146
0.0068152
0.00498548
0.00192149
0.00166363
0.00355854
0.00496698
0.00563388
0.0051247
0.00135218
0.00117575
0.00103957
0.000933014
0.000848234
0.000779828
0.000724057
0.000678706
0.000643348
0.000707201
0.000831889
0.0013173
0.000681954
0.00232917
0.00565878
0.00297914
0.00500687
0.0057807
0.00619458
0.00649872
0.00672352
0.00689113
0.00702691
0.00722031
0.00754753
0.00802554
0.00862731
0.00923313
0.00953339
0.00895553
0.00668679
0.00191346
0.0044261
0.00658809
0.00768902
0.00796227
0.00679916
0.00153938
0.00140024
0.00129252
0.00120286
0.00112645
0.00105783
0.000993168
0.000928964
0.000859634
0.000802988
0.000832258
0.0014261
0.000751061
0.00271845
0.00749101
0.00300574
0.00475918
0.00594882
0.00630159
0.00642937
0.00643387
0.00636947
0.00631239
0.00639304
0.00671071
0.00729431
0.00812154
0.0090816
0.00996684
0.0105287
0.0105229
0.00944355
0.00960758
0.00982871
0.00986124
0.00966227
0.0090453
0.00719954
0.00621949
0.00554801
0.00500302
0.00446783
0.00394906
0.00344141
0.00293453
0.00241406
0.00185436
0.00141507
0.00141337
0.00111847
0.000895709
0.0011833
0.00113622
0.00310142
0.00954129
0.00353879
0.00401297
0.00569926
0.00609064
0.0060589
0.00584028
0.00552801
0.00527047
0.00526444
0.00559723
0.0062621
0.00722117
0.00834392
0.00946638
0.0104206
0.0110304
0.0111416
0.01103
0.010835
0.0105585
0.0102028
0.00974975
0.00908801
0.00845011
0.00787074
0.00731114
0.00670626
0.00605999
0.00536966
0.00462966
0.00383538
0.00299278
0.00223007
0.00167444
0.00130068
0.00145616
0.00253096
0.00135924
0.00349221
0.0114364
0.00471584
0.00328763
0.00512053
0.0057608
0.0056893
0.00533586
0.00482347
0.00437299
0.00435991
0.00478023
0.00554145
0.00661407
0.007834
0.00904183
0.0100808
0.0108246
0.0111665
0.0111402
0.010896
0.010526
0.0101023
0.00967954
0.00927049
0.00889495
0.00854199
0.00816553
0.00771031
0.0071622
0.00651342
0.00576103
0.00490787
0.00397541
0.00306381
0.00221574
0.0016326
0.00145557
0.0025786
0.00160141
0.00382796
0.0128689
0.00642877
0.00313092
0.00405571
0.00510663
0.00525308
0.00496275
0.0043571
0.00374492
0.00388356
0.00443977
0.00529177
0.00639753
0.00766568
0.00893019
0.0100076
0.0107554
0.0110944
0.0110497
0.0107338
0.010268
0.00976688
0.00932239
0.00897976
0.00873496
0.00854393
0.00833637
0.008047
0.00764198
0.00710573
0.00643516
0.00563642
0.00473269
0.00379237
0.00284581
0.00199108
0.00134298
0.00366703
0.00209029
0.0039291
0.0121728
0.00795136
0.00404858
0.00274953
0.00336811
0.00394263
0.00399156
0.00352424
0.003425
0.00378063
0.00443521
0.00535767
0.00653181
0.00786205
0.00916566
0.0102385
0.0109272
0.0111679
0.0110002
0.0105419
0.00994102
0.0093446
0.00886862
0.0085666
0.00841851
0.00835134
0.00827152
0.0081047
0.00781172
0.00737724
0.00679961
0.00608573
0.00525409
0.0043409
0.00331678
0.0019194
0.00172329
0.00557213
0.00240036
0.00384952
0.00980944
0.0082077
0.00555478
0.00366954
0.0028406
0.00268964
0.00281609
0.00305258
0.00342896
0.00396382
0.0047016
0.00570667
0.00697454
0.00837825
0.00969993
0.0107151
0.0112715
0.0113269
0.0109495
0.0102874
0.00952543
0.00884461
0.0083779
0.00816434
0.00813992
0.00818649
0.00818569
0.00807702
0.00783909
0.00746488
0.00695371
0.00630895
0.00553628
0.00461261
0.00320897
0.00139087
0.00342961
0.00519089
0.00242412
0.00360569
0.00838228
0.00793318
0.00635374
0.00489144
0.00393814
0.00346611
0.00335888
0.00355359
0.00391286
0.00443656
0.00521713
0.00632943
0.00772132
0.00919675
0.0104886
0.0113601
0.0116796
0.0114461
0.0107756
0.00986673
0.00895593
0.00826229
0.00791431
0.00787543
0.00799096
0.00810612
0.00810846
0.00799317
0.00776245
0.00741219
0.00693596
0.00632706
0.00556843
0.00456882
0.00285479
0.00152272
0.00378676
0.00511218
0.00239766
0.00328282
0.00755759
0.0076514
0.00672364
0.00572125
0.00496593
0.00452083
0.00436146
0.00440089
0.00461823
0.00510083
0.0059755
0.00726391
0.0088064
0.0103113
0.0114688
0.0120568
0.0119971
0.0113584
0.0103268
0.00917679
0.00821374
0.00766745
0.00756025
0.00766055
0.00781343
0.00791145
0.00788297
0.00774846
0.00751572
0.00717669
0.00670869
0.0060873
0.00526367
0.00414404
0.00260337
0.00171051
0.00383151
0.00571024
0.00240105
0.00299333
0.00676122
0.00730603
0.00686822
0.00622522
0.00568462
0.00532486
0.00514878
0.00509684
0.0052843
0.00589977
0.00704546
0.00860573
0.0102734
0.0116742
0.0125018
0.0126037
0.0119982
0.0108576
0.00946278
0.00819675
0.00738531
0.00703564
0.00700642
0.00711942
0.00725406
0.00733118
0.00730185
0.00716338
0.00692771
0.00657924
0.00607616
0.00534908
0.00433897
0.00313243
0.00214774
0.00204349
0.00404136
0.00566134
0.00256089
0.00300443
0.00671112
0.00746533
0.00695083
0.00643027
0.00600386
0.00569632
0.00549698
0.00549086
0.00594675
0.0070341
0.00865832
0.0104855
0.0120874
0.0130923
0.0132902
0.0126706
0.011384
0.0097511
0.00816714
0.00702015
0.00635953
0.00607042
0.00602136
0.0060927
0.00618646
0.00623679
0.00620742
0.00605512
0.00579619
0.00539515
0.00476829
0.00384018
0.00277135
0.0020513
0.00197224
0.00257377
0.00461313
0.00578982
0.00260315
0.00271031
0.00282042
0.00416547
0.0048974
0.00512462
0.00512921
0.00508065
0.00517799
0.00581161
0.00716284
0.00906564
0.0111155
0.0128561
0.0139116
0.0140712
0.0133099
0.0118195
0.00988308
0.00803784
0.00660132
0.00565673
0.00513696
0.00491673
0.00485651
0.00485223
0.00483944
0.00478602
0.0046801
0.00449412
0.00420951
0.00380641
0.00322469
0.00251338
0.00199018
0.00195119
0.00239297
0.00327787
0.00480776
0.00601052
0.00249533
0.000964291
0.00173798
0.00266512
0.0034082
0.00427299
0.00574541
0.00791317
0.0103212
0.0125102
0.0141336
0.0149554
0.0148296
0.0137775
0.0119262
0.00974586
0.00769757
0.00609237
0.00504115
0.00448526
0.0042307
0.00410766
0.00401914
0.00391789
0.00378598
0.00362551
0.00344982
0.00327149
0.00307207
0.00284436
0.00256897
0.00227547
0.00212923
0.00232919
0.002913
0.00376818
0.00462681
0.00493828
0.00238558
0.00178755
0.00246704
0.00358678
0.00558896
0.008309
0.0110325
0.0131419
0.0146621
0.0155733
0.0158023
0.0152273
0.0137397
0.0115826
0.00918225
0.00701729
0.00543704
0.00454568
0.00414809
0.00398699
0.0039077
0.00384156
0.0037619
0.0036632
0.00355183
0.00343902
0.0033338
0.00323796
0.00314289
0.003043
0.00293919
0.00284614
0.00282792
0.00301512
0.00351965
0.00431388
0.00517745
0.00575048
0.00237708
0.00323886
0.00787153
0.00726068
0.00648593
0.00822268
0.0109481
0.0132444
0.0147943
0.0156134
0.0158129
0.015475
0.0145454
0.0129769
0.0108379
0.00846396
0.006395
0.00506607
0.00444851
0.00422863
0.00416134
0.00413091
0.00409188
0.00403056
0.00394848
0.00385451
0.00376036
0.00367809
0.00361888
0.00359158
0.00359938
0.00363276
0.00368167
0.00375328
0.00388972
0.00415616
0.00464068
0.00544213
0.00669694
0.00693139
0.00265517
0.00309545
0.00597863
0.00771325
0.00987295
0.0109502
0.0120588
0.0127013
0.0128536
0.0126067
0.0120179
0.0110969
0.00982868
0.00826123
0.0066161
0.00524797
0.00441177
0.00403411
0.00391439
0.00390489
0.00392707
0.00394242
0.00393442
0.00389978
0.0038429
0.00377226
0.00369935
0.00364003
0.0036154
0.0036496
0.0037637
0.00396615
0.00423523
0.00451352
0.00479234
0.00515929
0.00570244
0.00649593
0.00776207
0.00753742
0.00278439
0.00289435
0.00248107
0.00246868
0.00254066
0.00259997
0.00252203
0.002371
0.00219412
0.00201462
0.00184033
0.00167341
0.00151861
0.0013877
0.00129507
0.00124636
0.00122938
0.00123076
0.00124055
0.00125343
0.00126701
0.00128053
0.00129438
0.00130982
0.00132884
0.00135405
0.00138833
0.00143431
0.00149336
0.00156469
0.00164539
0.00173173
0.00182111
0.00191391
0.00200999
0.00211019
0.00221806
0.00233474
0.00246424
0.00260842
0.00253672
)
;

boundaryField
{
    floor
    {
        type            compressible::alphatWallFunction;
        Prt             0.85;
        value           nonuniform List<scalar> 
36
(
0.00021986
0.00010446
0.000149979
0.000151164
0.000147551
0.000141489
0.000133344
0.000125175
0.0001176
0.000110724
0.000104515
9.89435e-05
9.39066e-05
8.92901e-05
8.4956e-05
8.07138e-05
7.62508e-05
7.25218e-05
6.49347e-05
6.49339e-05
8.41636e-05
9.64291e-05
0.00010655
0.000127391
0.000167742
0.000161221
0.000219858
0.000239681
0.000229071
0.000219737
0.000104459
0.000219735
0.000186344
0.000266713
0.000232713
0.000265662
)
;
    }
    ceiling
    {
        type            compressible::alphatWallFunction;
        Prt             0.85;
        value           nonuniform List<scalar> 
43
(
0.000391129
0.000338954
0.000337383
0.000346546
0.000354083
0.00034423
0.000325011
0.000302321
0.000279089
0.000256311
0.000234267
0.000213595
0.000195919
0.000183291
0.000176605
0.000174263
0.000174451
0.0001758
0.000177575
0.000179444
0.000181303
0.000183199
0.000185303
0.000187883
0.000191287
0.000195903
0.000202083
0.000210003
0.000219553
0.000230332
0.000241828
0.000253677
0.000265913
0.000278529
0.0002916
0.000305574
0.000320592
0.000337157
0.000355467
0.000346211
0.000368325
0.000382166
0.000248639
)
;
    }
    sWall
    {
        type            compressible::alphatWallFunction;
        Prt             0.85;
        value           nonuniform List<scalar> 9(0.00050761 0.000477865 0.000438163 0.000402229 0.000403604 0.00036675 0.000432091 0.000414358 0.000389378);
    }
    nWall
    {
        type            compressible::alphatWallFunction;
        Prt             0.85;
        value           nonuniform List<scalar> 
14
(
0.000160773
0.000191369
0.000223973
0.000331227
0.000327906
0.000328503
0.000348836
0.000354121
0.000340075
0.000326151
0.000325337
0.000360609
0.000376747
0.000345516
)
;
    }
    sideWalls
    {
        type            empty;
    }
    glass1
    {
        type            compressible::alphatWallFunction;
        Prt             0.85;
        value           nonuniform List<scalar> 9(0.000143931 0.000209139 0.000262697 0.000313308 0.000362383 0.000410009 0.000458021 0.00049888 0.000511235);
    }
    glass2
    {
        type            compressible::alphatWallFunction;
        Prt             0.85;
        value           nonuniform List<scalar> 2(0.000286062 0.000325823);
    }
    sun
    {
        type            compressible::alphatWallFunction;
        Prt             0.85;
        value           nonuniform List<scalar> 
14
(
0.000147965
0.000157652
0.000157095
0.000163763
0.000169844
0.000175345
0.000180447
0.000185349
0.000190268
0.000195481
0.000200437
0.000205134
0.00020975
0.000214704
)
;
    }
    Table_master
    {
        type            compressible::alphatWallFunction;
        Prt             0.85;
        value           nonuniform List<scalar> 9(0.000191122 0.000166932 0.000147977 0.000132944 0.000120839 0.000110967 0.000102842 9.61797e-05 9.09476e-05);
    }
    Table_slave
    {
        type            compressible::alphatWallFunction;
        Prt             0.85;
        value           nonuniform List<scalar> 9(0.000216409 0.000197654 0.00018299 0.000170679 0.000160104 0.000150538 0.000141457 0.000132371 0.000122477);
    }
    inlet
    {
        type            fixedValue;
        value           uniform 1.94e-05;
    }
    outlet
    {
        type            zeroGradient;
    }
}


// ************************************************************************* //
