/*--------------------------------*- C++ -*----------------------------------*\
  =========                 |
  \\      /  F ield         | OpenFOAM: The Open Source CFD Toolbox
   \\    /   O peration     | Website:  https://openfoam.org
    \\  /    A nd           | Version:  6
     \\/     M anipulation  |
\*---------------------------------------------------------------------------*/
FoamFile
{
    version     2.0;
    format      ascii;
    class       volScalarField;
    location    "42999.9999997731284";
    object      k;
}
// * * * * * * * * * * * * * * * * * * * * * * * * * * * * * * * * * * * * * //

dimensions      [0 2 -2 0 0 0 0];

internalField   nonuniform List<scalar> 
778
(
0.00158603
0.00180131
0.00178818
0.00194672
0.0020979
0.00224007
0.00237658
0.00251199
0.0026521
0.00280516
0.00295513
0.0031012
0.00324858
0.00341094
0.00358463
0.000792431
0.00162594
0.00165209
0.00157292
0.00144494
0.0012825
0.00113037
0.000998826
0.000887235
0.000792781
0.000713059
0.000645036
0.000586029
0.000533505
0.000484758
0.000436288
0.00039798
0.000326108
0.0034072
0.00643404
0.00268772
0.00274622
0.00288787
0.00305436
0.00323457
0.0034301
0.00364301
0.00387296
0.00412466
0.00437814
0.00459382
0.00469922
0.00459384
0.00429744
0.00390633
0.0035795
0.00253838
0.00281407
0.00295622
0.00289812
0.00266471
0.00226504
0.00190542
0.00160908
0.00136938
0.00117565
0.00101696
0.000885246
0.000774027
0.000681234
0.000615251
0.00057479
0.000864674
0.000524306
0.00549121
0.0127828
0.00347829
0.00321217
0.00329745
0.00345521
0.00363645
0.00384038
0.00407037
0.00432659
0.00463432
0.00500945
0.00544968
0.00595967
0.00653165
0.00686131
0.00627885
0.00538646
0.00403709
0.00416947
0.00417346
0.00397623
0.00357863
0.00266682
0.00201631
0.00157632
0.00126974
0.00104948
0.00088704
0.000764707
0.00067192
0.000603745
0.000551533
0.000548794
0.00116592
0.000678797
0.00797429
0.0217619
0.00449188
0.00339075
0.00334143
0.00343791
0.00354916
0.00366844
0.00380839
0.00399036
0.00425788
0.00464705
0.00516992
0.00582449
0.00655498
0.0071359
0.00722958
0.0072466
0.00534081
0.00554579
0.00537351
0.00512426
0.00478644
0.00434826
0.00345642
0.00285983
0.00243673
0.0021104
0.00185078
0.00163219
0.00143873
0.00125873
0.00107786
0.00080095
0.000659995
0.00142236
0.000823331
0.0108775
0.0336404
0.00621433
0.00342503
0.00315816
0.00316675
0.00318927
0.00320944
0.00325152
0.00336024
0.00359362
0.00398793
0.00455233
0.00527623
0.00608715
0.00681831
0.00728293
0.0076418
0.00751223
0.00665001
0.00607005
0.00557697
0.00509811
0.0046293
0.00412359
0.00366618
0.00327539
0.00293758
0.00263114
0.00234753
0.00207893
0.00181825
0.00155489
0.00122218
0.000930757
0.00119134
0.00121727
0.00117099
0.00204434
0.00188583
0.0141764
0.0476062
0.00928702
0.00349022
0.00290844
0.00282253
0.00276411
0.00269918
0.00266376
0.00273398
0.00298011
0.00341357
0.00402322
0.00479842
0.00565484
0.00646256
0.00706838
0.00740479
0.00731952
0.00678593
0.00621192
0.00563515
0.00507334
0.00455582
0.0040916
0.00369604
0.00336332
0.00307379
0.00280666
0.00255121
0.00229862
0.002042
0.00177389
0.00147161
0.0011787
0.00111331
0.00111292
0.00171034
0.00508762
0.00269896
0.0179942
0.0606127
0.0143654
0.00382019
0.00271522
0.00252925
0.00241156
0.00229371
0.00222067
0.00231118
0.00263
0.00313936
0.00380296
0.0046341
0.00553207
0.00637007
0.00700264
0.00732761
0.0072523
0.00681562
0.00621348
0.00555372
0.00491147
0.00434277
0.00387268
0.00350063
0.00320679
0.00296181
0.00274119
0.00252873
0.00231306
0.00208696
0.00184534
0.00158307
0.00132702
0.00116069
0.00109428
0.00156063
0.00630456
0.00374642
0.0216434
0.0704854
0.0214433
0.00510421
0.00274309
0.00237179
0.00220998
0.00208165
0.00202595
0.0022191
0.0026496
0.00323161
0.00393973
0.00477962
0.00570611
0.00658064
0.00722877
0.00751632
0.00738471
0.0068961
0.00619844
0.00542765
0.00469237
0.00406516
0.0035749
0.00321276
0.00294777
0.0027411
0.00256411
0.00239542
0.00222148
0.00203487
0.00183189
0.00161266
0.0013956
0.00123046
0.00116178
0.00213488
0.0137048
0.00639249
0.0228344
0.0694871
0.0325417
0.0110641
0.0040697
0.00258781
0.00223543
0.00210274
0.00218966
0.00251186
0.00300011
0.00360314
0.00433672
0.0052209
0.00619628
0.00709867
0.00772548
0.00792788
0.00766728
0.00702795
0.00616836
0.00525198
0.00441056
0.00372456
0.00321798
0.00286974
0.00263616
0.00246962
0.00233647
0.00221097
0.00207846
0.00193191
0.00176878
0.00159083
0.00141219
0.00128849
0.00138337
0.00421368
0.0267833
0.00843785
0.0219177
0.051623
0.0336448
0.0174404
0.00859238
0.0047613
0.00326171
0.00272985
0.00285281
0.00321016
0.00367201
0.00424821
0.00500174
0.00595028
0.00698951
0.00790204
0.008452
0.00848985
0.00800783
0.00712895
0.00604815
0.00496138
0.00401767
0.00329505
0.00280074
0.00249075
0.00230398
0.00218592
0.0020974
0.00201183
0.00191585
0.00180381
0.00167434
0.00153007
0.0013846
0.00130883
0.0019142
0.0110769
0.0223984
0.00860685
0.0192303
0.0394246
0.0302352
0.0195693
0.0121861
0.00794137
0.00571856
0.00466967
0.00436182
0.00439868
0.00465202
0.00514809
0.00594404
0.00699649
0.00810689
0.00897982
0.00935277
0.00910159
0.00827829
0.00706897
0.00572326
0.00447199
0.00347121
0.00277527
0.00235304
0.00211901
0.00199466
0.00192681
0.0018765
0.0018222
0.00175399
0.0016678
0.00156346
0.00144505
0.00133042
0.00133013
0.00276375
0.0112744
0.0196755
0.00842436
0.0159447
0.0315783
0.0266475
0.0195398
0.0139779
0.0102858
0.00802837
0.00675239
0.00604872
0.00572995
0.00578305
0.00627932
0.00722193
0.00843611
0.00958487
0.0102948
0.0103147
0.00959487
0.00829143
0.00667748
0.00507226
0.00373596
0.00280203
0.00224189
0.00196141
0.00182133
0.00175218
0.00171795
0.00169008
0.00165454
0.00160444
0.00153625
0.00145174
0.00135733
0.00127574
0.00132586
0.00257626
0.00984727
0.0198945
0.0084578
0.0132629
0.0256741
0.0233522
0.0186917
0.0145854
0.0115897
0.00954478
0.0082101
0.00729972
0.00684
0.00696082
0.00772869
0.00899455
0.0103823
0.0114159
0.0117037
0.0110964
0.00968755
0.00779228
0.0057767
0.00404461
0.00284674
0.00220117
0.00186867
0.00170629
0.0016262
0.00158539
0.00156271
0.00154045
0.00151014
0.0014677
0.00141232
0.00134681
0.0012799
0.00124498
0.00140674
0.00271501
0.00912566
0.0172371
0.00961766
0.0133563
0.0224206
0.0220629
0.0177633
0.0143948
0.0118959
0.0100855
0.00876917
0.00791804
0.00777581
0.00847968
0.00988202
0.0115414
0.0128781
0.0133899
0.0128135
0.0112435
0.00896524
0.00652311
0.00431445
0.00296242
0.00221996
0.00185192
0.00167077
0.00157807
0.00152543
0.00149032
0.00146203
0.00143168
0.00139489
0.00135008
0.00130036
0.00125745
0.00125834
0.00141533
0.00196744
0.00355524
0.00963699
0.0158239
0.00993309
0.0108798
0.0117669
0.0129254
0.0125537
0.0113748
0.0100743
0.00894555
0.00820162
0.00830197
0.0094194
0.0113025
0.013374
0.014954
0.0155041
0.0147796
0.0128079
0.0100888
0.00699272
0.00461475
0.00310883
0.00231916
0.00193572
0.00174799
0.0016457
0.00158016
0.00152942
0.00148309
0.00143647
0.00138831
0.00133897
0.0012903
0.001256
0.00127913
0.00146983
0.00203235
0.00322186
0.00548962
0.010174
0.0167794
0.00910966
0.00354262
0.0048211
0.00598984
0.0065919
0.00726769
0.00878491
0.0113058
0.014143
0.0165625
0.017985
0.0180429
0.0166691
0.0141059
0.0105095
0.00722282
0.00475255
0.00325995
0.00250061
0.00215165
0.00198346
0.00188711
0.00181864
0.0017611
0.00170722
0.0016533
0.00159735
0.00153941
0.00149234
0.00146136
0.00146831
0.00157746
0.00193245
0.0027772
0.00441091
0.00713405
0.0109166
0.0145046
0.00833205
0.00444644
0.0062772
0.00808576
0.0109906
0.0146648
0.0181257
0.0203739
0.0214438
0.0213614
0.020109
0.0175229
0.0139856
0.0102884
0.00699984
0.00469952
0.00339871
0.00279471
0.0025415
0.00242901
0.00236646
0.00232253
0.00228839
0.00226299
0.00224693
0.00223901
0.00223418
0.0022232
0.00219553
0.00218165
0.0022116
0.00234246
0.00270054
0.00350425
0.00506373
0.00772799
0.0117537
0.0171146
0.00828869
0.0150819
0.0245571
0.0181208
0.0143652
0.016956
0.0206448
0.0227714
0.0234776
0.0230339
0.0216858
0.0196466
0.0169452
0.0136983
0.010296
0.00731803
0.00522996
0.00410825
0.00363417
0.00346233
0.00339518
0.00335269
0.00330932
0.00326261
0.00321965
0.0031905
0.00318456
0.00320843
0.00326421
0.00334737
0.00344453
0.00353478
0.00366132
0.00390059
0.00432519
0.00510226
0.0065198
0.00908294
0.0139582
0.0180761
0.0103334
0.0138092
0.0170647
0.0178216
0.0207249
0.0216431
0.0220561
0.0210618
0.0192574
0.01715
0.0149818
0.01284
0.0107406
0.00872382
0.00694577
0.00560562
0.00481389
0.00445096
0.00432807
0.0043129
0.00433457
0.00435846
0.00437133
0.00437384
0.00437552
0.00439106
0.0044381
0.0045367
0.0047089
0.00497609
0.0053523
0.00583213
0.00636791
0.00692238
0.00757393
0.00851532
0.0100125
0.0124437
0.0171737
0.019246
0.0113535
0.0121317
0.00891398
0.00882834
0.00935603
0.00980784
0.00924972
0.00819282
0.00702777
0.0059322
0.00495457
0.0040991
0.00337704
0.00282028
0.00245624
0.00227474
0.00221295
0.00221784
0.00225329
0.00230043
0.00235066
0.00240122
0.00245348
0.00251225
0.00258541
0.00268376
0.00282041
0.00300922
0.00326116
0.00357987
0.00395941
0.00438756
0.00485441
0.00536396
0.00591893
0.00652619
0.00721217
0.00799232
0.00890485
0.00997741
0.00942941
)
;

boundaryField
{
    floor
    {
        type            kqRWallFunction;
        value           nonuniform List<scalar> 
36
(
0.00358463
0.000792431
0.00162594
0.00165209
0.00157292
0.00144494
0.0012825
0.00113037
0.000998826
0.000887235
0.000792781
0.000713059
0.000645036
0.000586029
0.000533505
0.000484758
0.000436288
0.00039798
0.000326108
0.000326108
0.000524306
0.000678797
0.000823331
0.00117099
0.00204434
0.00188583
0.00358463
0.00429744
0.00390633
0.0035795
0.000792431
0.0035795
0.00253838
0.00538646
0.00403709
0.00534081
)
;
    }
    ceiling
    {
        type            kqRWallFunction;
        value           nonuniform List<scalar> 
43
(
0.0121317
0.00891398
0.00882834
0.00935603
0.00980784
0.00924972
0.00819282
0.00702777
0.0059322
0.00495457
0.0040991
0.00337704
0.00282028
0.00245624
0.00227474
0.00221295
0.00221784
0.00225329
0.00230043
0.00235066
0.00240122
0.00245348
0.00251225
0.00258541
0.00268376
0.00282041
0.00300922
0.00326116
0.00357987
0.00395941
0.00438756
0.00485441
0.00536396
0.00591893
0.00652619
0.00721217
0.00799232
0.00890485
0.00997741
0.00942941
0.0108798
0.0117669
0.00444644
)
;
    }
    sWall
    {
        type            kqRWallFunction;
        value           nonuniform List<scalar> 9(0.0219177 0.0192303 0.0159447 0.0132629 0.0133563 0.0108798 0.0150819 0.0138092 0.0121317);
    }
    nWall
    {
        type            kqRWallFunction;
        value           nonuniform List<scalar> 
14
(
0.00188583
0.00269896
0.00374642
0.00860685
0.00842436
0.0084578
0.00961766
0.00993309
0.00910966
0.00833205
0.00828869
0.0103334
0.0113535
0.00942941
)
;
    }
    sideWalls
    {
        type            empty;
    }
    glass1
    {
        type            kqRWallFunction;
        value           nonuniform List<scalar> 9(0.00158603 0.0034072 0.00549121 0.00797429 0.0108775 0.0141764 0.0179942 0.0216434 0.0228344);
    }
    glass2
    {
        type            kqRWallFunction;
        value           nonuniform List<scalar> 2(0.00639249 0.00843785);
    }
    sun
    {
        type            kqRWallFunction;
        value           nonuniform List<scalar> 
14
(
0.00158603
0.00180131
0.00178818
0.00194672
0.0020979
0.00224007
0.00237658
0.00251199
0.0026521
0.00280516
0.00295513
0.0031012
0.00324858
0.00341094
)
;
    }
    Table_master
    {
        type            kqRWallFunction;
        value           nonuniform List<scalar> 9(0.00266682 0.00201631 0.00157632 0.00126974 0.00104948 0.00088704 0.000764707 0.00067192 0.000603745);
    }
    Table_slave
    {
        type            kqRWallFunction;
        value           nonuniform List<scalar> 9(0.00345642 0.00285983 0.00243673 0.0021104 0.00185078 0.00163219 0.00143873 0.00125873 0.00107786);
    }
    inlet
    {
        type            turbulentIntensityKineticEnergyInlet;
        intensity       0.05;
        value           uniform 0.0009375;
    }
    outlet
    {
        type            zeroGradient;
    }
}


// ************************************************************************* //
