/*--------------------------------*- C++ -*----------------------------------*\
  =========                 |
  \\      /  F ield         | OpenFOAM: The Open Source CFD Toolbox
   \\    /   O peration     | Website:  https://openfoam.org
    \\  /    A nd           | Version:  6
     \\/     M anipulation  |
\*---------------------------------------------------------------------------*/
FoamFile
{
    version     2.0;
    format      ascii;
    class       surfaceScalarField;
    location    "42999.9999997731284";
    object      phi;
}
// * * * * * * * * * * * * * * * * * * * * * * * * * * * * * * * * * * * * * //

dimensions      [1 0 -1 0 0 0 0];

internalField   nonuniform List<scalar> 
1482
(
-0.00279974
0.00286378
-0.00348388
0.00068414
-0.00414444
0.000660561
-0.00475835
0.000613907
-0.00527951
0.000521158
-0.00569119
0.000411679
-0.00598219
0.000290997
-0.00613947
0.000157285
-0.00614573
6.26373e-06
-0.00597501
-0.000170725
-0.00559734
-0.000377667
-0.00498166
-0.000615678
-0.00405774
-0.000923918
-0.00257935
-0.0014784
-0.00257642
-6.35831e-05
6.84381e-05
0.000781534
-0.000845117
0.00143528
-0.000653744
0.00183586
-0.000400578
0.00205844
-0.000222585
0.00216317
-0.000104731
0.00221049
-4.73173e-05
0.00223332
-2.28317e-05
0.00224317
-9.85087e-06
0.00224416
-9.92168e-07
0.00223714
7.02548e-06
0.00221809
1.90506e-05
0.00217369
4.43941e-05
0.00207071
0.000102982
0.00185362
0.000217089
0.00149533
0.00035829
0.00102256
0.000472776
0.00102899
-0.00204033
0.00507443
-0.00290837
0.00155218
-0.00369407
0.00144626
-0.00434492
0.00126475
-0.00488194
0.00105818
-0.00531043
0.000840172
-0.00562864
0.000609213
-0.00582982
0.000358459
-0.00590331
7.97538e-05
-0.00584129
-0.000232737
-0.00563795
-0.000581013
-0.00528191
-0.00097171
-0.00477198
-0.00143385
-0.00428615
-0.00196423
-0.004702
-0.00216058
-0.0031164
-0.00158016
-0.00163403
-0.00147669
-0.00161918
0.00131823
-0.00123958
0.00166329
-0.00119018
0.00191607
-0.000906528
0.00210843
-0.000592939
0.00221684
-0.000330993
0.00222598
-0.000113869
0.0022279
-4.92352e-05
0.00222945
-2.43815e-05
0.00223036
-1.07707e-05
0.00223037
-9.9384e-07
0.00222902
8.37446e-06
0.00222483
2.32426e-05
0.00221217
5.70476e-05
0.00215015
0.000165009
0.00190016
0.000467078
0.00146992
0.000788524
0.000904975
0.00103772
0.00195085
-0.0014882
0.00682055
-0.002359
0.00242298
-0.00312884
0.0022161
-0.00371287
0.00184879
-0.00418331
0.00152861
-0.00455449
0.00121135
-0.00482825
0.000882973
-0.00500138
0.000531596
-0.00506752
0.000145896
-0.00501761
-0.000282655
-0.00484086
-0.000757756
-0.00452981
-0.00128277
-0.00411518
-0.00184847
-0.00371762
-0.00236178
-0.00329714
-0.00258106
-0.00236593
-0.00251136
-0.00127249
-0.00257013
-0.00287883
0.00115133
-0.00237646
0.00165517
-0.00169401
0.00195405
-0.0012054
0.00214772
-0.000786612
0.00217964
-0.000362909
0.00206592
0.00201684
0.00199261
0.001982
0.00198116
0.00198968
0.00201308
0.00207028
0.00223545
0.001877
0.000825524
0.00142859
0.00123693
0.000807685
0.00165863
0.00278456
-0.00110601
0.00825776
-0.00192783
0.0032448
-0.00256971
0.00285798
-0.00302986
0.00230895
-0.00339718
0.00189593
-0.00368572
0.00149989
-0.00389849
0.00109575
-0.00403368
0.000666787
-0.0040838
0.000196016
-0.00403567
-0.000330781
-0.00387699
-0.000916437
-0.00360356
-0.0015562
-0.00323787
-0.00221416
-0.00281573
-0.00278393
-0.00227611
-0.00312068
-0.00155632
-0.00323115
-0.000868023
-0.00325843
-0.000687635
-0.00305922
0.00144873
-0.00212092
0.00137924
-0.00230696
0.00169419
-0.00200896
0.00200644
-0.00151765
0.00227246
-0.00105264
0.00254764
-0.000638088
0.00286359
-0.000316095
0.00303228
-0.000168848
0.00309846
-6.63331e-05
0.00308268
1.56253e-05
0.00299372
8.88068e-05
0.00283253
0.000161037
0.00259123
0.000241143
0.00224683
0.000344243
0.00174196
0.000504719
0.00160544
0.000962042
0.00127796
0.00156442
0.000750813
0.00218578
0.00356966
-0.000803721
0.00945467
-0.00157978
0.00402086
-0.00204825
0.00332644
-0.00236378
0.00262448
-0.00260795
0.00214009
-0.00279325
0.0016852
-0.00292472
0.00122722
-0.00300309
0.000745154
-0.00302182
0.000214744
-0.00296431
-0.000388286
-0.00281729
-0.00106346
-0.0025737
-0.00179979
-0.00224002
-0.00254785
-0.00182334
-0.00320061
-0.00131781
-0.00362621
-0.000741102
-0.00380787
-0.000209669
-0.00378987
0.00026755
-0.00353644
0.00112825
-0.00298162
0.00149346
-0.00267218
0.00175155
-0.00226705
0.00200345
-0.00176956
0.00223305
-0.00128224
0.00244742
-0.000852458
0.0026497
-0.000518376
0.00276143
-0.000280575
0.00279939
-0.000104301
0.00277521
3.98107e-05
0.00269515
0.000168869
0.00256161
0.000294576
0.00237338
0.000429368
0.0021282
0.000589428
0.00183441
0.000798512
0.00162962
0.00116683
0.00149041
0.00170363
0.00131558
0.0023606
0.00231178
0.00257347
0.00134568
0.00100099
0.0018914
-0.000517081
0.00200988
-0.000575825
0.0104769
-0.00132466
0.0047697
-0.00158406
0.00358584
-0.00174978
0.0027902
-0.00186357
0.00225388
-0.00193487
0.0017565
-0.00197015
0.0012625
-0.00197372
0.000748719
-0.00194235
0.000183374
-0.00185436
-0.000476272
-0.0016999
-0.00121792
-0.00146889
-0.00203081
-0.00116419
-0.00285255
-0.000791647
-0.00357316
-0.000371658
-0.0040462
6.88094e-05
-0.00424834
0.000474102
-0.00419516
0.000848427
-0.00391077
0.00129895
-0.00343214
0.00159707
-0.00297031
0.00179957
-0.00246955
0.0019705
-0.00194048
0.00212207
-0.00143381
0.00225703
-0.000987423
0.00236309
-0.000624428
0.002423
-0.00034049
0.00243606
-0.000117362
0.00240724
6.86363e-05
0.00234113
0.000234979
0.00224138
0.00039432
0.00211199
0.000558759
0.00196012
0.000741302
0.00180066
0.000957975
0.00171068
0.0012568
0.0017709
0.00164341
0.00198902
0.00214248
0.00224285
0.00231963
0.00176241
0.00148143
0.000834228
0.000411103
0.00294128
-0.00054353
0.0115126
-0.00124367
0.00546984
-0.00119171
0.00353388
-0.0011998
0.00279829
-0.00119193
0.00224601
-0.00115827
0.00172284
-0.00110099
0.00120522
-0.00102586
0.00067359
-0.000927251
8.4765e-05
-0.000778282
-0.000625241
-0.000588999
-0.0014072
-0.000348761
-0.00227104
-6.47057e-05
-0.0031366
0.000240325
-0.00387819
0.000550483
-0.00435636
0.000845775
-0.00454363
0.00110882
-0.00445821
0.00134202
-0.00414398
0.0015733
-0.00366342
0.00173224
-0.00312925
0.00183138
-0.00256869
0.00190092
-0.00201002
0.00195675
-0.00148964
0.00200415
-0.00103482
0.00203787
-0.000658152
0.00205202
-0.000354631
0.00204283
-0.000108177
0.00201074
0.000100729
0.00195849
0.000287225
0.00188958
0.000463237
0.00180897
0.000639368
0.00172515
0.000825115
0.00165355
0.00102958
0.00163858
0.00127177
0.00172765
0.00155434
0.00194645
0.00192368
0.00221752
0.00204855
0.00224534
0.00145362
0.00165081
0.00100563
0.00469459
-0.000483786
0.0125319
-0.00105162
0.00603767
-0.000697285
0.00317954
-0.000636131
0.00273714
-0.000567485
0.00217736
-0.000462536
0.00161789
-0.000333261
0.00107595
-0.00018179
0.000522119
7.63341e-06
-0.000104659
0.000225849
-0.000843457
0.000465725
-0.00164708
0.000723643
-0.00252896
0.000980802
-0.00339376
0.00120952
-0.00410691
0.00140909
-0.00455592
0.00157047
-0.00470501
0.00168834
-0.00457608
0.00176738
-0.00422302
0.00181998
-0.00371602
0.0018294
-0.00313867
0.00180403
-0.00254333
0.0017631
-0.00196909
0.00172173
-0.00144827
0.00168752
-0.00100062
0.00166051
-0.000631139
0.00163662
-0.000330737
0.00161071
-8.2266e-05
0.00158015
0.000131285
0.00154473
0.000322645
0.00150532
0.000502649
0.0014646
0.000680086
0.00142838
0.00086134
0.00140749
0.00105047
0.00142642
0.00125284
0.00151731
0.00146345
0.00173979
0.0017012
0.00206869
0.00171965
0.00223751
0.0012848
0.00174731
0.00149582
0.00680836
0.00297898
0.0101401
0.00202357
0.00699308
0.00087002
0.00433309
0.000371512
0.00323564
0.000214695
0.00233418
0.000271324
0.00156126
0.000425525
0.000921744
0.000639691
0.000307953
0.000899194
-0.000364162
0.00116439
-0.00110865
0.00144316
-0.00192585
0.0017104
-0.00279621
0.00193668
-0.00362003
0.00209767
-0.00426789
0.00218758
-0.00464582
0.00220904
-0.00472647
0.00217086
-0.0045379
0.00208665
-0.00413882
0.00197164
-0.00360101
0.0018315
-0.00299854
0.00167858
-0.0023904
0.00153
-0.00182051
0.00140065
-0.00131892
0.00129902
-0.000898987
0.00122644
-0.000558555
0.00117798
-0.000282274
0.00114606
-5.03514e-05
0.0011249
0.000152445
0.00111041
0.000337133
0.00109973
0.000513332
0.00109203
0.000687787
0.00108882
0.000864547
0.0010945
0.00104479
0.00112018
0.00122716
0.00118591
0.00139772
0.00135636
0.00153075
0.00169872
0.00137729
0.00182366
0.00115987
0.000498921
0.00282051
0.00769066
0.0040334
0.00624689
0.00367
0.00735648
0.00254416
0.00545893
0.00189055
0.00388925
0.00153392
0.00269082
0.00138915
0.00170602
0.00142317
0.000887732
0.00159791
0.000133213
0.00185032
-0.000616575
0.00212781
-0.00138614
0.00240781
-0.00220585
0.00265297
-0.00304137
0.00282158
-0.00378863
0.00288662
-0.00433293
0.00284493
-0.00460411
0.00271037
-0.0045919
0.00250526
-0.00433278
0.00225385
-0.00388742
0.00197891
-0.00332607
0.00169757
-0.0027172
0.00142724
-0.00212008
0.00118611
-0.00157938
0.000989288
-0.00112211
0.000843638
-0.000753337
0.000748245
-0.000463162
0.000694112
-0.00022814
0.000669883
-2.61228e-05
0.000666075
0.000156254
0.000675039
0.000328169
0.000691193
0.000497179
0.000710945
0.000668035
0.000731222
0.00084427
0.000747829
0.00102818
0.000752681
0.0012223
0.000723432
0.00142697
0.000592419
0.00166177
-3.79786e-05
0.00200773
-0.00186433
0.00298626
-0.00320513
0.00416123
0.00458928
0.00241066
0.00400076
0.00330627
0.00646086
0.00325007
0.00551514
0.00303908
0.00410024
0.00284811
0.00288179
0.00272506
0.00182907
0.00271149
0.000901307
0.00280091
4.37967e-05
0.00296334
-0.000779002
0.00317436
-0.00159716
0.00339213
-0.00242362
0.00355657
-0.0032058
0.00361285
-0.0038449
0.00353434
-0.00425441
0.00332657
-0.00439633
0.00301578
-0.0042811
0.00263633
-0.00395332
0.00222155
-0.00347264
0.00180099
-0.00290551
0.00139822
-0.00231442
0.00103504
-0.0017569
0.000731592
-0.00127593
0.00050243
-0.000892944
0.000347341
-0.000598248
0.000257821
-0.000373641
0.000217187
-0.000187506
0.000210581
-1.9517e-05
0.000226619
0.000140216
0.000256953
0.000297835
0.00029604
0.000458092
0.000339745
0.000624331
0.000382566
0.00080145
0.000415765
0.000994986
0.000420609
0.00121746
0.00035412
0.00149346
0.00012781
0.00188808
-0.000524334
0.00266013
-0.00176874
0.00423099
-0.00225661
0.00464921
0.00244866
0.00145687
0.00273817
0.00274817
0.00516956
0.00343217
0.00483115
0.00371842
0.00381399
0.00381728
0.00278293
0.00384598
0.00180038
0.00388293
0.000864355
0.00395291
-2.61761e-05
0.00406343
-0.000889518
0.00420383
-0.00173756
0.00432278
-0.00254257
0.00434958
-0.00323259
0.00423263
-0.00372794
0.0039598
-0.00398156
0.00355365
-0.00399017
0.00305402
-0.00378146
0.00250466
-0.00340396
0.00194412
-0.0029121
0.00140633
-0.00236772
0.000917803
-0.0018259
0.000505886
-0.00134498
0.000190222
-0.000960265
-2.18747e-05
-0.000680848
-0.000145599
-0.000474524
-0.000205628
-0.000313613
-0.000223755
-0.000169379
-0.000213219
-3.0052e-05
-0.000182623
0.000109621
-0.000137591
0.000252804
-8.16951e-05
0.000402196
-1.7655e-05
0.000560291
5.08144e-05
0.00073298
0.00011695
0.00092885
0.000166902
0.00116751
0.000168138
0.00149221
6.1758e-05
0.00199444
-0.000118249
0.0028403
-0.000292898
0.00440611
-0.000436535
0.00479324
0.00213959
0.00216949
0.00079466
0.0029397
0.00439935
0.0035909
0.00417995
0.00416206
0.00324284
0.00449067
0.00245432
0.00466599
0.00162506
0.0047839
0.000746451
0.0048896
-0.000131875
0.00499652
-0.00099645
0.00507478
-0.00181583
0.00505902
-0.00252682
0.00488921
-0.00306278
0.00454295
-0.00338167
0.00403927
-0.00347787
0.00342313
-0.00337402
0.00274525
-0.00310356
0.00205377
-0.00271248
0.00138628
-0.0022446
0.000781198
-0.00176263
0.000264374
-0.00130908
-0.000125106
-0.000955503
-0.000380605
-0.000704767
-0.000527859
-0.000533596
-0.000603056
-0.000399329
-0.000634224
-0.000282445
-0.000634648
-0.000168954
-0.000612227
-5.24721e-05
-0.000572365
6.97592e-05
-0.000518294
0.000198734
-0.000451933
0.000335836
-0.000374634
0.000482993
-0.000286375
0.000644722
-0.000187432
0.000829908
-8.07292e-05
0.0010608
1.45096e-05
0.00139695
7.32332e-05
0.00193562
0.000226071
0.00268734
0.000751451
0.00388094
0.00109083
0.00445409
0.00336322
-0.00158156
0.00262131
0.00111478
0.00170301
0.00334746
0.00194726
0.00435065
0.00223965
0.00485546
0.00194951
0.00517132
0.00130921
0.00540067
0.000517097
0.00557922
-0.000310438
0.00567845
-0.0010957
0.00563673
-0.00177414
0.00540353
-0.00229364
0.00496732
-0.00262658
0.00435621
-0.00277056
0.00362324
-0.00274489
0.0028284
-0.00257917
0.00202135
-0.0022965
0.00124941
-0.00194054
0.000542565
-0.00153775
-5.22643e-05
-0.0011678
-0.000491001
-0.000870341
-0.000768267
-0.000678242
-0.000929013
-0.000544028
-0.0010187
-0.000443917
-0.00106138
-0.00035665
-0.00107203
-0.000271796
-0.00105809
-0.000182887
-0.00102459
-8.59719e-05
-0.000976366
2.15381e-05
-0.000916358
0.000138727
-0.000845619
0.000265098
-0.00076543
0.000402805
-0.000675518
0.000554811
-0.000575114
0.000729507
-0.000468141
0.000953816
-0.0003696
0.00129833
-0.000256619
0.00182238
4.89992e-05
0.00238128
0.000928336
0.00300136
0.00153322
0.00384902
0.00503752
0.00288301
0.00457084
0.00487029
0.00164781
0.00535664
0.00175331
0.00559355
0.0017126
0.00582569
0.00107707
0.00601321
0.000329569
0.00607865
-0.000375916
0.00595139
-0.000968506
0.00559873
-0.00142152
0.00503372
-0.00172866
0.00430366
-0.00189654
0.00346723
-0.00193412
0.00258315
-0.00186081
0.00170578
-0.0017018
0.000867453
-0.00145818
0.000108237
-0.00118132
-0.000514129
-0.000915385
-0.000957558
-0.000724376
-0.00123655
-0.000591359
-0.00140856
-0.000506251
-0.00150975
-0.000442849
-0.00156602
-0.000387665
-0.00158959
-0.000333082
-0.00158657
-0.00027481
-0.00156043
-0.000209013
-0.00151488
-0.000131509
-0.0014553
-3.80333e-05
-0.00138794
7.13716e-05
-0.00131713
0.00019429
-0.00124672
0.000332394
-0.00118252
0.000490614
-0.00113294
0.000679952
-0.00110683
0.000927759
-0.00109637
0.00128786
-0.00104786
0.00177364
-0.000836651
0.00216949
-0.000123924
0.00228782
0.000311583
0.00341276
0.00550414
0.00793486
0.00536157
0.00581572
0.00387248
0.0055672
0.00196115
0.00563815
0.00100615
0.00560099
0.000366707
0.00535509
-0.00013007
0.00488993
-0.000503392
0.00424677
-0.000778394
0.00347999
-0.000961893
0.00264291
-0.00105946
0.00177739
-0.0010686
0.000920541
-0.00100395
0.000106102
-0.000887353
-0.000610045
-0.000742025
-0.00117246
-0.000618901
-0.00156914
-0.000518713
-0.00183704
-0.000456499
-0.00201006
-0.000418366
-0.00212464
-0.000391716
-0.00220032
-0.000367199
-0.0022465
-0.00034151
-0.00226668
-0.000312896
-0.00226202
-0.00027945
-0.00223281
-0.000238179
-0.00217977
-0.000184499
-0.00210588
-0.000111895
-0.00202167
-1.28201e-05
-0.00193918
0.000111788
-0.00186533
0.000258526
-0.00181004
0.000435312
-0.00178665
0.000656617
-0.00180792
0.000949186
-0.00187166
0.00135186
-0.0019896
0.00189179
-0.00235189
0.00253178
-0.00315865
0.00309433
-0.00313252
0.00338614
0.00254151
0.00411704
0.00149108
0.00451771
0.00347182
0.0037435
0.00273539
0.00323662
0.001513
0.00288744
0.000715832
0.00251812
0.0002392
0.00206913
-5.44265e-05
0.00152939
-0.000238651
0.000918644
-0.000351134
0.000254837
-0.000395639
-0.000423942
-0.000389808
-0.00106085
-0.000367022
-0.00160789
-0.000340302
-0.00203594
-0.000313964
-0.00235315
-0.000301703
-0.00257512
-0.000296773
-0.00273507
-0.000296598
-0.002857
-0.000296513
-0.00295379
-0.000294989
-0.00302938
-0.000291666
-0.00308409
-0.000286812
-0.00311666
-0.000280295
-0.0031248
-0.000271242
-0.00310546
-0.000257423
-0.00305556
-0.000234294
-0.00297332
-0.00019405
-0.00286063
-0.000125478
-0.00273292
-1.59633e-05
-0.00261107
0.000136588
-0.00250363
0.000327779
-0.00240982
0.000562768
-0.00232174
0.000861195
-0.00222065
0.00125107
-0.00208209
0.00175368
-0.00198488
0.00243503
-0.00228774
0.00339759
-0.00234369
0.00344247
0.000380315
-0.00259099
-0.0067508
-0.00740856
-0.00745675
-0.00374793
-0.00216962
-0.00166827
0.00139213
-0.000755374
0.00182246
-0.000558884
0.00131648
-0.000640967
0.000797886
-0.000827826
0.000426047
-0.0010672
0.000184941
-0.0013522
4.63702e-05
-0.00168559
-1.77099e-05
-0.00204398
-3.72078e-05
-0.00239715
-3.66013e-05
-0.00272261
-4.15318e-05
-0.00299374
-6.91503e-05
-0.00319796
-0.000109766
-0.00335198
-0.000147728
-0.00347799
-0.000170843
-0.00359299
-0.000181702
-0.00370241
-0.000187198
-0.00380501
-0.000192474
-0.00389693
-0.000199785
-0.00397386
-0.000209867
-0.00403107
-0.000223008
-0.00406296
-0.000239209
-0.00406321
-0.000257001
-0.00402599
-0.000271325
-0.0039479
-0.000271981
-0.0038289
-0.000244388
-0.00367206
-0.000172845
-0.00349311
-4.25354e-05
-0.00330904
0.000143471
-0.00310833
0.000361828
-0.00285501
0.000607733
-0.00250272
0.000898801
-0.00197188
0.00122308
-0.00112024
0.00158376
0.000166861
0.00211084
0.00109439
0.00251536
0.00165491
-0.00733946
0.00104213
-0.00811379
-0.00668249
-0.00716966
-0.00311381
-0.00565055
-0.000127045
-0.00455798
0.000729848
-0.00396669
0.00072517
-0.00370807
0.000539264
-0.0036418
0.000359796
-0.00368356
0.000226736
-0.00377654
0.000139402
-0.00387856
8.43753e-05
-0.00396396
4.82526e-05
-0.00402369
2.31751e-05
-0.00406593
7.38174e-07
-0.00410701
-2.80805e-05
-0.00415831
-5.85186e-05
-0.00422371
-8.24253e-05
-0.00429898
-9.56966e-05
-0.00437888
-0.000101934
-0.00445914
-0.000107049
-0.00453656
-0.000115128
-0.00460857
-0.000127776
-0.004673
-0.000145369
-0.00472774
-0.000168124
-0.00477054
-0.000196193
-0.00479895
-0.00022833
-0.00481026
-0.000259732
-0.00480115
-0.000280853
-0.00476639
-0.000278992
-0.00469709
-0.00024215
-0.00457813
-0.000161681
-0.00439806
-3.69788e-05
-0.00415074
0.000114071
-0.0038066
0.000263195
-0.00331044
0.000402344
-0.00258645
0.000498956
-0.00142647
0.000423809
0.00050338
0.000181112
0.00175172
0.00126723
0.00358986
0.00158383
-0.00503399
-0.00808455
-0.00815203
-0.00736761
-0.00659559
-0.00601609
-0.00562079
-0.00536161
-0.0051915
-0.00507715
-0.00499886
-0.00494508
-0.00491306
-0.00490939
-0.00493594
-0.0049863
-0.00504986
-0.00511961
-0.00519444
-0.00527741
-0.00537319
-0.00548693
-0.00562398
-0.00578994
-0.00598911
-0.00622097
-0.00647537
-0.00672931
-0.00694763
-0.00708648
-0.00710135
-0.00696569
-0.0066813
-0.00625821
-0.00573914
-0.00529606
-0.00509668
-0.00381223
)
;

boundaryField
{
    floor
    {
        type            calculated;
        value           nonuniform List<scalar> 
36
(
0
0
0
0
0
0
0
0
0
0
0
0
0
0
0
0
0
0
0
-6.43894e-06
-1.68821e-05
-2.60245e-05
-3.42888e-05
-3.48971e-05
-2.86419e-05
-2.85379e-05
-2.92048e-06
-5.44193e-06
-5.68827e-06
-5.90825e-06
-4.85475e-06
-8.93916e-06
-1.02087e-05
-1.28317e-05
-1.44561e-05
-1.54456e-05
)
;
    }
    ceiling
    {
        type            calculated;
        value           nonuniform List<scalar> 
43
(
-5.7823e-05
-6.47236e-05
-6.33276e-05
-5.96322e-05
-5.46059e-05
-4.68692e-05
-4.0222e-05
-3.54536e-05
-3.23657e-05
-3.06065e-05
-2.98793e-05
-2.99549e-05
-3.05514e-05
-3.12758e-05
-3.17823e-05
-3.20463e-05
-3.21716e-05
-3.22463e-05
-3.22916e-05
-3.22861e-05
-3.21892e-05
-3.19541e-05
-3.15345e-05
-3.08928e-05
-3.00095e-05
-2.88964e-05
-2.76108e-05
-2.62596e-05
-2.49782e-05
-2.38853e-05
-2.30406e-05
-2.24324e-05
-2.19862e-05
-2.15717e-05
-2.10453e-05
-2.03105e-05
-1.93501e-05
-1.8242e-05
-1.71245e-05
-1.65225e-05
1.93318e-05
1.51841e-05
-0.000246543
)
;
    }
    sWall
    {
        type            calculated;
        value           nonuniform List<scalar> 9(-0.000140237 -0.000164532 -0.000194273 -0.000225983 -0.000245097 -0.000281035 -0.000423444 -0.000453537 -0.000483895);
    }
    nWall
    {
        type            calculated;
        value           nonuniform List<scalar> 
14
(
-8.99317e-05
-9.71803e-05
-0.000102515
-0.000103779
-0.000116017
-0.0001273
-0.000132736
-0.000141392
-0.000155568
-0.000170353
-0.000182175
-0.000179896
-0.000183095
-0.000205723
)
;
    }
    sideWalls
    {
        type            empty;
        value           nonuniform 0();
    }
    glass1
    {
        type            calculated;
        value           nonuniform List<scalar> 9(-6.40339e-05 -0.00017032 -0.00025792 -0.000331202 -0.000393184 -0.000446387 -0.000492196 -0.000535476 -0.000587162);
    }
    glass2
    {
        type            calculated;
        value           nonuniform List<scalar> 2(-0.000366453 -0.000383413);
    }
    sun
    {
        type            calculated;
        value           uniform 0;
    }
    Table_master
    {
        type            calculated;
        value           nonuniform List<scalar> 9(-1.53991e-07 -1.54108e-07 -1.5414e-07 -1.5416e-07 -1.54173e-07 -1.54178e-07 -1.54176e-07 -1.54162e-07 -1.54109e-07);
    }
    Table_slave
    {
        type            calculated;
        value           nonuniform List<scalar> 9(1.53661e-07 1.53717e-07 1.53716e-07 1.53732e-07 1.53753e-07 1.53797e-07 1.53863e-07 1.53957e-07 1.54084e-07);
    }
    inlet
    {
        type            calculated;
        value           uniform -0.0116486;
    }
    outlet
    {
        type            calculated;
        value           nonuniform List<scalar> 2(0.00976518 0.0122743);
    }
}


// ************************************************************************* //
