/*--------------------------------*- C++ -*----------------------------------*\
  =========                 |
  \\      /  F ield         | OpenFOAM: The Open Source CFD Toolbox
   \\    /   O peration     | Website:  https://openfoam.org
    \\  /    A nd           | Version:  6
     \\/     M anipulation  |
\*---------------------------------------------------------------------------*/
FoamFile
{
    version     2.0;
    format      ascii;
    class       surfaceScalarField;
    location    "43299.9999998342464";
    object      phi;
}
// * * * * * * * * * * * * * * * * * * * * * * * * * * * * * * * * * * * * * //

dimensions      [1 0 -1 0 0 0 0];

internalField   nonuniform List<scalar> 
1482
(
-0.00279973
0.00286376
-0.00348393
0.000684202
-0.00414468
0.000660748
-0.00475882
0.000614147
-0.00528022
0.0005214
-0.0056921
0.000411873
-0.00598319
0.000291096
-0.00614045
0.000157256
-0.00614655
6.09888e-06
-0.00597554
-0.000171009
-0.00559753
-0.000378011
-0.00498156
-0.000615973
-0.0040575
-0.000924053
-0.00257916
-0.00147834
-0.00257624
-6.36832e-05
6.85375e-05
0.000779957
-0.00084364
0.00143225
-0.000652295
0.0018313
-0.000399046
0.00205257
-0.00022127
0.00215683
-0.000104266
0.00220432
-4.74865e-05
0.00222731
-2.29936e-05
0.00223715
-9.8364e-06
0.00223803
-8.83697e-07
0.00223091
7.12283e-06
0.00221184
1.90677e-05
0.00216756
4.42872e-05
0.00206486
0.000102697
0.00184836
0.000216499
0.00149132
0.000357041
0.00102071
0.000470609
0.00102715
-0.00204033
0.00507442
-0.00290842
0.00155229
-0.00369431
0.00144663
-0.00434541
0.00126525
-0.00488272
0.00105871
-0.00531148
0.000840629
-0.00562987
0.000609491
-0.00583109
0.000358475
-0.00590447
7.94735e-05
-0.0058422
-0.000233273
-0.00563853
-0.000581683
-0.00528217
-0.000972333
-0.00477196
-0.00143426
-0.00428591
-0.0019644
-0.00470139
-0.00216076
-0.00311543
-0.00158051
-0.00163273
-0.00147702
-0.00161788
0.00131832
-0.00123957
0.00166253
-0.00118785
0.00191364
-0.000903406
0.00210406
-0.000589468
0.0022107
-0.000327904
0.00221936
-0.000112931
0.00222135
-4.94718e-05
0.00222302
-2.46662e-05
0.00222405
-1.08647e-05
0.0022241
-9.34997e-07
0.00222274
8.47916e-06
0.00221853
2.32833e-05
0.00220587
5.69429e-05
0.00214392
0.000164648
0.00189418
0.000466236
0.0014649
0.000786324
0.000902269
0.00103324
0.0019463
-0.00148819
0.00682054
-0.00235902
0.00242312
-0.00312902
0.00221663
-0.00371328
0.00184952
-0.00418398
0.0015294
-0.00455541
0.00121206
-0.00482936
0.000883443
-0.00500258
0.000531695
-0.00506867
0.000145563
-0.00501858
-0.000283364
-0.00484161
-0.000758654
-0.00453037
-0.00128357
-0.00411572
-0.00184891
-0.00371831
-0.0023618
-0.00329809
-0.00258098
-0.00236715
-0.00251145
-0.00127376
-0.0025704
-0.0028788
0.00115009
-0.0023752
0.00165354
-0.0016913
0.00195161
-0.00120148
0.00214381
-0.000781667
0.00217272
-0.000356815
0.00205994
0.00201063
0.00198611
0.0019754
0.00197462
0.00198326
0.00200669
0.00206379
0.00222859
0.00186948
0.000825347
0.0014212
0.00123461
0.00080265
0.00165179
0.00277499
-0.00110598
0.00825773
-0.0019278
0.00324494
-0.00256981
0.00285863
-0.00303014
0.00230985
-0.00339768
0.00189694
-0.00368646
0.00150084
-0.00389945
0.00109643
-0.00403478
0.000667028
-0.00408493
0.00019571
-0.00403671
-0.000331582
-0.00387788
-0.000917484
-0.00360437
-0.00155708
-0.00323882
-0.00221446
-0.00281708
-0.00278354
-0.00227794
-0.00312012
-0.00155859
-0.00323079
-0.000870545
-0.00325845
-0.000690355
-0.00305899
0.00144563
-0.00212053
0.00137653
-0.00230611
0.00169166
-0.00200643
0.00200399
-0.0015138
0.00227018
-0.00104786
0.00254663
-0.000633265
0.00285956
-0.000313084
0.00302633
-0.000166924
0.00309111
-6.4928e-05
0.00307433
1.66269e-05
0.00298467
8.95002e-05
0.00282299
0.000161529
0.00258129
0.000241552
0.00223648
0.000344647
0.00173126
0.000505069
0.00159429
0.000962314
0.00126599
0.00156291
0.000739322
0.00217846
0.00354862
-0.000803678
0.00945461
-0.00157971
0.00402097
-0.00204828
0.00332719
-0.00236394
0.00262551
-0.0026083
0.0021413
-0.00279384
0.00168639
-0.00292556
0.00122815
-0.00300414
0.000745607
-0.003023
0.000214572
-0.0029655
-0.000389077
-0.00281841
-0.00106457
-0.00257481
-0.00180068
-0.00224132
-0.00254795
-0.00182511
-0.00319976
-0.00132001
-0.00362521
-0.000743721
-0.00380709
-0.000212613
-0.00378956
0.000264729
-0.00353633
0.00112541
-0.00298121
0.0014905
-0.0026712
0.00174877
-0.0022647
0.00200083
-0.00176586
0.0022305
-0.00127753
0.00244463
-0.0008474
0.00264547
-0.000513925
0.00275554
-0.000276991
0.00279208
-0.000101466
0.00276674
4.19634e-05
0.00268585
0.00017039
0.00255178
0.000295601
0.00236317
0.000430157
0.00211747
0.000590347
0.00182261
0.000799932
0.0016158
0.00116912
0.0014729
0.00170582
0.00129154
0.00235981
0.00227722
0.00256294
0.00132624
0.000985902
0.00191411
-0.000559377
0.00203266
-0.000575743
0.0104768
-0.00132452
0.00476975
-0.00158398
0.00358665
-0.00174982
0.00279135
-0.00186382
0.0022553
-0.00193538
0.00175795
-0.00197096
0.00126372
-0.00197481
0.000749459
-0.00194374
0.000183503
-0.00185592
-0.000476898
-0.00170151
-0.00121898
-0.00147056
-0.00203162
-0.001166
-0.00285251
-0.000793745
-0.00357202
-0.000373959
-0.004045
6.63302e-05
-0.00424738
0.000471477
-0.0041947
0.0008457
-0.00391055
0.00129622
-0.00343173
0.0015943
-0.00296928
0.00179691
-0.0024673
0.00196784
-0.00193679
0.00211917
-0.00142886
0.00225349
-0.000981722
0.0023583
-0.000618731
0.00241665
-0.000335345
0.00242826
-0.000113068
0.00239829
7.19293e-05
0.00233146
0.000237219
0.00223142
0.00039564
0.00210199
0.000559582
0.00194992
0.000742419
0.00178931
0.000960546
0.00169616
0.00126227
0.00174953
0.00165244
0.00195597
0.00215338
0.00219534
0.00232357
0.00171408
0.00146716
0.00079151
0.000363199
0.00292156
-0.000543311
0.0115123
-0.00124336
0.0054698
-0.00119144
0.00353474
-0.00119972
0.00279963
-0.00119212
0.0022477
-0.0011588
0.00172464
-0.00110191
0.00120683
-0.00102714
0.000674685
-0.000929132
8.5495e-05
-0.000780511
-0.000625518
-0.000591464
-0.00140803
-0.000351358
-0.00227173
-6.73064e-05
-0.00313657
0.00023796
-0.00387729
0.000548358
-0.0043554
0.000843788
-0.00454281
0.0011068
-0.00445772
0.00133995
-0.00414371
0.00157122
-0.00366299
0.00173014
-0.0031282
0.00182925
-0.00256641
0.00189858
-0.00200612
0.00195386
-0.00148414
0.00200026
-0.00102812
0.00203251
-0.000650984
0.00204494
-0.000347772
0.00203416
-0.000102286
0.00200088
0.00010521
0.00194807
0.000290027
0.00187931
0.000464395
0.00179949
0.000639407
0.00171664
0.000825272
0.0016451
0.00103208
0.00162733
0.00128004
0.00170749
0.00157227
0.00190776
0.00195311
0.00215308
0.00207825
0.00217602
0.00144422
0.00162691
0.000912309
0.00465096
-0.000483488
0.0125313
-0.00105125
0.00603756
-0.000696881
0.00318037
-0.000635968
0.00273872
-0.000567651
0.00217938
-0.000463182
0.00162017
-0.000334526
0.00107818
-0.000183842
0.000524001
4.89298e-06
-0.00010324
0.000222619
-0.000843244
0.000462105
-0.00164751
0.00071995
-0.00252958
0.000977429
-0.00339405
0.00120688
-0.00410675
0.00140707
-0.0045556
0.00156896
-0.00470471
0.00168715
-0.00457591
0.00176635
-0.00422291
0.00181903
-0.00371568
0.00182845
-0.00313762
0.00180296
-0.00254091
0.0017616
-0.00196477
0.00171935
-0.00144188
0.0016837
-0.000992477
0.00165475
-0.000622028
0.00162868
-0.000321705
0.00160076
-7.43635e-05
0.00156876
0.000137208
0.00153285
0.000325937
0.00149419
0.00050305
0.00145562
0.000677982
0.00142273
0.000858162
0.00140534
0.00104947
0.00142511
0.00126028
0.00150749
0.0014899
0.00169957
0.00176103
0.00196377
0.00181405
0.00210916
0.00129883
0.00172088
0.0013006
0.00673617
0.00297792
0.0101405
0.00202239
0.0069931
0.000869123
0.00433363
0.000370875
0.00323697
0.000214099
0.00233616
0.000270383
0.00156389
0.000423911
0.000924649
0.00063725
0.000310662
0.000895978
-0.000361967
0.00116023
-0.00110749
0.00143847
-0.00192575
0.00170572
-0.00279683
0.00193257
-0.00362091
0.00209457
-0.00426874
0.00218555
-0.00464659
0.00220797
-0.00472713
0.00217051
-0.00453846
0.00208681
-0.00413922
0.00197214
-0.00360101
0.00183218
-0.00299766
0.00167918
-0.00238792
0.00153006
-0.00181564
0.00139951
-0.00131134
0.00129584
-0.00088881
0.00122052
-0.000546703
0.001169
-0.000270188
0.00113422
-3.95822e-05
0.00111097
0.000160461
0.00109576
0.000341141
0.00108632
0.000512495
0.00108244
0.000681859
0.0010863
0.000854306
0.00110237
0.00103339
0.00113978
0.00122287
0.00120884
0.00142085
0.00133881
0.00163105
0.00151082
0.00164205
0.00156399
0.00124568
0.00023154
0.00263308
0.00735102
0.00403151
0.00624925
0.00366755
0.00735706
0.00254193
0.00545926
0.00188868
0.00389023
0.00153217
0.00269266
0.00138732
0.00170874
0.00142091
0.000891062
0.00159482
0.000136745
0.00184623
-0.000613379
0.00212276
-0.00138402
0.00240222
-0.00220522
0.00264747
-0.00304208
0.00281681
-0.00379025
0.00288307
-0.00433501
0.00284276
-0.0046063
0.00270953
-0.0045939
0.00250555
-0.00433449
0.00225511
-0.00388878
0.00198099
-0.00332689
0.00170031
-0.00271699
0.0014303
-0.00211791
0.00118875
-0.0015741
0.000990485
-0.00111307
0.000841926
-0.000740251
0.000742454
-0.00044723
0.000683727
-0.000211462
0.000655144
-1.09993e-05
0.000648016
0.000167589
0.000655441
0.000333715
0.00067264
0.000495295
0.000697293
0.000657206
0.000728648
0.000822951
0.000765956
0.000996084
0.00080674
0.00118208
0.00083586
0.00139172
0.000795338
0.00167157
0.000352588
0.0020848
-0.00145645
0.00305503
-0.00294947
0.00412636
0.00450464
0.00240913
0.00400464
0.00330402
0.00646218
0.00324805
0.00551523
0.00303738
0.00410089
0.00284643
0.00288361
0.00272309
0.00183208
0.00270893
0.000905213
0.0027974
4.82764e-05
0.00295865
-0.000774626
0.00316868
-0.00159405
0.00338592
-0.00242246
0.00355047
-0.00320663
0.00360752
-0.00384729
0.00353025
-0.00425775
0.00332394
-0.00439999
0.00301464
-0.0042846
0.00263669
-0.00395656
0.0022235
-0.0034756
0.00180463
-0.00290802
0.00140358
-0.00231594
0.0010418
-0.00175613
0.000738435
-0.00127073
0.00050759
-0.000882223
0.000348122
-0.000580782
0.000252281
-0.000351389
0.00020441
-0.000163591
0.000191212
2.19783e-06
0.000202249
0.000156552
0.000229432
0.000306532
0.00026794
0.000456787
0.00031493
0.000610217
0.000368348
0.000769533
0.000425161
0.000939271
0.000480608
0.00112664
0.000517115
0.00135522
0.000477864
0.00171081
0.000220503
0.00234207
-0.00016637
0.00344195
-0.000413543
0.00437373
0.00420445
0.00145601
0.00274288
0.00274721
0.00517098
0.00343172
0.00483073
0.00371831
0.0038143
0.00381715
0.00278478
0.00384527
0.00180396
0.00388099
0.000869494
0.00394945
-2.01774e-05
0.00405864
-0.000883822
0.00419799
-0.0017334
0.00431635
-0.00254082
0.00434314
-0.00323341
0.00422672
-0.00373087
0.00395478
-0.0039858
0.00354975
-0.00399497
0.00305149
-0.00378635
0.00250398
-0.00340905
0.00194596
-0.00291758
0.00141148
-0.00237355
0.0009268
-0.00183126
0.000518472
-0.0013478
0.000203846
-0.000956109
-1.10765e-05
-0.000667301
-0.000141512
-0.000450347
-0.000210795
-0.000282107
-0.000239081
-0.000135306
-0.000237999
1.11451e-06
-0.000215073
0.000133626
-0.000175569
0.000267027
-0.000123179
0.000404397
-6.08885e-05
0.000547927
8.55755e-06
0.000700087
8.21191e-05
0.00086571
0.000157736
0.00105102
0.000225109
0.00128784
0.000214377
0.00172148
0.000134469
0.00242168
0.000459733
0.00311633
0.000683751
0.00414954
0.00500846
0.00216732
0.000801523
0.00294021
0.00439809
0.0035927
0.00417824
0.0041644
0.00324259
0.0044931
0.00245608
0.00466775
0.0016293
0.00478428
0.000752963
0.004888
-0.000123892
0.00499294
-0.000988761
0.00506971
-0.00181016
0.00505303
-0.00252412
0.00488273
-0.0030631
0.00453619
-0.00338432
0.00403234
-0.00348194
0.00341635
-0.00337898
0.00273936
-0.00310935
0.00205022
-0.00271992
0.00138702
-0.00225438
0.000788503
-0.00177504
0.000279713
-0.00132247
-0.000103705
-0.000964383
-0.000358021
-0.000701791
-0.000509991
-0.000515331
-0.000594638
-0.000365701
-0.000638798
-0.000237949
-0.000653471
-0.000120634
-0.000644416
-7.94165e-06
-0.000615246
0.000104455
-0.000568731
0.000220512
-0.000508152
0.000343817
-0.000437646
0.000477421
-0.000362644
0.000625084
-0.00028991
0.000792978
-0.000231804
0.000992921
-0.000221996
0.00127803
-0.00032039
0.00181976
-0.000432267
0.00253313
-0.000188283
0.00287164
7.1619e-06
0.00395341
0.00515059
-0.00157505
0.0026217
0.00111878
0.00170426
0.00335091
0.00194611
0.00435505
0.00223845
0.00486042
0.00195071
0.00517553
0.00131419
0.00540291
0.000525576
0.00557905
-0.000300028
0.00567635
-0.00108605
0.00563319
-0.00176698
0.00539867
-0.00228958
0.0049609
-0.00262532
0.00434771
-0.00277112
0.00361243
-0.00274665
0.00281592
-0.00258246
0.00200906
-0.00230249
0.00124084
-0.00195169
0.000542303
-0.00155585
-3.98865e-05
-0.00119285
-0.000466072
-0.00089628
-0.000735706
-0.000694744
-0.000895303
-0.000542193
-0.000991324
-0.000419311
-0.00104679
-0.000310239
-0.00107494
-0.000209808
-0.00108064
-0.000114939
-0.00106581
-2.2776e-05
-0.00103153
7.01772e-05
-0.000979333
0.000168315
-0.000912547
0.000277031
-0.000837016
0.000401891
-0.000762281
0.00055035
-0.000704796
0.000735498
-0.000696979
0.000985133
-0.000791822
0.00137297
-0.00102507
0.00205315
-0.00149747
0.00300551
-0.00236329
0.0037372
-0.00244779
0.00403752
0.00285347
0.00288343
0.0045725
0.00487298
0.00164563
0.00536141
0.00175001
0.00559949
0.00171262
0.00583079
0.00108289
0.00601632
0.00034004
0.00608039
-0.000364093
0.00595222
-0.00095786
0.00559827
-0.00141301
0.00503083
-0.00172211
0.0042968
-0.00189126
0.00345481
-0.00192911
0.00256485
-0.00185667
0.00168347
-0.00170107
0.000845498
-0.00146452
9.45281e-05
-0.00120071
-0.000511818
-0.000949496
-0.000936335
-0.000768319
-0.00119983
-0.000632771
-0.00136279
-0.000531775
-0.00146294
-0.000442041
-0.00152661
-0.000355651
-0.00156533
-0.000271542
-0.00158369
-0.000191456
-0.00158281
-0.000115841
-0.00156261
-4.2978e-05
-0.00152317
3.0736e-05
-0.0014652
0.000110346
-0.00139089
0.000202721
-0.00130543
0.000316437
-0.00121789
0.000462796
-0.00114272
0.000660328
-0.00110312
0.000945569
-0.0011247
0.00139471
-0.00119608
0.0021249
-0.00139234
0.00320224
-0.00212944
0.00447471
-0.0023961
0.00430457
0.000623252
0.0079365
0.00535802
0.00581855
0.00386791
0.00557036
0.00196072
0.00564044
0.00101273
0.00560356
0.000376864
0.00535938
-0.000119922
0.00489503
-0.000493505
0.00425006
-0.000768013
0.00347793
-0.000949961
0.00263244
-0.00104574
0.00175615
-0.0010528
0.00088922
-0.000989717
6.96916e-05
-0.000881522
-0.000640613
-0.000754203
-0.00118547
-0.000655836
-0.00155883
-0.0005761
-0.00180398
-0.000523145
-0.00195916
-0.000477563
-0.00206347
-0.000427462
-0.00213744
-0.000368089
-0.00219044
-0.000302685
-0.00222564
-0.000236385
-0.00224384
-0.000173305
-0.00224463
-0.000115077
-0.00222696
-6.06613e-05
-0.00219011
-6.10934e-06
-0.00213258
5.28363e-05
-0.00205224
0.000122393
-0.00194788
0.000212081
-0.00181969
0.000334566
-0.00166995
0.000510528
-0.00149992
0.000775485
-0.0012953
0.00119013
-0.00100761
0.00183747
-0.000563357
0.00275848
2.02524e-05
0.00389153
0.000594944
0.0037304
0.0013888
0.0041077
0.00149689
0.00450764
0.00346792
0.00373531
0.00273297
0.00323322
0.00151477
0.00288958
0.000720471
0.00252443
0.00024523
0.00207652
-4.55916e-05
0.0015322
-0.000223686
0.000910996
-0.000328748
0.000232243
-0.000366981
-0.000461888
-0.000358658
-0.0011081
-0.00034349
-0.0016537
-0.000335901
-0.00206626
-0.000341605
-0.00235776
-0.000364286
-0.00254982
-0.000383992
-0.00268319
-0.000389734
-0.00278624
-0.000374492
-0.00287336
-0.000340366
-0.00294794
-0.000293566
-0.00300928
-0.000241427
-0.00305591
-0.000189851
-0.0030869
-0.000142394
-0.00310168
-0.00010034
-0.0030992
-6.31495e-05
-0.00307589
-2.93749e-05
-0.00302653
3.54044e-06
-0.00294401
3.99398e-05
-0.00281809
8.61749e-05
-0.00263796
0.000154402
-0.00239343
0.000265876
-0.00207092
0.000452799
-0.00163478
0.000753795
-0.00101081
0.00121341
-0.000139022
0.00188681
0.000882622
0.00287015
0.00142885
0.00318453
0.00299498
-0.00260908
-0.00677088
-0.00740667
-0.00746117
-0.00374821
-0.00216149
-0.0016727
0.00139239
-0.00075904
0.00181926
-0.000558508
0.0013142
-0.000636584
0.000798521
-0.00082297
0.000431594
-0.00106657
0.000197986
-0.0013596
6.93277e-05
-0.00170497
1.66041e-05
-0.00207864
6.67437e-06
-0.00244629
8.99235e-06
-0.0027824
-7.36353e-06
-0.00305408
-6.41636e-05
-0.00323724
-0.000158368
-0.00335459
-0.00024686
-0.00344066
-0.000297857
-0.00352249
-0.000307876
-0.00360971
-0.000287287
-0.00370167
-0.000248491
-0.00379356
-0.0002018
-0.00387974
-0.000155388
-0.00395466
-0.000115086
-0.00401334
-8.38227e-05
-0.0040522
-6.15272e-05
-0.00406908
-4.62454e-05
-0.00406263
-3.5728e-05
-0.00402943
-2.95107e-05
-0.00396002
-2.93192e-05
-0.00383805
-3.56563e-05
-0.00364082
-4.27603e-05
-0.00334277
-3.22133e-05
-0.00291892
2.87865e-05
-0.00233453
0.000169129
-0.0015147
0.000393225
-0.000396526
0.000768323
0.000898214
0.00157531
0.00133806
0.00274469
0.00451598
-0.00735551
0.00103812
-0.00812191
-0.00669475
-0.00717414
-0.00310924
-0.00565407
-0.000127672
-0.00456133
0.000726485
-0.00396892
0.000721731
-0.00370834
0.000537885
-0.00364011
0.000363292
-0.00368095
0.000238772
-0.00377517
0.0001635
-0.00388079
0.000122198
-0.00396916
9.50555e-05
-0.00402547
6.53369e-05
-0.00405614
2.3368e-05
-0.0040815
-3.87023e-05
-0.00412162
-0.000118153
-0.00418532
-0.000183072
-0.0042707
-0.000212427
-0.00436931
-0.000209285
-0.00447065
-0.00018603
-0.00456586
-0.000153419
-0.00464912
-0.000118722
-0.00471751
-8.71972e-05
-0.00476992
-6.28425e-05
-0.00480596
-4.79042e-05
-0.00482538
-4.21483e-05
-0.00482814
-4.34466e-05
-0.00481353
-5.02104e-05
-0.00477935
-6.3486e-05
-0.00471969
-8.87119e-05
-0.00462386
-0.000131178
-0.0044753
-0.000191011
-0.00425172
-0.00025551
-0.00392827
-0.000294473
-0.00348569
-0.00027342
-0.00288415
-0.000208521
-0.00188697
-0.000229256
-7.67097e-05
-0.000235396
0.000916985
0.00175076
0.00562215
0.0015797
-0.0050506
-0.00809701
-0.00816561
-0.00738512
-0.0066171
-0.0060395
-0.00564114
-0.00537023
-0.00517617
-0.00502401
-0.00489885
-0.00480276
-0.00474787
-0.00475457
-0.00484069
-0.004992
-0.00517306
-0.00535138
-0.00550672
-0.00562961
-0.00571785
-0.00577455
-0.00580689
-0.00582433
-0.00583619
-0.00584967
-0.00587046
-0.00590527
-0.00596628
-0.00607097
-0.0062369
-0.00646895
-0.00674164
-0.00699493
-0.00718474
-0.00739642
-0.00761512
-0.00584832
)
;

boundaryField
{
    floor
    {
        type            calculated;
        value           nonuniform List<scalar> 
36
(
0
0
0
0
0
0
0
0
0
0
0
0
0
0
0
0
0
0
0
-6.43926e-06
-1.68855e-05
-2.60339e-05
-3.43121e-05
-3.49157e-05
-2.84986e-05
-2.85583e-05
-2.92034e-06
-5.44231e-06
-5.68865e-06
-5.90887e-06
-4.85399e-06
-8.94008e-06
-1.02113e-05
-1.28345e-05
-1.44562e-05
-1.5445e-05
)
;
    }
    ceiling
    {
        type            calculated;
        value           nonuniform List<scalar> 
43
(
-5.7801e-05
-6.44463e-05
-6.28605e-05
-5.91208e-05
-5.40863e-05
-4.63848e-05
-3.98175e-05
-3.51705e-05
-3.22294e-05
-3.06089e-05
-2.99746e-05
-3.0084e-05
-3.06883e-05
-3.14336e-05
-3.19049e-05
-3.19441e-05
-3.17035e-05
-3.13531e-05
-3.10294e-05
-3.08029e-05
-3.06857e-05
-3.06507e-05
-3.06504e-05
-3.06285e-05
-3.05277e-05
-3.02951e-05
-2.98875e-05
-2.92773e-05
-2.84522e-05
-2.74109e-05
-2.61604e-05
-2.4724e-05
-2.31597e-05
-2.15761e-05
-2.01131e-05
-1.88781e-05
-1.78881e-05
-1.70805e-05
-1.64036e-05
-1.68304e-05
1.9341e-05
1.51856e-05
-0.000246573
)
;
    }
    sWall
    {
        type            calculated;
        value           nonuniform List<scalar> 9(-0.000140239 -0.000164524 -0.00019425 -0.000225957 -0.000245131 -0.000281069 -0.000423591 -0.00045345 -0.00048377);
    }
    nWall
    {
        type            calculated;
        value           nonuniform List<scalar> 
14
(
-8.99978e-05
-9.73957e-05
-0.000102486
-0.000103113
-0.000113335
-0.000120473
-0.000135192
-0.000150858
-0.000165508
-0.000170117
-0.000177094
-0.000182926
-0.000189351
-0.000209601
)
;
    }
    sideWalls
    {
        type            empty;
        value           nonuniform 0();
    }
    glass1
    {
        type            calculated;
        value           nonuniform List<scalar> 9(-6.40346e-05 -0.000170322 -0.000257926 -0.000331211 -0.000393197 -0.000446404 -0.000492216 -0.000535497 -0.000587177);
    }
    glass2
    {
        type            calculated;
        value           nonuniform List<scalar> 2(-0.000364373 -0.000383394);
    }
    sun
    {
        type            calculated;
        value           uniform 0;
    }
    Table_master
    {
        type            calculated;
        value           nonuniform List<scalar> 9(-1.53993e-07 -1.5411e-07 -1.54142e-07 -1.54162e-07 -1.54175e-07 -1.5418e-07 -1.54179e-07 -1.54164e-07 -1.54111e-07);
    }
    Table_slave
    {
        type            calculated;
        value           nonuniform List<scalar> 9(1.53662e-07 1.53719e-07 1.53718e-07 1.53735e-07 1.53756e-07 1.538e-07 1.53867e-07 1.5396e-07 1.54088e-07);
    }
    inlet
    {
        type            calculated;
        value           uniform -0.0116489;
    }
    outlet
    {
        type            calculated;
        value           nonuniform List<scalar> 2(0.00980361 0.0122588);
    }
}


// ************************************************************************* //
