/*--------------------------------*- C++ -*----------------------------------*\
  =========                 |
  \\      /  F ield         | OpenFOAM: The Open Source CFD Toolbox
   \\    /   O peration     | Website:  https://openfoam.org
    \\  /    A nd           | Version:  6
     \\/     M anipulation  |
\*---------------------------------------------------------------------------*/
FoamFile
{
    version     2.0;
    format      ascii;
    class       volScalarField;
    location    "2810";
    object      k;
}
// * * * * * * * * * * * * * * * * * * * * * * * * * * * * * * * * * * * * * //

dimensions      [0 2 -2 0 0 0 0];

internalField   nonuniform List<scalar> 
458
(
0.00226773
0.002686
0.00280874
0.00308392
0.00334874
0.00360953
0.00388025
0.00416504
0.00440534
0.00455975
0.00457734
0.00441271
0.00402209
0.00325489
0.00187334
0.000457605
0.000628878
0.000808349
0.000878831
0.000851536
0.000745711
0.000636801
0.000546635
0.000474085
0.000415264
0.000367088
0.000327362
0.000294041
0.000265249
0.000239309
0.000214605
0.000200564
0.00016941
0.00412309
0.00755252
0.00415031
0.00437424
0.00471604
0.00513526
0.00563219
0.00619639
0.00680028
0.00731263
0.00758798
0.00753075
0.00712355
0.00635467
0.00513871
0.00326398
0.00224656
0.0014955
0.00045027
0.000973111
0.00130321
0.0014583
0.00147264
0.00125931
0.0010243
0.000833981
0.000688721
0.000577309
0.000490659
0.000421509
0.000364693
0.000317431
0.000283503
0.000264379
0.000493904
0.00029277
0.0060951
0.0136498
0.00491146
0.00472499
0.00494153
0.00528584
0.00575057
0.00634049
0.00699339
0.00754996
0.00789188
0.00794916
0.00769282
0.00706026
0.00603681
0.0048881
0.00391835
0.00208606
0.00106832
0.00139967
0.00160351
0.00173029
0.0017227
0.00134706
0.0010325
0.000802582
0.000637564
0.00051823
0.000430585
0.000365318
0.000316461
0.000280882
0.000262128
0.000265438
0.000780377
0.000408878
0.00835932
0.0222367
0.00592697
0.00470719
0.0047467
0.0050166
0.00547373
0.00616801
0.00689213
0.00746252
0.0078332
0.00795294
0.00774771
0.00714522
0.00628656
0.00543524
0.00463194
0.00350004
0.00276868
0.0025068
0.00237398
0.00233801
0.00228938
0.00215167
0.0017093
0.00143625
0.00126386
0.00114369
0.00104675
0.000954717
0.000871189
0.000787083
0.000694178
0.000530202
0.000422746
0.00113249
0.000542376
0.0110412
0.0339576
0.00842364
0.00474991
0.00448305
0.00470824
0.00529961
0.00635505
0.00718493
0.00773939
0.00809487
0.00819691
0.00790007
0.00718227
0.00621584
0.00530901
0.0045795
0.00397828
0.00379452
0.00347936
0.00325239
0.00307051
0.00285905
0.00259012
0.00230259
0.00210654
0.00198652
0.00189183
0.00178979
0.00166103
0.00149184
0.0012991
0.00109385
0.000865678
0.000664759
0.000922199
0.00106384
0.00096945
0.00108637
0.00128348
0.0143256
0.0466888
0.0149489
0.00592287
0.00474237
0.00478324
0.00570728
0.00726657
0.00803168
0.00847409
0.00873828
0.00874726
0.00831981
0.00737836
0.00612414
0.00496577
0.00418328
0.00384131
0.00381369
0.00382275
0.00373156
0.00350843
0.00318888
0.00283454
0.00254756
0.00239514
0.00232154
0.00226295
0.00218488
0.00206506
0.00187828
0.0016488
0.00140027
0.00114674
0.000935564
0.000900673
0.00103002
0.00105444
0.00165137
0.00138073
0.017977
0.0550462
0.0270747
0.0123583
0.00830727
0.00741148
0.00850412
0.0092091
0.00948539
0.0096451
0.00972917
0.009583
0.0089466
0.00770877
0.0061096
0.00469833
0.00388639
0.00373543
0.00389778
0.00398222
0.00385317
0.00354999
0.00317058
0.00281155
0.00256717
0.00246834
0.0024515
0.00245682
0.00245475
0.00242434
0.00233581
0.00214707
0.00191048
0.00165884
0.00145713
0.00136452
0.0014509
0.00168145
0.00223389
0.0019488
0.018941
0.0568491
0.0383019
0.0271706
0.019741
0.0158798
0.0137247
0.0122881
0.0115359
0.0112118
0.0110092
0.0106094
0.00964613
0.00799443
0.00597384
0.00439201
0.00367695
0.00365496
0.00377945
0.0037498
0.0035165
0.00316979
0.00281983
0.00255033
0.00240793
0.00238367
0.0024313
0.00251746
0.00263033
0.00276725
0.00292556
0.0030669
0.00310916
0.00313894
0.00329208
0.00386912
0.00511969
0.00681601
0.0128318
0.00467701
0.018204
0.0264668
0.0243623
0.0217106
0.0188863
0.0164643
0.0146538
0.0135901
0.0130861
0.012767
0.0123561
0.0115953
0.0100706
0.0077686
0.00515895
0.0038572
0.00340219
0.00330918
0.00325263
0.00309097
0.00282312
0.00252746
0.00228241
0.00213418
0.00208889
0.00212324
0.00220959
0.00233308
0.00249007
0.0026817
0.00290935
0.00317117
0.00348968
0.00390099
0.004448
0.00509777
0.0056969
0.00606903
0.00624815
0.00408114
0.00718485
0.0110953
0.0135431
0.0147731
0.0154366
0.015707
0.0153762
0.0144498
0.0132106
0.0115849
0.00881004
0.00585902
0.00403631
0.00322546
0.00288131
0.00270022
0.00252793
0.00231818
0.00209088
0.00188811
0.00175207
0.00169317
0.00169793
0.00174775
0.00182983
0.0019393
0.00207753
0.00225115
0.00247287
0.00276577
0.00313121
0.00356696
0.00405088
0.00449037
0.00471254
0.00457272
0.00410665
0.00264226
0.00805106
0.0194682
0.0216081
0.021498
0.0207255
0.0184749
0.0153362
0.0120142
0.00883217
0.00623537
0.00435108
0.00326397
0.00271638
0.00241274
0.00221107
0.00203305
0.00184828
0.00166528
0.00150956
0.00139915
0.00133841
0.00132646
0.00135521
0.00141897
0.00151613
0.00164811
0.00181816
0.0020306
0.00229596
0.00262435
0.00302436
0.00349676
0.00401528
0.00451214
0.0048168
0.00510141
0.00428723
0.00271129
0.00890507
0.00935053
0.0097646
0.0120868
0.0107996
0.00848197
0.00603675
0.00437006
0.00348191
0.00273144
0.00214583
0.00173651
0.00142374
0.00120729
0.00106734
0.000970514
0.000895991
0.000834245
0.000784925
0.000752497
0.000740581
0.000749551
0.000776403
0.000816733
0.000869153
0.000933383
0.00101008
0.00110097
0.00120908
0.00133985
0.00149676
0.00168174
0.00189913
0.00215389
0.00245059
0.00283142
0.00300677
0.0028849
0.0024959
0.00213495
)
;

boundaryField
{
    floor
    {
        type            kqRWallFunction;
        value           nonuniform List<scalar> 
36
(
0.00187334
0.000457605
0.000628878
0.000808349
0.000878831
0.000851536
0.000745711
0.000636801
0.000546635
0.000474085
0.000415264
0.000367088
0.000327362
0.000294041
0.000265249
0.000239309
0.000214605
0.000200564
0.00016941
0.00016941
0.00029277
0.000408878
0.000542376
0.00096945
0.00108637
0.00128348
0.00187334
0.00326398
0.00224656
0.0014955
0.000457605
0.0014955
0.00045027
0.00208606
0.00106832
0.00276868
)
;
    }
    ceiling
    {
        type            kqRWallFunction;
        value           nonuniform List<scalar> 
43
(
0.00890507
0.00935053
0.0097646
0.0120868
0.0107996
0.00848197
0.00603675
0.00437006
0.00348191
0.00273144
0.00214583
0.00173651
0.00142374
0.00120729
0.00106734
0.000970514
0.000895991
0.000834245
0.000784925
0.000752497
0.000740581
0.000749551
0.000776403
0.000816733
0.000869153
0.000933383
0.00101008
0.00110097
0.00120908
0.00133985
0.00149676
0.00168174
0.00189913
0.00215389
0.00245059
0.00283142
0.00300677
0.0028849
0.0024959
0.00213495
0.018204
0.0264668
0.00805106
)
;
    }
    sWall
    {
        type            kqRWallFunction;
        value           uniform 0.00890507;
    }
    nWall
    {
        type            kqRWallFunction;
        value           nonuniform List<scalar> 6(0.00128348 0.00138073 0.0019488 0.00264226 0.00271129 0.00213495);
    }
    sideWalls
    {
        type            empty;
    }
    glass1
    {
        type            kqRWallFunction;
        value           nonuniform List<scalar> 9(0.00226773 0.00412309 0.0060951 0.00835932 0.0110412 0.0143256 0.017977 0.018941 0.018204);
    }
    glass2
    {
        type            kqRWallFunction;
        value           nonuniform List<scalar> 2(0.00467701 0.00408114);
    }
    sun
    {
        type            kqRWallFunction;
        value           nonuniform List<scalar> 
14
(
0.00226773
0.002686
0.00280874
0.00308392
0.00334874
0.00360953
0.00388025
0.00416504
0.00440534
0.00455975
0.00457734
0.00441271
0.00402209
0.00325489
)
;
    }
    Table_master
    {
        type            kqRWallFunction;
        value           nonuniform List<scalar> 9(0.00134706 0.0010325 0.000802582 0.000637564 0.00051823 0.000430585 0.000365318 0.000316461 0.000280882);
    }
    Table_slave
    {
        type            kqRWallFunction;
        value           nonuniform List<scalar> 9(0.0017093 0.00143625 0.00126386 0.00114369 0.00104675 0.000954717 0.000871189 0.000787083 0.000694178);
    }
    inlet
    {
        type            turbulentIntensityKineticEnergyInlet;
        intensity       0.05;
        value           uniform 0.000937501;
    }
    outlet
    {
        type            zeroGradient;
    }
}


// ************************************************************************* //
