/*--------------------------------*- C++ -*----------------------------------*\
  =========                 |
  \\      /  F ield         | OpenFOAM: The Open Source CFD Toolbox
   \\    /   O peration     | Website:  https://openfoam.org
    \\  /    A nd           | Version:  6
     \\/     M anipulation  |
\*---------------------------------------------------------------------------*/
FoamFile
{
    version     2.0;
    format      ascii;
    class       volScalarField;
    location    "29699.9999981796973";
    object      alphat;
}
// * * * * * * * * * * * * * * * * * * * * * * * * * * * * * * * * * * * * * //

dimensions      [1 -1 -1 0 0 0 0];

internalField   nonuniform List<scalar> 
778
(
0.00104101
0.00111058
0.0011066
0.00115464
0.00119866
0.00123863
0.00127584
0.0013117
0.00134781
0.00138618
0.00142277
0.00145753
0.0014918
0.00152866
0.00156714
0.000736672
0.00105561
0.00106408
0.00103826
0.000995116
0.000937514
0.00088016
0.000827361
0.000779765
0.000737076
0.00069902
0.00066483
0.000633681
0.000604608
0.000576316
0.000546735
0.000522172
0.00047263
0.00152469
0.00300743
0.00263939
0.00304651
0.00334198
0.00365519
0.00396759
0.00425542
0.00448704
0.00462183
0.0047011
0.0046685
0.00443584
0.0038593
0.0028188
0.00171602
0.00163615
0.00156623
0.00131908
0.00224673
0.003114
0.003626
0.00364972
0.00288015
0.00246325
0.00217412
0.00195467
0.00178023
0.00163157
0.00150011
0.00137775
0.00125803
0.00115057
0.00105791
0.00119169
0.000599314
0.00193418
0.00419901
0.00311347
0.00445336
0.00497616
0.00541851
0.00582015
0.00617351
0.00647275
0.00670729
0.00693468
0.00717415
0.00739457
0.00752642
0.00744098
0.00681466
0.00498512
0.00192144
0.00166369
0.00355878
0.00496714
0.00563374
0.00512433
0.00135205
0.00117561
0.00103945
0.000932908
0.00084815
0.000779765
0.000724009
0.000678667
0.000643313
0.000707186
0.000831898
0.00131753
0.000681929
0.00232915
0.00565876
0.00297916
0.00500686
0.00578067
0.00619458
0.00649878
0.00672365
0.00689131
0.0070271
0.00722051
0.00754768
0.00802556
0.00862713
0.00923276
0.00953293
0.00895518
0.00668691
0.00191348
0.00442616
0.00658862
0.00768961
0.00796256
0.00679909
0.00153935
0.00140018
0.00129243
0.00120276
0.00112635
0.00105774
0.000993079
0.000928879
0.000859548
0.00080293
0.000832272
0.00142661
0.000751004
0.00271843
0.00749098
0.00300575
0.00475923
0.00594881
0.00630159
0.00642941
0.00643395
0.0063696
0.00631255
0.00639324
0.00671086
0.00729432
0.00812132
0.0090812
0.00996639
0.0105283
0.0105227
0.0094435
0.00960779
0.0098292
0.00986177
0.0096626
0.00904529
0.00719927
0.00621907
0.00554751
0.00500242
0.00446719
0.00394844
0.00344084
0.00293402
0.00241364
0.001854
0.00141471
0.0014134
0.00111838
0.000895757
0.00118602
0.00113722
0.0031014
0.00954126
0.00353876
0.00401306
0.00569929
0.00609064
0.0060589
0.0058403
0.00552804
0.00527054
0.00526453
0.00559726
0.00626192
0.00722064
0.00834313
0.00946556
0.0104199
0.01103
0.0111415
0.0110302
0.0108354
0.0105589
0.0102031
0.00974984
0.00908785
0.00844976
0.00787026
0.00731049
0.00670549
0.00605915
0.00536881
0.00462884
0.00383466
0.00299214
0.00222929
0.0016738
0.00130016
0.00145812
0.00253849
0.00135975
0.00349219
0.0114364
0.00471579
0.00328768
0.00512064
0.00576083
0.00568928
0.0053358
0.0048234
0.00437294
0.00435992
0.00478019
0.00554109
0.00661325
0.00783278
0.00904049
0.0100796
0.0108237
0.011166
0.0111401
0.0108961
0.0105263
0.0101026
0.00967969
0.00927051
0.00889486
0.00854181
0.0081652
0.00770982
0.00716156
0.00651266
0.00576021
0.00490707
0.00397463
0.00306269
0.00221402
0.00163107
0.00145613
0.00258741
0.00160335
0.00382795
0.0128689
0.00642873
0.00313087
0.00405591
0.00510683
0.00525313
0.00496269
0.00435716
0.00374487
0.00388359
0.00443972
0.00529135
0.00639656
0.00766424
0.00892855
0.0100061
0.0107541
0.0110935
0.0110491
0.0107335
0.0102679
0.00976695
0.00932249
0.00897986
0.00873506
0.00854402
0.00833638
0.00804689
0.0076417
0.00710526
0.00643454
0.00563576
0.00473196
0.00379098
0.00284224
0.00198546
0.00134211
0.00369688
0.00209857
0.00392908
0.0121727
0.00795132
0.00404836
0.00274942
0.00336845
0.00394304
0.00399177
0.00352443
0.0034251
0.00378074
0.00443519
0.00535725
0.00653085
0.00786065
0.00916407
0.010237
0.0109258
0.0111667
0.0109992
0.0105412
0.00994061
0.00934445
0.00886863
0.00856669
0.00841866
0.00835156
0.00827177
0.00810494
0.00781186
0.00737723
0.00679948
0.00608558
0.00525377
0.00433949
0.00331254
0.00190645
0.00173267
0.0056593
0.00240813
0.0038495
0.00980943
0.00820769
0.00555455
0.00366916
0.00284031
0.00268961
0.00281625
0.00305266
0.00342902
0.00396388
0.00470152
0.00570628
0.00697377
0.00837724
0.00969882
0.010714
0.0112703
0.0113256
0.0109482
0.0102863
0.00952468
0.00884425
0.00837776
0.00816425
0.00813991
0.00818664
0.00818599
0.00807747
0.00783963
0.00746546
0.00695442
0.00630992
0.00553718
0.00461459
0.00323365
0.00138735
0.00344813
0.00524217
0.00243272
0.00360569
0.00838244
0.00793326
0.00635358
0.00489107
0.00393768
0.00346567
0.00335848
0.00355323
0.00391262
0.0044364
0.00521693
0.00632916
0.00772106
0.00919662
0.0104886
0.0113598
0.0116788
0.0114448
0.0107739
0.00986521
0.00895489
0.00826164
0.00791369
0.00787476
0.00799054
0.00810614
0.00810859
0.0079936
0.00776311
0.00741313
0.00693752
0.00632904
0.00556894
0.00457153
0.0029318
0.00148011
0.00376884
0.00528619
0.00241483
0.00328285
0.00755792
0.00765164
0.00672362
0.00572101
0.00496555
0.00452036
0.00436082
0.00440029
0.00461774
0.00510044
0.00597528
0.00726408
0.00880725
0.0103128
0.0114705
0.0120578
0.0119969
0.011357
0.0103247
0.00917501
0.00821233
0.0076657
0.00755835
0.00765903
0.00781291
0.00791163
0.00788301
0.00774874
0.00751604
0.00717724
0.00671021
0.00608688
0.00525027
0.00410325
0.00259966
0.00171712
0.00379083
0.00585642
0.00244739
0.0029934
0.00676185
0.00730653
0.00686839
0.00622515
0.00568438
0.00532447
0.0051483
0.00509632
0.00528375
0.00589932
0.00704557
0.00860707
0.0102764
0.0116784
0.012506
0.0126064
0.0119985
0.0108561
0.00946046
0.00819471
0.00738225
0.00703091
0.00700167
0.00711724
0.0072553
0.00733398
0.00730351
0.00716446
0.00692789
0.00657901
0.00607511
0.00533612
0.00428201
0.00301586
0.00207636
0.00208666
0.00409072
0.00577156
0.00260078
0.00300445
0.00671193
0.00746584
0.00695106
0.00643031
0.00600373
0.00569605
0.00549672
0.00549046
0.00594613
0.00703382
0.00865951
0.0104893
0.0120941
0.0131005
0.0132975
0.0126747
0.0113845
0.00974991
0.00816427
0.00701456
0.00634992
0.00605925
0.00601358
0.00609233
0.00619349
0.00624638
0.00621329
0.00605791
0.00579719
0.00539852
0.0047754
0.00382982
0.00271368
0.00198574
0.00197027
0.00265483
0.00466404
0.00600316
0.00262554
0.00271031
0.00282053
0.00416535
0.00489719
0.0051244
0.00512904
0.00508062
0.00517783
0.00581091
0.00716196
0.00906608
0.0111192
0.0128645
0.0139239
0.0140844
0.0133199
0.011824
0.00988348
0.00803427
0.00659219
0.00564164
0.00511903
0.00490118
0.00484898
0.00485626
0.00485347
0.0048031
0.00469162
0.00449582
0.00420925
0.00381742
0.00325896
0.00254978
0.0019904
0.0019332
0.00240727
0.00332912
0.00471536
0.00575198
0.00248647
0.000964099
0.00173749
0.00266453
0.00340814
0.00427361
0.00574511
0.00791208
0.0103209
0.0125132
0.0141425
0.014971
0.0148491
0.0137959
0.0119384
0.00974967
0.00769269
0.00607834
0.00502031
0.00446161
0.00420854
0.00409163
0.00401268
0.00392111
0.00379466
0.00363278
0.00344984
0.00326313
0.00306374
0.00284913
0.00259951
0.00232155
0.0021476
0.00230112
0.00287564
0.00376294
0.00465553
0.00495168
0.00236927
0.00178758
0.00246732
0.00358778
0.00559066
0.0083102
0.0110337
0.0131425
0.0146646
0.0155814
0.0158188
0.0152518
0.0137669
0.0116055
0.00919413
0.00701378
0.00541832
0.00451637
0.00411391
0.00395367
0.00388032
0.00382317
0.00375236
0.00365939
0.0035495
0.00343518
0.00332836
0.00323364
0.00314475
0.00305675
0.00296894
0.00289
0.00286641
0.00301629
0.00348424
0.00430137
0.00530429
0.00615929
0.00240721
0.00323874
0.00787373
0.00726419
0.00648889
0.00822548
0.0109498
0.0132445
0.0147939
0.0156146
0.0158182
0.0154896
0.0145689
0.0130048
0.0108593
0.00846651
0.00637283
0.0050222
0.00439148
0.00416862
0.00410802
0.0040918
0.00407089
0.00402786
0.00396159
0.00387985
0.00379394
0.00371516
0.00365358
0.00361799
0.00361452
0.00364162
0.00369464
0.00377244
0.00391077
0.00417109
0.00464427
0.00545632
0.00687404
0.00710875
0.00266131
0.00309535
0.005979
0.00771345
0.00987421
0.0109523
0.0120606
0.0127023
0.012854
0.0126074
0.0120215
0.011107
0.00984931
0.00828809
0.00663247
0.00523619
0.0043677
0.00396628
0.00383671
0.00383159
0.00387005
0.00390947
0.00392862
0.00392044
0.00388717
0.00383588
0.00377564
0.00371792
0.00367908
0.00368147
0.00375039
0.00390676
0.00415483
0.0044641
0.00478316
0.00516277
0.0057064
0.00650523
0.00780903
0.00766489
0.00277486
0.00289441
0.00248114
0.00246883
0.00254097
0.00260048
0.00252296
0.0023726
0.00219672
0.00201855
0.00184569
0.00167978
0.00152486
0.00139241
0.00129769
0.00124705
0.00122875
0.00122977
0.00123999
0.0012538
0.00126849
0.00128298
0.00129727
0.00131226
0.00132953
0.00135133
0.00138044
0.00141991
0.00147245
0.00153928
0.00161922
0.00170897
0.00180481
0.00190489
0.00201071
0.00212028
0.00223495
0.00235628
0.00248886
0.00263209
0.00253743
)
;

boundaryField
{
    floor
    {
        type            compressible::alphatWallFunction;
        Prt             0.85;
        value           nonuniform List<scalar> 
36
(
0.000219857
0.00010446
0.000149969
0.000151153
0.000147538
0.000141476
0.000133333
0.000125168
0.000117595
0.00011072
0.00010451
9.89384e-05
9.39015e-05
8.92851e-05
8.49514e-05
8.07096e-05
7.62471e-05
7.25191e-05
6.4933e-05
6.49322e-05
8.41605e-05
9.64253e-05
0.000106541
0.000127397
0.000168117
0.000161357
0.000219855
0.000239673
0.000229064
0.000219731
0.000104459
0.000219728
0.000186347
0.000266707
0.000232721
0.000265665
)
;
    }
    ceiling
    {
        type            compressible::alphatWallFunction;
        Prt             0.85;
        value           nonuniform List<scalar> 
43
(
0.000391138
0.000338963
0.000337401
0.000346584
0.000354147
0.000344347
0.000325212
0.000302653
0.000279597
0.000257013
0.000235115
0.000214442
0.000196568
0.000183659
0.000176707
0.000174182
0.000174317
0.000175723
0.000177626
0.000179648
0.00018164
0.0001836
0.000185646
0.000187993
0.000190941
0.000194862
0.000200164
0.000207205
0.000216143
0.000226811
0.000238755
0.000251459
0.000264658
0.00027854
0.000292841
0.000307704
0.000323321
0.000340271
0.000358435
0.000346284
0.000368325
0.00038218
0.000248642
)
;
    }
    sWall
    {
        type            compressible::alphatWallFunction;
        Prt             0.85;
        value           nonuniform List<scalar> 9(0.000507608 0.000477865 0.000438167 0.000402237 0.000403606 0.00036675 0.000432075 0.000414345 0.000389387);
    }
    nWall
    {
        type            compressible::alphatWallFunction;
        Prt             0.85;
        value           nonuniform List<scalar> 
14
(
0.000160909
0.000191435
0.000224229
0.00033232
0.00033011
0.000334549
0.000353903
0.000356818
0.00033901
0.000324019
0.000329302
0.000361263
0.000375497
0.000345589
)
;
    }
    sideWalls
    {
        type            empty;
    }
    glass1
    {
        type            compressible::alphatWallFunction;
        Prt             0.85;
        value           nonuniform List<scalar> 9(0.000143931 0.000209138 0.000262696 0.000313306 0.000362381 0.000410006 0.000458019 0.000498878 0.000511233);
    }
    glass2
    {
        type            compressible::alphatWallFunction;
        Prt             0.85;
        value           nonuniform List<scalar> 2(0.000287133 0.000326809);
    }
    sun
    {
        type            compressible::alphatWallFunction;
        Prt             0.85;
        value           nonuniform List<scalar> 
14
(
0.000147965
0.000157652
0.000157096
0.000163764
0.000169847
0.000175348
0.000180451
0.000185354
0.000190274
0.000195486
0.000200442
0.000205137
0.000209752
0.000214703
)
;
    }
    Table_master
    {
        type            compressible::alphatWallFunction;
        Prt             0.85;
        value           nonuniform List<scalar> 9(0.000191106 0.000166913 0.000147959 0.000132928 0.000120827 0.000110958 0.000102835 9.61739e-05 9.09424e-05);
    }
    Table_slave
    {
        type            compressible::alphatWallFunction;
        Prt             0.85;
        value           nonuniform List<scalar> 9(0.000216405 0.000197645 0.000182978 0.000170665 0.00016009 0.000150525 0.000141444 0.000132359 0.000122465);
    }
    inlet
    {
        type            fixedValue;
        value           uniform 1.94e-05;
    }
    outlet
    {
        type            zeroGradient;
    }
}


// ************************************************************************* //
