/*--------------------------------*- C++ -*----------------------------------*\
  =========                 |
  \\      /  F ield         | OpenFOAM: The Open Source CFD Toolbox
   \\    /   O peration     | Website:  https://openfoam.org
    \\  /    A nd           | Version:  6
     \\/     M anipulation  |
\*---------------------------------------------------------------------------*/
FoamFile
{
    version     2.0;
    format      ascii;
    class       volScalarField;
    location    "29699.9999981796973";
    object      epsilon;
}
// * * * * * * * * * * * * * * * * * * * * * * * * * * * * * * * * * * * * * //

dimensions      [0 2 -3 0 0 0 0];

internalField   nonuniform List<scalar> 
778
(
0.00025314
0.000306393
0.000303055
0.000344245
0.000385121
0.00042493
0.000464366
0.000504617
0.000547417
0.000595485
0.000643859
0.000692169
0.000742071
0.00079837
0.000860098
8.94019e-05
0.000262705
0.000269057
0.00024994
0.000220064
0.000184026
0.000152283
0.000126495
0.000105901
8.94473e-05
7.62993e-05
6.56455e-05
5.68469e-05
4.93784e-05
4.27682e-05
3.65172e-05
3.1816e-05
2.35998e-05
0.000797054
0.00144335
0.000287026
0.000259618
0.000261712
0.000267676
0.000276562
0.000289978
0.000310212
0.000340387
0.00037956
0.000430633
0.00049898
0.000600162
0.000785304
0.00112893
0.00097838
0.0008582
0.000512575
0.000369825
0.000294431
0.00024299
0.000204078
0.000186852
0.000154616
0.000124933
0.000100648
8.14573e-05
6.6506e-05
5.48096e-05
4.56234e-05
3.87024e-05
3.45151e-05
3.27606e-05
6.58284e-05
4.81093e-05
0.00163077
0.00407968
0.000407468
0.00024295
0.000229118
0.000231024
0.000238233
0.000250491
0.00026838
0.000292626
0.000324725
0.000366766
0.00042114
0.000494865
0.000601305
0.000724602
0.0008296
0.00158424
0.00102813
0.000512671
0.00036798
0.000294465
0.000262199
0.000551784
0.00036273
0.000250727
0.000181266
0.000136215
0.000105854
8.4733e-05
6.97907e-05
5.94438e-05
4.51271e-05
3.79815e-05
0.000108302
7.08693e-05
0.00285382
0.008772
0.000710083
0.000240753
0.000202491
0.000200017
0.000203181
0.000209796
0.0002206
0.000237499
0.000263169
0.000299899
0.000349111
0.000412271
0.00048801
0.000560247
0.000612284
0.000824017
0.00156431
0.00072923
0.000459951
0.000358376
0.000301943
0.00029181
0.000814345
0.000612842
0.000481969
0.000388451
0.000319017
0.0002642
0.00021865
0.000178927
0.000141778
8.38026e-05
5.48963e-05
0.000148935
9.46573e-05
0.00454656
0.0158304
0.00134686
0.000258391
0.000175746
0.000166793
0.000165792
0.000167759
0.000173912
0.000187406
0.000211636
0.000248304
0.000297716
0.000359277
0.000427769
0.000489178
0.000528473
0.000582272
0.000627075
0.000483025
0.000393403
0.000330989
0.000282278
0.000248617
0.000247831
0.000226762
0.000202898
0.00018098
0.000162584
0.000146424
0.000131773
0.00011821
0.000105083
8.45119e-05
6.42102e-05
0.000105381
0.000138977
0.000160617
0.000373049
0.00032907
0.00676453
0.0248829
0.00255459
0.00031817
0.000155556
0.000137069
0.000132122
0.000130682
0.000134446
0.000148536
0.000176681
0.000218046
0.000270773
0.000334114
0.000401729
0.000462642
0.000502919
0.000521528
0.00050456
0.000438092
0.000373728
0.000315603
0.000264722
0.000223381
0.000193291
0.000169629
0.000150804
0.0001356
0.000123254
0.000112699
0.000103248
9.4505e-05
8.60897e-05
7.59299e-05
6.53494e-05
7.76529e-05
9.98891e-05
0.000211714
0.00107939
0.00056255
0.00967361
0.0336414
0.00458589
0.000465214
0.000150875
0.00011635
0.000107086
0.000103274
0.000107067
0.000127905
0.000166115
0.000215887
0.000273338
0.000340171
0.000409457
0.000470571
0.000510225
0.000520409
0.000494216
0.000437547
0.000371806
0.000307475
0.000250551
0.000204437
0.000169744
0.000144553
0.00012632
0.000112727
0.000102261
9.36815e-05
8.61878e-05
7.93236e-05
7.2803e-05
6.6151e-05
6.02976e-05
6.37578e-05
7.69452e-05
0.000176633
0.00162952
0.000922385
0.0127609
0.040409
0.00749313
0.000871927
0.000194387
0.000115405
9.73891e-05
9.14479e-05
9.86396e-05
0.000137674
0.000189251
0.000246271
0.000307167
0.0003741
0.000445191
0.000508489
0.000547706
0.000551093
0.000515753
0.000451593
0.000375575
0.000301032
0.000236532
0.000185988
0.000149322
0.000123984
0.000106713
9.45751e-05
8.57335e-05
7.87883e-05
7.28715e-05
6.75102e-05
6.24666e-05
5.76576e-05
5.38751e-05
5.57306e-05
7.11468e-05
0.000361874
0.00544167
0.00207334
0.0138285
0.0414556
0.013937
0.00316671
0.000630971
0.000208245
0.000132737
0.000115995
0.00014243
0.000192835
0.000249199
0.000306438
0.000367612
0.00043723
0.000511925
0.000576587
0.000611532
0.000603496
0.000552324
0.000471111
0.000378674
0.000291102
0.0002184
0.000164108
0.000126827
0.000102643
8.73155e-05
7.7375e-05
7.0684e-05
6.56689e-05
6.14484e-05
5.7594e-05
5.39375e-05
5.05323e-05
4.81604e-05
5.22167e-05
0.000104246
0.00111336
0.0138474
0.00313706
0.0130042
0.0283639
0.0144169
0.0057295
0.00210617
0.000835523
0.000414085
0.000277006
0.000279027
0.000314491
0.000355986
0.000401821
0.000459144
0.00053201
0.000611441
0.000675319
0.000699548
0.000671011
0.000594009
0.000486942
0.000373011
0.000271077
0.000191454
0.000135963
0.000100808
7.99723e-05
6.80444e-05
6.12591e-05
5.71612e-05
5.41916e-05
5.16088e-05
4.91123e-05
4.66397e-05
4.43778e-05
4.35281e-05
5.48961e-05
0.000263675
0.00384316
0.0103044
0.00323484
0.0106876
0.0193509
0.012038
0.0063016
0.00317577
0.00167558
0.000987225
0.000679245
0.000560069
0.000517256
0.000510385
0.000531814
0.000584823
0.000664703
0.000749718
0.000806845
0.000808173
0.000744307
0.000628144
0.000486416
0.000348178
0.000234205
0.000152986
0.000102107
7.37684e-05
5.8961e-05
5.15043e-05
4.80522e-05
4.62387e-05
4.49023e-05
4.35751e-05
4.21113e-05
4.05842e-05
3.94178e-05
4.06128e-05
6.17078e-05
0.000442715
0.00350378
0.0083294
0.00316759
0.00806929
0.0137657
0.0096905
0.00593327
0.00356991
0.00222768
0.00149094
0.00109314
0.000869292
0.000743517
0.000686088
0.00069109
0.000752741
0.000847937
0.00093534
0.000970277
0.000926384
0.000805265
0.000634863
0.000452739
0.00029396
0.000178208
0.000107437
6.9741e-05
5.26789e-05
4.45346e-05
4.07129e-05
3.92897e-05
3.86912e-05
3.82328e-05
3.76534e-05
3.69356e-05
3.63853e-05
3.69196e-05
4.17015e-05
6.98477e-05
0.000353327
0.00256853
0.00743698
0.00330964
0.0061219
0.0101673
0.00779038
0.00531225
0.00357013
0.00246921
0.00178812
0.00136834
0.00109302
0.000926216
0.000860004
0.000888843
0.000986649
0.00110201
0.00117284
0.00115094
0.0010257
0.000820641
0.000586337
0.000369598
0.000209287
0.000115072
7.22334e-05
5.22596e-05
4.2861e-05
3.8204e-05
3.59426e-05
3.5087e-05
3.47653e-05
3.45465e-05
3.4345e-05
3.44186e-05
3.56355e-05
4.02016e-05
5.45155e-05
0.000104499
0.000375957
0.00216823
0.00559543
0.0039632
0.00618634
0.00781193
0.00680465
0.00473941
0.00336555
0.00246244
0.00186594
0.00146243
0.00119468
0.0010651
0.00107227
0.0011845
0.00133528
0.00144269
0.00143975
0.00129803
0.00104731
0.000740332
0.00045734
0.000238843
0.000131109
8.13105e-05
5.92478e-05
4.85482e-05
4.2744e-05
3.93167e-05
3.72594e-05
3.60972e-05
3.55304e-05
3.52383e-05
3.54052e-05
3.70566e-05
4.31803e-05
6.16757e-05
0.000111952
0.000238248
0.000592545
0.00216875
0.00493484
0.00406708
0.00454811
0.00511614
0.00418605
0.00336209
0.00263971
0.00206992
0.00164873
0.00136148
0.0012447
0.00130172
0.00148227
0.00169363
0.001831
0.00181843
0.00163262
0.00129465
0.00090335
0.000518521
0.000277701
0.000153642
9.98675e-05
7.65503e-05
6.50548e-05
5.81873e-05
5.35421e-05
5.0242e-05
4.78541e-05
4.61027e-05
4.50602e-05
4.48263e-05
4.58655e-05
5.06943e-05
6.66241e-05
0.000112427
0.000229508
0.000497412
0.00108942
0.00244723
0.00503744
0.00344901
0.00139928
0.00142911
0.00143051
0.00135092
0.00130845
0.00142061
0.00170673
0.00204581
0.00231282
0.00241224
0.00229285
0.00197218
0.00151853
0.000972069
0.00056145
0.000307828
0.000183224
0.000130367
0.00010833
9.72765e-05
9.02843e-05
8.52803e-05
8.17107e-05
7.93461e-05
7.79058e-05
7.69861e-05
7.62198e-05
7.68635e-05
7.95983e-05
8.75998e-05
0.000110478
0.000172297
0.000326558
0.000679696
0.00142871
0.00281762
0.00468187
0.0029835
0.00118833
0.00171129
0.00194746
0.00230241
0.00274961
0.003156
0.00333991
0.00331022
0.00308872
0.00269538
0.00212248
0.00149832
0.000961766
0.000561513
0.000331225
0.000223464
0.000180401
0.000163023
0.000154367
0.000148854
0.000145158
0.000143242
0.000143362
0.000145654
0.000149874
0.000155256
0.000160497
0.000164043
0.000168517
0.000178598
0.000202029
0.000259835
0.000397046
0.000705788
0.00136129
0.00268561
0.00544078
0.00314677
0.00742225
0.00812636
0.00482091
0.00339831
0.00372481
0.00413256
0.0041431
0.00393268
0.00358012
0.00312922
0.00262318
0.00207552
0.00151979
0.00102745
0.00066356
0.000447324
0.000347356
0.000308869
0.00029468
0.000287972
0.000282946
0.000278195
0.000274121
0.000271846
0.000272659
0.0002777
0.000287785
0.00030323
0.000323487
0.000346532
0.000368489
0.000391138
0.000433886
0.000509702
0.000651015
0.000931935
0.00153005
0.00308444
0.0048322
0.00423391
0.006503
0.00514395
0.0043563
0.0046115
0.0045295
0.00426193
0.00368199
0.00303645
0.00245206
0.00196092
0.00155908
0.00123284
0.000969408
0.000767799
0.000628386
0.000547656
0.000508823
0.000494123
0.000491747
0.000494957
0.000500103
0.000505658
0.000511744
0.00051979
0.000532224
0.000552206
0.000583416
0.000629827
0.000695274
0.000782496
0.00089133
0.00101556
0.00114398
0.00129938
0.001524
0.0018914
0.0025359
0.00400866
0.00528412
0.00479515
0.0053557
0.00337328
0.00332509
0.00362828
0.00389512
0.00356925
0.00297801
0.00236959
0.00184196
0.00141007
0.00106408
0.00079652
0.000606602
0.000490986
0.00043561
0.000416617
0.000417602
0.000428098
0.000442605
0.000458407
0.000474356
0.000490434
0.000507616
0.000527835
0.000554012
0.000590211
0.000641768
0.000715051
0.000816374
0.000950166
0.00111759
0.00131746
0.00155042
0.00182515
0.00214232
0.00251097
0.00294406
0.00347071
0.00410459
0.00367198
)
;

boundaryField
{
    floor
    {
        Cmu             0.09;
        kappa           0.41;
        E               9.8;
        type            epsilonWallFunction;
        value           nonuniform List<scalar> 
36
(
0.000860098
8.94019e-05
0.000262705
0.000269057
0.00024994
0.000220064
0.000184026
0.000152283
0.000126495
0.000105901
8.94473e-05
7.62993e-05
6.56455e-05
5.68469e-05
4.93784e-05
4.27682e-05
3.65172e-05
3.1816e-05
2.35998e-05
2.35998e-05
4.81093e-05
7.08693e-05
9.46573e-05
0.000160617
0.000373049
0.00032907
0.000860098
0.00112893
0.00097838
0.0008582
8.94019e-05
0.0008582
0.000512575
0.00158424
0.00102813
0.00156431
)
;
    }
    ceiling
    {
        Cmu             0.09;
        kappa           0.41;
        E               9.8;
        type            epsilonWallFunction;
        value           nonuniform List<scalar> 
43
(
0.0053557
0.00337328
0.00332509
0.00362828
0.00389512
0.00356925
0.00297801
0.00236959
0.00184196
0.00141007
0.00106408
0.00079652
0.000606602
0.000490986
0.00043561
0.000416617
0.000417602
0.000428098
0.000442605
0.000458407
0.000474356
0.000490434
0.000507616
0.000527835
0.000554012
0.000590211
0.000641768
0.000715051
0.000816374
0.000950166
0.00111759
0.00131746
0.00155042
0.00182515
0.00214232
0.00251097
0.00294406
0.00347071
0.00410459
0.00367198
0.00454811
0.00511614
0.00118833
)
;
    }
    sWall
    {
        Cmu             0.09;
        kappa           0.41;
        E               9.8;
        type            epsilonWallFunction;
        value           nonuniform List<scalar> 9(0.0130042 0.0106876 0.00806929 0.0061219 0.00618634 0.00454811 0.00742225 0.006503 0.0053557);
    }
    nWall
    {
        Cmu             0.09;
        kappa           0.41;
        E               9.8;
        type            epsilonWallFunction;
        value           nonuniform List<scalar> 
14
(
0.00032907
0.00056255
0.000922385
0.00323484
0.00316759
0.00330964
0.0039632
0.00406708
0.00344901
0.0029835
0.00314677
0.00423391
0.00479515
0.00367198
)
;
    }
    sideWalls
    {
        type            empty;
    }
    glass1
    {
        Cmu             0.09;
        kappa           0.41;
        E               9.8;
        type            epsilonWallFunction;
        value           nonuniform List<scalar> 9(0.00025314 0.000797054 0.00163077 0.00285382 0.00454656 0.00676453 0.00967361 0.0127609 0.0138285);
    }
    glass2
    {
        Cmu             0.09;
        kappa           0.41;
        E               9.8;
        type            epsilonWallFunction;
        value           nonuniform List<scalar> 2(0.00207334 0.00313706);
    }
    sun
    {
        Cmu             0.09;
        kappa           0.41;
        E               9.8;
        type            epsilonWallFunction;
        value           nonuniform List<scalar> 
14
(
0.00025314
0.000306393
0.000303055
0.000344245
0.000385121
0.00042493
0.000464366
0.000504617
0.000547417
0.000595485
0.000643859
0.000692169
0.000742071
0.00079837
)
;
    }
    Table_master
    {
        Cmu             0.09;
        kappa           0.41;
        E               9.8;
        type            epsilonWallFunction;
        value           nonuniform List<scalar> 9(0.000551784 0.00036273 0.000250727 0.000181266 0.000136215 0.000105854 8.4733e-05 6.97907e-05 5.94438e-05);
    }
    Table_slave
    {
        Cmu             0.09;
        kappa           0.41;
        E               9.8;
        type            epsilonWallFunction;
        value           nonuniform List<scalar> 9(0.000814345 0.000612842 0.000481969 0.000388451 0.000319017 0.0002642 0.00021865 0.000178927 0.000141778);
    }
    inlet
    {
        type            turbulentMixingLengthDissipationRateInlet;
        mixingLength    0.01;
        phi             phi;
        k               k;
        value           uniform 0.000471671;
    }
    outlet
    {
        type            zeroGradient;
    }
}


// ************************************************************************* //
