/*--------------------------------*- C++ -*----------------------------------*\
  =========                 |
  \\      /  F ield         | OpenFOAM: The Open Source CFD Toolbox
   \\    /   O peration     | Website:  https://openfoam.org
    \\  /    A nd           | Version:  6
     \\/     M anipulation  |
\*---------------------------------------------------------------------------*/
FoamFile
{
    version     2.0;
    format      ascii;
    class       volScalarField;
    location    "29699.9999981796973";
    object      nut;
}
// * * * * * * * * * * * * * * * * * * * * * * * * * * * * * * * * * * * * * //

dimensions      [0 2 -1 0 0 0 0];

internalField   nonuniform List<scalar> 
778
(
0.000894332
0.000953099
0.000949625
0.000990834
0.00102859
0.00106288
0.00109479
0.00112555
0.00115651
0.00118942
0.00122079
0.00125059
0.00127995
0.00131153
0.0013445
0.00063216
0.000905462
0.000912702
0.000890554
0.000853554
0.000804156
0.000754972
0.000709693
0.000668877
0.00063227
0.000599635
0.000570316
0.000543604
0.000518672
0.00049441
0.000469043
0.000447983
0.000405523
0.00131081
0.00258128
0.00226515
0.00261454
0.00286812
0.00313693
0.00340502
0.00365202
0.00385076
0.00396637
0.00403428
0.00400611
0.00380622
0.00331123
0.00241827
0.00147209
0.00140351
0.00134351
0.00113144
0.00192701
0.00267079
0.00310989
0.00313023
0.00247021
0.00211266
0.00186469
0.00167649
0.00152688
0.00139938
0.00128665
0.00118171
0.00107903
0.000986892
0.000907447
0.00102225
0.000514189
0.00166409
0.00360466
0.00267231
0.00382243
0.00427131
0.00465116
0.00499606
0.00529949
0.00555641
0.0057577
0.00595272
0.00615789
0.00634643
0.00645871
0.00638443
0.00584626
0.00427627
0.00164811
0.0014269
0.00305219
0.00426005
0.00483175
0.00439487
0.00115959
0.00100827
0.00089149
0.000800119
0.000727428
0.00066878
0.000620962
0.000582076
0.000551758
0.000606551
0.000713539
0.00113014
0.000585059
0.00200534
0.00485888
0.00255735
0.00429813
0.00496276
0.00531849
0.00558004
0.00577344
0.00591763
0.00603432
0.00620024
0.00648066
0.00688998
0.00740495
0.00792303
0.00817896
0.00768202
0.00573558
0.00164117
0.00379612
0.0056507
0.00659495
0.00682907
0.00583124
0.00132023
0.00120087
0.00110846
0.00103156
0.00096602
0.000907178
0.000851722
0.00079666
0.000737198
0.000688654
0.000713843
0.00122369
0.000644317
0.00234211
0.00643383
0.00258051
0.0040861
0.00510797
0.00541149
0.00552187
0.00552633
0.00547151
0.00542275
0.00549199
0.00576429
0.00626423
0.00697249
0.00779418
0.00855155
0.00903176
0.0090257
0.00809945
0.00824016
0.00843001
0.00845799
0.00828725
0.00775787
0.00617463
0.00533396
0.00475799
0.00429049
0.00383144
0.00338652
0.00295115
0.00251646
0.00207013
0.00159015
0.0012134
0.00121234
0.000959452
0.000768496
0.00101757
0.000976004
0.00267377
0.00819727
0.00303856
0.00344587
0.00489439
0.00523122
0.00520473
0.00501768
0.00475002
0.00452915
0.00452405
0.0048095
0.00537928
0.00620057
0.00716162
0.00812225
0.00893886
0.00946079
0.00955572
0.00946005
0.00929307
0.00905609
0.00875105
0.0083624
0.00779469
0.00724745
0.00675042
0.00627031
0.0057514
0.00519702
0.00460489
0.0039702
0.00328901
0.00256637
0.00191209
0.00143568
0.00111532
0.00125088
0.0021778
0.00116706
0.00301237
0.00982877
0.00404995
0.0028233
0.00439791
0.0049485
0.00488783
0.00458492
0.0041453
0.00375867
0.00374769
0.00410855
0.00476115
0.00567977
0.00672396
0.0077576
0.00864685
0.00928366
0.00957665
0.00955427
0.00934522
0.00902831
0.00866513
0.00830258
0.00795171
0.00762955
0.00732674
0.00700371
0.00661309
0.0061428
0.00558617
0.00494073
0.00420895
0.00340914
0.00262695
0.00189906
0.00139913
0.00124912
0.00221971
0.00137609
0.00330374
0.0110654
0.00552291
0.00268901
0.00348374
0.00438701
0.00451338
0.0042645
0.00374479
0.00321918
0.00333876
0.00381647
0.00454699
0.00549394
0.00657927
0.00766126
0.00858335
0.00922357
0.00951424
0.0094763
0.00920599
0.00880706
0.00837765
0.00799662
0.00770282
0.00749287
0.00732899
0.00715085
0.00690248
0.00655487
0.00609468
0.00551931
0.0048341
0.00405883
0.00325169
0.00243795
0.00170311
0.00115129
0.00317169
0.0018022
0.00339342
0.0104825
0.00683851
0.00347884
0.00236198
0.00289389
0.00338793
0.00343027
0.00302923
0.00294453
0.00325065
0.00381281
0.0046036
0.00560891
0.00674715
0.00786242
0.0087805
0.00937023
0.00957673
0.00943359
0.00904139
0.00852676
0.00801575
0.00760777
0.00734883
0.00722184
0.00716424
0.00709573
0.00695254
0.00670106
0.00632816
0.0058325
0.00522007
0.00450653
0.00372227
0.00284139
0.00163534
0.00148642
0.00485629
0.00206913
0.00332461
0.00845603
0.0070666
0.00477759
0.00315408
0.00244103
0.00231145
0.00242048
0.00262427
0.00294849
0.00340855
0.00404179
0.00490294
0.0059881
0.00718895
0.00831959
0.00918836
0.00966494
0.00971287
0.00939012
0.00882327
0.00817059
0.00758722
0.00718717
0.007004
0.00698306
0.00702305
0.0070224
0.0069292
0.00672507
0.00640402
0.00596557
0.00541264
0.00474974
0.00395833
0.00277379
0.00119014
0.00295973
0.00450154
0.00209035
0.00311414
0.00722929
0.00683481
0.00546917
0.00420773
0.00338643
0.00298013
0.00288804
0.00305601
0.00336542
0.00381532
0.00448437
0.00543654
0.00662734
0.00788939
0.0089947
0.00974075
0.0100147
0.00981533
0.00924126
0.00846286
0.00768252
0.007088
0.00678949
0.00675599
0.00685518
0.00695422
0.00695619
0.00685742
0.0066596
0.00635927
0.0059512
0.00542917
0.0047771
0.00392149
0.00251494
0.00126982
0.00323542
0.00454023
0.00207514
0.00283568
0.00652022
0.00659533
0.00579139
0.00492529
0.00427357
0.00388987
0.00375258
0.0037866
0.00397299
0.00438601
0.00513419
0.00623612
0.00755543
0.00884301
0.00983402
0.0103381
0.0102876
0.00974088
0.00885704
0.00787175
0.0070462
0.00657723
0.00648497
0.00657116
0.006703
0.00678753
0.00676283
0.00664752
0.00644779
0.00615706
0.00575634
0.00522156
0.00450385
0.00351991
0.00223013
0.00147322
0.00325413
0.00502974
0.00210315
0.00258627
0.00583586
0.00630091
0.0059195
0.0053628
0.00489555
0.00458488
0.00443278
0.00438676
0.00454514
0.00506973
0.00604836
0.00738235
0.00880932
0.0100093
0.0107195
0.0108082
0.0102901
0.00931282
0.00811707
0.00703171
0.00633462
0.00603297
0.00600763
0.00610655
0.0062248
0.00629213
0.00626584
0.00614644
0.00594338
0.00564401
0.00521166
0.00457766
0.00367338
0.00258725
0.00178138
0.00179052
0.0035116
0.00495655
0.00223471
0.00259531
0.00579315
0.00643945
0.00599264
0.00554158
0.00517242
0.00490609
0.00473238
0.00472271
0.00510824
0.00603494
0.00742247
0.0089861
0.0103599
0.0112244
0.0113976
0.0108685
0.00976589
0.00836595
0.00700637
0.00601985
0.00544929
0.00519958
0.00516012
0.00522745
0.00531405
0.00535926
0.00533074
0.00519733
0.00497357
0.00463148
0.00409686
0.00328563
0.00232814
0.00170375
0.00169073
0.00227865
0.00400442
0.00515584
0.00225608
0.00234237
0.00243608
0.00359203
0.00421867
0.00441144
0.00441302
0.0043686
0.00444675
0.00498268
0.00613311
0.0077578
0.00951303
0.0110094
0.0119226
0.0120679
0.0114202
0.0101429
0.00848143
0.00689573
0.00565824
0.00484224
0.00439344
0.00420623
0.00416119
0.00416722
0.00416465
0.00412129
0.00402553
0.00385745
0.00361152
0.0032753
0.00279614
0.00218771
0.00170786
0.00165902
0.00206634
0.00285849
0.00404998
0.0049416
0.00213697
0.000806842
0.00146296
0.00225634
0.00289476
0.00363408
0.0048885
0.00673804
0.00879903
0.0106813
0.0120874
0.0128108
0.0127197
0.0118276
0.0102422
0.00836781
0.00660368
0.00521819
0.00430983
0.00383002
0.00361257
0.003512
0.00344406
0.0033653
0.00325665
0.00311764
0.00296058
0.0028003
0.00262916
0.00244498
0.00223076
0.00199225
0.00184308
0.00197513
0.00246889
0.00323179
0.00399977
0.00425529
0.0020366
0.00149747
0.00207264
0.00302297
0.00472424
0.00704065
0.00937085
0.0111873
0.0125086
0.0133137
0.0135363
0.0130673
0.011806
0.00995863
0.00789263
0.00602216
0.00465261
0.00387813
0.00353244
0.00339469
0.00333155
0.00328232
0.0032214
0.0031415
0.00304711
0.00294895
0.00285726
0.00277594
0.00269961
0.00262402
0.0025486
0.0024808
0.00246058
0.00258943
0.00299169
0.0036943
0.00455705
0.00529288
0.00206916
0.00275777
0.0066804
0.00613484
0.00546962
0.00695099
0.00928442
0.011264
0.0126126
0.0133377
0.0135315
0.0132661
0.0124896
0.0111571
0.00932139
0.00726994
0.00547316
0.00431352
0.00377185
0.00358037
0.0035282
0.00351413
0.00349604
0.00345898
0.00340201
0.0033318
0.00325806
0.00319048
0.00313768
0.0031072
0.00310426
0.0031275
0.00317292
0.00323961
0.00335828
0.00358182
0.00398838
0.00468641
0.00590534
0.00610814
0.00228727
0.00263887
0.00509503
0.0065602
0.00838316
0.00931086
0.0102776
0.0108482
0.0109967
0.0107995
0.0103073
0.00952971
0.0084549
0.00711725
0.00569683
0.00449811
0.00375226
0.00340745
0.00329609
0.00329161
0.00332456
0.00335832
0.00337468
0.00336761
0.00333904
0.00329503
0.00324339
0.00319394
0.00316073
0.00316294
0.00322228
0.00335669
0.00356979
0.00383534
0.00410923
0.00443515
0.00490208
0.00558848
0.00670906
0.00658602
0.00238488
0.00247352
0.00212029
0.00211014
0.00217241
0.0022244
0.00216053
0.00203393
0.00188467
0.00173279
0.00158502
0.00144293
0.00131009
0.00119643
0.00111512
0.00107163
0.00105592
0.00105678
0.00106555
0.00107739
0.00108999
0.00110242
0.0011147
0.00112758
0.00114244
0.0011612
0.00118626
0.00122024
0.00126546
0.00132296
0.00139171
0.00146888
0.00155125
0.00163723
0.00172812
0.00182223
0.00192075
0.00202504
0.00213905
0.00226223
0.00218115
)
;

boundaryField
{
    floor
    {
        type            nutkWallFunction;
        Cmu             0.09;
        kappa           0.41;
        E               9.8;
        value           nonuniform List<scalar> 
36
(
0.000160535
7.63562e-05
0.000109532
0.000110393
0.000107756
0.000103334
9.73956e-05
9.14396e-05
8.59157e-05
8.09001e-05
7.63702e-05
7.23051e-05
6.863e-05
6.52615e-05
6.20991e-05
5.90035e-05
5.57466e-05
5.3026e-05
4.74902e-05
4.74901e-05
6.15281e-05
7.04804e-05
7.78638e-05
9.30822e-05
0.000122796
0.000117895
0.000160535
0.000174975
0.00016723
0.000160421
7.63562e-05
0.000160421
0.000136067
0.000194672
0.000169875
0.000193899
)
;
    }
    ceiling
    {
        type            nutkWallFunction;
        Cmu             0.09;
        kappa           0.41;
        E               9.8;
        value           nonuniform List<scalar> 
43
(
0.000284302
0.000246392
0.000245296
0.000252033
0.000257648
0.000250779
0.000237077
0.000220798
0.000204087
0.000187671
0.000171726
0.000156654
0.000143614
0.000134193
0.000129118
0.000127274
0.000127373
0.000128398
0.000129785
0.00013126
0.000132713
0.000134144
0.000135639
0.000137355
0.000139512
0.000142381
0.00014626
0.000151411
0.000157947
0.000165746
0.000174475
0.000183757
0.000193397
0.000203532
0.000213974
0.000224828
0.000236239
0.000248628
0.000261907
0.000253059
0.000270497
0.000280511
0.000177622
)
;
    }
    sWall
    {
        type            nutkWallFunction;
        Cmu             0.09;
        kappa           0.41;
        E               9.8;
        value           nonuniform List<scalar> 9(0.000373885 0.000352051 0.000322929 0.000296596 0.000297552 0.000270586 0.000314422 0.000301902 0.000284403);
    }
    nWall
    {
        type            nutkWallFunction;
        Cmu             0.09;
        kappa           0.41;
        E               9.8;
        value           nonuniform List<scalar> 
14
(
0.000117903
0.000140208
0.000164154
0.000243312
0.000241713
0.00024496
0.000259079
0.000261219
0.000248246
0.000237327
0.000241183
0.000264515
0.000274921
0.000253097
)
;
    }
    sideWalls
    {
        type            empty;
    }
    glass1
    {
        type            nutkWallFunction;
        Cmu             0.09;
        kappa           0.41;
        E               9.8;
        value           nonuniform List<scalar> 9(0.000108251 0.000156886 0.000196743 0.000234358 0.000270804 0.000306158 0.000341778 0.0003721 0.000381386);
    }
    glass2
    {
        type            nutkWallFunction;
        Cmu             0.09;
        kappa           0.41;
        E               9.8;
        value           nonuniform List<scalar> 2(0.000211921 0.000241129);
    }
    sun
    {
        type            nutkWallFunction;
        Cmu             0.09;
        kappa           0.41;
        E               9.8;
        value           nonuniform List<scalar> 
14
(
0.000108209
0.000115185
0.000114774
0.000119638
0.000124075
0.000128088
0.00013181
0.000135385
0.000138973
0.000142774
0.000146387
0.000149809
0.000153172
0.000156779
)
;
    }
    Table_master
    {
        type            nutkWallFunction;
        Cmu             0.09;
        kappa           0.41;
        E               9.8;
        value           nonuniform List<scalar> 9(0.000139318 0.000121682 0.000107865 9.69076e-05 8.80855e-05 8.08914e-05 7.49699e-05 7.01139e-05 6.63005e-05);
    }
    Table_slave
    {
        type            nutkWallFunction;
        Cmu             0.09;
        kappa           0.41;
        E               9.8;
        value           nonuniform List<scalar> 9(0.000157758 0.000144083 0.000133391 0.000124415 0.000116706 0.000109733 0.000103113 9.64901e-05 8.92771e-05);
    }
    inlet
    {
        type            calculated;
        value           uniform 0.000167705;
    }
    outlet
    {
        type            calculated;
        value           nonuniform List<scalar> 2(0.00275777 0.0066804);
    }
}


// ************************************************************************* //
