/*--------------------------------*- C++ -*----------------------------------*\
  =========                 |
  \\      /  F ield         | OpenFOAM: The Open Source CFD Toolbox
   \\    /   O peration     | Website:  https://openfoam.org
    \\  /    A nd           | Version:  6
     \\/     M anipulation  |
\*---------------------------------------------------------------------------*/
FoamFile
{
    version     2.0;
    format      ascii;
    class       surfaceScalarField;
    location    "29699.9999981796973";
    object      phi;
}
// * * * * * * * * * * * * * * * * * * * * * * * * * * * * * * * * * * * * * //

dimensions      [1 0 -1 0 0 0 0];

internalField   nonuniform List<scalar> 
1482
(
-0.00279974
0.00286377
-0.00348387
0.000684135
-0.00414444
0.000660567
-0.00475835
0.000613912
-0.00527951
0.000521154
-0.00569117
0.00041166
-0.00598213
0.000290962
-0.00613936
0.000157235
-0.00614557
6.2049e-06
-0.00597478
-0.000170786
-0.00559707
-0.000377716
-0.00498137
-0.000615696
-0.00405748
-0.000923891
-0.00257917
-0.00147831
-0.00257624
-6.33881e-05
6.82431e-05
0.000781697
-0.000845086
0.00143536
-0.000653663
0.00183583
-0.000400466
0.00205831
-0.000222482
0.002163
-0.000104692
0.00221035
-4.73543e-05
0.00223324
-2.2884e-05
0.00224312
-9.88043e-06
0.00224411
-9.96646e-07
0.00223708
7.03444e-06
0.00221802
1.90602e-05
0.00217362
4.43956e-05
0.00207065
0.000102973
0.00185358
0.00021707
0.00149533
0.000358246
0.00102265
0.000472688
0.00102909
-0.00204033
0.00507442
-0.00290836
0.00155217
-0.00369407
0.00144628
-0.00434493
0.00126477
-0.00488195
0.00105817
-0.00531043
0.000840143
-0.00562861
0.000609147
-0.00582974
0.000358357
-0.00590315
7.96241e-05
-0.00584106
-0.000232876
-0.00563765
-0.000581133
-0.00528156
-0.000971783
-0.0047716
-0.00143385
-0.00428576
-0.00196415
-0.00470154
-0.00216046
-0.00311604
-0.00158005
-0.0016338
-0.00147655
-0.00161895
0.00131836
-0.00123991
0.00166349
-0.00119022
0.00191623
-0.000906401
0.00210848
-0.000592721
0.00221678
-0.000330779
0.00222587
-0.00011378
0.00222777
-4.92583e-05
0.00222933
-2.44399e-05
0.00223026
-1.0817e-05
0.00223028
-1.01388e-06
0.00222894
8.37607e-06
0.00222475
2.32514e-05
0.00221209
5.70501e-05
0.00215007
0.000164997
0.00190008
0.000467058
0.00146986
0.000788468
0.000905004
0.00103754
0.00195097
-0.0014882
0.00682054
-0.00235898
0.00242295
-0.00312882
0.00221612
-0.00371286
0.00184881
-0.0041833
0.00152861
-0.00455447
0.00121132
-0.00482821
0.000882886
-0.00500131
0.000531454
-0.00506739
0.00014571
-0.00501741
-0.000282858
-0.00484061
-0.000757938
-0.0045295
-0.00128288
-0.00411486
-0.00184849
-0.0037173
-0.00236171
-0.00329684
-0.00258093
-0.00236569
-0.00251119
-0.00127235
-0.0025699
-0.00287847
0.00115135
-0.0023768
0.00165525
-0.00169411
0.00195413
-0.00120529
0.00214777
-0.000786357
0.0021796
-0.000362606
0.00206597
0.00201687
0.00199258
0.00198192
0.00198106
0.00198959
0.00201299
0.0020702
0.00223535
0.00187686
0.00082555
0.00142836
0.00123696
0.00080755
0.00165836
0.00278455
-0.001106
0.00825774
-0.0019278
0.00324476
-0.00256967
0.00285798
-0.00302983
0.00230897
-0.00339715
0.00189593
-0.00368568
0.00149986
-0.00389845
0.00109565
-0.00403362
0.000666624
-0.0040837
0.000195791
-0.00403552
-0.000331037
-0.00387678
-0.000916675
-0.0036033
-0.00155637
-0.00323758
-0.00221421
-0.00281541
-0.00278388
-0.00227578
-0.00312056
-0.00155599
-0.00323099
-0.000867668
-0.00325822
-0.000687111
-0.00305902
0.00144921
-0.00212087
0.00137943
-0.00230703
0.00169428
-0.00200896
0.00200649
-0.00151749
0.00227249
-0.00105236
0.00254767
-0.000637789
0.00286341
-0.000315891
0.00303199
-0.000168729
0.00309812
-6.62906e-05
0.00308237
1.56003e-05
0.00299348
8.87346e-05
0.00283237
0.000160952
0.00259113
0.000241086
0.00224673
0.000344249
0.00174177
0.000504809
0.00160507
0.000962252
0.00127734
0.00156469
0.000750018
0.00218568
0.00356885
-0.000803709
0.00945463
-0.00157975
0.0040208
-0.0020482
0.00332643
-0.00236372
0.00262449
-0.00260788
0.0021401
-0.0027932
0.00168517
-0.00292468
0.00122713
-0.00300305
0.000744994
-0.00302177
0.000214509
-0.00296423
-0.000388572
-0.00281716
-0.00106374
-0.00257351
-0.00180002
-0.00223977
-0.00254796
-0.00182302
-0.00320062
-0.00131744
-0.00362615
-0.000740687
-0.00380774
-0.000209219
-0.00378969
0.000268008
-0.00353625
0.00112862
-0.00298148
0.00149367
-0.00267208
0.00175162
-0.00226691
0.00200344
-0.00176931
0.00223299
-0.0012819
0.0024473
-0.000852098
0.00264948
-0.000518073
0.00276113
-0.000280385
0.00279909
-0.000104241
0.00277493
3.97515e-05
0.00269494
0.000168724
0.00256149
0.000294404
0.00237333
0.000429251
0.00212812
0.000589453
0.00183418
0.000798752
0.00162909
0.00116734
0.00148942
0.00170436
0.0013139
0.0023612
0.00230977
0.00257298
0.00134603
0.000998635
0.00189754
-0.000522921
0.00201595
-0.000575813
0.0104768
-0.00132463
0.00476961
-0.00158399
0.00358579
-0.00174969
0.00279019
-0.00186348
0.00225389
-0.0019348
0.00175649
-0.00197011
0.00126244
-0.0019737
0.000748591
-0.00194237
0.000183173
-0.00185439
-0.000476549
-0.0016999
-0.00121823
-0.00146882
-0.0020311
-0.00116401
-0.00285278
-0.000791327
-0.0035733
-0.00037121
-0.00404627
6.93366e-05
-0.00424829
0.000474648
-0.00419501
0.000848939
-0.00391055
0.00129935
-0.0034319
0.00159732
-0.00297006
0.00179967
-0.00246926
0.00197047
-0.00194011
0.00212194
-0.00143337
0.00225681
-0.000986966
0.00236277
-0.000624034
0.00242262
-0.000340239
0.00243568
-0.000117298
0.00240692
6.85122e-05
0.00234093
0.000234709
0.00224135
0.00039399
0.0021121
0.000558502
0.00196026
0.000741287
0.00180064
0.000958379
0.00171021
0.00125777
0.00176966
0.00164491
0.00198679
0.00214407
0.0022399
0.00231987
0.00176027
0.00147826
0.000830888
0.000406463
0.00294398
-0.000543525
0.0115126
-0.00124364
0.00546973
-0.00119162
0.00353377
-0.00119968
0.00279825
-0.00119181
0.00224602
-0.00115818
0.00172286
-0.00110095
0.00120521
-0.00102588
0.000673519
-0.000927362
8.46583e-05
-0.000778452
-0.000625459
-0.000589173
-0.00140751
-0.000348849
-0.00227143
-6.46169e-05
-0.00313701
0.00024064
-0.00387856
0.000550996
-0.00435663
0.000846421
-0.00454372
0.00110951
-0.0044581
0.00134267
-0.00414372
0.00157383
-0.00366306
0.0017326
-0.00312883
0.00183156
-0.00256822
0.00190092
-0.00200947
0.00195658
-0.00148903
0.00200382
-0.0010342
0.00203741
-0.000657623
0.00205147
-0.000354299
0.00204229
-0.00010812
0.00201031
0.000100492
0.00195829
0.000286736
0.00188966
0.000462612
0.00180936
0.000638804
0.00172576
0.000824892
0.00165409
0.00103005
0.00163856
0.00127329
0.00172639
0.00155708
0.00194328
0.00192718
0.00221288
0.00205027
0.00224227
0.00144886
0.00164587
0.00100286
0.00469226
-0.000483789
0.0125318
-0.00105159
0.00603753
-0.000697186
0.00317937
-0.000635996
0.00273706
-0.000567352
0.00217737
-0.000462444
0.00161795
-0.000333247
0.00107601
-0.00018189
0.000522162
7.41045e-06
-0.000104642
0.000225532
-0.000843581
0.000465388
-0.00164737
0.000723413
-0.00252945
0.000980801
-0.0033944
0.00120982
-0.00410757
0.00140965
-0.00455646
0.00157123
-0.0047053
0.0016892
-0.00457607
0.00176822
-0.00422274
0.0018207
-0.00371555
0.00182994
-0.00313807
0.00180435
-0.00254263
0.00176318
-0.0019683
0.00172155
-0.00144741
0.00168709
-0.000999745
0.00165986
-0.000630386
0.00163582
-0.000330264
0.00160991
-8.22049e-05
0.00157952
0.000130882
0.00154444
0.000321812
0.00150554
0.000501519
0.00146542
0.000678918
0.00142976
0.00086055
0.00140914
0.00105067
0.00142758
0.00125486
0.00151651
0.00146815
0.00173495
0.00170875
0.00205924
0.00172597
0.00223345
0.00127465
0.0017517
0.0014846
0.00680991
0.00297916
0.0101398
0.00202372
0.00699296
0.000870102
0.00433299
0.000371601
0.00323556
0.000214799
0.00233418
0.000271392
0.00156135
0.000425497
0.000921909
0.000639526
0.000308132
0.000898892
-0.000364008
0.00116395
-0.00110864
0.0014427
-0.00192611
0.00171007
-0.00279682
0.00193661
-0.00362093
0.00209794
-0.0042689
0.00218818
-0.0046467
0.0022099
-0.00472701
0.00217186
-0.00453803
0.00208769
-0.00413856
0.00197259
-0.00360045
0.00183228
-0.00299777
0.00167912
-0.00238947
0.00153023
-0.00181941
0.00140052
-0.00131769
0.00129848
-0.000897706
0.00122552
-0.000557423
0.0011768
-0.000281543
0.00114483
-5.02355e-05
0.00112387
0.000151836
0.00110988
0.000335803
0.00109999
0.00051141
0.00109335
0.000685555
0.00109139
0.000862515
0.00109819
0.00104387
0.00112415
0.0012289
0.00118753
0.00140477
0.00134936
0.00154691
0.00167603
0.00139931
0.00179642
0.00115427
0.000475604
0.00280537
0.00766835
0.00403345
0.00624661
0.00367003
0.00735638
0.00254412
0.00545889
0.00189049
0.0038892
0.00153385
0.00269082
0.00138907
0.00170614
0.00142301
0.000887965
0.00159762
0.000133524
0.00184988
-0.000616266
0.00212724
-0.001386
0.00240723
-0.0022061
0.00265254
-0.00304213
0.00282144
-0.00378983
0.00288686
-0.00433432
0.00284554
-0.00460536
0.00271129
-0.00459276
0.00250638
-0.00433312
0.00225507
-0.00388725
0.00198011
-0.0033255
0.00169866
-0.00271631
0.0014281
-0.00211891
0.00118658
-0.0015779
0.000989239
-0.00112035
0.00084294
-0.000751408
0.00074691
-0.000461393
0.000692306
-0.000226939
0.00066791
-2.58388e-05
0.000664321
0.000155425
0.000673936
0.000326189
0.000691209
0.000494137
0.00071262
0.000664144
0.00073521
0.000839925
0.000754802
0.00102427
0.000763028
0.00122067
0.000735814
0.00143198
0.000599547
0.00168318
-4.36621e-05
0.00204257
-0.0019332
0.00304392
-0.00330289
0.00417499
0.00446888
0.00241054
0.00400061
0.0033061
0.00646082
0.00324988
0.00551511
0.00303891
0.00410017
0.00284794
0.00288179
0.00272487
0.00182921
0.00271122
0.000901617
0.0028005
4.42494e-05
0.00296274
-0.000778509
0.00317363
-0.00159689
0.0033914
-0.00242387
0.00355601
-0.00320673
0.0036126
-0.00384641
0.00353448
-0.00425618
0.00332711
-0.00439798
0.00301666
-0.0042823
0.00263749
-0.00395395
0.00222293
-0.00347269
0.0018025
-0.00290507
0.00139973
-0.00231355
0.00103639
-0.00175557
0.000732448
-0.00127396
0.000502499
-0.0008904
0.000346366
-0.000595275
0.000255809
-0.000370835
0.000214385
-0.000185515
0.00020743
-1.88838e-05
0.000223662
0.000139193
0.000254754
0.000295098
0.000295202
0.000453689
0.000341023
0.000618323
0.000387146
0.000793802
0.000425528
0.000985893
0.000438877
0.00120732
0.000386275
0.00148458
0.000183319
0.00188614
-0.000407816
0.00263392
-0.00158981
0.00422633
-0.0020983
0.00468367
0.00248597
0.00145659
0.00273829
0.00274783
0.00516959
0.0034319
0.00483104
0.00371826
0.00381382
0.0038172
0.00278285
0.00384589
0.00180052
0.00388272
0.00086479
0.00395247
-2.54974e-05
0.00406274
-0.000888779
0.00420296
-0.00173711
0.00432189
-0.00254279
0.00434884
-0.00323368
0.00423218
-0.00372974
0.00395971
-0.0039837
0.00355394
-0.0039922
0.00305471
-0.00378306
0.00250576
-0.00340499
0.00194564
-0.00291257
0.00140827
-0.0023677
0.000919974
-0.00182525
0.000507989
-0.00134358
0.000191607
-0.00095758
-2.17801e-05
-0.000677014
-0.000147096
-0.000469959
-0.000208654
-0.000309278
-0.000227954
-0.000166214
-0.00021801
-2.88278e-05
-0.000187305
0.000108488
-0.000141487
0.000249279
-8.42035e-05
0.000396407
-1.81494e-05
0.00055227
5.33538e-05
0.0007223
0.000124649
0.000914598
0.000184544
0.00114743
0.000205118
0.001464
0.000131094
0.00196014
-3.50235e-06
0.00276856
-2.62111e-05
0.00424944
-9.2131e-05
0.00474994
0.00251962
0.00216844
0.000795823
0.002939
0.00439904
0.00359061
0.00417943
0.00416204
0.00324239
0.00449084
0.00245405
0.00466623
0.00162514
0.00478402
0.000746996
0.00488939
-0.000130868
0.0049959
-0.000995288
0.00507384
-0.00181505
0.00505796
-0.00252692
0.00488822
-0.00306393
0.00454214
-0.00338366
0.00403872
-0.00348026
0.00342294
-0.00337641
0.00274554
-0.00310565
0.00205473
-0.00271418
0.00138807
-0.0022459
0.00078392
-0.00176355
0.000267698
-0.00130903
-0.000121985
-0.000953902
-0.00037866
-0.000700906
-0.000527803
-0.000527874
-0.000605195
-0.000392569
-0.000638536
-0.000275938
-0.000640707
-0.000164043
-0.000619257
-5.02774e-05
-0.000579382
6.86138e-05
-0.000524426
0.000194324
-0.000456696
0.000328677
-0.000378017
0.000473592
-0.000288773
0.000633056
-0.000188858
0.000814684
-7.94705e-05
0.00103804
2.12784e-05
0.00136323
8.56162e-05
0.00189568
0.000241616
0.00261235
0.000818838
0.0036723
0.00119838
0.00437053
0.00384906
-0.00158087
0.00262179
0.00111492
0.00170325
0.00334753
0.00194682
0.00435094
0.00223899
0.00485601
0.00194898
0.00517195
0.0013092
0.00540108
0.000517864
0.00557913
-0.000308923
0.00567783
-0.00109402
0.00563573
-0.00177298
0.00540231
-0.00229351
0.00496597
-0.00262761
0.0043548
-0.00277248
0.00362191
-0.00274735
0.0028274
-0.00258188
0.00202107
-0.00229932
0.00125034
-0.00194344
0.000545173
-0.00154074
-4.80817e-05
-0.00117029
-0.000486084
-0.000871029
-0.000763859
-0.000676131
-0.000926163
-0.000538609
-0.00101833
-0.00043571
-0.001064
-0.000346906
-0.00107769
-0.000262249
-0.00106634
-0.00017539
-0.00103442
-8.2194e-05
-0.000986288
2.04811e-05
-0.000924983
0.00013302
-0.000852427
0.000256123
-0.000771206
0.000392372
-0.000682905
0.000544756
-0.000589031
0.000720815
-0.00049587
0.000944873
-0.000421312
0.0012886
-0.000347291
0.0018214
-9.37665e-05
0.00235832
0.000800469
0.00277768
0.00140207
0.00376858
0.00539077
0.00288348
0.00457155
0.00487075
0.00164761
0.00535729
0.00175245
0.00559453
0.00171174
0.00582669
0.00107703
0.00601383
0.000330717
0.00607876
-0.000373894
0.00595103
-0.000966338
0.0055979
-0.00141989
0.0050324
-0.00172804
0.00430183
-0.00189704
0.00346493
-0.00193557
0.0025807
-0.00186311
0.00170379
-0.00170496
0.0008668
-0.00146233
0.000109951
-0.00118658
-0.000509719
-0.000921064
-0.000951192
-0.000728822
-0.00122945
-0.000592781
-0.00140218
-0.000503413
-0.00150536
-0.000435446
-0.00156464
-0.000376444
-0.00159193
-0.000319627
-0.00159291
-0.000261271
-0.00157044
-0.000197846
-0.00152742
-0.000125202
-0.00146838
-3.85518e-05
-0.00139897
6.36186e-05
-0.00132409
0.000181243
-0.00124946
0.000317746
-0.00118375
0.000479045
-0.00113993
0.000677022
-0.0011344
0.000939413
-0.00116937
0.00132362
-0.00120712
0.00185901
-0.00118839
0.0023391
-0.0009358
0.00252432
-0.000617994
0.00344995
0.00492772
0.0079357
0.0053606
0.00581702
0.00387116
0.0055686
0.0019602
0.0056392
0.00100642
0.00560164
0.000368235
0.00535552
-0.000127834
0.00489002
-0.000500896
0.00424621
-0.000776116
0.00347846
-0.000960299
0.00264028
-0.00105885
0.00177385
-0.00106913
0.000916893
-0.00100615
0.000103697
-0.000891751
-0.000609685
-0.000748936
-0.0011685
-0.000627765
-0.00156196
-0.000527603
-0.00182779
-0.000463003
-0.00200024
-0.000420351
-0.00211572
-0.00038798
-0.00219355
-0.000357648
-0.00224297
-0.000327057
-0.00226737
-0.000295232
-0.00226776
-0.000260872
-0.00224403
-0.000221547
-0.00219596
-0.000173233
-0.00212473
-0.000109736
-0.00203836
-2.27344e-05
-0.00194774
9.06191e-05
-0.00186106
0.000231046
-0.00178981
0.00040778
-0.00175027
0.00063751
-0.00175864
0.000947929
-0.00181779
0.00138305
-0.00194201
0.00198356
-0.00236284
0.00276013
-0.00339425
0.00355574
-0.00355398
0.00360946
0.00154439
0.00411919
0.00148795
0.00451966
0.0034707
0.00374462
0.00273524
0.0032371
0.00151391
0.00288763
0.000717631
0.00251834
0.000241407
0.00206919
-5.17781e-05
0.00152846
-0.000235385
0.000916172
-0.000347993
0.000250668
-0.000393327
-0.000428911
-0.000389532
-0.00106474
-0.000370294
-0.00160869
-0.000347779
-0.0020324
-0.00032521
-0.00234532
-0.000314836
-0.00256412
-0.00030883
-0.00272254
-0.000304626
-0.00284454
-0.000298423
-0.0029427
-0.000289889
-0.0030207
-0.00027972
-0.00307885
-0.000268935
-0.00311616
-0.000257922
-0.00313062
-0.000246364
-0.00311912
-0.000232967
-0.00307763
-0.000214614
-0.00300222
-0.000185053
-0.00289113
-0.000133771
-0.00275437
-4.61593e-05
-0.002612
8.86086e-05
-0.00247634
0.000272022
-0.00235085
0.000511939
-0.00222716
0.000824273
-0.00208046
0.00123658
-0.0018712
0.00177474
-0.00159016
0.00247959
-0.00141413
0.00338015
-0.00120039
0.00339614
0.00052581
-0.00258966
-0.00674787
-0.00740609
-0.00745505
-0.00374746
-0.00217073
-0.00166748
0.00139069
-0.00075454
0.00182225
-0.000557972
0.00131729
-0.000640019
0.000799639
-0.000827401
0.00042877
-0.0010678
0.00018861
-0.00135395
5.07763e-05
-0.00168899
-1.29289e-05
-0.00204919
-3.3081e-05
-0.00240329
-3.53885e-05
-0.00272756
-4.59795e-05
-0.0029946
-8.07138e-05
-0.00319282
-0.000126974
-0.00334112
-0.000166569
-0.00346328
-0.000186737
-0.00357674
-0.000191265
-0.0036866
-0.000188678
-0.00379109
-0.000185503
-0.003886
-0.000184885
-0.00396706
-0.000187889
-0.00403016
-0.000194783
-0.00407052
-0.000205899
-0.00408201
-0.000221321
-0.00405741
-0.000239029
-0.00399003
-0.000252248
-0.00387567
-0.000247996
-0.00371325
-0.000208547
-0.0035117
-0.000113039
-0.0032923
5.241e-05
-0.00305877
0.000278162
-0.00277681
0.0005421
-0.00239098
0.000850671
-0.00180682
0.00119072
-0.000878942
0.00155202
0.000434134
0.00206741
0.00128492
0.00254573
0.00199085
-0.00733741
0.00104297
-0.00811138
-0.00668114
-0.0071681
-0.00311408
-0.00564951
-0.000127958
-0.00455683
0.000729508
-0.00396516
0.000725573
-0.00370604
0.000540501
-0.00363939
0.000362126
-0.00368116
0.000230399
-0.00377463
0.000144298
-0.00387739
8.98828e-05
-0.00396254
5.21242e-05
-0.00402105
2.31917e-05
-0.00406197
-5.01375e-06
-0.00410246
-4.02035e-05
-0.00415446
-7.50077e-05
-0.00422198
-9.91335e-05
-0.00430022
-0.00010862
-0.00438304
-0.000108585
-0.0044655
-0.000106352
-0.00454411
-0.000106991
-0.00461635
-0.000112689
-0.00468027
-0.000123953
-0.00473405
-0.000140903
-0.00477568
-0.000164096
-0.00480267
-0.000194087
-0.00481204
-0.000229377
-0.0048003
-0.000263708
-0.00476296
-0.000285101
-0.00469301
-0.000278377
-0.00457647
-0.000229626
-0.00439466
-0.000129665
-0.00413797
2.10437e-05
-0.00379205
0.000195734
-0.00330365
0.000361882
-0.00259066
0.000477477
-0.00145256
0.000413841
0.000426478
0.00018843
0.00161766
0.00135472
0.00379226
0.00158463
-0.00503191
-0.00808282
-0.00815129
-0.00736729
-0.00659493
-0.00601422
-0.00561661
-0.00535375
-0.00517872
-0.00505882
-0.00497662
-0.00492279
-0.00489651
-0.004905
-0.00494812
-0.00501532
-0.00509199
-0.00516858
-0.0052429
-0.00531787
-0.00539863
-0.0054909
-0.00560056
-0.00573408
-0.00589852
-0.00609942
-0.00633603
-0.00659551
-0.00684969
-0.00705635
-0.00716403
-0.00712172
-0.00690527
-0.00652313
-0.00602594
-0.00559313
-0.00538662
-0.00401475
)
;

boundaryField
{
    floor
    {
        type            calculated;
        value           nonuniform List<scalar> 
36
(
0
0
0
0
0
0
0
0
0
0
0
0
0
0
0
0
0
0
0
-6.43901e-06
-1.68824e-05
-2.6025e-05
-3.42902e-05
-3.48956e-05
-2.85949e-05
-2.85212e-05
-2.92053e-06
-5.44211e-06
-5.68846e-06
-5.90846e-06
-4.85475e-06
-8.93946e-06
-1.02087e-05
-1.2832e-05
-1.44559e-05
-1.54454e-05
)
;
    }
    ceiling
    {
        type            calculated;
        value           nonuniform List<scalar> 
43
(
-5.78081e-05
-6.46641e-05
-6.32533e-05
-5.95656e-05
-5.4553e-05
-4.68352e-05
-4.02106e-05
-3.54662e-05
-3.23988e-05
-3.06506e-05
-2.99211e-05
-2.99837e-05
-3.05622e-05
-3.12603e-05
-3.17287e-05
-3.19462e-05
-3.20262e-05
-3.20707e-05
-3.21101e-05
-3.21272e-05
-3.20833e-05
-3.19314e-05
-3.16235e-05
-3.11163e-05
-3.03779e-05
-2.93965e-05
-2.81933e-05
-2.6836e-05
-2.54408e-05
-2.41454e-05
-2.30601e-05
-2.22276e-05
-2.16173e-05
-2.11328e-05
-2.06262e-05
-1.99705e-05
-1.9115e-05
-1.81079e-05
-1.7079e-05
-1.66245e-05
1.93328e-05
1.5184e-05
-0.000246542
)
;
    }
    sWall
    {
        type            calculated;
        value           nonuniform List<scalar> 9(-0.000140238 -0.000164532 -0.000194272 -0.00022598 -0.000245094 -0.000281033 -0.000423413 -0.000453488 -0.000483865);
    }
    nWall
    {
        type            calculated;
        value           nonuniform List<scalar> 
14
(
-8.98821e-05
-9.71523e-05
-0.000102424
-0.000103479
-0.000115403
-0.000125571
-0.000131077
-0.000140105
-0.000155451
-0.000170996
-0.000181262
-0.000179853
-0.000183656
-0.000205759
)
;
    }
    sideWalls
    {
        type            empty;
        value           nonuniform 0();
    }
    glass1
    {
        type            calculated;
        value           nonuniform List<scalar> 9(-6.40339e-05 -0.00017032 -0.000257921 -0.000331203 -0.000393185 -0.000446388 -0.000492196 -0.000535476 -0.000587162);
    }
    glass2
    {
        type            calculated;
        value           nonuniform List<scalar> 2(-0.000365941 -0.000382878);
    }
    sun
    {
        type            calculated;
        value           uniform 0;
    }
    Table_master
    {
        type            calculated;
        value           nonuniform List<scalar> 9(-1.53991e-07 -1.54108e-07 -1.5414e-07 -1.5416e-07 -1.54173e-07 -1.54178e-07 -1.54177e-07 -1.54162e-07 -1.54109e-07);
    }
    Table_slave
    {
        type            calculated;
        value           nonuniform List<scalar> 9(1.53661e-07 1.53717e-07 1.53716e-07 1.53733e-07 1.53753e-07 1.53797e-07 1.53863e-07 1.53957e-07 1.54084e-07);
    }
    inlet
    {
        type            calculated;
        value           uniform -0.0116487;
    }
    outlet
    {
        type            calculated;
        value           nonuniform List<scalar> 2(0.0097609 0.0122714);
    }
}


// ************************************************************************* //
