/*--------------------------------*- C++ -*----------------------------------*\
  =========                 |
  \\      /  F ield         | OpenFOAM: The Open Source CFD Toolbox
   \\    /   O peration     | Website:  https://openfoam.org
    \\  /    A nd           | Version:  6
     \\/     M anipulation  |
\*---------------------------------------------------------------------------*/
FoamFile
{
    version     2.0;
    format      ascii;
    class       surfaceScalarField;
    location    "3330";
    object      phi;
}
// * * * * * * * * * * * * * * * * * * * * * * * * * * * * * * * * * * * * * //

dimensions      [1 0 -1 0 0 0 0];

internalField   nonuniform List<scalar> 
850
(
-0.00305312
0.00311358
-0.00414584
0.00109271
-0.00501494
0.000869098
-0.00570379
0.000688858
-0.00617587
0.00047208
-0.00639712
0.000221244
-0.0063279
-6.92167e-05
-0.00592407
-0.000403829
-0.00517381
-0.000750258
-0.00412864
-0.00104517
-0.00290033
-0.00122831
-0.00164151
-0.00125881
-0.000539003
-0.00110251
0.000135921
-0.000674924
0.000138272
-0.00092243
0.000926086
-0.000690049
-0.000232381
-6.08313e-05
-0.000629218
0.000542607
-0.000603439
0.00100179
-0.000459182
0.00125837
-0.000256577
0.00136648
-0.000108117
0.0014193
-5.28181e-05
0.00144966
-3.03546e-05
0.00146472
-1.50671e-05
0.00146833
-3.61174e-06
0.00146134
6.99898e-06
0.00143808
2.32529e-05
0.00137956
5.85194e-05
0.00125365
0.000125916
0.00105007
0.000203574
0.000793439
0.000256635
0.000798278
-0.00220746
0.00548445
-0.00329513
0.00218038
-0.00420835
0.00178232
-0.00490612
0.00138663
-0.00538763
0.000953591
-0.00563057
0.000464181
-0.00559454
-0.000105249
-0.00524033
-0.000758036
-0.00456681
-0.00142378
-0.00364275
-0.00196923
-0.00258805
-0.00228301
-0.00154151
-0.00230535
-0.000628665
-0.00201535
9.29422e-05
-0.00139653
0.000872776
-0.000641561
0.00114862
-0.000272065
0.000956849
0.000196135
0.000969538
4.14965e-05
0.00089559
0.000421747
-0.000612632
0.000786636
-0.000994106
0.00109961
-0.000916409
0.00135046
-0.000710032
0.00140692
-0.000313043
0.00141506
-0.000116254
0.00142578
-6.35435e-05
0.00143477
-3.93406e-05
0.00144004
-2.03352e-05
0.0014422
-5.77575e-06
0.00144181
7.38955e-06
0.00143633
2.87304e-05
0.00139988
9.49745e-05
0.001247
0.000278793
0.000978544
0.000472033
0.000644607
0.000590572
0.00145526
-0.00156234
0.00729721
-0.00251038
0.00312842
-0.00334302
0.00261496
-0.00396558
0.0020092
-0.00441316
0.00140117
-0.00466168
0.0007127
-0.00465601
-0.000110918
-0.00433471
-0.00107933
-0.00371316
-0.00204533
-0.00288873
-0.00279367
-0.0019866
-0.00318514
-0.00112266
-0.0031693
-0.000373451
-0.00276456
0.000240554
-0.00201054
0.000752061
-0.00115307
0.000899417
-0.000419421
0.000707526
0.000388027
0.00168833
0.00143724
-0.000527814
0.00163274
-0.000808134
0.00157515
-0.000936509
0.00160843
-0.000949697
0.0018117
-0.000913296
0.00149881
0.00138271
0.00131932
0.00128013
0.00125995
0.00125433
0.00126187
0.00129076
0.00138588
0.00115886
0.000505817
0.000869981
0.000760912
0.000498883
0.00096167
0.00197272
-0.00109548
0.00871734
-0.00185228
0.00388522
-0.00243661
0.00319928
-0.00288269
0.00245528
-0.00322782
0.00174629
-0.00344068
0.000925563
-0.00344208
-0.000109514
-0.00312366
-0.00139775
-0.00254779
-0.0026212
-0.00184607
-0.00349539
-0.00113041
-0.0039008
-0.000480678
-0.00381902
6.57991e-05
-0.00331104
0.000526397
-0.00247113
0.000902499
-0.00152917
0.00111958
-0.000636499
0.00130377
0.000203838
0.00225754
0.000734552
0.00216772
0.000101761
0.00199495
-0.000355049
0.00190899
-0.00072217
0.00179819
-0.00082571
0.00166599
-0.000817496
0.00143503
-0.000682334
0.00175863
-0.00032376
0.0019363
-0.00017782
0.00206723
-0.000131083
0.00216802
-0.000100942
0.00222824
-6.03797e-05
0.00222569
2.40544e-06
0.00213279
9.27384e-05
0.00191324
0.000219401
0.00150708
0.000406003
0.00126969
0.000743212
0.000902427
0.00112817
0.000384079
0.00148002
0.00238043
-0.000756061
0.00986112
-0.00132705
0.00445621
-0.00150963
0.00338186
-0.00168822
0.00263387
-0.0018532
0.00191127
-0.00196222
0.00103459
-0.00191376
-0.000157975
-0.00155672
-0.00175479
-0.0010557
-0.00312222
-0.000537791
-0.0040133
-7.32952e-05
-0.00436529
0.000305361
-0.00419768
0.000596532
-0.00360221
0.000849413
-0.00272402
0.00106876
-0.00174851
0.00127616
-0.000843908
0.00158684
-0.000106843
0.00203041
0.000290988
0.00206428
6.78866e-05
0.00199698
-0.000287741
0.00181248
-0.000537675
0.00162461
-0.000637835
0.00144751
-0.000640403
0.00131883
-0.000553648
0.00137758
-0.000382515
0.00146564
-0.00026588
0.00155011
-0.000215554
0.0016316
-0.00018243
0.00170173
-0.000130514
0.00174076
-3.66244e-05
0.0017247
0.000108805
0.00163844
0.000305664
0.0014862
0.000558239
0.00133011
0.000899298
0.00115113
0.00130715
0.000804096
0.00182705
0.00101982
0.00216472
-0.00109517
0.0021361
-0.00179343
0.000717875
-0.00172066
-0.000638722
0.0109406
-0.00101438
0.00483187
-0.000633429
0.00300091
-0.00044868
0.00244912
-0.000384052
0.00184664
-0.000303691
0.000954227
-5.19002e-05
-0.000409766
0.000334509
-0.0021412
0.000692194
-0.00347991
0.000952042
-0.00427315
0.00109506
-0.00450831
0.00114539
-0.00424801
0.00113929
-0.00359611
0.0011161
-0.00270083
0.00110063
-0.00173305
0.0011328
-0.000876075
0.00126987
-0.000243911
0.00148464
7.62092e-05
0.00153591
1.66185e-05
0.00143794
-0.000189769
0.00126356
-0.000363298
0.0010839
-0.000458169
0.000926594
-0.0004831
0.000821567
-0.000448621
0.000810766
-0.000371714
0.00086011
-0.000315224
0.000936277
-0.000291721
0.00102702
-0.000273174
0.00112585
-0.000229344
0.00122286
-0.000133628
0.00129577
3.58933e-05
0.00133283
0.000268603
0.00134813
0.000542938
0.00138215
0.000865279
0.0014826
0.0012067
0.00168608
0.00162357
0.00203682
0.00181398
0.00233694
0.00183598
0.00182999
0.00122483
0.000174762
-0.000763862
0.0121918
-0.00062147
0.00468948
0.000492304
0.00188713
0.000960658
0.00198076
0.00121802
0.00158928
0.00159953
0.000572718
0.00210282
-0.00091306
0.00243999
-0.00247836
0.00257379
-0.00361371
0.00250624
-0.0042056
0.00227302
-0.00427509
0.00193605
-0.00391104
0.00155912
-0.00321918
0.00120037
-0.00234207
0.000896637
-0.00142931
0.000705099
-0.000684538
0.000653509
-0.00019232
0.000704676
2.50426e-05
0.000712762
8.5324e-06
0.000636503
-0.00011351
0.000509177
-0.000235973
0.000368878
-0.00031787
0.000242977
-0.000357198
0.000156865
-0.000362509
0.000133903
-0.000348753
0.000162911
-0.000344232
0.00022254
-0.000351351
0.000302996
-0.00035363
0.000405283
-0.000331631
0.000534372
-0.000262717
0.000687275
-0.00011701
0.000845214
0.000110664
0.00100722
0.000380935
0.00120907
0.000663428
0.00148366
0.00093211
0.00188404
0.0012232
0.00241743
0.00128059
0.00318504
0.00106837
0.00336162
0.00104825
0.00360519
0.00273596
0.00999914
0.00339174
0.0040337
0.00344939
0.00182948
0.00353507
0.00189508
0.00374635
0.001378
0.00422227
9.67935e-05
0.00469343
-0.00138421
0.00478846
-0.00257339
0.00451413
-0.00333938
0.00396097
-0.00365244
0.0032298
-0.00354392
0.0024248
-0.00310604
0.00162795
-0.00242233
0.000922034
-0.00163616
0.000347361
-0.000854641
-2.5251e-06
-0.000334652
-0.000140839
-5.40061e-05
-0.000155265
3.94682e-05
-0.000163114
1.63815e-05
-0.000215242
-6.13825e-05
-0.00030606
-0.000145154
-0.000412287
-0.000211643
-0.000511605
-0.000257881
-0.000585871
-0.000288242
-0.000623866
-0.000310758
-0.000633077
-0.00033502
-0.000625251
-0.000359177
-0.000604687
-0.000374195
-0.000566405
-0.000369913
-0.000494185
-0.000334937
-0.00035672
-0.000254474
-0.00014659
-9.9467e-05
0.000104176
0.000130169
0.000388871
0.000378734
0.000707314
0.000613668
0.00108959
0.000840923
0.00150689
0.000863287
0.00189864
0.000676623
0.00120604
0.00174085
0.00509764
0.0105981
0.0146276
0.0125614
0.00389562
0.0112293
0.00322724
0.0103408
0.00226647
0.009534
0.000903616
0.00853157
-0.000381787
0.00735264
-0.00139446
0.00607935
-0.00206609
0.00476051
-0.0023336
0.00342929
-0.0022127
0.00216424
-0.00184099
0.00100939
-0.00126748
5.63375e-05
-0.000683105
-0.000566083
-0.000232221
-0.000859671
-4.10636e-05
-0.000956808
4.31302e-05
-0.000976466
5.91265e-05
-0.000991853
3.17686e-05
-0.00103528
-1.79523e-05
-0.00110786
-7.25773e-05
-0.00119689
-0.000122613
-0.00128869
-0.000166076
-0.00137432
-0.000202622
-0.00145151
-0.000233566
-0.00152704
-0.000259483
-0.0016102
-0.000276017
-0.00170952
-0.000274878
-0.00183466
-0.000244777
-0.00199851
-0.000171083
-0.00221651
-3.64782e-05
-0.00248301
0.000167033
-0.00280698
0.00045414
-0.00327095
0.000842705
-0.00398815
0.00133087
-0.0050297
0.00188247
-0.00651691
0.0023505
-0.00825536
0.00241507
-0.00777181
0.0012573
-0.00235716
0.00895046
0.00560354
0.0074719
0.00470581
0.00708003
0.00265833
0.00672921
0.00125444
0.00611922
0.000228196
0.0052468
-0.000522041
0.0041782
-0.000997487
0.00298278
-0.00113819
0.00169117
-0.000921086
0.000430286
-0.000580102
-0.000609588
-0.000227609
-0.00127079
-2.19043e-05
-0.00156326
6.02504e-05
-0.00167793
7.36092e-05
-0.0017079
7.30992e-05
-0.00171367
6.48953e-05
-0.00172869
4.67876e-05
-0.00176749
2.08538e-05
-0.00183141
-8.66141e-06
-0.00191295
-4.10685e-05
-0.00200446
-7.45743e-05
-0.00210376
-0.000103317
-0.00221221
-0.000125117
-0.00233323
-0.000138461
-0.00246896
-0.000140287
-0.00261827
-0.00012557
-0.00277573
-8.73147e-05
-0.002929
-1.7812e-05
-0.00306255
9.70717e-05
-0.00317483
0.000279307
-0.00327577
0.000555082
-0.00337728
0.000944212
-0.0034861
0.00143969
-0.00356961
0.00196597
-0.00356798
0.00234888
-0.00331002
0.00215711
-0.00195003
-0.000102691
-0.00422386
-0.000826103
0.00648295
0.000742091
0.00313762
0.00140779
0.00199264
0.00164668
0.00101555
0.00158284
0.000292038
0.00121181
-0.000151016
0.000529571
-0.000315244
-0.000363867
-0.00024475
-0.00124117
-4.37814e-05
-0.00188645
6.51725e-05
-0.00222716
0.000113103
-0.00235811
0.000109048
-0.0023812
8.33422e-05
-0.00237097
6.33798e-05
-0.0023499
5.20319e-05
-0.00232934
4.43326e-05
-0.00231835
3.58002e-05
-0.00232223
2.47332e-05
-0.0023416
1.07095e-05
-0.00237544
-7.22794e-06
-0.00242403
-2.59862e-05
-0.00248538
-4.19675e-05
-0.0025574
-5.31039e-05
-0.00263755
-5.83039e-05
-0.00272179
-5.60482e-05
-0.00280353
-4.3832e-05
-0.0028733
-1.75445e-05
-0.00291855
2.74337e-05
-0.00291853
9.70527e-05
-0.00284796
0.000208744
-0.00267232
0.000379433
-0.00236026
0.000632152
-0.00190395
0.000983386
-0.00128938
0.0013514
-0.000299692
0.00135919
0.00114764
0.000709775
0.00164261
-0.00059766
-0.00248957
-0.0120486
-0.0155771
-0.00905366
-0.00588863
-0.00387372
-0.00283957
-0.00253251
-0.00267152
-0.00297683
-0.00321308
-0.00324919
-0.00317674
-0.0030565
-0.00294034
-0.00284987
-0.00277934
-0.00272013
-0.00266858
-0.00262551
-0.00259347
-0.00257545
-0.0025754
-0.00259419
-0.00262908
-0.00267523
-0.00272673
-0.00277613
-0.00281348
-0.00282474
-0.00279123
-0.00268832
-0.00247395
-0.00208914
-0.00145188
-0.000463684
0.000892142
0.00225548
0.0029693
0.00237582
)
;

boundaryField
{
    floor
    {
        type            calculated;
        value           nonuniform List<scalar> 
36
(
0
0
0
0
0
0
0
0
0
0
0
0
0
0
0
0
0
0
0
-4.83914e-06
-1.23782e-05
-1.85697e-05
-2.36403e-05
-2.11163e-05
-1.96191e-05
-1.84535e-05
-2.35097e-06
-3.78399e-06
-4.35946e-06
-5.04476e-06
-3.6566e-06
-7.64391e-06
-1.10004e-05
-1.12622e-05
-1.38364e-05
-1.19393e-05
)
;
    }
    ceiling
    {
        type            calculated;
        value           nonuniform List<scalar> 
43
(
-4.18437e-05
-4.11784e-05
-4.04781e-05
-2.7414e-05
-2.227e-05
-1.8605e-05
-1.50291e-05
-1.20045e-05
-9.92929e-06
-8.50207e-06
-7.6663e-06
-7.28583e-06
-7.13813e-06
-7.11138e-06
-7.12502e-06
-7.14642e-06
-7.17762e-06
-7.22045e-06
-7.26677e-06
-7.30737e-06
-7.31497e-06
-7.27623e-06
-7.19275e-06
-7.0812e-06
-6.95236e-06
-6.80922e-06
-6.64853e-06
-6.47533e-06
-6.28383e-06
-6.07873e-06
-5.85909e-06
-5.62519e-06
-5.37655e-06
-5.10588e-06
-4.81126e-06
-4.42486e-06
-4.13953e-06
-4.04929e-06
-4.18133e-06
-3.60358e-06
6.94077e-06
4.1789e-06
-5.3314e-05
)
;
    }
    sWall
    {
        type            calculated;
        value           uniform -0.000241398;
    }
    nWall
    {
        type            calculated;
        value           nonuniform List<scalar> 6(-5.43171e-05 -6.54339e-05 -6.88139e-05 -8.3326e-05 -9.16845e-05 -0.00011014);
    }
    sideWalls
    {
        type            empty;
        value           nonuniform 0();
    }
    glass1
    {
        type            calculated;
        value           nonuniform List<scalar> 9(-6.04583e-05 -0.000163402 -0.000250424 -0.000324646 -0.000387723 -0.000440785 -0.000487276 -0.000543336 -0.000605862);
    }
    glass2
    {
        type            calculated;
        value           nonuniform List<scalar> 2(-0.000286411 -0.000317012);
    }
    sun
    {
        type            calculated;
        value           uniform 0;
    }
    Table_master
    {
        type            calculated;
        value           nonuniform List<scalar> 9(-1.5364e-07 -1.53789e-07 -1.53839e-07 -1.53869e-07 -1.53889e-07 -1.53902e-07 -1.53906e-07 -1.539e-07 -1.5387e-07);
    }
    Table_slave
    {
        type            calculated;
        value           nonuniform List<scalar> 9(1.5353e-07 1.53515e-07 1.53468e-07 1.53431e-07 1.53408e-07 1.53408e-07 1.53413e-07 1.53451e-07 1.53535e-07);
    }
    inlet
    {
        type            calculated;
        value           uniform -0.0106584;
    }
    outlet
    {
        type            calculated;
        value           nonuniform List<scalar> 2(0.0123318 0.00356969);
    }
}


// ************************************************************************* //
