/*--------------------------------*- C++ -*----------------------------------*\
  =========                 |
  \\      /  F ield         | OpenFOAM: The Open Source CFD Toolbox
   \\    /   O peration     | Website:  https://openfoam.org
    \\  /    A nd           | Version:  6
     \\/     M anipulation  |
\*---------------------------------------------------------------------------*/
FoamFile
{
    version     2.0;
    format      ascii;
    class       volScalarField;
    location    "470";
    object      alphat;
}
// * * * * * * * * * * * * * * * * * * * * * * * * * * * * * * * * * * * * * //

dimensions      [1 -1 -1 0 0 0 0];

internalField   nonuniform List<scalar> 
458
(
0.00132966
0.00145365
0.00149244
0.00156732
0.00163799
0.00170756
0.0017814
0.00184779
0.00189791
0.00192098
0.00190585
0.00183689
0.00162396
0.00137453
0.00116058
0.00061087
0.000716766
0.000811932
0.000845382
0.000831117
0.000779382
0.000722753
0.000671908
0.000627595
0.000588888
0.00055492
0.000525132
0.000498527
0.000474121
0.000450822
0.000427272
0.000412501
0.00037899
0.00177283
0.00406322
0.00378211
0.00434183
0.00490798
0.00546262
0.00588087
0.00630108
0.0067197
0.00708604
0.00735033
0.00745968
0.00727461
0.00649427
0.00420189
0.00144548
0.00125063
0.00104977
0.000601804
0.00152612
0.0022531
0.00279566
0.00291754
0.00208002
0.00174728
0.00152763
0.00136749
0.00124541
0.00114859
0.00106214
0.000980131
0.000896999
0.000822005
0.000758646
0.000921893
0.000492384
0.00213685
0.00541143
0.00450079
0.00535499
0.00569053
0.00592891
0.00612993
0.00640824
0.00677871
0.00722726
0.00772089
0.00817719
0.00840764
0.00806004
0.00697613
0.0051734
0.00376657
0.00117419
0.000870726
0.00167231
0.00253304
0.00334187
0.00347384
0.00102888
0.000898855
0.000791325
0.000704793
0.000635383
0.000579442
0.000534383
0.000498323
0.000470964
0.000526934
0.000616366
0.00108448
0.000579776
0.00248226
0.0068004
0.00435453
0.00541226
0.00547953
0.00542615
0.00548327
0.00569354
0.00604951
0.00656116
0.00720184
0.00783356
0.00822017
0.00814998
0.00767224
0.00672138
0.00529769
0.00273534
0.00129292
0.00189016
0.00278155
0.00379821
0.00457986
0.00447864
0.00114773
0.00105109
0.000985451
0.000936267
0.00089345
0.000851403
0.000810927
0.000767918
0.000717538
0.000670294
0.000671671
0.0013052
0.000660983
0.00283106
0.00866161
0.00447385
0.00512639
0.00517287
0.00496442
0.0049981
0.0052261
0.00559425
0.00614656
0.00685863
0.00751206
0.00784296
0.00782103
0.00757345
0.00712068
0.00626633
0.00483078
0.00454314
0.00499054
0.00561777
0.00616692
0.00643406
0.00627642
0.00525654
0.00474965
0.00447096
0.0042673
0.00405757
0.00376624
0.00333298
0.00279941
0.00221258
0.00166207
0.00124311
0.00124273
0.00110647
0.000883412
0.000925973
0.00100025
0.00320265
0.0107663
0.00590048
0.00478775
0.00502092
0.00489304
0.00485911
0.0051045
0.00547333
0.00603751
0.00674576
0.00737127
0.00763476
0.00753948
0.00735384
0.00724287
0.00707289
0.00674651
0.0070106
0.00755551
0.00787755
0.00790341
0.00766225
0.00721837
0.00664298
0.00619731
0.00586527
0.00557964
0.00530092
0.00500288
0.00459643
0.00405504
0.00338849
0.00266128
0.0020197
0.0014718
0.00127186
0.00116055
0.0014679
0.00103933
0.0035707
0.0123403
0.00863411
0.00560577
0.00499942
0.00513131
0.0051276
0.00524956
0.00556512
0.00611539
0.00682708
0.00744049
0.00763318
0.00747255
0.00743724
0.00778446
0.00813529
0.00838557
0.00880169
0.00904405
0.00891609
0.00848679
0.00786617
0.00716803
0.00651589
0.0060249
0.00567082
0.00538591
0.00513545
0.00491374
0.0047146
0.0043993
0.00390685
0.00328024
0.0026664
0.00210272
0.00177943
0.001689
0.00163675
0.00124395
0.00366165
0.0113998
0.00953209
0.00774269
0.00661695
0.00609919
0.00562942
0.00552669
0.00579107
0.00635269
0.00708378
0.0076788
0.00777899
0.00764526
0.00807782
0.00864004
0.00895686
0.00918336
0.00932619
0.0091535
0.00862304
0.00785512
0.00699969
0.00620218
0.00557865
0.00515397
0.00486174
0.00464289
0.0044791
0.00437491
0.00433947
0.00434159
0.00413825
0.00374623
0.00339924
0.00324533
0.00341773
0.00376194
0.00466123
0.00191962
0.00358905
0.00434494
0.00487671
0.00508306
0.00504489
0.00499677
0.00512716
0.00549774
0.00603614
0.00673361
0.00750235
0.00802918
0.00798206
0.00811483
0.00848716
0.00868759
0.00874798
0.00872127
0.00849792
0.00797396
0.00719919
0.00633739
0.00555188
0.00494067
0.00451009
0.00420396
0.00396247
0.0037551
0.00357333
0.00341458
0.00327366
0.00314092
0.00303239
0.00294841
0.00290907
0.00290095
0.0028504
0.00270534
0.0025161
0.0017644
0.00185065
0.00312823
0.00419063
0.00507061
0.00587223
0.00648929
0.00691879
0.00744175
0.00795908
0.0083441
0.00822732
0.00809769
0.00787059
0.00763307
0.00742653
0.00716245
0.00674774
0.00617918
0.00554645
0.00497783
0.00453115
0.00419848
0.00394039
0.00371892
0.00351314
0.00332014
0.00314878
0.00301332
0.00292872
0.00289726
0.00289357
0.002903
0.00290662
0.00286402
0.00271982
0.00245795
0.00212153
0.00141915
0.00256939
0.0051004
0.00643008
0.00730916
0.00766038
0.00714155
0.00671717
0.00684588
0.00672643
0.00669422
0.00658044
0.00634417
0.00610166
0.00591328
0.00573191
0.00549806
0.00518574
0.00481566
0.00445575
0.00415373
0.00391149
0.00371411
0.00354674
0.00340112
0.00327595
0.00317333
0.00309394
0.00303292
0.00300861
0.00302573
0.0030755
0.00314302
0.00320466
0.0032385
0.00320111
0.00315009
0.00272047
0.00143803
0.00267088
0.00272618
0.00278024
0.00309789
0.00280916
0.00233168
0.00187779
0.0016754
0.00152357
0.00142892
0.0013663
0.0013042
0.00125128
0.00121332
0.00118698
0.00116468
0.00114084
0.0011128
0.0010823
0.00105524
0.00103397
0.0010184
0.00100865
0.00100442
0.00100567
0.00101266
0.00102592
0.00104617
0.00107448
0.00111274
0.0011598
0.00121562
0.00128009
0.00135319
0.0014344
0.0015357
0.00157776
0.00154548
0.00143906
0.00132902
)
;

boundaryField
{
    floor
    {
        type            compressible::alphatWallFunction;
        Prt             0.85;
        value           nonuniform List<scalar> 
36
(
0.00016462
8.59301e-05
0.000101587
0.000115421
0.000120237
0.000118187
0.000110714
0.000102466
9.49935e-05
8.8425e-05
8.26412e-05
7.75269e-05
7.301e-05
6.89488e-05
6.51993e-05
6.15972e-05
5.79323e-05
5.56206e-05
5.03366e-05
5.0336e-05
6.80084e-05
8.12746e-05
9.33818e-05
0.000125699
0.000131768
0.000142273
0.000164619
0.000203549
0.000177032
0.000149197
8.59291e-05
0.000149195
8.45744e-05
0.000166502
0.000123867
0.000182827
)
;
    }
    ceiling
    {
        type            compressible::alphatWallFunction;
        Prt             0.85;
        value           nonuniform List<scalar> 
43
(
0.00036291
0.000369885
0.000376691
0.000416503
0.000380468
0.00031995
0.000261166
0.00023447
0.000214211
0.000201465
0.000192981
0.000184523
0.000177279
0.00017206
0.000168428
0.000165347
0.000162045
0.00015815
0.000153901
0.000150119
0.000147138
0.000144952
0.00014358
0.000142985
0.000143161
0.000144145
0.000146008
0.000148848
0.000152809
0.000158141
0.000164671
0.000172378
0.00018123
0.000191205
0.000202217
0.000215855
0.000221488
0.000217167
0.000202848
0.000187919
0.000477402
0.00056906
0.000349967
)
;
    }
    sWall
    {
        type            compressible::alphatWallFunction;
        Prt             0.85;
        value           uniform 0.000361611;
    }
    nWall
    {
        type            compressible::alphatWallFunction;
        Prt             0.85;
        value           nonuniform List<scalar> 6(0.000142033 0.000147517 0.000175887 0.000199793 0.000202344 0.000187554);
    }
    sideWalls
    {
        type            empty;
    }
    glass1
    {
        type            compressible::alphatWallFunction;
        Prt             0.85;
        value           nonuniform List<scalar> 9(0.000182783 0.000241297 0.000288295 0.00033219 0.000375932 0.000421964 0.000467054 0.000478272 0.0004697);
    }
    glass2
    {
        type            compressible::alphatWallFunction;
        Prt             0.85;
        value           nonuniform List<scalar> 2(0.000264305 0.00024411);
    }
    sun
    {
        type            compressible::alphatWallFunction;
        Prt             0.85;
        value           nonuniform List<scalar> 
14
(
0.000187855
0.00020465
0.000209874
0.000219921
0.000229354
0.000238595
0.000248361
0.000257101
0.000263677
0.000266697
0.000264716
0.000255668
0.000227487
0.000193942
)
;
    }
    Table_master
    {
        type            compressible::alphatWallFunction;
        Prt             0.85;
        value           nonuniform List<scalar> 9(0.000146478 0.000128084 0.000112634 0.000100019 8.97647e-05 8.14002e-05 7.45901e-05 6.90885e-05 6.48809e-05);
    }
    Table_slave
    {
        type            compressible::alphatWallFunction;
        Prt             0.85;
        value           nonuniform List<scalar> 9(0.000163059 0.000149595 0.00014037 0.00013341 0.000127316 0.000121297 0.000115471 0.000109241 0.000101891);
    }
    inlet
    {
        type            fixedValue;
        value           uniform 1.94e-05;
    }
    outlet
    {
        type            zeroGradient;
    }
}


// ************************************************************************* //
