/*--------------------------------*- C++ -*----------------------------------*=========                 |
  \      /  F ield         | OpenFOAM: The Open Source CFD Toolbox
   \    /   O peration     | Website:  https://openfoam.org
    \  /    A nd           | Version:  6
     \/     M anipulation  |
\*---------------------------------------------------------------------------*/
FoamFile
{
    version     2.0;
    format      ascii;
    class       volScalarField;
    location    "470";
    object      PMV;
}
// * * * * * * * * * * * * * * * * * * * * * * * * * * * * * * * * * * * * * //

dimensions      [0 0 0 0 0 0 0];

internalField   nonuniform List<scalar> 
458
(
1.3251172384292602
1.0795970082602964
1.0461618562043091
1.0172734100188932
0.9988734273309618
0.9903829909347445
0.9931900104169302
1.0083289017243833
1.038080011976299
1.0867827864661666
1.1581097577984834
1.2266194365060261
1.2423754850132032
1.2504919224872815
1.2629048660687325
1.380320464279156
1.3669591486134445
1.3631414715716366
1.3698223606662288
1.3750714798600385
1.378888936548532
1.37462651404714
1.3707156124181714
1.3716141252365437
1.3734559511138351
1.376386192956635
1.3800690658340196
1.3843817827938687
1.3912466623959727
1.4024714089513624
1.4122885289406875
1.4165823365074932
1.430894296189274
1.257968944657102
1.0917736009265566
1.0790197411832445
1.0505898205401123
1.0338695741185524
1.0256036455780044
1.0269699560294772
1.0356493204682318
1.0497738268085235
1.074694649013967
1.1156605455468016
1.1772324331468038
1.2395108081603088
1.2500144910736133
1.2531834969587248
1.2119085057787953
1.2136096225312791
1.2372178825105846
1.3353062154490332
1.35359697857064
1.3531197427976707
1.3612326071230012
1.3636006381521038
1.3637923413926207
1.363859223160052
1.3654478159816852
1.3666177478894372
1.366891695547282
1.3677974087517542
1.3690742779902594
1.3706594280751039
1.3742357270469405
1.3828230372608519
1.3917723168791385
1.398929385480215
1.3832301422677922
1.2891865046015722
1.0830003881770118
1.112375837613615
1.097508277071949
1.0903912063017367
1.0869437207305634
1.0870473924020199
1.0829727018944937
1.0692090136649828
1.0573988436539334
1.0687889925806586
1.118975090676603
1.21217714264147
1.2566984605300413
1.2633822763127878
1.2662467209025545
1.2636899065573364
1.24724886665732
1.2450448929721492
1.307061879256546
1.3163267533723926
1.3251843615638312
1.3364976505745372
1.3407516861575444
1.3638755178661834
1.378888936548532
1.3793661135858937
1.3798432894966126
1.380320464279156
1.3807976379321338
1.3812748104541381
1.3822291520993737
1.3855693120198285
1.3889094158154804
1.3819736266358782
1.3103798654395526
1.363394403599563
1.0768863668528816
1.1361108823670065
1.1474333758220066
1.1652837118861834
1.176995101571234
1.1790459900095287
1.1533209405878484
1.0945365230627346
1.0408751126023148
1.0298026288722348
1.0776003448734186
1.1710855640823508
1.263646655593031
1.2772268196588152
1.2781815901266178
1.2490212971323975
1.2244499750941495
1.175861405567701
1.2416784827657394
1.2782700833346046
1.304933618420474
1.3362292400023241
1.371443466295056
1.3990598036597792
1.3936304703319349
1.388227935157012
1.388324603125874
1.3898229702603917
1.3931178093297076
1.400378412973341
1.4141786915819126
1.4375482045880084
1.4359019208750083
1.4208760435461978
1.3626448846398687
1.266410256831618
1.4574708547538633
1.0852961391776863
1.1537227095926308
1.1921535938547343
1.2482443882645207
1.2958020622451036
1.3036877300102823
1.227546784999551
1.114957632122685
1.0257317627968792
1.0005243497277931
1.051738407340012
1.1476075691642977
1.2505527404652035
1.29727627983277
1.2987083250582203
1.284105494129275
1.2555670701322144
1.2547051847009438
1.2714322616990406
1.303474735627261
1.344875204957869
1.38784925124384
1.4293246047387338
1.4590377332362134
1.4708617898227005
1.4726174624326807
1.4725971590097755
1.4716966166908365
1.4690076639298266
1.4676537212884597
1.467093942793384
1.4662838275094363
1.4508797119369734
1.423295741517445
1.3478303708384172
1.3471802245696893
1.3465351340366032
1.431457577920291
1.3103828546964702
1.5550652379033043
1.115510501237724
1.1850815437049103
1.2247238555205326
1.310648075572746
1.3855693120198285
1.4145087705650266
1.254759822931124
1.1123226459109687
1.0079614815525335
0.9801040508682287
1.0361352742798942
1.1445112428867783
1.263933611310948
1.3259156120509057
1.331165785517235
1.3292566452400312
1.330211217345395
1.3400200018783721
1.3618150237506361
1.3967242379550502
1.430894296189274
1.459514700206525
1.4828843601942852
1.5005285276357097
1.5129258921009696
1.5205545160287248
1.525798959174493
1.5277059812397231
1.5267524734333653
1.5224616086542788
1.5153098804010467
1.498861485150708
1.4684036287393643
1.4308607434244502
1.3596644028941836
1.3526476471958733
1.3466834216467531
1.3714856674312421
1.3793895903897355
1.647375466606661
1.2024053482827637
1.3051631775259147
1.2839119548559814
1.340249507326021
1.4203989699847566
1.3479881204804403
1.2237128000238275
1.0805905463013135
0.9775175345627479
0.9612306702481765
1.0369512354604935
1.1691318446764911
1.3131722099538807
1.3660047358630985
1.3760258507436998
1.3765030345112137
1.3822291520993737
1.4008378922368558
1.4275549409837778
1.4566528777427044
1.4843150438701014
1.507680980554739
1.525798959174493
1.5386708527476043
1.54629807382861
1.5505881965954733
1.5520182069648896
1.5510648684219508
1.547728129979252
1.5415311107410807
1.531996686146949
1.5210312915755444
1.504162107460556
1.4594184647453947
1.3968877760418925
1.3670822291973332
1.346115646145537
1.3186143901088645
1.424193608924573
1.7879864496430258
1.5754010351941778
1.5173601768152016
1.4013432451197996
1.3801306387109111
1.3678343807490392
1.2926362436097754
1.146836413190165
0.997193493467038
0.9183559552832408
0.9440325945192064
1.0675859894654958
1.2402695186663875
1.3774573986904504
1.417536502353315
1.429463151646838
1.4337565504974739
1.4437740710703437
1.4638073406570566
1.4886070156914928
1.5124490897437606
1.5334268917988116
1.5491581709175541
1.5601213075635723
1.5663174580326564
1.5691771196826747
1.5696537237683323
1.5687005138255676
1.5658408415853788
1.561551214639022
1.5553548380225386
1.54629807382861
1.5358105351132645
1.523415145388226
1.5095882428631338
1.494806318838574
1.4851529513210209
1.4573127945485453
1.3790167016709358
1.2930286931909456
1.9970539586889766
1.850143903245466
1.688978427961411
1.546432267798969
1.4549826771851944
1.3812789314576337
1.178217900034233
0.9561238805066273
0.8281385102621844
0.8349220730825577
0.9602616438227163
1.1723520157602687
1.3660047358630985
1.4437740710703437
1.4723922816223765
1.4847919355038874
1.4933757327834754
1.5062505175966052
1.523415145388226
1.5415311107410807
1.5577380943911463
1.5701303260807293
1.5755889193011097
1.5714031807932287
1.5658663953657335
1.559693860350972
1.5521558883038737
1.5432857514996534
1.5332301120491678
1.5214539537317864
1.5079491752069807
1.4931670768312113
1.4793036688571917
1.4625805540078505
1.44278697633953
1.424748674091628
1.4130637279716913
1.4091334124932524
1.3989169030674875
1.3679273716039324
-1.6720801507946828
-0.7756627609887528
-0.22590903185559955
-0.03251736793739955
0.11888820069429522
0.3158514959056009
0.5701848557950848
0.856539924580181
1.1588897532689706
1.3698223606662288
1.4657151446791545
1.4801957223664064
1.489449682295222
1.4983921587627822
1.5093015972802792
1.5227460786080615
1.5351978192132256
1.544081330161208
1.5487536074096804
1.5494950865378347
1.5468228731428668
1.5422995584572001
1.5358196099693997
1.5281652873951503
1.519799009437283
1.5109659443408865
1.5026250454236236
1.4949239478324188
1.489362870037146
1.4851234949041139
1.4818938104887815
1.479594591626975
1.477736868105764
1.4785572891990615
1.4886163371613752
1.5254376042681357
1.593479844254309
1.441254914303362
-1.6833093104485408
-0.6007684536903558
-0.02161652659303579
0.29825591666928947
0.517824678908366
0.7857552797261179
1.0690233948267807
1.294889519968684
1.3823642497131434
1.4289373812541792
1.4575301089581811
1.4739114326986862
1.4854453597379393
1.494653774245559
1.5033677789953985
1.510897750400007
1.5175219920017742
1.522499872401459
1.5254174465353145
1.5256492757651527
1.5247264340686202
1.5222878725643472
1.5194463065295791
1.5158643935840541
1.5126844731478888
1.5095980084016019
1.506822423926226
1.5058083951024317
1.5055302999383366
1.508245115389051
1.5150566887817234
1.5261458107584662
1.538375830242317
1.548726457187921
1.558978891349577
1.5946751328877138
1.5421263901517608
1.4839624347322562
-1.1296977092392908
-1.1295957117989004
-1.0058610131591945
-0.20045312421417383
0.3892117440434299
0.8103992379994486
1.107264883881047
1.2516145120776978
1.339316331439173
1.3925293392864102
1.4265558082154322
1.4504655559679056
1.4655301689488753
1.474170250328649
1.480049941826837
1.4833119007796334
1.4853174767255442
1.4853788497026519
1.4842903584544227
1.481380122989639
1.4789070891232374
1.4757714329764664
1.4726434862500495
1.470124302658681
1.4683242508311434
1.4674081953962275
1.4671079220781544
1.4688106297031358
1.472521464524759
1.478970427249799
1.4882393977712622
1.5024381700852234
1.5256011502082776
1.5660262798385658
1.6230203476628782
1.6287369219412493
1.6010898339288586
1.542041839928074
1.4914760946881855
1.504233667682401
)
;

boundaryField
{
    ".*"
    {
        type            zeroGradient;
    }
}


// ************************************************************************* //
