/*--------------------------------*- C++ -*----------------------------------*=========                 |
  \      /  F ield         | OpenFOAM: The Open Source CFD Toolbox
   \    /   O peration     | Website:  https://openfoam.org
    \  /    A nd           | Version:  6
     \/     M anipulation  |
\*---------------------------------------------------------------------------*/
FoamFile
{
    version     2.0;
    format      ascii;
    class       volScalarField;
    location    "470";
    object      PPD;
}
// * * * * * * * * * * * * * * * * * * * * * * * * * * * * * * * * * * * * * //

dimensions      [0 0 0 0 0 0 0];

internalField   nonuniform List<scalar> 
458
(
41.561926965549155
29.585473988870092
28.10060203169428
26.850241832045356
26.070030926667485
25.714331994416355
25.831625545646276
26.469377914449936
27.74771235720695
29.90974713955889
33.22268529161474
36.55406923599283
37.33900813425006
37.74591327667804
38.371482525084126
44.45982028676028
43.7533814049836
43.55209149918408
43.90451189380649
44.1819406188687
44.38399087512667
44.15840515934054
43.95168957817511
43.99915879376416
44.09650665495087
44.25149859682723
44.44650105735339
44.675132180578125
45.03966795277188
45.63726132244448
46.16140297446585
46.39106702397528
47.15829228396232
38.122262601117406
30.136020556078932
29.55950164298237
28.294952736178033
27.56481097963524
27.207635799371516
27.266500790308328
27.642043848227345
28.259084117370293
29.365278512307768
31.23076964270379
34.138595852407605
37.19580300522774
37.72193074037722
37.881227077211406
35.82729518144701
35.91102891603356
37.08133591079405
42.09247692031589
43.049981438758785
43.02491861589171
43.45154098088011
43.57628793702074
43.586391107540884
43.58991607122743
43.67366489608727
43.735370477225885
43.749822693057936
43.797613170139265
43.865011873785754
43.94872176501634
44.13773808607494
44.5924636142494
45.0676110941485
45.44848664006027
44.614050820428396
39.70848922996962
29.738834793565445
31.079089123267593
30.397076422498316
30.073259578413726
29.917030151654757
29.92172224392722
29.737585585808148
29.119885502682507
28.595191925463894
29.101140147384584
31.384192144941352
35.84051283463705
38.05821366457552
38.39561978477403
38.540561279694195
38.411176185652145
37.58312244159562
37.47264567244666
40.6270442152298
41.105905298492836
41.565415254251235
42.15465145234592
42.37687313761088
43.59077488587621
44.38399087512667
44.40926370172197
44.43454017523873
44.45982028676028
44.485104027371726
44.51039138815143
44.56097693448878
44.73813906750057
44.91547419967181
44.547431193023925
40.79832412657137
43.565419655146655
29.463618163323773
32.18313548446065
32.7162578763525
33.56497713155704
34.12716015117894
34.22603716075385
32.99508751200692
30.261654564560686
27.869489782582917
27.3887611759408
29.49568982966825
33.842961611689304
38.408988907014205
39.09801855301763
39.14662971470197
37.67205901916522
36.44651459406485
34.072557031274215
37.30414512320664
39.151136358604
40.517306243031065
42.14064212321917
43.99014168148484
45.455434129239116
45.16642195629088
44.87927840976406
44.884412340133046
44.96400751767514
45.13915499324471
45.52569156207536
46.26247223154399
47.51583962172715
47.427328774102726
46.62096879164372
43.525927314335
38.54884235745137
48.58929174118027
29.842511953373275
33.01415474475817
34.86094179009828
37.633065472837956
40.04760129809969
40.45311156733861
36.60008322325849
31.198280390199173
27.213152559829453
26.139513075721922
28.3454818661056
32.72449177487799
37.74896873217832
40.12330509348944
40.19689015387268
39.4487232210788
38.0012112553577
37.95780901643124
38.80346475770369
40.44214041054229
42.592610703149504
44.85916832104211
47.07402124404044
48.67388784499855
49.312997711621
49.40799872137191
49.40689993855287
49.35816773051036
49.21269749957406
49.139473663916704
49.10920441366872
49.06540341237624
48.23369725304401
46.75063338492541
42.74742054095593
42.71334772507654
42.67954773542541
47.18854003754483
40.798478544502565
53.88940004538917
31.223833086255453
34.51775322023022
36.46008557713286
40.812179994381246
44.73813906750057
46.28012687223809
37.96055989043208
31.07663581378756
26.453797100735187
25.28739403423471
27.663152220440224
32.57827611363682
38.423501639821446
41.603423225037766
41.87662903953106
41.777217666258
41.82691428758903
42.33862645916113
43.48221328422209
45.33105445448366
47.15829228396232
48.69964403168268
49.964043789349226
50.92138357569773
51.59513387572137
52.01007981511713
52.29547420711479
52.39927483779189
52.34737322202682
52.1138493323429
51.724780356402626
50.830849044905875
49.18002815011219
47.15649064838269
43.36898324597972
43.00012985322856
42.68731667846984
43.992371418509585
44.41050720430212
58.908400320693644
35.36102933932929
40.52913805402628
39.438840466968195
42.35062207704614
46.59541262365749
42.75568906947141
36.409997214262646
29.630202401615193
25.180602449169
24.514109626207613
27.698614584803906
33.74923784995748
40.94265384745482
43.70303549433508
44.232430999141
44.25768175741245
44.56097693448878
45.55017924304945
46.97905016643797
48.54513835195757
50.0415917851391
51.30999695148808
52.29547420711479
52.996303495783295
53.41175708810583
53.64547754277552
53.72338704782334
53.671447263559074
53.48966227926843
53.15208918679281
52.63286207011786
52.036021043311386
51.11877210003065
48.69444714951314
45.33976098788897
43.75987513505347
42.65757257482119
41.224425097241216
46.7987663432124
66.38747971730666
54.99736224184238
51.836299655805995
45.57711526970519
44.44976312785664
43.79956431908506
39.8851972330483
32.68804751446986
25.999433948016133
22.809466810818094
23.821586099371174
29.047485191633186
37.233709872499176
44.308194365872026
46.44213600202548
47.08145813089975
47.31203194127155
47.85084288765196
48.931541828932865
50.274318812475094
51.56920738614825
52.710734503833955
53.567569192002814
54.16488232469256
54.502482995616454
54.65828754833375
54.684254042302115
54.63232077053962
54.47651473769021
54.24279225658942
53.90517878608755
53.41175708810583
52.840531851560236
52.16573859215675
51.41366895618385
50.61068799691132
50.087016121602844
48.58075934305388
44.39075736199774
39.9053171989298
76.61735793257027
69.56864317216824
61.151276517539166
53.41906745910349
48.45500318694718
44.510609793305534
34.18609822327947
24.307258660543056
19.46581415608037
19.705519083353536
24.47478063886021
33.90377795817031
43.70303549433508
47.85084288765196
49.395812552892856
50.06744424612192
50.533043486039205
51.23225406138388
52.16573859215675
53.15208918679281
54.03503092753708
54.71022024182917
55.007597297029776
54.77956673501247
54.47790702824826
54.141592439633854
53.730888266293434
53.247664358152086
52.70001983453041
52.059018696835665
51.324573967374576
50.521719846441826
49.77002430140928
48.86525079788556
47.79770044352241
46.82852738622229
46.20284797040355
45.99280325834582
45.44782170422488
43.80447189415296
60.24250738606919
17.677024748989865
6.058792340778183
5.021889314502232
5.292772973781524
7.073830000954118
11.80992706306077
20.48222379791909
33.2598239373809
43.90451189380649
49.03465954858999
49.81835113477107
50.32002634992422
50.80536356477164
51.39808677536676
52.1293291842556
52.80716607580569
53.29100120574778
53.54552881561818
53.58592429107888
53.44034627453689
53.19394581835596
52.84102603454755
52.42427695402736
51.96897469441962
51.488566953321964
51.035264709366494
50.617072836943414
50.315317297358874
50.08541915583783
49.910361347935044
49.785784322174585
49.68515794836915
49.72959400045285
50.27482439706055
52.27580673829779
55.9818844920853
47.71523957634235
60.846777988856694
12.567423437352502
5.009673012422795
6.848410989652066
10.607212563736411
18.012002551136504
29.1116006467078
40.00076520620755
44.56813906046103
47.053237188843156
48.59249046065972
49.47803293640417
50.10286924093812
50.602408084984695
51.07561524471324
51.484859413207474
51.84510182434478
52.11593149339877
52.274709625998526
52.287327332864876
52.23710115731703
52.104395372124515
51.949785820018825
51.75493956290406
51.58200640726553
51.41419982222803
51.26333480752745
51.208227689186245
51.193115616479055
51.34065943718326
51.71101005510965
52.314352713323814
52.98023586156842
53.54404969454032
54.1026366872646
56.04694612962136
53.18451340936639
50.022477773618455
31.883002106326217
31.878239480416724
26.364822298429985
5.833238862117867
8.155274605957345
18.848106005196655
30.8437949590069
37.802326759056015
42.301853908895666
45.10786087577259
46.92544744456203
48.211367935595234
49.02466009616506
49.49204269858065
49.810453087333514
49.98721640587846
50.09593590248167
50.0992633011795
50.04025362466824
49.88252512240568
49.7485416203472
49.57872652623425
49.40940708609304
49.27309933788697
49.17573521600414
49.12619685286473
49.109960290859
49.202040523438306
49.4028035263256
49.75197255874404
50.254380159677815
51.02511279777634
52.284708001328035
54.486618281398655
57.58806360707397
57.898348639877376
56.396024327761864
53.17990801158464
50.429961539047454
51.12266022304317
)
;

boundaryField
{
    ".*"
    {
        type            zeroGradient;
    }
}


// ************************************************************************* //
