/*--------------------------------*- C++ -*----------------------------------*\
  =========                 |
  \\      /  F ield         | OpenFOAM: The Open Source CFD Toolbox
   \\    /   O peration     | Website:  https://openfoam.org
    \\  /    A nd           | Version:  6
     \\/     M anipulation  |
\*---------------------------------------------------------------------------*/
FoamFile
{
    version     2.0;
    format      ascii;
    class       volScalarField;
    location    "530";
    object      nut;
}
// * * * * * * * * * * * * * * * * * * * * * * * * * * * * * * * * * * * * * //

dimensions      [0 2 -1 0 0 0 0];

internalField   nonuniform List<scalar> 
458
(
0.00107473
0.00117029
0.00119731
0.00125486
0.00130791
0.00135822
0.00140864
0.00145965
0.00150128
0.00152727
0.00152989
0.00150152
0.00143244
0.00128425
0.00097804
0.000482869
0.000565977
0.00064241
0.000670813
0.000660642
0.000617997
0.000570826
0.000528669
0.000492202
0.000460559
0.000432955
0.000408808
0.000387422
0.000367964
0.000349521
0.000331003
0.000319715
0.000293626
0.00144706
0.003267
0.00301744
0.00345836
0.0038995
0.00435252
0.00475768
0.00507317
0.00539643
0.00569809
0.0059391
0.00608386
0.00609329
0.00587108
0.00475046
0.00129141
0.00107207
0.000873988
0.000478267
0.00113783
0.00166184
0.0020673
0.0021953
0.0015969
0.00134667
0.00117646
0.00105085
0.000954709
0.000878474
0.000813318
0.00075208
0.00069082
0.000635918
0.000590162
0.000721194
0.000384248
0.00175804
0.00439297
0.00363565
0.00442714
0.00476456
0.00500214
0.00518493
0.00535528
0.00559036
0.00587517
0.00618598
0.00648927
0.00672418
0.00679661
0.0063942
0.005212
0.00394168
0.00103512
0.000733943
0.00126987
0.00185418
0.00243601
0.00260316
0.000831484
0.00072752
0.000641023
0.000570966
0.000514429
0.000468621
0.000431377
0.000401274
0.000377887
0.000418558
0.000485143
0.000847348
0.000453402
0.00205753
0.00560519
0.00354201
0.00458805
0.00477409
0.00475903
0.00474544
0.00482873
0.00502036
0.00530331
0.00566312
0.00606298
0.00640543
0.00661109
0.0065546
0.00621173
0.00532642
0.00292296
0.00119111
0.00150716
0.00207323
0.00277312
0.0033838
0.00341949
0.00093822
0.000859632
0.00080575
0.000765737
0.000731806
0.000698403
0.000666657
0.000633146
0.000594062
0.000558865
0.000550787
0.00101002
0.000521875
0.00236369
0.00723392
0.00371743
0.00435841
0.00462306
0.00447087
0.00434775
0.00442208
0.0046221
0.00491631
0.00530566
0.00574535
0.00607786
0.00623838
0.00622785
0.00610532
0.00574904
0.00475222
0.00429094
0.00432718
0.00458509
0.00489277
0.0050847
0.00500672
0.00427323
0.00389232
0.00368024
0.00352751
0.00337304
0.003171
0.00283833
0.0024126
0.00192995
0.00146628
0.00109963
0.00102789
0.000887676
0.000697545
0.000739102
0.000803574
0.0026916
0.00906827
0.00508421
0.00404442
0.00440424
0.00440339
0.00424044
0.0043046
0.00450482
0.00479912
0.00519499
0.00561501
0.00592449
0.00601571
0.00591515
0.00577831
0.00571618
0.00563077
0.00579346
0.00608938
0.00630164
0.00634709
0.00621715
0.00593356
0.00553025
0.00519895
0.0049383
0.00470693
0.00447877
0.00423576
0.00392122
0.00349637
0.00296399
0.00236637
0.00181685
0.0013205
0.00108362
0.000943555
0.0011877
0.000833573
0.00301361
0.0104502
0.00755871
0.00497675
0.00434531
0.00441499
0.00446042
0.00448209
0.00459382
0.00485622
0.00524874
0.00566614
0.00594805
0.00596842
0.00578283
0.00565589
0.0058752
0.00635048
0.00683626
0.00711909
0.00712965
0.00690453
0.00651456
0.00603464
0.00555039
0.00515372
0.00484769
0.00459661
0.00437597
0.00417785
0.00399791
0.00376439
0.00338994
0.00289503
0.00238425
0.00189647
0.00157757
0.00144416
0.00137573
0.000991245
0.00309274
0.00967842
0.00823103
0.00693037
0.00594202
0.00551043
0.00506893
0.0047755
0.0047752
0.00503405
0.00544518
0.00585776
0.00608955
0.00601765
0.00579408
0.00586084
0.00647978
0.00698119
0.00725047
0.00725196
0.00697866
0.00649484
0.00589199
0.00527539
0.00475342
0.00437956
0.00412272
0.00393616
0.00379698
0.00370179
0.00365646
0.00365247
0.0035494
0.00325683
0.00297327
0.0028153
0.00288284
0.00304157
0.00360867
0.00153438
0.00303148
0.00365371
0.00403418
0.00424614
0.00427825
0.00421462
0.00422452
0.00441676
0.00479942
0.00528806
0.00578066
0.00615093
0.00624705
0.0060088
0.00596824
0.00628281
0.00664258
0.00677019
0.00669083
0.00639106
0.00587496
0.00522737
0.00456974
0.00401984
0.0036325
0.00338246
0.00321391
0.00308633
0.00297852
0.00287849
0.00277722
0.00266735
0.002569
0.00248442
0.00242818
0.00239594
0.00233535
0.00221195
0.0020625
0.00143336
0.00132617
0.00233378
0.0032169
0.00392287
0.00457666
0.00522075
0.0057412
0.00610311
0.00631951
0.00631729
0.00607226
0.00579006
0.00580053
0.00591812
0.0058514
0.00562703
0.00526381
0.00476732
0.00419336
0.00362216
0.00316011
0.00284604
0.00265306
0.00253527
0.00245802
0.0024026
0.00236075
0.00233027
0.00231338
0.00231933
0.00233302
0.00234533
0.00234616
0.00230923
0.00219512
0.0019943
0.00174528
0.00115368
0.00201486
0.0039841
0.00514354
0.00590737
0.00650209
0.00655991
0.00625232
0.00594414
0.00558486
0.00496672
0.00455199
0.00445331
0.00439939
0.00423533
0.00397819
0.00365284
0.00326766
0.00286046
0.0024938
0.00221452
0.00202054
0.00191052
0.00186089
0.00185236
0.00187313
0.00191587
0.00197447
0.00204171
0.00212053
0.00221006
0.00230549
0.00239906
0.00247521
0.00251349
0.00247819
0.00244769
0.00225929
0.00116881
0.00212071
0.00217365
0.00222157
0.00247235
0.00233617
0.00206962
0.00175205
0.00149977
0.00134019
0.00118522
0.00104615
0.000937322
0.000843866
0.000774739
0.000727465
0.000693002
0.00066524
0.00064139
0.000621788
0.000608692
0.000603986
0.000607841
0.00061934
0.000635919
0.000656666
0.000681106
0.000709114
0.000740861
0.000776886
0.000818303
0.000865295
0.000917585
0.000975458
0.0010392
0.00110888
0.00119244
0.00122849
0.00120309
0.00111915
0.00103511
)
;

boundaryField
{
    floor
    {
        type            nutkWallFunction;
        Cmu             0.09;
        kappa           0.41;
        E               9.8;
        value           nonuniform List<scalar> 
36
(
0.000118132
5.75221e-05
6.80826e-05
7.76271e-05
8.11381e-05
7.98828e-05
7.45943e-05
6.86925e-05
6.33673e-05
5.87187e-05
5.46501e-05
5.10723e-05
4.79188e-05
4.51061e-05
4.25297e-05
4.00714e-05
3.75861e-05
3.60622e-05
3.25126e-05
3.25125e-05
4.46862e-05
5.37241e-05
6.25031e-05
8.44251e-05
8.95074e-05
9.73264e-05
0.000118132
0.000154485
0.000129163
0.000105781
5.75221e-05
0.000105781
5.69309e-05
0.000124842
8.8879e-05
0.000142972
)
;
    }
    ceiling
    {
        type            nutkWallFunction;
        Cmu             0.09;
        kappa           0.41;
        E               9.8;
        value           nonuniform List<scalar> 
43
(
0.000246358
0.000252075
0.000257238
0.000284144
0.000269642
0.000240936
0.000206191
0.000178093
0.00016005
0.000142295
0.000126136
0.000113319
0.000102174
9.38386e-05
8.80878e-05
8.38673e-05
8.04493e-05
7.74993e-05
7.50648e-05
7.34331e-05
7.28459e-05
7.3327e-05
7.47602e-05
7.68208e-05
7.93903e-05
8.24048e-05
8.58435e-05
8.97219e-05
9.4099e-05
9.91017e-05
0.000104742
0.000110977
0.000117829
0.000125323
0.000133455
0.000143131
0.000147282
0.000144359
0.00013465
0.000124845
0.000343359
0.000407642
0.000234804
)
;
    }
    sWall
    {
        type            nutkWallFunction;
        Cmu             0.09;
        kappa           0.41;
        E               9.8;
        value           uniform 0.000246425;
    }
    nWall
    {
        type            nutkWallFunction;
        Cmu             0.09;
        kappa           0.41;
        E               9.8;
        value           nonuniform List<scalar> 6(9.73269e-05 0.00010094 0.000119695 0.000138664 0.000140414 0.000124853);
    }
    sideWalls
    {
        type            empty;
    }
    glass1
    {
        type            nutkWallFunction;
        Cmu             0.09;
        kappa           0.41;
        E               9.8;
        value           nonuniform List<scalar> 9(0.000129582 0.000172385 0.000207178 0.000240049 0.000273123 0.000308048 0.000341913 0.000350186 0.000343807);
    }
    glass2
    {
        type            nutkWallFunction;
        Cmu             0.09;
        kappa           0.41;
        E               9.8;
        value           nonuniform List<scalar> 2(0.000182076 0.000170698);
    }
    sun
    {
        type            nutkWallFunction;
        Cmu             0.09;
        kappa           0.41;
        E               9.8;
        value           nonuniform List<scalar> 
14
(
0.000129476
0.000140569
0.000143686
0.000150301
0.00015637
0.000162098
0.000167816
0.000173579
0.000178264
0.000181182
0.000181476
0.00017829
0.000170507
0.000153666
)
;
    }
    Table_master
    {
        type            nutkWallFunction;
        Cmu             0.09;
        kappa           0.41;
        E               9.8;
        value           nonuniform List<scalar> 9(0.000100687 8.80962e-05 7.74576e-05 6.87144e-05 6.1563e-05 5.56976e-05 5.08761e-05 4.69407e-05 4.38575e-05);
    }
    Table_slave
    {
        type            nutkWallFunction;
        Cmu             0.09;
        kappa           0.41;
        E               9.8;
        value           nonuniform List<scalar> 9(0.000113423 0.000104063 9.75887e-05 9.27477e-05 8.8619e-05 8.45324e-05 8.06267e-05 7.64796e-05 7.16092e-05);
    }
    inlet
    {
        type            calculated;
        value           uniform 0.000167705;
    }
    outlet
    {
        type            calculated;
        value           nonuniform List<scalar> 2(0.00212071 0.00217365);
    }
}


// ************************************************************************* //
