/*--------------------------------*- C++ -*----------------------------------*\
  =========                 |
  \\      /  F ield         | OpenFOAM: The Open Source CFD Toolbox
   \\    /   O peration     | Website:  https://openfoam.org
    \\  /    A nd           | Version:  6
     \\/     M anipulation  |
\*---------------------------------------------------------------------------*/
FoamFile
{
    version     2.0;
    format      ascii;
    class       volScalarField;
    location    "530";
    object      T;
}
// * * * * * * * * * * * * * * * * * * * * * * * * * * * * * * * * * * * * * //

dimensions      [0 0 0 1 0 0 0];

internalField   nonuniform List<scalar> 
458
(
302.745
302.467
302.454
302.451
302.447
302.444
302.44
302.436
302.429
302.42
302.412
302.408
302.412
302.426
302.468
302.615
302.592
302.584
302.59
302.597
302.603
302.609
302.614
302.62
302.625
302.631
302.636
302.641
302.647
302.652
302.659
302.667
302.691
302.931
302.5
302.475
302.476
302.478
302.478
302.476
302.47
302.456
302.433
302.41
302.395
302.396
302.411
302.432
302.442
302.452
302.473
302.621
302.57
302.566
302.574
302.584
302.588
302.59
302.593
302.595
302.597
302.599
302.601
302.604
302.607
302.613
302.621
302.633
302.674
303.127
302.545
302.505
302.515
302.528
302.537
302.542
302.537
302.512
302.467
302.418
302.388
302.386
302.406
302.427
302.438
302.447
302.466
302.578
302.557
302.559
302.574
302.593
302.593
302.594
302.595
302.596
302.597
302.598
302.599
302.6
302.601
302.607
302.613
302.624
302.668
303.327
302.603
302.537
302.556
302.585
302.613
302.632
302.632
302.591
302.513
302.431
302.38
302.375
302.403
302.431
302.448
302.455
302.464
302.473
302.491
302.52
302.555
302.59
302.621
302.646
302.663
302.677
302.69
302.699
302.707
302.713
302.717
302.719
302.691
302.662
302.644
302.67
303.524
302.679
302.571
302.588
302.631
302.681
302.725
302.735
302.672
302.556
302.44
302.37
302.366
302.401
302.443
302.47
302.48
302.486
302.501
302.527
302.562
302.602
302.642
302.677
302.707
302.729
302.746
302.759
302.768
302.773
302.772
302.768
302.759
302.737
302.703
302.671
302.672
302.764
302.843
302.845
303.702
302.777
302.627
302.617
302.658
302.717
302.792
302.815
302.723
302.573
302.435
302.358
302.356
302.404
302.464
302.508
302.53
302.541
302.562
302.594
302.632
302.673
302.712
302.746
302.773
302.793
302.808
302.818
302.823
302.824
302.818
302.808
302.793
302.77
302.738
302.702
302.687
302.726
302.756
302.798
303.858
302.94
302.771
302.72
302.728
302.773
302.853
302.851
302.728
302.55
302.399
302.327
302.344
302.417
302.503
302.566
302.602
302.623
302.649
302.681
302.718
302.755
302.788
302.816
302.837
302.852
302.861
302.866
302.867
302.863
302.854
302.84
302.821
302.798
302.77
302.737
302.716
302.724
302.737
302.768
304.089
303.404
303.206
303.065
302.992
302.981
302.987
302.873
302.662
302.446
302.306
302.272
302.338
302.453
302.572
302.652
302.694
302.718
302.743
302.772
302.803
302.832
302.857
302.876
302.888
302.896
302.899
302.899
302.896
302.89
302.881
302.867
302.849
302.829
302.807
302.784
302.771
302.778
302.798
302.949
304.419
304.102
303.855
303.614
303.424
303.288
303.07
302.721
302.392
302.19
302.14
302.214
302.373
302.544
302.692
302.755
302.787
302.808
302.829
302.852
302.874
302.894
302.908
302.918
302.923
302.925
302.924
302.922
302.918
302.913
302.909
302.907
302.907
302.912
302.925
302.949
302.984
303.021
303.05
303.115
297.624
299.323
300.367
300.804
300.973
301.167
301.406
301.693
301.991
302.271
302.556
302.728
302.809
302.846
302.866
302.882
302.898
302.914
302.927
302.937
302.943
302.947
302.948
302.948
302.947
302.947
302.946
302.946
302.947
302.948
302.952
302.96
302.973
302.994
303.021
303.05
303.074
303.098
297.983
299.394
300.241
300.689
301.024
301.382
301.758
302.155
302.477
302.678
302.802
302.865
302.896
302.913
302.926
302.937
302.947
302.955
302.961
302.964
302.966
302.967
302.968
302.968
302.968
302.968
302.968
302.969
302.97
302.971
302.974
302.98
302.99
303.004
303.022
303.044
303.045
303.079
299.479
299.439
299.436
300.475
301.122
301.659
302.136
302.463
302.652
302.782
302.862
302.908
302.937
302.955
302.966
302.974
302.98
302.984
302.988
302.99
302.991
302.992
302.991
302.991
302.99
302.989
302.989
302.988
302.987
302.987
302.987
302.987
302.988
302.991
302.995
303.005
303.016
303.024
303.028
303.069
)
;

boundaryField
{
    floor
    {
        type            wallHeatTransfer;
        Tinf            uniform 305.2;
        alphaWall       uniform 0.24;
        value           nonuniform List<scalar> 
36
(
302.778
303.098
303.03
302.987
302.98
302.99
303.014
303.042
303.069
303.096
303.122
303.147
303.17
303.193
303.215
303.238
303.262
303.281
303.33
303.33
303.221
303.161
303.12
303.118
303.172
303.154
302.778
302.695
302.743
302.81
303.098
302.81
303.106
302.764
302.945
302.74
)
;
    }
    ceiling
    {
        type            wallHeatTransfer;
        Tinf            uniform 303.2;
        alphaWall       uniform 0.24;
        value           nonuniform List<scalar> 
43
(
299.708
299.665
299.659
300.623
301.241
301.756
302.213
302.523
302.701
302.823
302.899
302.942
302.97
302.988
302.999
303.007
303.013
303.018
303.021
303.024
303.025
303.025
303.024
303.023
303.022
303.02
303.019
303.018
303.016
303.015
303.013
303.013
303.012
303.014
303.016
303.024
303.033
303.041
303.045
303.083
304.362
304.066
298.316
)
;
    }
    sWall
    {
        type            wallHeatTransfer;
        Tinf            uniform 315.2;
        alphaWall       uniform 0.36;
        value           uniform 300.89;
    }
    nWall
    {
        type            wallHeatTransfer;
        Tinf            uniform 307.2;
        alphaWall       uniform 0.36;
        value           nonuniform List<scalar> 6(303.651 303.592 303.477 303.687 303.664 303.71);
    }
    sideWalls
    {
        type            empty;
    }
    glass1
    {
        type            wallHeatTransfer;
        Tinf            uniform 315.2;
        alphaWall       uniform 4.3;
        value           nonuniform List<scalar> 9(311.27 310.625 310.215 309.901 309.638 309.397 309.195 309.255 309.48);
    }
    glass2
    {
        type            wallHeatTransfer;
        Tinf            uniform 307.2;
        alphaWall       uniform 4.3;
        value           nonuniform List<scalar> 2(305.551 305.672);
    }
    sun
    {
        type            wallHeatTransfer;
        Tinf            uniform 305.2;
        alphaWall       uniform 0.24;
        value           nonuniform List<scalar> 
14
(
303.005
302.738
302.722
302.709
302.698
302.687
302.677
302.666
302.655
302.644
302.636
302.636
302.648
302.682
)
;
    }
    Table_master
    {
        type            zeroGradient;
    }
    Table_slave
    {
        type            zeroGradient;
    }
    inlet
    {
        type            fixedValue;
        value           uniform 295.15;
    }
    outlet
    {
        type            zeroGradient;
    }
}


// ************************************************************************* //
