/*--------------------------------*- C++ -*----------------------------------*\
  =========                 |
  \\      /  F ield         | OpenFOAM: The Open Source CFD Toolbox
   \\    /   O peration     | Website:  https://openfoam.org
    \\  /    A nd           | Version:  6
     \\/     M anipulation  |
\*---------------------------------------------------------------------------*/
FoamFile
{
    version     2.0;
    format      ascii;
    class       volScalarField;
    location    "900";
    object      k;
}
// * * * * * * * * * * * * * * * * * * * * * * * * * * * * * * * * * * * * * //

dimensions      [0 2 -2 0 0 0 0];

internalField   nonuniform List<scalar> 
458
(
0.00226809
0.00268642
0.00280922
0.00308445
0.00334934
0.00361021
0.00388096
0.00416586
0.00440623
0.00456064
0.00457809
0.00441317
0.00402219
0.00325453
0.00187356
0.000457659
0.000628919
0.000808401
0.000878937
0.000851661
0.000745798
0.00063686
0.000546676
0.000474124
0.000415298
0.000367112
0.000327388
0.000294065
0.000265272
0.000239333
0.000214629
0.000200582
0.000169423
0.00412352
0.00755245
0.00415103
0.00437506
0.00471709
0.00513657
0.00563388
0.00619842
0.00680257
0.00731504
0.0075903
0.0075327
0.007125
0.00635534
0.00513899
0.00326456
0.00224702
0.00149579
0.000450318
0.000973197
0.00130342
0.00145859
0.00147299
0.00125961
0.00102453
0.000834154
0.000688845
0.0005774
0.00049072
0.000421554
0.000364733
0.000317467
0.000283532
0.000264396
0.000493817
0.000292744
0.00609586
0.0136497
0.00491249
0.00472608
0.00494289
0.00528759
0.00575269
0.00634304
0.00699633
0.00755313
0.00789518
0.00795235
0.00769552
0.007062
0.00603816
0.00488928
0.00391936
0.00208677
0.00106813
0.00139976
0.00160375
0.00173066
0.00172315
0.00134741
0.00103274
0.000802772
0.000637711
0.000518341
0.00043067
0.000365386
0.000316511
0.000280921
0.000262161
0.000265454
0.000780248
0.000408838
0.00835977
0.0222371
0.00592837
0.00470806
0.00474778
0.00501799
0.00547545
0.00617013
0.00689493
0.00746566
0.00783665
0.00795656
0.00775088
0.00714767
0.00628845
0.00543683
0.00463337
0.00350107
0.00276966
0.00250736
0.00237455
0.00233867
0.00229016
0.00215248
0.00170995
0.00143681
0.00126437
0.00114415
0.00104717
0.000955009
0.000871436
0.000787284
0.000694333
0.000530269
0.000422804
0.00113246
0.000542366
0.0110422
0.0339578
0.0084256
0.00475107
0.00448426
0.00470966
0.0053014
0.00635723
0.00718702
0.00774169
0.0080976
0.00819996
0.00790293
0.00718451
0.00621752
0.00531038
0.00458072
0.00397938
0.00379538
0.0034802
0.00325323
0.00307141
0.00286005
0.00259113
0.00230343
0.00210727
0.00198715
0.0018924
0.00179031
0.00166151
0.00149219
0.00129937
0.00109405
0.000865795
0.000664842
0.000922223
0.00106377
0.000969406
0.00108635
0.00128346
0.0143267
0.0466888
0.0149523
0.00592493
0.00474404
0.00478498
0.00570997
0.00726938
0.0080339
0.00847641
0.00874105
0.0087503
0.00832276
0.00738084
0.00612615
0.00496743
0.00418478
0.00384269
0.00381496
0.00382395
0.00373278
0.00350974
0.00319031
0.00283592
0.00254874
0.00239611
0.00232236
0.0022637
0.00218552
0.00206556
0.0018787
0.00164913
0.00140054
0.00114694
0.000935727
0.000900789
0.00103011
0.00105446
0.00165139
0.00138072
0.0179765
0.0550475
0.0270792
0.012364
0.00831181
0.00741579
0.0085088
0.00921252
0.00948828
0.00964792
0.00973224
0.00958621
0.00894962
0.00771134
0.00611172
0.00470014
0.00388812
0.00373709
0.00389937
0.00398376
0.00385467
0.00355154
0.0031722
0.00281305
0.0025684
0.00246932
0.00245233
0.00245757
0.00245538
0.00242487
0.00233633
0.00214755
0.00191098
0.00165925
0.00145749
0.00136481
0.00145114
0.00168165
0.00223404
0.00194894
0.0189413
0.0568406
0.0383019
0.0271741
0.0197466
0.0158865
0.0137294
0.0122915
0.0115388
0.0112148
0.0110124
0.0106126
0.00964883
0.00799661
0.00597557
0.00439357
0.00367838
0.00365635
0.00378081
0.00375117
0.00351786
0.00317113
0.00282115
0.00255148
0.0024088
0.00238428
0.00243177
0.00251781
0.00263047
0.00276728
0.00292557
0.00306718
0.00310961
0.00313928
0.00329249
0.0038694
0.00511949
0.00681577
0.0128313
0.00467717
0.0182047
0.0264662
0.0243621
0.0217105
0.0188866
0.0164652
0.0146556
0.0135928
0.0130895
0.0127713
0.0123608
0.0115994
0.0100736
0.00777064
0.00516023
0.00385857
0.0034035
0.00331045
0.00325387
0.00309221
0.0028243
0.00252858
0.00228335
0.00213493
0.00208942
0.0021236
0.00220984
0.00233323
0.00249011
0.00268168
0.00290933
0.00317122
0.00348983
0.00390107
0.00444793
0.00509754
0.00569678
0.00606927
0.00624883
0.00408133
0.00718387
0.0110935
0.0135423
0.0147746
0.0154402
0.0157119
0.0153822
0.0144576
0.0132182
0.0115892
0.00880983
0.00585865
0.00403623
0.00322572
0.00288167
0.00270057
0.00252823
0.00231839
0.0020911
0.00188825
0.0017521
0.00169312
0.00169782
0.00174764
0.00182974
0.0019392
0.00207743
0.00225109
0.00247285
0.00276576
0.00313123
0.00356702
0.00405093
0.00449044
0.0047126
0.00457284
0.0041069
0.00264226
0.00805067
0.019473
0.0216166
0.0215068
0.0207338
0.0184817
0.0153429
0.0120183
0.00883577
0.00623673
0.00435127
0.00326382
0.00271591
0.00241181
0.00220993
0.00203182
0.00184707
0.00166417
0.00150859
0.0013984
0.00133776
0.00132588
0.00135468
0.00141851
0.00151574
0.00164777
0.00181789
0.00203041
0.00229584
0.00262426
0.00302429
0.00349674
0.00401533
0.00451213
0.00481678
0.00510142
0.00428745
0.0027114
0.0089052
0.00935062
0.00976447
0.0120864
0.0107979
0.00847909
0.00603524
0.00437086
0.00348291
0.00273227
0.0021463
0.00173671
0.0014236
0.00120702
0.00106702
0.000970189
0.000895657
0.000833925
0.000784627
0.000752208
0.000740286
0.000749216
0.000776068
0.0008164
0.000868822
0.00093305
0.00100977
0.00110066
0.00120874
0.00133946
0.00149638
0.00168136
0.00189875
0.00215351
0.00245026
0.00283114
0.0030065
0.00288462
0.0024956
0.00213474
)
;

boundaryField
{
    floor
    {
        type            kqRWallFunction;
        value           nonuniform List<scalar> 
36
(
0.00187356
0.000457659
0.000628919
0.000808401
0.000878937
0.000851661
0.000745798
0.00063686
0.000546676
0.000474124
0.000415298
0.000367112
0.000327388
0.000294065
0.000265272
0.000239333
0.000214629
0.000200582
0.000169423
0.000169423
0.000292744
0.000408838
0.000542366
0.000969406
0.00108635
0.00128346
0.00187356
0.00326456
0.00224702
0.00149579
0.000457659
0.00149579
0.000450318
0.00208677
0.00106813
0.00276966
)
;
    }
    ceiling
    {
        type            kqRWallFunction;
        value           nonuniform List<scalar> 
43
(
0.0089052
0.00935062
0.00976447
0.0120864
0.0107979
0.00847909
0.00603524
0.00437086
0.00348291
0.00273227
0.0021463
0.00173671
0.0014236
0.00120702
0.00106702
0.000970189
0.000895657
0.000833925
0.000784627
0.000752208
0.000740286
0.000749216
0.000776068
0.0008164
0.000868822
0.00093305
0.00100977
0.00110066
0.00120874
0.00133946
0.00149638
0.00168136
0.00189875
0.00215351
0.00245026
0.00283114
0.0030065
0.00288462
0.0024956
0.00213474
0.0182047
0.0264662
0.00805067
)
;
    }
    sWall
    {
        type            kqRWallFunction;
        value           uniform 0.0089052;
    }
    nWall
    {
        type            kqRWallFunction;
        value           nonuniform List<scalar> 6(0.00128346 0.00138072 0.00194894 0.00264226 0.0027114 0.00213474);
    }
    sideWalls
    {
        type            empty;
    }
    glass1
    {
        type            kqRWallFunction;
        value           nonuniform List<scalar> 9(0.00226809 0.00412352 0.00609586 0.00835977 0.0110422 0.0143267 0.0179765 0.0189413 0.0182047);
    }
    glass2
    {
        type            kqRWallFunction;
        value           nonuniform List<scalar> 2(0.00467717 0.00408133);
    }
    sun
    {
        type            kqRWallFunction;
        value           nonuniform List<scalar> 
14
(
0.00226809
0.00268642
0.00280922
0.00308445
0.00334934
0.00361021
0.00388096
0.00416586
0.00440623
0.00456064
0.00457809
0.00441317
0.00402219
0.00325453
)
;
    }
    Table_master
    {
        type            kqRWallFunction;
        value           nonuniform List<scalar> 9(0.00134741 0.00103274 0.000802772 0.000637711 0.000518341 0.00043067 0.000365386 0.000316511 0.000280921);
    }
    Table_slave
    {
        type            kqRWallFunction;
        value           nonuniform List<scalar> 9(0.00170995 0.00143681 0.00126437 0.00114415 0.00104717 0.000955009 0.000871436 0.000787284 0.000694333);
    }
    inlet
    {
        type            turbulentIntensityKineticEnergyInlet;
        intensity       0.05;
        value           uniform 0.000937501;
    }
    outlet
    {
        type            zeroGradient;
    }
}


// ************************************************************************* //
