// -*- C++ -*-
// File generated by PyFoam - sorry for the ugliness

FoamFile
{
 version 2.0;
 format ascii;
 class volVectorField;
 location "900";
 object U;
}

dimensions [ 0 1 -1 0 0 0 0 ];

internalField nonuniform List<vector> 458
(
  (0.0347884 0.0885338 0)
  (-0.172105 0.0265964 0)
  (-0.199394 0.0191177 0)
  (-0.233276 0.013081 0)
  (-0.25845 0.00641108 0)
  (-0.273652 -0.000809592 0)
  (-0.276774 -0.00878497 0)
  (-0.265516 -0.0177873 0)
  (-0.239443 -0.0274378 0)
  (-0.199716 -0.0361223 0)
  (-0.150438 -0.0420591 0)
  (-0.0978143 -0.0436537 0)
  (-0.0487138 -0.0390776 0)
  (-0.00625718 -0.0236742 0)
  (-0.0102643 0.00977566 0)
  (-0.0102299 0.0105081 0)
  (-0.0372499 -0.0174937 0)
  (-0.0145007 -0.0291114 0)
  (0.0136916 -0.0251879 0)
  (0.0334648 -0.0178969 0)
  (0.048087 -0.009559 0)
  (0.0568488 -0.00517912 0)
  (0.0607273 -0.0036345 0)
  (0.0621621 -0.00308509 0)
  (0.0628104 -0.00276077 0)
  (0.0631178 -0.00250969 0)
  (0.0630548 -0.00224272 0)
  (0.0624565 -0.00179866 0)
  (0.0608641 -0.00083932 0)
  (0.0572601 0.00107467 0)
  (0.0505371 0.0031726 0)
  (0.0451243 0.00509074 0)
  (-0.0141329 0.0219539 0)
  (0.214219 0.181911 0)
  (-0.162158 0.0710229 0)
  (-0.162975 0.0577779 0)
  (-0.198695 0.0457493 0)
  (-0.224172 0.0319879 0)
  (-0.240146 0.0161696 0)
  (-0.244642 -0.00242228 0)
  (-0.235136 -0.0239855 0)
  (-0.211874 -0.0461928 0)
  (-0.176478 -0.0649495 0)
  (-0.133338 -0.0764437 0)
  (-0.0881024 -0.0782066 0)
  (-0.0462346 -0.0687271 0)
  (-0.0100012 -0.0460059 0)
  (0.0194262 -0.0133735 0)
  (0.044256 0.00785664 0)
  (0.0548511 0.03476 0)
  (-0.0118043 0.0706802 0)
  (0.0670481 0.0439742 0)
  (0.0102911 -0.0218388 0)
  (0.0265154 -0.037903 0)
  (0.0407462 -0.0356532 0)
  (0.0531405 -0.0273563 0)
  (0.0595712 -0.0120979 0)
  (0.0611926 -0.00275291 0)
  (0.0612406 0.000748233 0)
  (0.0614041 0.00202421 0)
  (0.0617296 0.00272593 0)
  (0.0619553 0.00322591 0)
  (0.062013 0.00367761 0)
  (0.0619081 0.00440943 0)
  (0.0611961 0.00620818 0)
  (0.0577987 0.011227 0)
  (0.0491071 0.0155381 0)
  (0.0476965 0.0187114 0)
  (-0.0584091 0.0475607 0)
  (0.379466 0.272986 0)
  (-0.180109 0.113776 0)
  (-0.123533 0.0941307 0)
  (-0.159218 0.0724417 0)
  (-0.18262 0.0495005 0)
  (-0.198428 0.0236318 0)
  (-0.204074 -0.00655517 0)
  (-0.195375 -0.0410104 0)
  (-0.17358 -0.0758172 0)
  (-0.141402 -0.103684 0)
  (-0.10381 -0.118978 0)
  (-0.0658601 -0.119166 0)
  (-0.0317888 -0.104114 0)
  (-0.00224388 -0.0743829 0)
  (0.0220563 -0.0400615 0)
  (0.0376158 -0.0152072 0)
  (0.0431906 0.0131733 0)
  (-0.0236445 0.0623234 0)
  (0.122497 -0.00753764 0)
  (0.0724955 -0.0320936 0)
  (0.0642879 -0.0419285 0)
  (0.0672325 -0.0417645 0)
  (0.071843 -0.0380704 0)
  (0.0734819 -0.0282417 0)
  (0.0643568 -0.018335 0)
  (0.057398 -0.013029 0)
  (0.0547986 -0.0100805 0)
  (0.0541086 -0.00818558 0)
  (0.0538769 -0.00689716 0)
  (0.0539492 -0.00590209 0)
  (0.0547499 -0.00475274 0)
  (0.0572025 -0.00139618 0)
  (0.0561002 0.0149994 0)
  (0.0445864 0.0258782 0)
  (0.0541265 0.0332533 0)
  (-0.0993492 0.0728114 0)
  (0.529953 0.346688 0)
  (-0.216645 0.151803 0)
  (-0.0802079 0.12586 0)
  (-0.115541 0.0963033 0)
  (-0.133417 0.0672188 0)
  (-0.146926 0.0337477 0)
  (-0.152506 -0.00713897 0)
  (-0.142597 -0.0550966 0)
  (-0.121254 -0.102357 0)
  (-0.0929367 -0.137884 0)
  (-0.0624864 -0.155455 0)
  (-0.0335263 -0.153438 0)
  (-0.00875355 -0.133426 0)
  (0.0129034 -0.0979057 0)
  (0.0304653 -0.0589528 0)
  (0.0443816 -0.0228768 0)
  (0.0599709 0.0131649 0)
  (0.0588309 0.0534527 0)
  (0.100328 0.0615131 0)
  (0.098795 -0.00243425 0)
  (0.0851161 -0.029382 0)
  (0.0784215 -0.0376787 0)
  (0.073556 -0.0383909 0)
  (0.0669393 -0.0341263 0)
  (0.0664984 -0.0208452 0)
  (0.0771792 -0.0138344 0)
  (0.0861536 -0.0101134 0)
  (0.091568 -0.00783349 0)
  (0.0948262 -0.00592767 0)
  (0.0962566 -0.00386917 0)
  (0.0945107 -0.00120322 0)
  (0.0882655 0.00246991 0)
  (0.0757343 0.00773662 0)
  (0.0598216 0.0250965 0)
  (0.0440818 0.040592 0)
  (0.0629755 0.0533468 0)
  (-0.131315 0.094305 0)
  (0.662605 0.403847 0)
  (-0.262319 0.182724 0)
  (-0.0350322 0.14528 0)
  (-0.0687361 0.111322 0)
  (-0.0779255 0.0792226 0)
  (-0.0862678 0.0412292 0)
  (-0.0890144 -0.00802088 0)
  (-0.0739724 -0.0688698 0)
  (-0.0534246 -0.125956 0)
  (-0.0315183 -0.165121 0)
  (-0.0112171 -0.181873 0)
  (0.00621774 -0.175997 0)
  (0.0193758 -0.151468 0)
  (0.0303893 -0.114514 0)
  (0.0402321 -0.0729295 0)
  (0.0494677 -0.0336936 0)
  (0.0619563 0.00070338 0)
  (0.0760441 0.0197444 0)
  (0.0903211 -0.000536844 0)
  (0.0896657 -0.0213506 0)
  (0.0825846 -0.0300136 0)
  (0.0737645 -0.0325238 0)
  (0.0655051 -0.0316087 0)
  (0.0585441 -0.0266264 0)
  (0.0567522 -0.015512 0)
  (0.060307 -0.00903466 0)
  (0.0646563 -0.0063897 0)
  (0.068391 -0.00485569 0)
  (0.0716493 -0.00278137 0)
  (0.0741709 0.000746775 0)
  (0.0750416 0.00593976 0)
  (0.0731624 0.0129676 0)
  (0.0682637 0.0224286 0)
  (0.061224 0.0371756 0)
  (0.0500769 0.0536413 0)
  (0.0748644 0.0727508 0)
  (-0.00681261 0.101415 0)
  (0.055792 0.150675 0)
  (-0.0835284 0.0748333 0)
  (-0.277797 0.000480963 0)
  (0.761818 0.451358 0)
  (-0.308514 0.203376 0)
  (0.00243936 0.143903 0)
  (-0.0205586 0.116254 0)
  (-0.0197531 0.0857047 0)
  (-0.0214565 0.0472716 0)
  (-0.0142492 -0.00697156 0)
  (0.010406 -0.0860038 0)
  (0.0270027 -0.146245 0)
  (0.0389027 -0.182465 0)
  (0.0461159 -0.194578 0)
  (0.0489572 -0.185054 0)
  (0.0486864 -0.158101 0)
  (0.047275 -0.119886 0)
  (0.0460926 -0.0779018 0)
  (0.0464991 -0.0396681 0)
  (0.0508399 -0.00995184 0)
  (0.0599724 0.00486497 0)
  (0.0662368 -0.00101411 0)
  (0.0649731 -0.0109813 0)
  (0.0585741 -0.0187739 0)
  (0.0503913 -0.022873 0)
  (0.042742 -0.0236268 0)
  (0.0367547 -0.0211166 0)
  (0.0341969 -0.0157681 0)
  (0.0353474 -0.0123066 0)
  (0.0383076 -0.0108878 0)
  (0.0419724 -0.00981126 0)
  (0.046044 -0.00768422 0)
  (0.050239 -0.0034347 0)
  (0.0544657 0.00364052 0)
  (0.0569932 0.0131578 0)
  (0.0581641 0.0249278 0)
  (0.0592925 0.0395717 0)
  (0.0583739 0.0560101 0)
  (0.0797119 0.0767011 0)
  (0.0654563 0.0890169 0)
  (0.0997276 0.0967531 0)
  (0.117478 0.0572102 0)
  (-0.136899 -0.0299361 0)
  (0.815569 0.494218 0)
  (-0.334085 0.187395 0)
  (0.0322621 0.093803 0)
  (0.0391002 0.101031 0)
  (0.0459828 0.082965 0)
  (0.0516892 0.0393241 0)
  (0.0791966 -0.031237 0)
  (0.10321 -0.103767 0)
  (0.113379 -0.157066 0)
  (0.112948 -0.186365 0)
  (0.104657 -0.192448 0)
  (0.0908545 -0.178771 0)
  (0.0741491 -0.149742 0)
  (0.0575467 -0.111522 0)
  (0.0430072 -0.070863 0)
  (0.0326404 -0.0356456 0)
  (0.0281121 -0.0107048 0)
  (0.0294978 0.00104584 0)
  (0.0311227 -0.000230038 0)
  (0.0296127 -0.00652389 0)
  (0.024951 -0.0125862 0)
  (0.0188239 -0.0163214 0)
  (0.0127924 -0.0176995 0)
  (0.00798055 -0.0170799 0)
  (0.00561706 -0.0151926 0)
  (0.00596101 -0.0141186 0)
  (0.00800495 -0.013999 0)
  (0.0110074 -0.0137878 0)
  (0.0148072 -0.0124171 0)
  (0.0194887 -0.00880099 0)
  (0.0256516 -0.00169356 0)
  (0.0332786 0.00883392 0)
  (0.0400511 0.0208692 0)
  (0.0478631 0.0341503 0)
  (0.0558666 0.0479654 0)
  (0.0754431 0.064464 0)
  (0.0882273 0.0697964 0)
  (0.11967 0.0632325 0)
  (0.163388 0.0513202 0)
  (-0.0203357 0.0954888 0)
  (0.921828 0.497297 0)
  (-0.0766095 0.167441 0)
  (0.110647 0.0261649 0)
  (0.163792 0.0227549 0)
  (0.161475 0.0154793 0)
  (0.162961 -0.0294536 0)
  (0.196607 -0.0804867 0)
  (0.211382 -0.125606 0)
  (0.205459 -0.158322 0)
  (0.185176 -0.174004 0)
  (0.155652 -0.171677 0)
  (0.121136 -0.153957 0)
  (0.0853269 -0.124237 0)
  (0.0523895 -0.088024 0)
  (0.0244732 -0.0510009 0)
  (0.00511591 -0.0218656 0)
  (-0.00464185 -0.00436345 0)
  (-0.00657392 0.00182265 0)
  (-0.00646027 0.000720158 0)
  (-0.00766594 -0.00361205 0)
  (-0.0109697 -0.00796383 0)
  (-0.015469 -0.0110259 0)
  (-0.0201023 -0.0128035 0)
  (-0.0239652 -0.0136599 0)
  (-0.026346 -0.0141351 0)
  (-0.0272362 -0.0149073 0)
  (-0.0271987 -0.0159045 0)
  (-0.0266177 -0.0166321 0)
  (-0.0254928 -0.0165517 0)
  (-0.0235197 -0.015091 0)
  (-0.0199016 -0.0115143 0)
  (-0.0117656 -0.00494838 0)
  (-0.000123805 0.00442355 0)
  (0.0110634 0.0137461 0)
  (0.0226717 0.0208682 0)
  (0.039885 0.0277445 0)
  (0.0554247 0.0224562 0)
  (0.0795741 0.00565975 0)
  (0.146405 0.047977 0)
  (-0.428278 0.212647 0)
  (1.06587 0.444161 0)
  (0.518235 0.298298 0)
  (0.529545 0.249835 0)
  (0.518439 0.182863 0)
  (0.469926 0.122381 0)
  (0.433284 0.0600568 0)
  (0.392154 -0.00748221 0)
  (0.342936 -0.0670281 0)
  (0.289162 -0.10789 0)
  (0.232801 -0.126614 0)
  (0.175393 -0.125082 0)
  (0.118912 -0.108879 0)
  (0.0654483 -0.0822317 0)
  (0.0202183 -0.0511967 0)
  (-0.0161336 -0.0207654 0)
  (-0.032979 -0.00599708 0)
  (-0.0401635 0.000510234 0)
  (-0.0417058 0.00227117 0)
  (-0.0420804 0.00106644 0)
  (-0.0432206 -0.00158515 0)
  (-0.0458447 -0.00446582 0)
  (-0.049487 -0.00699534 0)
  (-0.0535028 -0.00909533 0)
  (-0.0573594 -0.0108437 0)
  (-0.0608025 -0.0123689 0)
  (-0.0639947 -0.013769 0)
  (-0.0673384 -0.0148802 0)
  (-0.0712093 -0.0153477 0)
  (-0.0759607 -0.0146797 0)
  (-0.0820655 -0.0122303 0)
  (-0.090211 -0.00715931 0)
  (-0.101119 0.00138666 0)
  (-0.112761 0.013285 0)
  (-0.127973 0.0283882 0)
  (-0.152876 0.0467698 0)
  (-0.190185 0.0673881 0)
  (-0.241573 0.0862293 0)
  (-0.297499 0.0999329 0)
  (-0.371593 0.10694 0)
  (-0.650638 0.106345 0)
  (0.23396 0.0527789 0)
  (0.305906 0.115869 0)
  (0.321234 0.091251 0)
  (0.299659 0.0394622 0)
  (0.275071 -0.0106913 0)
  (0.244389 -0.0469918 0)
  (0.20308 -0.0684335 0)
  (0.153959 -0.0754006 0)
  (0.100368 -0.0686644 0)
  (0.0460797 -0.0528669 0)
  (-0.00873333 -0.0294331 0)
  (-0.0452105 -0.0114153 0)
  (-0.0636635 -0.00305099 0)
  (-0.070974 -0.000674024 0)
  (-0.0731885 -0.000204235 0)
  (-0.0734942 -0.000902097 0)
  (-0.0737857 -0.00250465 0)
  (-0.0749194 -0.0046057 0)
  (-0.0771206 -0.00670414 0)
  (-0.0803631 -0.00848983 0)
  (-0.0841424 -0.00997038 0)
  (-0.0882344 -0.0111068 0)
  (-0.092655 -0.0118993 0)
  (-0.0975586 -0.0123081 0)
  (-0.103094 -0.0121444 0)
  (-0.109294 -0.0110633 0)
  (-0.116024 -0.00859175 0)
  (-0.12294 -0.00419075 0)
  (-0.129417 0.00270218 0)
  (-0.134403 0.0122985 0)
  (-0.138373 0.0255764 0)
  (-0.141808 0.0431441 0)
  (-0.146015 0.0641996 0)
  (-0.151766 0.0850436 0)
  (-0.155353 0.0955523 0)
  (-0.141312 0.0734142 0)
  (-0.110311 -0.024988 0)
  (-0.286593 -0.213716 0)
  (0.120066 0.324287 0)
  (0.00837293 0.203517 0)
  (0.0392143 0.118353 0)
  (0.058395 0.0603386 0)
  (0.0630091 0.0215541 0)
  (0.0599819 -0.00482557 0)
  (0.0400468 -0.0199117 0)
  (0.00522047 -0.0188936 0)
  (-0.0367647 -0.00168252 0)
  (-0.0702588 0.0128793 0)
  (-0.0913324 0.0208587 0)
  (-0.100312 0.0232246 0)
  (-0.102504 0.0233388 0)
  (-0.10243 0.0233794 0)
  (-0.10154 0.0240801 0)
  (-0.100493 0.0251956 0)
  (-0.0997584 0.026327 0)
  (-0.0996218 0.0270741 0)
  (-0.10014 0.0270161 0)
  (-0.101266 0.0258173 0)
  (-0.103044 0.0237806 0)
  (-0.105406 0.0215332 0)
  (-0.108294 0.0193516 0)
  (-0.111617 0.0173848 0)
  (-0.115236 0.0157396 0)
  (-0.118933 0.0145281 0)
  (-0.122397 0.0138879 0)
  (-0.125141 0.0139733 0)
  (-0.126349 0.0154728 0)
  (-0.124855 0.0198435 0)
  (-0.119078 0.0282511 0)
  (-0.107631 0.0417004 0)
  (-0.0903683 0.0602106 0)
  (-0.0683354 0.0804152 0)
  (-0.0434625 0.0948421 0)
  (-0.00761594 0.0857931 0)
  (0.146939 0.00931833 0)
  (-0.209924 -0.129666 0)
  (-0.422059 -0.515987 0)
  (-0.637277 -0.143286 0)
  (-0.449391 0.177687 0)
  (-0.357972 0.0560107 0)
  (-0.213999 -0.00558547 0)
  (-0.145777 -0.047771 0)
  (-0.117381 -0.0704262 0)
  (-0.113216 -0.0712103 0)
  (-0.122563 -0.0625482 0)
  (-0.135037 -0.0548477 0)
  (-0.140486 -0.050383 0)
  (-0.138704 -0.0489178 0)
  (-0.134224 -0.0497608 0)
  (-0.129017 -0.0525387 0)
  (-0.124527 -0.0560308 0)
  (-0.121053 -0.0596522 0)
  (-0.118223 -0.0632705 0)
  (-0.115778 -0.0669427 0)
  (-0.113677 -0.070525 0)
  (-0.111994 -0.0735283 0)
  (-0.110867 -0.0753241 0)
  (-0.110464 -0.0754854 0)
  (-0.110889 -0.0741096 0)
  (-0.112099 -0.0717761 0)
  (-0.113917 -0.068718 0)
  (-0.116118 -0.0650871 0)
  (-0.118418 -0.0609137 0)
  (-0.120451 -0.0561212 0)
  (-0.121734 -0.0505007 0)
  (-0.121631 -0.0436999 0)
  (-0.119127 -0.0357368 0)
  (-0.112319 -0.0266373 0)
  (-0.0983995 -0.0158529 0)
  (-0.0748638 -0.00247684 0)
  (-0.0415838 0.014367 0)
  (0.00924487 0.0363364 0)
  (0.0618161 0.042425 0)
  (0.109551 0.0241374 0)
  (0.172043 -0.0158488 0)
  (-0.196328 -0.0826169 0)
)
;

boundaryField
{
  floor
  {
    type noSlip;
  }
  ceiling
  {
    type noSlip;
  }
  sWall
  {
    type noSlip;
  }
  nWall
  {
    type noSlip;
  }
  sideWalls
  {
    type empty;
  }
  glass1
  {
    type noSlip;
  }
  glass2
  {
    type noSlip;
  }
  sun
  {
    type noSlip;
  }
  Table_master
  {
    type noSlip;
  }
  Table_slave
  {
    type noSlip;
  }
  inlet
  {
    type fixedValue;
    value uniform (0.46194 -0.191342 0);
  }
  outlet
  {
    type zeroGradient;
  }
} 	// ************************************************************************* //

