/*--------------------------------*- C++ -*----------------------------------*\
  =========                 |
  \\      /  F ield         | OpenFOAM: The Open Source CFD Toolbox
   \\    /   O peration     | Website:  https://openfoam.org
    \\  /    A nd           | Version:  6
     \\/     M anipulation  |
\*---------------------------------------------------------------------------*/
FoamFile
{
    version     2.0;
    format      ascii;
    class       volScalarField;
    location    "5900";
    object      T;
}
// * * * * * * * * * * * * * * * * * * * * * * * * * * * * * * * * * * * * * //

dimensions      [0 0 0 1 0 0 0];

internalField   nonuniform List<scalar> 
662
(
302.586
302.294
302.279
302.275
302.27
302.265
302.259
302.253
302.245
302.232
302.214
302.196
302.187
302.193
302.228
302.387
302.363
302.356
302.362
302.369
302.375
302.38
302.385
302.391
302.396
302.401
302.406
302.41
302.415
302.42
302.426
302.432
302.456
302.799
302.346
302.323
302.329
302.335
302.338
302.338
302.333
302.321
302.293
302.249
302.2
302.172
302.174
302.191
302.205
302.217
302.241
302.393
302.342
302.338
302.346
302.356
302.359
302.361
302.363
302.364
302.366
302.367
302.368
302.37
302.372
302.377
302.384
302.395
302.437
303.022
302.41
302.373
302.392
302.416
302.437
302.452
302.458
302.446
302.4
302.312
302.213
302.162
302.163
302.186
302.202
302.212
302.234
302.345
302.327
302.331
302.348
302.366
302.366
302.366
302.366
302.366
302.366
302.365
302.365
302.365
302.365
302.37
302.375
302.385
302.431
303.241
302.491
302.419
302.447
302.49
302.537
302.58
302.609
302.606
302.541
302.393
302.226
302.148
302.154
302.186
302.21
302.22
302.231
302.243
302.263
302.295
302.331
302.366
302.396
302.42
302.436
302.45
302.461
302.471
302.477
302.482
302.486
302.487
302.456
302.425
302.405
302.434
303.441
302.602
302.479
302.488
302.536
302.596
302.666
302.731
302.755
302.675
302.461
302.227
302.132
302.145
302.193
302.231
302.249
302.258
302.275
302.304
302.341
302.381
302.419
302.453
302.481
302.501
302.517
302.53
302.538
302.542
302.541
302.535
302.526
302.502
302.466
302.432
302.435
302.532
302.609
302.611
303.599
302.816
302.641
302.585
302.593
302.633
302.696
302.787
302.842
302.738
302.472
302.213
302.105
302.138
302.21
302.269
302.301
302.318
302.343
302.376
302.413
302.453
302.489
302.52
302.545
302.564
302.578
302.587
302.592
302.592
302.585
302.574
302.559
302.535
302.501
302.464
302.449
302.491
302.52
302.563
304.853
303.551
303.149
302.928
302.807
302.76
302.775
302.843
302.907
302.808
302.502
302.176
302.049
302.139
302.25
302.333
302.379
302.406
302.432
302.463
302.497
302.531
302.562
302.587
302.607
302.621
302.63
302.635
302.636
302.632
302.623
302.607
302.587
302.563
302.533
302.5
302.478
302.487
302.5
302.532
307.15
305.018
304.274
303.839
303.506
303.274
303.145
303.087
302.964
302.648
302.229
301.965
302.023
302.186
302.334
302.429
302.476
302.501
302.524
302.551
302.579
302.605
302.628
302.645
302.657
302.665
302.669
302.669
302.667
302.661
302.652
302.638
302.617
302.596
302.574
302.55
302.538
302.544
302.566
302.733
293.653
299.545
301.658
302.411
302.626
302.599
302.353
301.966
301.721
301.765
302.11
302.321
302.474
302.537
302.567
302.587
302.606
302.627
302.647
302.665
302.679
302.688
302.694
302.696
302.696
302.695
302.692
302.688
302.685
302.684
302.686
302.691
302.706
302.731
302.768
302.806
302.84
302.917
295.443
295.311
297.732
299.565
300.52
300.865
300.967
301.146
301.482
301.894
302.372
302.518
302.589
302.623
302.643
302.658
302.672
302.686
302.698
302.708
302.714
302.718
302.721
302.722
302.722
302.722
302.723
302.723
302.725
302.727
302.731
302.739
302.753
302.774
302.799
302.826
302.85
302.898
299.8
297.75
295.634
295.674
297.383
298.935
299.859
300.436
300.94
301.462
301.975
302.352
302.591
302.643
302.672
302.689
302.701
302.71
302.719
302.726
302.732
302.736
302.738
302.74
302.741
302.742
302.743
302.744
302.745
302.746
302.748
302.75
302.754
302.76
302.769
302.783
302.8
302.82
302.846
302.873
300.058
298.938
298.441
298.494
299.264
300.064
300.729
301.324
301.856
302.258
302.522
302.663
302.723
302.736
302.746
302.753
302.758
302.763
302.766
302.769
302.77
302.771
302.771
302.771
302.771
302.77
302.77
302.769
302.769
302.768
302.768
302.768
302.769
302.772
302.776
302.784
302.795
302.804
302.864
302.97
303.806
303.343
303.022
302.855
302.77
302.756
302.8
302.885
302.885
302.673
302.323
302.086
305.828
304.564
304.042
303.661
303.377
303.197
303.113
303.044
302.831
302.436
302.064
301.941
297.568
300.856
302.135
302.559
302.637
302.508
302.16
301.81
301.709
301.871
294.393
296.515
298.768
300.137
300.751
300.916
301.038
301.296
301.688
302.078
299.098
296.509
295.131
296.493
298.234
299.458
300.172
300.685
301.199
301.722
302.191
302.466
299.271
298.647
298.354
298.844
299.681
300.41
301.032
301.602
302.075
302.406
302.607
302.698
304.017
304.025
303.64
303.352
303.133
302.993
302.939
302.957
302.955
302.768
302.399
302.082
307.237
305.06
304.48
303.952
303.59
303.347
303.19
303.075
302.817
302.393
301.992
301.846
295.34
296.484
299.292
300.88
301.563
301.725
301.625
301.469
301.512
301.771
293.947
295.186
297.192
298.907
299.917
300.407
300.734
301.164
301.662
302.112
299.825
298.164
296.934
296.937
298.194
299.364
300.172
300.798
301.382
301.88
302.282
302.527
299.861
299.859
299.931
300.08
300.513
301.025
301.525
301.983
302.336
302.558
302.678
302.72
304.314
303.817
303.487
303.233
303.051
302.955
302.941
302.97
302.891
302.595
302.217
302.014
305.856
304.832
304.191
303.754
303.456
303.26
303.133
302.97
302.618
302.172
301.881
301.881
294.9
298.025
300.23
301.305
301.694
301.702
301.534
301.459
301.623
301.933
294.485
296.155
298.135
299.494
300.208
300.564
300.936
301.409
301.903
302.281
298.915
297.469
296.644
297.53
298.824
299.803
300.495
301.094
301.644
302.095
302.428
302.583
299.842
299.89
299.985
300.272
300.768
301.278
301.763
302.176
302.462
302.629
302.707
302.724
)
;

boundaryField
{
    floor
    {
        type            wallHeatTransfer;
        Tinf            uniform 305.2;
        alphaWall       uniform 0.24;
        value           nonuniform List<scalar> 
36
(
302.538
302.909
302.836
302.791
302.787
302.799
302.825
302.855
302.885
302.914
302.941
302.968
302.993
303.017
303.041
303.065
303.091
303.108
303.159
303.159
303.03
302.962
302.917
302.911
302.964
302.946
302.538
302.476
302.531
302.604
302.909
302.604
302.914
302.553
302.731
302.526
)
;
    }
    ceiling
    {
        type            wallHeatTransfer;
        Tinf            uniform 303.2;
        alphaWall       uniform 0.24;
        value           nonuniform List<scalar> 
58
(
300.061
300.096
300.178
300.446
300.916
301.401
301.864
302.257
302.529
302.689
302.765
302.779
302.783
302.796
302.805
302.813
302.818
302.823
302.828
302.831
302.833
302.834
302.834
302.833
302.832
302.831
302.829
302.827
302.825
302.823
302.821
302.819
302.818
302.818
302.82
302.825
302.834
302.844
302.9
302.992
305.708
304.748
294.875
300.273
300.073
300.131
300.265
300.673
301.16
301.637
302.073
302.409
302.62
302.737
302.777
306.917
304.963
296.1
)
;
    }
    sWall
    {
        type            wallHeatTransfer;
        Tinf            uniform 315.2;
        alphaWall       uniform 0.36;
        value           nonuniform List<scalar> 4(301.073 301.196 301.059 301.569);
    }
    nWall
    {
        type            wallHeatTransfer;
        Tinf            uniform 307.2;
        alphaWall       uniform 0.36;
        value           nonuniform List<scalar> 6(303.448 303.388 303.273 303.504 303.467 303.564);
    }
    sideWalls
    {
        type            empty;
    }
    glass1
    {
        type            wallHeatTransfer;
        Tinf            uniform 315.2;
        alphaWall       uniform 4.3;
        value           nonuniform List<scalar> 10(311.41 310.738 310.278 309.903 309.6 309.296 309.289 311.382 309.828 311.433);
    }
    glass2
    {
        type            wallHeatTransfer;
        Tinf            uniform 307.2;
        alphaWall       uniform 4.3;
        value           nonuniform List<scalar> 2(305.472 305.6);
    }
    sun
    {
        type            wallHeatTransfer;
        Tinf            uniform 305.2;
        alphaWall       uniform 0.24;
        value           nonuniform List<scalar> 
14
(
302.88
302.603
302.586
302.571
302.558
302.545
302.533
302.52
302.505
302.486
302.465
302.447
302.442
302.461
)
;
    }
    Table_master
    {
        type            zeroGradient;
    }
    Table_slave
    {
        type            zeroGradient;
    }
    inlet
    {
        type            fixedValue;
        value           uniform 293.15;
    }
    outlet
    {
        type            zeroGradient;
    }
}


// ************************************************************************* //
