/*--------------------------------*- C++ -*----------------------------------*\
  =========                 |
  \\      /  F ield         | OpenFOAM: The Open Source CFD Toolbox
   \\    /   O peration     | Website:  https://openfoam.org
    \\  /    A nd           | Version:  6
     \\/     M anipulation  |
\*---------------------------------------------------------------------------*/
FoamFile
{
    version     2.0;
    format      ascii;
    class       volScalarField;
    location    "36799.9999985100221";
    object      k;
}
// * * * * * * * * * * * * * * * * * * * * * * * * * * * * * * * * * * * * * //

dimensions      [0 2 -2 0 0 0 0];

internalField   nonuniform List<scalar> 
778
(
0.00158604
0.0018013
0.00178815
0.00194667
0.00209783
0.00223997
0.00237647
0.00251188
0.00265198
0.00280506
0.00295505
0.00310117
0.00324861
0.00341103
0.00358477
0.000792443
0.00162611
0.00165232
0.00157318
0.0014452
0.0012827
0.00113051
0.000998918
0.000887306
0.000792847
0.000713123
0.000645098
0.000586086
0.000533556
0.000484803
0.000436325
0.000398006
0.000326122
0.00340722
0.00643404
0.00268769
0.00274617
0.00288779
0.00305426
0.00323444
0.00342996
0.00364287
0.00387284
0.0041246
0.00437817
0.00459396
0.00469947
0.00459414
0.00429775
0.0039066
0.00357972
0.00253822
0.00281408
0.00295644
0.00289851
0.00266516
0.00226544
0.00190572
0.00160929
0.00136953
0.00117575
0.00101703
0.0008853
0.000774075
0.000681279
0.000615296
0.000574841
0.000864641
0.000524329
0.00549124
0.0127828
0.00347826
0.00321211
0.00329737
0.00345511
0.00363633
0.00384026
0.00407025
0.00432651
0.0046343
0.00500954
0.00544991
0.00596005
0.00653216
0.00686184
0.00627926
0.00538665
0.00403685
0.00416923
0.00417338
0.00397636
0.00357894
0.0026672
0.00201669
0.00157665
0.00127
0.00104967
0.00088718
0.000764807
0.000671996
0.000603806
0.000551582
0.000548835
0.00116566
0.000678818
0.00797435
0.0217619
0.00449185
0.00339069
0.00334135
0.00343782
0.00354906
0.00366835
0.00380831
0.0039903
0.00425787
0.00464713
0.00517014
0.00582487
0.00655546
0.00713636
0.00722989
0.00724654
0.00534079
0.00554571
0.00537326
0.00512403
0.00478633
0.0043483
0.00345653
0.00286004
0.002437
0.0021107
0.00185108
0.00163246
0.00143897
0.00125894
0.00107805
0.000801105
0.00066011
0.0014217
0.000823396
0.0108776
0.0336403
0.00621431
0.00342498
0.00315809
0.00316668
0.00318921
0.00320939
0.00325148
0.00336021
0.00359362
0.00398802
0.00455259
0.00527671
0.00608777
0.00681894
0.00728346
0.00764214
0.00751248
0.00665003
0.00606991
0.00557678
0.00509798
0.00462929
0.00412368
0.00366635
0.00327561
0.00293782
0.0026314
0.00234778
0.00207917
0.00181846
0.00155506
0.00122237
0.000931043
0.00119118
0.0012173
0.00117077
0.00203512
0.00188189
0.0141765
0.047606
0.00928698
0.00349017
0.00290838
0.00282247
0.00276407
0.00269915
0.00266375
0.00273397
0.00298011
0.00341366
0.00402352
0.00479902
0.00565568
0.00646345
0.00706921
0.00740541
0.00731993
0.00678609
0.0062119
0.00563504
0.00507326
0.00455582
0.00409167
0.00369614
0.00336343
0.00307392
0.00280681
0.00255139
0.00229882
0.00204219
0.00177403
0.00147174
0.00117907
0.00111357
0.00111314
0.00170581
0.00506689
0.00269572
0.0179943
0.0606124
0.0143653
0.00382018
0.00271517
0.00252921
0.00241154
0.00229372
0.0022207
0.00231117
0.00262996
0.00313939
0.00380323
0.00463474
0.00553305
0.0063712
0.0070037
0.00732845
0.00725289
0.00681595
0.0062136
0.00555373
0.00491146
0.00434279
0.00387272
0.00350066
0.0032068
0.00296181
0.00274123
0.00252883
0.00231322
0.00208715
0.00184548
0.00158317
0.00132739
0.00116143
0.00109473
0.00155596
0.00627167
0.00373665
0.0216435
0.0704851
0.021443
0.00510427
0.0027431
0.00237179
0.00221
0.00208171
0.00202602
0.00221911
0.00264955
0.0032316
0.00393997
0.00478023
0.00570707
0.00658177
0.00722989
0.00751728
0.00738546
0.0068966
0.00619872
0.00542778
0.00469241
0.00406517
0.00357488
0.00321269
0.00294765
0.00274097
0.00256401
0.00239541
0.00222157
0.00203503
0.00183205
0.0016128
0.0013961
0.00123215
0.00116293
0.00211973
0.0135936
0.0063489
0.0228345
0.0694874
0.0325411
0.0110641
0.00406992
0.00258792
0.00223552
0.00210286
0.00218983
0.00251198
0.00300014
0.00360317
0.00433692
0.00522137
0.00619699
0.00709954
0.00772641
0.00792882
0.00766814
0.00702864
0.00616881
0.00525219
0.00441059
0.00372449
0.00321784
0.00286954
0.0026359
0.00246933
0.00233619
0.00221076
0.00207836
0.00193194
0.00176888
0.00159107
0.00141324
0.00129271
0.00138816
0.00414185
0.0263424
0.00838803
0.0219178
0.0516232
0.0336445
0.0174406
0.00859302
0.00476198
0.00326224
0.00273025
0.00285328
0.00321055
0.00367225
0.00424835
0.00500186
0.00595042
0.00698967
0.00790229
0.00845247
0.00849063
0.0080088
0.00712988
0.0060488
0.00496164
0.0040176
0.00329482
0.00280046
0.00249041
0.0023036
0.00218548
0.00209693
0.00201137
0.00191543
0.00180344
0.00167403
0.00153004
0.00138605
0.00131661
0.00193097
0.0108671
0.0222448
0.008551
0.0192304
0.0394243
0.030235
0.0195696
0.0121868
0.00794232
0.00571952
0.00467062
0.00436274
0.00439943
0.00465255
0.00514833
0.00594391
0.00699589
0.00810595
0.00897897
0.0093525
0.00910219
0.00827953
0.00707032
0.00572412
0.0044722
0.00347092
0.00277487
0.00235268
0.00211866
0.00199425
0.00192629
0.00187589
0.00182152
0.00175324
0.00166689
0.00156234
0.00144397
0.00133131
0.0013484
0.00300392
0.0112338
0.0190747
0.00832343
0.0159446
0.0315773
0.0266469
0.0195398
0.0139784
0.0102865
0.00802923
0.00675348
0.00604976
0.00573085
0.00578369
0.00627938
0.007221
0.00843399
0.00958201
0.0102922
0.0103136
0.00959554
0.00829329
0.00667943
0.00507314
0.00373596
0.0028016
0.00224175
0.00196135
0.00182116
0.00175181
0.0017174
0.00168943
0.00165386
0.0016037
0.0015353
0.00145032
0.00135537
0.00127512
0.00134276
0.00282102
0.0100509
0.0192225
0.00822875
0.0132625
0.0256718
0.0233505
0.0186911
0.0145854
0.0115899
0.00954524
0.00821067
0.00730039
0.00684071
0.00696121
0.00772791
0.00899169
0.0103772
0.0114099
0.011699
0.0110947
0.00968902
0.00779512
0.00577911
0.00404478
0.00284704
0.0022016
0.00186936
0.00170693
0.00162648
0.00158518
0.00156213
0.00153974
0.0015096
0.00146752
0.00141245
0.0013467
0.0012785
0.00124031
0.00139109
0.00276163
0.00911794
0.0170043
0.00934142
0.0133558
0.022417
0.0220605
0.0177621
0.0143942
0.0118956
0.0100854
0.00876922
0.00791839
0.00777638
0.00847941
0.0098791
0.0115346
0.0128681
0.0133797
0.0128071
0.0112426
0.00896849
0.00652596
0.00431661
0.00296346
0.00222127
0.00185388
0.0016731
0.00158015
0.00152669
0.0014905
0.00146133
0.0014306
0.00139416
0.00135031
0.00130182
0.00125891
0.00125336
0.00137975
0.00184644
0.00335302
0.00942665
0.015216
0.00970201
0.0108795
0.0117657
0.0129249
0.0125535
0.0113747
0.0100742
0.00894537
0.00820173
0.00830291
0.00942023
0.0113005
0.0133665
0.0149404
0.0154874
0.0147655
0.0128019
0.0100908
0.00699652
0.00461783
0.00311084
0.00232156
0.00193949
0.00175309
0.00165144
0.00158549
0.00153331
0.00148482
0.00143591
0.00138629
0.0013367
0.00128913
0.00125769
0.00128476
0.00147145
0.0019883
0.00304353
0.00510321
0.0099952
0.0163071
0.00933005
0.0035431
0.00482212
0.00599114
0.00659262
0.00726765
0.00878654
0.0113082
0.0141429
0.0165556
0.017969
0.0180201
0.016646
0.0140907
0.0105062
0.00722522
0.00475605
0.00326359
0.00250543
0.00215865
0.00199288
0.00189856
0.00183131
0.00177388
0.00171859
0.00166135
0.00160001
0.00153557
0.00148485
0.00145322
0.00146691
0.00159616
0.00198426
0.00284706
0.00442336
0.00698213
0.0106405
0.0145182
0.00844973
0.00444613
0.00627729
0.00808501
0.0109896
0.0146653
0.0181256
0.0203728
0.0214375
0.0213459
0.0200833
0.0174935
0.0139576
0.0102687
0.00699033
0.00469842
0.00340454
0.00280605
0.00255699
0.00244744
0.00238694
0.00234456
0.00231155
0.00228631
0.00226821
0.00225437
0.00223829
0.00221067
0.00216538
0.00214726
0.00218362
0.00234235
0.00275656
0.00363752
0.00525543
0.00790005
0.0116826
0.0159436
0.00816844
0.015082
0.0245502
0.0181134
0.0143607
0.0169536
0.0206455
0.022775
0.0234821
0.0230356
0.0216817
0.0196309
0.0169239
0.0136802
0.0102901
0.00732898
0.00525515
0.00414273
0.00367253
0.00349918
0.00342636
0.00337626
0.00332564
0.00327357
0.00322754
0.00319731
0.00319148
0.00321515
0.00326764
0.00334022
0.00341561
0.00348101
0.00361306
0.00385948
0.00431152
0.00514497
0.00663525
0.00921317
0.0135959
0.017942
0.0101157
0.0138095
0.0170637
0.0178251
0.0207262
0.0216423
0.0220547
0.0210605
0.0192567
0.0171494
0.0149794
0.0128326
0.0107233
0.00870278
0.00693806
0.00562817
0.0048652
0.00452023
0.00440108
0.00437698
0.00438094
0.00438306
0.00437462
0.00435959
0.00434961
0.00436081
0.00441228
0.00452508
0.00472006
0.00501263
0.0054041
0.00586787
0.00633548
0.00681711
0.00743339
0.00837535
0.00988953
0.0123327
0.0169529
0.0187273
0.0113554
0.0121314
0.00891329
0.00882693
0.00935322
0.00980317
0.00924172
0.00818048
0.0070101
0.005909
0.00492744
0.00407184
0.00335509
0.00280755
0.00245229
0.00227555
0.00221716
0.00222226
0.00225554
0.00229916
0.00234564
0.00239353
0.00244564
0.00250833
0.00259102
0.00270552
0.00286456
0.00307876
0.00335256
0.00368165
0.0040546
0.00445929
0.00489208
0.00536024
0.00586368
0.00642743
0.00708081
0.00783411
0.00871839
0.00977884
0.00940112
)
;

boundaryField
{
    floor
    {
        type            kqRWallFunction;
        value           nonuniform List<scalar> 
36
(
0.00358477
0.000792443
0.00162611
0.00165232
0.00157318
0.0014452
0.0012827
0.00113051
0.000998918
0.000887306
0.000792847
0.000713123
0.000645098
0.000586086
0.000533556
0.000484803
0.000436325
0.000398006
0.000326122
0.000326122
0.000524329
0.000678818
0.000823396
0.00117077
0.00203512
0.00188189
0.00358477
0.00429775
0.0039066
0.00357972
0.000792443
0.00357972
0.00253822
0.00538665
0.00403685
0.00534079
)
;
    }
    ceiling
    {
        type            kqRWallFunction;
        value           nonuniform List<scalar> 
43
(
0.0121314
0.00891329
0.00882693
0.00935322
0.00980317
0.00924172
0.00818048
0.0070101
0.005909
0.00492744
0.00407184
0.00335509
0.00280755
0.00245229
0.00227555
0.00221716
0.00222226
0.00225554
0.00229916
0.00234564
0.00239353
0.00244564
0.00250833
0.00259102
0.00270552
0.00286456
0.00307876
0.00335256
0.00368165
0.0040546
0.00445929
0.00489208
0.00536024
0.00586368
0.00642743
0.00708081
0.00783411
0.00871839
0.00977884
0.00940112
0.0108795
0.0117657
0.00444613
)
;
    }
    sWall
    {
        type            kqRWallFunction;
        value           nonuniform List<scalar> 9(0.0219178 0.0192304 0.0159446 0.0132625 0.0133558 0.0108795 0.015082 0.0138095 0.0121314);
    }
    nWall
    {
        type            kqRWallFunction;
        value           nonuniform List<scalar> 
14
(
0.00188189
0.00269572
0.00373665
0.008551
0.00832343
0.00822875
0.00934142
0.00970201
0.00933005
0.00844973
0.00816844
0.0101157
0.0113554
0.00940112
)
;
    }
    sideWalls
    {
        type            empty;
    }
    glass1
    {
        type            kqRWallFunction;
        value           nonuniform List<scalar> 9(0.00158604 0.00340722 0.00549124 0.00797435 0.0108776 0.0141765 0.0179943 0.0216435 0.0228345);
    }
    glass2
    {
        type            kqRWallFunction;
        value           nonuniform List<scalar> 2(0.0063489 0.00838803);
    }
    sun
    {
        type            kqRWallFunction;
        value           nonuniform List<scalar> 
14
(
0.00158604
0.0018013
0.00178815
0.00194667
0.00209783
0.00223997
0.00237647
0.00251188
0.00265198
0.00280506
0.00295505
0.00310117
0.00324861
0.00341103
)
;
    }
    Table_master
    {
        type            kqRWallFunction;
        value           nonuniform List<scalar> 9(0.0026672 0.00201669 0.00157665 0.00127 0.00104967 0.00088718 0.000764807 0.000671996 0.000603806);
    }
    Table_slave
    {
        type            kqRWallFunction;
        value           nonuniform List<scalar> 9(0.00345653 0.00286004 0.002437 0.0021107 0.00185108 0.00163246 0.00143897 0.00125894 0.00107805);
    }
    inlet
    {
        type            turbulentIntensityKineticEnergyInlet;
        intensity       0.05;
        value           uniform 0.0009375;
    }
    outlet
    {
        type            zeroGradient;
    }
}


// ************************************************************************* //
