/*--------------------------------*- C++ -*----------------------------------*\
  =========                 |
  \\      /  F ield         | OpenFOAM: The Open Source CFD Toolbox
   \\    /   O peration     | Website:  https://openfoam.org
    \\  /    A nd           | Version:  6
     \\/     M anipulation  |
\*---------------------------------------------------------------------------*/
FoamFile
{
    version     2.0;
    format      ascii;
    class       volScalarField;
    location    "2200";
    object      nut;
}
// * * * * * * * * * * * * * * * * * * * * * * * * * * * * * * * * * * * * * //

dimensions      [0 2 -1 0 0 0 0];

internalField   nonuniform List<scalar> 
778
(
0.000844052
0.000894213
0.0012367
0.000893283
0.00220095
0.00157413
0.000930509
0.00184788
0.00308474
0.00190714
0.000963687
0.0020822
0.00214912
0.00425914
0.0022425
0.000993166
0.00223674
0.00298092
0.00204717
0.00580463
0.00257762
0.00102002
0.00240295
0.00326222
0.00338636
0.00207333
0.00758968
0.00292297
0.00104535
0.0025679
0.00351473
0.00379434
0.00328274
0.00251376
0.00927967
0.00323242
0.00107029
0.00271815
0.00374509
0.00403201
0.00393081
0.00280121
0.00351615
0.0105934
0.00333476
0.00109618
0.00283745
0.003945
0.00420625
0.00411952
0.0038212
0.00228108
0.00503911
0.0102308
0.00328273
0.00112222
0.00290695
0.00410857
0.00432409
0.00418488
0.00401503
0.00351548
0.00219412
0.00649977
0.00831005
0.00309221
0.00114818
0.00294017
0.00422783
0.00439504
0.00416499
0.00398535
0.00385817
0.00284885
0.00306333
0.00683827
0.0071164
0.00282795
0.00117556
0.00291626
0.00431985
0.00443413
0.00408659
0.00383957
0.0038058
0.00352362
0.00191295
0.00446363
0.00665973
0.00640292
0.00258157
0.00120703
0.00279574
0.00442012
0.00447977
0.00399561
0.00361961
0.00360092
0.00360859
0.00232836
0.00280406
0.00523293
0.00643883
0.00571048
0.00258048
0.00124212
0.00250215
0.0045238
0.00460494
0.00396278
0.00340669
0.00328966
0.00346224
0.00275893
0.00206908
0.00393206
0.0056002
0.0061462
0.00567389
0.00233252
0.00195694
0.00460272
0.00483401
0.00406326
0.00332081
0.00295877
0.00315477
0.00284383
0.00190447
0.00308567
0.00470646
0.00574735
0.0062367
0.00242272
0.00135766
0.00458458
0.00516868
0.00432403
0.00342035
0.00284959
0.00263942
0.00259242
0.00198095
0.00265476
0.00403206
0.00517477
0.00576961
0.00239156
0.00132273
0.00426401
0.00555187
0.00475639
0.00369912
0.00299907
0.00261381
0.00241631
0.00215964
0.00253359
0.00362583
0.00469037
0.00530259
0.00297544
0.000192696
0.00129756
0.00323927
0.00579028
0.00534215
0.00415697
0.00331704
0.00285366
0.00258524
0.00243475
0.00266862
0.00346106
0.00435937
0.00491394
0.00331835
0.000100103
0.00271112
0.00154444
0.00549008
0.00600063
0.00479393
0.00379756
0.00321597
0.00289441
0.00275666
0.00290195
0.00345569
0.00417381
0.00461605
0.00342898
0.000127344
0.000411531
0.00250863
0.00414145
0.0066209
0.0055677
0.00445922
0.00370302
0.00327827
0.0030873
0.00314192
0.00349916
0.00402302
0.00435306
0.0033822
0.000230655
0.000269036
0.000941452
0.00393685
0.00449641
0.00159256
0.00708753
0.00642099
0.00526748
0.00436331
0.00378356
0.00346961
0.00339342
0.00355916
0.0038658
0.00400314
0.0031132
0.000312236
0.000400176
0.00224797
0.00543632
0.00242655
0.0038989
0.00184369
0.00418011
0.00695622
0.0072243
0.00614526
0.0051902
0.00447524
0.00400423
0.00375734
0.00371553
0.00379022
0.00371762
0.00285139
0.000516795
0.00138953
0.00551002
0.00659928
0.00189278
0.00236876
0.00191838
0.00142702
0.00586922
0.00729711
0.00769856
0.00696182
0.0060875
0.00534182
0.0047598
0.00435541
0.00411879
0.00398345
0.0037523
0.00300005
0.00141974
0.00397391
0.00828249
0.00809633
0.00194664
0.00232127
0.00117697
0.00337256
0.00659721
0.00757927
0.00787079
0.00753863
0.0069023
0.00626641
0.00569367
0.00522103
0.00486598
0.00460175
0.00432049
0.00382659
0.0032794
0.00689259
0.010099
0.00906633
0.00193341
0.000871478
0.00214242
0.00462126
0.00671353
0.0076725
0.00791878
0.00779986
0.00747994
0.00707486
0.00664964
0.00624499
0.00589983
0.00563263
0.00542874
0.00528838
0.00565278
0.00910162
0.0110902
0.00947077
0.0018571
0.000903889
0.00295221
0.00509556
0.00572871
0.00757131
0.00784705
0.00783457
0.00774754
0.00761284
0.00742835
0.00721375
0.00701006
0.00686541
0.00683407
0.00703269
0.00789657
0.0104541
0.0115015
0.00944633
0.00174969
0.000911653
0.00336349
0.00454433
0.00132782
0.00715686
0.00767175
0.00770411
0.00774034
0.00781235
0.0078748
0.00790528
0.0079235
0.0079804
0.0081542
0.00858163
0.00953768
0.0111058
0.0114447
0.0091146
0.00163832
0.000897506
0.00333154
0.0011784
0.00121017
0.0058132
0.00740292
0.00747467
0.0075357
0.00770498
0.00793606
0.0081781
0.00841784
0.0086824
0.00903143
0.00955257
0.0103131
0.0111372
0.0109275
0.00853951
0.00153504
0.000867255
0.00261087
0.0010252
0.00111999
0.00507151
0.0069789
0.00721067
0.00723207
0.0073877
0.00766732
0.00801573
0.00839715
0.00880329
0.00925021
0.00974649
0.0102139
0.0104034
0.0099641
0.00775829
0.00144055
0.000822462
0.00223215
0.000907445
0.00104466
0.00455236
0.00655743
0.00694693
0.00692494
0.00698809
0.00719998
0.00752301
0.0079136
0.00834461
0.00877954
0.00916585
0.00933931
0.00911661
0.00862292
0.00683223
0.00135405
0.000776198
0.00197243
0.00081557
0.000980622
0.00414003
0.00616966
0.00671071
0.00667816
0.00662699
0.00669906
0.00688674
0.00715683
0.00747007
0.0077893
0.00799248
0.00796932
0.00758362
0.00712001
0.00588491
0.00127776
0.000732817
0.00177569
0.000742651
0.00092314
0.00371423
0.00579964
0.00650043
0.00651191
0.00638186
0.00631178
0.00632538
0.0063989
0.00650981
0.00661498
0.00665043
0.0065146
0.00610094
0.00573933
0.00507275
0.00121592
0.000693243
0.00161532
0.000683908
0.000868882
0.00329227
0.00537586
0.00628697
0.00640582
0.00626627
0.00611584
0.00600722
0.00591668
0.00583034
0.00568261
0.00551312
0.00526726
0.00489417
0.0047138
0.0044612
0.00117147
0.000657675
0.00147845
0.000636088
0.00081485
0.00287627
0.00490196
0.0060128
0.00631227
0.00623897
0.00609188
0.00595992
0.00582025
0.00552088
0.00511207
0.00469899
0.00435187
0.00409761
0.00409889
0.00400396
0.00114508
0.000625619
0.00135751
0.000597359
0.000756248
0.00246066
0.00437738
0.00565624
0.00617097
0.00623203
0.00615354
0.00606872
0.00591504
0.00548488
0.00482454
0.00418615
0.00379247
0.00365173
0.00374781
0.00367144
0.00113458
0.00059652
0.00124436
0.000567574
0.00070851
0.00203426
0.00379959
0.00520313
0.00594034
0.00617731
0.00620154
0.00619128
0.00605373
0.00557323
0.00473658
0.00391821
0.00348431
0.00340219
0.00352864
0.00342519
0.00113254
0.000569757
0.00113239
0.00062957
0.000736598
0.00157485
0.00316683
0.00464674
0.00559452
0.00602932
0.00617536
0.00622283
0.00614556
0.00568972
0.00477902
0.00381099
0.00330794
0.0032455
0.00338175
0.00324912
0.00113816
0.00054454
0.0010314
0.00074475
0.00124718
0.00121485
0.00248641
0.00398852
0.00512181
0.00576286
0.00605205
0.00616314
0.00612721
0.00576429
0.00487875
0.00379995
0.00319676
0.00313752
0.00328837
0.00314212
0.00115111
0.000519778
0.000944767
0.00116025
0.000658095
0.00123406
0.00186708
0.00324913
0.004523
0.0053668
0.00581866
0.00601985
0.00603106
0.00574194
0.00495933
0.00383588
0.0031205
0.0030596
0.00324115
0.00310562
0.00117043
0.000493631
0.00104862
0.000599232
0.000967631
0.00143626
0.00251758
0.00381872
0.0048413
0.0054669
0.00578524
0.00586636
0.00564104
0.00494979
0.00386155
0.00305783
0.00299873
0.00323051
0.00313582
0.00119431
0.000470506
0.000530064
0.000776242
0.00112106
0.00184971
0.00307324
0.00420214
0.00499468
0.00544824
0.00562338
0.00546698
0.00484506
0.00380859
0.00298
0.00293943
0.00324052
0.0032199
0.0012206
0.000425412
0.00101482
0.00124856
0.00138225
0.0023253
0.00348798
0.00440763
0.00500028
0.00528669
0.00521049
0.00464811
0.00365183
0.00285282
0.00286202
0.00324991
0.00333494
0.00124736
0.000973021
0.00216784
0.00125569
0.00166568
0.00269934
0.00369787
0.00442404
0.00483583
0.0048542
0.00435505
0.00339951
0.00266297
0.00275094
0.00323753
0.00345027
0.00127333
0.00116383
0.00220072
0.0011316
0.00166341
0.00270377
0.00360117
0.00419463
0.00435557
0.00396195
0.00307292
0.00243618
0.0026174
0.00319466
0.00353458
0.00129812
0.00136981
0.00318338
0.00134806
0.00133796
0.00223429
0.00300856
0.00353869
0.00345003
0.00271391
0.00221946
0.00249266
0.00314727
0.00357196
0.00132229
0.0017906
0.0049058
0.00220046
0.00136329
0.00154301
0.00216606
0.00273562
0.00236761
0.0020613
0.00241211
0.00311894
0.00359698
0.00134694
0.00202501
0.00507627
0.00280224
0.00173565
0.00143635
0.00184534
0.00205342
0.00198551
0.00240116
0.00312431
0.00363241
0.00137281
0.00207857
0.00512191
0.00319533
0.00211292
0.00153062
0.00178536
0.00198989
0.00246514
0.00317139
0.00368994
0.00140179
0.00207841
0.00481563
0.00339603
0.00227625
0.00175653
0.0020758
0.00259764
0.00325969
0.00377405
0.00143519
0.00202923
0.00434449
0.00354222
0.00240937
0.00230453
0.00280494
0.00338341
0.00388487
0.00147358
0.00196216
0.00467092
0.00383765
0.00291251
0.00313712
0.00354245
0.00402228
0.00151701
0.00195053
0.00490097
0.00453159
0.00373993
0.00375808
0.00419221
0.00156529
0.0020925
0.0050686
0.00519638
0.0040907
0.00440435
0.00161855
0.00213648
0.00546655
0.00464942
0.00464006
0.00167942
0.00217037
0.00488029
0.00503852
0.0017613
0.002071
0.00531091
0.00187613
0.00202257
0.00202093
0.00194413
)
;

boundaryField
{
    floor
    {
        type            nutkWallFunction;
        Cmu             0.09;
        kappa           0.41;
        E               9.8;
        value           nonuniform List<scalar> 
36
(
0.000148835
0.00010548
0.000109345
0.000110269
0.000108585
0.000104975
9.96021e-05
9.40163e-05
8.87428e-05
8.38996e-05
7.95184e-05
7.55454e-05
7.19174e-05
6.85616e-05
6.53819e-05
6.22419e-05
5.8906e-05
5.59373e-05
5.00942e-05
5.00941e-05
6.35479e-05
7.2256e-05
7.95703e-05
9.4021e-05
0.000122441
0.000117533
0.000148835
0.000162027
0.000158053
0.00015518
0.00010548
0.00015518
0.000141333
0.000183096
0.000169884
0.000188476
)
;
    }
    ceiling
    {
        type            nutkWallFunction;
        Cmu             0.09;
        kappa           0.41;
        E               9.8;
        value           nonuniform List<scalar> 
43
(
0.000268052
0.000224439
0.000216252
0.000221639
0.000227533
0.000226095
0.00021774
0.000205909
0.000193553
0.000182011
0.000171378
0.000161582
0.000152892
0.000145814
0.000140705
0.000137657
0.000136444
0.000136205
0.000136849
0.00013834
0.000140568
0.000143327
0.000146363
0.000149451
0.000152445
0.000155297
0.00015807
0.000160889
0.000163836
0.000167127
0.000170909
0.000175247
0.000180143
0.000185567
0.000191516
0.000198239
0.000207181
0.000219715
0.000235515
0.000227298
0.000269438
0.00027908
0.000309029
)
;
    }
    sWall
    {
        type            nutkWallFunction;
        Cmu             0.09;
        kappa           0.41;
        E               9.8;
        value           nonuniform List<scalar> 9(0.000369547 0.000349763 0.000322112 0.000296093 0.000295975 0.000269527 0.000279348 0.000273198 0.000268149);
    }
    nWall
    {
        type            nutkWallFunction;
        Cmu             0.09;
        kappa           0.41;
        E               9.8;
        value           nonuniform List<scalar> 
14
(
0.00011754
0.000139829
0.000163418
0.000241956
0.000241895
0.000236512
0.000229229
0.0002281
0.00024357
0.000248241
0.000251861
0.000241073
0.000235796
0.000227333
)
;
    }
    sideWalls
    {
        type            empty;
    }
    glass1
    {
        type            nutkWallFunction;
        Cmu             0.09;
        kappa           0.41;
        E               9.8;
        value           nonuniform List<scalar> 9(0.000102219 0.000148379 0.000186691 0.000223611 0.000260087 0.000295959 0.000332415 0.000364704 0.00037532);
    }
    glass2
    {
        type            nutkWallFunction;
        Cmu             0.09;
        kappa           0.41;
        E               9.8;
        value           nonuniform List<scalar> 2(0.000210553 0.000236287);
    }
    sun
    {
        type            nutkWallFunction;
        Cmu             0.09;
        kappa           0.41;
        E               9.8;
        value           nonuniform List<scalar> 
14
(
0.000102197
0.000108193
0.000108083
0.000112508
0.000116436
0.000119912
0.000123068
0.000126037
0.000128952
0.000131969
0.000134997
0.000138006
0.000141173
0.000144801
)
;
    }
    Table_master
    {
        type            nutkWallFunction;
        Cmu             0.09;
        kappa           0.41;
        E               9.8;
        value           nonuniform List<scalar> 9(0.000141491 0.00012367 0.000109765 9.87715e-05 8.99428e-05 8.27559e-05 7.68508e-05 7.20292e-05 6.82953e-05);
    }
    Table_slave
    {
        type            nutkWallFunction;
        Cmu             0.09;
        kappa           0.41;
        E               9.8;
        value           nonuniform List<scalar> 9(0.00015862 0.000145151 0.000134729 0.000125948 0.000118428 0.00011163 0.000105167 9.86847e-05 9.15966e-05);
    }
    inlet
    {
        type            calculated;
        value           uniform 0.000528271;
    }
    outlet
    {
        type            calculated;
        value           nonuniform List<scalar> 2(0.00242655 0.00393685);
    }
}


// ************************************************************************* //
