/*--------------------------------*- C++ -*----------------------------------*\
  =========                 |
  \\      /  F ield         | OpenFOAM: The Open Source CFD Toolbox
   \\    /   O peration     | Website:  https://openfoam.org
    \\  /    A nd           | Version:  6
     \\/     M anipulation  |
\*---------------------------------------------------------------------------*/
FoamFile
{
    version     2.0;
    format      ascii;
    class       surfaceScalarField;
    location    "3920";
    object      phi;
}
// * * * * * * * * * * * * * * * * * * * * * * * * * * * * * * * * * * * * * //

dimensions      [1 0 -1 0 0 0 0];

internalField   nonuniform List<scalar> 
850
(
-0.00305312
0.00311358
-0.00414583
0.00109271
-0.00501492
0.000869092
-0.00570377
0.000688854
-0.00617585
0.000472077
-0.00639709
0.00022124
-0.00632787
-6.92195e-05
-0.00592404
-0.000403831
-0.00517378
-0.000750259
-0.00412861
-0.00104517
-0.0029003
-0.00122831
-0.00164149
-0.00125881
-0.000538986
-0.0011025
0.000135926
-0.000674912
0.000138277
-0.000922425
0.000926082
-0.000690039
-0.000232387
-6.08147e-05
-0.000629224
0.000542626
-0.000603441
0.00100181
-0.000459182
0.00125838
-0.000256576
0.0013665
-0.000108116
0.00141932
-5.28169e-05
0.00144967
-3.03535e-05
0.00146474
-1.5066e-05
0.00146835
-3.61074e-06
0.00146135
6.99968e-06
0.00143809
2.32532e-05
0.00137958
5.85197e-05
0.00125366
0.000125917
0.00105008
0.000203577
0.000793441
0.00025664
0.00079828
-0.00220746
0.00548444
-0.00329511
0.00218037
-0.00420834
0.00178231
-0.0049061
0.00138662
-0.00538761
0.000953585
-0.00563055
0.000464176
-0.00559451
-0.000105254
-0.00524031
-0.000758039
-0.00456679
-0.00142378
-0.00364273
-0.00196923
-0.00258803
-0.00228301
-0.00154149
-0.00230535
-0.000628654
-0.00201534
9.29482e-05
-0.00139651
0.000872774
-0.000641548
0.00114862
-0.00027206
0.000956844
0.000196134
0.000969533
4.15076e-05
0.000895575
0.000421761
-0.00061264
0.000786646
-0.000994109
0.00109962
-0.000916411
0.00135047
-0.000710034
0.00140693
-0.000313042
0.00141507
-0.000116252
0.00142579
-6.35421e-05
0.00143478
-3.93394e-05
0.00144005
-2.03341e-05
0.00144221
-5.77456e-06
0.00144182
7.39063e-06
0.00143634
2.87315e-05
0.00139989
9.49758e-05
0.00124701
0.000278795
0.000978548
0.000472038
0.000644609
0.00059058
0.00145527
-0.00156234
0.0072972
-0.00251038
0.0031284
-0.00334301
0.00261495
-0.00396557
0.00200919
-0.00441315
0.00140116
-0.00466166
0.000712694
-0.00465599
-0.000110924
-0.00433469
-0.00107934
-0.00371315
-0.00204533
-0.00288871
-0.00279367
-0.00198659
-0.00318513
-0.00112265
-0.00316928
-0.000373448
-0.00276455
0.000240555
-0.00201052
0.000752059
-0.00115305
0.00089941
-0.000419412
0.000707518
0.000388026
0.00168831
0.00143724
-0.000527826
0.00163274
-0.00080814
0.00157514
-0.000936511
0.00160843
-0.000949698
0.00181169
-0.0009133
0.0014988
0.00138271
0.00131932
0.00128013
0.00125995
0.00125433
0.00126188
0.00129076
0.00138589
0.00115887
0.000505821
0.000869985
0.000760918
0.000498887
0.000961678
0.00197272
-0.00109548
0.00871732
-0.00185228
0.00388521
-0.0024366
0.00319927
-0.00288268
0.00245527
-0.00322781
0.00174629
-0.00344068
0.000925556
-0.00344208
-0.000109522
-0.00312366
-0.00139776
-0.00254778
-0.0026212
-0.00184606
-0.00349539
-0.0011304
-0.00390079
-0.000480679
-0.00381901
6.57959e-05
-0.00331102
0.000526393
-0.00247111
0.000902495
-0.00152915
0.00111957
-0.000636487
0.00130376
0.000203841
0.00225752
0.000734547
0.00216771
0.000101756
0.00199493
-0.000355055
0.00190897
-0.000722174
0.00179817
-0.000825712
0.00166597
-0.000817498
0.00143501
-0.000682337
0.00175862
-0.000323764
0.00193629
-0.000177824
0.00206722
-0.000131085
0.00216801
-0.000100944
0.00222824
-6.03814e-05
0.00222568
2.40438e-06
0.00213279
9.27382e-05
0.00191323
0.000219402
0.00150707
0.000406004
0.00126968
0.000743214
0.000902426
0.00112817
0.000384081
0.00148002
0.00238045
-0.000756065
0.00986111
-0.00132705
0.00445619
-0.00150962
0.00338185
-0.00168822
0.00263386
-0.0018532
0.00191127
-0.00196223
0.00103458
-0.00191377
-0.000157984
-0.00155673
-0.00175479
-0.00105571
-0.00312222
-0.000537797
-0.0040133
-7.33029e-05
-0.00436528
0.000305351
-0.00419766
0.000596521
-0.00360219
0.000849403
-0.002724
0.00106875
-0.0017485
0.00127615
-0.000843895
0.00158683
-0.000106836
0.00203039
0.000290988
0.00206426
6.78829e-05
0.00199695
-0.000287745
0.00181246
-0.000537678
0.00162458
-0.000637838
0.00144749
-0.000640407
0.00131881
-0.000553655
0.00137757
-0.000382522
0.00146563
-0.000265886
0.0015501
-0.000215557
0.00163159
-0.000182433
0.00170173
-0.000130517
0.00174076
-3.66265e-05
0.00172469
0.000108804
0.00163843
0.000305665
0.00148619
0.000558239
0.00133011
0.000899298
0.00115113
0.00130716
0.000804094
0.00182706
0.00101981
0.00216472
-0.00109517
0.00213611
-0.00179343
0.000717875
-0.00172066
-0.000638715
0.0109406
-0.00101437
0.00483185
-0.000633429
0.0030009
-0.000448686
0.00244912
-0.000384064
0.00184665
-0.000303705
0.000954224
-5.1915e-05
-0.000409774
0.000334493
-0.0021412
0.000692177
-0.00347991
0.000952024
-0.00427315
0.00109504
-0.0045083
0.00114537
-0.00424799
0.00113927
-0.00359609
0.00111608
-0.00270081
0.00110062
-0.00173303
0.00113279
-0.000876064
0.00126985
-0.000243903
0.00148463
7.62128e-05
0.00153589
1.66176e-05
0.00143792
-0.000189772
0.00126354
-0.000363302
0.00108388
-0.000458173
0.000926578
-0.000483106
0.000821553
-0.00044863
0.000810755
-0.000371724
0.0008601
-0.000315231
0.000936269
-0.000291726
0.00102701
-0.000273179
0.00112585
-0.000229348
0.00122285
-0.000133631
0.00129576
3.58927e-05
0.00133282
0.000268604
0.00134812
0.000542938
0.00138214
0.000865278
0.0014826
0.0012067
0.00168608
0.00162358
0.00203681
0.00181399
0.00233694
0.00183598
0.00182999
0.00122483
0.000174759
-0.000763858
0.0121917
-0.000621474
0.00468947
0.000492291
0.00188713
0.000960645
0.00198077
0.00121801
0.00158928
0.00159951
0.000572718
0.0021028
-0.000913063
0.00243996
-0.00247836
0.00257377
-0.00361371
0.00250622
-0.0042056
0.00227299
-0.00427508
0.00193603
-0.00391103
0.0015591
-0.00321916
0.00120035
-0.00234206
0.000896626
-0.0014293
0.000705091
-0.000684529
0.000653502
-0.000192313
0.000704667
2.50474e-05
0.000712751
8.53356e-06
0.000636491
-0.000113512
0.000509167
-0.000235978
0.000368869
-0.000317876
0.000242969
-0.000357206
0.000156858
-0.000362518
0.000133897
-0.000348762
0.000162904
-0.000344238
0.000222533
-0.000351356
0.000302989
-0.000353636
0.000405276
-0.000331636
0.000534366
-0.00026272
0.000687271
-0.000117012
0.000845211
0.000110664
0.00100721
0.000380935
0.00120906
0.000663428
0.00148366
0.00093211
0.00188404
0.0012232
0.00241743
0.00128059
0.00318504
0.00106838
0.00336162
0.00104825
0.00360519
0.00273594
0.00999913
0.00339172
0.00403369
0.00344937
0.00182948
0.00353506
0.00189508
0.00374634
0.00137801
0.00422226
9.67989e-05
0.0046934
-0.00138421
0.00478843
-0.00257339
0.00451409
-0.00333938
0.00396093
-0.00365244
0.00322977
-0.00354391
0.00242477
-0.00310603
0.00162793
-0.00242232
0.000922024
-0.00163615
0.00034736
-0.00085464
-2.5216e-06
-0.000334648
-0.000140834
-5.4001e-05
-0.00015526
3.94731e-05
-0.00016311
1.63838e-05
-0.000215238
-6.1384e-05
-0.000306056
-0.000145159
-0.000412283
-0.000211649
-0.000511602
-0.000257887
-0.00058587
-0.00028825
-0.000623867
-0.000310765
-0.00063308
-0.000335026
-0.000625254
-0.000359181
-0.000604691
-0.000374199
-0.000566409
-0.000369917
-0.00049419
-0.00033494
-0.000356726
-0.000254476
-0.000146594
-9.94682e-05
0.000104173
0.000130168
0.000388867
0.000378734
0.000707308
0.000613668
0.00108958
0.000840923
0.00150688
0.000863287
0.00189864
0.000676622
0.00120604
0.00174085
0.00509764
0.010598
0.0146276
0.0125614
0.00389561
0.0112293
0.00322725
0.0103408
0.00226648
0.00953396
0.000903628
0.00853153
-0.000381776
0.0073526
-0.00139446
0.00607931
-0.00206609
0.00476047
-0.0023336
0.00342926
-0.0022127
0.00216422
-0.00184099
0.00100938
-0.00126749
5.63447e-05
-0.000683114
-0.00056607
-0.000232225
-0.000859657
-4.10616e-05
-0.000956792
4.31344e-05
-0.00097645
5.91307e-05
-0.000991837
3.17714e-05
-0.00103527
-1.79524e-05
-0.00110785
-7.25809e-05
-0.00119688
-0.000122617
-0.00128869
-0.00016608
-0.00137431
-0.000202627
-0.0014515
-0.000233571
-0.00152704
-0.000259487
-0.0016102
-0.00027602
-0.00170952
-0.000274881
-0.00183466
-0.00024478
-0.00199851
-0.000171085
-0.00221651
-3.64794e-05
-0.00248301
0.000167032
-0.00280698
0.000454139
-0.00327095
0.000842704
-0.00398816
0.00133087
-0.0050297
0.00188247
-0.00651691
0.0023505
-0.00825536
0.00241507
-0.00777181
0.0012573
-0.00235716
0.00895046
0.00560354
0.00747189
0.00470582
0.00708002
0.00265835
0.00672919
0.00125446
0.0061192
0.000228212
0.00524678
-0.000522035
0.00417818
-0.000997488
0.00298277
-0.00113819
0.00169117
-0.0009211
0.000430305
-0.000580116
-0.000609565
-0.000227622
-0.00127077
-2.19103e-05
-0.00156324
6.02483e-05
-0.00167791
7.36105e-05
-0.00170788
7.31032e-05
-0.00171365
6.49001e-05
-0.00172867
4.67925e-05
-0.00176748
2.08562e-05
-0.0018314
-8.66217e-06
-0.00191295
-4.10719e-05
-0.00200445
-7.45783e-05
-0.00210375
-0.00010332
-0.0022122
-0.00012512
-0.00233323
-0.000138463
-0.00246896
-0.000140288
-0.00261827
-0.000125571
-0.00277573
-8.73162e-05
-0.00292901
-1.78134e-05
-0.00306256
9.70707e-05
-0.00317483
0.000279306
-0.00327577
0.000555081
-0.00337728
0.000944212
-0.0034861
0.00143969
-0.00356961
0.00196597
-0.00356799
0.00234888
-0.00331003
0.00215711
-0.00195004
-0.000102692
-0.00422387
-0.000826101
0.00648295
0.000742095
0.00313762
0.00140779
0.00199265
0.0016467
0.00101556
0.00158286
0.000292048
0.00121184
-0.000151014
0.000529608
-0.000315256
-0.000363823
-0.000244761
-0.00124113
-4.37897e-05
-0.00188642
6.51689e-05
-0.00222714
0.000113102
-0.0023581
0.000109046
-0.00238119
8.33416e-05
-0.00237096
6.33809e-05
-0.00234989
5.20351e-05
-0.00232933
4.43367e-05
-0.00231834
3.58041e-05
-0.00232222
2.47349e-05
-0.00234159
1.07089e-05
-0.00237543
-7.23104e-06
-0.00242402
-2.59893e-05
-0.00248537
-4.19693e-05
-0.00255739
-5.31044e-05
-0.00263755
-5.83041e-05
-0.00272179
-5.60472e-05
-0.00280353
-4.38314e-05
-0.0028733
-1.75451e-05
-0.00291854
2.74325e-05
-0.00291853
9.70518e-05
-0.00284796
0.000208744
-0.00267231
0.000379433
-0.00236025
0.000632152
-0.00190395
0.000983387
-0.00128937
0.0013514
-0.000299689
0.00135919
0.00114765
0.000709772
0.00164261
-0.000597659
-0.00248957
-0.0120486
-0.0155771
-0.00905365
-0.00588862
-0.0038737
-0.00283954
-0.00253246
-0.00267147
-0.0029768
-0.00321306
-0.00324918
-0.00317673
-0.00305649
-0.00294033
-0.00284986
-0.00277934
-0.00272012
-0.00266857
-0.0026255
-0.00259345
-0.00257543
-0.00257538
-0.00259418
-0.00262907
-0.00267522
-0.00272672
-0.00277612
-0.00281347
-0.00282473
-0.00279122
-0.00268831
-0.00247394
-0.00208913
-0.00145188
-0.000463677
0.000892149
0.00225548
0.0029693
0.00237582
)
;

boundaryField
{
    floor
    {
        type            calculated;
        value           nonuniform List<scalar> 
36
(
0
0
0
0
0
0
0
0
0
0
0
0
0
0
0
0
0
0
0
-4.83914e-06
-1.23782e-05
-1.85697e-05
-2.36403e-05
-2.11162e-05
-1.96191e-05
-1.84535e-05
-2.35097e-06
-3.78399e-06
-4.35946e-06
-5.04476e-06
-3.65658e-06
-7.64391e-06
-1.10004e-05
-1.12623e-05
-1.38364e-05
-1.19394e-05
)
;
    }
    ceiling
    {
        type            calculated;
        value           nonuniform List<scalar> 
43
(
-4.18439e-05
-4.11786e-05
-4.04782e-05
-2.74141e-05
-2.22701e-05
-1.86049e-05
-1.5029e-05
-1.20046e-05
-9.92937e-06
-8.50211e-06
-7.66631e-06
-7.28574e-06
-7.13802e-06
-7.11126e-06
-7.12499e-06
-7.14634e-06
-7.17754e-06
-7.22037e-06
-7.26668e-06
-7.30727e-06
-7.31487e-06
-7.27616e-06
-7.19267e-06
-7.08114e-06
-6.9523e-06
-6.80917e-06
-6.64853e-06
-6.47526e-06
-6.28374e-06
-6.07864e-06
-5.85901e-06
-5.62512e-06
-5.3765e-06
-5.10584e-06
-4.81122e-06
-4.42483e-06
-4.1395e-06
-4.04927e-06
-4.1813e-06
-3.60358e-06
6.94075e-06
4.17889e-06
-5.3314e-05
)
;
    }
    sWall
    {
        type            calculated;
        value           uniform -0.000241399;
    }
    nWall
    {
        type            calculated;
        value           nonuniform List<scalar> 6(-5.43171e-05 -6.54339e-05 -6.88139e-05 -8.33263e-05 -9.16852e-05 -0.00011014);
    }
    sideWalls
    {
        type            empty;
        value           nonuniform 0();
    }
    glass1
    {
        type            calculated;
        value           nonuniform List<scalar> 9(-6.04583e-05 -0.000163402 -0.000250424 -0.000324645 -0.000387723 -0.000440785 -0.000487272 -0.000543333 -0.000605862);
    }
    glass2
    {
        type            calculated;
        value           nonuniform List<scalar> 2(-0.000286411 -0.000317012);
    }
    sun
    {
        type            calculated;
        value           uniform 0;
    }
    Table_master
    {
        type            calculated;
        value           nonuniform List<scalar> 9(-1.5364e-07 -1.53789e-07 -1.53839e-07 -1.53869e-07 -1.53889e-07 -1.53902e-07 -1.53906e-07 -1.539e-07 -1.5387e-07);
    }
    Table_slave
    {
        type            calculated;
        value           nonuniform List<scalar> 9(1.5353e-07 1.53515e-07 1.53468e-07 1.53431e-07 1.53408e-07 1.53408e-07 1.53413e-07 1.53451e-07 1.53535e-07);
    }
    inlet
    {
        type            calculated;
        value           uniform -0.0106584;
    }
    outlet
    {
        type            calculated;
        value           nonuniform List<scalar> 2(0.0123318 0.00356969);
    }
}


// ************************************************************************* //
