/*--------------------------------*- C++ -*----------------------------------*\
  =========                 |
  \\      /  F ield         | OpenFOAM: The Open Source CFD Toolbox
   \\    /   O peration     | Website:  https://openfoam.org
    \\  /    A nd           | Version:  6
     \\/     M anipulation  |
\*---------------------------------------------------------------------------*/
FoamFile
{
    version     2.0;
    format      ascii;
    class       volScalarField;
    location    "4400";
    object      T;
}
// * * * * * * * * * * * * * * * * * * * * * * * * * * * * * * * * * * * * * //

dimensions      [0 0 0 1 0 0 0];

internalField   nonuniform List<scalar> 
662
(
302.587
302.294
302.28
302.276
302.272
302.267
302.262
302.257
302.249
302.237
302.221
302.204
302.195
302.202
302.236
302.382
302.36
302.354
302.361
302.367
302.372
302.377
302.381
302.385
302.39
302.394
302.398
302.402
302.406
302.41
302.414
302.42
302.443
302.801
302.344
302.322
302.327
302.332
302.335
302.335
302.332
302.321
302.295
302.253
302.208
302.181
302.183
302.201
302.215
302.226
302.248
302.388
302.341
302.338
302.346
302.356
302.359
302.36
302.36
302.36
302.361
302.361
302.361
302.362
302.363
302.367
302.372
302.382
302.423
303.024
302.407
302.368
302.387
302.41
302.43
302.444
302.45
302.439
302.397
302.315
302.221
302.172
302.174
302.197
302.213
302.222
302.242
302.344
302.329
302.334
302.35
302.368
302.367
302.366
302.364
302.363
302.362
302.36
302.359
302.358
302.357
302.36
302.364
302.372
302.417
303.242
302.486
302.413
302.439
302.481
302.526
302.567
302.595
302.594
302.533
302.394
302.236
302.159
302.166
302.199
302.222
302.231
302.24
302.251
302.272
302.303
302.337
302.37
302.399
302.421
302.436
302.449
302.459
302.467
302.473
302.477
302.48
302.481
302.448
302.415
302.393
302.419
303.442
302.596
302.472
302.48
302.526
302.585
302.652
302.715
302.74
302.666
302.464
302.24
302.143
302.158
302.206
302.243
302.261
302.268
302.285
302.312
302.348
302.386
302.422
302.454
302.48
302.499
302.514
302.525
302.532
302.535
302.534
302.528
302.518
302.493
302.456
302.42
302.421
302.519
302.593
302.595
303.599
302.811
302.633
302.574
302.581
302.619
302.68
302.768
302.828
302.736
302.482
302.228
302.12
302.151
302.222
302.28
302.312
302.327
302.351
302.381
302.417
302.454
302.489
302.518
302.541
302.559
302.571
302.58
302.584
302.584
302.577
302.565
302.549
302.525
302.491
302.452
302.436
302.477
302.505
302.548
304.854
303.55
303.143
302.918
302.792
302.741
302.754
302.818
302.888
302.808
302.521
302.202
302.067
302.152
302.26
302.341
302.386
302.411
302.436
302.465
302.497
302.529
302.558
302.582
302.6
302.612
302.621
302.625
302.625
302.622
302.612
302.596
302.576
302.552
302.522
302.488
302.466
302.473
302.486
302.517
307.15
305.018
304.27
303.831
303.491
303.252
303.118
303.063
302.96
302.677
302.275
302.003
302.038
302.193
302.338
302.431
302.477
302.5
302.523
302.548
302.574
302.599
302.62
302.636
302.647
302.654
302.657
302.657
302.654
302.649
302.64
302.626
302.605
302.583
302.561
302.537
302.524
302.53
302.551
302.719
293.665
299.608
301.716
302.457
302.667
302.649
302.431
302.056
301.788
301.796
302.11
302.314
302.47
302.533
302.562
302.581
302.6
302.619
302.638
302.654
302.667
302.675
302.68
302.682
302.683
302.681
302.678
302.675
302.671
302.67
302.672
302.678
302.693
302.718
302.754
302.793
302.826
302.903
295.44
295.362
297.851
299.711
300.675
301.027
301.103
301.225
301.502
301.885
302.353
302.506
302.58
302.614
302.633
302.648
302.661
302.674
302.685
302.694
302.7
302.703
302.705
302.706
302.707
302.707
302.708
302.709
302.711
302.713
302.717
302.725
302.739
302.76
302.785
302.811
302.835
302.882
299.752
297.716
295.632
295.705
297.464
299.043
299.962
300.503
300.947
301.43
301.922
302.327
302.575
302.629
302.659
302.676
302.688
302.697
302.704
302.711
302.716
302.719
302.722
302.723
302.725
302.726
302.727
302.728
302.729
302.731
302.732
302.735
302.739
302.745
302.754
302.768
302.785
302.805
302.829
302.857
300.005
298.901
298.416
298.481
299.26
300.052
300.692
301.256
301.781
302.198
302.486
302.646
302.707
302.721
302.73
302.737
302.742
302.746
302.749
302.752
302.753
302.754
302.754
302.754
302.754
302.753
302.753
302.752
302.752
302.752
302.752
302.752
302.754
302.756
302.76
302.768
302.78
302.788
302.847
302.953
303.805
303.34
303.014
302.843
302.753
302.736
302.777
302.861
302.874
302.683
302.348
302.11
305.831
304.562
304.036
303.649
303.358
303.173
303.086
303.028
302.843
302.477
302.108
301.97
297.62
300.919
302.188
302.601
302.68
302.572
302.248
301.893
301.757
301.887
294.407
296.605
298.905
300.288
300.91
301.068
301.148
301.343
301.69
302.064
299.055
296.496
295.143
296.55
298.344
299.566
300.262
300.722
301.183
301.679
302.156
302.445
299.228
298.617
298.333
298.837
299.676
300.387
300.978
301.527
302.006
302.357
302.582
302.682
304.017
304.025
303.637
303.344
303.117
302.971
302.913
302.929
302.939
302.778
302.43
302.114
307.245
305.059
304.478
303.948
303.583
303.336
303.178
303.068
302.842
302.45
302.053
301.885
295.366
296.56
299.403
300.993
301.675
301.848
301.755
301.575
301.567
301.784
293.931
295.228
297.299
299.049
300.068
300.545
300.819
301.186
301.641
302.087
299.779
298.134
296.922
296.948
298.237
299.417
300.204
300.785
301.328
301.82
302.237
302.507
299.813
299.805
299.874
300.021
300.448
300.948
301.437
301.899
302.272
302.516
302.654
302.703
304.315
303.815
303.481
303.221
303.032
302.93
302.914
302.946
302.887
302.617
302.251
302.041
305.858
304.829
304.187
303.748
303.447
303.248
303.121
302.978
302.662
302.235
301.932
301.907
294.942
298.124
300.345
301.417
301.809
301.831
301.657
301.54
301.654
301.934
294.507
296.231
298.264
299.643
300.356
300.68
300.989
301.407
301.877
302.256
298.875
297.449
296.641
297.559
298.88
299.849
300.508
301.057
301.583
302.041
302.397
302.568
299.789
299.835
299.926
300.212
300.698
301.194
301.674
302.101
302.41
302.597
302.688
302.708
)
;

boundaryField
{
    floor
    {
        type            wallHeatTransfer;
        Tinf            uniform 305.2;
        alphaWall       uniform 0.24;
        value           nonuniform List<scalar> 
36
(
302.547
302.91
302.838
302.794
302.792
302.804
302.829
302.858
302.887
302.915
302.942
302.967
302.992
303.015
303.038
303.062
303.087
303.102
303.152
303.152
303.02
302.951
302.906
302.9
302.95
302.932
302.547
302.489
302.543
302.614
302.91
302.614
302.914
302.566
302.731
302.538
)
;
    }
    ceiling
    {
        type            wallHeatTransfer;
        Tinf            uniform 303.2;
        alphaWall       uniform 0.24;
        value           nonuniform List<scalar> 
58
(
300.012
300.044
300.123
300.389
300.85
301.323
301.781
302.188
302.481
302.66
302.749
302.766
302.77
302.783
302.792
302.799
302.805
302.809
302.813
302.816
302.818
302.819
302.819
302.819
302.818
302.816
302.815
302.813
302.811
302.809
302.807
302.805
302.804
302.804
302.806
302.811
302.82
302.83
302.885
302.977
305.71
304.746
294.861
300.225
300.023
300.078
300.21
300.613
301.088
301.555
301.995
302.35
302.582
302.715
302.763
306.917
304.962
296.103
)
;
    }
    sWall
    {
        type            wallHeatTransfer;
        Tinf            uniform 315.2;
        alphaWall       uniform 0.36;
        value           nonuniform List<scalar> 4(301.034 301.155 301.018 301.522);
    }
    nWall
    {
        type            wallHeatTransfer;
        Tinf            uniform 307.2;
        alphaWall       uniform 0.36;
        value           nonuniform List<scalar> 6(303.436 303.376 303.264 303.49 303.453 303.549);
    }
    sideWalls
    {
        type            empty;
    }
    glass1
    {
        type            wallHeatTransfer;
        Tinf            uniform 315.2;
        alphaWall       uniform 4.3;
        value           nonuniform List<scalar> 10(311.433 310.753 310.289 309.911 309.606 309.298 309.29 311.389 309.83 311.434);
    }
    glass2
    {
        type            wallHeatTransfer;
        Tinf            uniform 307.2;
        alphaWall       uniform 4.3;
        value           nonuniform List<scalar> 2(305.469 305.596);
    }
    sun
    {
        type            wallHeatTransfer;
        Tinf            uniform 305.2;
        alphaWall       uniform 0.24;
        value           nonuniform List<scalar> 
14
(
302.884
302.606
302.59
302.575
302.562
302.55
302.538
302.525
302.511
302.494
302.474
302.457
302.452
302.471
)
;
    }
    Table_master
    {
        type            zeroGradient;
    }
    Table_slave
    {
        type            zeroGradient;
    }
    inlet
    {
        type            fixedValue;
        value           uniform 293.15;
    }
    outlet
    {
        type            zeroGradient;
    }
}


// ************************************************************************* //
