/*--------------------------------*- C++ -*----------------------------------*\
  =========                 |
  \\      /  F ield         | OpenFOAM: The Open Source CFD Toolbox
   \\    /   O peration     | Website:  https://openfoam.org
    \\  /    A nd           | Version:  6
     \\/     M anipulation  |
\*---------------------------------------------------------------------------*/
FoamFile
{
    version     2.0;
    format      ascii;
    class       volScalarField;
    location    "320";
    object      alphat;
}
// * * * * * * * * * * * * * * * * * * * * * * * * * * * * * * * * * * * * * //

dimensions      [1 -1 -1 0 0 0 0];

internalField   nonuniform List<scalar> 
458
(
0.00128953
0.00140988
0.00144638
0.00151772
0.00158389
0.00164719
0.00171139
0.0017748
0.0018258
0.00185635
0.00185693
0.00181827
0.00172797
0.00150927
0.00118038
0.000583614
0.000685738
0.000784541
0.000825364
0.000814463
0.000760833
0.000701652
0.000648979
0.000603605
0.000564395
0.000530327
0.000500526
0.000474263
0.00045046
0.000427957
0.000405338
0.000389327
0.000355729
0.00172033
0.00399011
0.00372385
0.00427765
0.004841
0.00541316
0.00591213
0.00631794
0.00672821
0.00710515
0.00739984
0.00756424
0.00755265
0.00720297
0.00563149
0.00155623
0.00129843
0.0010544
0.000574508
0.00140648
0.00209367
0.00262214
0.00277739
0.0019884
0.00166679
0.00145088
0.00129292
0.00117281
0.00107813
0.00100001
0.000926086
0.000850773
0.000781654
0.000724456
0.000865079
0.000451889
0.00207855
0.00537557
0.004536
0.00548551
0.00592002
0.00622882
0.00646701
0.00670171
0.00701481
0.00739263
0.00780357
0.00818803
0.00847766
0.00850487
0.0079293
0.00645286
0.00480946
0.00126757
0.000873409
0.00155868
0.0023363
0.00310421
0.00330708
0.00102885
0.000895916
0.000785888
0.000697155
0.000625808
0.000568186
0.000521399
0.000483796
0.00045495
0.000506714
0.000594681
0.0010156
0.000526146
0.00242172
0.00680795
0.00445712
0.00569192
0.00593224
0.00592664
0.00592965
0.00605139
0.00630975
0.00669739
0.00719475
0.0077105
0.0081419
0.00834296
0.0082348
0.00777151
0.00660625
0.00359763
0.00145136
0.00181294
0.00253914
0.00347036
0.00429454
0.00434604
0.00116858
0.00106665
0.000994766
0.000939868
0.000892659
0.000848342
0.000805887
0.00076124
0.00070973
0.00066249
0.000656936
0.00120059
0.000600641
0.00277212
0.00871233
0.00468941
0.00543241
0.0057582
0.00557884
0.00545598
0.00555329
0.00580782
0.00621281
0.00676722
0.00732738
0.00772887
0.00790208
0.00787454
0.00771141
0.00722617
0.00595955
0.00530937
0.00541595
0.00579901
0.00624074
0.00652664
0.00644244
0.00546173
0.00493614
0.00462825
0.00439999
0.00417104
0.00385678
0.00341784
0.00287802
0.00227913
0.0017139
0.0012829
0.00122633
0.00101834
0.000798282
0.00085134
0.000927252
0.00314813
0.0108505
0.00634526
0.00511591
0.0055294
0.00555806
0.00532279
0.00542481
0.00566282
0.00607079
0.00662513
0.00717893
0.00754547
0.00762632
0.00750419
0.00737238
0.00732122
0.00721034
0.00739804
0.00779254
0.00809166
0.00818946
0.00806442
0.00772795
0.00719963
0.00673927
0.00635939
0.00601322
0.00566879
0.0052979
0.0048256
0.00423852
0.00354207
0.00279343
0.00213292
0.00157586
0.00127701
0.00110056
0.00138302
0.000962928
0.0035117
0.0124245
0.00920911
0.00630232
0.00561731
0.00572338
0.00565028
0.00561825
0.00575917
0.00615007
0.00671956
0.00727401
0.00759316
0.00757203
0.00735988
0.00729757
0.00765421
0.00824038
0.00882516
0.00920114
0.0092507
0.00901556
0.00857145
0.00799697
0.00737736
0.00682166
0.00635054
0.00594003
0.00557133
0.0052406
0.00494348
0.00458114
0.00407603
0.00344921
0.00282814
0.00225799
0.00187919
0.00171472
0.00162772
0.00115308
0.00359606
0.0113409
0.00975632
0.00837567
0.00736648
0.00682785
0.00620789
0.00586525
0.00594974
0.00640023
0.00702541
0.00756678
0.00779121
0.00763392
0.0074096
0.00766121
0.00847508
0.00905726
0.0094043
0.00946221
0.00918185
0.00863524
0.00791622
0.0071286
0.00639225
0.00579751
0.00534338
0.00499201
0.00472097
0.00452622
0.00441164
0.00436066
0.00420194
0.00384393
0.00351319
0.0033337
0.00341128
0.00359162
0.0042281
0.00177399
0.00351717
0.00423209
0.00467313
0.00491741
0.0049659
0.00492861
0.0050188
0.00538935
0.00604496
0.00684661
0.00757253
0.0079959
0.00796836
0.00757747
0.00766187
0.00814873
0.00860502
0.0087889
0.00873903
0.00843084
0.00786119
0.00708198
0.00621593
0.00540668
0.00476659
0.00431315
0.00399467
0.00375853
0.00357209
0.00341456
0.0032699
0.00312553
0.00300611
0.00290669
0.00283898
0.00279569
0.0027177
0.00256865
0.00239256
0.00165578
0.00150488
0.00265173
0.003739
0.00472462
0.00571066
0.00672295
0.00758106
0.00817153
0.00836864
0.0081309
0.00765739
0.00719107
0.0072993
0.0075032
0.00749389
0.00727993
0.00687633
0.00628052
0.00554259
0.00477135
0.00407935
0.00355922
0.00322049
0.00301248
0.00288258
0.00279807
0.00274194
0.00270632
0.00269089
0.00270367
0.00272254
0.00273974
0.00274256
0.00270057
0.00256959
0.00234144
0.00205696
0.00133619
0.00238547
0.00489913
0.00657742
0.0077619
0.00864803
0.00871983
0.00847781
0.00804931
0.0071467
0.00616426
0.00561326
0.00542635
0.00536678
0.00520393
0.00491399
0.00451028
0.00400307
0.00344217
0.00292043
0.0025216
0.00227119
0.00213692
0.00207901
0.00207571
0.00210871
0.00216726
0.00224368
0.0023299
0.00243145
0.00254303
0.00266029
0.00277455
0.00286729
0.00291546
0.00287253
0.00283753
0.00266526
0.00135502
0.00251121
0.00257873
0.0026387
0.00293408
0.00276957
0.00245738
0.0021209
0.00185989
0.00166804
0.00146983
0.00128747
0.00112618
0.000996136
0.000905075
0.000843499
0.000797279
0.000758374
0.000723637
0.000694141
0.00067354
0.000664768
0.000667829
0.000680626
0.000700903
0.000726878
0.000757133
0.000791502
0.000830204
0.000873891
0.000923894
0.000979833
0.00104182
0.00111033
0.00118579
0.00126829
0.00136774
0.00140607
0.00137475
0.00128
0.00118407
)
;

boundaryField
{
    floor
    {
        type            compressible::alphatWallFunction;
        Prt             0.85;
        value           nonuniform List<scalar> 
36
(
0.000167417
8.18976e-05
9.70819e-05
0.000111513
0.000117412
0.000115841
0.000108073
9.94242e-05
9.16521e-05
8.48952e-05
7.90061e-05
7.38483e-05
6.93024e-05
6.52682e-05
6.15873e-05
5.80849e-05
5.45407e-05
5.20166e-05
4.66759e-05
4.66752e-05
6.18093e-05
7.3213e-05
8.4453e-05
0.000113513
0.000121161
0.000132
0.000167416
0.000218501
0.000183637
0.000149902
8.18966e-05
0.000149901
8.05277e-05
0.000179414
0.000124305
0.000204406
)
;
    }
    ceiling
    {
        type            compressible::alphatWallFunction;
        Prt             0.85;
        value           nonuniform List<scalar> 
43
(
0.000342772
0.000351342
0.000358936
0.000396156
0.000375565
0.000336075
0.000292897
0.000258889
0.000233559
0.000207042
0.000182289
0.000160059
0.000141869
0.000128967
0.000120157
0.000113493
0.000107849
0.000102779
9.84508e-05
9.54146e-05
9.41181e-05
9.45702e-05
9.6459e-05
9.94432e-05
0.000103251
0.000107665
0.000112655
0.000118242
0.000124512
0.000131644
0.000139568
0.000148288
0.000157855
0.000168315
0.000179664
0.000193235
0.000198436
0.000194188
0.00018127
0.000168083
0.000468644
0.000555541
0.000326638
)
;
    }
    sWall
    {
        type            compressible::alphatWallFunction;
        Prt             0.85;
        value           uniform 0.00034153;
    }
    nWall
    {
        type            compressible::alphatWallFunction;
        Prt             0.85;
        value           nonuniform List<scalar> 6(0.000131786 0.000136837 0.000163435 0.000188608 0.000191168 0.000167747);
    }
    sideWalls
    {
        type            empty;
    }
    glass1
    {
        type            compressible::alphatWallFunction;
        Prt             0.85;
        value           nonuniform List<scalar> 9(0.000177797 0.000234923 0.000281348 0.000325102 0.000369167 0.000415851 0.000460485 0.000470909 0.000461528);
    }
    glass2
    {
        type            compressible::alphatWallFunction;
        Prt             0.85;
        value           nonuniform List<scalar> 2(0.000245671 0.00023016);
    }
    sun
    {
        type            compressible::alphatWallFunction;
        Prt             0.85;
        value           nonuniform List<scalar> 
14
(
0.000182438
0.000198798
0.000203733
0.000213337
0.000222203
0.000230645
0.00023917
0.000247556
0.000254276
0.000258292
0.000258367
0.000253283
0.000241364
0.000212199
)
;
    }
    Table_master
    {
        type            compressible::alphatWallFunction;
        Prt             0.85;
        value           nonuniform List<scalar> 9(0.000146477 0.000127666 0.000111848 9.88982e-05 8.83407e-05 7.97063e-05 7.26155e-05 6.68587e-05 6.24043e-05);
    }
    Table_slave
    {
        type            compressible::alphatWallFunction;
        Prt             0.85;
        value           nonuniform List<scalar> 9(0.000165949 0.000151774 0.000141685 0.000133922 0.000127204 0.000120859 0.000114744 0.000108271 0.000100747);
    }
    inlet
    {
        type            fixedValue;
        value           uniform 1.94e-05;
    }
    outlet
    {
        type            zeroGradient;
    }
}


// ************************************************************************* //
