/*--------------------------------*- C++ -*----------------------------------*\
  =========                 |
  \\      /  F ield         | OpenFOAM: The Open Source CFD Toolbox
   \\    /   O peration     | Website:  https://openfoam.org
    \\  /    A nd           | Version:  6
     \\/     M anipulation  |
\*---------------------------------------------------------------------------*/
FoamFile
{
    version     2.0;
    format      ascii;
    class       volScalarField;
    location    "320";
    object      nut;
}
// * * * * * * * * * * * * * * * * * * * * * * * * * * * * * * * * * * * * * //

dimensions      [0 2 -1 0 0 0 0];

internalField   nonuniform List<scalar> 
458
(
0.00110863
0.00121099
0.00124229
0.00130354
0.00136036
0.00141471
0.00146983
0.00152427
0.00156802
0.00159421
0.00159467
0.00156145
0.00148394
0.0012962
0.00101386
0.000501585
0.000589308
0.000674196
0.000709295
0.000699947
0.000653874
0.000603027
0.000557771
0.000518786
0.000485097
0.000455827
0.000430223
0.000407658
0.000387207
0.000367873
0.00034844
0.000334688
0.000305832
0.00147991
0.00342771
0.00319872
0.00367443
0.00415836
0.00464982
0.00507839
0.00542683
0.00577891
0.00610217
0.00635476
0.00649569
0.00648584
0.00618592
0.00483666
0.00133663
0.00111524
0.000905707
0.000493781
0.00120862
0.00179911
0.0022533
0.00238682
0.00170881
0.00143244
0.00124691
0.00111118
0.00100796
0.000926602
0.00085947
0.000795952
0.000731235
0.000671845
0.000622704
0.000743614
0.000388494
0.00178925
0.0046187
0.00389683
0.00471269
0.00508621
0.00535168
0.00555639
0.00575789
0.00602628
0.00634982
0.00670171
0.00703128
0.0072801
0.00730404
0.0068102
0.00554235
0.00413097
0.00108882
0.000750576
0.00133936
0.00200758
0.00266761
0.00284217
0.000884222
0.000769979
0.000675424
0.000599169
0.000537856
0.000488339
0.000448132
0.000415818
0.00039103
0.000435534
0.000511159
0.000873006
0.000452338
0.00208606
0.00585068
0.00382958
0.00489083
0.00509783
0.0050935
0.00509638
0.00520091
0.00542204
0.00575353
0.00617911
0.00662113
0.0069917
0.0071651
0.00707289
0.00667535
0.00567458
0.00309035
0.00124675
0.00155747
0.00218158
0.00298208
0.00369082
0.00373555
0.00100453
0.000916974
0.000855232
0.000808078
0.000767523
0.000729444
0.000692961
0.000654587
0.000610305
0.000569623
0.000564788
0.00103212
0.000516401
0.00238949
0.00748934
0.00402974
0.00466848
0.00494918
0.00479584
0.00469091
0.00477455
0.00499208
0.00533796
0.00581208
0.00629203
0.00663697
0.00678664
0.00676396
0.00662444
0.00620778
0.00511979
0.00456149
0.00465351
0.00498333
0.00536379
0.0056104
0.00553881
0.00469624
0.0042447
0.00398024
0.00378416
0.00358741
0.00331719
0.00293969
0.00247536
0.00196021
0.00147395
0.00110315
0.00105438
0.000875556
0.00068658
0.000732423
0.000797732
0.00271525
0.00933066
0.00545382
0.00439707
0.00475311
0.00477872
0.00457769
0.00466535
0.00486822
0.0052162
0.00569001
0.00616439
0.00647943
0.00655013
0.0064466
0.00633429
0.00629079
0.00619578
0.0063576
0.00669744
0.00695559
0.00704081
0.00693439
0.00664599
0.00619233
0.00579689
0.00547048
0.00517294
0.00487679
0.00455776
0.00415137
0.0036462
0.00304691
0.00240273
0.00183438
0.0013551
0.00109805
0.000946459
0.0011895
0.00082831
0.00303047
0.0106902
0.00791936
0.00541887
0.00483009
0.00492211
0.00486044
0.0048323
0.00495104
0.00528382
0.00577042
0.0062455
0.00652036
0.00650413
0.00632383
0.00627164
0.00657893
0.0070833
0.00758674
0.00791099
0.00795478
0.00775374
0.0073728
0.00687944
0.00634699
0.00586928
0.00546418
0.00511111
0.00479391
0.0045093
0.00425351
0.00394154
0.00350673
0.0029672
0.00243265
0.001942
0.00161607
0.00147467
0.00139992
0.000991807
0.00310569
0.00977281
0.00840209
0.00721002
0.00633998
0.00587653
0.00534234
0.00504478
0.00511342
0.00549669
0.00603123
0.00649596
0.00669075
0.00655861
0.00636852
0.00658656
0.00728735
0.00778859
0.00808784
0.00813863
0.00789849
0.00742917
0.00681127
0.00613407
0.00550076
0.00498915
0.00459843
0.00429607
0.00406278
0.0038951
0.00379638
0.00375232
0.00361552
0.00330721
0.0030224
0.00286773
0.00293431
0.0030895
0.00363723
0.0015268
0.00304092
0.00365526
0.00403296
0.00424055
0.00427977
0.00424552
0.00431901
0.00463193
0.00518987
0.00587491
0.00649773
0.00686374
0.00684454
0.00651289
0.00658858
0.00700873
0.00740198
0.00756075
0.00751853
0.0072541
0.00676457
0.00609455
0.00534959
0.00465332
0.00410252
0.00371229
0.00343817
0.00323489
0.00307437
0.00293873
0.00281417
0.00268989
0.00258709
0.00250155
0.00244337
0.00240627
0.00233939
0.00221134
0.00205994
0.00142589
0.00127153
0.00225259
0.00318649
0.00403162
0.00487678
0.00574676
0.00648772
0.00700171
0.00717901
0.00698263
0.00658291
0.00618515
0.00627979
0.00645596
0.00644842
0.00626473
0.00591783
0.00540544
0.00477059
0.00410693
0.00351138
0.00306371
0.00277215
0.00259309
0.00248126
0.00240849
0.00236016
0.00232947
0.00231618
0.00232718
0.00234344
0.00235829
0.00236081
0.00232481
0.00221224
0.00201601
0.00177124
0.0011507
0.00201817
0.00416331
0.00560538
0.00662587
0.00739341
0.00746576
0.00726959
0.00691167
0.00614246
0.0053015
0.00482954
0.00466961
0.00461882
0.00447896
0.00422963
0.00388233
0.00344588
0.00296315
0.00251408
0.00217077
0.00195521
0.00183961
0.00178975
0.0017869
0.0018153
0.00186569
0.00193147
0.00200568
0.00209308
0.00218914
0.00229009
0.00238848
0.00246839
0.00250995
0.00247314
0.00244319
0.0022949
0.00116686
0.00213619
0.00219334
0.00224432
0.0025046
0.0023698
0.0021068
0.00182116
0.00159859
0.00143454
0.00126458
0.00110797
0.00096932
0.000857472
0.000779134
0.000726154
0.000686384
0.000652906
0.000623011
0.000597624
0.000579892
0.00057234
0.000574974
0.000585989
0.000603443
0.000625802
0.000651845
0.00068143
0.000714745
0.000752352
0.000795395
0.000843549
0.000896915
0.000955888
0.00102086
0.00109189
0.00117754
0.00121059
0.00118366
0.00110209
0.00101965
)
;

boundaryField
{
    floor
    {
        type            nutkWallFunction;
        Cmu             0.09;
        kappa           0.41;
        E               9.8;
        value           nonuniform List<scalar> 
36
(
0.000122349
5.99185e-05
7.10119e-05
8.15557e-05
8.58676e-05
8.47218e-05
7.9047e-05
7.27279e-05
6.7049e-05
6.21115e-05
5.78078e-05
5.40384e-05
5.0716e-05
4.77674e-05
4.50769e-05
4.25167e-05
3.99257e-05
3.80808e-05
3.41767e-05
3.41767e-05
4.52453e-05
5.35851e-05
6.18056e-05
8.30773e-05
8.86924e-05
9.66209e-05
0.000122349
0.000159644
0.000134192
0.000109564
5.99185e-05
0.000109564
5.89202e-05
0.000131118
9.09056e-05
0.000149374
)
;
    }
    ceiling
    {
        type            nutkWallFunction;
        Cmu             0.09;
        kappa           0.41;
        E               9.8;
        value           nonuniform List<scalar> 
43
(
0.000248035
0.0002542
0.000259688
0.000287582
0.000273253
0.00024498
0.000213822
0.000189169
0.000170755
0.000151425
0.000133352
0.000117108
0.000103808
9.43731e-05
8.79292e-05
8.30552e-05
7.89259e-05
7.5217e-05
7.20504e-05
6.98288e-05
6.88801e-05
6.92108e-05
7.05929e-05
7.27764e-05
7.55625e-05
7.87927e-05
8.24434e-05
8.65318e-05
9.11198e-05
9.63379e-05
0.000102136
0.000108517
0.000115518
0.000123173
0.00013148
0.000141414
0.000145225
0.00014212
0.000132668
0.000123032
0.000344347
0.000407804
0.000235159
)
;
    }
    sWall
    {
        type            nutkWallFunction;
        Cmu             0.09;
        kappa           0.41;
        E               9.8;
        value           uniform 0.000248102;
    }
    nWall
    {
        type            nutkWallFunction;
        Cmu             0.09;
        kappa           0.41;
        E               9.8;
        value           nonuniform List<scalar> 6(9.66213e-05 0.000100307 0.000119762 0.000138321 0.000140191 0.000123039);
    }
    sideWalls
    {
        type            empty;
    }
    glass1
    {
        type            nutkWallFunction;
        Cmu             0.09;
        kappa           0.41;
        E               9.8;
        value           nonuniform List<scalar> 9(0.000133543 0.000176098 0.000210631 0.000243154 0.00027589 0.00031055 0.000343676 0.000351536 0.000344795);
    }
    glass2
    {
        type            nutkWallFunction;
        Cmu             0.09;
        kappa           0.41;
        E               9.8;
        value           nonuniform List<scalar> 2(0.000181225 0.000169854);
    }
    sun
    {
        type            nutkWallFunction;
        Cmu             0.09;
        kappa           0.41;
        E               9.8;
        value           nonuniform List<scalar> 
14
(
0.000133426
0.000145264
0.000148862
0.000155873
0.000162344
0.000168506
0.000174729
0.000180848
0.00018575
0.000188677
0.000188727
0.000185014
0.000176316
0.000155033
)
;
    }
    Table_master
    {
        type            nutkWallFunction;
        Cmu             0.09;
        kappa           0.41;
        E               9.8;
        value           nonuniform List<scalar> 9(0.000107004 9.32634e-05 8.17087e-05 7.22491e-05 6.45371e-05 5.823e-05 5.30504e-05 4.88453e-05 4.55917e-05);
    }
    Table_slave
    {
        type            nutkWallFunction;
        Cmu             0.09;
        kappa           0.41;
        E               9.8;
        value           nonuniform List<scalar> 9(0.000121253 0.000110904 0.000103538 9.78707e-05 9.29652e-05 8.83313e-05 8.38646e-05 7.91358e-05 7.36373e-05);
    }
    inlet
    {
        type            calculated;
        value           uniform 0.000167705;
    }
    outlet
    {
        type            calculated;
        value           nonuniform List<scalar> 2(0.00213619 0.00219334);
    }
}


// ************************************************************************* //
