/*--------------------------------*- C++ -*----------------------------------*\
  =========                 |
  \\      /  F ield         | OpenFOAM: The Open Source CFD Toolbox
   \\    /   O peration     | Website:  https://openfoam.org
    \\  /    A nd           | Version:  6
     \\/     M anipulation  |
\*---------------------------------------------------------------------------*/
FoamFile
{
    version     2.0;
    format      ascii;
    class       volScalarField;
    location    "320";
    object      T;
}
// * * * * * * * * * * * * * * * * * * * * * * * * * * * * * * * * * * * * * //

dimensions      [0 0 0 1 0 0 0];

internalField   nonuniform List<scalar> 
458
(
302.782
302.508
302.495
302.491
302.487
302.483
302.479
302.474
302.466
302.457
302.449
302.446
302.452
302.471
302.507
302.689
302.664
302.655
302.662
302.671
302.678
302.686
302.693
302.7
302.707
302.714
302.722
302.729
302.736
302.744
302.752
302.763
302.79
302.964
302.542
302.517
302.518
302.52
302.519
302.516
302.509
302.492
302.467
302.443
302.432
302.437
302.455
302.475
302.485
302.496
302.518
302.695
302.637
302.633
302.643
302.656
302.662
302.667
302.671
302.675
302.68
302.684
302.688
302.693
302.699
302.707
302.717
302.733
302.775
303.157
302.589
302.549
302.559
302.572
302.581
302.584
302.576
302.546
302.496
302.447
302.422
302.426
302.45
302.47
302.482
302.491
302.51
302.646
302.62
302.623
302.642
302.665
302.667
302.67
302.673
302.676
302.679
302.683
302.687
302.69
302.694
302.703
302.712
302.727
302.771
303.355
302.648
302.583
302.602
302.632
302.66
302.678
302.672
302.621
302.535
302.453
302.411
302.416
302.447
302.477
302.494
302.501
302.509
302.52
302.541
302.575
302.616
302.659
302.697
302.728
302.75
302.769
302.785
302.798
302.809
302.819
302.826
302.832
302.8
302.768
302.75
302.775
303.55
302.724
302.619
302.636
302.681
302.732
302.776
302.775
302.696
302.57
302.454
302.399
302.407
302.448
302.492
302.519
302.529
302.536
302.553
302.583
302.625
302.673
302.721
302.764
302.801
302.83
302.852
302.87
302.882
302.889
302.892
302.889
302.88
302.855
302.817
302.781
302.78
302.881
302.968
302.968
303.727
302.824
302.677
302.669
302.711
302.773
302.855
302.85
302.737
302.578
302.445
302.384
302.398
302.456
302.521
302.565
302.586
302.6
302.625
302.662
302.708
302.758
302.805
302.847
302.881
302.908
302.927
302.942
302.95
302.953
302.948
302.938
302.923
302.897
302.86
302.819
302.8
302.843
302.876
302.919
303.885
302.988
302.824
302.78
302.793
302.842
302.917
302.88
302.73
302.543
302.402
302.351
302.39
302.479
302.571
302.636
302.673
302.696
302.727
302.766
302.811
302.856
302.898
302.933
302.96
302.98
302.993
303.002
303.005
303.003
302.993
302.978
302.958
302.932
302.899
302.862
302.837
302.844
302.859
302.891
304.116
303.446
303.256
303.127
303.065
303.072
303.037
302.875
302.637
302.422
302.303
302.302
302.398
302.533
302.659
302.74
302.785
302.81
302.841
302.878
302.916
302.952
302.983
303.007
303.024
303.035
303.041
303.043
303.04
303.035
303.025
303.01
302.99
302.967
302.942
302.915
302.899
302.905
302.924
303.067
304.445
304.133
303.889
303.658
303.473
303.323
303.028
302.639
302.316
302.151
302.148
302.268
302.464
302.655
302.8
302.864
302.897
302.921
302.949
302.978
303.006
303.03
303.049
303.062
303.069
303.072
303.071
303.068
303.063
303.057
303.05
303.046
303.044
303.047
303.057
303.078
303.11
303.145
303.172
303.237
297.519
299.116
300.087
300.47
300.702
300.99
301.336
301.71
302.064
302.391
302.71
302.863
302.938
302.973
302.995
303.015
303.036
303.057
303.074
303.086
303.094
303.098
303.098
303.097
303.095
303.092
303.09
303.088
303.087
303.086
303.088
303.094
303.106
303.125
303.151
303.18
303.208
303.237
297.894
299.226
300.074
300.576
301.028
301.471
301.929
302.346
302.633
302.829
302.949
303.007
303.038
303.057
303.073
303.087
303.1
303.111
303.117
303.121
303.122
303.122
303.121
303.119
303.117
303.115
303.113
303.112
303.111
303.111
303.112
303.116
303.124
303.137
303.154
303.177
303.182
303.218
299.52
299.479
299.476
300.562
301.278
301.871
302.341
302.635
302.814
302.936
303.011
303.059
303.089
303.108
303.12
303.128
303.135
303.141
303.145
303.147
303.147
303.147
303.145
303.143
303.141
303.139
303.137
303.135
303.133
303.131
303.129
303.128
303.128
303.129
303.132
303.14
303.151
303.16
303.165
303.208
)
;

boundaryField
{
    floor
    {
        type            wallHeatTransfer;
        Tinf            uniform 305.2;
        alphaWall       uniform 0.24;
        value           nonuniform List<scalar> 
36
(
302.805
303.147
303.079
303.034
303.027
303.038
303.062
303.09
303.119
303.146
303.172
303.197
303.221
303.245
303.267
303.291
303.316
303.338
303.39
303.39
303.297
303.245
303.209
303.222
303.282
303.263
302.805
302.728
302.774
302.84
303.147
302.84
303.157
302.792
302.998
302.773
)
;
    }
    ceiling
    {
        type            wallHeatTransfer;
        Tinf            uniform 303.2;
        alphaWall       uniform 0.24;
        value           nonuniform List<scalar> 
43
(
299.745
299.702
299.695
300.704
301.387
301.954
302.402
302.679
302.846
302.961
303.031
303.075
303.103
303.12
303.131
303.139
303.145
303.15
303.154
303.156
303.156
303.156
303.154
303.153
303.15
303.148
303.146
303.144
303.142
303.14
303.138
303.137
303.136
303.137
303.139
303.146
303.156
303.164
303.169
303.207
304.388
304.096
298.232
)
;
    }
    sWall
    {
        type            wallHeatTransfer;
        Tinf            uniform 315.2;
        alphaWall       uniform 0.36;
        value           uniform 300.919;
    }
    nWall
    {
        type            wallHeatTransfer;
        Tinf            uniform 307.2;
        alphaWall       uniform 0.36;
        value           nonuniform List<scalar> 6(303.755 303.695 303.58 303.807 303.785 303.834);
    }
    sideWalls
    {
        type            empty;
    }
    glass1
    {
        type            wallHeatTransfer;
        Tinf            uniform 315.2;
        alphaWall       uniform 4.3;
        value           nonuniform List<scalar> 9(311.211 310.582 310.183 309.878 309.623 309.388 309.196 309.259 309.487);
    }
    glass2
    {
        type            wallHeatTransfer;
        Tinf            uniform 307.2;
        alphaWall       uniform 4.3;
        value           nonuniform List<scalar> 2(305.601 305.721);
    }
    sun
    {
        type            wallHeatTransfer;
        Tinf            uniform 305.2;
        alphaWall       uniform 0.24;
        value           nonuniform List<scalar> 
14
(
303.032
302.768
302.751
302.738
302.726
302.716
302.705
302.694
302.682
302.671
302.663
302.664
302.678
302.721
)
;
    }
    Table_master
    {
        type            zeroGradient;
    }
    Table_slave
    {
        type            zeroGradient;
    }
    inlet
    {
        type            fixedValue;
        value           uniform 295.15;
    }
    outlet
    {
        type            zeroGradient;
    }
}


// ************************************************************************* //
