/*--------------------------------*- C++ -*----------------------------------*\
  =========                 |
  \\      /  F ield         | OpenFOAM: The Open Source CFD Toolbox
   \\    /   O peration     | Website:  https://openfoam.org
    \\  /    A nd           | Version:  6
     \\/     M anipulation  |
\*---------------------------------------------------------------------------*/
FoamFile
{
    version     2.0;
    format      ascii;
    class       volScalarField;
    location    "32099.9999977955267";
    object      epsilon;
}
// * * * * * * * * * * * * * * * * * * * * * * * * * * * * * * * * * * * * * //

dimensions      [0 2 -3 0 0 0 0];

internalField   nonuniform List<scalar> 
778
(
0.000253107
0.000306338
0.00030301
0.000344213
0.000385116
0.000424969
0.000464464
0.000504787
0.000547672
0.000595834
0.000644304
0.000692694
0.00074265
0.000798975
0.000860702
8.95063e-05
0.000262423
0.000268846
0.000249793
0.000219984
0.000184015
0.000152296
0.000126493
0.000105879
8.94148e-05
7.62676e-05
6.56186e-05
5.68261e-05
4.93632e-05
4.27573e-05
3.65097e-05
3.18118e-05
2.35969e-05
0.000796948
0.00144314
0.000287016
0.000259647
0.000261763
0.000267749
0.00027666
0.000290107
0.000310384
0.000340615
0.000379853
0.000430989
0.000499386
0.000600594
0.000785731
0.00112937
0.000978811
0.000858428
0.00051171
0.000369293
0.000294021
0.000242706
0.000203903
0.000186756
0.000154623
0.000124963
0.00010067
8.14659e-05
6.65065e-05
5.48049e-05
4.56165e-05
3.86948e-05
3.45043e-05
3.27419e-05
6.57628e-05
4.80626e-05
0.00163049
0.00407876
0.000407393
0.000242983
0.000229171
0.000231091
0.000238315
0.000250594
0.000268511
0.000292794
0.000324927
0.000366987
0.000421348
0.000495018
0.000601363
0.000724608
0.00082983
0.00158377
0.00102814
0.000512279
0.000367625
0.000294193
0.000261978
0.000550806
0.000362114
0.000250404
0.000181117
0.000136153
0.000105828
8.47175e-05
6.9775e-05
5.94266e-05
4.51046e-05
3.79534e-05
0.000108197
7.07322e-05
0.00285322
0.00876957
0.000709807
0.000240768
0.000202536
0.000200077
0.000203252
0.000209882
0.000220704
0.000237626
0.000263317
0.000300048
0.000349222
0.000412294
0.000487916
0.000560086
0.0006124
0.000824641
0.00156525
0.000728803
0.000459716
0.000358261
0.000301896
0.0002918
0.000813827
0.00061225
0.000481425
0.00038807
0.000318756
0.000264017
0.000218508
0.000178802
0.000141659
8.36464e-05
5.47917e-05
0.000148735
9.43303e-05
0.00454544
0.0158258
0.00134611
0.000258363
0.000175775
0.000166838
0.000165847
0.000167824
0.000173988
0.000187496
0.000211739
0.000248399
0.000297758
0.000359211
0.000427594
0.00048893
0.000528405
0.000582495
0.000627738
0.000483293
0.000393566
0.000331083
0.000282318
0.00024862
0.000247811
0.000226737
0.000202893
0.000181038
0.000162668
0.00014651
0.000131837
0.000118236
0.000105062
8.44229e-05
6.40845e-05
0.000105146
0.000138726
0.000160033
0.000374213
0.000323936
0.00676266
0.0248761
0.00255287
0.000318046
0.000155562
0.000137097
0.00013216
0.000130727
0.000134495
0.000148587
0.000176735
0.000218072
0.000270713
0.000333888
0.000401394
0.000462238
0.00050271
0.000521578
0.000504838
0.000438332
0.000373902
0.000315703
0.000264762
0.000223379
0.000193273
0.000169616
0.000150809
0.000135636
0.000123311
0.000112763
0.000103299
9.45215e-05
8.60648e-05
7.5877e-05
6.52673e-05
7.75064e-05
9.95882e-05
0.000213721
0.00109146
0.000551639
0.00967057
0.0336352
0.00458257
0.000464867
0.000150842
0.000116359
0.00010711
0.000103308
0.000107106
0.000127947
0.000166149
0.000215858
0.000273158
0.000339705
0.000408841
0.000469927
0.000509745
0.000520203
0.000494231
0.000437626
0.000371862
0.00030749
0.00025054
0.000204419
0.000169729
0.000144548
0.000126331
0.000112755
0.000102307
9.37379e-05
8.62341e-05
7.93359e-05
7.27737e-05
6.61155e-05
6.02955e-05
6.36226e-05
7.66504e-05
0.000177654
0.00163959
0.000909899
0.012757
0.0404057
0.00748842
0.000870873
0.000194204
0.000115368
9.73941e-05
9.14781e-05
9.86568e-05
0.000137752
0.000189317
0.000246215
0.000306845
0.000373413
0.000444193
0.000507436
0.000546876
0.000550605
0.000515526
0.000451463
0.000375444
0.000300893
0.000236418
0.000185917
0.000149289
0.000123978
0.000106726
9.45968e-05
8.57754e-05
7.88484e-05
7.29316e-05
6.75436e-05
6.24602e-05
5.7651e-05
5.39552e-05
5.55248e-05
6.99915e-05
0.000368707
0.00591895
0.00209113
0.0138263
0.0414626
0.0139297
0.00316098
0.000629095
0.000207802
0.000132634
0.000116
0.000142461
0.000192959
0.000249316
0.000306359
0.000367107
0.000436166
0.000510433
0.000575059
0.000610345
0.000602757
0.000551874
0.000470739
0.000378282
0.000290729
0.000218118
0.000163941
0.000126748
0.000102613
8.7313e-05
7.73802e-05
7.07149e-05
6.573e-05
6.15292e-05
5.76738e-05
5.40045e-05
5.06249e-05
4.83584e-05
5.14633e-05
9.34062e-05
0.00110083
0.0157372
0.00295504
0.0130043
0.0283757
0.0144146
0.00572354
0.00210216
0.000833599
0.000413316
0.00027677
0.000278956
0.000314588
0.000356078
0.000401615
0.000458305
0.000530399
0.000609341
0.000673321
0.000698112
0.000670143
0.000593382
0.000486268
0.00037224
0.000270361
0.00019094
0.00013567
0.000100665
7.99006e-05
6.80028e-05
6.12302e-05
5.71608e-05
5.42277e-05
5.16831e-05
4.92246e-05
4.68077e-05
4.46945e-05
4.4148e-05
5.30149e-05
0.000171575
0.00271697
0.012804
0.0032091
0.0106906
0.0193617
0.0120391
0.00629857
0.00317273
0.00167348
0.000985964
0.000678567
0.000559765
0.0005172
0.000510309
0.00053128
0.000583387
0.000662317
0.000746961
0.000804571
0.000806825
0.00074358
0.000627402
0.000485323
0.000346861
0.000233056
0.000152264
0.00010173
7.35791e-05
5.88343e-05
5.13626e-05
4.79647e-05
4.6177e-05
4.48662e-05
4.35655e-05
4.21384e-05
4.07012e-05
3.99169e-05
4.26869e-05
6.61699e-05
0.000259516
0.00228905
0.011133
0.00329324
0.00807389
0.0137725
0.00969278
0.00593262
0.00356864
0.0022265
0.00148997
0.00109221
0.000868795
0.000743267
0.000685694
0.000689928
0.00075034
0.000844588
0.000932158
0.000968364
0.000925867
0.000805123
0.000634014
0.000451037
0.000292021
0.000176786
0.000106847
6.93965e-05
5.24558e-05
4.43334e-05
4.05237e-05
3.91327e-05
3.855e-05
3.80975e-05
3.7494e-05
3.67041e-05
3.60681e-05
3.72933e-05
4.85385e-05
0.000121261
0.000511819
0.00232349
0.00906096
0.00321492
0.00612461
0.0101674
0.00779116
0.00531228
0.00356982
0.00246872
0.00178753
0.00136787
0.00109269
0.000925864
0.000859092
0.000886591
0.000982881
0.00109787
0.00117022
0.00115086
0.0010273
0.000821536
0.000585192
0.000367292
0.000207466
0.000114167
7.19784e-05
5.21848e-05
4.27289e-05
3.79515e-05
3.56388e-05
3.48318e-05
3.45483e-05
3.43568e-05
3.40805e-05
3.38241e-05
3.45768e-05
4.14574e-05
8.16334e-05
0.00027403
0.000919059
0.00271034
0.0068227
0.00285374
0.00617983
0.00781263
0.00680438
0.00473945
0.0033655
0.00246219
0.00186553
0.00146219
0.00119447
0.00106449
0.00107029
0.00118046
0.0013301
0.00143908
0.00144026
0.00130236
0.00105246
0.000742101
0.000455792
0.000237635
0.000130897
8.18817e-05
6.0032e-05
4.90941e-05
4.2813e-05
3.89099e-05
3.66121e-05
3.56046e-05
3.52146e-05
3.51343e-05
3.52732e-05
3.59292e-05
3.89433e-05
5.31558e-05
0.000117749
0.000366762
0.00109576
0.00276162
0.00546435
0.0025672
0.00454443
0.0051144
0.00418564
0.00336232
0.0026402
0.00207049
0.00164933
0.00136204
0.00124486
0.00130039
0.00147826
0.00168749
0.00182612
0.0018193
0.0016408
0.0013056
0.000911975
0.000520105
0.000279077
0.000155751
0.000102727
7.96628e-05
6.77336e-05
5.98113e-05
5.37435e-05
4.90975e-05
4.59832e-05
4.45543e-05
4.43914e-05
4.52254e-05
4.70495e-05
5.02591e-05
5.68825e-05
7.54763e-05
0.000137791
0.00034355
0.000925922
0.00227432
0.00533339
0.00276129
0.00140026
0.00143086
0.00143358
0.00135489
0.00131285
0.00142378
0.00170783
0.00204316
0.00230686
0.00240685
0.00229387
0.00198331
0.00153684
0.000984976
0.000572034
0.00031481
0.00018977
0.000137376
0.000115541
0.000103891
9.52607e-05
8.75778e-05
8.06276e-05
7.4955e-05
7.14116e-05
7.07604e-05
7.31169e-05
7.83778e-05
8.66402e-05
9.81017e-05
0.000114084
0.000140637
0.000198373
0.000347536
0.000756681
0.00207396
0.0041944
0.00333372
0.00118803
0.00171827
0.00195621
0.00231243
0.00275945
0.00316411
0.00334301
0.00330898
0.00308659
0.00269727
0.00213017
0.00151408
0.000981119
0.000579713
0.000347529
0.000237938
0.00019374
0.000175228
0.000164962
0.000156937
0.000149398
0.000142095
0.000135607
0.000131131
0.000130207
0.000134302
0.000144197
0.000160624
0.000184144
0.000215112
0.000254718
0.000307908
0.000390087
0.000543078
0.000895629
0.00230788
0.00370201
0.0035496
0.00741476
0.00805323
0.00480833
0.00340821
0.00374414
0.00415389
0.00416497
0.00395151
0.00359276
0.00313603
0.00262936
0.00208765
0.00154032
0.0010575
0.00069556
0.000471566
0.000362572
0.00031659
0.000296633
0.000286305
0.000279855
0.00027488
0.000269989
0.000264546
0.000259051
0.000255328
0.000256089
0.000263973
0.000280485
0.000307613
0.000347264
0.000401885
0.000475763
0.000578372
0.00073169
0.000986608
0.00148142
0.00299984
0.00469608
0.00355197
0.00650259
0.00512815
0.00436984
0.00462535
0.0045497
0.00428308
0.00370181
0.0030537
0.00246613
0.00197195
0.00156839
0.0012458
0.000995157
0.000811507
0.000685437
0.000598082
0.000538539
0.00050017
0.00047805
0.000469036
0.000470448
0.000479418
0.000492893
0.000508085
0.000523096
0.000537446
0.000552286
0.00057028
0.000596341
0.000635274
0.000692698
0.0007765
0.0008989
0.00108102
0.00136041
0.00179351
0.00245762
0.00378555
0.00638951
0.00344654
0.00536113
0.00337163
0.00332325
0.00362334
0.00388609
0.00355362
0.0029604
0.00235823
0.00184596
0.00143589
0.00111211
0.000859213
0.000669726
0.000540037
0.000464223
0.000432208
0.000423135
0.000428301
0.000443584
0.000466207
0.000493711
0.00052384
0.000554779
0.000585416
0.000615524
0.00064584
0.000677953
0.000713983
0.000756196
0.000806732
0.000868105
0.000944666
0.00104486
0.00118457
0.00139015
0.0016972
0.00214139
0.00274228
0.00347316
0.00282373
)
;

boundaryField
{
    floor
    {
        Cmu             0.09;
        kappa           0.41;
        E               9.8;
        type            epsilonWallFunction;
        value           nonuniform List<scalar> 
36
(
0.000860702
8.95063e-05
0.000262423
0.000268846
0.000249793
0.000219984
0.000184015
0.000152296
0.000126493
0.000105879
8.94148e-05
7.62676e-05
6.56186e-05
5.68261e-05
4.93632e-05
4.27573e-05
3.65097e-05
3.18118e-05
2.35969e-05
2.35969e-05
4.80626e-05
7.07322e-05
9.43303e-05
0.000160033
0.000374213
0.000323936
0.000860702
0.00112937
0.000978811
0.000858428
8.95063e-05
0.000858428
0.00051171
0.00158377
0.00102814
0.00156525
)
;
    }
    ceiling
    {
        Cmu             0.09;
        kappa           0.41;
        E               9.8;
        type            epsilonWallFunction;
        value           nonuniform List<scalar> 
43
(
0.00536113
0.00337163
0.00332325
0.00362334
0.00388609
0.00355362
0.0029604
0.00235823
0.00184596
0.00143589
0.00111211
0.000859213
0.000669726
0.000540037
0.000464223
0.000432208
0.000423135
0.000428301
0.000443584
0.000466207
0.000493711
0.00052384
0.000554779
0.000585416
0.000615524
0.00064584
0.000677953
0.000713983
0.000756196
0.000806732
0.000868105
0.000944666
0.00104486
0.00118457
0.00139015
0.0016972
0.00214139
0.00274228
0.00347316
0.00282373
0.00454443
0.0051144
0.00118803
)
;
    }
    sWall
    {
        Cmu             0.09;
        kappa           0.41;
        E               9.8;
        type            epsilonWallFunction;
        value           nonuniform List<scalar> 9(0.0130043 0.0106906 0.00807389 0.00612461 0.00617983 0.00454443 0.00741476 0.00650259 0.00536113);
    }
    nWall
    {
        Cmu             0.09;
        kappa           0.41;
        E               9.8;
        type            epsilonWallFunction;
        value           nonuniform List<scalar> 
14
(
0.000323936
0.000551639
0.000909899
0.0032091
0.00329324
0.00321492
0.00285374
0.0025672
0.00276129
0.00333372
0.0035496
0.00355197
0.00344654
0.00282373
)
;
    }
    sideWalls
    {
        type            empty;
    }
    glass1
    {
        Cmu             0.09;
        kappa           0.41;
        E               9.8;
        type            epsilonWallFunction;
        value           nonuniform List<scalar> 9(0.000253107 0.000796948 0.00163049 0.00285322 0.00454544 0.00676266 0.00967057 0.012757 0.0138263);
    }
    glass2
    {
        Cmu             0.09;
        kappa           0.41;
        E               9.8;
        type            epsilonWallFunction;
        value           nonuniform List<scalar> 2(0.00209113 0.00295504);
    }
    sun
    {
        Cmu             0.09;
        kappa           0.41;
        E               9.8;
        type            epsilonWallFunction;
        value           nonuniform List<scalar> 
14
(
0.000253107
0.000306338
0.00030301
0.000344213
0.000385116
0.000424969
0.000464464
0.000504787
0.000547672
0.000595834
0.000644304
0.000692694
0.00074265
0.000798975
)
;
    }
    Table_master
    {
        Cmu             0.09;
        kappa           0.41;
        E               9.8;
        type            epsilonWallFunction;
        value           nonuniform List<scalar> 9(0.000550806 0.000362114 0.000250404 0.000181117 0.000136153 0.000105828 8.47175e-05 6.9775e-05 5.94266e-05);
    }
    Table_slave
    {
        Cmu             0.09;
        kappa           0.41;
        E               9.8;
        type            epsilonWallFunction;
        value           nonuniform List<scalar> 9(0.000813827 0.00061225 0.000481425 0.00038807 0.000318756 0.000264017 0.000218508 0.000178802 0.000141659);
    }
    inlet
    {
        type            turbulentMixingLengthDissipationRateInlet;
        mixingLength    0.01;
        phi             phi;
        k               k;
        value           uniform 0.000471671;
    }
    outlet
    {
        type            zeroGradient;
    }
}


// ************************************************************************* //
