/*--------------------------------*- C++ -*----------------------------------*\
  =========                 |
  \\      /  F ield         | OpenFOAM: The Open Source CFD Toolbox
   \\    /   O peration     | Website:  https://openfoam.org
    \\  /    A nd           | Version:  6
     \\/     M anipulation  |
\*---------------------------------------------------------------------------*/
FoamFile
{
    version     2.0;
    format      ascii;
    class       volScalarField;
    location    "40899.9999993453021";
    object      alphat;
}
// * * * * * * * * * * * * * * * * * * * * * * * * * * * * * * * * * * * * * //

dimensions      [1 -1 -1 0 0 0 0];

internalField   nonuniform List<scalar> 
778
(
0.00104102
0.00111058
0.00110658
0.00115461
0.00119861
0.00123857
0.00127577
0.00131163
0.00134774
0.00138611
0.00142272
0.00145751
0.0014918
0.00152869
0.0015672
0.000736676
0.00105574
0.00106424
0.00103845
0.000995311
0.000937674
0.000880274
0.000827442
0.000779833
0.000737144
0.00069909
0.000664901
0.00063375
0.000604672
0.000576374
0.000546786
0.000522208
0.000472654
0.0015247
0.00300743
0.00263941
0.00304654
0.00334197
0.00365512
0.00396743
0.00425519
0.00448679
0.00462162
0.00470093
0.00466844
0.00443591
0.00385947
0.00281898
0.00171615
0.00163627
0.00156633
0.001319
0.00224678
0.0031144
0.00362679
0.00365068
0.00288062
0.00246367
0.00217451
0.00195498
0.00178042
0.00163169
0.00150021
0.00137784
0.00125811
0.00115065
0.001058
0.00119156
0.000599349
0.0019342
0.00419901
0.00311344
0.00445343
0.0049762
0.00541845
0.00581998
0.00617324
0.00647243
0.00670703
0.00693449
0.00717415
0.00739487
0.00752707
0.00744191
0.00681564
0.00498575
0.00192152
0.00166357
0.00355831
0.0049668
0.00563395
0.00512497
0.00135228
0.00117587
0.0010397
0.000933124
0.000848324
0.000779898
0.000724111
0.000678749
0.000643385
0.000707223
0.000831886
0.00131705
0.000681963
0.00232918
0.00565878
0.00297911
0.00500687
0.00578072
0.00619455
0.00649863
0.00672338
0.00689096
0.00702675
0.00722016
0.00754747
0.00802564
0.0086276
0.00923356
0.00953382
0.00895576
0.00668642
0.00191345
0.00442629
0.00658782
0.00768855
0.00796198
0.00679917
0.00153941
0.0014003
0.0012926
0.00120296
0.00112655
0.00105793
0.000993261
0.000929051
0.000859722
0.000803053
0.000832251
0.00142557
0.000751092
0.00271846
0.00749101
0.00300573
0.00475914
0.00594883
0.00630158
0.00642932
0.00643378
0.00636934
0.00631225
0.00639291
0.00671066
0.00729446
0.00812194
0.00908218
0.00996745
0.0105292
0.0105233
0.0094438
0.00960761
0.00982841
0.00986081
0.00966196
0.00904527
0.00719973
0.00621984
0.00554845
0.00500352
0.00446835
0.00394959
0.00344195
0.00293503
0.00241448
0.00185472
0.00141543
0.00141332
0.00111855
0.000895611
0.00118026
0.00113484
0.00310143
0.00954128
0.00353878
0.00401291
0.00569923
0.00609064
0.00605889
0.00584028
0.00552799
0.00527044
0.00526441
0.00559729
0.00626243
0.00722187
0.0083449
0.00946739
0.0104216
0.0110311
0.0111421
0.0110301
0.0108349
0.0105582
0.0102025
0.00974964
0.00908812
0.00845041
0.00787117
0.0073117
0.00670695
0.00606078
0.00537051
0.00463049
0.00383612
0.00299345
0.0022309
0.00167513
0.00130118
0.0014543
0.00252343
0.00135827
0.00349222
0.0114364
0.00471583
0.00328759
0.00512045
0.00576078
0.00568933
0.00533593
0.00482358
0.00437306
0.00435991
0.00478031
0.00554186
0.00661495
0.00783529
0.00904328
0.0100822
0.0108257
0.0111673
0.0111406
0.0108961
0.0105259
0.0101021
0.00967939
0.00927045
0.00889499
0.00854212
0.00816579
0.00771075
0.00716283
0.0065142
0.00576189
0.00490871
0.00397627
0.00306508
0.00221762
0.0016342
0.00145527
0.00256922
0.00159901
0.00382797
0.0128689
0.00642874
0.00313096
0.00405555
0.00510645
0.00525304
0.00496283
0.00435707
0.00374497
0.00388351
0.00443979
0.00529213
0.00639839
0.00766699
0.00893172
0.0100092
0.0107567
0.0110955
0.0110504
0.0107342
0.0102681
0.0097668
0.00932224
0.0089796
0.00873479
0.00854376
0.00833627
0.00804705
0.00764225
0.00710623
0.00643582
0.00563713
0.00473357
0.00379415
0.00284985
0.00199727
0.00134332
0.00363941
0.00208229
0.00392911
0.0121729
0.00795134
0.0040487
0.00274966
0.00336786
0.00394226
0.00399135
0.00352404
0.0034249
0.00378051
0.00443518
0.00535792
0.00653244
0.00786302
0.00916686
0.0102398
0.0109285
0.0111691
0.0110012
0.0105426
0.00994136
0.00934463
0.00886847
0.00856636
0.00841819
0.00835094
0.00827108
0.00810433
0.0078115
0.00737723
0.00679976
0.00608597
0.00525471
0.004343
0.00332199
0.00193525
0.00170996
0.0054913
0.0023924
0.00384953
0.00980953
0.00820771
0.00555491
0.00366985
0.00284089
0.00268972
0.00281598
0.00305254
0.00342896
0.00396379
0.00470158
0.00570674
0.0069747
0.00837851
0.00970033
0.0107158
0.0112725
0.0113281
0.0109508
0.0102884
0.00952592
0.00884468
0.00837776
0.00816413
0.0081396
0.00818596
0.00818501
0.00807623
0.00783829
0.00746411
0.00695286
0.00630799
0.00553566
0.00461055
0.00318798
0.00141016
0.00339031
0.00516332
0.0024153
0.0036057
0.00838223
0.00793313
0.00635385
0.00489176
0.00393859
0.00346659
0.00335935
0.00355404
0.00391322
0.00443678
0.00521716
0.00632914
0.00772063
0.00919575
0.0104877
0.0113597
0.01168
0.0114473
0.0107771
0.00986788
0.0089565
0.00826248
0.0079145
0.00787561
0.00799077
0.00810545
0.00810762
0.00799212
0.00776123
0.00741071
0.00693389
0.0063247
0.00556743
0.00455987
0.00276435
0.00158886
0.00377938
0.00497049
0.00238163
0.00328281
0.00755732
0.00765118
0.00672363
0.00572145
0.00496629
0.00452132
0.00436214
0.00440157
0.00461882
0.00510122
0.00597537
0.00726282
0.00880416
0.0103083
0.0114659
0.0120551
0.0119971
0.0113598
0.0103286
0.00917806
0.00821462
0.00766878
0.00756161
0.0076612
0.00781285
0.00791022
0.0078819
0.00774728
0.00751455
0.0071752
0.00670656
0.00608741
0.00527661
0.00417526
0.0025692
0.00174157
0.00386315
0.00549146
0.00236481
0.00299328
0.00676046
0.0073054
0.00686796
0.00622522
0.00568481
0.00532523
0.00514928
0.00509742
0.00528491
0.00590007
0.00704463
0.00860295
0.0102685
0.0116682
0.0124966
0.0126008
0.0119982
0.0108594
0.00946501
0.00819868
0.00738833
0.00704004
0.00700995
0.00711952
0.00725059
0.00732671
0.00729887
0.00716146
0.00692687
0.00657881
0.0060772
0.00536388
0.00439807
0.00325043
0.00221112
0.00200962
0.00400386
0.00555448
0.00251854
0.00300436
0.00671011
0.00746461
0.00695047
0.00643013
0.00600391
0.00569655
0.00549726
0.00549136
0.00594739
0.00703395
0.00865583
0.0104796
0.0120785
0.0130826
0.0132827
0.0126675
0.0113848
0.00975324
0.00817096
0.00702684
0.00636971
0.00608051
0.00602599
0.00608862
0.00617529
0.00622475
0.00620027
0.00605214
0.00579521
0.00539208
0.00476518
0.00386306
0.00284717
0.00213518
0.0019866
0.0024992
0.00451733
0.00561456
0.0025681
0.00271027
0.00282026
0.00416555
0.00489758
0.00512483
0.00512942
0.0050808
0.00517835
0.0058126
0.00716369
0.00906427
0.0111097
0.0128452
0.0138974
0.0140578
0.0133015
0.0118178
0.00988568
0.00804456
0.0066137
0.00567425
0.00515522
0.00492974
0.00485891
0.00484202
0.00482035
0.00476677
0.00466991
0.00449297
0.00420901
0.00379236
0.00319104
0.00248982
0.00200476
0.0019716
0.00236812
0.00320948
0.00491287
0.00603393
0.00252917
0.000964404
0.00173842
0.00266583
0.00340864
0.00427295
0.00574644
0.00791479
0.0103212
0.0125055
0.0141221
0.0149377
0.0148098
0.0137616
0.0119186
0.00974806
0.00770906
0.00611274
0.00506686
0.0045113
0.00425228
0.00412043
0.00402081
0.00391007
0.0037743
0.00361723
0.0034502
0.00328022
0.0030767
0.00283124
0.002529
0.00223152
0.00212483
0.0023635
0.00293934
0.00376126
0.00465177
0.00508133
0.0024054
0.00178748
0.00246697
0.00358633
0.00558824
0.00830893
0.0110322
0.0131415
0.0146586
0.0155629
0.0157836
0.0152025
0.0137161
0.0115673
0.00918053
0.00703222
0.00546635
0.00458293
0.00418662
0.0040209
0.00393246
0.00385526
0.00376584
0.00366115
0.00354809
0.00343634
0.00333236
0.00323525
0.00313334
0.00302033
0.0029002
0.00279822
0.00279949
0.00303177
0.00355768
0.00429996
0.00499898
0.00525296
0.0023588
0.00323889
0.00786869
0.00725692
0.00648345
0.00822109
0.0109481
0.0132461
0.0147961
0.0156124
0.0158067
0.0154596
0.0145231
0.0129556
0.0108299
0.00847971
0.00643574
0.00512479
0.00451425
0.00429046
0.00421
0.00416022
0.00409955
0.00401781
0.00391883
0.00381294
0.00371313
0.00363264
0.00358282
0.00357002
0.00359071
0.00362571
0.00366473
0.00373048
0.00386821
0.00414568
0.00464041
0.00540922
0.00644787
0.00669824
0.00261845
0.00309551
0.00597836
0.00771396
0.00987277
0.0109496
0.012059
0.0127023
0.0128551
0.0126072
0.0120147
0.011087
0.00981088
0.00824401
0.00661749
0.0052844
0.0044778
0.00411669
0.00399761
0.00397448
0.00397252
0.0039581
0.00391933
0.00385632
0.00377587
0.0036892
0.00361194
0.00356448
0.00356999
0.0036492
0.00381253
0.00404797
0.00430146
0.00452584
0.00478018
0.00514265
0.00568376
0.0064598
0.00764881
0.00733596
0.00278301
0.00289432
0.00248097
0.00246847
0.00254024
0.00259926
0.00252076
0.00236893
0.00219093
0.0020101
0.0018346
0.00166715
0.00151315
0.00138436
0.00129413
0.00124676
0.0012308
0.00123221
0.00124129
0.00125306
0.00126549
0.00127824
0.00129213
0.00130885
0.00133078
0.00136066
0.00140102
0.00145327
0.00151687
0.00158925
0.00166683
0.00174667
0.00182808
0.00191197
0.00199835
0.00209133
0.00219457
0.002308
0.0024343
0.00257818
0.00253168
)
;

boundaryField
{
    floor
    {
        type            compressible::alphatWallFunction;
        Prt             0.85;
        value           nonuniform List<scalar> 
36
(
0.000219865
0.000104461
0.000149987
0.000151176
0.000147565
0.000141503
0.000133356
0.000125184
0.000117607
0.000110729
0.00010452
9.89487e-05
9.39119e-05
8.92953e-05
8.4961e-05
8.07183e-05
7.62549e-05
7.25247e-05
6.49366e-05
6.49358e-05
8.41659e-05
9.64306e-05
0.000106555
0.000127377
0.000167322
0.000161032
0.000219862
0.00023969
0.00022908
0.000219745
0.00010446
0.000219742
0.000186337
0.000266718
0.000232706
0.000265662
)
;
    }
    ceiling
    {
        type            compressible::alphatWallFunction;
        Prt             0.85;
        value           nonuniform List<scalar> 
43
(
0.000391125
0.000338942
0.000337356
0.000346492
0.000353994
0.000344071
0.000324748
0.000301912
0.000278501
0.000255555
0.000233429
0.000212851
0.000195452
0.000183147
0.000176651
0.000174453
0.000174647
0.0001759
0.000177523
0.000179235
0.000180987
0.000182885
0.000185159
0.000188127
0.000192161
0.000197598
0.000204626
0.000213168
0.00022287
0.000233241
0.000243873
0.000254664
0.000265736
0.000277075
0.000289198
0.000302573
0.000317183
0.000333364
0.000351665
0.000345609
0.000368319
0.000382146
0.000248629
)
;
    }
    sWall
    {
        type            compressible::alphatWallFunction;
        Prt             0.85;
        value           nonuniform List<scalar> 9(0.000507612 0.000477866 0.000438161 0.000402222 0.000403595 0.000366744 0.000432095 0.000414366 0.000389375);
    }
    nWall
    {
        type            compressible::alphatWallFunction;
        Prt             0.85;
        value           nonuniform List<scalar> 
14
(
0.000160583
0.00019124
0.000223654
0.000330093
0.000325837
0.000323805
0.000343466
0.000349709
0.000344354
0.000328641
0.000322913
0.000356225
0.000376666
0.000344914
)
;
    }
    sideWalls
    {
        type            empty;
    }
    glass1
    {
        type            compressible::alphatWallFunction;
        Prt             0.85;
        value           nonuniform List<scalar> 9(0.000143932 0.00020914 0.000262698 0.000313309 0.000362385 0.00041001 0.000458022 0.000498881 0.000511236);
    }
    glass2
    {
        type            compressible::alphatWallFunction;
        Prt             0.85;
        value           nonuniform List<scalar> 2(0.000285023 0.000324805);
    }
    sun
    {
        type            compressible::alphatWallFunction;
        Prt             0.85;
        value           nonuniform List<scalar> 
14
(
0.000147966
0.000157652
0.000157094
0.00016376
0.000169841
0.000175341
0.000180442
0.000185344
0.000190264
0.000195477
0.000200435
0.000205133
0.000209751
0.000214707
)
;
    }
    Table_master
    {
        type            compressible::alphatWallFunction;
        Prt             0.85;
        value           nonuniform List<scalar> 9(0.000191137 0.000166949 0.000147994 0.000132959 0.000120852 0.000110977 0.00010285 9.61861e-05 9.09531e-05);
    }
    Table_slave
    {
        type            compressible::alphatWallFunction;
        Prt             0.85;
        value           nonuniform List<scalar> 9(0.000216413 0.000197662 0.000183001 0.000170693 0.000160118 0.000150552 0.00014147 0.000132384 0.00012249);
    }
    inlet
    {
        type            fixedValue;
        value           uniform 1.94e-05;
    }
    outlet
    {
        type            zeroGradient;
    }
}


// ************************************************************************* //
