/*--------------------------------*- C++ -*----------------------------------*\
  =========                 |
  \\      /  F ield         | OpenFOAM: The Open Source CFD Toolbox
   \\    /   O peration     | Website:  https://openfoam.org
    \\  /    A nd           | Version:  6
     \\/     M anipulation  |
\*---------------------------------------------------------------------------*/
FoamFile
{
    version     2.0;
    format      ascii;
    class       volScalarField;
    location    "40899.9999993453021";
    object      epsilon;
}
// * * * * * * * * * * * * * * * * * * * * * * * * * * * * * * * * * * * * * //

dimensions      [0 2 -3 0 0 0 0];

internalField   nonuniform List<scalar> 
778
(
0.000253146
0.000306392
0.000303042
0.000344219
0.000385079
0.000424873
0.000464295
0.000504536
0.000547331
0.000595399
0.000643789
0.000692128
0.00074207
0.000798415
0.000860189
8.94029e-05
0.000262802
0.000269184
0.00025008
0.000220193
0.00018412
0.000152342
0.000126532
0.000105929
8.94722e-05
7.63222e-05
6.56664e-05
5.68654e-05
4.93942e-05
4.27812e-05
3.65275e-05
3.18227e-05
2.36033e-05
0.000797073
0.00144336
0.000287012
0.000259593
0.000261682
0.000267642
0.000276525
0.000289939
0.000310172
0.00034035
0.000379537
0.000430637
0.000499023
0.000600257
0.000785464
0.00112918
0.000978593
0.000858374
0.00051249
0.000369846
0.000294504
0.000243089
0.000204182
0.000186967
0.000154695
0.00012498
0.000100676
8.14758e-05
6.65195e-05
5.48204e-05
4.56328e-05
3.87111e-05
3.45238e-05
3.27713e-05
6.58261e-05
4.81179e-05
0.00163081
0.00407971
0.000407458
0.000242927
0.000229092
0.000230997
0.000238205
0.000250464
0.000268354
0.000292607
0.000324719
0.000366783
0.000421192
0.000494957
0.000601434
0.000724756
0.000829751
0.00158445
0.00102792
0.000512618
0.000367986
0.000294508
0.000262277
0.000552067
0.00036297
0.000250909
0.000181393
0.000136299
0.000105908
8.47687e-05
6.98162e-05
5.94637e-05
4.51423e-05
3.79948e-05
0.000108239
7.08808e-05
0.00285392
0.00877203
0.000710082
0.000240733
0.000202468
0.000199995
0.000203161
0.000209779
0.000220586
0.000237491
0.000263172
0.000299922
0.000349166
0.000412361
0.000488123
0.000560357
0.00061236
0.000824057
0.00156425
0.000729128
0.0004599
0.000358351
0.000301936
0.000291821
0.000814444
0.000613
0.000482159
0.000388642
0.000319189
0.000264347
0.00021877
0.000179027
0.000141864
8.38642e-05
5.49417e-05
0.000148748
9.46922e-05
0.00454672
0.0158304
0.00134687
0.000258378
0.000175727
0.000166775
0.000165778
0.000167749
0.000173906
0.000187403
0.000211641
0.000248329
0.000297777
0.000359384
0.000427911
0.000489324
0.00052859
0.000582337
0.000627113
0.00048302
0.00039338
0.000330965
0.000282263
0.000248617
0.000247843
0.000226784
0.000202926
0.000181009
0.000162612
0.00014645
0.000131796
0.000118229
0.000105099
8.45394e-05
6.42674e-05
0.000105337
0.00013898
0.000160542
0.000367651
0.000327048
0.00676476
0.0248825
0.00255458
0.000318165
0.000155542
0.000137055
0.000132112
0.000130676
0.000134443
0.000148532
0.000176681
0.000218064
0.000270834
0.000334239
0.000401908
0.000462836
0.000503092
0.000521651
0.000504636
0.000438122
0.000373728
0.000315593
0.000264717
0.000223385
0.000193301
0.000169639
0.00015081
0.000135603
0.000123256
0.000112703
0.000103254
9.45102e-05
8.60877e-05
7.5929e-05
6.53932e-05
7.76787e-05
9.99133e-05
0.000209761
0.00106618
0.000560789
0.00967385
0.0336408
0.00458579
0.000465225
0.000150871
0.000116343
0.000107081
0.000103272
0.000107066
0.000127896
0.000166102
0.00021589
0.000273391
0.000340303
0.000409663
0.000470807
0.000510441
0.000520574
0.000494325
0.000437606
0.00037183
0.000307484
0.000250558
0.000204447
0.000169753
0.000144556
0.000126316
0.000112719
0.000102254
9.36791e-05
8.61918e-05
7.93306e-05
7.28031e-05
6.61421e-05
6.03233e-05
6.38345e-05
7.69505e-05
0.000174399
0.00160386
0.000914976
0.0127611
0.0404082
0.00749281
0.000871976
0.00019441
0.000115414
9.73948e-05
9.14543e-05
9.86544e-05
0.000137673
0.000189238
0.000246268
0.000307216
0.000374233
0.000445401
0.000508733
0.000547938
0.000551282
0.00051589
0.000451681
0.000375625
0.000301059
0.000236548
0.000185997
0.000149324
0.000123978
0.000106699
9.45567e-05
8.57166e-05
7.87779e-05
7.28714e-05
6.75189e-05
6.24749e-05
5.76586e-05
5.39077e-05
5.59171e-05
7.1061e-05
0.000350268
0.00531564
0.00202513
0.0138288
0.0414554
0.0139362
0.00316667
0.00063111
0.000208325
0.000132788
0.000116035
0.000142492
0.000192882
0.00024922
0.000306456
0.000367668
0.000437353
0.000512106
0.000576796
0.000611741
0.000603688
0.000552488
0.000471238
0.000378757
0.000291146
0.000218415
0.000164106
0.000126813
0.000102621
8.72871e-05
7.7344e-05
7.06538e-05
6.56438e-05
6.14333e-05
5.75914e-05
5.39443e-05
5.05502e-05
4.82632e-05
5.28261e-05
0.000104546
0.00104753
0.0131983
0.0030758
0.0130045
0.0283637
0.0144165
0.00572963
0.00210662
0.00083593
0.000414373
0.000277208
0.000279229
0.000314648
0.000356088
0.000401889
0.000459211
0.000532091
0.000611531
0.000675422
0.000699681
0.00067119
0.000594216
0.000487133
0.000373141
0.000271135
0.000191455
0.000135937
0.000100773
7.99352e-05
6.80052e-05
6.12178e-05
5.71173e-05
5.41472e-05
5.15674e-05
4.90762e-05
4.66099e-05
4.43718e-05
4.37337e-05
5.71398e-05
0.00027735
0.00363085
0.010034
0.0031656
0.0106876
0.0193502
0.0120376
0.00630183
0.0031763
0.00167613
0.000987713
0.000679672
0.000560444
0.000517548
0.000510586
0.000531935
0.000584865
0.000664653
0.000749592
0.000806726
0.000808168
0.00074448
0.000628445
0.000486721
0.000348367
0.000234262
0.000152949
0.000102052
7.3724e-05
5.89262e-05
5.14704e-05
4.801e-05
4.61886e-05
4.48459e-05
4.35117e-05
4.20353e-05
4.04833e-05
3.92857e-05
4.0792e-05
6.92723e-05
0.000607999
0.00349353
0.0076153
0.00303747
0.00806894
0.0137645
0.00968994
0.00593334
0.00357025
0.00222808
0.00149133
0.00109359
0.00086969
0.000743842
0.000686324
0.000691188
0.000752617
0.000847542
0.000934761
0.000969766
0.000926199
0.000805505
0.000635357
0.000453209
0.000294165
0.000178221
0.000107352
6.97117e-05
5.26711e-05
4.45299e-05
4.06957e-05
3.9253e-05
3.86448e-05
3.8182e-05
3.75991e-05
3.68667e-05
3.62413e-05
3.65112e-05
4.08539e-05
7.39695e-05
0.000492312
0.00275487
0.00697683
0.00297871
0.00612116
0.0101655
0.00778913
0.00531189
0.0035701
0.00246929
0.00178826
0.00136852
0.00109322
0.000926435
0.000860158
0.000888727
0.000986033
0.00110085
0.00117143
0.00114986
0.00102541
0.000821139
0.000587109
0.000370167
0.000209293
0.000115067
7.22168e-05
5.22937e-05
4.29311e-05
3.82737e-05
3.59747e-05
3.50679e-05
3.4724e-05
3.45099e-05
3.43408e-05
3.44393e-05
3.5469e-05
3.89772e-05
4.96111e-05
9.16591e-05
0.000401363
0.0021779
0.00543647
0.00359928
0.00618582
0.00780872
0.00680271
0.00473849
0.00336502
0.00246212
0.00186577
0.00146233
0.00119471
0.00106524
0.00107223
0.00118378
0.00133353
0.00144006
0.00143707
0.00129645
0.00104725
0.000741321
0.000458057
0.000239186
0.00013108
8.12513e-05
5.9299e-05
4.87413e-05
4.30286e-05
3.95979e-05
3.74366e-05
3.61227e-05
3.54656e-05
3.51787e-05
3.54757e-05
3.73208e-05
4.30506e-05
5.78151e-05
9.29066e-05
0.000177123
0.000466007
0.00204943
0.00428429
0.00381309
0.0045479
0.00511468
0.00418532
0.00336169
0.0026394
0.00206964
0.00164847
0.00136136
0.0012449
0.00130195
0.00148172
0.00169144
0.00182701
0.00181355
0.00162864
0.00129325
0.000904075
0.000519419
0.000278021
0.000153463
9.9636e-05
7.65639e-05
6.54357e-05
5.89235e-05
5.4499e-05
5.11878e-05
4.85225e-05
4.63014e-05
4.48454e-05
4.45083e-05
4.59588e-05
5.20205e-05
6.9616e-05
0.000113233
0.000208755
0.000403309
0.000833655
0.00212684
0.00455083
0.0036249
0.00139989
0.00142979
0.00143109
0.00135113
0.00130831
0.00142114
0.00170759
0.00204584
0.00231055
0.00240698
0.00228558
0.00196508
0.0015142
0.000971532
0.000561674
0.000307725
0.00018275
0.00012997
0.000108409
9.80701e-05
9.18886e-05
8.76334e-05
8.45542e-05
8.2202e-05
8.01067e-05
7.78238e-05
7.53161e-05
7.50417e-05
7.81182e-05
8.92495e-05
0.000120176
0.000195656
0.000361384
0.00069645
0.00134718
0.00253273
0.00435452
0.00312152
0.00118813
0.00171132
0.00194689
0.00230179
0.00274977
0.00315585
0.00333924
0.00330767
0.00308312
0.00268671
0.00211357
0.00148988
0.000955701
0.000557912
0.000329097
0.000222409
0.000180326
0.000164
0.000156503
0.00015225
0.000149863
0.000149147
0.000150072
0.000152353
0.000155256
0.000157585
0.000157998
0.00015625
0.000159363
0.000171886
0.000205807
0.000286479
0.00046225
0.000821109
0.0015273
0.00284828
0.00495988
0.00295353
0.00742313
0.00812442
0.00481758
0.00339603
0.00372349
0.0041326
0.00414423
0.00393441
0.00358125
0.00312881
0.00261895
0.00206978
0.00151498
0.00102515
0.000664393
0.000450419
0.000351807
0.000314008
0.000299905
0.000292911
0.000287635
0.000283041
0.000279703
0.000278686
0.000281055
0.000287555
0.000298282
0.000312261
0.000327109
0.000339422
0.00034879
0.000372006
0.000417463
0.000503656
0.000671305
0.000999325
0.00164934
0.00298136
0.00502044
0.004052
0.00650382
0.00514386
0.00435906
0.00461272
0.00452874
0.00426006
0.0036798
0.00303466
0.002451
0.00196027
0.00155776
0.00122832
0.000962382
0.000762232
0.000629052
0.000555669
0.000522302
0.000509925
0.000506919
0.000507455
0.000509075
0.000511445
0.000515679
0.000523898
0.00053888
0.000563725
0.000601445
0.000654303
0.000722779
0.000804268
0.000891523
0.000974913
0.00107049
0.00120471
0.00142286
0.00179695
0.00246
0.0039173
0.00496485
0.00484586
0.00535508
0.00337247
0.00332352
0.00362505
0.00388962
0.00356004
0.00296444
0.00235116
0.00181913
0.0013849
0.00104017
0.00077808
0.000595859
0.000486681
0.000435129
0.00041858
0.000420013
0.000429395
0.000441785
0.000455126
0.000469064
0.000484503
0.000503449
0.000528955
0.000565041
0.000616388
0.000687558
0.000781683
0.00089928
0.00103825
0.00119578
0.00137206
0.0015712
0.00179528
0.00205867
0.00237951
0.00276856
0.00324949
0.00386061
0.00364986
)
;

boundaryField
{
    floor
    {
        Cmu             0.09;
        kappa           0.41;
        E               9.8;
        type            epsilonWallFunction;
        value           nonuniform List<scalar> 
36
(
0.000860189
8.94029e-05
0.000262802
0.000269184
0.00025008
0.000220193
0.00018412
0.000152342
0.000126532
0.000105929
8.94722e-05
7.63222e-05
6.56664e-05
5.68654e-05
4.93942e-05
4.27812e-05
3.65275e-05
3.18227e-05
2.36033e-05
2.36033e-05
4.81179e-05
7.08808e-05
9.46922e-05
0.000160542
0.000367651
0.000327048
0.000860189
0.00112918
0.000978593
0.000858374
8.94029e-05
0.000858374
0.00051249
0.00158445
0.00102792
0.00156425
)
;
    }
    ceiling
    {
        Cmu             0.09;
        kappa           0.41;
        E               9.8;
        type            epsilonWallFunction;
        value           nonuniform List<scalar> 
43
(
0.00535508
0.00337247
0.00332352
0.00362505
0.00388962
0.00356004
0.00296444
0.00235116
0.00181913
0.0013849
0.00104017
0.00077808
0.000595859
0.000486681
0.000435129
0.00041858
0.000420013
0.000429395
0.000441785
0.000455126
0.000469064
0.000484503
0.000503449
0.000528955
0.000565041
0.000616388
0.000687558
0.000781683
0.00089928
0.00103825
0.00119578
0.00137206
0.0015712
0.00179528
0.00205867
0.00237951
0.00276856
0.00324949
0.00386061
0.00364986
0.0045479
0.00511468
0.00118813
)
;
    }
    sWall
    {
        Cmu             0.09;
        kappa           0.41;
        E               9.8;
        type            epsilonWallFunction;
        value           nonuniform List<scalar> 9(0.0130045 0.0106876 0.00806894 0.00612116 0.00618582 0.0045479 0.00742313 0.00650382 0.00535508);
    }
    nWall
    {
        Cmu             0.09;
        kappa           0.41;
        E               9.8;
        type            epsilonWallFunction;
        value           nonuniform List<scalar> 
14
(
0.000327048
0.000560789
0.000914976
0.0031656
0.00303747
0.00297871
0.00359928
0.00381309
0.0036249
0.00312152
0.00295353
0.004052
0.00484586
0.00364986
)
;
    }
    sideWalls
    {
        type            empty;
    }
    glass1
    {
        Cmu             0.09;
        kappa           0.41;
        E               9.8;
        type            epsilonWallFunction;
        value           nonuniform List<scalar> 9(0.000253146 0.000797073 0.00163081 0.00285392 0.00454672 0.00676476 0.00967385 0.0127611 0.0138288);
    }
    glass2
    {
        Cmu             0.09;
        kappa           0.41;
        E               9.8;
        type            epsilonWallFunction;
        value           nonuniform List<scalar> 2(0.00202513 0.0030758);
    }
    sun
    {
        Cmu             0.09;
        kappa           0.41;
        E               9.8;
        type            epsilonWallFunction;
        value           nonuniform List<scalar> 
14
(
0.000253146
0.000306392
0.000303042
0.000344219
0.000385079
0.000424873
0.000464295
0.000504536
0.000547331
0.000595399
0.000643789
0.000692128
0.00074207
0.000798415
)
;
    }
    Table_master
    {
        Cmu             0.09;
        kappa           0.41;
        E               9.8;
        type            epsilonWallFunction;
        value           nonuniform List<scalar> 9(0.000552067 0.00036297 0.000250909 0.000181393 0.000136299 0.000105908 8.47687e-05 6.98162e-05 5.94637e-05);
    }
    Table_slave
    {
        Cmu             0.09;
        kappa           0.41;
        E               9.8;
        type            epsilonWallFunction;
        value           nonuniform List<scalar> 9(0.000814444 0.000613 0.000482159 0.000388642 0.000319189 0.000264347 0.00021877 0.000179027 0.000141864);
    }
    inlet
    {
        type            turbulentMixingLengthDissipationRateInlet;
        mixingLength    0.01;
        phi             phi;
        k               k;
        value           uniform 0.000471671;
    }
    outlet
    {
        type            zeroGradient;
    }
}


// ************************************************************************* //
