/*--------------------------------*- C++ -*----------------------------------*\
  =========                 |
  \\      /  F ield         | OpenFOAM: The Open Source CFD Toolbox
   \\    /   O peration     | Website:  https://openfoam.org
    \\  /    A nd           | Version:  6
     \\/     M anipulation  |
\*---------------------------------------------------------------------------*/
FoamFile
{
    version     2.0;
    format      ascii;
    class       volScalarField;
    location    "9400";
    object      epsilon;
}
// * * * * * * * * * * * * * * * * * * * * * * * * * * * * * * * * * * * * * //

dimensions      [0 2 -3 0 0 0 0];

internalField   nonuniform List<scalar> 
662
(
0.000348557
0.000439153
0.00046243
0.000530814
0.000600332
0.000671546
0.000747413
0.000832835
0.000925722
0.00101821
0.00109602
0.0011277
0.00106652
0.000874434
0.000471598
4.24317e-05
6.86926e-05
9.95673e-05
0.000110867
0.000104378
8.49337e-05
6.66984e-05
5.2827e-05
4.25131e-05
3.47387e-05
2.87886e-05
2.41817e-05
2.05389e-05
1.75641e-05
1.50298e-05
1.2757e-05
1.16292e-05
9.10545e-06
0.000888278
0.00144328
0.000397231
0.000379996
0.000390861
0.000407697
0.000433665
0.000476594
0.000540046
0.000620951
0.000705162
0.000761533
0.000752881
0.000674857
0.000576032
0.000824986
0.000460265
0.000248415
4.20581e-05
8.42271e-05
0.000101462
0.000100798
9.53873e-05
9.45457e-05
7.37333e-05
5.56751e-05
4.23093e-05
3.25831e-05
2.54809e-05
2.02535e-05
1.63553e-05
1.34578e-05
1.16178e-05
1.08895e-05
3.3176e-05
2.14094e-05
0.00170199
0.0039886
0.000501828
0.000327546
0.000320721
0.000330775
0.000351244
0.000389372
0.000451314
0.000535861
0.00063104
0.000713378
0.000737785
0.000676983
0.000554546
0.000459919
0.000393522
0.00042481
0.000164118
0.000158178
0.000139697
0.000121831
0.000111376
0.000210804
0.000140414
9.57159e-05
6.74871e-05
4.92868e-05
3.72218e-05
2.90135e-05
2.33332e-05
1.94536e-05
1.51421e-05
1.34788e-05
7.23084e-05
3.58436e-05
0.00293969
0.00872917
0.000929041
0.000318305
0.000277473
0.00028005
0.000293719
0.000329962
0.000399125
0.000487889
0.000586238
0.000690135
0.000737957
0.000677433
0.000563296
0.000464088
0.000408029
0.000433095
0.000668855
0.00042472
0.00027355
0.000196232
0.00015252
0.000132102
0.000301308
0.000228613
0.000186181
0.000158425
0.000137392
0.000118778
0.000102783
8.76122e-05
7.19896e-05
4.41109e-05
2.89142e-05
0.000131092
5.4584e-05
0.00466583
0.0138526
0.00220465
0.000458793
0.000297077
0.000271882
0.00027391
0.000323608
0.000423633
0.00051697
0.000610575
0.000729512
0.000777876
0.000697817
0.000558942
0.000431354
0.000347047
0.000324236
0.000324719
0.000272768
0.000225402
0.000187703
0.000155756
0.000129136
0.000119254
0.000108648
0.000101087
9.46191e-05
8.7709e-05
7.95805e-05
7.10512e-05
6.27593e-05
5.50587e-05
4.4982e-05
3.57789e-05
8.25362e-05
0.000132571
0.000132619
0.000153519
0.000195954
0.0073057
0.0213867
0.00583303
0.00152203
0.000733977
0.000484856
0.000401079
0.000459096
0.000569342
0.000638356
0.00071636
0.000832147
0.000871405
0.000747505
0.000558835
0.000389866
0.000283505
0.000245315
0.000237959
0.000230152
0.000212411
0.000185948
0.000156222
0.000128817
0.000111098
0.000103578
0.000101397
0.000100117
9.73691e-05
9.15347e-05
8.13986e-05
6.99299e-05
5.91498e-05
4.94933e-05
4.35508e-05
5.92324e-05
9.97954e-05
0.000118015
0.000221372
0.000219111
0.0121405
0.0152521
0.0110515
0.00570529
0.00283349
0.00153194
0.00100882
0.000870977
0.000865548
0.000839674
0.000860894
0.000971887
0.00102253
0.000812779
0.000559891
0.000353101
0.000238397
0.000206141
0.000210325
0.000211551
0.000197675
0.000172979
0.000145934
0.000123452
0.000111162
0.000109552
0.000113609
0.000119253
0.000124417
0.000127085
0.000124033
0.000111394
9.80495e-05
8.67929e-05
8.22983e-05
9.22578e-05
0.000125946
0.000180809
0.000348916
0.000360026
0.00595982
0.00862391
0.00751902
0.00630099
0.00493614
0.00352587
0.0024546
0.00177733
0.00134475
0.00113293
0.00115364
0.00127522
0.00115866
0.000838987
0.000515762
0.000291177
0.000196284
0.000181913
0.000186859
0.000183828
0.000168314
0.000147193
0.000128243
0.000116379
0.000113708
0.000119155
0.000129988
0.000144689
0.000163104
0.000185383
0.000211046
0.000235728
0.000250421
0.000279117
0.000337046
0.000484317
0.000794988
0.00133557
0.00457884
0.00126356
0.000886148
0.00295525
0.00315164
0.00279691
0.00227318
0.00180003
0.00150856
0.001498
0.00165885
0.00166003
0.00116003
0.000722967
0.000359017
0.000215697
0.000169441
0.000159749
0.000156673
0.000148546
0.000135235
0.000121662
0.000112363
0.000109556
0.000113408
0.00012302
0.000137748
0.000158068
0.000185576
0.00022284
0.000273401
0.00034159
0.000434327
0.00056415
0.00075459
0.00101184
0.00131198
0.00160039
0.00184253
0.00103976
0.00134749
0.00128469
0.00178551
0.00202842
0.0020607
0.00207413
0.00220875
0.00234265
0.0021944
0.00166998
0.000779779
0.000441265
0.000260108
0.000188539
0.000162591
0.000152589
0.000145449
0.00013671
0.000126894
0.000118471
0.000113557
0.000112912
0.000116403
0.000123752
0.000135019
0.000150874
0.000172737
0.000203025
0.000245672
0.000306604
0.000392692
0.000511963
0.000672109
0.000867812
0.00107204
0.00124199
0.00118246
0.000588713
0.00690351
0.00733104
0.00177754
0.00209409
0.00261412
0.00289746
0.00306522
0.00307853
0.00280114
0.00225736
0.00153678
0.000801064
0.000307607
0.00024329
0.000211144
0.000198349
0.000192415
0.000186882
0.000179379
0.000169926
0.000159649
0.000150079
0.00014274
0.000138301
0.000137114
0.000139595
0.000146403
0.000158514
0.000177329
0.000204895
0.000244272
0.000299591
0.000376236
0.000480163
0.000614605
0.000774023
0.000951577
0.00127559
0.000656265
0.0006552
0.00315533
0.00357898
0.0034166
0.00423083
0.00447283
0.00408888
0.00335433
0.00241918
0.0015244
0.000889184
0.000503472
0.000332821
0.000224443
0.000207411
0.000191935
0.000177961
0.000165132
0.000152485
0.000140311
0.000129903
0.00012262
0.00011906
0.000118756
0.000121471
0.000127051
0.000135545
0.000147235
0.000162677
0.000182837
0.000209416
0.00024382
0.000287534
0.000342777
0.000412079
0.000497811
0.000603177
0.000668816
0.000501196
0.000410257
0.00059702
0.0127095
0.0161412
0.00823929
0.00403075
0.00203849
0.00119632
0.000894023
0.000871516
0.000855986
0.000839122
0.000909836
0.00102592
0.00930022
0.00831172
0.00687286
0.0056562
0.00420532
0.00293567
0.00208008
0.00153358
0.00120966
0.00111691
0.0012182
0.00129075
0.00247674
0.0031556
0.00301449
0.00253921
0.00202169
0.0016236
0.00146734
0.00157627
0.00169786
0.00154409
0.000974623
0.00156408
0.00194065
0.00206066
0.00205635
0.00212673
0.00229499
0.00231678
0.00197069
0.00136204
0.0206436
0.00411291
0.00179783
0.00242565
0.0027642
0.00299379
0.00309978
0.00297929
0.00255031
0.00193031
0.00114803
0.000546317
0.00858031
0.0033915
0.0038057
0.00446199
0.00433441
0.00375646
0.00289967
0.00194825
0.00117141
0.000668499
0.000393578
0.000295227
0.0137923
0.0112218
0.00954864
0.00708275
0.00467651
0.00288288
0.00186042
0.00137343
0.00112775
0.000987531
0.000989296
0.00110594
0.00702119
0.00928426
0.00762104
0.00547247
0.00437383
0.00338133
0.00251778
0.0018794
0.00144711
0.00128145
0.00137035
0.00147042
0.00175465
0.00162911
0.0021808
0.00225536
0.00204948
0.00179965
0.00171493
0.00187031
0.00198632
0.00176345
0.000659644
0.00144497
0.00193966
0.0022307
0.00244045
0.00265511
0.00277446
0.00256939
0.00206192
0.00131326
0.00709733
0.00550361
0.00249865
0.00297202
0.00345903
0.00351594
0.00332501
0.00287669
0.00221439
0.00156203
0.000928716
0.00045191
0.00542536
0.00411773
0.00490651
0.00549
0.0053618
0.004607
0.00350101
0.00234052
0.00142471
0.000826666
0.00046718
0.000366059
0.0118296
0.0109558
0.00832788
0.005843
0.00367472
0.0022836
0.00157046
0.00123423
0.00104408
0.000967728
0.00104344
0.0011471
0.00743537
0.00971799
0.00627533
0.0048923
0.00386981
0.00292462
0.00217095
0.00163473
0.00132707
0.00130411
0.00143975
0.00143081
0.00121979
0.0019694
0.00226848
0.00217173
0.00191706
0.00172193
0.00177416
0.00195715
0.00192333
0.00152665
0.000866571
0.00173779
0.0020991
0.00234072
0.00254455
0.00275293
0.00270938
0.00235568
0.00170084
0.000962627
0.0166982
0.00372283
0.00260877
0.00330643
0.00351826
0.0034495
0.00313479
0.00255945
0.00188029
0.00124461
0.000652778
0.000344303
0.00380874
0.00455294
0.00522692
0.00552702
0.00504342
0.00408144
0.00290623
0.00184028
0.00109185
0.000617842
0.000382758
0.000393637
)
;

boundaryField
{
    floor
    {
        Cmu             0.09;
        kappa           0.41;
        E               9.8;
        type            epsilonWallFunction;
        value           nonuniform List<scalar> 
36
(
0.000471598
4.24317e-05
6.86926e-05
9.95673e-05
0.000110867
0.000104378
8.49337e-05
6.66984e-05
5.2827e-05
4.25131e-05
3.47387e-05
2.87886e-05
2.41817e-05
2.05389e-05
1.75641e-05
1.50298e-05
1.2757e-05
1.16292e-05
9.10545e-06
9.10545e-06
2.14094e-05
3.58436e-05
5.4584e-05
0.000132619
0.000153519
0.000195954
0.000471598
0.000824986
0.000460265
0.000248415
4.24317e-05
0.000248415
4.20581e-05
0.00042481
0.000164118
0.000668855
)
;
    }
    ceiling
    {
        Cmu             0.09;
        kappa           0.41;
        E               9.8;
        type            epsilonWallFunction;
        value           nonuniform List<scalar> 
58
(
0.00380874
0.00455294
0.00522692
0.00552702
0.00504342
0.00408144
0.00290623
0.00184028
0.00109185
0.000617842
0.000382758
0.000393637
0.000224443
0.000207411
0.000191935
0.000177961
0.000165132
0.000152485
0.000140311
0.000129903
0.00012262
0.00011906
0.000118756
0.000121471
0.000127051
0.000135545
0.000147235
0.000162677
0.000182837
0.000209416
0.00024382
0.000287534
0.000342777
0.000412079
0.000497811
0.000603177
0.000668816
0.000501196
0.000410257
0.00059702
0.00743537
0.00971799
0.000659644
0.00315533
0.00411773
0.00490651
0.00549
0.0053618
0.004607
0.00350101
0.00234052
0.00142471
0.000826666
0.00046718
0.000366059
0.00595982
0.00928426
0.00134749
)
;
    }
    sWall
    {
        Cmu             0.09;
        kappa           0.41;
        E               9.8;
        type            epsilonWallFunction;
        value           nonuniform List<scalar> 4(0.00709733 0.00542536 0.00690351 0.00315533);
    }
    nWall
    {
        Cmu             0.09;
        kappa           0.41;
        E               9.8;
        type            epsilonWallFunction;
        value           nonuniform List<scalar> 6(0.000195954 0.000219111 0.000360026 0.000588713 0.0006552 0.00059702);
    }
    sideWalls
    {
        type            empty;
    }
    glass1
    {
        Cmu             0.09;
        kappa           0.41;
        E               9.8;
        type            epsilonWallFunction;
        value           nonuniform List<scalar> 10(0.000348557 0.000888278 0.00170199 0.00293969 0.00466583 0.0073057 0.0137923 0.00702119 0.0121405 0.00595982);
    }
    glass2
    {
        Cmu             0.09;
        kappa           0.41;
        E               9.8;
        type            epsilonWallFunction;
        value           nonuniform List<scalar> 2(0.00126356 0.00103976);
    }
    sun
    {
        Cmu             0.09;
        kappa           0.41;
        E               9.8;
        type            epsilonWallFunction;
        value           nonuniform List<scalar> 
14
(
0.000348557
0.000439153
0.00046243
0.000530814
0.000600332
0.000671546
0.000747413
0.000832835
0.000925722
0.00101821
0.00109602
0.0011277
0.00106652
0.000874434
)
;
    }
    Table_master
    {
        Cmu             0.09;
        kappa           0.41;
        E               9.8;
        type            epsilonWallFunction;
        value           nonuniform List<scalar> 9(0.000210804 0.000140414 9.57159e-05 6.74871e-05 4.92868e-05 3.72218e-05 2.90135e-05 2.33332e-05 1.94536e-05);
    }
    Table_slave
    {
        Cmu             0.09;
        kappa           0.41;
        E               9.8;
        type            epsilonWallFunction;
        value           nonuniform List<scalar> 9(0.000301308 0.000228613 0.000186181 0.000158425 0.000137392 0.000118778 0.000102783 8.76122e-05 7.19896e-05);
    }
    inlet
    {
        type            turbulentMixingLengthDissipationRateInlet;
        mixingLength    0.01;
        phi             phi;
        k               k;
        value           uniform 0.000471671;
    }
    outlet
    {
        type            zeroGradient;
    }
}


// ************************************************************************* //
