/*--------------------------------*- C++ -*----------------------------------*\
  =========                 |
  \\      /  F ield         | OpenFOAM: The Open Source CFD Toolbox
   \\    /   O peration     | Website:  https://openfoam.org
    \\  /    A nd           | Version:  6
     \\/     M anipulation  |
\*---------------------------------------------------------------------------*/
FoamFile
{
    version     2.0;
    format      ascii;
    class       surfaceScalarField;
    location    "9400";
    object      phi;
}
// * * * * * * * * * * * * * * * * * * * * * * * * * * * * * * * * * * * * * //

dimensions      [1 0 -1 0 0 0 0];

internalField   nonuniform List<scalar> 
1482
(
-0.00279972
0.00286376
-0.0034839
0.000684181
-0.00414462
0.000660717
-0.00475873
0.000614107
-0.00528008
0.000521354
-0.00569191
0.000411824
-0.00598296
0.000291051
-0.00614018
0.000157221
-0.00614626
6.07943e-06
-0.00597525
-0.00017101
-0.00559726
-0.000377991
-0.00498132
-0.000615936
-0.00405732
-0.000924005
-0.00257904
-0.00147827
-0.00257612
-6.34883e-05
6.83428e-05
0.000780383
-0.000843872
0.00143287
-0.000652483
0.00183209
-0.000399222
0.0020535
-0.000221414
0.00215782
-0.000104318
0.00220531
-4.74925e-05
0.00222832
-2.3008e-05
0.00223818
-9.85947e-06
0.00223908
-9.03128e-07
0.00223197
7.11441e-06
0.0022129
1.90723e-05
0.00216859
4.43067e-05
0.00206585
0.000102739
0.00184926
0.00021659
0.00149203
0.00035723
0.00102112
0.000470916
0.00102755
-0.00204032
0.00507441
-0.00290839
0.00155225
-0.00369425
0.00144657
-0.00434532
0.00126517
-0.00488258
0.00105861
-0.00531128
0.000840528
-0.00562962
0.000609393
-0.0058308
0.000358393
-0.00590414
7.94193e-05
-0.00584185
-0.000233293
-0.00563818
-0.000581667
-0.00528182
-0.000972289
-0.00477164
-0.00143419
-0.0042856
-0.00196431
-0.00470108
-0.00216064
-0.00311526
-0.00158037
-0.00163273
-0.00147684
-0.00161788
0.00131844
-0.00123989
0.00166287
-0.0011883
0.00191422
-0.000903841
0.00210489
-0.000589884
0.00221173
-0.000328262
0.00222044
-0.000113025
0.00222241
-4.94598e-05
0.00222407
-2.46679e-05
0.00222509
-1.08834e-05
0.00222515
-9.57544e-07
0.0022238
8.46483e-06
0.00221958
2.32841e-05
0.00220693
5.69632e-05
0.00214497
0.000164702
0.00189518
0.000466373
0.00146573
0.000786681
0.000902769
0.00103388
0.00194721
-0.00148819
0.00682052
-0.00235899
0.00242306
-0.00312896
0.00221654
-0.00371319
0.0018494
-0.00418384
0.00152926
-0.00455522
0.00121191
-0.00482913
0.000883297
-0.0050023
0.000531569
-0.00506836
0.000145474
-0.00501824
-0.000283405
-0.00484126
-0.00075865
-0.00453001
-0.00128353
-0.00411535
-0.00184886
-0.00371791
-0.00236174
-0.00329766
-0.00258089
-0.00236673
-0.0025113
-0.00127341
-0.00257016
-0.00287846
0.00115035
-0.00237578
0.00165394
-0.00169188
0.00195216
-0.00120206
0.00214457
-0.000782303
0.00217393
-0.000357613
0.00206105
0.00201175
0.00198723
0.00197651
0.0019757
0.00198432
0.00200776
0.00206488
0.00222973
0.00187069
0.000825415
0.00142229
0.00123508
0.000803405
0.00165276
0.00277665
-0.00110598
0.00825771
-0.00192778
0.00324486
-0.00256975
0.00285851
-0.00303005
0.0023097
-0.00339755
0.00189677
-0.00368629
0.00150065
-0.00389923
0.00109624
-0.00403452
0.000666861
-0.00408464
0.000195586
-0.00403639
-0.00033165
-0.00387754
-0.0009175
-0.003604
-0.00155707
-0.00323841
-0.00221445
-0.00281658
-0.00278357
-0.00227735
-0.00312012
-0.00155792
-0.00323073
-0.000869796
-0.00325828
-0.000689383
-0.00305887
0.00144665
-0.00212058
0.00137722
-0.00230636
0.00169224
-0.0020069
0.00200452
-0.00151435
0.00227067
-0.00104845
0.00254691
-0.000633848
0.00286019
-0.000313432
0.00302719
-0.000167157
0.00309217
-6.51318e-05
0.00307557
1.64421e-05
0.00298608
8.93344e-05
0.00282454
0.00016139
0.00258294
0.000241449
0.00223819
0.000344595
0.00173294
0.00050509
0.00159589
0.000962468
0.00126753
0.00156344
0.000740616
0.00217967
0.00355157
-0.000803673
0.00945457
-0.00157969
0.00402088
-0.00204822
0.00332704
-0.00236384
0.00262532
-0.00260817
0.00214109
-0.00279368
0.00168616
-0.00292535
0.00122792
-0.0030039
0.000745405
-0.00302273
0.000214417
-0.00296521
-0.000389171
-0.00281809
-0.00106462
-0.00257445
-0.00180071
-0.00224087
-0.00254802
-0.00182454
-0.0031999
-0.00131933
-0.00362533
-0.000742933
-0.00380713
-0.000211727
-0.00378949
0.000265627
-0.00353622
0.00112626
-0.00298121
0.00149124
-0.00267134
0.00174938
-0.00226503
0.00200135
-0.00176632
0.00223097
-0.00127807
0.0024451
-0.000847978
0.00264611
-0.00051444
0.0027564
-0.000277445
0.00279316
-0.00010189
0.00276803
4.15678e-05
0.00268732
0.000170039
0.0025534
0.000295314
0.0023649
0.000429953
0.00211926
0.000590233
0.00182444
0.000799907
0.00161772
0.00116919
0.00147507
0.00170609
0.00129427
0.00236048
0.00228154
0.00256431
0.00132981
0.000986644
0.00191536
-0.000557067
0.00203385
-0.000575745
0.0104767
-0.00132451
0.00476964
-0.00158392
0.00358645
-0.00174972
0.00279112
-0.00186368
0.00225505
-0.00193521
0.00175769
-0.00197076
0.00126347
-0.00197458
0.00074923
-0.00194348
0.00018332
-0.00185564
-0.000477015
-0.0017012
-0.00121905
-0.00147019
-0.00203172
-0.00116553
-0.00285269
-0.000793124
-0.00357231
-0.000373211
-0.00404525
6.71706e-05
-0.00424751
0.000472367
-0.00419468
0.000846598
-0.00391046
0.00129705
-0.00343166
0.00159503
-0.00296932
0.00179751
-0.00246751
0.00196836
-0.00193717
0.00211966
-0.00142938
0.00225402
-0.000982339
0.00235897
-0.000619387
0.00241753
-0.000336009
0.00242937
-0.000113725
0.00239963
7.13038e-05
0.00233301
0.000236662
0.00223313
0.00039519
0.00210381
0.00055927
0.0019518
0.000742247
0.00179124
0.000960466
0.00169825
0.00126218
0.00175215
0.0016522
0.00195971
0.00215292
0.00220086
0.00232316
0.0017204
0.00146711
0.000795748
0.000367582
0.00292693
-0.00054334
0.0115123
-0.00124337
0.00546967
-0.00119139
0.00353447
-0.00119962
0.00279935
-0.00119197
0.0022474
-0.00115861
0.00172434
-0.00110169
0.00120654
-0.0010269
0.000674437
-0.000928859
8.52786e-05
-0.000780221
-0.000625653
-0.000591136
-0.00140814
-0.00035095
-0.00227191
-6.67723e-05
-0.00313687
0.000238617
-0.0038777
0.00054912
-0.00435575
0.000844626
-0.00454302
0.00110769
-0.00445775
0.00134083
-0.0041436
0.00157202
-0.00366285
0.00173083
-0.00312813
0.00182982
-0.0025665
0.00189906
-0.00200641
0.00195432
-0.00148464
0.00200078
-0.00102879
0.00203318
-0.000651785
0.00204582
-0.000348655
0.0020353
-0.000103203
0.00200229
0.000104313
0.00194973
0.000289221
0.00188117
0.000463753
0.00180145
0.000638989
0.0017186
0.000825093
0.00164701
0.00103206
0.00162926
0.00127992
0.00170989
0.00157157
0.00191165
0.00195116
0.00216001
0.00207479
0.00218561
0.00144151
0.00162827
0.000924926
0.00465762
-0.00048353
0.0125313
-0.00105127
0.00603741
-0.000696841
0.00318004
-0.000635861
0.00273837
-0.000567491
0.00217903
-0.000462973
0.00161982
-0.000334271
0.00107784
-0.000183538
0.000523704
5.22453e-06
-0.000103484
0.000222967
-0.000843395
0.000462501
-0.00164767
0.000720432
-0.00252984
0.00097802
-0.00339446
0.00120756
-0.00410725
0.00140785
-0.00455604
0.0015698
-0.00470498
0.00168801
-0.00457596
0.00176718
-0.00422277
0.00181978
-0.00371546
0.00182908
-0.00313743
0.00180346
-0.00254087
0.00176201
-0.00196497
0.00171973
-0.00144235
0.00168414
-0.000993208
0.00165535
-0.000622988
0.00162953
-0.000322839
0.00160193
-7.55974e-05
0.00157027
0.000135966
0.00153469
0.000324806
0.00149628
0.000502158
0.00145782
0.000677449
0.00142484
0.000858074
0.00140712
0.00104979
0.00142638
0.00126066
0.0015086
0.00148935
0.00170229
0.00175747
0.00197285
0.00180423
0.00212841
0.00128595
0.00173369
0.00131965
0.00675552
0.00297829
0.0101402
0.00202275
0.00699296
0.000869361
0.00433343
0.000371075
0.00323666
0.000214307
0.0023358
0.000270623
0.0015635
0.000424194
0.000924271
0.000637572
0.000310325
0.00089633
-0.000362242
0.00116064
-0.0011077
0.00143895
-0.00192598
0.00170629
-0.00279718
0.00193323
-0.00362141
0.0020953
-0.00426933
0.00218635
-0.0046471
0.0022088
-0.00472744
0.00217134
-0.0045385
0.00208759
-0.00413903
0.00197281
-0.00360068
0.00183271
-0.00299733
0.00167957
-0.00238773
0.00153033
-0.00181573
0.00139973
-0.00131175
0.00129611
-0.000889593
0.00122097
-0.000547842
0.00116975
-0.000271626
0.00113538
-4.12276e-05
0.0011126
0.000158748
0.00109786
0.000339548
0.0010888
0.000511221
0.00108512
0.000681131
0.00108882
0.000854375
0.00110414
0.00103446
0.00113996
0.00122484
0.00120672
0.00142259
0.00133621
0.00162797
0.00152006
0.00162038
0.00158396
0.00122208
0.000257533
0.00264611
0.00739593
0.00403184
0.00624858
0.00366796
0.00735684
0.00254226
0.00545913
0.00188894
0.00388998
0.00153243
0.00269232
0.00138759
0.00170835
0.0014212
0.000890658
0.00159516
0.000136364
0.00184662
-0.000613708
0.00212322
-0.0013843
0.00240276
-0.00220552
0.0026481
-0.00304251
0.00281752
-0.00379083
0.00288385
-0.00433566
0.00284359
-0.00460684
0.00271036
-0.00459422
0.00250636
-0.00433451
0.00225584
-0.00388851
0.00198158
-0.00332643
0.00170073
-0.00271648
0.00143052
-0.00211753
0.00118879
-0.00157399
0.0009904
-0.00111336
0.000841869
-0.000741061
0.00074261
-0.000448583
0.000684275
-0.000213291
0.000656249
-1.32014e-05
0.000649782
0.000165215
0.000657888
0.000331442
0.00067572
0.000493389
0.000700837
0.000656014
0.000732229
0.000822984
0.000768604
0.000998086
0.000806419
0.00118702
0.000828328
0.00140068
0.00077156
0.00168474
0.000290127
0.00210182
-0.0015854
0.00309795
-0.00309065
0.00415159
0.00440825
0.00240923
0.00400388
0.00330419
0.00646188
0.00324821
0.00551511
0.00303754
0.00410065
0.00284661
0.00288324
0.00272331
0.00183165
0.0027092
0.000904767
0.00279772
4.78425e-05
0.00295903
-0.000775018
0.00316913
-0.0015944
0.00338646
-0.00242285
0.00355111
-0.00320716
0.00360825
-0.00384797
0.00353105
-0.00425846
0.00332479
-0.00440058
0.00301549
-0.00428493
0.00263751
-0.00395653
0.00222422
-0.00347523
0.00180518
-0.0029074
0.00140387
-0.00231517
0.00104176
-0.00175542
0.000738068
-0.0012703
0.00050697
-0.000882267
0.000347498
-0.000581589
0.00025196
-0.000353045
0.000204701
-0.000166032
0.000192268
-7.68677e-07
0.00020415
0.000153333
0.000232292
0.000303299
0.000271821
0.000453861
0.000319846
0.000607989
0.000374137
0.000768693
0.000431189
0.000941034
0.000485089
0.00113312
0.000515455
0.00137031
0.000463578
0.0017366
0.000187255
0.00237808
-0.000275282
0.00356065
-0.000559255
0.00443583
0.00396225
0.00145591
0.00274223
0.00274708
0.00517071
0.00343159
0.0048306
0.00371824
0.003814
0.00381717
0.00278432
0.0038454
0.00180342
0.00388122
0.000868944
0.00394975
-2.06866e-05
0.00405898
-0.000884251
0.00419837
-0.00173379
0.00431682
-0.00254129
0.00434372
-0.00323406
0.00422742
-0.00373166
0.00395557
-0.00398662
0.00355063
-0.00399564
0.00305243
-0.00378673
0.00250492
-0.00340902
0.0019468
-0.00291711
0.00141209
-0.00237269
0.000926966
-0.00183005
0.000518038
-0.0013465
0.000202775
-0.000955032
-1.25585e-05
-0.000666934
-0.000142993
-0.000451156
-0.000211833
-0.000284205
-0.000239323
-0.000138544
-0.00023722
-2.87207e-06
-0.000213138
0.00012925
-0.000172366
0.000262527
-0.000118558
0.000400053
-5.45547e-05
0.000543985
1.71205e-05
0.000697018
9.36352e-05
0.00086452
0.000172947
0.00105381
0.000244479
0.00129878
0.000243024
0.001738
0.000182373
0.00243846
0.000505376
0.00323738
0.000722192
0.00421891
0.00480399
0.00216694
0.000801246
0.00293966
0.00439799
0.00359224
0.00417802
0.00416408
0.00324216
0.00449293
0.00245546
0.00466775
0.00162861
0.0047844
0.000752291
0.00488818
-0.000124467
0.00499314
-0.000989209
0.00506994
-0.00181058
0.00505333
-0.00252467
0.00488315
-0.00306387
0.00453678
-0.00338528
0.00403313
-0.00348296
0.00341735
-0.00337986
0.00274054
-0.00310992
0.0020515
-0.00271998
0.0013882
-0.00225382
0.000789304
-0.0017738
0.00027967
-0.00132042
-0.000104835
-0.00096199
-0.000360127
-0.00069974
-0.00051261
-0.000514451
-0.000597206
-0.000366561
-0.00064074
-0.000240673
-0.000654361
-0.000124924
-0.000643973
-1.32617e-05
-0.000613335
9.86121e-05
-0.000565323
0.000214514
-0.000503138
0.000337868
-0.000430646
0.000471493
-0.000352613
0.000618986
-0.000274416
0.000786324
-0.000205643
0.000985044
-0.000176544
0.00126967
-0.000245009
0.00180633
-0.000300366
0.00249336
0.000131883
0.00280446
0.000420248
0.00392999
0.0053569
-0.00157558
0.00262194
0.00111825
0.00170417
0.00335041
0.00194586
0.00435461
0.00223796
0.00486015
0.00194993
0.00517545
0.0013133
0.00540296
0.000524779
0.0055791
-0.000300606
0.00567634
-0.00108644
0.00563315
-0.00176738
0.00539869
-0.00229019
0.00496107
-0.00262624
0.00434816
-0.00277235
0.00361326
-0.00274805
0.00281723
-0.00258382
0.00201085
-0.00230353
0.00124288
-0.00195201
0.000544213
-0.00155515
-3.88706e-05
-0.00119071
-0.000466532
-0.000892752
-0.000737732
-0.000690785
-0.000898573
-0.000538898
-0.000995246
-0.000417781
-0.00105063
-0.000311186
-0.00107795
-0.000213351
-0.00108227
-0.000120616
-0.00106573
-2.98027e-05
-0.00102971
6.2593e-05
-0.000975952
0.000160758
-0.000907834
0.000269751
-0.000831102
0.000394761
-0.000754947
0.000542831
-0.000695136
0.00072652
-0.000682845
0.000972783
-0.000768399
0.0013553
-0.000982225
0.00202023
-0.00138383
0.00289482
-0.0020612
0.00348141
-0.00208063
0.00394892
0.00342524
0.00288367
0.00457265
0.00487275
0.00164576
0.00536113
0.00174958
0.00559938
0.00171167
0.00583084
0.00108183
0.00601638
0.000339238
0.00608028
-0.000364517
0.00595193
-0.000958079
0.00559789
-0.00141331
0.00503049
-0.00172277
0.00429671
-0.00189243
0.00345523
-0.00193085
0.00256605
-0.00185885
0.00168559
-0.00170334
0.00084851
-0.00146644
9.79262e-05
-0.00120142
-0.000509038
-0.000948177
-0.00093518
-0.000764559
-0.00120065
-0.000627268
-0.0013656
-0.00052583
-0.00146732
-0.000437188
-0.00153182
-0.000353284
-0.0015705
-0.000272528
-0.00158794
-0.000195922
-0.00158537
-0.000123205
-0.00156297
-5.21973e-05
-0.00152134
2.09551e-05
-0.00146158
0.000101
-0.00138605
0.000194225
-0.0013004
0.000309108
-0.00121439
0.000456821
-0.001144
0.000656128
-0.00111554
0.00094437
-0.00115856
0.0013985
-0.00127058
0.00213261
-0.00157924
0.00320391
-0.00252334
0.00442584
-0.00285173
0.0042776
0.000738481
0.00793709
0.00535759
0.00581937
0.00386726
0.00557108
0.00195988
0.00564091
0.00101191
0.00560366
0.000376421
0.00535908
-0.000119956
0.00489442
-0.000493421
0.00424931
-0.000768185
0.00347732
-0.000950752
0.00263232
-0.00104741
0.00175702
-0.00105554
0.000891547
-0.000993356
7.36643e-05
-0.000885445
-0.000635568
-0.0007572
-0.00118057
-0.000656392
-0.00155531
-0.000573407
-0.00180265
-0.000517192
-0.0019604
-0.000469507
-0.00206712
-0.000419113
-0.00214294
-0.000361393
-0.00219699
-0.000299268
-0.00223236
-0.000237208
-0.0022498
-0.000178514
-0.00224894
-0.000124087
-0.00222881
-7.23359e-05
-0.00218881
-1.90273e-05
-0.00212788
4.00808e-05
-0.00204419
0.000110552
-0.0019373
0.000202216
-0.00180911
0.000328599
-0.00166466
0.000511614
-0.00150893
0.000788609
-0.00133264
0.00122229
-0.00109422
0.00189451
-0.00072874
0.00283895
-0.00026564
0.00396321
0.000231929
0.0037805
0.00114206
0.0041111
0.00149307
0.00451078
0.00346753
0.00373737
0.00273321
0.00323407
0.00151513
0.00288947
0.000720983
0.00252374
0.000245757
0.00207558
-4.52598e-05
0.00153131
-0.000223901
0.000910568
-0.000330003
0.000232898
-0.000369728
-0.000459437
-0.000363189
-0.00110359
-0.000349187
-0.00164728
-0.000341728
-0.00205906
-0.000345376
-0.00235138
-0.000364029
-0.00254582
-0.000378922
-0.00268244
-0.000380539
-0.00278885
-0.00036309
-0.00287881
-0.000329182
-0.0029554
-0.00028487
-0.00301788
-0.000236883
-0.00306488
-0.000190294
-0.00309559
-0.000147881
-0.00310931
-0.000110396
-0.00310451
-7.71123e-05
-0.00307699
-4.6495e-05
-0.0030212
-1.56418e-05
-0.00293054
1.99448e-05
-0.00279565
6.73368e-05
-0.00260779
0.000140695
-0.00236025
0.000263944
-0.00204337
0.000471559
-0.00162444
0.000803198
-0.00103008
0.00130011
-0.000194583
0.00200366
0.000788343
0.00298059
0.00135575
0.00321348
0.00267486
-0.0026049
-0.00676495
-0.00740492
-0.00745895
-0.0037479
-0.00216388
-0.00167149
0.00139109
-0.000757858
0.00181952
-0.000557843
0.00131507
-0.000636485
0.000799592
-0.00082331
0.000432556
-0.001067
0.000198411
-0.00135958
6.86621e-05
-0.00170396
1.43533e-05
-0.00207623
2.54084e-06
-0.00244246
3.04277e-06
-0.00277672
-1.489e-05
-0.0030454
-7.29926e-05
-0.00322737
-0.000163338
-0.00334624
-0.000245085
-0.00343595
-0.000289153
-0.00352225
-0.00029423
-0.00361376
-0.000271622
-0.00370923
-0.000233803
-0.00380355
-0.000190684
-0.00389091
-0.000149668
-0.00396583
-0.00011551
-0.00402376
-9.00361e-05
-0.00406166
-7.25191e-05
-0.00407756
-6.11618e-05
-0.00406922
-5.4727e-05
-0.00403084
-5.3867e-05
-0.00395106
-5.96656e-05
-0.00381272
-7.08742e-05
-0.00359434
-7.7632e-05
-0.00327518
-5.5261e-05
-0.00283881
3.50011e-05
-0.00225786
0.000221961
-0.00145739
0.000499298
-0.00036389
0.000909903
0.000911965
0.0017047
0.001341
0.00278452
0.0041983
-0.00735106
0.00103957
-0.00811852
-0.00669148
-0.00717205
-0.00311034
-0.00565261
-0.000128364
-0.00455982
0.000726686
-0.0039673
0.000722492
-0.00370668
0.000538904
-0.00363847
0.000364282
-0.00367942
0.000239308
-0.0037738
0.000163001
-0.0038795
0.000120042
-0.00396773
9.07934e-05
-0.00402379
5.91536e-05
-0.00405482
1.62046e-05
-0.00408186
-4.58505e-05
-0.0041242
-0.000120904
-0.00418997
-0.000179245
-0.00427629
-0.000202814
-0.00437422
-0.000196336
-0.00447362
-0.00017233
-0.00456639
-0.000141183
-0.00464749
-0.000109776
-0.00471442
-8.29134e-05
-0.00476623
-6.38527e-05
-0.00480248
-5.38755e-05
-0.0048229
-5.21025e-05
-0.00482725
-5.67376e-05
-0.00481432
-6.75021e-05
-0.00478095
-8.70052e-05
-0.00471995
-0.00012038
-0.00461993
-0.000170578
-0.00446468
-0.000232575
-0.00423283
-0.000286866
-0.00389876
-0.000298939
-0.00344117
-0.000235716
-0.00282263
-0.000119564
-0.00181781
-9.53978e-05
-2.28667e-05
-9.06928e-05
0.000989958
0.00177151
0.00537627
0.00158115
-0.00504589
-0.00809339
-0.00816266
-0.00738194
-0.00661311
-0.00603444
-0.00563503
-0.00536353
-0.00516993
-0.00501989
-0.00489897
-0.00480907
-0.00476136
-0.00477526
-0.0048642
-0.00501173
-0.0051832
-0.00534851
-0.00549004
-0.00560052
-0.0056796
-0.00573181
-0.00576496
-0.00578821
-0.00580992
-0.00583666
-0.00587479
-0.00593326
-0.00602618
-0.0061706
-0.00637853
-0.00664242
-0.00692004
-0.00713595
-0.00723697
-0.0073148
-0.0073887
-0.00560103
)
;

boundaryField
{
    floor
    {
        type            calculated;
        value           nonuniform List<scalar> 
36
(
0
0
0
0
0
0
0
0
0
0
0
0
0
0
0
0
0
0
0
-6.43927e-06
-1.68852e-05
-2.6033e-05
-3.43099e-05
-3.49119e-05
-2.84865e-05
-2.85433e-05
-2.92039e-06
-5.44239e-06
-5.68874e-06
-5.90894e-06
-4.8541e-06
-8.94019e-06
-1.02108e-05
-1.28343e-05
-1.4456e-05
-1.5445e-05
)
;
    }
    ceiling
    {
        type            calculated;
        value           nonuniform List<scalar> 
43
(
-5.77954e-05
-6.4449e-05
-6.28822e-05
-5.91541e-05
-5.41298e-05
-4.64357e-05
-3.98714e-05
-3.52217e-05
-3.2272e-05
-3.06382e-05
-2.99894e-05
-3.00862e-05
-3.06791e-05
-3.14072e-05
-3.18513e-05
-3.18881e-05
-3.16689e-05
-3.1365e-05
-3.11014e-05
-3.09334e-05
-3.08603e-05
-3.08486e-05
-3.08484e-05
-3.08039e-05
-3.06601e-05
-3.03675e-05
-2.98878e-05
-2.91972e-05
-2.82856e-05
-2.71533e-05
-2.58143e-05
-2.43105e-05
-2.27305e-05
-2.12076e-05
-1.9872e-05
-1.87838e-05
-1.79079e-05
-1.71566e-05
-1.64826e-05
-1.68228e-05
1.93404e-05
1.51854e-05
-0.000246577
)
;
    }
    sWall
    {
        type            calculated;
        value           nonuniform List<scalar> 9(-0.000140239 -0.000164525 -0.000194253 -0.000225959 -0.000245124 -0.000281063 -0.000423557 -0.000453435 -0.00048377);
    }
    nWall
    {
        type            calculated;
        value           nonuniform List<scalar> 
14
(
-8.99525e-05
-9.73458e-05
-0.000102423
-0.000103017
-0.000113243
-0.000119726
-0.000133083
-0.000149238
-0.000164741
-0.000171067
-0.000176775
-0.000182387
-0.000188118
-0.000208131
)
;
    }
    sideWalls
    {
        type            empty;
        value           nonuniform 0();
    }
    glass1
    {
        type            calculated;
        value           nonuniform List<scalar> 9(-6.40345e-05 -0.000170322 -0.000257925 -0.000331211 -0.000393196 -0.000446402 -0.000492214 -0.000535494 -0.000587175);
    }
    glass2
    {
        type            calculated;
        value           nonuniform List<scalar> 2(-0.000364248 -0.000382977);
    }
    sun
    {
        type            calculated;
        value           uniform 0;
    }
    Table_master
    {
        type            calculated;
        value           nonuniform List<scalar> 9(-1.53993e-07 -1.5411e-07 -1.54142e-07 -1.54162e-07 -1.54175e-07 -1.5418e-07 -1.54178e-07 -1.54164e-07 -1.54111e-07);
    }
    Table_slave
    {
        type            calculated;
        value           nonuniform List<scalar> 9(1.53662e-07 1.53719e-07 1.53718e-07 1.53735e-07 1.53755e-07 1.53799e-07 1.53866e-07 1.53959e-07 1.54087e-07);
    }
    inlet
    {
        type            calculated;
        value           uniform -0.0116489;
    }
    outlet
    {
        type            calculated;
        value           nonuniform List<scalar> 2(0.00979346 0.012259);
    }
}


// ************************************************************************* //
