/*--------------------------------*- C++ -*----------------------------------*\
  =========                 |
  \\      /  F ield         | OpenFOAM: The Open Source CFD Toolbox
   \\    /   O peration     | Website:  https://openfoam.org
    \\  /    A nd           | Version:  6
     \\/     M anipulation  |
\*---------------------------------------------------------------------------*/
FoamFile
{
    version     2.0;
    format      ascii;
    class       volVectorField;
    location    "9400";
    object      U;
}
// * * * * * * * * * * * * * * * * * * * * * * * * * * * * * * * * * * * * * //

dimensions      [0 1 -1 0 0 0 0];

internalField   nonuniform List<vector> 
778
(
(0.0656023 0.0794074 0)
(-0.155173 0.0157659 0)
(-0.164301 0.0146263 0)
(-0.19242 0.0122758 0)
(-0.216858 0.00872404 0)
(-0.236918 0.00474096 0)
(-0.252041 0.000411679 0)
(-0.261805 -0.00437584 0)
(-0.265695 -0.0098197 0)
(-0.262708 -0.0162 0)
(-0.250894 -0.0242724 0)
(-0.226188 -0.034888 0)
(-0.186068 -0.0504038 0)
(-0.144147 -0.0751654 0)
(-0.150048 -0.108545 0)
(0.0546654 0.0354304 0)
(0.0157831 -0.0268582 0)
(0.0449616 -0.0232468 0)
(0.0693445 -0.0161439 0)
(0.0843813 -0.010341 0)
(0.0915737 -0.00641256 0)
(0.0944062 -0.00434026 0)
(0.0954487 -0.00331771 0)
(0.0959111 -0.00272895 0)
(0.096085 -0.00231442 0)
(0.0959588 -0.00194936 0)
(0.0954298 -0.00150926 0)
(0.0941707 -0.000756481 0)
(0.0913241 0.000846194 0)
(0.0851212 0.00406755 0)
(0.0735852 0.0077691 0)
(0.0599445 0.011603 0)
(-0.00797334 0.0299838 0)
(0.258404 0.167391 0)
(-0.161232 0.0483914 0)
(-0.141602 0.0459835 0)
(-0.174009 0.041618 0)
(-0.199374 0.0356692 0)
(-0.220096 0.0291269 0)
(-0.236123 0.0220511 0)
(-0.24737 0.0142164 0)
(-0.253537 0.0052803 0)
(-0.253843 -0.00517145 0)
(-0.247679 -0.0171003 0)
(-0.233965 -0.0308628 0)
(-0.214054 -0.0480796 0)
(-0.197474 -0.0699534 0)
(-0.193952 -0.0826316 0)
(-0.16634 -0.0425598 0)
(-0.105301 -0.0363766 0)
(-0.0983302 -0.0444545 0)
(0.109353 -0.0421075 0)
(0.0644982 -0.0411534 0)
(0.0719332 -0.0322416 0)
(0.0858962 -0.0206822 0)
(0.0937755 -0.0104357 0)
(0.0959934 -0.00363058 0)
(0.0957477 -0.000206315 0)
(0.0953607 0.00123641 0)
(0.095327 0.00188958 0)
(0.09541 0.00226875 0)
(0.0954183 0.00259325 0)
(0.0953185 0.00313487 0)
(0.0950273 0.00441368 0)
(0.0937697 0.00772665 0)
(0.08817 0.016759 0)
(0.0744072 0.0253323 0)
(0.063097 0.0329267 0)
(-0.0520941 0.0635798 0)
(0.429988 0.253951 0)
(-0.194232 0.0847578 0)
(-0.112774 0.0784366 0)
(-0.148242 0.06696 0)
(-0.170675 0.0555013 0)
(-0.18877 0.043723 0)
(-0.202605 0.0313327 0)
(-0.212293 0.0179886 0)
(-0.217637 0.00337404 0)
(-0.217984 -0.0126598 0)
(-0.212718 -0.0303511 0)
(-0.201604 -0.0499299 0)
(-0.185959 -0.0715801 0)
(-0.16942 -0.0932116 0)
(-0.151049 -0.104554 0)
(-0.120216 -0.0931286 0)
(-0.0795377 -0.0949176 0)
(-0.0714916 -0.107542 0)
(0.0921112 -0.0882094 0)
(0.0625715 -0.0657502 0)
(0.0743761 -0.0460921 0)
(0.0880042 -0.029193 0)
(0.0948336 -0.014846 0)
(0.0919122 -0.0119568 0)
(0.0876793 -0.00793055 0)
(0.0853129 -0.00578692 0)
(0.0846106 -0.00457001 0)
(0.0845787 -0.00380473 0)
(0.0848333 -0.00322816 0)
(0.0854884 -0.00259885 0)
(0.0872524 -0.00143944 0)
(0.0919388 0.0029188 0)
(0.0900851 0.025112 0)
(0.0732519 0.0423581 0)
(0.070053 0.0574138 0)
(-0.0902867 0.10088 0)
(0.578563 0.325835 0)
(-0.240104 0.121806 0)
(-0.0808268 0.109227 0)
(-0.121569 0.089859 0)
(-0.139003 0.0740719 0)
(-0.153065 0.0586321 0)
(-0.163824 0.04274 0)
(-0.171417 0.0257857 0)
(-0.175622 0.00716492 0)
(-0.175679 -0.0135695 0)
(-0.170981 -0.0365063 0)
(-0.161405 -0.0614818 0)
(-0.147531 -0.0873819 0)
(-0.13055 -0.110293 0)
(-0.109591 -0.123182 0)
(-0.0821138 -0.124514 0)
(-0.0525013 -0.126333 0)
(-0.0333575 -0.123128 0)
(0.0163865 -0.056793 0)
(0.0608437 -0.0930539 0)
(0.0684709 -0.0791759 0)
(0.0790811 -0.0587811 0)
(0.0915723 -0.0395207 0)
(0.102912 -0.0208557 0)
(0.115655 -0.0131394 0)
(0.126792 -0.00877615 0)
(0.132375 -0.00558828 0)
(0.133357 -0.00309668 0)
(0.130845 -0.000881027 0)
(0.125396 0.00128672 0)
(0.116876 0.00367182 0)
(0.104512 0.00673473 0)
(0.0852315 0.0111753 0)
(0.0713414 0.0368774 0)
(0.0600053 0.060587 0)
(0.0761908 0.0832926 0)
(-0.11835 0.137003 0)
(0.705752 0.383672 0)
(-0.287685 0.156998 0)
(-0.0476856 0.133784 0)
(-0.0962831 0.106925 0)
(-0.107733 0.0876019 0)
(-0.116769 0.0691751 0)
(-0.123561 0.0504394 0)
(-0.128223 0.0305665 0)
(-0.130581 0.00868886 0)
(-0.129769 -0.0158646 0)
(-0.12526 -0.043122 0)
(-0.116625 -0.0727163 0)
(-0.103891 -0.102835 0)
(-0.087407 -0.129073 0)
(-0.0674436 -0.145756 0)
(-0.044093 -0.152225 0)
(-0.0202263 -0.152325 0)
(0.000318815 -0.143676 0)
(0.0308392 -0.114977 0)
(0.0569914 -0.109345 0)
(0.0705481 -0.0924061 0)
(0.08067 -0.0712088 0)
(0.090723 -0.0507386 0)
(0.100276 -0.032699 0)
(0.109378 -0.0193416 0)
(0.116394 -0.00998741 0)
(0.119814 -0.00331008 0)
(0.120015 0.00192986 0)
(0.117612 0.00646646 0)
(0.112972 0.010817 0)
(0.106116 0.0154957 0)
(0.0969666 0.0212051 0)
(0.0850129 0.0292417 0)
(0.0734034 0.0472969 0)
(0.0627967 0.0713608 0)
(0.0944086 0.099396 0)
(0.0160959 0.13816 0)
(0.0955949 0.183043 0)
(0.141231 0.14407 0)
(-0.219792 0.202162 0)
(0.810472 0.431962 0)
(-0.331331 0.190663 0)
(-0.0172993 0.150248 0)
(-0.073356 0.117528 0)
(-0.0785792 0.0955231 0)
(-0.0822046 0.0749536 0)
(-0.084465 0.0543418 0)
(-0.085509 0.0327045 0)
(-0.085259 0.00882928 0)
(-0.0825862 -0.0184543 0)
(-0.0774139 -0.0490716 0)
(-0.0687742 -0.0825365 0)
(-0.0567571 -0.116518 0)
(-0.0416695 -0.146299 0)
(-0.0246452 -0.165978 0)
(-0.00623062 -0.174463 0)
(0.0121685 -0.1727 0)
(0.0280837 -0.160954 0)
(0.046233 -0.139277 0)
(0.0626559 -0.122303 0)
(0.0732957 -0.102443 0)
(0.0809469 -0.0803767 0)
(0.0876837 -0.0590225 0)
(0.0938486 -0.0401483 0)
(0.0991679 -0.0249909 0)
(0.102849 -0.013662 0)
(0.104453 -0.00500002 0)
(0.104033 0.00216351 0)
(0.101898 0.0086092 0)
(0.0982915 0.0148624 0)
(0.0933635 0.0214577 0)
(0.0873321 0.0290346 0)
(0.0804389 0.0385089 0)
(0.0746051 0.0530254 0)
(0.069172 0.0730989 0)
(0.0911226 0.0987911 0)
(0.0725942 0.107258 0)
(0.0892461 0.047055 0)
(0.146595 -0.0376819 0)
(-0.328629 0.108123 0)
(0.879959 0.47467 0)
(-0.36866 0.220941 0)
(0.00374525 0.155553 0)
(-0.0526462 0.121578 0)
(-0.05219 0.0978677 0)
(-0.0510152 0.0758378 0)
(-0.04902 0.0540533 0)
(-0.0465143 0.0315312 0)
(-0.0433413 0.00675322 0)
(-0.0373933 -0.0223336 0)
(-0.0303217 -0.0554126 0)
(-0.0205273 -0.0919836 0)
(-0.00869074 -0.128927 0)
(0.00456715 -0.161261 0)
(0.0176813 -0.181887 0)
(0.0305108 -0.190196 0)
(0.0423421 -0.187181 0)
(0.0526488 -0.174349 0)
(0.0625982 -0.153983 0)
(0.071139 -0.13232 0)
(0.0766223 -0.109292 0)
(0.0800414 -0.0857772 0)
(0.0826017 -0.063591 0)
(0.0848051 -0.0440936 0)
(0.08661 -0.028014 0)
(0.0876848 -0.0152562 0)
(0.0878115 -0.00503566 0)
(0.0868442 0.00357423 0)
(0.0849742 0.0112639 0)
(0.0823447 0.0185674 0)
(0.0791231 0.0259991 0)
(0.0755729 0.034077 0)
(0.0720685 0.0433722 0)
(0.0699415 0.0551828 0)
(0.0684847 0.0698647 0)
(0.081155 0.0890323 0)
(0.0836228 0.0919972 0)
(0.088585 0.0533448 0)
(0.18182 0.024063 0)
(-0.282879 0.155475 0)
(0.928019 0.517123 0)
(-0.383188 0.234137 0)
(0.0169316 0.132961 0)
(-0.0273051 0.116663 0)
(-0.0265271 0.0949417 0)
(-0.0227264 0.0724524 0)
(-0.0176269 0.0501242 0)
(-0.0123672 0.027261 0)
(-0.00543995 0.00187062 0)
(0.00453349 -0.0307647 0)
(0.014244 -0.0653733 0)
(0.0255532 -0.103394 0)
(0.0372288 -0.140923 0)
(0.0479569 -0.172196 0)
(0.0571057 -0.192368 0)
(0.0646439 -0.199817 0)
(0.0703921 -0.195351 0)
(0.0743491 -0.181113 0)
(0.077028 -0.159996 0)
(0.0783501 -0.135977 0)
(0.0779411 -0.110946 0)
(0.0763826 -0.0864048 0)
(0.0745079 -0.0638321 0)
(0.0728442 -0.0442352 0)
(0.0715326 -0.0280006 0)
(0.0704445 -0.0148486 0)
(0.0693924 -0.00407659 0)
(0.0680897 0.0051015 0)
(0.0666549 0.0132777 0)
(0.0650585 0.0209543 0)
(0.0633756 0.0285795 0)
(0.0617782 0.0365358 0)
(0.0605355 0.0451497 0)
(0.060451 0.0549267 0)
(0.0612355 0.0658346 0)
(0.0694111 0.0793462 0)
(0.0780182 0.0823187 0)
(0.0766975 0.0597171 0)
(0.240527 0.0506813 0)
(-0.548519 0.231497 0)
(1.01137 0.506769 0)
(-0.137217 0.296305 0)
(0.0411008 0.161487 0)
(0.0406209 0.122072 0)
(0.0131057 0.0919807 0)
(0.00868773 0.0653856 0)
(0.0141014 0.041414 0)
(0.0207115 0.0169964 0)
(0.0324953 -0.0110176 0)
(0.0439448 -0.0421673 0)
(0.0558083 -0.0769598 0)
(0.0680967 -0.114722 0)
(0.079269 -0.15121 0)
(0.0878211 -0.180675 0)
(0.0930959 -0.198675 0)
(0.0951922 -0.203792 0)
(0.0945094 -0.197083 0)
(0.0915917 -0.180983 0)
(0.0871165 -0.158541 0)
(0.0815382 -0.133077 0)
(0.0751548 -0.107018 0)
(0.0685683 -0.0821855 0)
(0.062503 -0.0599414 0)
(0.0574818 -0.0410204 0)
(0.0537025 -0.0255217 0)
(0.051075 -0.0129556 0)
(0.0493427 -0.00254264 0)
(0.0481116 0.00642214 0)
(0.047364 0.0144537 0)
(0.0468726 0.0220134 0)
(0.0465863 0.0294679 0)
(0.0465473 0.0370835 0)
(0.0468607 0.0450409 0)
(0.0478919 0.0535226 0)
(0.0494065 0.0623429 0)
(0.0542985 0.0719583 0)
(0.061003 0.0720631 0)
(0.0502949 0.042158 0)
(0.290478 0.068774 0)
(-0.782356 0.304348 0)
(0.779365 0.395633 0)
(0.000819263 0.319437 0)
(0.0933878 0.21887 0)
(0.110617 0.155128 0)
(0.077181 0.106792 0)
(0.0598059 0.0675331 0)
(0.0582239 0.0357643 0)
(0.0623828 0.0064215 0)
(0.0737908 -0.0234317 0)
(0.0853495 -0.0550633 0)
(0.0975415 -0.0898191 0)
(0.109421 -0.126383 0)
(0.118829 -0.160209 0)
(0.123982 -0.185934 0)
(0.124267 -0.199977 0)
(0.120099 -0.201509 0)
(0.112421 -0.191909 0)
(0.102302 -0.173743 0)
(0.0907838 -0.150049 0)
(0.0787068 -0.123862 0)
(0.0667628 -0.0977173 0)
(0.0556819 -0.0735259 0)
(0.0461908 -0.0525498 0)
(0.0387663 -0.0352454 0)
(0.0335253 -0.0214215 0)
(0.0302526 -0.0103097 0)
(0.0285056 -0.000993682 0)
(0.0278269 0.00717075 0)
(0.0279506 0.0146464 0)
(0.0285418 0.021823 0)
(0.0294701 0.0289648 0)
(0.0306741 0.03625 0)
(0.0320975 0.0438133 0)
(0.0337051 0.0518093 0)
(0.0347503 0.0603308 0)
(0.034858 0.0701459 0)
(0.0220646 0.0771335 0)
(0.0100904 0.100513 0)
(0.0485645 0.169056 0)
(-0.661063 0.286176 0)
(0.617281 0.220728 0)
(0.00461504 0.298053 0)
(0.113017 0.241493 0)
(0.148301 0.177492 0)
(0.130873 0.12345 0)
(0.117855 0.0777931 0)
(0.11499 0.0388704 0)
(0.117146 0.00339147 0)
(0.123492 -0.0307173 0)
(0.131704 -0.0650266 0)
(0.141388 -0.100573 0)
(0.150285 -0.135521 0)
(0.15545 -0.165459 0)
(0.154947 -0.186019 0)
(0.148453 -0.194883 0)
(0.136858 -0.192082 0)
(0.121625 -0.179378 0)
(0.104256 -0.159361 0)
(0.0861213 -0.134953 0)
(0.0683225 -0.108939 0)
(0.0518028 -0.0837974 0)
(0.0374224 -0.0613853 0)
(0.0259275 -0.0428201 0)
(0.0176124 -0.0281745 0)
(0.0123034 -0.0168906 0)
(0.00939585 -0.00783123 0)
(0.00819464 -1.73298e-05 0)
(0.00831575 0.0070885 0)
(0.00925004 0.0138604 0)
(0.0107352 0.0205639 0)
(0.0126342 0.0273563 0)
(0.0148436 0.0343623 0)
(0.0172392 0.0417405 0)
(0.0196881 0.0497965 0)
(0.0217114 0.0592376 0)
(0.0229238 0.0724397 0)
(0.00860753 0.0938906 0)
(-0.00743062 0.140328 0)
(0.15929 0.182025 0)
(-0.559225 0.182617 0)
(0.570778 0.1184 0)
(-0.0203867 0.258559 0)
(0.113696 0.229823 0)
(0.165056 0.175982 0)
(0.166739 0.126114 0)
(0.164414 0.0810552 0)
(0.165399 0.0399601 0)
(0.168294 0.00163961 0)
(0.172231 -0.0353725 0)
(0.177783 -0.071917 0)
(0.183947 -0.107651 0)
(0.187652 -0.139792 0)
(0.185876 -0.16443 0)
(0.177233 -0.178713 0)
(0.162163 -0.181834 0)
(0.142204 -0.174696 0)
(0.119292 -0.159351 0)
(0.0951821 -0.138257 0)
(0.0714693 -0.114142 0)
(0.0493641 -0.0894887 0)
(0.0300255 -0.0666883 0)
(0.0144109 -0.0474596 0)
(0.00314664 -0.0326157 0)
(-0.00413661 -0.0214192 0)
(-0.00808641 -0.0131537 0)
(-0.0100071 -0.00620224 0)
(-0.0105018 0.000142107 0)
(-0.00983302 0.00622088 0)
(-0.00839643 0.012272 0)
(-0.00633419 0.018442 0)
(-0.00377399 0.0248208 0)
(-0.000835823 0.0315187 0)
(0.00238404 0.0387721 0)
(0.00580556 0.0468169 0)
(0.00948878 0.0567544 0)
(0.0129782 0.0729766 0)
(0.00315994 0.103079 0)
(-0.0187221 0.148668 0)
(0.21455 0.185998 0)
(-0.463467 0.173727 0)
(0.628378 0.0537484 0)
(0.00898445 0.197273 0)
(0.113767 0.196863 0)
(0.175116 0.157827 0)
(0.191408 0.117597 0)
(0.198093 0.0772211 0)
(0.203427 0.0372688 0)
(0.208606 -0.00147316 0)
(0.213065 -0.03961 0)
(0.217336 -0.0765119 0)
(0.219138 -0.110017 0)
(0.215308 -0.136937 0)
(0.203948 -0.154623 0)
(0.185141 -0.162053 0)
(0.160505 -0.15978 0)
(0.13221 -0.149219 0)
(0.102508 -0.132466 0)
(0.0731132 -0.111629 0)
(0.0458062 -0.0892417 0)
(0.0217188 -0.0674525 0)
(0.00241095 -0.0486155 0)
(-0.0113272 -0.0342198 0)
(-0.0195228 -0.0244281 0)
(-0.0243206 -0.0170514 0)
(-0.0268898 -0.0109751 0)
(-0.0280371 -0.00547658 0)
(-0.0280788 -0.000225866 0)
(-0.0271402 0.00498349 0)
(-0.0254281 0.0103216 0)
(-0.0230258 0.015913 0)
(-0.0200831 0.0218488 0)
(-0.0167934 0.0282424 0)
(-0.0133877 0.035293 0)
(-0.0100117 0.0433316 0)
(-0.00698082 0.0540473 0)
(-0.00794216 0.0748517 0)
(-0.0192826 0.105305 0)
(-0.0298636 0.128736 0)
(0.198633 0.177335 0)
(-0.488863 0.216065 0)
(0.47301 0.0748617 0)
(-0.132284 0.137487 0)
(0.094229 0.133124 0)
(0.172741 0.11662 0)
(0.203894 0.0951994 0)
(0.218212 0.0643199 0)
(0.228188 0.0283938 0)
(0.237208 -0.00888373 0)
(0.243526 -0.0452118 0)
(0.244985 -0.0782074 0)
(0.238976 -0.105186 0)
(0.224134 -0.124043 0)
(0.200971 -0.133879 0)
(0.171405 -0.13512 0)
(0.138034 -0.129023 0)
(0.103171 -0.116876 0)
(0.0691555 -0.10056 0)
(0.0371833 -0.081703 0)
(0.00965077 -0.0628222 0)
(-0.0129385 -0.045675 0)
(-0.0271411 -0.0339577 0)
(-0.0359682 -0.0257034 0)
(-0.0411435 -0.0195085 0)
(-0.0442118 -0.0142823 0)
(-0.0458952 -0.00959709 0)
(-0.0465434 -0.00517691 0)
(-0.046278 -0.000853857 0)
(-0.0451119 0.00352493 0)
(-0.0431805 0.00812537 0)
(-0.0405217 0.0131226 0)
(-0.0373359 0.018677 0)
(-0.0339539 0.024997 0)
(-0.0309404 0.032446 0)
(-0.029006 0.0418809 0)
(-0.0293041 0.056557 0)
(-0.0374716 0.0832759 0)
(-0.0578731 0.11603 0)
(-0.0558312 0.136472 0)
(0.013213 0.176982 0)
(-0.533946 0.21188 0)
(0.724211 0.134547 0)
(0.0818731 0.115273 0)
(0.149775 0.0990668 0)
(0.222456 0.0802392 0)
(0.244173 0.0697108 0)
(0.249002 0.0475718 0)
(0.255264 0.0175954 0)
(0.261312 -0.0145532 0)
(0.26027 -0.0445471 0)
(0.249721 -0.0694486 0)
(0.229415 -0.0875125 0)
(0.200918 -0.0982218 0)
(0.166611 -0.101839 0)
(0.129071 -0.0993611 0)
(0.0908445 -0.0920653 0)
(0.053423 -0.0806493 0)
(0.0195862 -0.0667889 0)
(-0.0110953 -0.0515971 0)
(-0.0327685 -0.0396296 0)
(-0.0471947 -0.0310301 0)
(-0.0559245 -0.0251386 0)
(-0.0612966 -0.02046 0)
(-0.0646626 -0.0163357 0)
(-0.0667806 -0.0124518 0)
(-0.0679447 -0.00876832 0)
(-0.0682565 -0.00523789 0)
(-0.0677354 -0.00176197 0)
(-0.0663084 0.00181443 0)
(-0.0641619 0.00567483 0)
(-0.0612301 0.0100671 0)
(-0.0577025 0.0152843 0)
(-0.0539274 0.0217259 0)
(-0.05059 0.0301122 0)
(-0.0484082 0.0419914 0)
(-0.0471702 0.060918 0)
(-0.0506254 0.0924303 0)
(-0.0667679 0.134672 0)
(-0.0573753 0.167421 0)
(-0.0422618 0.162151 0)
(-0.575475 0.0833517 0)
(0.192273 0.0878363 0)
(0.226007 0.0994884 0)
(0.24675 0.0699082 0)
(0.242794 0.0397793 0)
(0.239888 0.0123118 0)
(0.234857 -0.0125762 0)
(0.22011 -0.0330375 0)
(0.196339 -0.0482444 0)
(0.165858 -0.0581435 0)
(0.131128 -0.0631692 0)
(0.0939705 -0.0636045 0)
(0.056449 -0.0602302 0)
(0.0205994 -0.0539622 0)
(-0.0141422 -0.0450062 0)
(-0.0406555 -0.0366241 0)
(-0.0603243 -0.0298351 0)
(-0.0732764 -0.025375 0)
(-0.0815367 -0.0221791 0)
(-0.0868958 -0.019483 0)
(-0.0906438 -0.0166886 0)
(-0.0933472 -0.013779 0)
(-0.0952248 -0.0108816 0)
(-0.096338 -0.00810739 0)
(-0.0966954 -0.00546435 0)
(-0.0962702 -0.00285705 0)
(-0.0949412 -0.000101973 0)
(-0.0928296 0.00299788 0)
(-0.0897705 0.00669092 0)
(-0.0856956 0.0113761 0)
(-0.0806579 0.0175979 0)
(-0.0749485 0.0262576 0)
(-0.0687366 0.0390077 0)
(-0.0605757 0.0588225 0)
(-0.0493452 0.0900787 0)
(-0.042724 0.135762 0)
(-0.0277319 0.188355 0)
(0.110485 0.180172 0)
(-0.468075 0.0302556 0)
(0.451596 0.209109 0)
(0.206841 0.17838 0)
(0.153055 0.118611 0)
(0.139848 0.0640601 0)
(0.12845 0.0260895 0)
(0.114286 0.00209395 0)
(0.0989591 -0.0125941 0)
(0.0777981 -0.0216838 0)
(0.052845 -0.0272749 0)
(0.0253083 -0.0297878 0)
(-0.00503789 -0.0291809 0)
(-0.0342983 -0.0266067 0)
(-0.0599937 -0.0234695 0)
(-0.0809851 -0.0208915 0)
(-0.0959775 -0.0197499 0)
(-0.106069 -0.0192398 0)
(-0.112784 -0.0187424 0)
(-0.117758 -0.0174708 0)
(-0.121865 -0.0153494 0)
(-0.125403 -0.012626 0)
(-0.128376 -0.0096781 0)
(-0.130717 -0.00683937 0)
(-0.132376 -0.0043344 0)
(-0.133331 -0.00225095 0)
(-0.133553 -0.00054409 0)
(-0.132938 0.000945505 0)
(-0.131187 0.0024471 0)
(-0.128174 0.00425736 0)
(-0.123449 0.00682123 0)
(-0.116629 0.0108069 0)
(-0.107479 0.0172884 0)
(-0.095632 0.0279322 0)
(-0.0794884 0.0450707 0)
(-0.056263 0.0712928 0)
(-0.0285062 0.108713 0)
(-0.00334137 0.158953 0)
(0.167958 0.157522 0)
(-0.386823 0.086429 0)
(0.361359 -0.414135 0)
(-0.345324 -0.512087 0)
(-0.218252 -0.0283735 0)
(-0.0926947 0.110661 0)
(-0.0534386 0.0925978 0)
(-0.0310976 0.054821 0)
(-0.0262752 0.0288291 0)
(-0.0313346 0.0122261 0)
(-0.0403983 0.001558 0)
(-0.0511496 -0.00537566 0)
(-0.0650696 -0.0096029 0)
(-0.0807714 -0.01198 0)
(-0.0970746 -0.0137322 0)
(-0.112484 -0.0160741 0)
(-0.12573 -0.0189424 0)
(-0.135514 -0.0219794 0)
(-0.141764 -0.0247347 0)
(-0.145945 -0.0265926 0)
(-0.149531 -0.0275634 0)
(-0.153284 -0.0278214 0)
(-0.157302 -0.0275787 0)
(-0.161402 -0.0269856 0)
(-0.165332 -0.0261216 0)
(-0.168843 -0.024992 0)
(-0.171715 -0.0235639 0)
(-0.173785 -0.0218225 0)
(-0.17496 -0.0198004 0)
(-0.175176 -0.0175506 0)
(-0.174282 -0.0150678 0)
(-0.171895 -0.0122418 0)
(-0.167418 -0.00883925 0)
(-0.159987 -0.00431376 0)
(-0.148695 0.00231879 0)
(-0.132682 0.0124536 0)
(-0.110806 0.0271138 0)
(-0.0809291 0.0462208 0)
(-0.0427419 0.0696669 0)
(-0.00242221 0.104933 0)
(0.18821 0.128484 0)
(-0.399127 0.144462 0)
(0.123977 -0.184924 0)
(-0.387434 -0.297356 0)
(-0.342779 -0.0967653 0)
(-0.264596 0.0510697 0)
(-0.210934 0.0832806 0)
(-0.178789 0.0744842 0)
(-0.16246 0.0611287 0)
(-0.156391 0.05128 0)
(-0.156396 0.0462003 0)
(-0.159634 0.0456401 0)
(-0.164211 0.0487376 0)
(-0.168541 0.0542355 0)
(-0.17175 0.0606342 0)
(-0.173674 0.0657467 0)
(-0.174842 0.0666533 0)
(-0.176219 0.0633325 0)
(-0.178477 0.0593318 0)
(-0.181791 0.0571103 0)
(-0.185836 0.0570672 0)
(-0.190148 0.0585502 0)
(-0.194317 0.0607403 0)
(-0.198061 0.0629264 0)
(-0.20123 0.0645185 0)
(-0.203767 0.0650809 0)
(-0.205653 0.0644065 0)
(-0.206875 0.062545 0)
(-0.207414 0.0596998 0)
(-0.207247 0.0560137 0)
(-0.206303 0.0513886 0)
(-0.204377 0.0454975 0)
(-0.201047 0.0380637 0)
(-0.195681 0.0291271 0)
(-0.187549 0.0193116 0)
(-0.175894 0.00970917 0)
(-0.159645 0.00111766 0)
(-0.137181 -0.00727804 0)
(-0.104859 -0.0155707 0)
(-0.0554594 -0.0113008 0)
(0.189953 0.0688946 0)
(-0.455151 0.201519 0)
(1.14742 -0.0108077 0)
(-0.295371 -0.322213 0)
(-0.352673 -0.232561 0)
(-0.35224 -0.148258 0)
(-0.328684 -0.106989 0)
(-0.297087 -0.0983264 0)
(-0.26971 -0.100334 0)
(-0.249592 -0.105718 0)
(-0.235715 -0.112888 0)
(-0.226018 -0.121913 0)
(-0.218749 -0.133368 0)
(-0.212894 -0.147647 0)
(-0.208186 -0.163926 0)
(-0.20497 -0.17939 0)
(-0.20409 -0.189652 0)
(-0.206458 -0.193355 0)
(-0.211913 -0.192702 0)
(-0.219101 -0.189718 0)
(-0.226547 -0.18602 0)
(-0.233237 -0.182465 0)
(-0.238667 -0.17931 0)
(-0.242694 -0.176471 0)
(-0.245424 -0.173717 0)
(-0.247146 -0.170782 0)
(-0.248254 -0.167429 0)
(-0.249146 -0.163479 0)
(-0.250134 -0.158834 0)
(-0.251454 -0.153474 0)
(-0.253418 -0.147418 0)
(-0.256542 -0.140628 0)
(-0.261513 -0.132821 0)
(-0.268948 -0.123183 0)
(-0.279074 -0.110141 0)
(-0.291491 -0.091519 0)
(-0.304812 -0.0654857 0)
(-0.31498 -0.0318462 0)
(-0.311378 0.00846655 0)
(-0.281141 0.057804 0)
(-0.257182 0.122314 0)
(-0.59853 0.206513 0)
)
;

boundaryField
{
    floor
    {
        type            noSlip;
    }
    ceiling
    {
        type            noSlip;
    }
    sWall
    {
        type            noSlip;
    }
    nWall
    {
        type            noSlip;
    }
    sideWalls
    {
        type            empty;
    }
    glass1
    {
        type            noSlip;
    }
    glass2
    {
        type            noSlip;
    }
    sun
    {
        type            noSlip;
    }
    Table_master
    {
        type            noSlip;
    }
    Table_slave
    {
        type            noSlip;
    }
    inlet
    {
        type            fixedValue;
        value           uniform (0.5 0 0);
    }
    outlet
    {
        type            zeroGradient;
    }
}


// ************************************************************************* //
