/*--------------------------------*- C++ -*----------------------------------*\
  =========                 |
  \\      /  F ield         | OpenFOAM: The Open Source CFD Toolbox
   \\    /   O peration     | Website:  https://openfoam.org
    \\  /    A nd           | Version:  6
     \\/     M anipulation  |
\*---------------------------------------------------------------------------*/
FoamFile
{
    version     2.0;
    format      ascii;
    class       volScalarField;
    location    "1300";
    object      alphat;
}
// * * * * * * * * * * * * * * * * * * * * * * * * * * * * * * * * * * * * * //

dimensions      [1 -1 -1 0 0 0 0];

internalField   nonuniform List<scalar> 
458
(
0.00124413
0.00135526
0.00138595
0.00145228
0.00151337
0.00157121
0.00162908
0.00168783
0.00173588
0.00176609
0.00176952
0.0017374
0.00165867
0.00149197
0.00113181
0.000559119
0.00065549
0.000743177
0.000774898
0.000762759
0.000713771
0.000659577
0.000611086
0.000569084
0.000532602
0.000500746
0.00047287
0.000448152
0.000425639
0.000404285
0.000382843
0.000370096
0.000340112
0.00167646
0.00377417
0.00348146
0.00398908
0.00449521
0.00501587
0.0054831
0.00584449
0.00621583
0.00656357
0.00684262
0.0070121
0.00702782
0.00678288
0.00551211
0.00149409
0.00123951
0.00101124
0.000554599
0.00131634
0.00191849
0.00238458
0.00253195
0.00184524
0.00155774
0.00136212
0.00121774
0.00110713
0.00101936
0.000943666
0.000872539
0.000801548
0.000738118
0.000684955
0.000837914
0.000447106
0.00203696
0.00507214
0.00418632
0.0051042
0.00548993
0.00576082
0.00596906
0.00616134
0.00642927
0.00675516
0.00711139
0.00746033
0.00773554
0.00783143
0.00737878
0.0060135
0.00455729
0.00119438
0.000854259
0.00147422
0.00214519
0.00281252
0.00300305
0.000959358
0.000839897
0.000740504
0.00066
0.000595033
0.000542385
0.000499589
0.000464979
0.000438059
0.000485433
0.000562189
0.000983165
0.000528377
0.00238378
0.00647793
0.00407212
0.00528755
0.00549852
0.00547737
0.0054578
0.00554999
0.00576807
0.00609083
0.00650091
0.00695798
0.00735775
0.00760855
0.00755119
0.00716019
0.00614511
0.00337364
0.00137593
0.00175187
0.00240821
0.00321191
0.00390863
0.00394274
0.0010805
0.000990403
0.000929032
0.000883733
0.000845435
0.000807363
0.00077122
0.000733033
0.000688403
0.000648443
0.000639026
0.00117176
0.000608552
0.00273783
0.00836871
0.00427104
0.005019
0.00532045
0.00514005
0.00499323
0.00507688
0.00530733
0.00564349
0.00608589
0.00658723
0.006979
0.0071735
0.00716801
0.00703073
0.00662536
0.0054785
0.00496516
0.00500095
0.00529203
0.00563883
0.00585154
0.00575515
0.00491
0.00447547
0.00423596
0.00406443
0.00389084
0.00366748
0.00328731
0.0027978
0.00224101
0.0017047
0.00127867
0.00119139
0.0010343
0.000813321
0.000860759
0.000935588
0.00311665
0.0104976
0.00584884
0.00464674
0.00506391
0.00505297
0.00486542
0.00493501
0.00517026
0.00550689
0.00595582
0.00643652
0.00679926
0.00691466
0.00680416
0.00664657
0.00657559
0.00648096
0.00667568
0.00701351
0.00725041
0.00729232
0.00713233
0.00679792
0.00633113
0.00595196
0.00565668
0.00539655
0.0051411
0.00486997
0.00451981
0.00403968
0.00343244
0.00274555
0.00210985
0.00153
0.00125755
0.0010969
0.00138121
0.000970514
0.00348932
0.0121021
0.00872468
0.00571059
0.00496916
0.00504013
0.00510355
0.00514039
0.00527424
0.0055715
0.00601348
0.00648999
0.00682237
0.00685869
0.0066493
0.00649789
0.00674695
0.00729965
0.00786224
0.00817956
0.00817991
0.00790734
0.00744599
0.00688455
0.00632542
0.00587544
0.00553472
0.00525839
0.00501666
0.00479966
0.00460227
0.00434414
0.0039197
0.00335253
0.00276347
0.00219747
0.00182811
0.00167468
0.00159626
0.00115312
0.00357893
0.0112148
0.00952693
0.00799835
0.00682865
0.00631042
0.00582362
0.00549392
0.0054901
0.00577421
0.0062315
0.00670198
0.00698132
0.00691628
0.00665972
0.00672338
0.0074355
0.00801978
0.0083239
0.00830962
0.00797911
0.00740776
0.00670495
0.00599619
0.00540716
0.00499436
0.00471587
0.00451589
0.00436791
0.00426814
0.00422384
0.00422592
0.00411288
0.0037758
0.00344725
0.00326422
0.00334399
0.00352998
0.00419315
0.00178525
0.00350479
0.00423034
0.00467525
0.00492478
0.00496205
0.00488877
0.0048923
0.00510061
0.00552052
0.00605428
0.00659945
0.00702803
0.0071647
0.00691738
0.00684726
0.00720841
0.00762586
0.00776877
0.00766475
0.00730191
0.00669391
0.00594316
0.0051937
0.0045786
0.00415298
0.00388192
0.00370009
0.00356188
0.00344407
0.00333346
0.00322
0.00309544
0.00298244
0.00288462
0.00281981
0.00278326
0.00271381
0.00257084
0.00239715
0.00166671
0.00157968
0.00276041
0.0037765
0.00457226
0.0053012
0.0060103
0.00657173
0.00694763
0.00719157
0.00722426
0.00698616
0.00669742
0.0066985
0.00681798
0.00672603
0.00645511
0.00602804
0.005453
0.00479178
0.0041457
0.00363136
0.00328489
0.00307247
0.00294207
0.00285545
0.00279233
0.00274396
0.00270824
0.00268815
0.0026944
0.00271012
0.00272413
0.00272483
0.0026817
0.00254872
0.00231444
0.0020242
0.00134113
0.00238084
0.00465378
0.00595176
0.00679242
0.00744597
0.00749577
0.00710382
0.00671027
0.00637239
0.00573435
0.00528111
0.00517591
0.00510453
0.00490475
0.00460368
0.00423047
0.00379291
0.00333255
0.0029174
0.00259453
0.00237182
0.00224338
0.00218317
0.00217014
0.00219132
0.00223851
0.00230454
0.00238092
0.00247037
0.00257301
0.00268285
0.00279071
0.00287843
0.00292222
0.0028813
0.00284562
0.00261998
0.00135861
0.00249159
0.00255349
0.00260943
0.00289321
0.00272897
0.00241412
0.00203344
0.00172841
0.00154186
0.00136505
0.00120955
0.00108788
0.000984898
0.000906865
0.00085264
0.000813028
0.000781171
0.000753761
0.00073113
0.000715859
0.000710161
0.000714434
0.00072712
0.000745769
0.000769334
0.000797258
0.000829385
0.000865904
0.000907416
0.000955221
0.00100962
0.0010702
0.00113727
0.00121116
0.00129189
0.00138862
0.00143093
0.00140159
0.00130365
0.00120555
)
;

boundaryField
{
    floor
    {
        type            compressible::alphatWallFunction;
        Prt             0.85;
        value           nonuniform List<scalar> 
36
(
0.000160687
7.8203e-05
9.26092e-05
0.000105494
0.000110109
0.000108346
0.000101195
9.3215e-05
8.60068e-05
7.97064e-05
7.41873e-05
6.93294e-05
6.50469e-05
6.12226e-05
5.77161e-05
5.43685e-05
5.0984e-05
4.89604e-05
4.41648e-05
4.41641e-05
6.10608e-05
7.35463e-05
8.563e-05
0.000115678
0.000122505
0.000133176
0.000160685
0.000210156
0.000175559
0.000143843
7.82021e-05
0.000143841
7.75195e-05
0.000169345
0.000121556
0.000194191
)
;
    }
    ceiling
    {
        type            compressible::alphatWallFunction;
        Prt             0.85;
        value           nonuniform List<scalar> 
43
(
0.000340273
0.000348136
0.000355227
0.000391032
0.000370438
0.000330539
0.00028153
0.000241538
0.000216702
0.000192847
0.000171577
0.000154715
0.000140271
0.00012921
0.000121457
0.000115757
0.000111149
0.000107166
0.000103864
0.000101629
0.000100794
0.000101421
0.000103278
0.000106002
0.000109431
0.00011348
0.000118116
0.00012336
0.00012929
0.00013608
0.000143757
0.000152251
0.000161591
0.000171805
0.000182887
0.000196061
0.000201791
0.000197821
0.000184496
0.000171038
0.000467121
0.000555328
0.000326053
)
;
    }
    sWall
    {
        type            compressible::alphatWallFunction;
        Prt             0.85;
        value           uniform 0.00033903;
    }
    nWall
    {
        type            compressible::alphatWallFunction;
        Prt             0.85;
        value           nonuniform List<scalar> 6(0.000132957 0.000137898 0.000163428 0.000189266 0.000191643 0.000170697);
    }
    sideWalls
    {
        type            empty;
    }
    glass1
    {
        type            compressible::alphatWallFunction;
        Prt             0.85;
        value           nonuniform List<scalar> 9(0.000171661 0.000229167 0.000275992 0.000320288 0.000364871 0.000411953 0.000457735 0.000468805 0.000459998);
    }
    glass2
    {
        type            compressible::alphatWallFunction;
        Prt             0.85;
        value           nonuniform List<scalar> 2(0.000247085 0.000231543);
    }
    sun
    {
        type            compressible::alphatWallFunction;
        Prt             0.85;
        value           nonuniform List<scalar> 
14
(
0.000176211
0.000191381
0.000195549
0.000204523
0.000212748
0.000220502
0.000228227
0.00023604
0.000242406
0.000246399
0.000246852
0.000242606
0.000232164
0.00020987
)
;
    }
    Table_master
    {
        type            compressible::alphatWallFunction;
        Prt             0.85;
        value           nonuniform List<scalar> 9(0.000136679 0.000119642 0.000105246 9.34162e-05 8.37409e-05 7.58044e-05 6.92822e-05 6.39562e-05 5.97789e-05);
    }
    Table_slave
    {
        type            compressible::alphatWallFunction;
        Prt             0.85;
        value           nonuniform List<scalar> 9(0.000153707 0.000141068 0.000132382 0.000125927 0.00012044 0.000114956 0.000109721 0.000104158 9.76115e-05);
    }
    inlet
    {
        type            fixedValue;
        value           uniform 1.94e-05;
    }
    outlet
    {
        type            zeroGradient;
    }
}


// ************************************************************************* //
