/*--------------------------------*- C++ -*----------------------------------*\
  =========                 |
  \\      /  F ield         | OpenFOAM: The Open Source CFD Toolbox
   \\    /   O peration     | Website:  https://openfoam.org
    \\  /    A nd           | Version:  6
     \\/     M anipulation  |
\*---------------------------------------------------------------------------*/
FoamFile
{
    version     2.0;
    format      ascii;
    class       volScalarField;
    location    "20600";
    object      nut;
}
// * * * * * * * * * * * * * * * * * * * * * * * * * * * * * * * * * * * * * //

dimensions      [0 2 -1 0 0 0 0];

internalField   nonuniform List<scalar> 
778
(
0.000894314
0.000953083
0.000949624
0.000990849
0.00102863
0.00106293
0.00109487
0.00112565
0.00115662
0.00118954
0.00122092
0.00125071
0.00128005
0.00131161
0.00134455
0.000632231
0.000905245
0.00091248
0.000890331
0.000853351
0.000804009
0.000754876
0.000709617
0.000668798
0.000632182
0.000599545
0.000570227
0.000543521
0.000518597
0.000494344
0.000468985
0.000447942
0.000405496
0.00131079
0.00258121
0.00226508
0.00261442
0.00286799
0.00313684
0.00340501
0.0036521
0.00385093
0.00396658
0.00403449
0.00400624
0.00380619
0.00331105
0.00241808
0.00147203
0.00140345
0.00134343
0.00113131
0.00192671
0.00267006
0.00310877
0.003129
0.00246971
0.00211217
0.00186429
0.00167624
0.00152676
0.00139929
0.00128655
0.00118161
0.00107893
0.000986791
0.000907337
0.00102233
0.000514101
0.00166404
0.00360452
0.00267233
0.0038223
0.00427112
0.00465102
0.00499605
0.00529965
0.00555674
0.00575812
0.00595317
0.0061582
0.00634638
0.00645805
0.00638301
0.00584427
0.00427463
0.00164796
0.00142701
0.00305287
0.00426027
0.004831
0.00439329
0.00115918
0.00100786
0.000891146
0.000799857
0.000727239
0.000668644
0.000620858
0.000581987
0.000551676
0.000606554
0.000713593
0.00113064
0.000584901
0.00200527
0.00485862
0.0025574
0.00429814
0.00496262
0.00531838
0.00558004
0.00577363
0.00591805
0.00603492
0.00620101
0.00648147
0.00689056
0.007405
0.00792234
0.00817744
0.00767978
0.00573315
0.00164128
0.00379822
0.0056537
0.00659707
0.00682974
0.00583053
0.00132009
0.00120065
0.00110819
0.00103128
0.000965761
0.000906942
0.000851503
0.000796446
0.000736971
0.000688543
0.000713928
0.00122478
0.00064399
0.00234201
0.00643346
0.00258044
0.00408635
0.00510795
0.00541144
0.00552188
0.00552649
0.00547187
0.00542335
0.00549282
0.00576524
0.00626504
0.00697285
0.00779408
0.00855111
0.00903144
0.00902575
0.00810019
0.00824199
0.00843223
0.00845975
0.00828805
0.00775748
0.00617343
0.00533235
0.00475623
0.00428825
0.00382919
0.00338449
0.00294945
0.00251508
0.00206903
0.00158917
0.00121246
0.0012123
0.000959051
0.000768324
0.00102292
0.000976487
0.00267366
0.00819683
0.00303825
0.00344625
0.00489456
0.00523123
0.00520473
0.00501776
0.00475023
0.00452953
0.00452459
0.00481009
0.00537955
0.00620012
0.00716068
0.00812114
0.00893837
0.00946113
0.00955678
0.00946171
0.00929492
0.00905765
0.00875195
0.00836247
0.00779396
0.00724619
0.00674886
0.00626812
0.00574894
0.00519457
0.00460261
0.00396812
0.00328718
0.0025647
0.00191014
0.00143414
0.00111382
0.00125651
0.00219587
0.00116584
0.00301224
0.00982839
0.00404936
0.00282354
0.00439833
0.00494861
0.0048878
0.00458485
0.00414526
0.00375872
0.00374787
0.00410866
0.00476062
0.00567799
0.00672144
0.00775494
0.00864485
0.00928276
0.00957681
0.00955513
0.00934637
0.00902937
0.00866585
0.00830284
0.00795154
0.00762909
0.00732609
0.00700255
0.00661159
0.00614109
0.00558431
0.00493875
0.00420698
0.00340728
0.00262459
0.00189516
0.00139545
0.00125213
0.00223887
0.00137822
0.00330362
0.0110652
0.00552219
0.00268876
0.00348455
0.00438763
0.00451349
0.00426431
0.00374514
0.00321903
0.00333881
0.00381627
0.00454574
0.00549113
0.00657519
0.00765685
0.00857961
0.00922105
0.00951292
0.00947579
0.0092059
0.00880713
0.00837775
0.00799666
0.00770276
0.00749275
0.00732886
0.00715047
0.00690191
0.00655409
0.00609358
0.00551787
0.00483257
0.00405748
0.00324974
0.00243103
0.00169227
0.00114612
0.00326905
0.00182236
0.00339333
0.0104827
0.00683795
0.00347768
0.00236193
0.00289537
0.00338915
0.00343074
0.00302964
0.00294478
0.00325092
0.00381252
0.0046018
0.00560513
0.00674185
0.00785676
0.00877556
0.00936648
0.00957403
0.00943153
0.00903969
0.00852541
0.00801481
0.00760718
0.00734838
0.00722145
0.00716397
0.00709548
0.00695242
0.00670098
0.00632793
0.00583209
0.00521986
0.00450687
0.00372189
0.00283616
0.00161682
0.0014829
0.00514108
0.0020744
0.00332457
0.00845674
0.00706649
0.0047764
0.00315272
0.00244034
0.00231167
0.00242115
0.00262472
0.00294894
0.00340887
0.00404123
0.00490053
0.00598354
0.00718301
0.00831358
0.00918322
0.00966078
0.00970921
0.00938648
0.0088197
0.0081675
0.00758497
0.00718552
0.00700247
0.0069815
0.00702171
0.00702126
0.00692866
0.00672507
0.00640437
0.00596648
0.00541476
0.00475302
0.00396314
0.00282826
0.00121293
0.00282677
0.00477659
0.00210296
0.00311421
0.00723038
0.00683515
0.00546845
0.00420647
0.00338516
0.00297914
0.00288738
0.00305564
0.00336538
0.00381517
0.00448313
0.00543336
0.00662236
0.00788383
0.00898984
0.00973697
0.0100113
0.00981126
0.00923609
0.00845733
0.00767768
0.00708431
0.00678603
0.0067521
0.00685136
0.00695129
0.00695318
0.00685541
0.00665842
0.00635875
0.00595227
0.00543199
0.00477578
0.00390072
0.00258714
0.00132144
0.00299327
0.00520955
0.0021192
0.00283587
0.0065213
0.00659591
0.0057911
0.00492445
0.00427248
0.00388868
0.00375111
0.00378555
0.0039723
0.00438505
0.00513198
0.00623233
0.00755106
0.00883973
0.00983269
0.0103378
0.0102863
0.00973696
0.00885056
0.00786498
0.00704025
0.00657106
0.00647776
0.00656345
0.00669691
0.00678318
0.00675817
0.00664395
0.00644427
0.00615351
0.00575658
0.00521917
0.00446684
0.00336625
0.0020711
0.00155194
0.00318932
0.00538423
0.00223932
0.00258648
0.00583664
0.00630143
0.00591933
0.00536218
0.0048946
0.00458368
0.00443161
0.0043858
0.00454412
0.00506792
0.00604529
0.00737895
0.0088079
0.0100117
0.0107252
0.010814
0.0102922
0.00930996
0.00811083
0.00702613
0.0063268
0.00601965
0.00599031
0.00609193
0.00621811
0.00629168
0.00626419
0.00614519
0.00594029
0.00563978
0.00520913
0.00455467
0.00352779
0.00226232
0.00160002
0.00193566
0.00369954
0.00547087
0.00229183
0.00259508
0.00579414
0.00643963
0.00599243
0.00554108
0.00517165
0.00490515
0.00473183
0.00472212
0.00510685
0.00603222
0.0074194
0.0089858
0.010366
0.0112378
0.0114147
0.0108828
0.00977282
0.0083674
0.00700375
0.00601107
0.00542792
0.00516694
0.00512667
0.00520679
0.00531348
0.00537235
0.00533956
0.00520311
0.00497521
0.00464054
0.00413603
0.00333247
0.00227512
0.00159779
0.00171918
0.00247838
0.00390254
0.00530368
0.0021526
0.00234219
0.00243615
0.00359173
0.00421824
0.00441113
0.00441305
0.0043692
0.00444743
0.00498224
0.00613078
0.00775456
0.0095128
0.011018
0.0119438
0.0120993
0.0114526
0.0101676
0.00849675
0.00690195
0.00565072
0.00481575
0.00435038
0.00415625
0.00411944
0.00414954
0.00417728
0.00415306
0.00405478
0.00386302
0.00360587
0.00328673
0.0028776
0.00233832
0.00179453
0.00162514
0.00202677
0.00287382
0.00388924
0.00443456
0.00202892
0.000806391
0.00146221
0.00225646
0.00289724
0.00363892
0.00489142
0.00673796
0.00879662
0.0106811
0.012097
0.0128378
0.0127655
0.0118836
0.0102939
0.0084064
0.00662356
0.00521353
0.00428053
0.00378198
0.00355456
0.00345648
0.00340519
0.00335242
0.00326692
0.00313492
0.00296395
0.00277724
0.00259101
0.00242178
0.0022625
0.00209726
0.00194806
0.00195729
0.00233534
0.00312232
0.00410975
0.00498313
0.0020061
0.00149738
0.00207477
0.00302854
0.00473336
0.00704927
0.00937794
0.01119
0.0125106
0.0133236
0.0135651
0.0131236
0.0118873
0.0100496
0.00797125
0.00606888
0.00465658
0.00384223
0.00346673
0.00331284
0.00324932
0.00321391
0.00317439
0.00311305
0.00302507
0.00291945
0.00281402
0.00272484
0.00265764
0.00261154
0.00258058
0.00256275
0.00257426
0.0026686
0.00296154
0.00361961
0.00482609
0.00554486
0.0021871
0.00275715
0.00668148
0.00614011
0.00547878
0.00696391
0.00929655
0.0112729
0.0126181
0.0133423
0.01354
0.013293
0.0125481
0.0112493
0.00943251
0.00736209
0.00550742
0.00427596
0.0036718
0.00343887
0.00337145
0.00336875
0.00338303
0.00338868
0.0033731
0.0033353
0.0032836
0.0032305
0.00318674
0.00315845
0.00314843
0.00315862
0.0031947
0.00326854
0.00339451
0.00361319
0.00399897
0.00469301
0.00619478
0.0063134
0.00227101
0.00263863
0.00509698
0.00656678
0.00839244
0.00932395
0.0102914
0.0108609
0.0110073
0.0108091
0.0103209
0.00955784
0.00851485
0.00722034
0.00582432
0.00458436
0.00374851
0.00331063
0.00312996
0.00309049
0.0031255
0.00319426
0.003268
0.00332705
0.00336206
0.00337384
0.00336979
0.00335849
0.00334611
0.00333758
0.00334128
0.00337332
0.00345751
0.00362102
0.00388314
0.0042653
0.00475382
0.00542487
0.00657993
0.00669
0.00234319
0.00247388
0.0021204
0.00211033
0.00217271
0.00222486
0.00216136
0.00203569
0.00188841
0.00173987
0.00159664
0.00145931
0.00132949
0.00121462
0.00112758
0.00107848
0.0010581
0.00105634
0.0010649
0.0010785
0.00109407
0.00110988
0.0011251
0.00113961
0.0011539
0.00116895
0.00118615
0.0012072
0.00123426
0.00127015
0.0013182
0.00138148
0.00146133
0.00155627
0.00166278
0.00177831
0.00190412
0.00203496
0.00217187
0.00230542
0.00217369
)
;

boundaryField
{
    floor
    {
        type            nutkWallFunction;
        Cmu             0.09;
        kappa           0.41;
        E               9.8;
        value           nonuniform List<scalar> 
36
(
0.00016054
7.63652e-05
0.000109506
0.000110367
0.00010773
0.00010331
9.73782e-05
9.14282e-05
8.59065e-05
8.08904e-05
7.63594e-05
7.22939e-05
6.86189e-05
6.52512e-05
6.20897e-05
5.89951e-05
5.57393e-05
5.30208e-05
4.74867e-05
4.74866e-05
6.15169e-05
7.04604e-05
7.78228e-05
9.30604e-05
0.000123415
0.000117945
0.00016054
0.000174968
0.000167224
0.000160412
7.63652e-05
0.000160412
0.000136051
0.000194655
0.000169887
0.000193913
)
;
    }
    ceiling
    {
        type            nutkWallFunction;
        Cmu             0.09;
        kappa           0.41;
        E               9.8;
        value           nonuniform List<scalar> 
43
(
0.00028434
0.000246404
0.000245316
0.000252064
0.000257694
0.000250864
0.000237261
0.000221197
0.000204856
0.000188956
0.000173565
0.000158866
0.00014572
0.000135655
0.000129931
0.000127541
0.000127328
0.000128325
0.000129914
0.000131734
0.000133582
0.000135358
0.000137047
0.000138706
0.000140447
0.000142427
0.000144839
0.000147927
0.000152004
0.000157441
0.00016458
0.000173561
0.000184206
0.000196097
0.000208918
0.000222778
0.000237116
0.000252019
0.000266462
0.000252216
0.000270476
0.000280518
0.000177611
)
;
    }
    sWall
    {
        type            nutkWallFunction;
        Cmu             0.09;
        kappa           0.41;
        E               9.8;
        value           nonuniform List<scalar> 9(0.000373881 0.000352058 0.00032295 0.000296618 0.000297527 0.000270566 0.000314355 0.000301877 0.000284442);
    }
    nWall
    {
        type            nutkWallFunction;
        Cmu             0.09;
        kappa           0.41;
        E               9.8;
        value           nonuniform List<scalar> 
14
(
0.000117952
0.000140059
0.000164384
0.000244634
0.000246453
0.000259481
0.000264883
0.000249771
0.000236356
0.000234192
0.000253748
0.000262722
0.000270441
0.000252254
)
;
    }
    sideWalls
    {
        type            empty;
    }
    glass1
    {
        type            nutkWallFunction;
        Cmu             0.09;
        kappa           0.41;
        E               9.8;
        value           nonuniform List<scalar> 9(0.000108248 0.000156883 0.000196737 0.00023435 0.000270794 0.000306146 0.000341765 0.000372087 0.000381377);
    }
    glass2
    {
        type            nutkWallFunction;
        Cmu             0.09;
        kappa           0.41;
        E               9.8;
        value           nonuniform List<scalar> 2(0.000214119 0.000241631);
    }
    sun
    {
        type            nutkWallFunction;
        Cmu             0.09;
        kappa           0.41;
        E               9.8;
        value           nonuniform List<scalar> 
14
(
0.000108207
0.000115183
0.000114774
0.00011964
0.000124079
0.000128094
0.000131818
0.000135396
0.000138986
0.000142789
0.000146402
0.000149823
0.000153184
0.000156788
)
;
    }
    Table_master
    {
        type            nutkWallFunction;
        Cmu             0.09;
        kappa           0.41;
        E               9.8;
        value           nonuniform List<scalar> 9(0.00013927 0.000121634 0.000107824 9.68761e-05 8.80626e-05 8.08749e-05 7.49571e-05 7.01029e-05 6.62903e-05);
    }
    Table_slave
    {
        type            nutkWallFunction;
        Cmu             0.09;
        kappa           0.41;
        E               9.8;
        value           nonuniform List<scalar> 9(0.000157743 0.000144058 0.000133359 0.000124383 0.000116675 0.000109705 0.000103087 9.64643e-05 8.92495e-05);
    }
    inlet
    {
        type            calculated;
        value           uniform 0.000167705;
    }
    outlet
    {
        type            calculated;
        value           nonuniform List<scalar> 2(0.00275715 0.00668148);
    }
}


// ************************************************************************* //
