/*--------------------------------*- C++ -*----------------------------------*\
  =========                 |
  \\      /  F ield         | OpenFOAM: The Open Source CFD Toolbox
   \\    /   O peration     | Website:  https://openfoam.org
    \\  /    A nd           | Version:  6
     \\/     M anipulation  |
\*---------------------------------------------------------------------------*/
FoamFile
{
    version     2.0;
    format      ascii;
    class       surfaceScalarField;
    location    "7900";
    object      phi;
}
// * * * * * * * * * * * * * * * * * * * * * * * * * * * * * * * * * * * * * //

dimensions      [1 0 -1 0 0 0 0];

internalField   nonuniform List<scalar> 
1256
(
-0.00301994
0.00308245
-0.00396738
0.000947438
-0.0047328
0.000765428
-0.00536279
0.000629991
-0.00583683
0.000474045
-0.00613592
0.000299095
-0.00623143
9.55115e-05
-0.00607979
-0.000151639
-0.00562432
-0.000455465
-0.00482386
-0.000800466
-0.00369829
-0.00112556
-0.00238048
-0.00131781
-0.00112419
-0.00125628
-0.000207115
-0.000917074
-0.000204748
-0.000939921
0.000943885
-0.000692548
-0.000247371
-4.60983e-05
-0.000646446
0.000555119
-0.000601214
0.00100226
-0.000447135
0.00125032
-0.000248059
0.00135524
-0.000104923
0.00140669
-5.14449e-05
0.00143635
-2.9652e-05
0.00145101
-1.46589e-05
0.00145451
-3.50149e-06
0.00144808
6.43027e-06
0.00142624
2.18503e-05
0.00137039
5.5847e-05
0.00124916
0.000121235
0.00105366
0.000195504
0.00081159
0.000242068
0.000816899
-0.00210814
0.00535914
-0.00302831
0.0018676
-0.00380951
0.00154663
-0.00441893
0.00123942
-0.00487681
0.000931928
-0.00517777
0.000600055
-0.00529559
0.000213331
-0.00518856
-0.000258666
-0.00480676
-0.000837264
-0.0041151
-0.00149212
-0.00314531
-0.00209535
-0.002038
-0.00242512
-0.00100449
-0.0022898
-0.000174355
-0.0017472
0.000601907
-0.000981007
0.00105862
-0.000452647
0.00095693
0.000106411
0.000970666
7.15971e-05
0.000884162
0.000454423
-0.000630194
0.000808216
-0.00100024
0.00111154
-0.00090454
0.00135139
-0.000686976
0.00140472
-0.000301389
0.00141238
-0.00011258
0.00142258
-6.16463e-05
0.00143123
-3.82986e-05
0.00143627
-1.96961e-05
0.00143855
-5.78029e-06
0.00143824
6.74554e-06
0.00143306
2.70324e-05
0.0013975
9.14147e-05
0.00124649
0.000272246
0.000981485
0.000460508
0.000655144
0.000568409
0.0014855
-0.00144249
0.00705816
-0.0022003
0.00262542
-0.00285014
0.00219648
-0.00333761
0.00172689
-0.00371687
0.00131119
-0.00398715
0.000870337
-0.00411777
0.000343954
-0.00405745
-0.000318988
-0.00374886
-0.00114585
-0.00315941
-0.00208157
-0.00232975
-0.00292501
-0.00140745
-0.00334741
-0.000580153
-0.00311709
8.12556e-05
-0.00240861
0.000600586
-0.00150033
0.000800338
-0.000652396
0.000651625
0.000255128
0.00163439
0.00148521
-0.000586371
0.00167835
-0.000823336
0.00160394
-0.000925818
0.00162188
-0.000922483
0.00180571
-0.000870798
0.00150448
0.00139205
0.00133056
0.00129242
0.00127288
0.00126726
0.00127416
0.00130135
0.00139292
0.0011608
0.000504371
0.000868798
0.000752509
0.000503343
0.000933866
0.00200893
-0.00102379
0.00841147
-0.00156844
0.00317007
-0.00190203
0.00253007
-0.00216863
0.00199348
-0.00239358
0.00153614
-0.00257618
0.00105293
-0.00268355
0.000451324
-0.00264884
-0.000353693
-0.00239787
-0.00139683
-0.00190978
-0.00256965
-0.00124643
-0.00358836
-0.000551607
-0.00404223
2.53761e-05
-0.00369407
0.000484607
-0.00286783
0.000849546
-0.00186527
0.0010724
-0.000875246
0.00126792
5.96074e-05
0.00224641
0.000655903
0.00220996
4.91789e-05
0.00200734
-0.00038375
0.00191328
-0.000729277
0.00179594
-0.00080847
0.00165943
-0.000785976
0.00143472
-0.000646077
0.00173421
-0.000299649
0.00189566
-0.000161597
0.00201484
-0.000119329
0.00210771
-9.30221e-05
0.00216371
-5.61558e-05
0.00216015
3.4116e-06
0.0020686
9.14033e-05
0.00185253
0.000215912
0.00145287
0.00039951
0.00122491
0.000732328
0.000862789
0.00111464
0.00033921
0.00145745
0.0023737
-0.000854126
0.0096568
-0.00115891
0.00347485
-0.000994065
0.00236523
-0.000977593
0.00197701
-0.00100393
0.00156248
-0.00105759
0.00110659
-0.00109047
0.000484198
-0.00102792
-0.000416233
-0.00079777
-0.00162698
-0.000408031
-0.00295938
4.25825e-05
-0.00403897
0.000441933
-0.00444158
0.000711324
-0.00396346
0.000922324
-0.00307883
0.00109769
-0.00204063
0.00127555
-0.00105311
0.0015778
-0.000242633
0.00202623
0.000207476
0.00205545
1.99664e-05
0.00197644
-0.000304742
0.00178069
-0.000533522
0.00158767
-0.00061545
0.00140805
-0.000606344
0.0012774
-0.000515431
0.00132651
-0.000348758
0.00140468
-0.000239762
0.00148188
-0.000196524
0.00155923
-0.000170372
0.00162874
-0.000125666
0.00167045
-3.83006e-05
0.00165925
0.000102608
0.00157863
0.000296537
0.0014328
0.000545344
0.00128331
0.000881811
0.00111057
0.00128738
0.000749054
0.00181897
0.000965664
0.0021571
-0.00117044
0.0021588
-0.00186266
0.000713507
-0.00178609
-0.00100356
0.00405105
0.0070509
-0.000105745
0.00145547
0.00112158
0.00014945
0.00114973
0.000960313
0.000433281
0.000871029
0.000822153
0.000504621
0.000766858
0.000724286
0.000512772
0.000591319
0.000507119
0.000555651
0.000290918
0.000150401
0.000690082
-0.00016787
-0.000382795
0.000937063
-0.000812149
-0.00106181
0.00121616
-0.0015084
-0.00173009
0.00141219
-0.00205905
-0.00217595
0.00146224
-0.00226395
-0.00222767
0.00139901
-0.00390022
0.00127947
-0.00295929
0.00117858
-0.00193974
0.00115116
-0.00102569
0.00125355
-0.00034501
0.00144955
1.14775e-05
0.00148632
-1.6804e-05
0.00138183
-0.000200246
0.00120353
-0.000355222
0.00102286
-0.000434771
0.000865684
-0.00044917
0.000760369
-0.000410113
0.000746537
-0.000334924
0.000791364
-0.000284587
0.000863683
-0.000268842
0.000952655
-0.000259343
0.00105277
-0.000225779
0.00115516
-0.000140693
0.00123654
2.12291e-05
0.00128179
0.000251289
0.00130594
0.000521195
0.0013503
0.00083745
0.00146607
0.00117161
0.00168819
0.00159685
0.00205431
0.00179098
0.00237389
0.00183922
0.00186446
0.00122294
0.000146412
-0.00317853
0.000484537
0.00316144
-0.0046193
0.00320576
0.00286901
-0.00236305
0.00205993
0.00145285
-0.00179276
0.00156327
0.00110052
-0.00137084
0.00121791
0.000919796
-0.00112426
0.00104127
0.000674314
-0.00102506
0.00100057
0.00031541
-0.00106414
0.00109721
-0.00020094
-0.00121499
0.0012513
-0.000848458
-0.00136598
0.00137672
-0.00151914
-0.00143794
0.00140203
-0.00202314
-0.00137249
0.00129336
-0.00218482
0.00189155
-0.0032818
-0.0011918
-0.00131817
0.00136513
-0.00243286
0.000951938
-0.00152655
0.000691433
-0.00076518
0.000603834
-0.000257408
0.00063793
-2.2616e-05
0.000641296
-2.01669e-05
0.000564597
-0.000123545
0.000438147
-0.00022877
0.00029975
-0.000296372
0.000176113
-0.000325532
9.18237e-05
-0.000325822
6.91894e-05
-0.000312288
9.69058e-05
-0.000312302
0.000154689
-0.000326624
0.000233871
-0.000338524
0.000336275
-0.000328182
0.000468298
-0.000272715
0.000631348
-0.000141821
0.000802945
7.96928e-05
0.000978792
0.00034535
0.0011962
0.000620045
0.00149276
0.000875058
0.00192467
0.00116493
0.00248196
0.00123369
0.00326965
0.00105153
0.00347407
0.00101853
0.00369232
0.00198208
-0.00154406
-0.00378197
0.00414528
-0.00286407
0.00250076
-0.00457592
0.0046362
-0.00178861
0.00172833
-0.00446751
0.0041616
-0.00146866
0.00177457
-0.00381574
0.00348924
-0.00121377
0.00154028
-0.00320457
0.00296774
-0.00085364
0.00109047
-0.00278581
0.00265224
-0.000390847
0.000524416
-0.00255934
0.00249589
0.000205601
-0.000142152
-0.00245392
0.0024155
0.000876646
-0.000838228
-0.00236692
0.00229066
0.00151272
-0.00143646
-0.00217983
0.00202763
0.00194502
-0.00179281
-0.00183844
0.00161686
0.00203397
-0.00181238
0.0017294
-0.00231058
-0.00137412
-0.00132651
0.000916967
-0.00162042
0.000294466
-0.000904042
-7.09243e-05
-0.000399788
-0.000210163
-0.000118167
-0.00022533
-7.44714e-06
-0.000234132
-1.13633e-05
-0.000285453
-7.22222e-05
-0.000373535
-0.000140686
-0.000475685
-0.00019422
-0.000570488
-0.000230728
-0.000640783
-0.000255527
-0.000676264
-0.000276806
-0.000684877
-0.000303688
-0.000677886
-0.000333614
-0.00065917
-0.000357239
-0.000623492
-0.000363859
-0.000554481
-0.000341726
-0.000420226
-0.000276075
-0.000198058
-0.000142475
7.5158e-05
7.21346e-05
0.000380996
0.000314207
0.000724389
0.000531666
0.00114404
0.000745284
0.00158894
0.000788792
0.00192634
0.000714126
0.00101772
0.00192715
0.00501199
-0.00168497
0.00273554
0.00488907
-0.0047314
0.00457375
-0.00198794
0.00214558
-0.00445481
0.00428996
-0.00182349
0.00198835
-0.00410775
0.00393176
-0.0013299
0.00150589
-0.00377125
0.00362758
-0.000686252
0.000829921
-0.0034967
0.00336402
2.51746e-05
0.00010751
-0.00321646
0.00304533
0.000723997
-0.000552872
-0.00284336
0.00260658
0.00127457
-0.00103779
-0.00233656
0.0020398
0.00156009
-0.00126332
-0.00172577
0.00140161
0.00153497
-0.0012108
0.000759186
-0.00122036
-0.00105967
-0.00078973
-0.000113285
-0.000747953
-0.000668513
-0.000348813
-0.000925053
-0.000143246
-0.00101233
-3.08917e-05
-0.00103177
1.19967e-05
-0.00104771
4.57456e-06
-0.00108976
-3.01639e-05
-0.00115819
-7.22569e-05
-0.00124061
-0.000111804
-0.00132491
-0.00014642
-0.00140354
-0.000176904
-0.0014754
-0.000204939
-0.00154805
-0.000231045
-0.0016308
-0.000250856
-0.00173199
-0.000256055
-0.00186033
-0.000235518
-0.00202664
-0.000175409
-0.00224457
-5.8148e-05
-0.00251307
0.000126025
-0.00283136
0.000390421
-0.00326947
0.000752323
-0.00395115
0.00121335
-0.00495246
0.00174659
-0.00640299
0.00223933
-0.00817465
0.00248578
-0.00795099
0.00170349
-0.00260628
-0.00032982
0.000371117
5.88621e-05
-0.00326189
0.00299561
-0.00242794
0.00269422
-0.00286182
0.00283471
-0.00210039
0.00212751
-0.00283706
0.00283332
-0.00160108
0.00160482
-0.00281084
0.00276399
-0.00093062
0.00097747
-0.00268908
0.00258385
-0.000231682
0.000336916
-0.00244096
0.0022542
0.000356557
-0.000169792
-0.00202431
0.00175872
0.000762021
-0.000496432
-0.00146801
0.00116342
0.000941205
-0.000636614
-0.000856407
0.000552065
0.000893364
-0.000589022
-0.00074036
-0.000442799
-0.000218848
0.000181643
-0.00128014
-0.000208171
-0.0015506
-7.83528e-05
-0.00167666
-1.71924e-05
-0.00172119
1.36425e-05
-0.00173386
2.4664e-05
-0.00174909
1.98047e-05
-0.00178379
4.53654e-06
-0.00183838
-1.7666e-05
-0.00190681
-4.33687e-05
-0.00198467
-6.85617e-05
-0.00207084
-9.07377e-05
-0.00216746
-0.000108313
-0.00227855
-0.000119958
-0.00240643
-0.00012298
-0.0025498
-0.000112678
-0.00270281
-8.251e-05
-0.00285216
-2.6061e-05
-0.0029821
7.17957e-05
-0.0030898
0.000233724
-0.00318121
0.000481833
-0.00326366
0.00083477
-0.00334049
0.00129018
-0.003377
0.0017831
-0.00326086
0.00212319
-0.00246202
0.00168695
-0.000461248
-0.000297289
-0.00298174
0.00422462
-0.00365229
-0.000374601
-0.000216434
-0.00173449
-0.0038886
0.00347092
-0.0029559
-0.000844835
0.00179228
-0.00106458
-0.00231413
0.00158643
0.000558581
-0.000187299
-0.0019547
0.00158342
-0.00010342
0.000330654
-0.00149821
0.00127098
-0.000498213
0.000609103
-0.000956381
0.000845495
-0.000664961
0.000667976
-0.000403038
0.000400025
-0.000622262
0.000533895
2.86364e-05
5.97307e-05
-0.000404974
0.000235898
0.000276182
-0.000107106
-3.54117e-05
-0.000177996
0.000376438
-0.000163031
0.000378996
-0.000546174
0.000353825
-0.000186648
-0.00194972
-4.72491e-05
0.000696997
0.000857176
-0.00217028
1.23873e-05
-0.0022721
2.34683e-05
-0.00231052
2.12295e-05
-0.00231535
1.84733e-05
-0.0023062
1.55048e-05
-0.00229729
1.09012e-05
-0.00229648
3.72777e-06
-0.0023056
-8.55233e-06
-0.00232573
-2.32371e-05
-0.00235722
-3.70732e-05
-0.00239973
-4.82225e-05
-0.00245262
-5.54261e-05
-0.00251479
-5.77851e-05
-0.00258382
-5.39505e-05
-0.00265491
-4.15881e-05
-0.00272063
-1.67956e-05
-0.00277031
2.36176e-05
-0.00278243
8.3918e-05
-0.00273048
0.000181779
-0.00258237
0.000333721
-0.00230572
0.000558118
-0.0018859
0.000870358
-0.00130479
0.001202
-0.000294883
0.00111328
0.00167586
-0.000283802
0.00349432
-0.00211574
0.000605398
0.00225319
-0.00195071
0.00251552
-0.00374818
0.00246662
-0.00123396
0.004583
-0.00487595
0.000637826
-0.00034488
0.00462952
-0.00411586
-0.000896387
0.000382727
0.00355124
-0.00300523
-0.00108956
0.000543544
0.00250272
-0.00205888
-0.000919224
0.000475377
0.00168457
-0.00138793
-0.000627727
0.000331081
0.00117215
-0.00103494
-0.000321584
0.000184368
0.000967932
-0.000957101
-0.00010005
8.92178e-05
0.000984536
-0.00103164
-7.97548e-06
5.50768e-05
0.00108345
-0.00113257
2.11619e-05
2.79593e-05
0.00118381
-0.00123062
0.000116489
-6.96856e-05
-0.00272424
0.0011561
0.00153258
-0.00270025
-0.00266521
-0.00263237
-0.00260222
-0.00257495
-0.00255214
-0.00253637
-0.00253276
-0.00254376
-0.00256859
-0.0026046
-0.00264792
-0.00269375
-0.00273593
-0.00276599
-0.00277154
-0.00273699
-0.00264251
-0.00245056
-0.00210709
-0.00153967
-0.000660478
0.000549834
0.00167102
0.00139551
-0.000712729
-0.00431822
0.00374997
0.00196428
0.00122748
0.00101458
0.000817931
0.000523325
8.68244e-05
-0.000500571
-0.00117649
-0.0017913
-0.0021464
-0.00212611
-0.00288351
-0.00251453
0.00161606
-0.00226945
0.00183881
-0.00157829
0.00174698
-0.00135806
0.00170392
-0.00104661
0.00133127
-0.000639593
0.000821526
-0.000109426
0.000202323
0.000535715
-0.000493743
0.00120688
-0.0011583
0.00176368
-0.00165285
0.00203568
-0.0018465
0.00193744
-0.0016947
-0.0052892
-0.00162948
0.00218728
-0.00198033
0.00209927
-0.00160094
0.00178315
-0.00102141
0.00118193
-0.000335502
0.000466383
0.000384362
-0.000236797
0.00102616
-0.000824183
0.00145546
-0.00118544
0.00158534
-0.00127131
0.0014223
-0.00108036
-0.00323923
-0.00270292
0.00268026
-0.0022589
0.00239269
-0.00188093
0.00187858
-0.00127864
0.00130113
-0.000574858
0.000649776
8.19298e-05
6.09719e-05
0.000585744
-0.000355848
0.000881118
-0.00059041
0.000943459
-0.000636444
0.000810777
-0.00047756
-0.00144252
-0.00387875
-0.00266928
-0.0020952
0.000931573
-0.00217384
0.00166785
-0.00173658
0.00144586
-0.00123592
0.00106836
-0.000673299
0.000617443
-0.000163472
0.000209186
0.000172278
-4.33591e-05
0.000343674
-0.00014319
0.000379606
-0.000178607
0.000281353
-0.00013053
0.00117877
0.00276335
-0.0014266
0.00166907
-0.000834246
-0.000341813
9.53799e-05
-0.00107616
0.000511542
-0.00102691
0.000524403
-0.000782251
0.000407946
-0.000469659
0.000253877
-0.000195455
0.00012845
-3.89883e-05
6.64222e-05
6.62261e-06
4.51883e-05
5.06878e-05
5.53727e-07
0.000226932
-0.000301449
-0.00439689
0.00440183
-0.00409666
0.0037609
-0.00341009
0.00304195
-0.00269847
0.00240449
-0.00217581
0.00199649
-0.00188022
0.00180478
-0.00178218
0.00178684
-0.00182198
0.00185017
-0.00188056
0.00187415
-0.00184653
0.00176841
-0.00165769
0.00150684
-5.52185e-05
0.00254508
0.00124128
-0.00437464
0.00486169
-0.00497919
0.00476582
-0.00448941
0.0042062
-0.00393653
0.00369709
-0.0034972
0.00333537
-0.00320219
0.00308521
-0.00297583
0.0028616
-0.00272947
0.00256759
-0.00237019
0.00213747
-0.00187632
0.00159891
-0.00437342
0.00409107
-0.00393144
0.00381941
-0.00372163
0.00362645
-0.00352974
0.00342904
-0.00332057
0.00319641
-0.00304154
0.00284523
-0.0026068
0.00233103
-0.00202672
0.0017046
-0.00137675
0.00105931
-0.000643921
0.00102401
-0.00124287
0.00141569
-0.00155769
0.00166431
-0.00172952
0.00175061
-0.0017271
0.00166098
-0.00155849
0.00141733
-0.00123376
0.00101351
-0.000766778
0.0005066
-0.000249762
1.45645e-05
0.00149
-0.00291198
0.0039122
-0.00411921
0.00352944
-0.00283941
0.00224772
-0.00175385
0.0013349
-0.000983142
0.000697029
-0.00047926
0.000331475
-0.000253035
0.000239306
-0.000279627
0.000361977
-0.00047706
0.000613628
-0.000755499
0.000883418
-0.000953578
0.00333808
-0.00453418
0.00533212
-0.00564195
0.00551266
-0.00509743
0.00455536
-0.00398348
0.00343292
-0.00293351
0.00250358
-0.00215251
0.00188057
-0.00167995
0.00153688
-0.0014344
0.00135577
-0.00128921
0.00123296
-0.00119409
0.00118265
-0.00124159
)
;

boundaryField
{
    floor
    {
        type            calculated;
        value           nonuniform List<scalar> 
36
(
0
0
0
0
0
0
0
0
0
0
0
0
0
0
0
0
0
0
0
-5.30797e-06
-1.34535e-05
-2.00858e-05
-2.55632e-05
-2.2696e-05
-2.12849e-05
-2.00543e-05
-2.36343e-06
-4.06587e-06
-4.71377e-06
-5.46201e-06
-3.96125e-06
-8.2699e-06
-1.1871e-05
-1.20922e-05
-1.46721e-05
-1.27198e-05
)
;
    }
    ceiling
    {
        type            calculated;
        value           nonuniform List<scalar> 
58
(
-3.92293e-05
-3.63058e-05
-3.39079e-05
-3.05272e-05
-2.61548e-05
-2.19854e-05
-1.80648e-05
-1.46226e-05
-1.22127e-05
-1.10619e-05
-1.08851e-05
-1.04628e-05
-1.16884e-05
-1.15959e-05
-1.15785e-05
-1.16087e-05
-1.16715e-05
-1.17717e-05
-1.19045e-05
-1.20472e-05
-1.21646e-05
-1.22342e-05
-1.22483e-05
-1.22051e-05
-1.21075e-05
-1.19597e-05
-1.17656e-05
-1.15285e-05
-1.12498e-05
-1.09269e-05
-1.05644e-05
-1.01705e-05
-9.74897e-06
-9.30314e-06
-8.83523e-06
-8.31472e-06
-7.90856e-06
-8.29768e-06
-7.50031e-06
-5.0069e-06
1.67777e-05
9.25402e-06
-0.000132576
-3.89171e-05
-3.78661e-05
-3.50567e-05
-3.25068e-05
-2.83431e-05
-2.40337e-05
-1.99925e-05
-1.6249e-05
-1.32626e-05
-1.14813e-05
-1.09127e-05
-1.07473e-05
2.64821e-05
1.08942e-05
-0.000100159
)
;
    }
    sWall
    {
        type            calculated;
        value           nonuniform List<scalar> 4(-0.000186772 -0.000220343 -0.000197729 -0.000263558);
    }
    nWall
    {
        type            calculated;
        value           nonuniform List<scalar> 6(-5.65229e-05 -6.804e-05 -7.1836e-05 -8.57908e-05 -9.28149e-05 -0.000102324);
    }
    sideWalls
    {
        type            empty;
        value           nonuniform 0();
    }
    glass1
    {
        type            calculated;
        value           nonuniform List<scalar> 10(-6.25039e-05 -0.000168548 -0.000256523 -0.000329522 -0.000391206 -0.000441595 -0.00044585 -0.000416887 -0.000467448 -0.000464503);
    }
    glass2
    {
        type            calculated;
        value           nonuniform List<scalar> 2(-0.000301944 -0.00033272);
    }
    sun
    {
        type            calculated;
        value           uniform 0;
    }
    Table_master
    {
        type            calculated;
        value           nonuniform List<scalar> 9(-1.53898e-07 -1.54045e-07 -1.54095e-07 -1.54125e-07 -1.54146e-07 -1.54159e-07 -1.54164e-07 -1.5416e-07 -1.54131e-07);
    }
    Table_slave
    {
        type            calculated;
        value           nonuniform List<scalar> 9(1.53788e-07 1.5378e-07 1.53737e-07 1.53702e-07 1.5368e-07 1.53681e-07 1.53686e-07 1.53724e-07 1.53806e-07);
    }
    inlet
    {
        type            calculated;
        value           nonuniform List<scalar> 2(-0.00573288 -0.00593963);
    }
    outlet
    {
        type            calculated;
        value           nonuniform List<scalar> 4(0.00510484 0.00440571 0.00296887 0.00583952);
    }
}


// ************************************************************************* //
