/*--------------------------------*- C++ -*----------------------------------*\
  =========                 |
  \\      /  F ield         | OpenFOAM: The Open Source CFD Toolbox
   \\    /   O peration     | Website:  https://openfoam.org
    \\  /    A nd           | Version:  6
     \\/     M anipulation  |
\*---------------------------------------------------------------------------*/
FoamFile
{
    version     2.0;
    format      ascii;
    class       volScalarField;
    location    "8600";
    object      k;
}
// * * * * * * * * * * * * * * * * * * * * * * * * * * * * * * * * * * * * * //

dimensions      [0 2 -2 0 0 0 0];

internalField   nonuniform List<scalar> 
662
(
0.00197523
0.00230441
0.0023853
0.00261442
0.00283734
0.00305685
0.00328232
0.00352732
0.00378426
0.00403164
0.00423366
0.0043132
0.00415307
0.003634
0.00239947
0.000486039
0.00066983
0.000858233
0.000922679
0.000886552
0.000772923
0.00065807
0.000563481
0.000487649
0.000426342
0.000376272
0.000335056
0.000300603
0.000270945
0.000244342
0.000219176
0.000205874
0.000174799
0.00367937
0.00677973
0.00337025
0.00352573
0.00378252
0.00407132
0.00439761
0.0047794
0.005258
0.00585148
0.0064828
0.00697703
0.00709823
0.00671847
0.00578282
0.00350308
0.00237579
0.00157489
0.000482771
0.00104843
0.00138866
0.00154249
0.00154498
0.00131457
0.00106618
0.000865927
0.000713378
0.000596645
0.000506052
0.000434081
0.000375137
0.0003262
0.000290779
0.000270893
0.000520407
0.000306879
0.00567186
0.0132857
0.00405749
0.00369798
0.00381643
0.0039727
0.00414917
0.00440446
0.00480492
0.0053763
0.00607666
0.00680058
0.00726151
0.00716216
0.00640498
0.00530315
0.00433165
0.00225361
0.00119442
0.00153166
0.00173039
0.00184691
0.00182294
0.00141678
0.00108113
0.000837738
0.000663824
0.000538399
0.000446461
0.000378022
0.000326777
0.000289332
0.000267859
0.000271356
0.00083244
0.00043186
0.00816137
0.023052
0.00552062
0.00370528
0.0036154
0.00363459
0.00365199
0.00379098
0.00414931
0.00467408
0.00537122
0.00627303
0.00698112
0.0070154
0.00649329
0.00580342
0.00508778
0.0038969
0.00304918
0.0027435
0.00258066
0.00252121
0.00244921
0.00228511
0.00179863
0.0014962
0.00130421
0.00117026
0.00106323
0.000964389
0.000875153
0.000786141
0.000689011
0.000522853
0.000421506
0.00123132
0.000571077
0.0111025
0.0332201
0.00966185
0.00426169
0.00368746
0.00355474
0.00346105
0.00359548
0.00402372
0.00448961
0.00513743
0.00616339
0.00693695
0.00689151
0.00629157
0.005538
0.00485889
0.00428633
0.00409997
0.00376367
0.00351141
0.00329779
0.00305148
0.00274695
0.0024243
0.00220025
0.00205771
0.00194406
0.0018259
0.00168243
0.00150098
0.00129791
0.00108501
0.000853267
0.000658579
0.000971425
0.00115966
0.0010324
0.00113912
0.00134019
0.0149582
0.0454232
0.0191845
0.00797977
0.00542099
0.00450334
0.00412293
0.00425979
0.00461074
0.00489349
0.00546016
0.00648081
0.0072745
0.00703028
0.0061567
0.00514477
0.00439423
0.00407885
0.00408763
0.00410896
0.00399815
0.00373852
0.00337946
0.00298787
0.00266707
0.00248562
0.00238635
0.00230515
0.00220843
0.00207476
0.00187824
0.00164157
0.00138925
0.00113563
0.000934932
0.000924824
0.00109926
0.00112782
0.00173063
0.001444
0.0132171
0.0262686
0.0254995
0.0170878
0.0110679
0.00782974
0.00633532
0.00587643
0.0057351
0.00557764
0.00587284
0.00689715
0.00803873
0.00737964
0.00615278
0.00489519
0.00412597
0.00399577
0.0041717
0.00424569
0.00408798
0.00374903
0.00333398
0.0029413
0.00266532
0.00253703
0.00249236
0.00247305
0.00245209
0.00241084
0.00232191
0.00213728
0.00190658
0.00166092
0.00147344
0.00139582
0.00149538
0.00171683
0.00230965
0.00201278
0.00822087
0.0140568
0.0157321
0.0158369
0.0145409
0.0122261
0.0100051
0.00832134
0.00702964
0.00646445
0.00706163
0.00834492
0.00884019
0.00762855
0.00598299
0.00457572
0.00393839
0.00391651
0.00402414
0.00397195
0.00371406
0.00334
0.00296072
0.00266005
0.00248505
0.00242832
0.00244591
0.00250695
0.00260181
0.0027296
0.00288904
0.00305074
0.00312381
0.00316868
0.00334039
0.0039098
0.00505944
0.00666593
0.0136173
0.00464601
0.00161284
0.00651099
0.00854442
0.00896975
0.00843765
0.0075918
0.00712182
0.00778439
0.00935268
0.0103167
0.00907391
0.00715139
0.00512057
0.00406207
0.00367335
0.00358511
0.0035181
0.00333797
0.00304708
0.00272239
0.00244344
0.00225785
0.00217401
0.0021714
0.00222485
0.00232165
0.00246021
0.00264372
0.00287597
0.00315777
0.00350445
0.0039407
0.00451639
0.00520373
0.0058619
0.00631989
0.0065498
0.00407839
0.00305919
0.00304597
0.00488967
0.00641742
0.00736984
0.00828695
0.00981261
0.0115262
0.0120768
0.0107797
0.00733675
0.00555645
0.00429192
0.00364509
0.00334188
0.00317392
0.00300714
0.00278985
0.00253659
0.00229468
0.00210918
0.00199553
0.00194624
0.00194645
0.00198508
0.00205848
0.00216949
0.00232659
0.00254461
0.00284385
0.00323185
0.00371171
0.00427846
0.00487485
0.00539025
0.0057175
0.00526888
0.00279371
0.00908405
0.0152781
0.00540093
0.0055023
0.00758268
0.00961749
0.0114445
0.0129305
0.0133333
0.01229
0.00995518
0.00683261
0.00404659
0.00362445
0.00333548
0.0031684
0.00305201
0.0029275
0.00276828
0.00257894
0.00238141
0.00219995
0.00205675
0.00195685
0.00189858
0.0018805
0.0019036
0.00197082
0.00208595
0.00225305
0.00248392
0.00279068
0.00318238
0.00366248
0.00421453
0.00478911
0.00536162
0.0063189
0.00372843
0.00300136
0.00538125
0.00889679
0.0101432
0.012411
0.0136241
0.0136695
0.012729
0.010842
0.00838224
0.0060243
0.00400835
0.00253547
0.00147594
0.00140126
0.00133072
0.00126597
0.00120484
0.00114286
0.00108129
0.00102697
0.000987765
0.000968192
0.000965974
0.000979922
0.0010089
0.00105253
0.00111137
0.001187
0.00128248
0.00140343
0.00155272
0.00173282
0.00194801
0.00220241
0.00249823
0.00283933
0.00304161
0.00251102
0.00219618
0.00281692
0.0174788
0.0315188
0.0218298
0.0137637
0.00916105
0.00689328
0.0059819
0.00582209
0.00565114
0.00563619
0.00632057
0.00747864
0.0128864
0.0154744
0.0158772
0.0153925
0.0134309
0.0110535
0.0091163
0.00761354
0.00662176
0.00661402
0.00769835
0.00880753
0.00479921
0.00776607
0.00891869
0.00878122
0.00801645
0.00725853
0.00728536
0.00853662
0.010005
0.0102268
0.00232044
0.00395496
0.00573152
0.00694587
0.00778023
0.00895937
0.0107326
0.0120186
0.0116413
0.00975121
0.0264104
0.0104943
0.00476529
0.00659323
0.00858612
0.0105479
0.0122673
0.0133133
0.0129615
0.0113196
0.00839509
0.00556281
0.0141463
0.00938874
0.0113701
0.0131957
0.0137701
0.0133212
0.0118936
0.0096387
0.00716477
0.00496602
0.0031887
0.0020316
0.0143924
0.0184043
0.0207101
0.0186506
0.0147877
0.0111493
0.00872688
0.00738507
0.00652687
0.0060392
0.00637631
0.00752182
0.00917428
0.0110484
0.0116286
0.0119362
0.0119986
0.0110659
0.00962087
0.00821648
0.0071078
0.00694024
0.00802134
0.00932317
0.00300765
0.00366139
0.0059415
0.00718132
0.00745637
0.0073583
0.00781744
0.00937902
0.0109195
0.0109693
0.00189359
0.00353372
0.00536967
0.00711054
0.0087734
0.0106731
0.0124087
0.0129211
0.0119003
0.00933628
0.00925356
0.0128737
0.0080551
0.00893681
0.0109452
0.0123534
0.0131192
0.012982
0.0116894
0.00966408
0.00701537
0.00448647
0.00773306
0.00642979
0.00722888
0.0077926
0.00766771
0.00692331
0.00575739
0.00439645
0.00315583
0.00219535
0.00150642
0.00128767
0.0156805
0.0209508
0.0200592
0.0168244
0.0128369
0.00976924
0.00796451
0.00691931
0.00621462
0.00607847
0.00689968
0.00807248
0.00952789
0.0113901
0.0117078
0.0120922
0.0116374
0.0103659
0.00889463
0.00759228
0.00686219
0.0073571
0.0087472
0.00956444
0.00245898
0.00489849
0.0067054
0.00740871
0.00740707
0.00744313
0.00849783
0.0102616
0.0111751
0.0103404
0.00230326
0.00446655
0.00625456
0.00793683
0.00967981
0.0116717
0.0128328
0.0126288
0.0107528
0.00796676
0.0234192
0.0104838
0.0080806
0.0100469
0.0117083
0.0128228
0.0131898
0.0124674
0.0107429
0.00841944
0.00562333
0.00386958
0.00610387
0.00687631
0.00754117
0.00782663
0.00735796
0.00638195
0.00508182
0.00374386
0.00264244
0.00180996
0.00132384
0.00135231
)
;

boundaryField
{
    floor
    {
        type            kqRWallFunction;
        value           nonuniform List<scalar> 
36
(
0.00239947
0.000486039
0.00066983
0.000858233
0.000922679
0.000886552
0.000772923
0.00065807
0.000563481
0.000487649
0.000426342
0.000376272
0.000335056
0.000300603
0.000270945
0.000244342
0.000219176
0.000205874
0.000174799
0.000174799
0.000306879
0.00043186
0.000571077
0.0010324
0.00113912
0.00134019
0.00239947
0.00350308
0.00237579
0.00157489
0.000486039
0.00157489
0.000482771
0.00225361
0.00119442
0.00304918
)
;
    }
    ceiling
    {
        type            kqRWallFunction;
        value           nonuniform List<scalar> 
58
(
0.00610387
0.00687631
0.00754117
0.00782663
0.00735796
0.00638195
0.00508182
0.00374386
0.00264244
0.00180996
0.00132384
0.00135231
0.00147594
0.00140126
0.00133072
0.00126597
0.00120484
0.00114286
0.00108129
0.00102697
0.000987765
0.000968192
0.000965974
0.000979922
0.0010089
0.00105253
0.00111137
0.001187
0.00128248
0.00140343
0.00155272
0.00173282
0.00194801
0.00220241
0.00249823
0.00283933
0.00304161
0.00251102
0.00219618
0.00281692
0.00952789
0.0113901
0.00189359
0.00538125
0.00642979
0.00722888
0.0077926
0.00766771
0.00692331
0.00575739
0.00439645
0.00315583
0.00219535
0.00150642
0.00128767
0.00822087
0.0110484
0.00305919
)
;
    }
    sWall
    {
        type            kqRWallFunction;
        value           nonuniform List<scalar> 4(0.00925356 0.00773306 0.00908405 0.00538125);
    }
    nWall
    {
        type            kqRWallFunction;
        value           nonuniform List<scalar> 6(0.00134019 0.001444 0.00201278 0.00279371 0.00300136 0.00281692);
    }
    sideWalls
    {
        type            empty;
    }
    glass1
    {
        type            kqRWallFunction;
        value           nonuniform List<scalar> 10(0.00197523 0.00367937 0.00567186 0.00816137 0.0111025 0.0149582 0.0143924 0.00917428 0.0132171 0.00822087);
    }
    glass2
    {
        type            kqRWallFunction;
        value           nonuniform List<scalar> 2(0.00464601 0.00407839);
    }
    sun
    {
        type            kqRWallFunction;
        value           nonuniform List<scalar> 
14
(
0.00197523
0.00230441
0.0023853
0.00261442
0.00283734
0.00305685
0.00328232
0.00352732
0.00378426
0.00403164
0.00423366
0.0043132
0.00415307
0.003634
)
;
    }
    Table_master
    {
        type            kqRWallFunction;
        value           nonuniform List<scalar> 9(0.00141678 0.00108113 0.000837738 0.000663824 0.000538399 0.000446461 0.000378022 0.000326777 0.000289332);
    }
    Table_slave
    {
        type            kqRWallFunction;
        value           nonuniform List<scalar> 9(0.00179863 0.0014962 0.00130421 0.00117026 0.00106323 0.000964389 0.000875153 0.000786141 0.000689011);
    }
    inlet
    {
        type            turbulentIntensityKineticEnergyInlet;
        intensity       0.05;
        value           uniform 0.0009375;
    }
    outlet
    {
        type            zeroGradient;
    }
}


// ************************************************************************* //
