/*--------------------------------*- C++ -*----------------------------------*\
  =========                 |
  \\      /  F ield         | OpenFOAM: The Open Source CFD Toolbox
   \\    /   O peration     | Website:  https://openfoam.org
    \\  /    A nd           | Version:  6
     \\/     M anipulation  |
\*---------------------------------------------------------------------------*/
FoamFile
{
    version     2.0;
    format      ascii;
    class       surfaceScalarField;
    location    "1710";
    object      phi;
}
// * * * * * * * * * * * * * * * * * * * * * * * * * * * * * * * * * * * * * //

dimensions      [1 0 -1 0 0 0 0];

internalField   nonuniform List<scalar> 
850
(
-0.00305312
0.00311358
-0.00414583
0.00109271
-0.00501494
0.00086911
-0.00570381
0.00068887
-0.0061759
0.000472094
-0.00639716
0.000221263
-0.00632797
-6.919e-05
-0.00592418
-0.000403792
-0.00517398
-0.000750208
-0.00412886
-0.00104512
-0.0029006
-0.00122826
-0.00164183
-0.00125877
-0.000539319
-0.00110251
0.00013574
-0.00067506
0.000138091
-0.000922209
0.000925866
-0.000689513
-0.000232696
-5.98988e-05
-0.000629615
0.00054369
-0.000603588
0.00100289
-0.0004592
0.00125942
-0.000256534
0.0013675
-0.000108077
0.00142029
-5.27854e-05
0.00145061
-3.03247e-05
0.00146565
-1.50351e-05
0.00146923
-3.58126e-06
0.0014622
7.02838e-06
0.0014389
2.32956e-05
0.00138031
5.85889e-05
0.00125429
0.000126028
0.00105053
0.000203751
0.000793639
0.000256896
0.000798478
-0.00220747
0.00548445
-0.00329513
0.00218037
-0.00420836
0.00178233
-0.00490613
0.00138664
-0.00538765
0.000953611
-0.0056306
0.000464213
-0.00559459
-0.000105201
-0.00524041
-0.000757965
-0.00456694
-0.00142368
-0.00364293
-0.00196912
-0.00258828
-0.00228291
-0.00154177
-0.00230528
-0.00062894
-0.00201535
9.26532e-05
-0.00139665
0.000872434
-0.00064169
0.00114837
-0.000272152
0.000956709
0.000196021
0.000969397
4.20408e-05
0.000894826
0.00042238
-0.000613035
0.000787105
-0.00099434
0.00110011
-0.000916596
0.00135105
-0.000710141
0.00140755
-0.000313026
0.00141568
-0.000116208
0.00142639
-6.35015e-05
0.00143537
-3.93048e-05
0.00144064
-2.02975e-05
0.00144279
-5.74019e-06
0.00144239
7.4282e-06
0.00143691
2.87851e-05
0.00140043
9.50677e-05
0.00124747
0.000278981
0.000978886
0.000472338
0.00064477
0.000591012
0.00145563
-0.00156234
0.00729722
-0.00251037
0.0031284
-0.00334301
0.00261497
-0.00396557
0.00200921
-0.00441315
0.00140119
-0.00466167
0.00071274
-0.00465602
-0.000110852
-0.00433475
-0.00107924
-0.00371324
-0.00204519
-0.00288885
-0.00279351
-0.00198677
-0.00318499
-0.00112286
-0.00316919
-0.000373675
-0.00276453
0.000240264
-0.00201059
0.000751709
-0.00115314
0.000899047
-0.00041949
0.000707209
0.000387859
0.00168787
0.00143705
-0.000528387
0.00163246
-0.000808443
0.00157484
-0.000936722
0.00160817
-0.000949927
0.00181164
-0.000913613
0.00149877
0.00138272
0.00131937
0.00128022
0.00126007
0.00125449
0.00126207
0.00129101
0.00138623
0.00115916
0.00050605
0.000870214
0.000761284
0.000499009
0.000962217
0.00197321
-0.00109549
0.00871736
-0.00185228
0.00388519
-0.00243659
0.00319928
-0.00288266
0.00245528
-0.00322778
0.00174631
-0.00344064
0.000925601
-0.00344206
-0.000109439
-0.00312365
-0.00139765
-0.0025478
-0.00262104
-0.00184612
-0.00349519
-0.00113049
-0.00390061
-0.000480801
-0.00381889
6.56426e-05
-0.00331097
0.000526158
-0.00247111
0.000902155
-0.00152913
0.00111912
-0.000636454
0.00130316
0.000203814
0.00225662
0.000734409
0.00216692
0.00010164
0.00199384
-0.000355303
0.00190783
-0.000722438
0.00179706
-0.000825944
0.00166487
-0.00081774
0.00143383
-0.000682576
0.00175757
-0.000323894
0.00193536
-0.000177941
0.00206643
-0.000131219
0.00216736
-0.000101085
0.00222773
-6.05236e-05
0.00222529
2.2825e-06
0.00213248
9.26598e-05
0.00191296
0.000219365
0.0015068
0.000406007
0.00126952
0.000743332
0.000902359
0.00112844
0.000384166
0.00148041
0.00238101
-0.000756055
0.00986113
-0.00132705
0.00445619
-0.00150961
0.00338184
-0.00168818
0.00263385
-0.00185314
0.00191126
-0.00196215
0.00103461
-0.00191368
-0.000157901
-0.00155663
-0.0017547
-0.00105563
-0.00312204
-0.000537743
-0.00401308
-7.32778e-05
-0.00436507
0.000305349
-0.00419752
0.000596479
-0.0036021
0.000849279
-0.00272391
0.00106849
-0.00174834
0.0012757
-0.000843671
0.00158615
-0.000106631
0.00202946
0.000291101
0.00206318
6.79131e-05
0.0019957
-0.000287816
0.00181109
-0.000537829
0.00162318
-0.000638036
0.00144609
-0.00064065
0.00131744
-0.000553924
0.00137632
-0.00038278
0.00146455
-0.000266164
0.00154919
-0.000215861
0.00163084
-0.00018274
0.00170113
-0.000130809
0.00174029
-3.68775e-05
0.00172432
0.000108628
0.00163811
0.00030558
0.00148588
0.000558235
0.00132982
0.000899392
0.0011509
0.00130736
0.000803949
0.00182736
0.00101977
0.00216519
-0.00109537
0.00213626
-0.00179356
0.00071781
-0.00172079
-0.000638755
0.0109407
-0.00101439
0.00483183
-0.000633419
0.00300086
-0.000448642
0.00244908
-0.000383977
0.0018466
-0.000303575
0.000954205
-5.17431e-05
-0.000409732
0.000334685
-0.00214113
0.000692372
-0.00347973
0.000952208
-0.00427292
0.00109521
-0.00450808
0.00114552
-0.00424782
0.00113938
-0.00359597
0.00111612
-0.00270064
0.0011005
-0.00173272
0.00113242
-0.000875592
0.0012692
-0.000243414
0.0014837
7.66045e-05
0.00153478
1.6835e-05
0.00143667
-0.000189707
0.00126219
-0.000363356
0.00108249
-0.000458336
0.000925205
-0.000483361
0.000820246
-0.000448964
0.000809585
-0.000372119
0.000859097
-0.000315676
0.000935426
-0.00029219
0.00102632
-0.000273632
0.00112528
-0.000229768
0.0012224
-0.000133998
0.0012954
3.56281e-05
0.00133249
0.000268483
0.0013478
0.000542932
0.00138182
0.000865372
0.0014823
0.00120688
0.00168584
0.00162382
0.00203672
0.00181431
0.0023369
0.00183608
0.00182993
0.00122478
0.000174574
-0.000763863
0.0121918
-0.000621481
0.00468945
0.000492299
0.00188708
0.000960692
0.00198068
0.00121811
0.00158918
0.00159969
0.000572627
0.00210305
-0.000913094
0.00244024
-0.00247831
0.00257407
-0.00361356
0.00250652
-0.00420537
0.00227329
-0.00427484
0.00193632
-0.00391086
0.00155938
-0.00321902
0.00120056
-0.00234183
0.00089665
-0.00142881
0.0007048
-0.000683742
0.000652898
-0.000191512
0.000703812
2.56908e-05
0.000711766
8.88112e-06
0.000635414
-0.000113356
0.000508017
-0.000235959
0.000367697
-0.000318015
0.000241821
-0.000357486
0.000155791
-0.000362934
0.000132969
-0.000349296
0.000162116
-0.000344824
0.000221859
-0.000351933
0.000302401
-0.000354174
0.000404748
-0.000332115
0.000533874
-0.000263124
0.000686836
-0.000117333
0.000844834
0.000110484
0.00100686
0.000380908
0.00120871
0.00066352
0.00148334
0.000932244
0.0018838
0.00122337
0.00241734
0.00128077
0.00318505
0.00106837
0.00336171
0.00104812
0.0036051
0.00273596
0.0099992
0.00339172
0.00403369
0.00344939
0.00182941
0.00353514
0.00189494
0.00374649
0.00137782
0.00422251
9.66119e-05
0.00469373
-0.00138432
0.0047888
-0.00257339
0.00451449
-0.00333925
0.00396134
-0.00365222
0.00323017
-0.00354367
0.00242519
-0.00310587
0.00162835
-0.00242219
0.000922367
-0.00163585
0.000347429
-0.000853868
-2.80752e-06
-0.000333506
-0.000141357
-5.29626e-05
-0.000155914
4.02478e-05
-0.000163805
1.6772e-05
-0.00021599
-6.117e-05
-0.000306859
-0.00014509
-0.000413078
-0.000211797
-0.000512348
-0.000258216
-0.000586532
-0.00028875
-0.000624419
-0.000311409
-0.000633557
-0.000335685
-0.000625695
-0.000359796
-0.000605118
-0.000374751
-0.000566838
-0.000370395
-0.00049463
-0.000335332
-0.000357192
-0.000254771
-0.000147036
-9.9672e-05
0.00010379
0.000130082
0.000388533
0.000378777
0.000707028
0.000613749
0.00108939
0.000841007
0.00150681
0.000863341
0.00189861
0.000676576
0.00120598
0.00174075
0.00509749
0.0105981
0.0146276
0.0125616
0.00389549
0.0112295
0.003227
0.0103411
0.00226618
0.00953437
0.000903373
0.00853198
-0.000381926
0.00735308
-0.00139449
0.00607979
-0.00206596
0.00476091
-0.00233335
0.00342968
-0.00221244
0.00216464
-0.00184083
0.0010098
-0.00126734
5.65772e-05
-0.00068263
-0.000566164
-0.000231127
-0.000859964
-3.97056e-05
-0.000957116
4.41893e-05
-0.000976671
5.9803e-05
-0.000992014
3.21154e-05
-0.00103548
-1.77041e-05
-0.0011081
-7.24695e-05
-0.00119709
-0.000122811
-0.00128883
-0.000166472
-0.00137439
-0.000203189
-0.00145151
-0.000234288
-0.00152705
-0.00026015
-0.00161025
-0.000276597
-0.00170962
-0.000275381
-0.0018348
-0.000245208
-0.0019987
-0.000171441
-0.0022167
-3.67626e-05
-0.00248322
0.000166842
-0.00280718
0.000454041
-0.00327108
0.000842684
-0.00398824
0.0013309
-0.00502976
0.00188253
-0.00651697
0.00235055
-0.00825544
0.00241505
-0.00777186
0.00125716
-0.00235736
0.00895051
0.00560337
0.00747197
0.00470555
0.00708013
0.00265802
0.00672934
0.00125416
0.00611939
0.000228024
0.00524699
-0.000522086
0.00417838
-0.000997346
0.0029829
-0.00113787
0.00169131
-0.000920848
0.000430455
-0.000579975
-0.00060954
-0.000227343
-0.00127097
-2.11988e-05
-0.00156344
6.13427e-05
-0.00167784
7.46982e-05
-0.00170757
7.39169e-05
-0.00171318
6.54154e-05
-0.00172819
4.71203e-05
-0.00176702
2.11258e-05
-0.00183095
-8.53914e-06
-0.00191239
-4.13714e-05
-0.00200374
-7.51206e-05
-0.00210294
-0.000103986
-0.00221141
-0.000125825
-0.00233254
-0.000139014
-0.00246841
-0.000140724
-0.00261786
-0.000125932
-0.00277546
-8.76133e-05
-0.00292885
-1.80481e-05
-0.0030625
9.68823e-05
-0.00317482
0.000279168
-0.00327577
0.000554992
-0.00337726
0.000944175
-0.00348606
0.0014397
-0.00356953
0.00196599
-0.00356784
0.00234886
-0.0033098
0.002157
-0.00194984
-0.000102797
-0.00422387
-0.000826102
0.00648278
0.000742018
0.00313743
0.00140764
0.0019924
0.00164647
0.00101533
0.00158258
0.000291915
0.00121154
-0.000151041
0.0005293
-0.000315111
-0.000364073
-0.000244501
-0.00124127
-4.36472e-05
-0.0018865
6.52554e-05
-0.00222716
0.000113318
-0.00235789
0.000109531
-0.00238057
8.40191e-05
-0.00237
6.41277e-05
-0.00234871
5.263e-05
-0.00232804
4.47429e-05
-0.00231706
3.61436e-05
-0.002321
2.5064e-05
-0.00234036
1.08168e-05
-0.0023741
-7.63136e-06
-0.00242258
-2.6638e-05
-0.00248395
-4.26196e-05
-0.00255617
-5.36039e-05
-0.00263656
-5.86247e-05
-0.00272101
-5.62773e-05
-0.00280292
-4.4014e-05
-0.00287284
-1.76926e-05
-0.00291821
2.73231e-05
-0.0029183
9.6969e-05
-0.00284781
0.000208676
-0.00267221
0.000379387
-0.00236016
0.000632133
-0.00190385
0.000983392
-0.00128927
0.00135141
-0.000299568
0.00135916
0.0011477
0.000709736
0.00164258
-0.000597682
-0.0024896
-0.0120484
-0.015577
-0.00905374
-0.0058889
-0.00387422
-0.00284029
-0.00253335
-0.00267239
-0.00297757
-0.00321357
-0.00324956
-0.00317701
-0.00305656
-0.00293992
-0.00284877
-0.00277751
-0.00271771
-0.00266576
-0.00262235
-0.00259
-0.00257189
-0.00257227
-0.00259172
-0.00262726
-0.00267391
-0.00272573
-0.00277536
-0.0028129
-0.0028243
-0.0027909
-0.00268807
-0.00247377
-0.00208901
-0.00145177
-0.000463566
0.000892268
0.00225557
0.00296936
0.00237586
)
;

boundaryField
{
    floor
    {
        type            calculated;
        value           nonuniform List<scalar> 
36
(
0
0
0
0
0
0
0
0
0
0
0
0
0
0
0
0
0
0
0
-4.83913e-06
-1.23785e-05
-1.85698e-05
-2.36401e-05
-2.11164e-05
-1.96191e-05
-1.84535e-05
-2.35095e-06
-3.78393e-06
-4.35937e-06
-5.04466e-06
-3.65661e-06
-7.64377e-06
-1.10003e-05
-1.12617e-05
-1.38372e-05
-1.19389e-05
)
;
    }
    ceiling
    {
        type            calculated;
        value           nonuniform List<scalar> 
43
(
-4.18423e-05
-4.11774e-05
-4.04776e-05
-2.74134e-05
-2.22691e-05
-1.86043e-05
-1.50282e-05
-1.2003e-05
-9.92732e-06
-8.50018e-06
-7.66529e-06
-7.28594e-06
-7.13837e-06
-7.11087e-06
-7.12242e-06
-7.14032e-06
-7.16755e-06
-7.20929e-06
-7.25886e-06
-7.29063e-06
-7.28982e-06
-7.25582e-06
-7.18242e-06
-7.08082e-06
-6.95281e-06
-6.80961e-06
-6.64881e-06
-6.47546e-06
-6.28408e-06
-6.07904e-06
-5.85936e-06
-5.62545e-06
-5.37672e-06
-5.10608e-06
-4.81148e-06
-4.42496e-06
-4.1396e-06
-4.04936e-06
-4.18147e-06
-3.60376e-06
6.94079e-06
4.17897e-06
-5.33149e-05
)
;
    }
    sWall
    {
        type            calculated;
        value           uniform -0.000241395;
    }
    nWall
    {
        type            calculated;
        value           nonuniform List<scalar> 6(-5.43172e-05 -6.54339e-05 -6.88134e-05 -8.33261e-05 -9.16831e-05 -0.000110141);
    }
    sideWalls
    {
        type            empty;
        value           nonuniform 0();
    }
    glass1
    {
        type            calculated;
        value           nonuniform List<scalar> 9(-6.04581e-05 -0.000163402 -0.000250424 -0.00032465 -0.000387723 -0.000440785 -0.000487285 -0.000543339 -0.000605862);
    }
    glass2
    {
        type            calculated;
        value           nonuniform List<scalar> 2(-0.00028641 -0.000317011);
    }
    sun
    {
        type            calculated;
        value           uniform 0;
    }
    Table_master
    {
        type            calculated;
        value           nonuniform List<scalar> 9(-1.5364e-07 -1.53789e-07 -1.53839e-07 -1.53869e-07 -1.53889e-07 -1.53902e-07 -1.53906e-07 -1.539e-07 -1.5387e-07);
    }
    Table_slave
    {
        type            calculated;
        value           nonuniform List<scalar> 9(1.5353e-07 1.53515e-07 1.53468e-07 1.53431e-07 1.53408e-07 1.53409e-07 1.53413e-07 1.53451e-07 1.53535e-07);
    }
    inlet
    {
        type            calculated;
        value           uniform -0.0106584;
    }
    outlet
    {
        type            calculated;
        value           nonuniform List<scalar> 2(0.0123317 0.00356975);
    }
}


// ************************************************************************* //
