/*--------------------------------*- C++ -*----------------------------------*\
  =========                 |
  \\      /  F ield         | OpenFOAM: The Open Source CFD Toolbox
   \\    /   O peration     | Website:  https://openfoam.org
    \\  /    A nd           | Version:  6
     \\/     M anipulation  |
\*---------------------------------------------------------------------------*/
FoamFile
{
    version     2.0;
    format      ascii;
    class       volVectorField;
    location    "1710";
    object      U;
}
// * * * * * * * * * * * * * * * * * * * * * * * * * * * * * * * * * * * * * //

dimensions      [0 1 -1 0 0 0 0];

internalField   nonuniform List<vector> 
458
(
(0.0348253 0.0885223 0)
(-0.17208 0.026584 0)
(-0.199349 0.0191137 0)
(-0.233224 0.0130816 0)
(-0.258397 0.00641428 0)
(-0.273602 -0.00080415 0)
(-0.276733 -0.00877727 0)
(-0.265487 -0.0177769 0)
(-0.239431 -0.0274254 0)
(-0.199721 -0.0361099 0)
(-0.150458 -0.0420496 0)
(-0.0978426 -0.0436498 0)
(-0.0487421 -0.0390813 0)
(-0.00628473 -0.0236914 0)
(-0.0102727 0.00976709 0)
(-0.010223 0.0105031 0)
(-0.0372397 -0.0175015 0)
(-0.0144877 -0.0291218 0)
(0.0137195 -0.0251889 0)
(0.0334833 -0.0178924 0)
(0.0481026 -0.00955729 0)
(0.0568615 -0.00517849 0)
(0.0607378 -0.00363435 0)
(0.0621713 -0.00308437 0)
(0.0628192 -0.00276124 0)
(0.0631278 -0.00251067 0)
(0.0630658 -0.00224249 0)
(0.0624667 -0.0017979 0)
(0.0608729 -0.000838425 0)
(0.0572675 0.00107611 0)
(0.0505426 0.00317413 0)
(0.0451267 0.00509279 0)
(-0.0141309 0.0219543 0)
(0.214274 0.18189 0)
(-0.162149 0.070993 0)
(-0.162942 0.0577631 0)
(-0.198657 0.0457441 0)
(-0.224134 0.0319892 0)
(-0.240111 0.0161769 0)
(-0.244614 -0.0024082 0)
(-0.23512 -0.0239643 0)
(-0.211873 -0.0461668 0)
(-0.176493 -0.0649233 0)
(-0.133365 -0.0764238 0)
(-0.0881376 -0.0781973 0)
(-0.0462713 -0.0687308 0)
(-0.010041 -0.0460239 0)
(0.0193973 -0.0133892 0)
(0.0442288 0.00784544 0)
(0.0548379 0.0347561 0)
(-0.0118197 0.0706803 0)
(0.0670553 0.0439651 0)
(0.010322 -0.0218357 0)
(0.0265327 -0.0379057 0)
(0.0407656 -0.0356517 0)
(0.0531571 -0.0273444 0)
(0.0595845 -0.012092 0)
(0.0612054 -0.00275067 0)
(0.0612539 0.000748489 0)
(0.0614176 0.00202594 0)
(0.0617426 0.0027247 0)
(0.0619675 0.00322441 0)
(0.0620246 0.00367755 0)
(0.0619202 0.00441024 0)
(0.0612085 0.00620931 0)
(0.0578103 0.0112304 0)
(0.0491157 0.0155429 0)
(0.0476991 0.0187188 0)
(-0.0584081 0.0475617 0)
(0.379536 0.272956 0)
(-0.180118 0.113733 0)
(-0.123512 0.0941101 0)
(-0.159197 0.0724354 0)
(-0.182599 0.0495042 0)
(-0.19841 0.0236445 0)
(-0.204063 -0.00653222 0)
(-0.195375 -0.0409759 0)
(-0.173594 -0.0757759 0)
(-0.141429 -0.103643 0)
(-0.103848 -0.118948 0)
(-0.065903 -0.119153 0)
(-0.0318318 -0.104119 0)
(-0.00228864 -0.0744025 0)
(0.0220171 -0.0400785 0)
(0.0375813 -0.0152239 0)
(0.0431638 0.0131563 0)
(-0.0236809 0.0623046 0)
(0.122497 -0.00756882 0)
(0.0724965 -0.0321123 0)
(0.0642968 -0.0419414 0)
(0.067248 -0.0417665 0)
(0.07186 -0.0380531 0)
(0.07349 -0.0282299 0)
(0.0643679 -0.0183282 0)
(0.057413 -0.0130255 0)
(0.0548155 -0.0100771 0)
(0.0541259 -0.00818459 0)
(0.0538934 -0.00689623 0)
(0.0539654 -0.00590101 0)
(0.0547666 -0.00475124 0)
(0.0572207 -0.0013952 0)
(0.0561166 0.0150019 0)
(0.0445996 0.0258829 0)
(0.0541328 0.0332669 0)
(-0.0993534 0.0728116 0)
(0.530033 0.346653 0)
(-0.216671 0.151755 0)
(-0.0801987 0.125837 0)
(-0.115537 0.0962975 0)
(-0.133416 0.0672252 0)
(-0.146928 0.0337651 0)
(-0.152514 -0.0071081 0)
(-0.142619 -0.0550495 0)
(-0.121288 -0.102302 0)
(-0.0929798 -0.137832 0)
(-0.0625345 -0.155418 0)
(-0.0335764 -0.153422 0)
(-0.00880359 -0.133436 0)
(0.0128572 -0.0979239 0)
(0.0304204 -0.0589737 0)
(0.0443393 -0.0228983 0)
(0.0599316 0.0131436 0)
(0.0587919 0.0534263 0)
(0.100297 0.0615006 0)
(0.0987748 -0.00245655 0)
(0.0851022 -0.0294021 0)
(0.078418 -0.0377003 0)
(0.073568 -0.038404 0)
(0.0669722 -0.0341191 0)
(0.0665525 -0.0208431 0)
(0.0772342 -0.0138331 0)
(0.086203 -0.0101099 0)
(0.091608 -0.00782703 0)
(0.0948535 -0.00591941 0)
(0.0962661 -0.00385823 0)
(0.0945026 -0.00119218 0)
(0.088243 0.00247916 0)
(0.0757005 0.00774301 0)
(0.0597895 0.0251053 0)
(0.0440573 0.0405968 0)
(0.0629716 0.0533635 0)
(-0.131361 0.0943001 0)
(0.662687 0.403811 0)
(-0.262356 0.182677 0)
(-0.0350328 0.145257 0)
(-0.0687481 0.111319 0)
(-0.0779437 0.0792338 0)
(-0.0862906 0.0412515 0)
(-0.0890456 -0.00798425 0)
(-0.074024 -0.0688097 0)
(-0.0534788 -0.125894 0)
(-0.031576 -0.165064 0)
(-0.0112733 -0.181833 0)
(0.00616215 -0.175984 0)
(0.0193248 -0.151479 0)
(0.0303404 -0.114535 0)
(0.0401856 -0.0729534 0)
(0.0494227 -0.0337172 0)
(0.0619122 0.00067819 0)
(0.0760038 0.0197148 0)
(0.0902843 -0.000569612 0)
(0.0896341 -0.0213786 0)
(0.0825609 -0.0300407 0)
(0.0737509 -0.0325573 0)
(0.0655057 -0.0316387 0)
(0.0585622 -0.0266423 0)
(0.0567844 -0.0155199 0)
(0.0603444 -0.009035 0)
(0.064693 -0.00638171 0)
(0.0684235 -0.00483999 0)
(0.0716732 -0.00275965 0)
(0.0741855 0.000772572 0)
(0.0750408 0.00596243 0)
(0.07315 0.0129838 0)
(0.0682416 0.0224377 0)
(0.0611949 0.0371821 0)
(0.0500444 0.0536394 0)
(0.0748512 0.072763 0)
(-0.0068476 0.101404 0)
(0.0557809 0.150676 0)
(-0.0835287 0.0748313 0)
(-0.277795 0.000480413 0)
(0.761896 0.451326 0)
(-0.308554 0.203338 0)
(0.00243085 0.143885 0)
(-0.020583 0.116258 0)
(-0.0197871 0.0857216 0)
(-0.0214954 0.0472964 0)
(-0.0143078 -0.00693309 0)
(0.0103246 -0.0859223 0)
(0.0269327 -0.146184 0)
(0.0388347 -0.182413 0)
(0.046054 -0.194544 0)
(0.0489014 -0.185044 0)
(0.0486358 -0.158115 0)
(0.0472289 -0.119911 0)
(0.0460503 -0.0779283 0)
(0.0464584 -0.0396922 0)
(0.0507992 -0.00997615 0)
(0.0599342 0.00483577 0)
(0.0662008 -0.00104547 0)
(0.0649409 -0.0110136 0)
(0.0585501 -0.0188104 0)
(0.0503763 -0.0229185 0)
(0.0427378 -0.0236712 0)
(0.0367635 -0.0211472 0)
(0.0342169 -0.0157843 0)
(0.0353732 -0.0123096 0)
(0.0383342 -0.0108796 0)
(0.0419969 -0.00979161 0)
(0.0460627 -0.00765447 0)
(0.0502501 -0.00339824 0)
(0.0544658 0.00367408 0)
(0.0569858 0.0131819 0)
(0.0581527 0.0249437 0)
(0.0592773 0.0395821 0)
(0.0583534 0.0560079 0)
(0.0796997 0.0767073 0)
(0.0654394 0.089002 0)
(0.0997187 0.0967395 0)
(0.117478 0.0571988 0)
(-0.136902 -0.0299355 0)
(0.815619 0.49419 0)
(-0.334126 0.187369 0)
(0.0322407 0.0937979 0)
(0.0390636 0.101051 0)
(0.0459345 0.082997 0)
(0.0516298 0.0393685 0)
(0.0791079 -0.0311712 0)
(0.103121 -0.1037 0)
(0.113298 -0.157008 0)
(0.112875 -0.186321 0)
(0.104595 -0.192422 0)
(0.0908029 -0.178768 0)
(0.0741072 -0.149763 0)
(0.0575123 -0.111553 0)
(0.0429778 -0.0708928 0)
(0.0326121 -0.0356697 0)
(0.028082 -0.010729 0)
(0.0294682 0.00101492 0)
(0.031096 -0.000266707 0)
(0.0295906 -0.00656326 0)
(0.0249353 -0.0126305 0)
(0.0188137 -0.0163753 0)
(0.0127883 -0.0177536 0)
(0.00798433 -0.0171203 0)
(0.00562815 -0.0152156 0)
(0.00597672 -0.0141239 0)
(0.00802149 -0.0139913 0)
(0.011024 -0.0137646 0)
(0.0148223 -0.012382 0)
(0.0195026 -0.00875774 0)
(0.0256711 -0.00164975 0)
(0.0332861 0.00886197 0)
(0.0400542 0.0208894 0)
(0.0478632 0.0341636 0)
(0.0558624 0.047966 0)
(0.0754412 0.0644657 0)
(0.0882247 0.0697813 0)
(0.119668 0.0632129 0)
(0.163391 0.0513029 0)
(-0.0203433 0.0954838 0)
(0.921875 0.497289 0)
(-0.0766817 0.167418 0)
(0.110607 0.026157 0)
(0.163739 0.022786 0)
(0.161404 0.0155386 0)
(0.162874 -0.029371 0)
(0.196502 -0.0804144 0)
(0.211286 -0.125542 0)
(0.205376 -0.158272 0)
(0.185108 -0.173973 0)
(0.155602 -0.171664 0)
(0.121103 -0.153966 0)
(0.0853077 -0.124268 0)
(0.0523804 -0.0880636 0)
(0.0244694 -0.0510348 0)
(0.00511054 -0.0218875 0)
(-0.00465099 -0.00438716 0)
(-0.00658504 0.00178976 0)
(-0.00646964 0.000678958 0)
(-0.007672 -0.00365535 0)
(-0.0109742 -0.00801102 0)
(-0.0154739 -0.0110834 0)
(-0.0201068 -0.0128609 0)
(-0.0239681 -0.0137043 0)
(-0.0263461 -0.0141619 0)
(-0.0272335 -0.0149146 0)
(-0.0271951 -0.0158975 0)
(-0.0266124 -0.0166087 0)
(-0.0254849 -0.0165199 0)
(-0.0235059 -0.0150538 0)
(-0.0198812 -0.0114793 0)
(-0.0117315 -0.0049193 0)
(-0.000110989 0.00445515 0)
(0.0110719 0.0137636 0)
(0.022676 0.020871 0)
(0.0398899 0.0277436 0)
(0.0554244 0.022445 0)
(0.0795681 0.00564866 0)
(0.146406 0.0479749 0)
(-0.428343 0.212664 0)
(1.06591 0.444168 0)
(0.51824 0.298303 0)
(0.529536 0.249856 0)
(0.518397 0.1829 0)
(0.469849 0.122432 0)
(0.433174 0.0601069 0)
(0.392064 -0.00742765 0)
(0.342861 -0.0669797 0)
(0.289103 -0.107856 0)
(0.232764 -0.126601 0)
(0.175381 -0.125088 0)
(0.118921 -0.108904 0)
(0.0654738 -0.0822784 0)
(0.0202511 -0.0512472 0)
(-0.0160981 -0.020803 0)
(-0.0329555 -0.006015 0)
(-0.0401432 0.000489447 0)
(-0.0416917 0.00223903 0)
(-0.0420688 0.00102407 0)
(-0.0432108 -0.00162976 0)
(-0.0458404 -0.00451385 0)
(-0.04949 -0.00705384 0)
(-0.0535123 -0.00915281 0)
(-0.0573739 -0.0108897 0)
(-0.0608187 -0.0123983 0)
(-0.0640101 -0.0137783 0)
(-0.0673535 -0.0148731 0)
(-0.0712232 -0.0153257 0)
(-0.075972 -0.0146516 0)
(-0.0820724 -0.0121976 0)
(-0.090216 -0.0071266 0)
(-0.101127 0.00142048 0)
(-0.112762 0.0133189 0)
(-0.127991 0.028414 0)
(-0.152912 0.0467855 0)
(-0.190235 0.0673938 0)
(-0.241636 0.0862232 0)
(-0.297567 0.0999125 0)
(-0.371651 0.106902 0)
(-0.650668 0.106292 0)
(0.233929 0.0528242 0)
(0.305892 0.115949 0)
(0.32122 0.091351 0)
(0.299647 0.0395622 0)
(0.275054 -0.0106136 0)
(0.244394 -0.0469438 0)
(0.203105 -0.0684099 0)
(0.15401 -0.0754059 0)
(0.100443 -0.0686884 0)
(0.0461688 -0.0529093 0)
(-0.00862662 -0.0295015 0)
(-0.0451379 -0.0114607 0)
(-0.0636045 -0.00307726 0)
(-0.0709275 -0.00069189 0)
(-0.0731483 -0.000231219 0)
(-0.0734593 -0.000943778 0)
(-0.0737583 -0.00255604 0)
(-0.074898 -0.00465557 0)
(-0.0771131 -0.00675058 0)
(-0.0803668 -0.00854288 0)
(-0.0841563 -0.0100238 0)
(-0.0882571 -0.0111546 0)
(-0.0926847 -0.0119368 0)
(-0.0975929 -0.0123298 0)
(-0.10313 -0.0121511 0)
(-0.109327 -0.0110571 0)
(-0.116051 -0.00857826 0)
(-0.122958 -0.00417028 0)
(-0.129425 0.00272822 0)
(-0.134402 0.0123295 0)
(-0.13837 0.0256133 0)
(-0.141807 0.043178 0)
(-0.146017 0.0642233 0)
(-0.15177 0.0850535 0)
(-0.155355 0.0955492 0)
(-0.141297 0.0734015 0)
(-0.110232 -0.0250106 0)
(-0.286612 -0.213744 0)
(0.120032 0.324329 0)
(0.00838799 0.203582 0)
(0.0392577 0.118436 0)
(0.0584682 0.0604212 0)
(0.0631134 0.0216138 0)
(0.060098 -0.00479195 0)
(0.0401838 -0.0199091 0)
(0.00540531 -0.0189417 0)
(-0.0366059 -0.00171694 0)
(-0.0701237 0.0128685 0)
(-0.0912336 0.0208694 0)
(-0.100242 0.0232574 0)
(-0.102448 0.0233853 0)
(-0.102378 0.0234326 0)
(-0.101493 0.0241335 0)
(-0.100455 0.0252475 0)
(-0.0997313 0.0263803 0)
(-0.0996058 0.0271311 0)
(-0.100132 0.0270678 0)
(-0.101269 0.025851 0)
(-0.103059 0.0238169 0)
(-0.105433 0.0215791 0)
(-0.10833 0.0194104 0)
(-0.111658 0.0174547 0)
(-0.115275 0.0158141 0)
(-0.118967 0.0145999 0)
(-0.122423 0.0139508 0)
(-0.125159 0.0140246 0)
(-0.126361 0.0155166 0)
(-0.124857 0.0198854 0)
(-0.11907 0.028293 0)
(-0.107615 0.0417391 0)
(-0.0903481 0.0602413 0)
(-0.0683135 0.0804261 0)
(-0.0434427 0.0948376 0)
(-0.00757718 0.0857747 0)
(0.14694 0.00930165 0)
(-0.209929 -0.129686 0)
(-0.422111 -0.516024 0)
(-0.637314 -0.143278 0)
(-0.449399 0.177747 0)
(-0.357941 0.0560656 0)
(-0.213915 -0.00555213 0)
(-0.145638 -0.0477948 0)
(-0.117203 -0.0705297 0)
(-0.113026 -0.0713416 0)
(-0.122383 -0.0626628 0)
(-0.13489 -0.0549484 0)
(-0.140367 -0.0504744 0)
(-0.138604 -0.0490251 0)
(-0.134137 -0.0498895 0)
(-0.128939 -0.0526832 0)
(-0.12445 -0.0561832 0)
(-0.120974 -0.059808 0)
(-0.118147 -0.0634437 0)
(-0.115714 -0.0671433 0)
(-0.113628 -0.0707466 0)
(-0.111962 -0.0737498 0)
(-0.110855 -0.0755511 0)
(-0.110478 -0.0757191 0)
(-0.110932 -0.0743425 0)
(-0.112168 -0.0720036 0)
(-0.114004 -0.0689322 0)
(-0.116211 -0.0652892 0)
(-0.118511 -0.0610997 0)
(-0.120537 -0.0562895 0)
(-0.121809 -0.0506426 0)
(-0.121694 -0.0438121 0)
(-0.119174 -0.0358223 0)
(-0.112345 -0.0266957 0)
(-0.0983995 -0.0158873 0)
(-0.0748393 -0.00248925 0)
(-0.0415467 0.0143626 0)
(0.0093222 0.0362841 0)
(0.06187 0.042345 0)
(0.109602 0.0240417 0)
(0.172059 -0.0159451 0)
(-0.196289 -0.0826863 0)
)
;

boundaryField
{
    floor
    {
        type            noSlip;
    }
    ceiling
    {
        type            noSlip;
    }
    sWall
    {
        type            noSlip;
    }
    nWall
    {
        type            noSlip;
    }
    sideWalls
    {
        type            empty;
    }
    glass1
    {
        type            noSlip;
    }
    glass2
    {
        type            noSlip;
    }
    sun
    {
        type            noSlip;
    }
    Table_master
    {
        type            noSlip;
    }
    Table_slave
    {
        type            noSlip;
    }
    inlet
    {
        type            fixedValue;
        value           uniform (0.46194 -0.191342 0);
    }
    outlet
    {
        type            zeroGradient;
    }
}


// ************************************************************************* //
