/*--------------------------------*- C++ -*----------------------------------*\
  =========                 |
  \\      /  F ield         | OpenFOAM: The Open Source CFD Toolbox
   \\    /   O peration     | Website:  https://openfoam.org
    \\  /    A nd           | Version:  6
     \\/     M anipulation  |
\*---------------------------------------------------------------------------*/
FoamFile
{
    version     2.0;
    format      ascii;
    class       volScalarField;
    location    "4370";
    object      nut;
}
// * * * * * * * * * * * * * * * * * * * * * * * * * * * * * * * * * * * * * //

dimensions      [0 2 -1 0 0 0 0];

internalField   nonuniform List<scalar> 
458
(
0.0010694
0.00116385
0.00119015
0.00124709
0.00129953
0.00134919
0.00139889
0.00144931
0.00149053
0.00151643
0.00151935
0.00149178
0.00142424
0.00128125
0.00097197
0.000480393
0.000563168
0.000638493
0.000665746
0.000655326
0.000613254
0.000566704
0.000525053
0.000488967
0.00045763
0.000430267
0.000406311
0.000385078
0.000365739
0.000347395
0.000328976
0.000318032
0.00029229
0.00144199
0.00324244
0.00299045
0.00342648
0.00386122
0.00430839
0.0047093
0.00501953
0.00533816
0.00563632
0.00587546
0.00602089
0.00603459
0.00582472
0.00473472
0.00128297
0.0010644
0.000868435
0.00047652
0.00113087
0.00164829
0.00204896
0.00217558
0.00158548
0.0013385
0.00117036
0.00104633
0.000951284
0.000875933
0.000810964
0.000749854
0.000688856
0.000634372
0.00058858
0.00072
0.000384254
0.00175321
0.00435747
0.00359598
0.0043846
0.00471624
0.00494897
0.00512785
0.00529302
0.0055225
0.00580158
0.00610652
0.00640541
0.00664155
0.00672484
0.00633681
0.00516483
0.00391438
0.00102563
0.000734004
0.00126657
0.00184323
0.00241704
0.00258096
0.00082421
0.000721588
0.000636187
0.000567024
0.00051121
0.000465979
0.000429211
0.000399479
0.000376353
0.000417088
0.00048304
0.000844719
0.00045409
0.00205326
0.00556669
0.00349818
0.00454302
0.00472467
0.00470691
0.00469039
0.00476976
0.00495624
0.00523214
0.00558271
0.00597397
0.00631697
0.00653319
0.00648473
0.0061498
0.00527796
0.00289772
0.0011816
0.00150486
0.00206904
0.00276002
0.00335862
0.00338827
0.000928399
0.000851015
0.000798304
0.0007594
0.0007265
0.000693849
0.000662805
0.000630003
0.000591658
0.000557352
0.00054916
0.00100685
0.000522985
0.00235968
0.00719301
0.00366947
0.00431274
0.00457252
0.00441845
0.00429291
0.00436501
0.00456181
0.00484907
0.00522713
0.00565607
0.00599223
0.0061599
0.00615627
0.00603941
0.00569137
0.0047063
0.00426545
0.0042969
0.00454774
0.00484654
0.00502994
0.00494774
0.0042217
0.00384831
0.00364211
0.0034946
0.00334527
0.00315282
0.00282603
0.0024052
0.00192649
0.00146546
0.00109908
0.00102379
0.000888768
0.000699215
0.000740174
0.000804525
0.00268783
0.00902586
0.0050261
0.0039931
0.00435247
0.00434412
0.00418432
0.00424418
0.00444526
0.00473229
0.00511557
0.00552705
0.00583833
0.00593775
0.00584399
0.00570997
0.00564954
0.00556872
0.00573667
0.0060278
0.00623219
0.00626869
0.00613148
0.0058445
0.00544359
0.0051177
0.00486346
0.00463968
0.00442034
0.00418764
0.00388632
0.00347342
0.00295118
0.00236042
0.00181364
0.00131491
0.00108078
0.000942861
0.00118734
0.000834447
0.00301107
0.0104105
0.0075008
0.00490769
0.00427112
0.00433304
0.00438926
0.00442082
0.00453408
0.00478692
0.00516419
0.00557212
0.00585778
0.00589002
0.00571166
0.00558304
0.00579813
0.00627367
0.00675821
0.00703193
0.0070333
0.00679964
0.00640268
0.00591989
0.00543929
0.00505235
0.00475931
0.0045217
0.00431388
0.00412721
0.00395729
0.00373505
0.00336973
0.00288241
0.00237592
0.00188908
0.00157134
0.00143955
0.00137216
0.000991352
0.00309071
0.00966354
0.00820322
0.00688319
0.00587501
0.00542897
0.00501063
0.0047254
0.00471889
0.00495968
0.00535007
0.00575354
0.00599451
0.00594037
0.00572218
0.00577854
0.00639244
0.00689585
0.00715795
0.00714618
0.00686245
0.00637143
0.00576611
0.00515637
0.00464999
0.00429513
0.00405579
0.00388382
0.00375672
0.00367095
0.00363284
0.0036342
0.00353671
0.00324679
0.00296417
0.00280664
0.00287511
0.00303521
0.00360528
0.00153578
0.0030299
0.0036534
0.0040343
0.00424626
0.0042757
0.00421072
0.0042109
0.00438519
0.00474102
0.00519584
0.00566289
0.00603227
0.00615278
0.00594297
0.00588502
0.00619705
0.00655729
0.00668102
0.00659211
0.00627989
0.00575725
0.00511091
0.00446655
0.0039376
0.00357182
0.00333884
0.00318253
0.00306375
0.00296245
0.00286725
0.00276959
0.00266235
0.00256517
0.0024813
0.00242569
0.00239428
0.00233475
0.00221199
0.00206267
0.00143461
0.00133523
0.00234712
0.00322224
0.0039068
0.00453199
0.00514125
0.00562576
0.00595245
0.006167
0.00620142
0.00600172
0.00575696
0.00575889
0.00586274
0.00578415
0.00555142
0.00518431
0.00468994
0.00412078
0.00356511
0.00312288
0.00282512
0.00264258
0.00253071
0.00245629
0.00240208
0.00236047
0.00232975
0.00231248
0.00231791
0.00233146
0.00234359
0.00234432
0.00230726
0.00219302
0.00199165
0.0017421
0.00115432
0.00201499
0.00395736
0.00507481
0.00580009
0.00636504
0.00641517
0.00608749
0.00575736
0.00547368
0.0049287
0.00454037
0.00444999
0.00438859
0.00421691
0.00395806
0.00363721
0.00326074
0.00286498
0.00250828
0.00223084
0.00203966
0.00192946
0.00187789
0.00186684
0.00188529
0.00192593
0.00198272
0.00204841
0.00212512
0.00221352
0.00230803
0.0024009
0.0024765
0.00251436
0.00247936
0.0024488
0.00225455
0.00116929
0.00211913
0.00217149
0.00221907
0.00246888
0.00233372
0.00206827
0.00174488
0.00148453
0.00132511
0.00117365
0.00104026
0.000935841
0.000847388
0.000780327
0.000733677
0.00069962
0.000672225
0.000648651
0.000629186
0.000616054
0.000611157
0.00061484
0.000625756
0.000641801
0.000662076
0.000686102
0.00071372
0.000745152
0.000780895
0.000822046
0.000868844
0.000920965
0.000978676
0.00104225
0.00111171
0.00119497
0.00123142
0.0012062
0.00112193
0.00103762
)
;

boundaryField
{
    floor
    {
        type            nutkWallFunction;
        Cmu             0.09;
        kappa           0.41;
        E               9.8;
        value           nonuniform List<scalar> 
36
(
0.000117415
5.72043e-05
6.77289e-05
7.71412e-05
8.05128e-05
7.92257e-05
7.40033e-05
6.81739e-05
6.29082e-05
5.83042e-05
5.42718e-05
5.07224e-05
4.75915e-05
4.47967e-05
4.22341e-05
3.97871e-05
3.73132e-05
3.58347e-05
3.233e-05
3.23299e-05
4.46872e-05
5.38133e-05
6.26445e-05
8.46302e-05
8.96381e-05
9.74411e-05
0.000117415
0.00015352
0.000128266
0.000105117
5.72043e-05
0.000105117
5.67064e-05
0.000123729
8.88863e-05
0.000141874
)
;
    }
    ceiling
    {
        type            nutkWallFunction;
        Cmu             0.09;
        kappa           0.41;
        E               9.8;
        value           nonuniform List<scalar> 
43
(
0.000246187
0.000251841
0.000256969
0.000283773
0.000269378
0.000240788
0.000205397
0.000176377
0.000158332
0.000140959
0.000125446
0.000113143
0.000102597
9.45159e-05
8.88463e-05
8.46801e-05
8.13113e-05
7.83992e-05
7.59853e-05
7.43514e-05
7.37412e-05
7.42003e-05
7.55589e-05
7.75508e-05
8.00591e-05
8.30197e-05
8.64077e-05
9.02447e-05
9.45847e-05
9.95526e-05
0.000105167
0.000111378
0.000118209
0.00012568
0.000133784
0.000143423
0.000147618
0.000144718
0.000134972
0.000125139
0.000343193
0.000407609
0.000234819
)
;
    }
    sWall
    {
        type            nutkWallFunction;
        Cmu             0.09;
        kappa           0.41;
        E               9.8;
        value           uniform 0.000246254;
    }
    nWall
    {
        type            nutkWallFunction;
        Cmu             0.09;
        kappa           0.41;
        E               9.8;
        value           nonuniform List<scalar> 6(9.74417e-05 0.000101045 0.000119707 0.000138738 0.000140469 0.000125146);
    }
    sideWalls
    {
        type            empty;
    }
    glass1
    {
        type            nutkWallFunction;
        Cmu             0.09;
        kappa           0.41;
        E               9.8;
        value           nonuniform List<scalar> 9(0.000128958 0.000171812 0.000206643 0.000239584 0.000272694 0.000307648 0.000341646 0.000349973 0.000343641);
    }
    glass2
    {
        type            nutkWallFunction;
        Cmu             0.09;
        kappa           0.41;
        E               9.8;
        value           nonuniform List<scalar> 2(0.000182232 0.000170839);
    }
    sun
    {
        type            nutkWallFunction;
        Cmu             0.09;
        kappa           0.41;
        E               9.8;
        value           nonuniform List<scalar> 
14
(
0.000128854
0.000139823
0.00014286
0.000149409
0.000155412
0.000161071
0.000166712
0.000172412
0.000177055
0.000179965
0.000180293
0.000177195
0.00016958
0.000153322
)
;
    }
    Table_master
    {
        type            nutkWallFunction;
        Cmu             0.09;
        kappa           0.41;
        E               9.8;
        value           nonuniform List<scalar> 9(9.98119e-05 8.73713e-05 7.68578e-05 6.82185e-05 6.1153e-05 5.53572e-05 5.05942e-05 4.67051e-05 4.36545e-05);
    }
    Table_slave
    {
        type            nutkWallFunction;
        Cmu             0.09;
        kappa           0.41;
        E               9.8;
        value           nonuniform List<scalar> 9(0.000112258 0.000103031 9.66897e-05 9.1978e-05 8.79711e-05 8.39732e-05 8.01512e-05 7.60893e-05 7.13084e-05);
    }
    inlet
    {
        type            calculated;
        value           uniform 0.000167705;
    }
    outlet
    {
        type            calculated;
        value           nonuniform List<scalar> 2(0.00211913 0.00217149);
    }
}


// ************************************************************************* //
