/*--------------------------------*- C++ -*----------------------------------*\
  =========                 |
  \\      /  F ield         | OpenFOAM: The Open Source CFD Toolbox
   \\    /   O peration     | Website:  https://openfoam.org
    \\  /    A nd           | Version:  6
     \\/     M anipulation  |
\*---------------------------------------------------------------------------*/
FoamFile
{
    version     2.0;
    format      ascii;
    class       surfaceScalarField;
    location    "320";
    object      phi;
}
// * * * * * * * * * * * * * * * * * * * * * * * * * * * * * * * * * * * * * //

dimensions      [1 0 -1 0 0 0 0];

internalField   nonuniform List<scalar> 
850
(
-0.0032189
0.00328254
-0.0044364
0.00121749
-0.00535072
0.000914324
-0.00601204
0.000661314
-0.00637138
0.000359341
-0.00637747
6.08486e-06
-0.00597065
-0.000406829
-0.00511879
-0.000851857
-0.00387001
-0.00124879
-0.00236177
-0.00150824
-0.000804724
-0.00155705
0.000490425
-0.00129515
0.00111858
-0.000628158
0.00109428
2.4295e-05
0.0010973
-0.00102385
0.00102826
-0.000728481
-0.000295376
1.2348e-05
-0.00074084
0.000703958
-0.000691621
0.00121708
-0.000513134
0.00149737
-0.000280305
0.0016148
-0.000117443
0.00167218
-5.73833e-05
0.00170487
-3.27047e-05
0.00172052
-1.56667e-05
0.00172336
-2.85528e-06
0.00171428
9.07497e-06
0.00168607
2.81915e-05
0.00161665
6.94114e-05
0.00146842
0.000148209
0.00122784
0.00024057
0.000911212
0.000316614
0.000916963
-0.00233022
0.00578502
-0.00351867
0.00240594
-0.0044798
0.00187545
-0.00516451
0.00134602
-0.00555425
0.000749085
-0.00560384
5.56741e-05
-0.00526093
-0.000749751
-0.00450783
-0.00160495
-0.00342517
-0.00233146
-0.00218018
-0.00275323
-0.000975203
-0.00276204
4.33358e-05
-0.0023137
0.000787939
-0.00137277
0.00129108
-0.000478851
0.00211388
0.000274495
0.00178891
0.000330028
0.00122382
0.000570739
0.00123993
2.06824e-05
0.00102099
0.000450395
-0.000725098
0.000866416
-0.00115687
0.00122827
-0.00105349
0.00151473
-0.000799602
0.00158119
-0.000346773
0.0015911
-0.000127368
0.00160253
-6.8823e-05
0.00161198
-4.21711e-05
0.00161739
-2.10903e-05
0.00161965
-5.12833e-06
0.00161871
1.00017e-05
0.00161153
3.53654e-05
0.00156927
0.000111654
0.0013929
0.000324565
0.00109133
0.000542121
0.00072145
0.000686482
0.0016533
-0.00164872
0.00769828
-0.00267545
0.00343267
-0.00356395
0.00276395
-0.0041946
0.00197667
-0.00458033
0.00113481
-0.00466876
0.000144104
-0.00437487
-0.00104364
-0.0036905
-0.00228933
-0.00274183
-0.00328012
-0.00170494
-0.00379012
-0.000745929
-0.00372105
3.56032e-05
-0.00309524
0.000689712
-0.00202688
0.00120165
-0.000990798
0.0015924
-0.000116264
0.0014833
0.000439128
0.00102796
0.00102607
0.00228269
0.00152275
-0.000483937
0.00171887
-0.000921225
0.00166317
-0.00110118
0.00171536
-0.0011057
0.00194576
-0.00103001
0.00159913
0.00147191
0.00140323
0.0013612
0.00134025
0.00133526
0.00134541
0.00138091
0.00149271
0.00122812
0.00058914
0.000911725
0.000858497
0.000535679
0.00106251
0.0022114
-0.00114691
0.00918895
-0.00195368
0.00423944
-0.00259971
0.00340998
-0.00307273
0.00244968
-0.00338991
0.00145199
-0.00348385
0.000238034
-0.00320123
-0.00132626
-0.00256881
-0.00292174
-0.00177469
-0.00407424
-0.000973798
-0.00459101
-0.000276554
-0.0044183
0.00027768
-0.00364948
0.00075786
-0.00250707
0.00112983
-0.00136278
0.0014003
-0.000386739
0.00148792
0.000351497
0.00155319
0.000960802
0.00254631
0.00128956
0.00220105
0.000361569
0.00205151
-0.000334403
0.00197487
-0.000844592
0.00187254
-0.000998854
0.00174777
-0.000980942
0.00151799
-0.000800244
0.00188902
-0.000371202
0.00208035
-0.000191497
0.00220856
-0.000128381
0.00229451
-8.61228e-05
0.00232746
-3.31152e-05
0.00228749
3.97922e-05
0.00215026
0.000137065
0.00188049
0.00026959
0.0014157
0.000464622
0.00118188
0.00082294
0.000814004
0.00122635
0.00030905
0.00156745
0.00254921
-0.000776106
0.0103766
-0.00136645
0.00482978
-0.00160275
0.00364629
-0.00181413
0.00266106
-0.00197381
0.00161167
-0.0019971
0.000261323
-0.00165433
-0.00166904
-0.00109302
-0.00348305
-0.000518533
-0.00464873
-2.17351e-05
-0.00508781
0.00036219
-0.00480223
0.000650783
-0.00393808
0.000892788
-0.00274908
0.00108015
-0.00155014
0.00124318
-0.000549783
0.0014124
0.000182273
0.00169633
0.000676862
0.00215329
0.000832587
0.00218448
0.000330376
0.0021202
-0.000270131
0.00191892
-0.000643318
0.0017069
-0.000786852
0.00150689
-0.000780948
0.00136075
-0.000654114
0.00141931
-0.00042978
0.00150361
-0.000275811
0.00157869
-0.000203485
0.00164671
-0.000154157
0.00169901
-8.54424e-05
0.00171356
2.52278e-05
0.00166822
0.000182384
0.00155268
0.000385104
0.00137514
0.000642142
0.00120685
0.000991207
0.00102547
0.00140771
0.000642439
0.00195047
0.000882049
0.00230958
-0.00134321
0.00225068
-0.00200653
0.000687118
-0.00192418
-0.000636566
0.0114821
-0.00100164
0.00519485
-0.000645563
0.00329021
-0.000491738
0.00250723
-0.000445877
0.0015658
-0.000204702
2.01443e-05
0.000267019
-0.00214076
0.000681369
-0.00389739
0.000956521
-0.00492387
0.00108002
-0.00521131
0.00109507
-0.00481727
0.00104913
-0.00389215
0.000980594
-0.00268057
0.000916893
-0.00148645
0.000908559
-0.00054146
0.000997312
9.35103e-05
0.0012082
0.000465962
0.00151043
0.000530348
0.00163086
0.000209943
0.00153967
-0.000178951
0.00134305
-0.000446718
0.00112788
-0.000571693
0.000932663
-0.000585749
0.000796526
-0.000517996
0.000768081
-0.000401355
0.000808223
-0.000315974
0.000879328
-0.000274612
0.000967318
-0.00024217
0.00106374
-0.000181886
0.0011523
-6.33581e-05
0.00121182
0.00012284
0.00124065
0.000356255
0.00125168
0.000631088
0.0012879
0.000954964
0.00140481
0.00129078
0.00163415
0.00172111
0.00204302
0.0019007
0.00240929
0.00188438
0.00189062
0.00120577
3.84191e-05
-0.000737396
0.0127387
-0.000550457
0.00500791
0.000573973
0.00216578
0.00105672
0.00202448
0.00146535
0.00115717
0.0020472
-0.000561717
0.0024834
-0.00257695
0.00264382
-0.00405781
0.00254402
-0.00482406
0.00223353
-0.00490082
0.00180049
-0.00438423
0.00132975
-0.00342142
0.000885348
-0.00223618
0.000533557
-0.00113468
0.000342384
-0.000350299
0.000338236
9.76463e-05
0.000484977
0.00031921
0.000685731
0.000329582
0.000762754
0.000132908
0.000689767
-0.000105978
0.000531551
-0.000288519
0.000346644
-0.000386804
0.000176144
-0.000415269
5.58273e-05
-0.000397701
1.49682e-05
-0.000360518
3.94229e-05
-0.000340452
0.000102974
-0.000338188
0.000193204
-0.000332425
0.000310435
-0.000299143
0.00045913
-0.000212079
0.000621689
-3.97442e-05
0.000783435
0.000194485
0.000957777
0.000456722
0.00117662
0.000736092
0.00147424
0.000993138
0.0019122
0.00128313
0.00250841
0.00130447
0.00338735
0.00100543
0.00364508
0.000948021
0.00375836
0.0029701
0.0103477
0.00369636
0.00428164
0.00358172
0.00228041
0.00371897
0.00188723
0.00424906
0.000627072
0.00487132
-0.00118399
0.00503875
-0.00274438
0.00473959
-0.00375863
0.00407333
-0.00415779
0.00317847
-0.00400596
0.0021961
-0.00340187
0.00124596
-0.0024713
0.000417896
-0.00140814
-0.000146945
-0.000569854
-0.000406191
-9.10686e-05
-0.000438304
0.000129744
-0.000341891
0.000222782
-0.000220934
0.000208609
-0.000182896
9.48528e-05
-0.000243817
-4.50764e-05
-0.000369487
-0.000162869
-0.000517307
-0.000239007
-0.00065254
-0.000280059
-0.000750265
-0.000300001
-0.000797594
-0.000313214
-0.000805865
-0.000332208
-0.000790508
-0.00035357
-0.000757233
-0.000365727
-0.000699909
-0.000356493
-0.000599098
-0.000312915
-0.00042091
-0.000217959
-0.000184792
-4.16587e-05
8.17428e-05
0.000190161
0.00038522
0.00043259
0.000708467
0.000669867
0.00108722
0.000904355
0.00148451
0.000907156
0.00183241
0.000657509
0.00104698
0.00173343
0.00512537
0.0109913
0.0152731
0.0127044
0.00484912
0.0113959
0.00319572
0.0104434
0.00157955
0.00935604
-9.6569e-05
0.00800692
-0.00139524
0.00650573
-0.00225742
0.00490789
-0.00255994
0.00329573
-0.0023938
0.00177195
-0.0018781
0.000413277
-0.00111264
-0.000556734
-0.000438149
-0.00105415
-7.24596e-05
-0.00122616
8.0918e-05
-0.00123976
0.000143327
-0.00118267
0.000165679
-0.00112111
0.000147022
-0.00111117
8.48948e-05
-0.00116242
6.15172e-06
-0.00125668
-6.86317e-05
-0.00136856
-0.000127157
-0.00147731
-0.000171329
-0.00157212
-0.000205221
-0.00165253
-0.000232835
-0.00172908
-0.000255685
-0.00181384
-0.000268836
-0.00191693
-0.00026266
-0.00204857
-0.000224875
-0.00222118
-0.000140335
-0.00245029
1.11239e-05
-0.00272487
0.000232898
-0.00307833
0.000543596
-0.00361094
0.000965182
-0.00443012
0.00148902
-0.00559231
0.00206652
-0.00720714
0.00252196
-0.0090579
0.00250825
-0.00842843
0.00110394
-0.00294862
0.00923293
0.00717533
0.00733945
0.00508923
0.00674381
0.00217523
0.00618496
0.000462324
0.00529443
-0.00050468
0.00413387
-0.00109685
0.00271227
-0.00113836
0.00117001
-0.000851567
-0.000258312
-0.000449808
-0.0012893
-8.16801e-05
-0.00179816
7.06855e-05
-0.00198815
0.000117504
-0.00203061
0.000123352
-0.00201056
0.000123259
-0.00196624
0.000121334
-0.00192768
0.000108437
-0.00192117
7.83547e-05
-0.00195175
3.67144e-05
-0.00201231
-8.09995e-06
-0.00208652
-5.29799e-05
-0.00216873
-8.91391e-05
-0.00225908
-0.000114905
-0.00236144
-0.000130502
-0.002481
-0.000136152
-0.00261965
-0.000130213
-0.00277391
-0.000108423
-0.00293417
-6.4644e-05
-0.00308002
5.49793e-06
-0.00319788
0.000128958
-0.00329581
0.000330805
-0.00338828
0.000636038
-0.00348973
0.00106661
-0.00360996
0.00160923
-0.00369879
0.00215533
-0.00365482
0.00247797
-0.00326369
0.0021171
-0.00186203
-0.000297742
-0.00471946
-0.000683593
0.00792391
0.000928464
0.0034772
0.00135994
0.00174378
0.00126766
0.000554613
0.000828718
-6.57633e-05
-8.42339e-06
-0.000259761
-0.00103751
-0.000109303
-0.00191992
3.08082e-05
-0.00248757
0.000117809
-0.00272218
0.000152905
-0.00278129
0.000129769
-0.00276635
0.000102535
-0.00272809
8.50659e-05
-0.00268054
7.56858e-05
-0.00262819
6.89579e-05
-0.00257787
5.809e-05
-0.00253928
3.97289e-05
-0.00251901
1.64198e-05
-0.00251762
-9.5143e-06
-0.00252945
-4.11767e-05
-0.00255464
-6.39849e-05
-0.00259206
-7.75127e-05
-0.0026401
-8.24898e-05
-0.00269701
-7.92657e-05
-0.00275993
-6.73236e-05
-0.00282361
-4.47608e-05
-0.00288093
-7.35079e-06
-0.00291961
4.41528e-05
-0.00290841
0.000117728
-0.00281879
0.000241167
-0.00261343
0.000430649
-0.00226155
0.000714709
-0.00176953
0.00111719
-0.00112873
0.0015145
-9.09133e-05
0.00144013
0.00130614
0.000720018
0.00164082
-0.00063244
-0.00297834
-0.0133415
-0.0172246
-0.00924852
-0.00573575
-0.00396256
-0.00338343
-0.00342832
-0.0036694
-0.00376139
-0.0037139
-0.00357966
-0.00341036
-0.00326413
-0.00314509
-0.00304351
-0.00295128
-0.00286569
-0.00279076
-0.0027339
-0.00269997
-0.00269164
-0.00271469
-0.00276036
-0.00281945
-0.00288348
-0.00294434
-0.00299339
-0.00302009
-0.00300969
-0.00294818
-0.00281358
-0.00255608
-0.00210969
-0.00137989
-0.0002483
0.00127966
0.00273278
0.00346579
0.00284693
)
;

boundaryField
{
    floor
    {
        type            calculated;
        value           nonuniform List<scalar> 
36
(
0
0
0
0
0
0
0
0
0
0
0
0
0
0
0
0
0
0
0
-5.76545e-06
-1.49013e-05
-2.24331e-05
-2.87803e-05
-2.54357e-05
-2.38151e-05
-2.2505e-05
-3.02807e-06
-5.06778e-06
-5.64757e-06
-6.41496e-06
-4.42583e-06
-9.69954e-06
-1.34257e-05
-1.48072e-05
-1.78306e-05
-1.63219e-05
)
;
    }
    ceiling
    {
        type            calculated;
        value           nonuniform List<scalar> 
43
(
-5.39269e-05
-5.30158e-05
-5.21731e-05
-3.55951e-05
-2.94473e-05
-2.45699e-05
-2.09056e-05
-1.87202e-05
-1.73438e-05
-1.6716e-05
-1.64558e-05
-1.64262e-05
-1.64902e-05
-1.65322e-05
-1.65449e-05
-1.65721e-05
-1.66648e-05
-1.68614e-05
-1.71664e-05
-1.75337e-05
-1.78809e-05
-1.81495e-05
-1.83419e-05
-1.84529e-05
-1.84832e-05
-1.8433e-05
-1.83009e-05
-1.80849e-05
-1.77809e-05
-1.73776e-05
-1.69013e-05
-1.63585e-05
-1.57603e-05
-1.51141e-05
-1.44255e-05
-1.34823e-05
-1.30027e-05
-1.30164e-05
-1.3605e-05
-1.36558e-05
1.96996e-06
-1.57841e-07
-6.49668e-05
)
;
    }
    sWall
    {
        type            calculated;
        value           uniform -0.000249595;
    }
    nWall
    {
        type            calculated;
        value           nonuniform List<scalar> 6(-5.9864e-05 -7.20019e-05 -7.4878e-05 -9.12154e-05 -0.000100328 -0.000117773);
    }
    sideWalls
    {
        type            empty;
        value           nonuniform 0();
    }
    glass1
    {
        type            calculated;
        value           nonuniform List<scalar> 9(-6.36453e-05 -0.000172269 -0.000264538 -0.000343764 -0.000411557 -0.000468894 -0.000519279 -0.000579078 -0.000645573);
    }
    glass2
    {
        type            calculated;
        value           nonuniform List<scalar> 2(-0.00032005 -0.000354464);
    }
    sun
    {
        type            calculated;
        value           uniform 0;
    }
    Table_master
    {
        type            calculated;
        value           nonuniform List<scalar> 9(-1.54337e-07 -1.54508e-07 -1.54561e-07 -1.54592e-07 -1.54612e-07 -1.54623e-07 -1.54624e-07 -1.54614e-07 -1.54576e-07);
    }
    Table_slave
    {
        type            calculated;
        value           nonuniform List<scalar> 9(1.54176e-07 1.54156e-07 1.54102e-07 1.54062e-07 1.54044e-07 1.54041e-07 1.54055e-07 1.54105e-07 1.54204e-07);
    }
    inlet
    {
        type            calculated;
        value           uniform -0.0115591;
    }
    outlet
    {
        type            calculated;
        value           nonuniform List<scalar> 2(0.013645 0.0039361);
    }
}


// ************************************************************************* //
