/*--------------------------------*- C++ -*----------------------------------*=========                 |
  \      /  F ield         | OpenFOAM: The Open Source CFD Toolbox
   \    /   O peration     | Website:  https://openfoam.org
    \  /    A nd           | Version:  6
     \/     M anipulation  |
\*---------------------------------------------------------------------------*/
FoamFile
{
    version     2.0;
    format      ascii;
    class       volScalarField;
    location    "320";
    object      PMV;
}
// * * * * * * * * * * * * * * * * * * * * * * * * * * * * * * * * * * * * * //

dimensions      [0 0 0 0 0 0 0];

internalField   nonuniform List<scalar> 
458
(
1.3232374233638249
1.076933258566352
1.042570921076708
1.0138740603582703
0.9960214114577005
0.9885033583767148
0.992921098207728
1.0097501068053933
1.042544795641084
1.095452036312778
1.1715785828411163
1.230025010413753
1.2448298856525644
1.2529483849112422
1.264409415408472
1.3961736382269438
1.3818552391364294
1.377559519437214
1.3856735798840132
1.3918782275425723
1.3966509002361975
1.390131765011881
1.3868920157260185
1.3880322247094865
1.3906067463644713
1.3938139283680118
1.3977713784661374
1.4028361018906603
1.4099966459893214
1.421983554243143
1.4362594124474488
1.4419852245523084
1.4572531222342417
1.2547705993771352
1.0899285798591787
1.076767980025648
1.0482806829685631
1.0321494501358455
1.0248394842006
1.0271865887904503
1.0365380596179212
1.052461983869593
1.0792282074255137
1.1227778779753876
1.1896892344050054
1.2443523200725919
1.2539034879598874
1.2394159824747533
1.204377297596479
1.2128096867832323
1.2421367354784476
1.3563228533527572
1.366581160685519
1.366581160685519
1.3761275927232512
1.3777259110951139
1.3786145224104738
1.3800408984731667
1.3820061867429323
1.3840554761875978
1.3852385952363742
1.3866005689647134
1.388777431495942
1.391275871033145
1.3953049088530567
1.4047798864927104
1.4176492452339038
1.4257616064555594
1.41406520959862
1.2838206661664489
1.0819389628167098
1.110333897825911
1.096462209149081
1.0904744466853684
1.0872941802271763
1.0879945493973453
1.0821380062469403
1.065531374827741
1.0544928107086313
1.071853665314184
1.12965112789252
1.2261774632757063
1.2620217381355803
1.2672746017318366
1.2574474082913163
1.2554656675990359
1.24809266404014
1.2618697289577585
1.3171629136280836
1.3251732440228379
1.3360880275753402
1.3501785809709528
1.3559219493053898
1.3797737345333985
1.3980581411380686
1.3990371926392429
1.4004689539137707
1.401900704514301
1.4038096886425109
1.405241414182664
1.4066731289162273
1.4105961304217036
1.4157404020272406
1.4102264498909485
1.3421325700222941
1.3564706246985891
1.076445365557461
1.1355797172272633
1.1488226291398052
1.168220240127553
1.1799582474483896
1.1809718601464736
1.147003692179306
1.082428967670611
1.030652723719335
1.0297058555540293
1.0899593664043412
1.185644363972826
1.272233611270316
1.2835101006577203
1.2815746127791339
1.2416148101047515
1.217167547590008
1.1743146468291021
1.2389336526542638
1.2787295585815548
1.310306383490037
1.34652183040762
1.3862081559761283
1.4168628142441675
1.4150941793202856
1.4134443758270758
1.4158456488199114
1.4205046638634253
1.4264946991081595
1.4366220490266854
1.4525524324686847
1.4781529706795535
1.4727515529018258
1.451527821902596
1.393990435682825
1.2985718275631877
1.4496448619055415
1.0858166635327857
1.1540836376244077
1.195870703767257
1.25524369057688
1.303773395532622
1.3033832615168506
1.2104938871251179
1.0933798355272115
1.0096890735281452
0.9993191617406649
1.0632919180919624
1.1652099293351887
1.2668299161877192
1.3069065774781041
1.3073840342753107
1.278711062413816
1.2511781888606763
1.2530398313435507
1.2733581661596092
1.309481861893627
1.3557775759690283
1.403925386936454
1.450088082661077
1.4871724802380655
1.500581360520544
1.5063267989555795
1.5102295728487065
1.5125751591416798
1.5119527017560763
1.5118972184578854
1.5121664464122537
1.511788047613873
1.4927963411179574
1.4606515152827806
1.3826485514889726
1.3779433127684866
1.385912862312927
1.4727033019504752
1.352542722947857
1.5464091244248712
1.1163196032658298
1.1869931167077754
1.2293925682892122
1.321670100629502
1.3899691259124018
1.381593812279616
1.226360777990447
1.0840898622353525
0.9890734600209345
0.9785452770034161
1.0503375072860248
1.1674558189283382
1.2883975023814538
1.3398488802957114
1.3431905928501455
1.3398488802957114
1.3380076295009236
1.3444037242475326
1.369822483020296
1.4100688597883628
1.454867604198798
1.487784665183738
1.515448685116058
1.5364316838331715
1.5516900570635992
1.561702422336865
1.568853643735463
1.5717140214757446
1.5717140214757446
1.5674234310198758
1.5602721309561995
1.5471227813963289
1.514276507926427
1.473182669585882
1.3983647570771105
1.3882004619245607
1.3845104814926124
1.4099149482507374
1.4194370250051456
1.6389564452069632
1.2040852440022827
1.3088191459916467
1.2928423630530845
1.3547703727920315
1.4154908421358836
1.3262243922176564
1.1920096364305426
1.047327043999756
0.9563505019905392
0.9612891755024732
1.0571032122263002
1.2014016919658586
1.3494918954801896
1.3856735798840132
1.3933100415936024
1.392832771405365
1.3995144475809604
1.420512472830168
1.4510507047402252
1.4844455632966664
1.5164025247036743
1.544061084347298
1.5659932024730823
1.5812467462921296
1.5917334570601973
1.5974531042641054
1.600312826751927
1.5998362110454527
1.5969764772714066
1.589826848517084
1.5802947696017837
1.568376907925634
1.552041378295144
1.504941778647284
1.4396293887621723
1.4073176826681946
1.3862669224717308
1.359132135775872
1.4632899030346693
1.7794623652460124
1.5743543438611631
1.5173993679774147
1.4052316807141623
1.3841045991271337
1.3629503231104365
1.2676899359787728
1.1060367320560731
0.9595013414448482
0.899685949657565
0.9536190710358762
1.1000566117660515
1.2882957212338697
1.4095365258039163
1.4438937865694033
1.4534362770533589
1.4577302217461057
1.4696572605784235
1.4930316795306802
1.521648529783133
1.5497828543871537
1.5740976207835604
1.5931633940117376
1.6065086584598387
1.615086967841932
1.6188993479259448
1.6203289581202631
1.6193758866231114
1.6165166250330527
1.6117510329922529
1.6050788796781803
1.5960232176647966
1.5845835230876193
1.5707605693113436
1.5550275962485718
1.5373853820458119
1.5278481058659554
1.5001869151587772
1.4232396245274332
1.3359629727561406
1.988314243066288
1.8438040410655587
1.6845096915988984
1.5462363283553913
1.455015815063406
1.3591986688749198
1.122203679715864
0.8952554042816531
0.7912802054226522
0.8325530066010544
0.9954748164506825
1.2300345003642172
1.4128771002434444
1.48158341905499
1.5068638483891597
1.5168794421426712
1.5264174584986068
1.5412001088986567
1.5621791826584164
1.5836301673880107
1.6026958769307673
1.6179462646443472
1.6208660473518508
1.618632012956009
1.6143063188806286
1.609017786368494
1.6019089274034453
1.5928927408993672
1.5829958126434889
1.5707450970666408
1.5571660476796547
1.5415678516203468
1.5266878128557093
1.5094091700906886
1.488983026777488
1.4705624106011679
1.4590888215482385
1.4546312252545974
1.4449630834774994
1.4150962172286772
-1.7206228428926482
-0.8626829382318435
-0.3528803610940745
-0.1760470362277501
0.016705335206681368
0.2691480829114948
0.583662156889479
0.9126379050067593
1.2290698333096293
1.4305334133317724
1.4971889635572375
1.5122275083356609
1.5219997075594713
1.5325747621868373
1.5459773004535
1.5621840980195207
1.578183104792576
1.5901491672091796
1.5964342396255236
1.598110722738394
1.5966833014941126
1.5923064338649984
1.5862539730608172
1.5792261018069804
1.5710963937924538
1.5624804103239074
1.5537483396301852
1.5459354266270309
1.5400000358578247
1.5350370423410287
1.5314489906098792
1.528305579565239
1.5257418248374388
1.5260008483361787
1.53591477318393
1.573375959728532
1.6453520922898093
1.4941002694125247
-1.7269244293805597
-0.6594106096837342
-0.06083467266792437
0.2546541167656619
0.5248699054267622
0.8325295978257785
1.1698436890029316
1.355679321043297
1.4233793237200956
1.47383366999059
1.5019143698382151
1.5187125895478115
1.530731277456223
1.5410861966001173
1.5519000955644071
1.5614901846203375
1.570025100694084
1.5759181545487473
1.5790787675458873
1.5799427159900297
1.5793881032545534
1.5768960179251184
1.57399319744175
1.5707703076214226
1.5673481330649117
1.5638830821944527
1.5605888198721
1.5584363198950424
1.557848564682805
1.559721656210796
1.5655978372429844
1.5760532419148756
1.5869690520107236
1.5962730821459605
1.6067281001501497
1.6432232959697346
1.5892117509868433
1.5352003236290952
-1.1150763877556704
-1.117148121890532
-0.9926736066218553
-0.16232968171439824
0.4549098649926835
0.9016920218929362
1.1867091119877409
1.321060488813323
1.4053520323076287
1.455237608613602
1.4883759553460705
1.5114106816595303
1.526696376465606
1.5363264907408403
1.5436789464113037
1.54884569717528
1.5525962939052882
1.554083527349532
1.5528156430080768
1.5499818320778187
1.546095692685442
1.5421221909447418
1.538737613728733
1.5355220969874714
1.5330384880073968
1.531386482589863
1.5307623095866194
1.5314863413748183
1.5340491663379363
1.5391527323977527
1.5473257436211558
1.5599368661860293
1.5821324741244864
1.621345555534464
1.6679721587376406
1.6732116221918685
1.643101943519686
1.589280940792031
1.5424801555381638
1.5551729878857363
)
;

boundaryField
{
    ".*"
    {
        type            zeroGradient;
    }
}


// ************************************************************************* //
