/*--------------------------------*- C++ -*----------------------------------*=========                 |
  \      /  F ield         | OpenFOAM: The Open Source CFD Toolbox
   \    /   O peration     | Website:  https://openfoam.org
    \  /    A nd           | Version:  6
     \/     M anipulation  |
\*---------------------------------------------------------------------------*/
FoamFile
{
    version     2.0;
    format      ascii;
    class       volScalarField;
    location    "320";
    object      PPD;
}
// * * * * * * * * * * * * * * * * * * * * * * * * * * * * * * * * * * * * * //

dimensions      [0 0 0 0 0 0 0];

internalField   nonuniform List<scalar> 
458
(
41.464273397580456
29.46572397646416
27.943511991632903
26.70514180440638
25.95024227411359
25.635958349435626
25.820375810157714
26.529693331836313
27.94237081920619
30.303342003762808
33.86663108851437
36.72316454441144
37.46187494775492
37.86939986948379
38.44756985068242
45.30174423653555
44.5411556712382
44.31360030273754
44.74367228492184
45.07324168476265
45.327150188427
44.98041540257933
44.808344104229384
44.86888488654564
45.005656518933186
45.17618052664438
45.386809571609774
45.65670819859282
46.03891824455137
46.68030783433443
47.44654632078653
47.75454417751788
48.577538177742774
37.9611024617245
30.052270947439226
29.458301990257183
28.193512329815235
27.490276018487933
27.17474344173442
27.275840360933472
27.680654564183
28.37733818433702
29.568879593683064
31.560662611420383
34.741185344690166
37.43795576417999
37.91745468670535
37.19106637170106
35.45757022290233
35.871643713488666
37.32706480235393
43.19321500646799
43.73344040323074
43.73344040323074
44.237814483717024
44.322408897385614
44.36945870423632
44.44500879875949
44.549157188902925
44.65782320415191
44.72058994499647
44.7928726474569
44.90846349404074
45.041220536878484
45.255508132460385
45.76039060173046
46.448171029504884
46.88284789518856
46.25640285859
39.43417927030509
29.690962263505682
30.984978698776473
30.349373008747662
30.077036845957892
29.932893148467983
29.964606980603946
29.69993655671776
28.95596621813479
28.4668484683432
29.23805828266042
31.88082701425506
36.53214726198633
38.32684765767721
38.5926217174535
38.095965444481365
37.99610391593283
37.62545215969804
38.319166804262494
41.149212997637015
41.564837485925956
42.133272299070754
42.870551307038454
43.172140658101256
44.430855550553346
45.402081111603714
45.45422960275273
45.5305166462312
45.60683293371964
45.7086330461418
45.78501660546514
45.86142858126881
46.07094946327437
46.34601487391985
46.05119637764304
42.449083005089186
43.200983646805255
29.443817445950856
32.158226570637794
32.78195287796653
33.70554630384983
34.27005935411286
34.31900184629308
32.69595139229061
29.71305764803374
27.425509708445404
27.3845794763089
30.053667455268794
34.545011316091745
38.84415124954056
39.41832327391523
39.3195576410795
37.300960948203915
36.08642188972951
33.9981218852507
37.16697721736607
39.174538799488055
40.794528283795024
42.67885076467104
44.77204350214674
46.40607754434199
46.31144168781884
46.223201775903156
46.351646146384034
46.60107424584255
46.92216938552898
47.46604194625399
48.32390013022453
49.70769444843697
49.41525552926328
48.26864376741134
45.18556985113865
40.18987429901143
48.16712521759287
29.866044503309553
33.03128806105842
35.041912399469865
37.984924515179756
40.45752440687242
40.43742896565975
35.75772568094477
30.209026446454146
26.527101541326886
26.088780304279183
28.856384522864232
33.56144863572261
38.570095945875586
40.61903314905023
40.64366389534372
39.17359663741945
37.78039636802818
37.87399987401398
38.90127395163078
40.7519441338132
43.1645520898603
45.71480454841442
48.19101790311064
50.196518540206
50.924253110433014
51.23639954067433
51.44853338155577
51.57606240406897
51.54221702283128
51.539200271312716
51.55383893315863
51.5332644491327
50.50160091698146
48.76104061667823
44.58321211907318
44.33391859176054
44.75637101298644
49.412644231238666
42.994621054998426
53.4178066953918
31.261246792259982
34.61037133870286
36.6917384279307
41.38290908332268
44.971773350931954
44.52729867257365
36.54123906792056
29.788013120686102
25.659715175342342
25.223004776456307
28.283859239795703
33.66892860866378
39.668112238976526
42.32968306935174
42.5044344660393
42.32968306935174
42.233489109950646
42.56792693309203
43.90451835508767
46.04277645874484
48.44879408733859
50.229717910085
51.732329629053694
52.874357755597394
53.705508697204046
54.251030955541005
54.64066372250412
54.79650142102634
54.79650142102634
54.562740998266506
54.173100089437916
53.45668436755457
51.668580215336995
49.43858802723855
45.41841127813234
44.87781936288376
44.681959484653426
46.034553412087114
46.5438914779599
58.4524890789522
35.44326510815819
40.7177274490716
39.89576405277161
43.11162190221049
46.332662657522725
41.6194758766543
34.85394122520934
28.151675247743142
24.316416314690812
24.516485300644717
28.582121672361424
35.31193608439246
42.83453360802435
44.74367228492184
45.149378807929416
45.12399636855212
45.4796553526367
46.60149254841602
48.24291688170441
50.04866712625016
51.78420902815125
53.28989836082844
54.48481607304584
55.31578258914099
55.8868174308851
56.19813734933677
56.35374891788258
56.32781604898106
56.17219881362583
55.783017967986574
55.26393183675837
54.614689743337266
53.72464947786821
51.16113590094796
47.6277765602595
45.89583842616987
44.77516265334167
43.340972136265044
48.90357973443566
65.9439657586275
54.94034244402374
51.838431505218644
45.78449721994681
44.660428828717244
43.54201975052918
38.613665079802324
30.78738516074634
24.44394865956758
22.090152324804606
24.20617492695898
30.51344333089618
39.66290466343962
46.01433678497838
47.857288757763996
48.37157359328701
48.6032933979874
49.247834545130154
50.51437206080429
52.06960608405621
53.60160192589531
54.926356912079285
55.96465878332833
56.69078292618678
57.15712733097832
57.36425836601645
57.44190965775473
57.39014354698276
57.234811637734865
56.975818385024056
56.613021816385164
56.12031903238449
55.497509969536246
54.744556768837825
53.88734915894577
52.92629505173359
52.40701125477656
50.90282981827505
46.74762539713478
42.12674606208432
76.21987356034285
69.24879378061851
60.911285739392866
53.408393440740674
48.45679126228631
43.344473232665685
31.533986005794574
21.921526602503334
18.197211667388416
19.62158650676338
25.927319830079085
36.723636183424134
46.19286942244014
49.89354130339355
51.26558612118758
51.81015004552151
52.32913828772358
53.134060157056965
54.27700769032085
55.445590841195035
56.483398315806895
57.312483806974654
57.47107934265674
57.349736387299664
57.114704032723154
56.82722407038791
56.44058698766394
55.94992575187
55.411043166293496
54.74371382399993
54.003862666030024
53.15409040387706
52.34385370451276
51.40393443401162
50.294713640453104
49.29680061224778
48.67664650767163
48.4360399794027
47.91487002896127
46.3115507080471
62.8429587898424
20.706478156489723
7.591078303155953
5.642436304507001
5.005776923974963
6.504223071371911
12.138732579446213
22.587667223261747
36.6757058634127
47.13891517212194
50.740033317037366
51.55715908396565
52.088714933879416
52.66433673384287
53.39428269072222
54.277275508241466
55.14891098763092
55.800566365928795
56.14268869999761
56.233924288345904
56.15624348302221
55.918009278388745
55.588476432616396
55.20572328327557
54.76285279605977
54.29342034670549
53.81765000426963
53.39200158974637
53.06869624678291
52.798411035410325
52.60304238928467
52.43191382419954
52.292364526592195
52.30646262152128
52.846208281869515
54.887042446942715
58.7988824875796
50.5723658229031
63.17804393155644
14.133373305029451
5.076622270720009
6.346155835732574
10.762128237068396
19.620758339604876
33.78337292564984
43.159387819359615
46.755113639066906
49.473823758400215
50.996658635710865
51.90986937018817
52.56396725063741
53.127855621894554
53.716952060405596
54.23946697590316
54.704487380389544
55.025532383414
55.19769806743144
55.24475629814863
55.21454736747168
55.0788005200564
54.920668205287164
54.74508732251704
54.558638476793035
54.36984591521537
54.190355207050764
54.07307422979125
54.041049969865455
54.14310692416435
54.46327469811577
55.03289121991577
55.627414862381706
56.133917853489514
56.702716856316556
58.683621728384104
55.74952863095289
52.80730245327311
31.203768220235347
31.299580909644575
25.810024627213025
5.54611145742399
9.318862992640632
22.166765441106236
34.596604103901456
41.35127610799752
45.790919369561955
48.46875922201963
50.26178658451534
51.512746787318775
52.34431982661713
52.86862919018968
53.26908238491107
53.55054579431795
53.75488275155604
53.83591231037654
53.76683353930929
53.61244231076176
53.400732189604064
53.18428468088606
52.99993948477792
52.82482468444475
52.689585991786636
52.59963914792691
52.565656732051906
52.605075952251994
52.74461805284837
53.02254821349903
53.46774120141304
54.15483285178959
55.36402337759161
57.497120323245476
60.02109159967714
60.303460013410806
58.67705014821151
55.75329576242209
53.20378292625268
53.89527075268768
)
;

boundaryField
{
    ".*"
    {
        type            zeroGradient;
    }
}


// ************************************************************************* //
