/*--------------------------------*- C++ -*----------------------------------*\
  =========                 |
  \\      /  F ield         | OpenFOAM: The Open Source CFD Toolbox
   \\    /   O peration     | Website:  https://openfoam.org
    \\  /    A nd           | Version:  6
     \\/     M anipulation  |
\*---------------------------------------------------------------------------*/
FoamFile
{
    version     2.0;
    format      ascii;
    class       volScalarField;
    location    "4530";
    object      alphat;
}
// * * * * * * * * * * * * * * * * * * * * * * * * * * * * * * * * * * * * * //

dimensions      [1 -1 -1 0 0 0 0];

internalField   nonuniform List<scalar> 
458
(
0.00124408
0.00135521
0.00138589
0.00145221
0.00151329
0.00157114
0.00162904
0.00168778
0.00173582
0.00176603
0.00176948
0.0017374
0.00165873
0.00149212
0.00113177
0.000559116
0.000655504
0.000743198
0.000774905
0.00076276
0.000713778
0.000659585
0.000611097
0.000569087
0.000532606
0.000500753
0.000472862
0.000448143
0.00042563
0.000404276
0.000382833
0.000370089
0.000340107
0.00167647
0.0037751
0.00348199
0.00398967
0.00449584
0.00501651
0.00548333
0.00584464
0.00621594
0.00656362
0.00684262
0.00701234
0.00702828
0.00678354
0.00551375
0.00149401
0.00123944
0.00101118
0.000554583
0.00131635
0.00191864
0.00238499
0.0025323
0.00184541
0.00155793
0.00136222
0.00121784
0.00110721
0.00101951
0.000943891
0.00087276
0.000801759
0.000738334
0.00068501
0.00083793
0.000447133
0.00203693
0.00507236
0.00418652
0.00510448
0.00549035
0.00576109
0.00596921
0.00616158
0.00642923
0.00675512
0.00711134
0.00746017
0.00773526
0.0078318
0.00737934
0.00601437
0.00455809
0.00119421
0.000854348
0.00147432
0.00214559
0.00281341
0.00300403
0.000959295
0.000839852
0.000740453
0.000659952
0.000594991
0.000542345
0.000499551
0.000464945
0.000438027
0.000485431
0.00056218
0.000983079
0.000528393
0.0023839
0.00647862
0.00407213
0.00528806
0.00549901
0.00547783
0.00545825
0.00555061
0.00576834
0.00609101
0.0065009
0.00695769
0.00735731
0.00760849
0.00755134
0.00716095
0.00614558
0.00337399
0.00137575
0.00175202
0.00240865
0.00321272
0.00390904
0.00394314
0.00108035
0.000990241
0.000928865
0.000883564
0.000845258
0.000807256
0.000771125
0.000732953
0.000688338
0.000648491
0.000639018
0.00117166
0.000608542
0.00273782
0.00836908
0.00427094
0.0050194
0.00532098
0.00514087
0.00499407
0.00507776
0.00530771
0.00564414
0.0060865
0.00658759
0.00697919
0.00717367
0.00716844
0.00703179
0.00662632
0.00547932
0.00496579
0.00500203
0.00529343
0.00564051
0.00585322
0.00575693
0.00491169
0.00447696
0.00423682
0.00406505
0.00389123
0.00366731
0.00328719
0.00279773
0.00224097
0.0017048
0.00127873
0.00119125
0.00103414
0.00081334
0.000860759
0.000935587
0.00311664
0.0104979
0.00584876
0.00464683
0.00506436
0.00505365
0.00486657
0.00493576
0.00517112
0.00550773
0.00595656
0.00643738
0.00680005
0.00691474
0.00680421
0.00664725
0.0065764
0.0064821
0.00667714
0.0070153
0.00725228
0.00729377
0.0071332
0.00679861
0.00633171
0.00595228
0.00565628
0.00539584
0.00514071
0.00487012
0.00451978
0.00403971
0.00343249
0.00274558
0.0021098
0.0015298
0.00125747
0.00109686
0.00138114
0.000970513
0.00348958
0.0121015
0.00872421
0.00570909
0.00496842
0.00503971
0.00510378
0.00514039
0.00527416
0.00557153
0.00601368
0.00649033
0.0068228
0.00685874
0.00664919
0.00649808
0.0067476
0.00730052
0.00786381
0.00818147
0.00818211
0.00790937
0.00744675
0.00688463
0.00632529
0.00587505
0.00553414
0.00525776
0.00501609
0.00479909
0.00460165
0.00434339
0.00391881
0.00335235
0.00276357
0.00219753
0.00182802
0.00167466
0.00159619
0.00115309
0.00357907
0.0112159
0.00952734
0.00799793
0.00682816
0.00631002
0.00582358
0.00549399
0.00549018
0.00577444
0.00623196
0.00670276
0.00698211
0.00691645
0.00665984
0.00672367
0.00743698
0.00802202
0.00832626
0.0083118
0.00798101
0.00740928
0.00670475
0.00599541
0.00540642
0.00499371
0.0047154
0.00451546
0.00436775
0.00426811
0.00422392
0.00422569
0.00411257
0.0037757
0.00344726
0.00326433
0.00334409
0.00353024
0.00419298
0.00178523
0.00350478
0.00423043
0.0046753
0.00492486
0.00496213
0.00488889
0.00489243
0.0051007
0.00552059
0.00605437
0.00659982
0.00702877
0.00716561
0.00691735
0.00684657
0.00720805
0.00762633
0.00776976
0.00766579
0.00730214
0.00669399
0.00594207
0.00519269
0.00457761
0.0041523
0.00388144
0.00369973
0.00356168
0.00344396
0.00333333
0.00321983
0.00309518
0.00298218
0.00288465
0.00281986
0.00278311
0.00271362
0.0025706
0.00239684
0.00166668
0.0015796
0.00276081
0.00377685
0.00457247
0.00530136
0.00601045
0.00657201
0.00694745
0.00719102
0.00722461
0.00698546
0.0066967
0.0066971
0.00681711
0.00672527
0.00645433
0.0060272
0.00545218
0.00479029
0.0041442
0.00363006
0.0032839
0.00307171
0.00294169
0.00285518
0.00279217
0.00274382
0.0027081
0.00268803
0.00269431
0.00271003
0.00272406
0.00272477
0.00268151
0.00254851
0.00231429
0.00202416
0.00134111
0.00238088
0.00465374
0.00595092
0.00679141
0.00744503
0.0074951
0.00710371
0.00671011
0.00637244
0.00573414
0.00528016
0.0051739
0.00510195
0.0049021
0.004601
0.00422787
0.00379012
0.00333002
0.00291537
0.00259288
0.00237067
0.00224259
0.00218265
0.00216982
0.00219126
0.0022385
0.0023045
0.00238085
0.00246999
0.0025727
0.00268252
0.0027904
0.00287818
0.00292204
0.0028812
0.00284549
0.00261977
0.00135855
0.00249155
0.00255345
0.00260944
0.00289324
0.00272908
0.00241447
0.00203373
0.00172835
0.00154177
0.00136496
0.00120949
0.00108793
0.000985007
0.000906998
0.000852744
0.000813139
0.000781284
0.000753874
0.000731245
0.000715977
0.000710284
0.000714563
0.000727248
0.000745896
0.00076946
0.000797384
0.000829479
0.000866015
0.000907555
0.000955385
0.00100977
0.00107034
0.00113741
0.00121128
0.00129199
0.00138871
0.00143101
0.00140167
0.00130373
0.00120559
)
;

boundaryField
{
    floor
    {
        type            compressible::alphatWallFunction;
        Prt             0.85;
        value           nonuniform List<scalar> 
36
(
0.000160683
7.82026e-05
9.26112e-05
0.000105497
0.00011011
0.000108346
0.000101196
9.32162e-05
8.60084e-05
7.97068e-05
7.4188e-05
6.93305e-05
6.50456e-05
6.12213e-05
5.77149e-05
5.4367e-05
5.09824e-05
4.89594e-05
4.41639e-05
4.41633e-05
6.1065e-05
7.35487e-05
8.56285e-05
0.000115681
0.000122504
0.000133176
0.000160681
0.000210146
0.000175549
0.000143834
7.82016e-05
0.000143833
7.75171e-05
0.000169322
0.000121569
0.000194166
)
;
    }
    ceiling
    {
        type            compressible::alphatWallFunction;
        Prt             0.85;
        value           nonuniform List<scalar> 
43
(
0.000340267
0.000348132
0.000355228
0.000391035
0.000370452
0.000330583
0.000281567
0.00024153
0.000216689
0.000192834
0.000171568
0.000154721
0.000140287
0.000129229
0.000121472
0.000115773
0.000111165
0.000107182
0.000103881
0.000101647
0.000100812
0.000101439
0.000103297
0.00010602
0.00010945
0.000113498
0.000118129
0.000123376
0.00012931
0.000136103
0.000143779
0.000152271
0.000161609
0.000171823
0.000182901
0.000196073
0.000201802
0.000197832
0.000184506
0.000171043
0.000467119
0.000555339
0.000326058
)
;
    }
    sWall
    {
        type            compressible::alphatWallFunction;
        Prt             0.85;
        value           uniform 0.000339025;
    }
    nWall
    {
        type            compressible::alphatWallFunction;
        Prt             0.85;
        value           nonuniform List<scalar> 6(0.000132957 0.000137898 0.000163425 0.000189263 0.000191634 0.000170702);
    }
    sideWalls
    {
        type            empty;
    }
    glass1
    {
        type            compressible::alphatWallFunction;
        Prt             0.85;
        value           nonuniform List<scalar> 9(0.000171655 0.000229169 0.000275988 0.000320304 0.000364869 0.000411952 0.000457767 0.000468822 0.000459996);
    }
    glass2
    {
        type            compressible::alphatWallFunction;
        Prt             0.85;
        value           nonuniform List<scalar> 2(0.000247083 0.000231539);
    }
    sun
    {
        type            compressible::alphatWallFunction;
        Prt             0.85;
        value           nonuniform List<scalar> 
14
(
0.000176205
0.000191374
0.000195541
0.000204514
0.000212738
0.000220492
0.000228222
0.000236033
0.000242399
0.000246392
0.000246847
0.000242607
0.000232172
0.00020989
)
;
    }
    Table_master
    {
        type            compressible::alphatWallFunction;
        Prt             0.85;
        value           nonuniform List<scalar> 9(0.00013667 0.000119635 0.000105239 9.34092e-05 8.37345e-05 7.57984e-05 6.92765e-05 6.3951e-05 5.97739e-05);
    }
    Table_slave
    {
        type            compressible::alphatWallFunction;
        Prt             0.85;
        value           nonuniform List<scalar> 9(0.000153685 0.000141045 0.000132358 0.000125903 0.000120415 0.00011494 0.000109707 0.000104146 9.76019e-05);
    }
    inlet
    {
        type            fixedValue;
        value           uniform 1.94e-05;
    }
    outlet
    {
        type            zeroGradient;
    }
}


// ************************************************************************* //
