/*--------------------------------*- C++ -*----------------------------------*\
  =========                 |
  \\      /  F ield         | OpenFOAM: The Open Source CFD Toolbox
   \\    /   O peration     | Website:  https://openfoam.org
    \\  /    A nd           | Version:  6
     \\/     M anipulation  |
\*---------------------------------------------------------------------------*/
FoamFile
{
    version     2.0;
    format      ascii;
    class       volScalarField;
    location    "800";
    object      epsilon;
}
// * * * * * * * * * * * * * * * * * * * * * * * * * * * * * * * * * * * * * //

dimensions      [0 2 -3 0 0 0 0];

internalField   nonuniform List<scalar> 
662
(
0.000422969
0.00054336
0.000585409
0.000674327
0.000764195
0.000856448
0.000955449
0.00106844
0.00118879
0.00130645
0.00140082
0.00143111
0.00133811
0.00107355
0.000563641
5.42986e-05
8.69428e-05
0.000133712
0.000160709
0.00015709
0.000126431
9.74932e-05
7.60227e-05
6.04546e-05
4.89625e-05
4.03219e-05
3.36893e-05
2.84932e-05
2.43141e-05
2.07876e-05
1.76225e-05
1.54038e-05
1.16508e-05
0.000992105
0.00152116
0.000499723
0.000491538
0.000509793
0.000534726
0.000571573
0.000631675
0.000718521
0.00082622
0.000932929
0.000999682
0.000980683
0.000868021
0.000745989
0.00112052
0.000635932
0.000335216
5.28491e-05
9.97578e-05
0.000140401
0.000148917
0.0001463
0.000147351
0.00011301
8.34667e-05
6.21157e-05
4.69562e-05
3.61428e-05
2.83107e-05
2.25298e-05
1.82402e-05
1.54418e-05
1.4095e-05
3.22009e-05
2.2559e-05
0.00182195
0.00400693
0.000593081
0.000417379
0.000416192
0.000434234
0.000465795
0.000522089
0.000610042
0.000723037
0.000845842
0.000953415
0.000980348
0.000888607
0.000747948
0.000641647
0.000567438
0.000638625
0.000173068
0.000197203
0.000194293
0.000181965
0.000173228
0.000321738
0.000211022
0.000140773
9.67611e-05
6.8722e-05
5.04076e-05
3.81206e-05
2.97538e-05
2.42128e-05
1.85579e-05
1.58827e-05
6.44194e-05
3.50198e-05
0.00307066
0.00873651
0.0010548
0.00039788
0.000355416
0.000365278
0.000392666
0.000458791
0.000559632
0.000670342
0.000796455
0.000936421
0.00098559
0.000906279
0.000773415
0.000656416
0.000589641
0.000606789
0.000977696
0.000609974
0.000407844
0.000303772
0.000244384
0.000216367
0.000490369
0.000370015
0.000295238
0.000243732
0.000204058
0.00017276
0.000145871
0.000121098
9.6789e-05
5.77513e-05
3.53201e-05
0.000115834
5.24351e-05
0.00482747
0.0139858
0.00248931
0.000582076
0.000391205
0.000367912
0.000389251
0.000507586
0.000631341
0.000725243
0.000850536
0.00100228
0.00105046
0.000945451
0.000774325
0.000617339
0.000511477
0.000474448
0.000480701
0.000415277
0.000356068
0.000307844
0.000263523
0.000222115
0.000202801
0.000180435
0.000162561
0.000146767
0.000131388
0.000116425
0.000101565
8.70662e-05
7.33643e-05
5.73652e-05
4.30517e-05
7.98396e-05
0.000112403
0.000123394
0.000148796
0.000190301
0.00739641
0.0215329
0.00631063
0.00191112
0.00100859
0.000725855
0.000684725
0.000790394
0.000852542
0.000891179
0.00100926
0.00117806
0.0012074
0.00103028
0.00078792
0.000576698
0.000441254
0.000392311
0.000389378
0.000383203
0.00036206
0.000324741
0.000277092
0.000227733
0.000189899
0.000167222
0.000153554
0.000142327
0.000130529
0.000116966
0.000101826
8.64808e-05
7.22098e-05
5.93531e-05
5.06862e-05
6.14971e-05
9.23951e-05
0.000110329
0.000213998
0.000212332
0.0122827
0.0153191
0.0112545
0.00605625
0.00330491
0.00203809
0.00153555
0.00136909
0.00122693
0.00112851
0.00121373
0.00143237
0.00146718
0.00114308
0.000804572
0.00054431
0.000402124
0.000364705
0.000375832
0.000379554
0.000356332
0.000312936
0.000261689
0.000213978
0.000180279
0.000163262
0.00015591
0.000151629
0.000147386
0.0001415
0.000130795
0.000117945
0.000104788
9.28693e-05
8.70617e-05
9.39359e-05
0.000122194
0.000172421
0.000329621
0.000343806
0.00601408
0.00870452
0.00756207
0.0062323
0.00490825
0.00365768
0.00271448
0.0020084
0.00155302
0.00146935
0.00174288
0.00199129
0.00167625
0.00116012
0.000730165
0.000455633
0.000349223
0.000337067
0.000344981
0.000336
0.000304705
0.000261169
0.000218606
0.00018568
0.000166809
0.000160757
0.000162745
0.00016948
0.000180067
0.000194616
0.000212721
0.000227533
0.000243279
0.000270397
0.000319339
0.000447811
0.000722424
0.00122816
0.00432762
0.00121959
0.000791369
0.00272136
0.00287788
0.0025598
0.00211623
0.00178094
0.00184886
0.00236199
0.00277475
0.00258066
0.00153389
0.000830135
0.000485613
0.000340582
0.000292338
0.000282358
0.000274594
0.000254935
0.000225848
0.000195018
0.000169464
0.000153558
0.000147948
0.000150756
0.000159891
0.000174804
0.000196516
0.000227208
0.000269945
0.000329496
0.000412788
0.000535857
0.000716503
0.000965631
0.00126511
0.0015616
0.0018067
0.00101009
0.00178018
0.00119195
0.0016254
0.00193884
0.00235404
0.00315169
0.00385563
0.00388252
0.0031704
0.00206744
0.000809901
0.000470819
0.000316836
0.000254189
0.000229775
0.000216935
0.000202905
0.000184207
0.000163499
0.000145097
0.000131835
0.000124637
0.000123283
0.000127043
0.000135412
0.000148654
0.000167936
0.000195495
0.000234923
0.000291298
0.000371148
0.000483408
0.000635774
0.000824326
0.00102274
0.0011836
0.00114966
0.000561901
0.00798055
0.00925914
0.00231982
0.00265572
0.00346394
0.00410637
0.00457478
0.00435716
0.00351123
0.00248967
0.00149818
0.000780908
0.000339121
0.000266523
0.000228694
0.00020829
0.000194586
0.00018164
0.000167369
0.000152576
0.000139426
0.000129619
0.000123676
0.00012139
0.000122451
0.000126844
0.000135112
0.000148076
0.000167019
0.000193846
0.00023121
0.000283035
0.000354743
0.000452671
0.000580868
0.000734498
0.000908814
0.00123825
0.000628576
0.000624143
0.00338913
0.00416145
0.00374858
0.00455513
0.00473597
0.00412939
0.00314697
0.00209512
0.00126731
0.000741705
0.000456048
0.000346455
0.000299802
0.000268971
0.000243606
0.000221609
0.000200212
0.000178578
0.000157928
0.000140523
0.000128125
0.000121142
0.000118983
0.000120836
0.000126133
0.000134702
0.00014641
0.000161745
0.000181636
0.00020686
0.000238752
0.000278971
0.000329662
0.000393546
0.000473474
0.000572323
0.000646699
0.000476732
0.000391655
0.00057738
0.0128254
0.0161677
0.00850503
0.00445136
0.00253369
0.00170932
0.00144249
0.00130319
0.00116558
0.00114436
0.00132258
0.00150475
0.0093998
0.00838363
0.00685422
0.00558404
0.00425284
0.00314326
0.00233488
0.00174297
0.00145742
0.00157794
0.00190145
0.00197239
0.00228937
0.00289198
0.00275065
0.00233971
0.00191779
0.00174804
0.00207335
0.00262427
0.00276223
0.00227649
0.000935252
0.00142876
0.00178948
0.00210897
0.00271847
0.00356169
0.00396943
0.0036046
0.00264105
0.001524
0.0233797
0.00530392
0.00231096
0.00310925
0.0037851
0.00439418
0.00457162
0.00397881
0.00300835
0.00197503
0.0010967
0.000551542
0.00991406
0.00383397
0.00411262
0.00477766
0.00449914
0.00366711
0.00260859
0.00164221
0.000970053
0.000572948
0.000383687
0.000328057
0.0139558
0.0113095
0.00960573
0.0071628
0.0049349
0.00332228
0.00238182
0.00181288
0.00143839
0.0012825
0.00142667
0.00167789
0.00712899
0.0093627
0.00765948
0.0054105
0.00423968
0.00329318
0.00251391
0.00191826
0.00161493
0.00177899
0.00220079
0.0023304
0.00163805
0.0014217
0.00189027
0.00198663
0.00191134
0.00200657
0.00260443
0.00323344
0.00323426
0.0025367
0.000697397
0.00154344
0.00213226
0.00276343
0.00369883
0.00448925
0.00437784
0.00359083
0.00242274
0.00137966
0.00823324
0.00685724
0.00312474
0.00376422
0.00443191
0.00449385
0.00409026
0.00321733
0.00221789
0.00138813
0.000792919
0.000456728
0.00621021
0.0044987
0.00541286
0.0060897
0.00583753
0.00479512
0.00345947
0.00223676
0.00136795
0.000838346
0.000564402
0.000500113
0.0119409
0.011008
0.00837807
0.00599929
0.00403451
0.00278027
0.00206585
0.00160478
0.00132497
0.00132063
0.00156352
0.00172027
0.00750241
0.00977542
0.00627682
0.00477862
0.00374717
0.00288065
0.0021925
0.0017156
0.00163816
0.00199133
0.00233063
0.0021787
0.00107515
0.00170882
0.00197523
0.00195355
0.00190653
0.00225354
0.00296551
0.00333282
0.00295267
0.00204179
0.000911056
0.00186701
0.00241525
0.00319906
0.00416893
0.00454703
0.00404419
0.0030361
0.00186037
0.00101052
0.019011
0.00466635
0.00329534
0.00419951
0.00451745
0.00435641
0.0036985
0.00270651
0.00177608
0.0010588
0.00059308
0.000376836
0.00417839
0.00500238
0.0057784
0.00609864
0.00538064
0.00413711
0.00281249
0.0017545
0.00106683
0.000672848
0.000508485
0.000534834
)
;

boundaryField
{
    floor
    {
        Cmu             0.09;
        kappa           0.41;
        E               9.8;
        type            epsilonWallFunction;
        value           nonuniform List<scalar> 
36
(
0.000563641
5.42986e-05
8.69428e-05
0.000133712
0.000160709
0.00015709
0.000126431
9.74932e-05
7.60227e-05
6.04546e-05
4.89625e-05
4.03219e-05
3.36893e-05
2.84932e-05
2.43141e-05
2.07876e-05
1.76225e-05
1.54038e-05
1.16508e-05
1.16508e-05
2.2559e-05
3.50198e-05
5.24351e-05
0.000123394
0.000148796
0.000190301
0.000563641
0.00112052
0.000635932
0.000335216
5.42986e-05
0.000335216
5.28491e-05
0.000638625
0.000173068
0.000977696
)
;
    }
    ceiling
    {
        Cmu             0.09;
        kappa           0.41;
        E               9.8;
        type            epsilonWallFunction;
        value           nonuniform List<scalar> 
58
(
0.00417839
0.00500238
0.0057784
0.00609864
0.00538064
0.00413711
0.00281249
0.0017545
0.00106683
0.000672848
0.000508485
0.000534834
0.000299802
0.000268971
0.000243606
0.000221609
0.000200212
0.000178578
0.000157928
0.000140523
0.000128125
0.000121142
0.000118983
0.000120836
0.000126133
0.000134702
0.00014641
0.000161745
0.000181636
0.00020686
0.000238752
0.000278971
0.000329662
0.000393546
0.000473474
0.000572323
0.000646699
0.000476732
0.000391655
0.00057738
0.00750241
0.00977542
0.000697397
0.00338913
0.0044987
0.00541286
0.0060897
0.00583753
0.00479512
0.00345947
0.00223676
0.00136795
0.000838346
0.000564402
0.000500113
0.00601408
0.0093627
0.00178018
)
;
    }
    sWall
    {
        Cmu             0.09;
        kappa           0.41;
        E               9.8;
        type            epsilonWallFunction;
        value           nonuniform List<scalar> 4(0.00823324 0.00621021 0.00798055 0.00338913);
    }
    nWall
    {
        Cmu             0.09;
        kappa           0.41;
        E               9.8;
        type            epsilonWallFunction;
        value           nonuniform List<scalar> 6(0.000190301 0.000212332 0.000343806 0.000561901 0.000624143 0.00057738);
    }
    sideWalls
    {
        type            empty;
    }
    glass1
    {
        Cmu             0.09;
        kappa           0.41;
        E               9.8;
        type            epsilonWallFunction;
        value           nonuniform List<scalar> 10(0.000422969 0.000992105 0.00182195 0.00307066 0.00482747 0.00739641 0.0139558 0.00712899 0.0122827 0.00601408);
    }
    glass2
    {
        Cmu             0.09;
        kappa           0.41;
        E               9.8;
        type            epsilonWallFunction;
        value           nonuniform List<scalar> 2(0.00121959 0.00101009);
    }
    sun
    {
        Cmu             0.09;
        kappa           0.41;
        E               9.8;
        type            epsilonWallFunction;
        value           nonuniform List<scalar> 
14
(
0.000422969
0.00054336
0.000585409
0.000674327
0.000764195
0.000856448
0.000955449
0.00106844
0.00118879
0.00130645
0.00140082
0.00143111
0.00133811
0.00107355
)
;
    }
    Table_master
    {
        Cmu             0.09;
        kappa           0.41;
        E               9.8;
        type            epsilonWallFunction;
        value           nonuniform List<scalar> 9(0.000321738 0.000211022 0.000140773 9.67611e-05 6.8722e-05 5.04076e-05 3.81206e-05 2.97538e-05 2.42128e-05);
    }
    Table_slave
    {
        Cmu             0.09;
        kappa           0.41;
        E               9.8;
        type            epsilonWallFunction;
        value           nonuniform List<scalar> 9(0.000490369 0.000370015 0.000295238 0.000243732 0.000204058 0.00017276 0.000145871 0.000121098 9.6789e-05);
    }
    inlet
    {
        type            turbulentMixingLengthDissipationRateInlet;
        mixingLength    0.01;
        phi             phi;
        k               k;
        value           uniform 0.000471671;
    }
    outlet
    {
        type            zeroGradient;
    }
}


// ************************************************************************* //
