/*--------------------------------*- C++ -*----------------------------------*\
  =========                 |
  \\      /  F ield         | OpenFOAM: The Open Source CFD Toolbox
   \\    /   O peration     | Website:  https://openfoam.org
    \\  /    A nd           | Version:  6
     \\/     M anipulation  |
\*---------------------------------------------------------------------------*/
FoamFile
{
    version     2.0;
    format      ascii;
    class       volScalarField;
    location    "800";
    object      k;
}
// * * * * * * * * * * * * * * * * * * * * * * * * * * * * * * * * * * * * * //

dimensions      [0 2 -2 0 0 0 0];

internalField   nonuniform List<scalar> 
796
(
0.000418723
0.000414126
0.000313253
0.000330417
0.000352105
0.000373282
0.000393497
0.000412737
0.000431091
0.000448702
0.000465753
0.000482478
0.000499181
0.000516278
0.000533556
0.000550067
0.000565645
0.000580015
0.000592702
0.000602914
0.000609361
0.000610088
0.000602508
0.000584028
0.00055323
0.000510708
0.000458831
0.000397671
0.000350127
0.000306266
0.000265082
0.000227535
0.000197209
0.000173911
0.000160538
0.00016121
0.000183764
0.000309315
0.000673113
0.000561901
0.00137862
0.00283093
0.000521546
0.000431782
0.00044943
0.00047554
0.000502946
0.000531119
0.00056009
0.000590026
0.000621111
0.000653484
0.000687193
0.000722144
0.00075811
0.000795567
0.000834321
0.000874036
0.000914155
0.000953614
0.000990289
0.00102023
0.0010374
0.00103513
0.00100894
0.000958066
0.000880776
0.000794937
0.000717739
0.000644204
0.000575311
0.00051232
0.000454907
0.000406042
0.000368046
0.000346137
0.000379119
0.000785759
0.00268936
0.00128551
0.00268583
0.00705709
0.000970641
0.000537439
0.000532081
0.000555017
0.000580851
0.000607538
0.000634903
0.000663093
0.000692321
0.000722744
0.000754358
0.000786908
0.000820556
0.000855425
0.000890975
0.000926689
0.000962192
0.000997123
0.00103058
0.00106008
0.00108101
0.00108816
0.0010766
0.0010395
0.000978494
0.000912582
0.000844845
0.000775203
0.000706079
0.000639362
0.000576287
0.000518678
0.000470556
0.000444624
0.000521794
0.00142274
0.00567085
0.00219774
0.00426231
0.0126487
0.00186608
0.00062941
0.000574407
0.000589697
0.0006108
0.000632764
0.000655333
0.000678742
0.000703343
0.000729445
0.000757185
0.000786386
0.000817019
0.000848184
0.000878533
0.000906888
0.000932615
0.000955764
0.000976643
0.000994725
0.00100857
0.00101822
0.00101952
0.00100213
0.000970043
0.000927879
0.000876773
0.000819563
0.000759218
0.000697972
0.00063768
0.000581046
0.000533722
0.000515602
0.000668528
0.00222004
0.0088457
0.00316404
0.00600523
0.0190285
0.00339012
0.000744243
0.000588953
0.000593328
0.000609489
0.000627035
0.000645586
0.000665646
0.000687873
0.000712878
0.000741021
0.00077215
0.000805421
0.000838657
0.000869285
0.000894964
0.000914279
0.000927078
0.000934192
0.0009363
0.000936016
0.000941515
0.000949586
0.000949008
0.000935587
0.000907737
0.000868154
0.000820597
0.000768449
0.000714277
0.000660257
0.000609358
0.000569094
0.00056843
0.00083477
0.00317418
0.0119579
0.00412109
0.00782825
0.0257215
0.00558729
0.000954189
0.000591528
0.000579419
0.000591233
0.00060592
0.00062253
0.000641902
0.000665102
0.000693106
0.000726495
0.000765073
0.000806477
0.000847106
0.000882894
0.000910159
0.000926649
0.000931782
0.000926432
0.000911521
0.000895333
0.000896078
0.000909643
0.000919308
0.000914153
0.000892434
0.000857188
0.000812939
0.000763896
0.000713332
0.0006639
0.000618772
0.000586507
0.000608062
0.00103004
0.00417848
0.0148763
0.00504143
0.00966942
0.0323501
0.00836222
0.00135638
0.000597949
0.000557948
0.000565591
0.000579021
0.000595838
0.000617154
0.000644487
0.000679188
0.000721977
0.000771994
0.000825181
0.000876039
0.000918803
0.000948652
0.000963039
0.000961198
0.000943926
0.000911607
0.000882365
0.000882259
0.000900594
0.000915913
0.000915202
0.000895468
0.000859931
0.000814126
0.000763446
0.000712203
0.000663782
0.000621808
0.000595701
0.000639709
0.00123819
0.0051922
0.0175643
0.0059172
0.0114876
0.0386387
0.0115542
0.00204273
0.000627072
0.000535994
0.000538297
0.000551396
0.000569927
0.000595114
0.000628993
0.000673404
0.000729234
0.000794336
0.000862057
0.000924156
0.000973195
0.00100383
0.00101427
0.00100411
0.000974008
0.000926126
0.000890683
0.000890862
0.000914171
0.000935517
0.000938407
0.000918537
0.000879694
0.00082886
0.000772955
0.000717512
0.000666757
0.000624559
0.000601908
0.000670601
0.00148067
0.00623807
0.0200361
0.00674873
0.013269
0.0443717
0.0150219
0.00308917
0.000713251
0.000520068
0.000512903
0.000525421
0.000546196
0.000576293
0.000618541
0.000675771
0.000749432
0.000834622
0.000919575
0.000992472
0.00104503
0.00107255
0.00107528
0.00105375
0.00101143
0.000952845
0.000911329
0.000914744
0.00094723
0.000976991
0.000983447
0.000961525
0.000916334
0.000856966
0.000792351
0.000729463
0.000673297
0.000627889
0.000606778
0.000705962
0.00177209
0.0073322
0.0223298
0.00753878
0.014916
0.0495098
0.0187266
0.0045986
0.000940994
0.000522972
0.000493937
0.000503597
0.000526028
0.000561362
0.00061378
0.000688383
0.000788395
0.000901099
0.00100485
0.00108544
0.0011362
0.00115484
0.00114459
0.00111148
0.0010577
0.000985484
0.000939393
0.000952802
0.00100089
0.00104212
0.00105185
0.00102531
0.000969931
0.000897694
0.000820161
0.000746151
0.000681531
0.000630722
0.000611062
0.000752988
0.00213269
0.00849876
0.0245094
0.00828706
0.0165477
0.0535555
0.022692
0.00677804
0.00154546
0.000597811
0.000497527
0.000494941
0.000516315
0.000556755
0.000622191
0.000722612
0.00086391
0.00101161
0.00112998
0.00120989
0.00124988
0.00125271
0.00122741
0.00118026
0.00111005
0.00102059
0.000974528
0.0010078
0.00107924
0.00113476
0.00114671
0.00111218
0.00104203
0.000951709
0.000856066
0.000766714
0.00069058
0.000633246
0.000617657
0.000825488
0.00259187
0.00976451
0.0266265
0.00898643
0.0180574
0.0566333
0.0273308
0.0100126
0.00309243
0.00104023
0.000618189
0.000544156
0.000548864
0.000591786
0.000676309
0.000825656
0.00101824
0.00119428
0.00130957
0.00137287
0.00139114
0.00137295
0.00132675
0.00125921
0.00116663
0.00105699
0.00101917
0.0010853
0.00118839
0.00126014
0.00127262
0.00122684
0.00113773
0.00102408
0.000904319
0.000794596
0.000704662
0.000641277
0.000636848
0.000954227
0.00319576
0.0111532
0.0286262
0.00965039
0.019465
0.05929
0.0320332
0.0145686
0.00666993
0.00298469
0.00144141
0.000924185
0.000788987
0.000794033
0.00089205
0.00111353
0.00132255
0.00147254
0.00155798
0.0015868
0.0015699
0.00151807
0.00144156
0.00134698
0.00122558
0.00109415
0.00107793
0.00119298
0.00133551
0.00142433
0.00143663
0.00137935
0.00127099
0.0011318
0.000982914
0.000847817
0.000743061
0.000676425
0.000700856
0.00121305
0.00402534
0.0127135
0.0303568
0.0103455
0.0208882
0.0575737
0.0364133
0.0203238
0.0118523
0.00689927
0.00411888
0.00265894
0.00194144
0.00163822
0.00158887
0.00172726
0.0018414
0.00189915
0.00190252
0.001861
0.00178485
0.00168382
0.00156757
0.00144001
0.00128308
0.00113174
0.00115764
0.00133952
0.00152719
0.00163388
0.00165061
0.00159068
0.00147398
0.00131798
0.00114306
0.000981115
0.00086513
0.000807713
0.000913989
0.00176974
0.00521208
0.014554
0.031853
0.0111029
0.0202697
0.0513313
0.0368986
0.0266302
0.0183246
0.0122857
0.00836344
0.00590933
0.00440634
0.0035263
0.00305055
0.00279223
0.00262011
0.00247354
0.00232864
0.00217738
0.00201864
0.00185532
0.00169321
0.00152987
0.00133184
0.0011701
0.00126703
0.00153171
0.00176661
0.00189553
0.00193376
0.00189761
0.00180549
0.00166754
0.00149898
0.00133363
0.00123886
0.00125269
0.00157935
0.00293103
0.00691555
0.0166971
0.0334453
0.0116947
0.0176144
0.0234339
0.0272336
0.0241796
0.0198595
0.0153984
0.0116415
0.00881344
0.00681608
0.00546562
0.00456889
0.00391248
0.00343042
0.0030556
0.00274486
0.0024727
0.00222576
0.00199948
0.00179522
0.00160091
0.00135951
0.00121155
0.00141469
0.00176772
0.00204796
0.00221485
0.00231272
0.00235558
0.00235108
0.00230407
0.00222714
0.00215464
0.00219314
0.00244154
0.00316371
0.00499028
0.00927598
0.0189064
0.0342835
0.0120652
0.027536
0.039566
0.023457
0.0167996
0.0126964
0.00984312
0.00781257
0.00636531
0.00532481
0.00453729
0.00391734
0.00341566
0.00299783
0.00264101
0.00233157
0.0020641
0.00183829
0.00163004
0.00134748
0.0012616
0.00160082
0.00202426
0.00233543
0.00259243
0.00281071
0.00300001
0.00316546
0.00331258
0.00345473
0.00362436
0.00390495
0.00447455
0.00557331
0.00772139
0.0120896
0.021398
0.0351625
0.0124896
0.0190703
0.0329651
0.0211128
0.0154446
0.0120092
0.00959547
0.00780493
0.00645682
0.0054294
0.00462796
0.00397281
0.00342977
0.00297573
0.00259363
0.00227221
0.00200721
0.00179647
0.00160031
0.00127377
0.00132677
0.00176244
0.00221066
0.00260518
0.00298166
0.0033564
0.00374064
0.00414304
0.00457341
0.0050468
0.00558936
0.00624835
0.00720145
0.00868232
0.0111108
0.0154351
0.0242993
0.0354422
0.0132274
0.0102183
0.0341907
0.0189946
0.0254636
0.015672
0.0121369
0.00987534
0.00814251
0.00675436
0.00565245
0.004782
0.00409095
0.00352981
0.00306547
0.00267984
0.00235897
0.00209376
0.00188185
0.00171668
0.00154025
0.00111716
0.00134341
0.00178429
0.00224842
0.00270207
0.00317527
0.00368432
0.00424282
0.00486488
0.00556741
0.0063723
0.00731033
0.0084296
0.00980783
0.0116206
0.0140694
0.0175076
0.0235152
0.0334033
0.0129563
0.00955227
0.0112444
0.0122623
0.0106379
0.00738872
0.00626643
0.00514674
0.00434473
0.00368693
0.00314278
0.00268596
0.00229643
0.0019821
0.00172431
0.001503
0.00130658
0.00112802
0.00096317
0.000809387
0.000665599
0.000662305
0.00119353
0.00157183
0.00191405
0.00224678
0.00258559
0.00294113
0.00332262
0.00373944
0.0042023
0.0047244
0.00532278
0.00601998
0.00684616
0.00784212
0.00905804
0.0105512
0.0123722
0.014491
0.0111319
)
;

boundaryField
{
    floor
    {
        type            kqRWallFunction;
        value           nonuniform List<scalar> 
40
(
0.000418723
0.000414126
0.000313253
0.000330417
0.000352105
0.000373282
0.000393497
0.000412737
0.000431091
0.000448702
0.000465753
0.000482478
0.000499181
0.000516278
0.000533556
0.000550067
0.000565645
0.000580015
0.000592702
0.000602914
0.000609361
0.000610088
0.000602508
0.000584028
0.00055323
0.000510708
0.000458831
0.000397671
0.000350127
0.000306266
0.000265082
0.000227535
0.000197209
0.000173911
0.000160538
0.00016121
0.000183764
0.000309315
0.000673113
0.000561901
)
;
    }
    ceiling
    {
        type            kqRWallFunction;
        value           nonuniform List<scalar> 
43
(
0.00955227
0.0112444
0.0122623
0.0106379
0.00738872
0.00626643
0.00514674
0.00434473
0.00368693
0.00314278
0.00268596
0.00229643
0.0019821
0.00172431
0.001503
0.00130658
0.00112802
0.00096317
0.000809387
0.000665599
0.000662305
0.00119353
0.00157183
0.00191405
0.00224678
0.00258559
0.00294113
0.00332262
0.00373944
0.0042023
0.0047244
0.00532278
0.00601998
0.00684616
0.00784212
0.00905804
0.0105512
0.0123722
0.014491
0.0111319
0.0176144
0.0234339
0.0190703
)
;
    }
    sWall
    {
        type            kqRWallFunction;
        value           nonuniform List<scalar> 
18
(
0.000418723
0.00137862
0.00268583
0.00426231
0.00600523
0.00782825
0.00966942
0.0114876
0.013269
0.014916
0.0165477
0.0180574
0.019465
0.0208882
0.0202697
0.0176144
0.0102183
0.00955227
)
;
    }
    nWall
    {
        type            kqRWallFunction;
        value           nonuniform List<scalar> 
20
(
0.000561901
0.00128551
0.00219774
0.00316404
0.00412109
0.00504143
0.0059172
0.00674873
0.00753878
0.00828706
0.00898643
0.00965039
0.0103455
0.0111029
0.0116947
0.0120652
0.0124896
0.0132274
0.0129563
0.0111319
)
;
    }
    sideWalls
    {
        type            empty;
    }
    inlet
    {
        type            fixedValue;
        value           uniform 0.00735;
    }
    outlet
    {
        type            zeroGradient;
    }
}


// ************************************************************************* //
