/*--------------------------------*- C++ -*----------------------------------*\
  =========                 |
  \\      /  F ield         | OpenFOAM: The Open Source CFD Toolbox
   \\    /   O peration     | Website:  https://openfoam.org
    \\  /    A nd           | Version:  6
     \\/     M anipulation  |
\*---------------------------------------------------------------------------*/
FoamFile
{
    version     2.0;
    format      ascii;
    class       volScalarField;
    location    "450";
    object      k;
}
// * * * * * * * * * * * * * * * * * * * * * * * * * * * * * * * * * * * * * //

dimensions      [0 2 -2 0 0 0 0];

internalField   nonuniform List<scalar> 
458
(
0.00231986
0.00275428
0.00288585
0.00317149
0.00344717
0.00371969
0.00400392
0.00430085
0.00455039
0.00470872
0.0047227
0.00454512
0.00412966
0.00329003
0.00192802
0.000469652
0.00064605
0.000835253
0.000913707
0.000886935
0.00077562
0.000661237
0.000566799
0.000491033
0.000429737
0.00037964
0.000338359
0.000303814
0.00027402
0.000247215
0.000221691
0.000206346
0.00017364
0.00419179
0.00767614
0.0042758
0.00451422
0.00487545
0.00531703
0.00583891
0.00643113
0.00705969
0.00758677
0.00786255
0.00778926
0.00735308
0.00652103
0.00523937
0.00335929
0.00231879
0.0015379
0.000459679
0.000998
0.00135255
0.00152111
0.00153895
0.00131367
0.00106615
0.000866226
0.000714036
0.000597636
0.000507337
0.000435601
0.000376717
0.000327627
0.000292179
0.000271949
0.000493677
0.00029413
0.00617545
0.0138202
0.00505789
0.00487457
0.00510867
0.00547583
0.00596895
0.00659262
0.00727394
0.00785073
0.00820351
0.00825584
0.00797619
0.00729489
0.00623855
0.00506083
0.00405335
0.00217146
0.00107965
0.00143417
0.00166276
0.00180737
0.00180534
0.00140747
0.00107501
0.000832821
0.000659487
0.000534453
0.000442852
0.000374753
0.000323924
0.000287089
0.000267565
0.000270782
0.000774984
0.000407489
0.00844581
0.022447
0.0060976
0.00485479
0.00490608
0.00519836
0.0056897
0.006425
0.00717322
0.00776452
0.00815549
0.00827898
0.00804559
0.00740724
0.00651863
0.00564052
0.00480438
0.00361412
0.00286927
0.00257931
0.00245693
0.00243736
0.00240066
0.00226402
0.00179738
0.00150617
0.00132037
0.00118961
0.00108385
0.00098551
0.000896281
0.000806769
0.000708527
0.000537787
0.000427062
0.00112313
0.000538296
0.0111329
0.0342008
0.00865624
0.00490927
0.00464279
0.00489435
0.00554435
0.0066438
0.00747672
0.00804773
0.00842988
0.00853579
0.00820791
0.00744745
0.0064471
0.00551802
0.00476779
0.00413728
0.00393678
0.00362702
0.00340731
0.00323125
0.0030192
0.00274043
0.00243404
0.0022188
0.00208235
0.00197309
0.00185766
0.00171511
0.00153479
0.00133107
0.00111521
0.000877243
0.000670371
0.00092107
0.0010484
0.000959782
0.00107994
0.00127767
0.0144233
0.0469591
0.0153056
0.00615796
0.00494971
0.00502035
0.00609439
0.00761838
0.00835333
0.00880729
0.00909931
0.00911216
0.00864467
0.00764378
0.00634694
0.00516909
0.00437888
0.00403294
0.00401102
0.00402842
0.00394203
0.00371627
0.00338439
0.00300863
0.00269529
0.00251847
0.00242398
0.00234674
0.0022517
0.00211708
0.00191838
0.00167937
0.00142267
0.00116193
0.000945803
0.000905962
0.00102693
0.00104991
0.00164588
0.00137559
0.0180561
0.0553116
0.0274819
0.0127888
0.0087286
0.00788183
0.00900366
0.0096127
0.00984627
0.0100199
0.0101389
0.00999342
0.00929739
0.00797688
0.00632299
0.00489661
0.00409287
0.00395513
0.0041309
0.00422463
0.00409316
0.00377658
0.00337381
0.00298444
0.00270815
0.00258135
0.0025411
0.00252605
0.00250609
0.00246096
0.00236068
0.00216825
0.00193047
0.00167745
0.00147478
0.00138065
0.00146434
0.0016935
0.00224356
0.00195271
0.0190052
0.0568096
0.0384489
0.0274969
0.0202318
0.0164853
0.0141859
0.0126655
0.0119091
0.0116394
0.0114943
0.0110847
0.0100226
0.00825315
0.00616577
0.00458041
0.00389068
0.00388388
0.00401892
0.00399198
0.00374606
0.00337602
0.00299529
0.00269188
0.00251763
0.00246694
0.00249339
0.00256223
0.00266093
0.00278688
0.00293745
0.00307372
0.00311959
0.00315462
0.00331301
0.00389428
0.00514425
0.0068331
0.0127977
0.0046631
0.0182509
0.0264817
0.0243612
0.0217137
0.0189311
0.0165494
0.0148033
0.013844
0.0134752
0.013301
0.0129696
0.0121469
0.0104269
0.00795533
0.00527651
0.00401976
0.00358074
0.00349901
0.00344486
0.00327675
0.0029921
0.00267073
0.00239513
0.00221674
0.00214652
0.00216256
0.00223585
0.00234981
0.00249977
0.00268625
0.00291017
0.00316936
0.00348778
0.00389909
0.00444274
0.0050858
0.00567733
0.00604469
0.00622321
0.00406862
0.00706899
0.0109524
0.0134968
0.014915
0.0157843
0.0162597
0.0160923
0.0152774
0.0139768
0.0120782
0.0088378
0.00582103
0.00403231
0.00326376
0.00294162
0.00276692
0.00259001
0.0023676
0.00212756
0.00190931
0.0017561
0.00168376
0.00168071
0.00172718
0.00180874
0.00191947
0.00206006
0.00223651
0.00246069
0.00275595
0.00312241
0.00355865
0.004042
0.00448061
0.00470361
0.00456936
0.004111
0.00263685
0.00804928
0.0198434
0.0223161
0.0223997
0.0217265
0.0193913
0.0161888
0.012618
0.00923735
0.00635904
0.00432008
0.00318934
0.0026203
0.00230409
0.00209424
0.00191014
0.00172203
0.00153952
0.00138971
0.00129163
0.00124515
0.00124523
0.00128493
0.00135828
0.00146346
0.00160188
0.00177702
0.0019935
0.00226263
0.00259315
0.00299436
0.00346722
0.00398523
0.00448114
0.00478125
0.00506017
0.00430135
0.00270736
0.00893396
0.0093915
0.00981407
0.0121649
0.0108601
0.00852614
0.00616148
0.00457158
0.00365992
0.00285498
0.00220686
0.00175781
0.0014083
0.0011792
0.00103611
0.000937445
0.000861204
0.000798079
0.000747981
0.000715539
0.000704245
0.000713729
0.000741667
0.000783798
0.000837721
0.000903198
0.000980974
0.00107278
0.00118171
0.00131324
0.00147036
0.00165543
0.00187291
0.00212792
0.00242523
0.00280752
0.00297754
0.00285375
0.00246992
0.00211285
)
;

boundaryField
{
    floor
    {
        type            kqRWallFunction;
        value           nonuniform List<scalar> 
36
(
0.00192802
0.000469652
0.00064605
0.000835253
0.000913707
0.000886935
0.00077562
0.000661237
0.000566799
0.000491033
0.000429737
0.00037964
0.000338359
0.000303814
0.00027402
0.000247215
0.000221691
0.000206346
0.00017364
0.00017364
0.00029413
0.000407489
0.000538296
0.000959782
0.00107994
0.00127767
0.00192802
0.00335929
0.00231879
0.0015379
0.000469652
0.0015379
0.000459679
0.00217146
0.00107965
0.00286927
)
;
    }
    ceiling
    {
        type            kqRWallFunction;
        value           nonuniform List<scalar> 
43
(
0.00893396
0.0093915
0.00981407
0.0121649
0.0108601
0.00852614
0.00616148
0.00457158
0.00365992
0.00285498
0.00220686
0.00175781
0.0014083
0.0011792
0.00103611
0.000937445
0.000861204
0.000798079
0.000747981
0.000715539
0.000704245
0.000713729
0.000741667
0.000783798
0.000837721
0.000903198
0.000980974
0.00107278
0.00118171
0.00131324
0.00147036
0.00165543
0.00187291
0.00212792
0.00242523
0.00280752
0.00297754
0.00285375
0.00246992
0.00211285
0.0182509
0.0264817
0.00804928
)
;
    }
    sWall
    {
        type            kqRWallFunction;
        value           uniform 0.00893396;
    }
    nWall
    {
        type            kqRWallFunction;
        value           nonuniform List<scalar> 6(0.00127767 0.00137559 0.00195271 0.00263685 0.00270736 0.00211285);
    }
    sideWalls
    {
        type            empty;
    }
    glass1
    {
        type            kqRWallFunction;
        value           nonuniform List<scalar> 9(0.00231986 0.00419179 0.00617545 0.00844581 0.0111329 0.0144233 0.0180561 0.0190052 0.0182509);
    }
    glass2
    {
        type            kqRWallFunction;
        value           nonuniform List<scalar> 2(0.0046631 0.00406862);
    }
    sun
    {
        type            kqRWallFunction;
        value           nonuniform List<scalar> 
14
(
0.00231986
0.00275428
0.00288585
0.00317149
0.00344717
0.00371969
0.00400392
0.00430085
0.00455039
0.00470872
0.0047227
0.00454512
0.00412966
0.00329003
)
;
    }
    Table_master
    {
        type            kqRWallFunction;
        value           nonuniform List<scalar> 9(0.00140747 0.00107501 0.000832821 0.000659487 0.000534453 0.000442852 0.000374753 0.000323924 0.000287089);
    }
    Table_slave
    {
        type            kqRWallFunction;
        value           nonuniform List<scalar> 9(0.00179738 0.00150617 0.00132037 0.00118961 0.00108385 0.00098551 0.000896281 0.000806769 0.000708527);
    }
    inlet
    {
        type            turbulentIntensityKineticEnergyInlet;
        intensity       0.05;
        value           uniform 0.000937501;
    }
    outlet
    {
        type            zeroGradient;
    }
}


// ************************************************************************* //
