/*--------------------------------*- C++ -*----------------------------------*\
  =========                 |
  \\      /  F ield         | OpenFOAM: The Open Source CFD Toolbox
   \\    /   O peration     | Website:  https://openfoam.org
    \\  /    A nd           | Version:  6
     \\/     M anipulation  |
\*---------------------------------------------------------------------------*/
FoamFile
{
    version     2.0;
    format      ascii;
    class       surfaceScalarField;
    location    "450";
    object      phi;
}
// * * * * * * * * * * * * * * * * * * * * * * * * * * * * * * * * * * * * * //

dimensions      [1 0 -1 0 0 0 0];

internalField   nonuniform List<scalar> 
850
(
-0.00306164
0.00312185
-0.00417011
0.00110846
-0.00504464
0.000874524
-0.00573329
0.000688655
-0.00620027
0.000466974
-0.0064114
0.000211133
-0.00632679
-8.46186e-05
-0.00590301
-0.000423778
-0.00513138
-0.000771637
-0.00406742
-0.00106396
-0.00282671
-0.00124071
-0.00156525
-0.00126146
-0.000472598
-0.00109265
0.000167273
-0.000639874
0.000169584
-0.000926259
0.000929842
-0.000700426
-0.000225837
-7.3074e-05
-0.000627356
0.000535729
-0.000608807
0.00100193
-0.000466208
0.00126381
-0.000261881
0.00137517
-0.000111365
0.00143036
-5.51925e-05
0.00146286
-3.25088e-05
0.0014797
-1.68438e-05
0.00148477
-5.07206e-06
0.0014792
5.56575e-06
0.00145718
2.20185e-05
0.00139936
5.78088e-05
0.001273
0.000126353
0.00106639
0.00020661
0.000799359
0.000267026
0.000804089
-0.00221184
0.0054965
-0.00330665
0.00220327
-0.00422104
0.00178891
-0.00491684
0.00138445
-0.00539266
0.000942792
-0.00562558
0.000444059
-0.00557475
-0.000135455
-0.0052018
-0.000796726
-0.00450957
-0.00146387
-0.00357099
-0.00200254
-0.00250882
-0.00230288
-0.00146368
-0.00230661
-0.000560483
-0.00199585
0.000152697
-0.00135306
0.000929079
-0.0006068
0.00117677
-0.000243971
0.000960356
0.000220688
0.000972832
2.89899e-05
0.000911657
0.000413941
-0.000610791
0.00078628
-0.000999699
0.00110307
-0.000925604
0.00135631
-0.000719449
0.00141389
-0.000319465
0.00142237
-0.000119847
0.00143331
-6.61344e-05
0.00144253
-4.17377e-05
0.00144792
-2.22427e-05
0.00145043
-7.58242e-06
0.00145019
5.80176e-06
0.00144477
2.74337e-05
0.00140817
9.44019e-05
0.00125471
0.000279807
0.000985135
0.000476183
0.000647741
0.000604415
0.001464
-0.00156286
0.00730897
-0.002512
0.0031524
-0.00334226
0.00261918
-0.00396093
0.00200311
-0.00440194
0.0013838
-0.00464041
0.00068253
-0.00461932
-0.000156547
-0.00427856
-0.0011375
-0.00364022
-0.00210221
-0.00280524
-0.00283752
-0.00189972
-0.00320841
-0.00103992
-0.0031664
-0.000299752
-0.00273603
0.000312659
-0.00196547
0.000816681
-0.00111082
0.00095327
-0.000380563
0.000747426
0.00042653
0.00173128
0.00143826
-0.000512952
0.00164038
-0.000812921
0.00158938
-0.0009487
0.00162522
-0.000961451
0.00182861
-0.000922841
0.0015093
0.0013896
0.00132362
0.00128203
0.00125993
0.0012525
0.00125845
0.00128603
0.00138059
0.00115388
0.00050651
0.000866473
0.000763582
0.000498434
0.000972448
0.00198074
-0.00109317
0.00872586
-0.00184601
0.00390523
-0.00242517
0.00319834
-0.002865
0.00244294
-0.00320199
0.00172079
-0.00340444
0.000884976
-0.00338784
-0.000173154
-0.00304767
-0.00147766
-0.0024586
-0.00269129
-0.00175181
-0.00354431
-0.00103725
-0.00392297
-0.000394047
-0.00380961
0.000144648
-0.00327472
0.000602167
-0.00242299
0.000972833
-0.00148149
0.00118578
-0.000593516
0.00137275
0.000239558
0.00233869
0.000765343
0.00222771
0.000122672
0.00205906
-0.000344304
0.00196288
-0.000716747
0.00184115
-0.000826976
0.00170006
-0.000820359
0.00146059
-0.000683382
0.0017808
-0.000320363
0.00195208
-0.000171435
0.00207534
-0.00012342
0.00216801
-9.28329e-05
0.00222031
-5.24585e-05
0.0022112
8.95387e-06
0.00211385
9.71873e-05
0.00189189
0.0002218
0.00148528
0.000406454
0.00125025
0.00074153
0.000888533
0.0011253
0.000382822
0.00147815
0.00238689
-0.000752937
0.00986553
-0.00131664
0.00446893
-0.00149231
0.00337401
-0.00166139
0.00261202
-0.00181542
0.00187483
-0.00191304
0.000982586
-0.00183929
-0.000246901
-0.0014613
-0.00185565
-0.000954044
-0.00319854
-0.000437705
-0.00406065
1.98913e-05
-0.00438057
0.00038938
-0.0041791
0.000674608
-0.00355995
0.000922567
-0.00267095
0.001137
-0.00169592
0.00134142
-0.000797948
0.00165022
-6.92422e-05
0.00209317
0.000322394
0.00212382
9.20185e-05
0.00205129
-0.000271782
0.00186132
-0.000526783
0.00166486
-0.000630516
0.00147819
-0.000633695
0.00133978
-0.000544973
0.00138951
-0.000370099
0.0014685
-0.000250428
0.00154371
-0.000198635
0.00161656
-0.000165692
0.00167962
-0.000115528
0.00171328
-2.47062e-05
0.00169405
0.000116413
0.00160741
0.000308431
0.0014571
0.000556757
0.00130451
0.00089411
0.00113091
0.00129889
0.000793389
0.00181567
0.00102048
0.0021598
-0.00108281
0.00212411
-0.00177845
0.000714919
-0.00170647
-0.000635938
0.0109412
-0.00100347
0.00483646
-0.000616128
0.00298666
-0.000416727
0.00241262
-0.000335151
0.00179325
-0.000231959
0.000879391
4.71935e-05
-0.000526057
0.000443298
-0.00225176
0.000799246
-0.00355449
0.00104966
-0.00431106
0.00117981
-0.00451072
0.00122031
-0.0042196
0.001206
-0.00354565
0.00117604
-0.00264099
0.00115533
-0.00167522
0.00118416
-0.000826779
0.00131886
-0.000203941
0.00153137
0.00010988
0.00158106
4.23231e-05
0.00147942
-0.00017015
0.00129982
-0.000347186
0.00111265
-0.000443343
0.000946393
-0.000467446
0.00083196
-0.000430546
0.000812109
-0.000350254
0.000852927
-0.000291252
0.000921212
-0.000266926
0.00100515
-0.000249638
0.0010984
-0.000208779
0.00119105
-0.00011737
0.00126202
4.54399e-05
0.00130016
0.000270279
0.00131841
0.000538504
0.00135618
0.000856338
0.00146072
0.00119434
0.00166811
0.00160827
0.00202539
0.00180252
0.00232733
0.00182216
0.00182371
0.00121853
0.000182105
-0.000752233
0.0121798
-0.000605417
0.00468964
0.000514503
0.00186674
0.00100257
0.00192454
0.00128477
0.00151104
0.00169933
0.000464833
0.00221906
-0.00104579
0.00255207
-0.00258477
0.00267609
-0.00367851
0.00259163
-0.00422659
0.00234013
-0.00425922
0.00198841
-0.00386789
0.00160009
-0.00315733
0.00123366
-0.00227457
0.000925549
-0.00136712
0.000732795
-0.000634028
0.000681376
-0.000152527
0.000732652
5.86008e-05
0.000739846
3.51245e-05
0.00066086
-9.11686e-05
0.000528951
-0.000215282
0.000382595
-0.000296992
0.000249786
-0.000334642
0.000156783
-0.000337548
0.000127734
-0.000321211
0.000151686
-0.000315211
0.000207307
-0.000322553
0.000284734
-0.000327072
0.000384756
-0.000308809
0.000512357
-0.000244978
0.000663713
-0.000105924
0.000820993
0.000112992
0.000984752
0.000374738
0.00118876
0.000652327
0.00146536
0.000917737
0.00186703
0.00120658
0.00240331
0.00126624
0.00316889
0.00105657
0.00334211
0.00104531
0.00359228
0.00274861
0.00997364
0.00341317
0.00402508
0.0034897
0.00179021
0.00360584
0.00180839
0.00386049
0.00125638
0.00437065
-4.53299e-05
0.00483031
-0.00150545
0.00490111
-0.00265558
0.0045984
-0.0033758
0.00401504
-0.00364323
0.00325794
-0.00350213
0.00243491
-0.00304486
0.00162522
-0.00234765
0.000913785
-0.00156313
0.000338759
-0.000792095
-6.05472e-06
-0.000289219
-0.000139564
-1.90221e-05
-0.000150532
6.9564e-05
-0.000157357
4.19444e-05
-0.000210725
-3.7806e-05
-0.000304191
-0.000121822
-0.000413649
-0.000187541
-0.000516138
-0.00023216
-0.000592867
-0.000260826
-0.000632078
-0.000282006
-0.00064134
-0.000305956
-0.000632739
-0.000331161
-0.000611143
-0.000348675
-0.000571996
-0.000347964
-0.00049935
-0.000317632
-0.000362378
-0.000242903
-0.000154749
-9.4645e-05
9.37293e-05
0.000126252
0.000377339
0.00036871
0.000694661
0.000600408
0.00107532
0.000825919
0.00149184
0.000849709
0.00188191
0.000666497
0.00119728
0.00172993
0.00507323
0.0105716
0.0145925
0.0125801
0.00380254
0.011303
0.00308551
0.010457
0.00210243
0.00965018
0.000761449
0.00862264
-0.000477908
0.0074125
-0.00144543
0.0061043
-0.00206759
0.00474576
-0.00228469
0.00338571
-0.00214208
0.00210758
-0.00176672
0.000943433
-0.00118351
-4.42999e-06
-0.000615276
-0.000613472
-0.000183058
-0.000895117
-7.58052e-06
-0.000984345
7.02e-05
-0.000997393
8.26071e-05
-0.00100934
5.38803e-05
-0.0010511
3.95272e-06
-0.00112268
-5.02514e-05
-0.00121093
-9.9291e-05
-0.00130175
-0.000141355
-0.00138543
-0.000177147
-0.00145948
-0.000207964
-0.00153101
-0.000234435
-0.00160985
-0.00025233
-0.00170519
-0.000253348
-0.00182706
-0.000226095
-0.0019886
-0.000156101
-0.00220513
-2.63824e-05
-0.0024706
0.000170824
-0.00279513
0.00045077
-0.00325887
0.000832448
-0.00397252
0.00131405
-0.00500679
0.00186019
-0.00648322
0.00232613
-0.0082108
0.00239407
-0.00772853
0.00124766
-0.00234149
0.00895853
0.00550785
0.0074745
0.00456954
0.00706884
0.00250811
0.00670734
0.00112296
0.00607513
0.000154311
0.00516855
-0.000538844
0.00406925
-0.000968283
0.00283625
-0.00105169
0.00153256
-0.0008384
0.000277846
-0.000512013
-0.000738551
-0.000167118
-0.00136642
1.25808e-05
-0.0016352
8.57236e-05
-0.0017363
9.35089e-05
-0.00175772
9.16111e-05
-0.00175842
8.33012e-05
-0.00176974
6.5194e-05
-0.00180453
3.87372e-05
-0.00186412
9.33029e-06
-0.00194227
-2.1149e-05
-0.00203049
-5.31443e-05
-0.00212502
-8.26253e-05
-0.00222716
-0.000105823
-0.00234075
-0.000120855
-0.00246846
-0.000124631
-0.00260977
-0.000112047
-0.00275983
-7.60375e-05
-0.00290706
-8.8814e-06
-0.00303674
0.000103289
-0.00314728
0.000281359
-0.00324837
0.000551855
-0.00335048
0.000934554
-0.00345894
0.00142249
-0.00353994
0.00194119
-0.0035344
0.00232058
-0.00327064
0.00213031
-0.00191699
-0.000106009
-0.0041761
-0.000835406
0.00639693
0.000682419
0.00305173
0.00129415
0.00189639
0.00147906
0.000938066
0.00137261
0.000260757
0.000973936
-0.000140171
0.000268755
-0.000263109
-0.000612841
-0.000170102
-0.00144321
-8.04392e-06
-0.00204248
8.72579e-05
-0.00233855
0.000128942
-0.00244555
0.000119574
-0.00245523
9.53915e-05
-0.00243879
7.70603e-05
-0.00241373
6.65438e-05
-0.00238989
5.94615e-05
-0.00237572
5.1016e-05
-0.00237632
3.93297e-05
-0.00239174
2.47427e-05
-0.00241996
7.06094e-06
-0.002461
-1.21121e-05
-0.00251417
-2.94664e-05
-0.00257775
-4.22493e-05
-0.0026495
-4.9114e-05
-0.00272556
-4.85737e-05
-0.00279949
-3.81238e-05
-0.00286188
-1.3658e-05
-0.00290033
2.95588e-05
-0.00289499
9.79387e-05
-0.00282157
0.000207941
-0.00264564
0.000375911
-0.00233603
0.000624943
-0.00188391
0.000970368
-0.00127258
0.00132984
-0.000288889
0.00133688
0.00114496
0.000696462
0.00163655
-0.000597608
-0.00244893
-0.0119788
-0.0155164
-0.00907924
-0.00600049
-0.0040825
-0.00312684
-0.00285227
-0.00298162
-0.00323595
-0.00339871
-0.00340024
-0.00330688
-0.00317204
-0.00304665
-0.00294547
-0.00286265
-0.00279036
-0.00272514
-0.00266835
-0.00262322
-0.00259269
-0.00257986
-0.00258626
-0.00261009
-0.00264679
-0.00269046
-0.00273371
-0.00276663
-0.00277522
-0.00274075
-0.00263807
-0.00242556
-0.00204527
-0.00141617
-0.000441887
0.000891533
0.00223173
0.00293139
0.00233707
)
;

boundaryField
{
    floor
    {
        type            calculated;
        value           nonuniform List<scalar> 
36
(
0
0
0
0
0
0
0
0
0
0
0
0
0
0
0
0
0
0
0
-4.73488e-06
-1.21775e-05
-1.83106e-05
-2.3337e-05
-2.0822e-05
-1.92883e-05
-1.81371e-05
-2.31339e-06
-3.71894e-06
-4.27999e-06
-4.96075e-06
-3.58703e-06
-7.5179e-06
-1.0809e-05
-1.10237e-05
-1.36513e-05
-1.16961e-05
)
;
    }
    ceiling
    {
        type            calculated;
        value           nonuniform List<scalar> 
43
(
-4.16283e-05
-4.09504e-05
-4.02437e-05
-2.70261e-05
-2.16126e-05
-1.76065e-05
-1.38242e-05
-1.08273e-05
-8.78809e-06
-7.35242e-06
-6.52291e-06
-6.10747e-06
-5.90737e-06
-5.82776e-06
-5.79078e-06
-5.76778e-06
-5.75832e-06
-5.76511e-06
-5.78395e-06
-5.80087e-06
-5.79992e-06
-5.77297e-06
-5.71992e-06
-5.64612e-06
-5.55595e-06
-5.45198e-06
-5.33596e-06
-5.20884e-06
-5.07064e-06
-4.91963e-06
-4.75513e-06
-4.57648e-06
-4.38145e-06
-4.16606e-06
-3.9223e-06
-3.58233e-06
-3.31997e-06
-3.21333e-06
-3.28912e-06
-2.64568e-06
6.9921e-06
4.23603e-06
-5.3666e-05
)
;
    }
    sWall
    {
        type            calculated;
        value           uniform -0.000240884;
    }
    nWall
    {
        type            calculated;
        value           nonuniform List<scalar> 6(-5.38493e-05 -6.48647e-05 -6.8074e-05 -8.23846e-05 -9.06327e-05 -0.000109221);
    }
    sideWalls
    {
        type            empty;
        value           nonuniform 0();
    }
    glass1
    {
        type            calculated;
        value           nonuniform List<scalar> 9(-6.02122e-05 -0.00016281 -0.000249609 -0.000323717 -0.000386734 -0.000439765 -0.000486356 -0.000542437 -0.00060498);
    }
    glass2
    {
        type            calculated;
        value           nonuniform List<scalar> 2(-0.000283679 -0.000313817);
    }
    sun
    {
        type            calculated;
        value           uniform 0;
    }
    Table_master
    {
        type            calculated;
        value           nonuniform List<scalar> 9(-1.53604e-07 -1.53756e-07 -1.53807e-07 -1.53837e-07 -1.53857e-07 -1.5387e-07 -1.53874e-07 -1.53868e-07 -1.53837e-07);
    }
    Table_slave
    {
        type            calculated;
        value           nonuniform List<scalar> 9(1.53486e-07 1.53474e-07 1.53428e-07 1.53392e-07 1.53371e-07 1.53371e-07 1.53378e-07 1.53416e-07 1.53499e-07);
    }
    inlet
    {
        type            calculated;
        value           uniform -0.0106638;
    }
    outlet
    {
        type            calculated;
        value           nonuniform List<scalar> 2(0.0122614 0.00357852);
    }
}


// ************************************************************************* //
