/*--------------------------------*- C++ -*----------------------------------*\
  =========                 |
  \\      /  F ield         | OpenFOAM: The Open Source CFD Toolbox
   \\    /   O peration     | Website:  https://openfoam.org
    \\  /    A nd           | Version:  6
     \\/     M anipulation  |
\*---------------------------------------------------------------------------*/
FoamFile
{
    version     2.0;
    format      ascii;
    class       volScalarField;
    location    "450";
    object      T;
}
// * * * * * * * * * * * * * * * * * * * * * * * * * * * * * * * * * * * * * //

dimensions      [0 0 0 1 0 0 0];

internalField   nonuniform List<scalar> 
458
(
302.753
302.476
302.463
302.459
302.456
302.452
302.448
302.444
302.437
302.428
302.42
302.416
302.42
302.436
302.476
302.63
302.607
302.599
302.605
302.613
302.619
302.625
302.631
302.637
302.642
302.648
302.654
302.66
302.665
302.671
302.678
302.686
302.711
302.938
302.509
302.484
302.485
302.487
302.486
302.484
302.478
302.463
302.44
302.417
302.403
302.405
302.42
302.441
302.451
302.461
302.483
302.636
302.584
302.58
302.588
302.599
302.604
302.607
302.609
302.612
302.614
302.617
302.619
302.622
302.626
302.632
302.641
302.653
302.694
303.133
302.554
302.514
302.524
302.536
302.546
302.55
302.545
302.519
302.473
302.424
302.395
302.394
302.415
302.436
302.448
302.456
302.476
302.592
302.57
302.572
302.588
302.608
302.609
302.61
302.611
302.612
302.614
302.615
302.617
302.618
302.62
302.626
302.633
302.645
302.689
303.333
302.613
302.547
302.565
302.594
302.622
302.641
302.64
302.597
302.518
302.436
302.386
302.384
302.412
302.441
302.458
302.465
302.473
302.483
302.502
302.532
302.568
302.605
302.637
302.663
302.681
302.696
302.709
302.72
302.728
302.734
302.74
302.742
302.713
302.684
302.666
302.692
303.529
302.688
302.581
302.598
302.641
302.691
302.735
302.743
302.677
302.559
302.443
302.376
302.374
302.411
302.453
302.48
302.49
302.497
302.512
302.539
302.575
302.617
302.658
302.695
302.726
302.75
302.768
302.782
302.791
302.796
302.797
302.793
302.784
302.761
302.726
302.694
302.695
302.787
302.868
302.87
303.708
302.787
302.637
302.628
302.668
302.728
302.805
302.822
302.726
302.574
302.437
302.363
302.364
302.414
302.476
302.52
302.542
302.553
302.575
302.608
302.648
302.691
302.731
302.766
302.795
302.816
302.832
302.843
302.849
302.85
302.844
302.834
302.819
302.796
302.763
302.726
302.71
302.75
302.78
302.822
303.864
302.95
302.782
302.732
302.741
302.787
302.867
302.857
302.729
302.549
302.4
302.332
302.353
302.429
302.517
302.581
302.616
302.638
302.665
302.698
302.736
302.775
302.81
302.839
302.861
302.877
302.887
302.893
302.894
302.891
302.882
302.867
302.849
302.825
302.796
302.762
302.741
302.748
302.762
302.793
304.095
303.413
303.216
303.078
303.007
302.999
302.998
302.875
302.658
302.442
302.305
302.278
302.349
302.469
302.589
302.669
302.712
302.737
302.763
302.793
302.825
302.856
302.882
302.902
302.915
302.923
302.927
302.928
302.925
302.919
302.91
302.896
302.877
302.856
302.834
302.81
302.797
302.804
302.824
302.973
304.425
304.108
303.862
303.623
303.434
303.296
303.064
302.707
302.378
302.182
302.141
302.224
302.391
302.565
302.714
302.777
302.809
302.83
302.853
302.877
302.9
302.921
302.936
302.947
302.952
302.954
302.953
302.951
302.947
302.942
302.937
302.935
302.935
302.939
302.952
302.975
303.009
303.046
303.074
303.14
297.604
299.284
300.316
300.743
300.923
301.132
301.39
301.695
302.003
302.292
302.586
302.755
302.835
302.871
302.891
302.908
302.925
302.942
302.956
302.966
302.973
302.976
302.978
302.977
302.977
302.976
302.975
302.974
302.975
302.975
302.979
302.986
303
303.02
303.047
303.075
303.101
303.125
297.966
299.362
300.208
300.663
301.018
301.392
301.781
302.195
302.506
302.707
302.831
302.894
302.924
302.942
302.955
302.967
302.977
302.985
302.991
302.995
302.997
302.998
302.998
302.998
302.997
302.997
302.997
302.997
302.998
302.999
303.002
303.007
303.017
303.031
303.049
303.07
303.072
303.106
299.486
299.446
299.443
300.491
301.152
301.702
302.178
302.498
302.684
302.813
302.892
302.937
302.967
302.985
302.996
303.004
303.01
303.015
303.018
303.021
303.022
303.022
303.021
303.02
303.02
303.019
303.018
303.017
303.016
303.015
303.015
303.015
303.016
303.018
303.022
303.031
303.042
303.051
303.055
303.096
)
;

boundaryField
{
    floor
    {
        type            wallHeatTransfer;
        Tinf            uniform 305.2;
        alphaWall       uniform 0.24;
        value           nonuniform List<scalar> 
36
(
302.784
303.108
303.04
302.997
302.99
303
303.024
303.052
303.08
303.106
303.132
303.157
303.181
303.204
303.226
303.249
303.273
303.293
303.343
303.343
303.236
303.179
303.138
303.139
303.194
303.176
302.784
302.702
302.749
302.817
303.108
302.817
303.117
302.77
302.956
302.747
)
;
    }
    ceiling
    {
        type            wallHeatTransfer;
        Tinf            uniform 303.2;
        alphaWall       uniform 0.24;
        value           nonuniform List<scalar> 
43
(
299.714
299.672
299.665
300.638
301.269
301.796
302.252
302.554
302.73
302.851
302.925
302.968
302.996
303.014
303.025
303.033
303.039
303.044
303.047
303.05
303.051
303.051
303.05
303.049
303.047
303.046
303.044
303.042
303.041
303.039
303.038
303.037
303.037
303.038
303.041
303.048
303.058
303.065
303.07
303.107
304.368
304.072
298.3
)
;
    }
    sWall
    {
        type            wallHeatTransfer;
        Tinf            uniform 315.2;
        alphaWall       uniform 0.36;
        value           uniform 300.896;
    }
    nWall
    {
        type            wallHeatTransfer;
        Tinf            uniform 307.2;
        alphaWall       uniform 0.36;
        value           nonuniform List<scalar> 6(303.672 303.613 303.497 303.71 303.688 303.734);
    }
    sideWalls
    {
        type            empty;
    }
    glass1
    {
        type            wallHeatTransfer;
        Tinf            uniform 315.2;
        alphaWall       uniform 4.3;
        value           nonuniform List<scalar> 9(311.258 310.616 310.208 309.896 309.635 309.395 309.195 309.256 309.481);
    }
    glass2
    {
        type            wallHeatTransfer;
        Tinf            uniform 307.2;
        alphaWall       uniform 4.3;
        value           nonuniform List<scalar> 2(305.56 305.681);
    }
    sun
    {
        type            wallHeatTransfer;
        Tinf            uniform 305.2;
        alphaWall       uniform 0.24;
        value           nonuniform List<scalar> 
14
(
303.011
302.744
302.728
302.715
302.704
302.693
302.683
302.672
302.661
302.65
302.642
302.642
302.654
302.69
)
;
    }
    Table_master
    {
        type            zeroGradient;
    }
    Table_slave
    {
        type            zeroGradient;
    }
    inlet
    {
        type            fixedValue;
        value           uniform 295.15;
    }
    outlet
    {
        type            zeroGradient;
    }
}


// ************************************************************************* //
