/*--------------------------------*- C++ -*----------------------------------*\
  =========                 |
  \\      /  F ield         | OpenFOAM: The Open Source CFD Toolbox
   \\    /   O peration     | Website:  https://openfoam.org
    \\  /    A nd           | Version:  6
     \\/     M anipulation  |
\*---------------------------------------------------------------------------*/
FoamFile
{
    version     2.0;
    format      ascii;
    class       volScalarField;
    location    "36899.9999985303948";
    object      k;
}
// * * * * * * * * * * * * * * * * * * * * * * * * * * * * * * * * * * * * * //

dimensions      [0 2 -2 0 0 0 0];

internalField   nonuniform List<scalar> 
778
(
0.00158601
0.0018013
0.0017882
0.00194678
0.00209799
0.00224019
0.00237674
0.00251218
0.0026523
0.00280537
0.00295531
0.00310133
0.00324864
0.00341092
0.00358453
0.000792447
0.00162565
0.00165174
0.00157253
0.00144458
0.00128223
0.0011302
0.000998706
0.000887134
0.000792683
0.000712963
0.000644946
0.000585946
0.000533431
0.000484695
0.000436235
0.000397944
0.000326087
0.00340715
0.00643401
0.00268775
0.00274629
0.00288797
0.00305451
0.00323475
0.00343032
0.00364325
0.00387319
0.00412485
0.00437822
0.00459374
0.00469898
0.00459349
0.00429707
0.00390599
0.00357919
0.00253848
0.0028139
0.00295577
0.00289747
0.002664
0.00226448
0.00190502
0.00160881
0.0013692
0.00117554
0.00101688
0.000885172
0.000773959
0.000681169
0.000615186
0.000574712
0.000864699
0.000524254
0.00549112
0.0127827
0.00347832
0.00321226
0.00329756
0.00345535
0.00363663
0.00384059
0.00407059
0.00432679
0.00463445
0.00500945
0.00544946
0.00595919
0.00653093
0.00686046
0.00627817
0.00538611
0.00403747
0.00416976
0.00417346
0.00397591
0.00357806
0.00266615
0.00201568
0.0015758
0.00126935
0.0010492
0.000886849
0.000764572
0.000671816
0.000603657
0.000551464
0.000548733
0.00116626
0.000678721
0.00797414
0.0217618
0.00449188
0.00339083
0.00334154
0.00343804
0.00354931
0.0036686
0.00380856
0.00399051
0.00425799
0.00464705
0.00516971
0.00582402
0.00655432
0.00713521
0.00722912
0.0072466
0.00534099
0.00554613
0.00537399
0.00512462
0.00478657
0.00434817
0.00345621
0.00285947
0.00243627
0.00210993
0.00185034
0.00163179
0.00143839
0.00125842
0.00107757
0.000800704
0.000659809
0.00142323
0.000823139
0.0108773
0.0336402
0.00621429
0.00342511
0.00315827
0.00316687
0.00318939
0.00320955
0.00325163
0.00336035
0.00359371
0.0039879
0.00455207
0.00527565
0.00608632
0.00681743
0.00728228
0.00764151
0.00751222
0.00665023
0.00607044
0.00557734
0.00509832
0.00462929
0.00412341
0.00366589
0.00327504
0.0029372
0.00263077
0.00234718
0.0020786
0.00181795
0.00155463
0.00122188
0.000930306
0.00119145
0.00121716
0.00117111
0.0020568
0.00188993
0.0141761
0.0476061
0.00928688
0.00349027
0.00290854
0.00282262
0.00276419
0.00269924
0.00266381
0.00273404
0.00298016
0.00341351
0.00402286
0.00479759
0.00565364
0.00646127
0.00706728
0.0074041
0.00731921
0.00678594
0.00621214
0.00563541
0.0050735
0.00455583
0.00409148
0.00369586
0.00336313
0.00307359
0.00280645
0.00255098
0.00229836
0.00204173
0.00177367
0.00147138
0.00117815
0.00111286
0.00111247
0.00171715
0.00511859
0.00270115
0.0179939
0.0606129
0.0143653
0.00382017
0.00271527
0.00252931
0.00241161
0.00229373
0.00222067
0.00231123
0.00263008
0.00313932
0.00380252
0.00463304
0.00553048
0.0063683
0.00700106
0.00732646
0.00725162
0.00681532
0.00621344
0.00555378
0.00491151
0.00434275
0.00387262
0.00350058
0.00320678
0.0029618
0.00274116
0.00252863
0.00231287
0.00208671
0.00184513
0.00158291
0.00132652
0.0011596
0.00109349
0.0015675
0.00635126
0.00375808
0.0216432
0.0704859
0.0214434
0.00510396
0.00274304
0.00237179
0.00220996
0.0020816
0.00202589
0.00221911
0.00264968
0.00323158
0.00393924
0.00477842
0.0057043
0.00657858
0.00722687
0.00751481
0.00738365
0.00689543
0.00619806
0.00542745
0.00469226
0.0040651
0.0035749
0.00321283
0.00294792
0.00274128
0.00256427
0.0023955
0.00222142
0.00203468
0.00183167
0.00161249
0.00139505
0.00122808
0.00115976
0.00215732
0.0139042
0.00646165
0.0228341
0.0694871
0.0325421
0.0110634
0.00406915
0.0025876
0.00223529
0.0021026
0.00218946
0.00251175
0.00300012
0.00360303
0.00433615
0.00521966
0.00619447
0.00709664
0.00772356
0.00792622
0.00766591
0.00702686
0.00616756
0.00525147
0.0044103
0.0037245
0.00321806
0.00286994
0.00263646
0.00246997
0.00233683
0.0022113
0.00207867
0.00193197
0.00176873
0.00159066
0.0014111
0.00128242
0.00137347
0.00431248
0.0275481
0.00850973
0.0219175
0.0516235
0.033645
0.0174395
0.00859093
0.00476008
0.0032609
0.00272931
0.00285224
0.00320974
0.00367175
0.00424788
0.00500106
0.00594915
0.00698808
0.00790053
0.0084505
0.00848829
0.00800617
0.00712732
0.00604682
0.00496054
0.00401733
0.00329507
0.00280093
0.00249104
0.00230437
0.00218638
0.00209796
0.00201245
0.00191647
0.00180443
0.00167497
0.00153054
0.00138345
0.00129814
0.0018464
0.0112803
0.0228423
0.0086876
0.0192304
0.039426
0.0302358
0.0195686
0.0121846
0.00793977
0.00571709
0.00466834
0.00436061
0.00439774
0.00465134
0.00514747
0.00594338
0.00699589
0.00810652
0.00897959
0.00935226
0.00910033
0.00827621
0.00706655
0.00572129
0.00447086
0.00347095
0.00277536
0.0023532
0.00211921
0.00199495
0.00192725
0.00187712
0.00182296
0.00175491
0.001669
0.00156508
0.00144699
0.0013304
0.00130809
0.00241069
0.0111777
0.0208279
0.00859013
0.0159452
0.0315803
0.0266487
0.0195396
0.0139771
0.0102846
0.00802709
0.0067508
0.00604729
0.00572876
0.00578209
0.00627863
0.00722184
0.00843704
0.00958684
0.0102969
0.0103158
0.00959385
0.00828855
0.00667397
0.00506986
0.00373484
0.00280197
0.00224155
0.00196104
0.00182111
0.00175222
0.00171826
0.00169058
0.00165511
0.00160508
0.00153719
0.00145323
0.00135985
0.0012777
0.00131372
0.00236901
0.00958319
0.0204878
0.00895109
0.0132637
0.025677
0.0233544
0.0186923
0.0145853
0.0115892
0.00954404
0.00820923
0.0072988
0.006839
0.00695993
0.00772861
0.00899636
0.0103867
0.0114222
0.0117096
0.0110993
0.00968617
0.00778815
0.00577236
0.00404324
0.00284554
0.00220016
0.00186736
0.00170494
0.00162523
0.00158503
0.00156292
0.00154092
0.00151044
0.00146747
0.00141147
0.00134598
0.00128122
0.00125479
0.00145291
0.00275626
0.00923957
0.0177048
0.0100261
0.0133564
0.0224252
0.0220658
0.0177647
0.0143956
0.0118963
0.0100854
0.0087691
0.00791762
0.00777493
0.00847923
0.00988397
0.0115477
0.0128892
0.0134032
0.0128239
0.0112473
0.00896236
0.00651913
0.00431118
0.00296098
0.0022185
0.00184958
0.0016676
0.0015748
0.00152293
0.00148913
0.00146214
0.00143257
0.00139561
0.0013497
0.00129824
0.00125481
0.00126454
0.00146994
0.00217006
0.00399505
0.00988192
0.0172452
0.0101081
0.0108798
0.011768
0.0129256
0.0125537
0.0113749
0.0100746
0.00894606
0.00820185
0.00830107
0.00941805
0.0113035
0.0133811
0.0149694
0.0155261
0.0148015
0.012821
0.0100911
0.00698988
0.00461235
0.00310796
0.00231794
0.00193255
0.00174248
0.00163852
0.00157264
0.00152309
0.00147919
0.00143562
0.00139002
0.00134187
0.00129259
0.00125482
0.0012703
0.00145574
0.00205896
0.00342164
0.00600167
0.0106066
0.0165749
0.00900207
0.0035415
0.00481935
0.00598828
0.00659185
0.00726925
0.00878427
0.0113034
0.0141424
0.016569
0.0180034
0.0180729
0.0167042
0.0141346
0.0105217
0.00722692
0.00475342
0.0032599
0.00249862
0.00214626
0.00197411
0.00187405
0.00180272
0.00174364
0.00169004
0.00163886
0.00158875
0.00153942
0.00150008
0.00147361
0.00147603
0.00156073
0.00186104
0.00263874
0.00426961
0.00713822
0.0112606
0.0151082
0.00816493
0.00444659
0.00627809
0.00808878
0.0109949
0.0146673
0.0181284
0.0203763
0.0214508
0.0213798
0.0201424
0.0175654
0.0140318
0.0103269
0.00702489
0.00471225
0.00340039
0.00278716
0.00252656
0.00240843
0.00234157
0.00229398
0.00225639
0.00222809
0.00221116
0.00220696
0.00221334
0.00222293
0.00222341
0.00222764
0.00226282
0.00236945
0.00265919
0.00334298
0.00476736
0.00737735
0.0116044
0.0179768
0.00861323
0.0150803
0.0245596
0.0181298
0.0143733
0.0169635
0.0206491
0.0227722
0.0234763
0.0230344
0.0216921
0.0196693
0.0169807
0.0137372
0.0103254
0.00732579
0.00521384
0.00407287
0.00358674
0.00341113
0.00334759
0.00331325
0.0032789
0.0032391
0.00319969
0.00317124
0.00316443
0.00318748
0.003245
0.00333718
0.00345754
0.00358897
0.00373143
0.00397027
0.00437729
0.00509353
0.00640333
0.00887561
0.0142923
0.0180871
0.0103652
0.0138081
0.0170646
0.0178193
0.0207262
0.0216491
0.0220637
0.0210694
0.0192638
0.017155
0.0149875
0.0128515
0.0107694
0.00876832
0.00698437
0.00560892
0.00477101
0.00437121
0.00422998
0.00421574
0.00425399
0.00430398
0.00434562
0.00437374
0.00439425
0.00442
0.00446731
0.00455443
0.00470193
0.00493328
0.00527281
0.00573839
0.00632614
0.00698556
0.00773651
0.00871524
0.0101975
0.0125826
0.017309
0.0197793
0.0112339
0.0121326
0.00891479
0.00882983
0.00935901
0.00981281
0.00925841
0.00820682
0.00704919
0.00596245
0.00499291
0.0041414
0.00341561
0.00284758
0.00247091
0.00227922
0.00221072
0.00221351
0.00225076
0.00230234
0.00235818
0.00241388
0.00246898
0.00252624
0.0025914
0.00267293
0.00278223
0.0029336
0.00314311
0.00342492
0.00378595
0.00422236
0.00472294
0.00527983
0.00590359
0.00659178
0.00734645
0.00818181
0.00913847
0.0102134
0.00943168
)
;

boundaryField
{
    floor
    {
        type            kqRWallFunction;
        value           nonuniform List<scalar> 
36
(
0.00358453
0.000792447
0.00162565
0.00165174
0.00157253
0.00144458
0.00128223
0.0011302
0.000998706
0.000887134
0.000792683
0.000712963
0.000644946
0.000585946
0.000533431
0.000484695
0.000436235
0.000397944
0.000326087
0.000326087
0.000524254
0.000678721
0.000823139
0.00117111
0.0020568
0.00188993
0.00358453
0.00429707
0.00390599
0.00357919
0.000792447
0.00357919
0.00253848
0.00538611
0.00403747
0.00534099
)
;
    }
    ceiling
    {
        type            kqRWallFunction;
        value           nonuniform List<scalar> 
43
(
0.0121326
0.00891479
0.00882983
0.00935901
0.00981281
0.00925841
0.00820682
0.00704919
0.00596245
0.00499291
0.0041414
0.00341561
0.00284758
0.00247091
0.00227922
0.00221072
0.00221351
0.00225076
0.00230234
0.00235818
0.00241388
0.00246898
0.00252624
0.0025914
0.00267293
0.00278223
0.0029336
0.00314311
0.00342492
0.00378595
0.00422236
0.00472294
0.00527983
0.00590359
0.00659178
0.00734645
0.00818181
0.00913847
0.0102134
0.00943168
0.0108798
0.011768
0.00444659
)
;
    }
    sWall
    {
        type            kqRWallFunction;
        value           nonuniform List<scalar> 9(0.0219175 0.0192304 0.0159452 0.0132637 0.0133564 0.0108798 0.0150803 0.0138081 0.0121326);
    }
    nWall
    {
        type            kqRWallFunction;
        value           nonuniform List<scalar> 
14
(
0.00188993
0.00270115
0.00375808
0.0086876
0.00859013
0.00895109
0.0100261
0.0101081
0.00900207
0.00816493
0.00861323
0.0103652
0.0112339
0.00943168
)
;
    }
    sideWalls
    {
        type            empty;
    }
    glass1
    {
        type            kqRWallFunction;
        value           nonuniform List<scalar> 9(0.00158601 0.00340715 0.00549112 0.00797414 0.0108773 0.0141761 0.0179939 0.0216432 0.0228341);
    }
    glass2
    {
        type            kqRWallFunction;
        value           nonuniform List<scalar> 2(0.00646165 0.00850973);
    }
    sun
    {
        type            kqRWallFunction;
        value           nonuniform List<scalar> 
14
(
0.00158601
0.0018013
0.0017882
0.00194678
0.00209799
0.00224019
0.00237674
0.00251218
0.0026523
0.00280537
0.00295531
0.00310133
0.00324864
0.00341092
)
;
    }
    Table_master
    {
        type            kqRWallFunction;
        value           nonuniform List<scalar> 9(0.00266615 0.00201568 0.0015758 0.00126935 0.0010492 0.000886849 0.000764572 0.000671816 0.000603657);
    }
    Table_slave
    {
        type            kqRWallFunction;
        value           nonuniform List<scalar> 9(0.00345621 0.00285947 0.00243627 0.00210993 0.00185034 0.00163179 0.00143839 0.00125842 0.00107757);
    }
    inlet
    {
        type            turbulentIntensityKineticEnergyInlet;
        intensity       0.05;
        value           uniform 0.0009375;
    }
    outlet
    {
        type            zeroGradient;
    }
}


// ************************************************************************* //
