/*--------------------------------*- C++ -*----------------------------------*\
  =========                 |
  \\      /  F ield         | OpenFOAM: The Open Source CFD Toolbox
   \\    /   O peration     | Website:  https://openfoam.org
    \\  /    A nd           | Version:  6
     \\/     M anipulation  |
\*---------------------------------------------------------------------------*/
FoamFile
{
    version     2.0;
    format      ascii;
    class       volScalarField;
    location    "41999.9999995694016";
    object      epsilon;
}
// * * * * * * * * * * * * * * * * * * * * * * * * * * * * * * * * * * * * * //

dimensions      [0 2 -3 0 0 0 0];

internalField   nonuniform List<scalar> 
778
(
0.000253142
0.000306393
0.000303053
0.000344241
0.000385113
0.00042492
0.000464352
0.0005046
0.000547399
0.000595465
0.000643841
0.000692155
0.000742064
0.00079837
0.000860107
8.94009e-05
0.000262727
0.000269082
0.000249967
0.000220088
0.000184042
0.000152293
0.000126501
0.000105906
8.94522e-05
7.63038e-05
6.56496e-05
5.68505e-05
4.93815e-05
4.27707e-05
3.65191e-05
3.18173e-05
2.36004e-05
0.000797059
0.00144335
0.000287024
0.000259614
0.000261706
0.000267669
0.000276554
0.000289969
0.000310202
0.000340377
0.000379552
0.000430629
0.000498982
0.000600174
0.000785328
0.00112897
0.000978416
0.000858232
0.000512568
0.000369835
0.000294449
0.000243012
0.000204099
0.000186874
0.00015463
0.000124941
0.000100653
8.14605e-05
6.65084e-05
5.48116e-05
4.56251e-05
3.87041e-05
3.45168e-05
3.27628e-05
6.58286e-05
4.81115e-05
0.00163078
0.00407969
0.000407467
0.000242946
0.000229113
0.000231018
0.000238227
0.000250485
0.000268373
0.00029262
0.000324721
0.000366766
0.000421147
0.00049488
0.000601328
0.000724631
0.000829628
0.00158429
0.00102809
0.000512665
0.000367985
0.000294476
0.000262216
0.000551846
0.000362781
0.000250764
0.000181291
0.000136231
0.000105864
8.47396e-05
6.97955e-05
5.94475e-05
4.51301e-05
3.79842e-05
0.000108292
7.08731e-05
0.00285385
0.00877202
0.000710085
0.000240749
0.000202486
0.000200013
0.000203176
0.000209792
0.000220596
0.000237496
0.000263168
0.000299901
0.000349119
0.000412287
0.000488031
0.000560268
0.000612296
0.000824019
0.00156429
0.000729211
0.000459943
0.000358372
0.000301942
0.000291812
0.000814368
0.000612877
0.000482009
0.00038849
0.000319051
0.000264229
0.000218673
0.000178946
0.000141795
8.38156e-05
5.49059e-05
0.000148902
9.46677e-05
0.0045466
0.0158305
0.00134687
0.000258389
0.000175742
0.000166789
0.000165789
0.000167756
0.00017391
0.000187404
0.000211636
0.000248307
0.000297727
0.000359297
0.000427797
0.000489207
0.000528494
0.000582281
0.000627074
0.00048302
0.000393397
0.000330983
0.000282275
0.000248617
0.000247833
0.000226766
0.000202903
0.000180985
0.000162588
0.000146428
0.000131776
0.000118213
0.000105087
8.4518e-05
6.42221e-05
0.000105376
0.00013898
0.000160611
0.000372062
0.000328772
0.0067646
0.0248829
0.0025546
0.00031817
0.000155553
0.000137066
0.000132119
0.00013068
0.000134445
0.000148534
0.00017668
0.000218049
0.000270785
0.000334139
0.000401765
0.000462681
0.000502952
0.000521549
0.00050457
0.000438094
0.000373725
0.000315599
0.00026472
0.000223382
0.000193293
0.000169631
0.000150805
0.0001356
0.000123254
0.000112699
0.000103248
9.45056e-05
8.60895e-05
7.59304e-05
6.53584e-05
7.76598e-05
9.98973e-05
0.000211334
0.00107681
0.00056238
0.00967369
0.0336413
0.0045859
0.00046522
0.000150875
0.000116349
0.000107085
0.000103273
0.000107066
0.000127903
0.000166112
0.000215888
0.00027335
0.0003402
0.000409502
0.000470621
0.00051027
0.000520441
0.000494235
0.000437556
0.000371809
0.000307476
0.000250552
0.000204439
0.000169746
0.000144554
0.000126319
0.000112725
0.000102259
9.36803e-05
8.61878e-05
7.93246e-05
7.28033e-05
6.61498e-05
6.03023e-05
6.37735e-05
7.695e-05
0.000176208
0.00162467
0.00092116
0.012761
0.0404088
0.0074931
0.000871947
0.000194393
0.000115407
9.739e-05
9.14487e-05
9.86419e-05
0.000137673
0.000189248
0.000246271
0.00030718
0.000374134
0.000445242
0.000508547
0.000547759
0.000551133
0.000515781
0.00045161
0.000375585
0.000301038
0.000236536
0.00018599
0.000149322
0.000123983
0.00010671
9.45715e-05
8.57299e-05
7.87856e-05
7.28706e-05
6.75112e-05
6.24681e-05
5.76577e-05
5.38798e-05
5.57669e-05
7.11431e-05
0.000359546
0.00541272
0.00206343
0.0138286
0.0414555
0.0139369
0.00316675
0.000631015
0.000208264
0.000132747
0.000116002
0.000142441
0.000192842
0.000249201
0.000306442
0.000367629
0.000437267
0.000511978
0.000576646
0.000611586
0.00060354
0.000552359
0.000471139
0.000378694
0.000291114
0.000218406
0.000164109
0.000126825
0.000102639
8.73105e-05
7.73695e-05
7.06782e-05
6.56636e-05
6.14446e-05
5.75924e-05
5.39377e-05
5.05341e-05
4.81758e-05
5.23361e-05
0.000104434
0.0011005
0.0137034
0.00312537
0.0130043
0.0283637
0.0144169
0.00572958
0.0021063
0.000835618
0.000414145
0.000277045
0.000279063
0.000314517
0.000356002
0.000401836
0.000459168
0.000532047
0.000611486
0.000675365
0.000699592
0.000671055
0.000594054
0.000486985
0.000373044
0.000271097
0.000191461
0.000135962
0.000100804
7.99667e-05
6.80381e-05
6.12522e-05
5.71535e-05
5.41832e-05
5.16004e-05
4.91042e-05
4.66319e-05
4.43721e-05
4.35545e-05
5.53281e-05
0.000269776
0.00380984
0.0102252
0.00322162
0.0106875
0.0193507
0.0120379
0.00630167
0.0031759
0.0016757
0.000987325
0.000679328
0.000560138
0.000517308
0.000510422
0.000531843
0.000584851
0.000664728
0.000749734
0.000806856
0.000808191
0.000744348
0.000628208
0.000486484
0.000348228
0.00023423
0.000152989
0.000102102
7.37632e-05
5.89566e-05
5.15001e-05
4.80461e-05
4.62307e-05
4.48928e-05
4.35639e-05
4.20971e-05
4.05643e-05
3.93872e-05
4.06142e-05
6.29183e-05
0.000475765
0.00351492
0.00816311
0.00314018
0.00806918
0.0137654
0.00969037
0.00593329
0.00356999
0.00222777
0.00149102
0.00109323
0.000869368
0.000743577
0.000686135
0.000691123
0.000752753
0.000847914
0.000935282
0.000970213
0.000926358
0.000805309
0.000634961
0.000452844
0.000294022
0.000178229
0.00010743
6.97406e-05
5.26807e-05
4.45367e-05
4.07128e-05
3.92857e-05
3.86853e-05
3.82258e-05
3.76458e-05
3.69261e-05
3.63632e-05
3.68422e-05
4.14868e-05
7.00389e-05
0.000370738
0.00259776
0.00738246
0.00322503
0.00612174
0.0101669
0.00779015
0.00531218
0.00357012
0.00246922
0.00178815
0.00136838
0.00109306
0.000926258
0.000860043
0.000888854
0.000986593
0.00110187
0.00117262
0.00115075
0.00102563
0.000820716
0.000586487
0.000369728
0.000209312
0.000115083
7.2234e-05
5.22666e-05
4.2875e-05
3.82198e-05
3.59529e-05
3.50877e-05
3.47617e-05
3.45431e-05
3.43479e-05
3.44294e-05
3.5617e-05
3.99684e-05
5.3433e-05
0.000101023
0.000374844
0.00216197
0.00555054
0.00389082
0.00618634
0.00781137
0.00680431
0.00473924
0.00336545
0.00246238
0.00186591
0.00146241
0.00119468
0.00106513
0.00107229
0.00118443
0.00133505
0.00144227
0.00143927
0.00129769
0.00104723
0.000740482
0.000457485
0.000238919
0.000131107
8.12928e-05
5.92463e-05
4.85742e-05
4.2792e-05
3.93707e-05
3.72995e-05
3.61099e-05
3.55249e-05
3.52306e-05
3.54201e-05
3.71177e-05
4.32043e-05
6.10289e-05
0.000108161
0.000224915
0.000559381
0.00214505
0.00475271
0.00403994
0.00454813
0.00511593
0.00418595
0.00336203
0.00263965
0.00206986
0.00164867
0.00136145
0.00124473
0.00130177
0.00148222
0.00169333
0.00183036
0.00181755
0.0016318
0.00129425
0.000903362
0.000518656
0.00027774
0.000153584
9.97902e-05
7.6512e-05
6.50851e-05
5.82917e-05
5.37021e-05
5.04183e-05
4.79964e-05
4.61682e-05
4.50374e-05
4.47683e-05
4.5865e-05
5.09321e-05
6.7318e-05
0.000113228
0.000227236
0.000481773
0.00104101
0.00237018
0.00499023
0.00346452
0.00139943
0.00142926
0.0014306
0.00135092
0.00130837
0.00142065
0.00170685
0.00204584
0.0023125
0.00241139
0.00229156
0.00197076
0.0015175
0.000971792
0.000561348
0.00030772
0.000183058
0.00013021
0.000108252
9.73276e-05
9.04932e-05
8.56483e-05
8.22034e-05
7.98868e-05
7.83764e-05
7.7246e-05
7.61606e-05
7.65489e-05
7.92374e-05
8.76828e-05
0.00011201
0.00017686
0.000335332
0.000690275
0.0014298
0.00277738
0.00457876
0.00301241
0.00118832
0.00171122
0.00194725
0.00230216
0.00274951
0.00315586
0.00333975
0.0033098
0.0030878
0.00269387
0.00212082
0.00149661
0.000960417
0.000560632
0.000330641
0.000223096
0.000180218
0.000163036
0.000154598
0.000149331
0.000145904
0.000144257
0.0001446
0.000146991
0.000151094
0.000156042
0.000160468
0.000162912
0.000166739
0.000176812
0.000201704
0.000263429
0.000408308
0.000728702
0.00139781
0.00273265
0.00543419
0.00309114
0.00742263
0.00812688
0.00482046
0.00339782
0.00372436
0.00413231
0.00414302
0.00393274
0.00358017
0.00312909
0.00262236
0.00207429
0.00151854
0.00102653
0.000663238
0.000447541
0.000347944
0.000309683
0.00029558
0.000288858
0.000283798
0.000279078
0.000275149
0.000273132
0.000274276
0.000279665
0.000290023
0.000305485
0.000325165
0.000346597
0.000365796
0.000387324
0.000430168
0.000506951
0.000652187
0.000941703
0.00155232
0.00307382
0.00487695
0.00423417
0.00650323
0.00514414
0.0043567
0.00461158
0.00452913
0.00426133
0.00368133
0.00303588
0.00245168
0.0019607
0.00155882
0.00123194
0.00096778
0.000766091
0.000627656
0.0005484
0.000510833
0.000496847
0.000494596
0.000497473
0.000502037
0.000506996
0.000512681
0.000520682
0.000533524
0.000554402
0.000586944
0.000634929
0.000701725
0.000789163
0.000895589
0.00101259
0.00113263
0.00128198
0.00150331
0.00187103
0.00251999
0.00399948
0.00523417
0.0048202
0.00535551
0.00337315
0.00332486
0.00362779
0.0038943
0.00356784
0.00297586
0.0023665
0.00183791
0.00140532
0.00105926
0.000792468
0.000603939
0.000489626
0.000435172
0.000416761
0.000417939
0.000428302
0.000442443
0.000457761
0.000473244
0.000489033
0.000506286
0.00052714
0.000554759
0.000593454
0.00064869
0.000726583
0.000832571
0.000969649
0.0011376
0.00133473
0.00156281
0.00182901
0.00213444
0.00249184
0.00291473
0.00343218
0.00406387
0.00367228
)
;

boundaryField
{
    floor
    {
        Cmu             0.09;
        kappa           0.41;
        E               9.8;
        type            epsilonWallFunction;
        value           nonuniform List<scalar> 
36
(
0.000860107
8.94009e-05
0.000262727
0.000269082
0.000249967
0.000220088
0.000184042
0.000152293
0.000126501
0.000105906
8.94522e-05
7.63038e-05
6.56496e-05
5.68505e-05
4.93815e-05
4.27707e-05
3.65191e-05
3.18173e-05
2.36004e-05
2.36004e-05
4.81115e-05
7.08731e-05
9.46677e-05
0.000160611
0.000372062
0.000328772
0.000860107
0.00112897
0.000978416
0.000858232
8.94009e-05
0.000858232
0.000512568
0.00158429
0.00102809
0.00156429
)
;
    }
    ceiling
    {
        Cmu             0.09;
        kappa           0.41;
        E               9.8;
        type            epsilonWallFunction;
        value           nonuniform List<scalar> 
43
(
0.00535551
0.00337315
0.00332486
0.00362779
0.0038943
0.00356784
0.00297586
0.0023665
0.00183791
0.00140532
0.00105926
0.000792468
0.000603939
0.000489626
0.000435172
0.000416761
0.000417939
0.000428302
0.000442443
0.000457761
0.000473244
0.000489033
0.000506286
0.00052714
0.000554759
0.000593454
0.00064869
0.000726583
0.000832571
0.000969649
0.0011376
0.00133473
0.00156281
0.00182901
0.00213444
0.00249184
0.00291473
0.00343218
0.00406387
0.00367228
0.00454813
0.00511593
0.00118832
)
;
    }
    sWall
    {
        Cmu             0.09;
        kappa           0.41;
        E               9.8;
        type            epsilonWallFunction;
        value           nonuniform List<scalar> 9(0.0130043 0.0106875 0.00806918 0.00612174 0.00618634 0.00454813 0.00742263 0.00650323 0.00535551);
    }
    nWall
    {
        Cmu             0.09;
        kappa           0.41;
        E               9.8;
        type            epsilonWallFunction;
        value           nonuniform List<scalar> 
14
(
0.000328772
0.00056238
0.00092116
0.00322162
0.00314018
0.00322503
0.00389082
0.00403994
0.00346452
0.00301241
0.00309114
0.00423417
0.0048202
0.00367228
)
;
    }
    sideWalls
    {
        type            empty;
    }
    glass1
    {
        Cmu             0.09;
        kappa           0.41;
        E               9.8;
        type            epsilonWallFunction;
        value           nonuniform List<scalar> 9(0.000253142 0.000797059 0.00163078 0.00285385 0.0045466 0.0067646 0.00967369 0.012761 0.0138286);
    }
    glass2
    {
        Cmu             0.09;
        kappa           0.41;
        E               9.8;
        type            epsilonWallFunction;
        value           nonuniform List<scalar> 2(0.00206343 0.00312537);
    }
    sun
    {
        Cmu             0.09;
        kappa           0.41;
        E               9.8;
        type            epsilonWallFunction;
        value           nonuniform List<scalar> 
14
(
0.000253142
0.000306393
0.000303053
0.000344241
0.000385113
0.00042492
0.000464352
0.0005046
0.000547399
0.000595465
0.000643841
0.000692155
0.000742064
0.00079837
)
;
    }
    Table_master
    {
        Cmu             0.09;
        kappa           0.41;
        E               9.8;
        type            epsilonWallFunction;
        value           nonuniform List<scalar> 9(0.000551846 0.000362781 0.000250764 0.000181291 0.000136231 0.000105864 8.47396e-05 6.97955e-05 5.94475e-05);
    }
    Table_slave
    {
        Cmu             0.09;
        kappa           0.41;
        E               9.8;
        type            epsilonWallFunction;
        value           nonuniform List<scalar> 9(0.000814368 0.000612877 0.000482009 0.00038849 0.000319051 0.000264229 0.000218673 0.000178946 0.000141795);
    }
    inlet
    {
        type            turbulentMixingLengthDissipationRateInlet;
        mixingLength    0.01;
        phi             phi;
        k               k;
        value           uniform 0.000471671;
    }
    outlet
    {
        type            zeroGradient;
    }
}


// ************************************************************************* //
