/*--------------------------------*- C++ -*----------------------------------*\
  =========                 |
  \\      /  F ield         | OpenFOAM: The Open Source CFD Toolbox
   \\    /   O peration     | Website:  https://openfoam.org
    \\  /    A nd           | Version:  6
     \\/     M anipulation  |
\*---------------------------------------------------------------------------*/
FoamFile
{
    version     2.0;
    format      ascii;
    class       volVectorField;
    location    "41999.9999995694016";
    object      U;
}
// * * * * * * * * * * * * * * * * * * * * * * * * * * * * * * * * * * * * * //

dimensions      [0 1 -1 0 0 0 0];

internalField   nonuniform List<vector> 
778
(
(0.0656009 0.0794064 0)
(-0.155175 0.0157631 0)
(-0.164297 0.0146213 0)
(-0.192408 0.0122705 0)
(-0.216837 0.00871975 0)
(-0.236889 0.00473885 0)
(-0.252007 0.000412636 0)
(-0.261769 -0.00437137 0)
(-0.265663 -0.00981184 0)
(-0.262686 -0.0161894 0)
(-0.250885 -0.0242601 0)
(-0.226192 -0.0348759 0)
(-0.18608 -0.0503934 0)
(-0.144153 -0.0751577 0)
(-0.150031 -0.108541 0)
(0.0546863 0.0354896 0)
(0.0158199 -0.0268935 0)
(0.0450389 -0.023278 0)
(0.069478 -0.0161735 0)
(0.0845689 -0.0103639 0)
(0.0917946 -0.0064178 0)
(0.0946323 -0.00433795 0)
(0.0956658 -0.00331673 0)
(0.0961234 -0.00273047 0)
(0.0962999 -0.0023169 0)
(0.0961785 -0.00195154 0)
(0.095652 -0.00150997 0)
(0.0943914 -0.000754815 0)
(0.091538 0.000851408 0)
(0.0853208 0.00407905 0)
(0.073755 0.0077944 0)
(0.0600509 0.0116478 0)
(-0.00786241 0.030029 0)
(0.258402 0.167392 0)
(-0.161234 0.0483886 0)
(-0.141598 0.0459736 0)
(-0.173996 0.0416049 0)
(-0.199352 0.0356554 0)
(-0.220063 0.0291151 0)
(-0.236082 0.0220442 0)
(-0.247325 0.0142162 0)
(-0.253494 0.0052878 0)
(-0.253808 -0.00515706 0)
(-0.247655 -0.0170825 0)
(-0.233955 -0.030847 0)
(-0.214054 -0.0480702 0)
(-0.197482 -0.0699499 0)
(-0.193972 -0.0826241 0)
(-0.166377 -0.0425272 0)
(-0.105346 -0.036343 0)
(-0.0983212 -0.0444457 0)
(0.109356 -0.0421718 0)
(0.0644973 -0.0412404 0)
(0.0719848 -0.0323359 0)
(0.0860129 -0.0207793 0)
(0.0939632 -0.0105201 0)
(0.0962261 -0.00364914 0)
(0.0959889 -0.000193761 0)
(0.0955935 0.00124516 0)
(0.0955527 0.00188792 0)
(0.0956325 0.00226203 0)
(0.0956406 0.00258754 0)
(0.0955417 0.00313358 0)
(0.0952512 0.00441858 0)
(0.0939928 0.00774018 0)
(0.0883887 0.0167885 0)
(0.0746085 0.0253983 0)
(0.0632243 0.0330499 0)
(-0.0518658 0.0637008 0)
(0.429984 0.253952 0)
(-0.194235 0.0847538 0)
(-0.112772 0.0784205 0)
(-0.148232 0.066938 0)
(-0.170657 0.0554776 0)
(-0.188741 0.0437024 0)
(-0.202568 0.0313204 0)
(-0.212251 0.0179884 0)
(-0.217595 0.00338763 0)
(-0.217948 -0.0126347 0)
(-0.212691 -0.0303201 0)
(-0.201586 -0.0499012 0)
(-0.185944 -0.0715617 0)
(-0.169401 -0.0932056 0)
(-0.151023 -0.104552 0)
(-0.120183 -0.0931201 0)
(-0.0794946 -0.094904 0)
(-0.0713946 -0.10755 0)
(0.0921799 -0.0882418 0)
(0.0626165 -0.0658474 0)
(0.0744392 -0.0462296 0)
(0.0881096 -0.0293592 0)
(0.0950076 -0.0150299 0)
(0.0921527 -0.0120556 0)
(0.0879116 -0.00794941 0)
(0.0855373 -0.00577666 0)
(0.084842 -0.00455926 0)
(0.084813 -0.00380065 0)
(0.0850636 -0.00322903 0)
(0.0857152 -0.00260018 0)
(0.08748 -0.00143784 0)
(0.092174 0.0029269 0)
(0.0903412 0.0251376 0)
(0.0735269 0.0424414 0)
(0.0702325 0.0576209 0)
(-0.0898384 0.101152 0)
(0.578552 0.325836 0)
(-0.240107 0.121802 0)
(-0.0808269 0.109206 0)
(-0.121563 0.0898299 0)
(-0.13899 0.0740395 0)
(-0.153043 0.0586027 0)
(-0.163794 0.0427202 0)
(-0.17138 0.0257812 0)
(-0.175583 0.00717843 0)
(-0.175642 -0.0135401 0)
(-0.170951 -0.0364692 0)
(-0.16138 -0.0614497 0)
(-0.147505 -0.087367 0)
(-0.130511 -0.110298 0)
(-0.109536 -0.123193 0)
(-0.082043 -0.124519 0)
(-0.0524184 -0.126331 0)
(-0.0332775 -0.123155 0)
(0.0165103 -0.0568099 0)
(0.0609321 -0.0930687 0)
(0.0685612 -0.079266 0)
(0.0791644 -0.0589239 0)
(0.0916501 -0.0397007 0)
(0.102976 -0.0210514 0)
(0.11573 -0.013275 0)
(0.126952 -0.00885139 0)
(0.132611 -0.00562654 0)
(0.133642 -0.00311601 0)
(0.131157 -0.000891548 0)
(0.125728 0.00127887 0)
(0.117224 0.00366304 0)
(0.104876 0.00672395 0)
(0.0856234 0.0111633 0)
(0.0717286 0.0368655 0)
(0.0604295 0.0606554 0)
(0.0764994 0.0835602 0)
(-0.117432 0.137593 0)
(0.705733 0.383674 0)
(-0.287685 0.156995 0)
(-0.047689 0.13376 0)
(-0.0962802 0.106891 0)
(-0.107726 0.0875622 0)
(-0.116753 0.0691371 0)
(-0.123536 0.0504113 0)
(-0.12819 0.0305556 0)
(-0.130542 0.00869974 0)
(-0.129728 -0.0158335 0)
(-0.125223 -0.0430809 0)
(-0.11659 -0.0726832 0)
(-0.103852 -0.102828 0)
(-0.0873525 -0.129096 0)
(-0.0673754 -0.145786 0)
(-0.0440075 -0.152248 0)
(-0.0201328 -0.152331 0)
(0.000421272 -0.143674 0)
(0.0309361 -0.114994 0)
(0.0570891 -0.10938 0)
(0.0706482 -0.0924924 0)
(0.0807626 -0.0713439 0)
(0.0908098 -0.0509085 0)
(0.100363 -0.0328755 0)
(0.109494 -0.019475 0)
(0.116567 -0.0100856 0)
(0.120046 -0.00338604 0)
(0.120298 0.00187277 0)
(0.117931 0.00642621 0)
(0.113316 0.0107896 0)
(0.106475 0.0154742 0)
(0.0973415 0.0211814 0)
(0.0854187 0.0292105 0)
(0.0738642 0.0472501 0)
(0.063382 0.071352 0)
(0.0950754 0.099563 0)
(0.0172841 0.138765 0)
(0.096911 0.182786 0)
(0.140433 0.145342 0)
(-0.219759 0.201469 0)
(0.810438 0.431967 0)
(-0.331324 0.190663 0)
(-0.0173095 0.150223 0)
(-0.0733555 0.11749 0)
(-0.078576 0.0954766 0)
(-0.0821925 0.0749068 0)
(-0.0844425 0.0543038 0)
(-0.085476 0.0326841 0)
(-0.085216 0.00883216 0)
(-0.0825356 -0.0184266 0)
(-0.077362 -0.0490301 0)
(-0.0687202 -0.0825044 0)
(-0.0566972 -0.116518 0)
(-0.0415969 -0.146338 0)
(-0.0245708 -0.166021 0)
(-0.00614437 -0.174498 0)
(0.012254 -0.172716 0)
(0.0281762 -0.160961 0)
(0.0463264 -0.139291 0)
(0.0627503 -0.122338 0)
(0.0733895 -0.102524 0)
(0.0810374 -0.0805083 0)
(0.0877765 -0.0591955 0)
(0.0939554 -0.0403408 0)
(0.0993085 -0.0251719 0)
(0.103042 -0.0138188 0)
(0.104702 -0.00512791 0)
(0.104334 0.00206619 0)
(0.102233 0.00854224 0)
(0.0986449 0.0148202 0)
(0.093722 0.0214271 0)
(0.0876921 0.0289942 0)
(0.0808195 0.0384312 0)
(0.0750581 0.0528797 0)
(0.0698228 0.0728984 0)
(0.0920239 0.0986432 0)
(0.0741288 0.107467 0)
(0.0911655 0.0478282 0)
(0.146581 -0.0356399 0)
(-0.323217 0.107373 0)
(0.8799 0.474679 0)
(-0.368644 0.220943 0)
(0.00372042 0.155525 0)
(-0.0526495 0.121536 0)
(-0.0521903 0.0978135 0)
(-0.0510043 0.0757806 0)
(-0.0489954 0.0540036 0)
(-0.0464763 0.0314999 0)
(-0.0432859 0.00674565 0)
(-0.0373231 -0.0223144 0)
(-0.0302419 -0.0553746 0)
(-0.0204393 -0.0919539 0)
(-0.00859841 -0.128929 0)
(0.00466073 -0.161306 0)
(0.0177578 -0.181929 0)
(0.0305806 -0.19023 0)
(0.0424087 -0.1872 0)
(0.0527173 -0.174359 0)
(0.0626679 -0.153998 0)
(0.0712093 -0.132357 0)
(0.0766934 -0.109373 0)
(0.0801155 -0.0859132 0)
(0.0826877 -0.0637789 0)
(0.0849179 -0.0443165 0)
(0.0867675 -0.0282449 0)
(0.0879015 -0.015471 0)
(0.0880894 -0.00521665 0)
(0.0871785 0.00343737 0)
(0.0853412 0.0111762 0)
(0.0827191 0.0185245 0)
(0.0794794 0.025982 0)
(0.0758938 0.0340467 0)
(0.0723627 0.0432654 0)
(0.0702704 0.0549129 0)
(0.0690274 0.0693595 0)
(0.082132 0.0883209 0)
(0.0855166 0.0914875 0)
(0.0914285 0.0540428 0)
(0.181779 0.0271357 0)
(-0.278542 0.156887 0)
(0.927934 0.517139 0)
(-0.383158 0.234135 0)
(0.0168921 0.132919 0)
(-0.0273098 0.116606 0)
(-0.0265296 0.0948747 0)
(-0.0227144 0.0723803 0)
(-0.0175949 0.0500571 0)
(-0.0123154 0.0272096 0)
(-0.00534135 0.00182168 0)
(0.00463148 -0.0307594 0)
(0.0143641 -0.0653466 0)
(0.0256845 -0.103368 0)
(0.0373575 -0.140918 0)
(0.0480661 -0.172212 0)
(0.0571871 -0.192392 0)
(0.0647024 -0.199839 0)
(0.0704345 -0.195365 0)
(0.0743828 -0.181122 0)
(0.0770576 -0.16001 0)
(0.0783782 -0.136016 0)
(0.0779707 -0.111031 0)
(0.0764207 -0.0865534 0)
(0.0745678 -0.0640467 0)
(0.0729452 -0.0445026 0)
(0.0716954 -0.0282926 0)
(0.0706839 -0.0151319 0)
(0.0697085 -0.00432031 0)
(0.0684767 0.00491999 0)
(0.0670785 0.0131742 0)
(0.0654784 0.0209309 0)
(0.0637429 0.0286165 0)
(0.0620429 0.0365793 0)
(0.0606665 0.0450928 0)
(0.0604806 0.0545876 0)
(0.0613755 0.0649569 0)
(0.0701852 0.0776871 0)
(0.080553 0.0803002 0)
(0.0822791 0.060183 0)
(0.239194 0.0566722 0)
(-0.542515 0.235141 0)
(1.0113 0.506786 0)
(-0.137105 0.296319 0)
(0.0410986 0.161471 0)
(0.0406505 0.122015 0)
(0.0131316 0.0919 0)
(0.00871087 0.0652901 0)
(0.014145 0.0413179 0)
(0.0207816 0.0169132 0)
(0.0325994 -0.0110756 0)
(0.0440758 -0.0421889 0)
(0.0559668 -0.0769493 0)
(0.0682672 -0.114696 0)
(0.0794303 -0.151185 0)
(0.0879525 -0.18066 0)
(0.0931865 -0.198665 0)
(0.0952432 -0.203785 0)
(0.0945285 -0.197077 0)
(0.0915879 -0.180979 0)
(0.0870975 -0.158549 0)
(0.0815096 -0.133114 0)
(0.0751229 -0.107109 0)
(0.0685454 -0.0823538 0)
(0.0625094 -0.0601953 0)
(0.0575454 -0.0413507 0)
(0.0538539 -0.0258968 0)
(0.0513344 -0.0133304 0)
(0.049711 -0.00287067 0)
(0.0485814 0.00618132 0)
(0.0478872 0.0143342 0)
(0.0473891 0.0220337 0)
(0.0470136 0.0296213 0)
(0.0467774 0.0373201 0)
(0.046769 0.0452256 0)
(0.0473753 0.0533608 0)
(0.0485449 0.06123 0)
(0.0539808 0.0687212 0)
(0.0646062 0.0651212 0)
(0.0622741 0.0344451 0)
(0.286852 0.0701935 0)
(-0.747949 0.308858 0)
(0.779315 0.395615 0)
(0.000986956 0.319439 0)
(0.0934468 0.218867 0)
(0.110683 0.155096 0)
(0.0772543 0.106728 0)
(0.0598703 0.0674372 0)
(0.0582939 0.0356492 0)
(0.0624749 0.00630634 0)
(0.0739222 -0.023527 0)
(0.0855144 -0.05512 0)
(0.0977341 -0.0898285 0)
(0.109624 -0.126354 0)
(0.119018 -0.160158 0)
(0.124134 -0.185876 0)
(0.124368 -0.199919 0)
(0.120149 -0.201458 0)
(0.112425 -0.191867 0)
(0.102268 -0.173712 0)
(0.0907165 -0.150037 0)
(0.0786117 -0.123887 0)
(0.0666469 -0.0978072 0)
(0.0555638 -0.0737151 0)
(0.0461024 -0.0528545 0)
(0.0387545 -0.0356636 0)
(0.0336426 -0.0219162 0)
(0.030532 -0.0108187 0)
(0.0289534 -0.00144788 0)
(0.0284271 0.00683758 0)
(0.0286421 0.0144941 0)
(0.0292471 0.0218983 0)
(0.0300729 0.0292985 0)
(0.0309946 0.0368459 0)
(0.0318544 0.0445973 0)
(0.03244 0.0525335 0)
(0.031723 0.0602985 0)
(0.029702 0.0675656 0)
(0.0137925 0.0688159 0)
(0.00224213 0.102008 0)
(0.0156665 0.178725 0)
(-0.635736 0.301148 0)
(0.617234 0.220609 0)
(0.00478244 0.298016 0)
(0.113076 0.241487 0)
(0.14836 0.17747 0)
(0.130937 0.123392 0)
(0.11792 0.0776969 0)
(0.115068 0.0387456 0)
(0.117253 0.00325107 0)
(0.123641 -0.0308519 0)
(0.131892 -0.0651194 0)
(0.141605 -0.100603 0)
(0.15051 -0.135488 0)
(0.155659 -0.165379 0)
(0.155119 -0.185913 0)
(0.148574 -0.194769 0)
(0.136925 -0.191975 0)
(0.121637 -0.179284 0)
(0.104211 -0.159283 0)
(0.0860164 -0.134897 0)
(0.0681533 -0.108925 0)
(0.0515707 -0.0838632 0)
(0.0371552 -0.0615845 0)
(0.0256802 -0.0431835 0)
(0.0174735 -0.0287176 0)
(0.0123622 -0.0175669 0)
(0.00970605 -0.00855004 0)
(0.00877879 -0.000667684 0)
(0.00911487 0.00660842 0)
(0.0102026 0.0136315 0)
(0.0117615 0.0206652 0)
(0.0136142 0.0278732 0)
(0.0155807 0.0354067 0)
(0.0173821 0.0434453 0)
(0.018541 0.0522968 0)
(0.0177895 0.0624479 0)
(0.0142351 0.0755188 0)
(-0.0122242 0.0997575 0)
(-0.0119502 0.154685 0)
(0.0117246 0.185246 0)
(-0.541848 0.166269 0)
(0.570784 0.118203 0)
(-0.0202775 0.258513 0)
(0.113705 0.229829 0)
(0.165059 0.175969 0)
(0.16674 0.126053 0)
(0.164423 0.0809414 0)
(0.165435 0.0398009 0)
(0.168402 0.00145369 0)
(0.172379 -0.0355506 0)
(0.177976 -0.0720449 0)
(0.184171 -0.107699 0)
(0.187886 -0.139756 0)
(0.1861 -0.164323 0)
(0.177431 -0.178563 0)
(0.162326 -0.181667 0)
(0.142324 -0.174531 0)
(0.119355 -0.159193 0)
(0.0951668 -0.138104 0)
(0.0713463 -0.114 0)
(0.0491056 -0.0893829 0)
(0.0296175 -0.0666764 0)
(0.0139061 -0.0476345 0)
(0.00264799 -0.0330358 0)
(-0.00444428 -0.0221687 0)
(-0.00809866 -0.0141215 0)
(-0.00965486 -0.0072445 0)
(-0.00978432 -0.00080645 0)
(-0.00877532 0.00550112 0)
(-0.00709835 0.0118745 0)
(-0.00487107 0.0184623 0)
(-0.00223013 0.0253793 0)
(0.000731049 0.0328813 0)
(0.00379354 0.0412263 0)
(0.00664276 0.0510815 0)
(0.00853053 0.0638611 0)
(0.0100394 0.0828699 0)
(-0.00433487 0.117686 0)
(-0.0113142 0.186328 0)
(0.127188 0.202434 0)
(-0.482027 0.0745463 0)
(0.628489 0.0534617 0)
(0.00906653 0.197236 0)
(0.113704 0.196901 0)
(0.175031 0.157832 0)
(0.191312 0.117537 0)
(0.198006 0.0770834 0)
(0.203379 0.0370599 0)
(0.208623 -0.00172892 0)
(0.213159 -0.0398561 0)
(0.217495 -0.0766915 0)
(0.219339 -0.110095 0)
(0.215531 -0.136909 0)
(0.204184 -0.154509 0)
(0.185388 -0.161885 0)
(0.160759 -0.159584 0)
(0.132454 -0.149009 0)
(0.102698 -0.132232 0)
(0.0731869 -0.111358 0)
(0.045679 -0.0889373 0)
(0.021316 -0.0671462 0)
(0.00170093 -0.048403 0)
(-0.0121742 -0.0343521 0)
(-0.0203169 -0.0250077 0)
(-0.0248513 -0.018088 0)
(-0.0269993 -0.0123366 0)
(-0.0276351 -0.00695346 0)
(-0.0271723 -0.0015872 0)
(-0.0257357 0.0039228 0)
(-0.0236961 0.0096709 0)
(-0.0210534 0.0157432 0)
(-0.017908 0.0222247 0)
(-0.0142948 0.0293096 0)
(-0.010212 0.0373631 0)
(-0.00566907 0.0471628 0)
(-0.00103056 0.0607955 0)
(0.00459557 0.0833842 0)
(0.00420899 0.119286 0)
(-0.00433062 0.179964 0)
(0.175106 0.200925 0)
(-0.359138 0.123084 0)
(0.472279 0.0748063 0)
(-0.132271 0.137516 0)
(0.0941163 0.133195 0)
(0.172581 0.116651 0)
(0.203709 0.095144 0)
(0.218029 0.0641487 0)
(0.228057 0.0281168 0)
(0.237166 -0.00922645 0)
(0.243567 -0.0455356 0)
(0.245086 -0.078445 0)
(0.239121 -0.105306 0)
(0.224326 -0.12405 0)
(0.201231 -0.133802 0)
(0.171755 -0.134989 0)
(0.13847 -0.128848 0)
(0.103655 -0.116647 0)
(0.0695731 -0.100234 0)
(0.0374011 -0.0812403 0)
(0.00946683 -0.0621984 0)
(-0.0136422 -0.044985 0)
(-0.0282337 -0.0335119 0)
(-0.0372364 -0.0257895 0)
(-0.0423231 -0.0202787 0)
(-0.0450405 -0.015719 0)
(-0.0461609 -0.0115081 0)
(-0.0461198 -0.00726673 0)
(-0.0451481 -0.00280138 0)
(-0.0432914 0.00200466 0)
(-0.040961 0.00716098 0)
(-0.0380815 0.01271 0)
(-0.0347651 0.0187269 0)
(-0.0310948 0.0253344 0)
(-0.0270793 0.0328161 0)
(-0.0227575 0.0420791 0)
(-0.0188748 0.0561908 0)
(-0.0154115 0.0793481 0)
(-0.010535 0.107095 0)
(-0.00800871 0.142171 0)
(0.189278 0.17639 0)
(-0.34159 0.187694 0)
(0.72394 0.13451 0)
(0.0819473 0.115253 0)
(0.149717 0.0991435 0)
(0.222311 0.0803338 0)
(0.243967 0.0696936 0)
(0.248783 0.0473737 0)
(0.25511 0.0172427 0)
(0.261212 -0.0149736 0)
(0.260217 -0.0449322 0)
(0.249701 -0.0697395 0)
(0.229451 -0.0876976 0)
(0.201068 -0.0983182 0)
(0.166945 -0.101885 0)
(0.129633 -0.0993693 0)
(0.0916092 -0.0920008 0)
(0.0543044 -0.0804469 0)
(0.0203093 -0.0663225 0)
(-0.0107977 -0.0507578 0)
(-0.0332045 -0.0384556 0)
(-0.0482834 -0.0298781 0)
(-0.0574799 -0.0244365 0)
(-0.0630475 -0.0205564 0)
(-0.0663044 -0.0173982 0)
(-0.0680149 -0.0144312 0)
(-0.0685118 -0.0114117 0)
(-0.0679678 -0.00815745 0)
(-0.0665013 -0.00450799 0)
(-0.0641925 -0.00031936 0)
(-0.0613558 0.00440431 0)
(-0.0582996 0.0096267 0)
(-0.0550828 0.0154482 0)
(-0.0520589 0.0220237 0)
(-0.0496304 0.0297717 0)
(-0.0481015 0.0400041 0)
(-0.0482186 0.0555964 0)
(-0.0513812 0.0773662 0)
(-0.0525934 0.0966168 0)
(-0.0333889 0.10994 0)
(0.106409 0.159769 0)
(-0.453235 0.238376 0)
(0.192113 0.0879498 0)
(0.225906 0.0996657 0)
(0.246635 0.0699157 0)
(0.242682 0.0395144 0)
(0.239808 0.0118718 0)
(0.234717 -0.0130317 0)
(0.21992 -0.0334363 0)
(0.196151 -0.0485825 0)
(0.165789 -0.0584518 0)
(0.131312 -0.0634766 0)
(0.094536 -0.0639456 0)
(0.057418 -0.0605601 0)
(0.0218735 -0.0541375 0)
(-0.0127279 -0.0447737 0)
(-0.0398062 -0.0356791 0)
(-0.0602375 -0.02824 0)
(-0.0740806 -0.0234305 0)
(-0.0831092 -0.0204073 0)
(-0.0889939 -0.0184125 0)
(-0.0929641 -0.0167038 0)
(-0.0955793 -0.0150328 0)
(-0.0970718 -0.0132799 0)
(-0.0975158 -0.0113479 0)
(-0.096928 -0.00910374 0)
(-0.0953166 -0.00636876 0)
(-0.0927034 -0.00292495 0)
(-0.0890841 0.00139977 0)
(-0.0853211 0.00655605 0)
(-0.0816202 0.0126191 0)
(-0.0784395 0.0199365 0)
(-0.0763988 0.0291501 0)
(-0.0755995 0.041603 0)
(-0.0765495 0.0594354 0)
(-0.083436 0.0833165 0)
(-0.0948952 0.107203 0)
(-0.0877871 0.12326 0)
(-0.0929204 0.149654 0)
(-0.550165 0.184785 0)
(0.451584 0.209231 0)
(0.207274 0.178559 0)
(0.153445 0.118702 0)
(0.140046 0.0639585 0)
(0.128426 0.0258565 0)
(0.114139 0.00182995 0)
(0.0986696 -0.0128895 0)
(0.077561 -0.0220925 0)
(0.0528709 -0.0278751 0)
(0.0257757 -0.0305929 0)
(-0.00389299 -0.0301443 0)
(-0.0326906 -0.0274305 0)
(-0.0581847 -0.0236676 0)
(-0.0794579 -0.0199011 0)
(-0.0952677 -0.0173117 0)
(-0.106443 -0.0156271 0)
(-0.114241 -0.0146358 0)
(-0.120062 -0.0137612 0)
(-0.124683 -0.0128551 0)
(-0.128402 -0.0119218 0)
(-0.131271 -0.0110228 0)
(-0.133262 -0.0101802 0)
(-0.134305 -0.00936615 0)
(-0.134288 -0.00848454 0)
(-0.133064 -0.00733266 0)
(-0.130486 -0.00555816 0)
(-0.126453 -0.00267819 0)
(-0.120882 0.00175115 0)
(-0.11496 0.00782058 0)
(-0.109497 0.0156997 0)
(-0.104608 0.0260503 0)
(-0.0997682 0.0399775 0)
(-0.0935709 0.059071 0)
(-0.0875731 0.0849064 0)
(-0.0841846 0.117713 0)
(-0.0547563 0.149939 0)
(0.0184353 0.142443 0)
(-0.56856 0.0205731 0)
(0.363609 -0.412825 0)
(-0.345507 -0.512635 0)
(-0.218687 -0.0287066 0)
(-0.0923078 0.11075 0)
(-0.0532432 0.0926831 0)
(-0.031072 0.0548085 0)
(-0.0263966 0.0287436 0)
(-0.0315495 0.0120395 0)
(-0.0405282 0.00115875 0)
(-0.0510391 -0.00609885 0)
(-0.0646132 -0.0106558 0)
(-0.0798586 -0.0132585 0)
(-0.0955318 -0.0150447 0)
(-0.11044 -0.017076 0)
(-0.123431 -0.0195543 0)
(-0.133581 -0.0222378 0)
(-0.14095 -0.0247699 0)
(-0.146609 -0.0266274 0)
(-0.15157 -0.027855 0)
(-0.156333 -0.0285829 0)
(-0.160928 -0.0289115 0)
(-0.165198 -0.0288758 0)
(-0.168951 -0.0284827 0)
(-0.172007 -0.0277213 0)
(-0.174167 -0.0265661 0)
(-0.175186 -0.0249691 0)
(-0.174771 -0.0228337 0)
(-0.172647 -0.0199625 0)
(-0.16865 -0.0159921 0)
(-0.162786 -0.0103821 0)
(-0.155057 -0.00257704 0)
(-0.146232 0.00757963 0)
(-0.137465 0.0197743 0)
(-0.127276 0.0339116 0)
(-0.113005 0.0507261 0)
(-0.0921281 0.0707407 0)
(-0.0645508 0.095578 0)
(-0.0221036 0.129818 0)
(0.149276 0.137286 0)
(-0.410424 0.0543087 0)
(0.125354 -0.184217 0)
(-0.387053 -0.297101 0)
(-0.342738 -0.0968191 0)
(-0.26445 0.0512862 0)
(-0.210796 0.0835786 0)
(-0.178689 0.0747393 0)
(-0.162421 0.0612821 0)
(-0.156429 0.0512831 0)
(-0.156495 0.0460167 0)
(-0.159751 0.0452478 0)
(-0.164196 0.0480873 0)
(-0.168344 0.0533488 0)
(-0.171603 0.059742 0)
(-0.173832 0.0652525 0)
(-0.175579 0.0681094 0)
(-0.177464 0.0689801 0)
(-0.179965 0.0689949 0)
(-0.183058 0.0690734 0)
(-0.186484 0.0692504 0)
(-0.190005 0.0691644 0)
(-0.193447 0.0684774 0)
(-0.196684 0.0669974 0)
(-0.199621 0.0646226 0)
(-0.202175 0.0612643 0)
(-0.204259 0.0568109 0)
(-0.205775 0.051194 0)
(-0.206613 0.0445529 0)
(-0.206656 0.0373956 0)
(-0.205764 0.0305977 0)
(-0.203722 0.0251871 0)
(-0.200123 0.022037 0)
(-0.193987 0.0214877 0)
(-0.184232 0.0229975 0)
(-0.171855 0.0254148 0)
(-0.154424 0.0288616 0)
(-0.128291 0.0316011 0)
(-0.0886374 0.0307947 0)
(-0.0294557 0.0328048 0)
(0.173483 0.0712425 0)
(-0.384181 0.114013 0)
(1.14622 -0.0111028 0)
(-0.294074 -0.32235 0)
(-0.352472 -0.233541 0)
(-0.351798 -0.149186 0)
(-0.328115 -0.107748 0)
(-0.296359 -0.0990553 0)
(-0.268855 -0.10115 0)
(-0.248727 -0.106792 0)
(-0.235092 -0.114487 0)
(-0.226046 -0.124343 0)
(-0.219952 -0.13675 0)
(-0.215727 -0.151571 0)
(-0.212773 -0.167231 0)
(-0.210933 -0.180815 0)
(-0.210432 -0.189627 0)
(-0.211476 -0.19401 0)
(-0.21373 -0.19517 0)
(-0.216645 -0.194652 0)
(-0.219757 -0.193402 0)
(-0.222879 -0.191758 0)
(-0.226069 -0.189718 0)
(-0.229517 -0.187119 0)
(-0.233452 -0.183731 0)
(-0.238111 -0.179311 0)
(-0.243752 -0.173626 0)
(-0.250659 -0.166468 0)
(-0.25909 -0.157648 0)
(-0.269098 -0.147006 0)
(-0.280279 -0.134462 0)
(-0.291577 -0.120078 0)
(-0.301294 -0.104076 0)
(-0.30736 -0.0868006 0)
(-0.307485 -0.0687697 0)
(-0.300035 -0.0511115 0)
(-0.286905 -0.0358065 0)
(-0.268571 -0.0227147 0)
(-0.239378 -0.0096147 0)
(-0.190093 0.0137726 0)
(-0.169541 0.0619117 0)
(-0.569177 0.120377 0)
)
;

boundaryField
{
    floor
    {
        type            noSlip;
    }
    ceiling
    {
        type            noSlip;
    }
    sWall
    {
        type            noSlip;
    }
    nWall
    {
        type            noSlip;
    }
    sideWalls
    {
        type            empty;
    }
    glass1
    {
        type            noSlip;
    }
    glass2
    {
        type            noSlip;
    }
    sun
    {
        type            noSlip;
    }
    Table_master
    {
        type            noSlip;
    }
    Table_slave
    {
        type            noSlip;
    }
    inlet
    {
        type            fixedValue;
        value           uniform (0.5 0 0);
    }
    outlet
    {
        type            zeroGradient;
    }
}


// ************************************************************************* //
