/*--------------------------------*- C++ -*----------------------------------*\
  =========                 |
  \\      /  F ield         | OpenFOAM: The Open Source CFD Toolbox
   \\    /   O peration     | Website:  https://openfoam.org
    \\  /    A nd           | Version:  6
     \\/     M anipulation  |
\*---------------------------------------------------------------------------*/
FoamFile
{
    version     2.0;
    format      ascii;
    class       volScalarField;
    location    "2500";
    object      epsilon;
}
// * * * * * * * * * * * * * * * * * * * * * * * * * * * * * * * * * * * * * //

dimensions      [0 2 -3 0 0 0 0];

internalField   nonuniform List<scalar> 
778
(
0.000208082
0.000246842
0.000660786
0.000245498
0.00128289
0.00136924
0.000277533
0.00023044
0.00368786
0.00244362
0.00030836
0.000211043
0.000319639
0.0081113
0.00398223
0.000337589
0.000211156
0.000197278
0.000561217
0.0150046
0.00605608
0.000365756
0.000214361
0.00018624
0.000192681
0.00110493
0.0240986
0.00883703
0.000393698
0.000220166
0.000186819
0.000165103
0.000201359
0.00220191
0.0330723
0.0119552
0.000422543
0.000229922
0.000191429
0.00016293
0.00014207
0.000243707
0.00415691
0.0399742
0.0131201
0.000453901
0.000245392
0.000199782
0.000164128
0.000135724
0.000123456
0.000361387
0.00708082
0.0417231
0.0125092
0.000487037
0.000268859
0.000212075
0.00016721
0.000133654
0.00011088
0.000116374
0.000711939
0.0136037
0.0286133
0.0104479
0.000521662
0.000300651
0.000228731
0.000172551
0.000132917
0.00010592
9.28107e-05
0.000145399
0.00285759
0.0143291
0.0195218
0.00798682
0.000559975
0.000342981
0.000250718
0.000181585
0.000134428
0.000102436
8.49794e-05
8.90274e-05
0.000512805
0.00551273
0.0120413
0.0138459
0.00607658
0.000606325
0.000400395
0.0002808
0.000196487
0.000140505
0.000101854
7.96196e-05
7.54299e-05
0.000160851
0.0019428
0.00620105
0.00971452
0.0101365
0.00607997
0.000661019
0.000482888
0.00032259
0.000219958
0.000154038
0.000108041
7.85198e-05
6.83783e-05
0.000100899
0.000736502
0.00306363
0.00590196
0.00779743
0.00777247
0.0044893
0.000622453
0.000383425
0.000254601
0.000176993
0.000125177
8.89989e-05
6.84902e-05
8.47345e-05
0.000348667
0.00158032
0.00351729
0.00531234
0.00688204
0.00502929
0.000864598
0.000474607
0.000303469
0.00021064
0.000152775
0.000115327
9.36293e-05
9.52129e-05
0.000222367
0.000907521
0.00217099
0.00355901
0.00480538
0.00561161
0.00080306
0.000587123
0.000367803
0.000256219
0.000189421
0.000151865
0.000133845
0.000137523
0.000215818
0.000607558
0.00143517
0.00245049
0.00341011
0.00415571
0.180435
0.000761101
0.000704126
0.000440912
0.000313323
0.000235359
0.000193737
0.000179013
0.000186674
0.000249489
0.000493972
0.00103826
0.00176483
0.00248944
0.00304421
0.0272212
0.00705173
0.00128211
0.000525809
0.000375831
0.00029131
0.000241578
0.000224574
0.000233681
0.000287699
0.000454294
0.000820391
0.00134196
0.00188005
0.00228116
0.00640298
0.00714728
0.00406929
0.000782678
0.000440767
0.000353039
0.000298708
0.000272942
0.000277947
0.000322022
0.000441548
0.000691833
0.00106454
0.00146757
0.00175327
0.00255935
0.00293113
0.00319106
0.00691645
0.00320961
0.0014286
0.000537583
0.000415342
0.000361891
0.000329914
0.000326233
0.00035691
0.000441733
0.000613211
0.00087394
0.00116396
0.00136031
0.00138191
0.00152865
0.00256845
0.00337593
0.00504092
0.00415595
0.00222866
0.000639731
0.000627347
0.000473691
0.000422934
0.000395271
0.000386222
0.000403693
0.00046055
0.000575799
0.000753585
0.000955179
0.00108603
0.000960347
0.00140886
0.00301475
0.00327852
0.00241328
0.00469299
0.00250622
0.00103586
0.000434743
0.000476979
0.000492441
0.000468071
0.000457489
0.000455983
0.000469549
0.000509148
0.000587955
0.000711255
0.000858359
0.000975153
0.000993052
0.00200391
0.00341378
0.00325391
0.00262867
0.00441762
0.000581215
0.000481519
0.000359473
0.000401474
0.000442562
0.000477024
0.000498243
0.00051989
0.000546543
0.00058728
0.000653513
0.000754227
0.00088779
0.00104797
0.00130973
0.00271077
0.00356267
0.0030215
0.00258428
0.00024151
0.000370058
0.000359024
0.000311221
0.000346789
0.00038978
0.000444426
0.000500979
0.000555707
0.000611365
0.00067409
0.000754396
0.000865189
0.00102287
0.00126512
0.00175022
0.00313613
0.00342667
0.00265303
0.00229788
0.000263059
0.000294561
0.00029525
0.000302692
0.000299545
0.000335867
0.000391585
0.000464281
0.000547513
0.000637022
0.00073473
0.000848867
0.000995098
0.00119973
0.0015238
0.00212639
0.00318398
0.00310045
0.0022573
0.00191914
0.000268371
0.000244987
0.000267989
0.000823493
0.000264066
0.000284224
0.000330877
0.000402064
0.000496009
0.000608602
0.00073803
0.000889469
0.00107693
0.0013296
0.00169955
0.00227329
0.00289932
0.00265699
0.00189688
0.00155926
0.000256073
0.000208164
0.000577935
0.000620138
0.000258347
0.000239713
0.000272031
0.00033018
0.000416588
0.000531358
0.000673876
0.000846392
0.00105942
0.00133276
0.0017002
0.00214017
0.00231793
0.00213148
0.00158465
0.00125582
0.000231213
0.000193741
0.000377562
0.000489775
0.000233545
0.000205367
0.000221675
0.000261932
0.000328847
0.000426443
0.000556922
0.000723165
0.000929428
0.00118559
0.00148825
0.00177788
0.00166077
0.00157862
0.00131631
0.00100772
0.000197001
0.000161839
0.000260136
0.000396222
0.000207335
0.000177922
0.000182369
0.000205363
0.000249017
0.00031846
0.000418262
0.000550792
0.000719316
0.000917698
0.00112868
0.00122816
0.00109081
0.00109521
0.00109178
0.00081156
0.000165326
0.000132004
0.000187887
0.000326733
0.000183832
0.000156281
0.000153252
0.000162879
0.000185874
0.000226319
0.000288186
0.000374757
0.000482576
0.000608999
0.000706185
0.000721277
0.000657746
0.000743025
0.000919278
0.000668828
0.000138917
0.000107325
0.000141316
0.000271881
0.000164856
0.000139094
0.000132118
0.000132972
0.000140965
0.000158256
0.000187432
0.000228734
0.000283378
0.000329157
0.000371543
0.000397469
0.000394793
0.000532341
0.000803879
0.00057834
0.000117444
8.76724e-05
0.000110052
0.000226203
0.000148862
0.000125681
0.000116551
0.000112528
0.000111312
0.000113607
0.000120572
0.000133174
0.000145113
0.000168751
0.000195837
0.000226799
0.000267888
0.000431184
0.000736731
0.000531106
0.000100163
7.21613e-05
8.83668e-05
0.00018621
0.00013478
0.000114771
0.000104926
9.83376e-05
9.25015e-05
8.67633e-05
8.22971e-05
7.98956e-05
8.38245e-05
9.56588e-05
0.000118051
0.000154009
0.00021577
0.000389466
0.000700092
0.000513234
8.61073e-05
5.98658e-05
7.30984e-05
0.000148598
0.000121977
0.000105482
9.58243e-05
8.83078e-05
8.0457e-05
7.14783e-05
6.23922e-05
5.59589e-05
5.64332e-05
6.51615e-05
8.59399e-05
0.000124784
0.000195704
0.000371749
0.000679056
0.000511534
7.45362e-05
5.00733e-05
6.26839e-05
8.90741e-05
0.000109657
9.72339e-05
8.82705e-05
8.0805e-05
7.26874e-05
6.29411e-05
5.26286e-05
4.52687e-05
4.40668e-05
5.12662e-05
7.13298e-05
0.000111519
0.000186786
0.000361492
0.000664492
0.000516469
6.48494e-05
4.25708e-05
4.78459e-05
5.87997e-05
8.93107e-05
8.94574e-05
8.16417e-05
7.47553e-05
6.72442e-05
5.81978e-05
4.82817e-05
4.04678e-05
3.81807e-05
4.39755e-05
6.29684e-05
0.000103732
0.000181649
0.000353084
0.000652438
0.000524181
5.65258e-05
3.80651e-05
4.07084e-05
0.000154636
6.83577e-05
7.97163e-05
7.54806e-05
6.95115e-05
6.29704e-05
5.51218e-05
4.64013e-05
3.87964e-05
3.53859e-05
3.96151e-05
5.70989e-05
9.79526e-05
0.000178173
0.000345687
0.000642228
0.000533777
4.90825e-05
3.63097e-05
0.000112684
9.99786e-05
0.00011077
6.89078e-05
6.90905e-05
6.46769e-05
5.92525e-05
5.26702e-05
4.52772e-05
3.84037e-05
3.4402e-05
3.68752e-05
5.23943e-05
9.29268e-05
0.000175727
0.000340046
0.000635107
0.000546362
4.19791e-05
6.97745e-05
7.5133e-05
0.000143927
8.18338e-05
6.31188e-05
6.00094e-05
5.57854e-05
5.03903e-05
4.42271e-05
3.82806e-05
3.42812e-05
3.53471e-05
4.84129e-05
8.79572e-05
0.00017379
0.000337108
0.000633365
0.000564426
3.63246e-05
5.18817e-05
0.000166175
0.0001042
6.68822e-05
5.6144e-05
5.25101e-05
4.8131e-05
4.30069e-05
3.80281e-05
3.44003e-05
3.48198e-05
4.52561e-05
8.26397e-05
0.00017152
0.000337302
0.000639719
0.000591316
2.68486e-05
0.000368321
0.000212948
8.02766e-05
5.81262e-05
5.01369e-05
4.60278e-05
4.16165e-05
3.752e-05
3.45554e-05
3.48644e-05
4.37895e-05
7.72139e-05
0.000167819
0.000340047
0.000656708
0.000630596
0.0003306
0.00107183
0.000176312
7.25744e-05
5.42937e-05
4.53437e-05
4.04488e-05
3.68696e-05
3.47967e-05
3.55686e-05
4.39278e-05
7.34083e-05
0.000161911
0.000343511
0.000685988
0.000685164
0.000566315
0.00159707
0.000337932
0.000100049
5.75867e-05
4.2033e-05
3.67545e-05
3.54678e-05
3.75144e-05
4.63938e-05
7.38059e-05
0.000154709
0.00034503
0.000727515
0.000756271
0.000915983
0.00532476
0.000967881
0.000236478
7.50057e-05
4.09272e-05
3.75897e-05
4.19127e-05
5.34443e-05
7.98389e-05
0.000152964
0.00034299
0.000778829
0.000842931
0.00199692
0.012948
0.00317828
0.000658049
9.74783e-05
4.57408e-05
5.11769e-05
6.93261e-05
9.68383e-05
0.00016091
0.000341868
0.000834692
0.000942277
0.00303469
0.0105002
0.00333146
0.000699878
9.71531e-05
7.17906e-05
0.00010105
0.000134926
0.000185359
0.000354911
0.000886864
0.001051
0.00314617
0.0076749
0.00295357
0.000522863
0.000132528
0.000160834
0.000210251
0.000240702
0.00038658
0.000934331
0.00116754
0.00300707
0.00651467
0.00231135
0.000450657
0.000280871
0.000347279
0.000351613
0.000449568
0.00099166
0.0012945
0.00282617
0.00583909
0.00202575
0.000601714
0.000592329
0.00055796
0.000568278
0.00107889
0.00143139
0.00308867
0.00442466
0.00208559
0.0010692
0.00092802
0.000783662
0.00122374
0.00158586
0.00352644
0.0037865
0.00221865
0.00158635
0.00116571
0.0014665
0.00177235
0.00364839
0.00443807
0.00268318
0.00185011
0.00187109
0.00200631
0.00332518
0.00420665
0.00309602
0.00255568
0.00229809
0.00301136
0.00541954
0.00386347
0.00264582
0.00323145
0.00461727
0.00305374
0.00465773
0.00357511
0.00354892
)
;

boundaryField
{
    floor
    {
        Cmu             0.09;
        kappa           0.41;
        E               9.8;
        type            epsilonWallFunction;
        value           nonuniform List<scalar> 
36
(
0.000661019
0.00024151
0.000263059
0.000268371
0.000256073
0.000231213
0.000197001
0.000165326
0.000138917
0.000117444
0.000100163
8.61073e-05
7.45362e-05
6.48494e-05
5.65258e-05
4.90825e-05
4.19791e-05
3.63246e-05
2.68486e-05
2.68486e-05
5.18817e-05
7.5133e-05
9.99786e-05
0.000166175
0.000368321
0.0003306
0.000661019
0.000864598
0.00080306
0.000761101
0.00024151
0.000761101
0.000581215
0.00128211
0.00103586
0.0014286
)
;
    }
    ceiling
    {
        Cmu             0.09;
        kappa           0.41;
        E               9.8;
        type            epsilonWallFunction;
        value           nonuniform List<scalar> 
43
(
0.00441762
0.00250622
0.00222866
0.00241328
0.00262867
0.00258428
0.00229788
0.00191914
0.00155926
0.00125582
0.00100772
0.00081156
0.000668828
0.00057834
0.000531106
0.000513234
0.000511534
0.000516469
0.000524181
0.000533777
0.000546362
0.000564426
0.000591316
0.000630596
0.000685164
0.000756271
0.000842931
0.000942277
0.001051
0.00116754
0.0012945
0.00143139
0.00158586
0.00177235
0.00200631
0.00229809
0.00264582
0.00305374
0.00357511
0.00354892
0.0044893
0.00502929
0.00705173
)
;
    }
    sWall
    {
        Cmu             0.09;
        kappa           0.41;
        E               9.8;
        type            epsilonWallFunction;
        value           nonuniform List<scalar> 9(0.0125092 0.0104479 0.00798682 0.00607658 0.00607997 0.0044893 0.00504092 0.00469299 0.00441762);
    }
    nWall
    {
        Cmu             0.09;
        kappa           0.41;
        E               9.8;
        type            epsilonWallFunction;
        value           nonuniform List<scalar> 
14
(
0.0003306
0.000566315
0.000915983
0.00314617
0.00300707
0.00282617
0.00308867
0.00352644
0.00364839
0.00332518
0.00301136
0.00323145
0.00465773
0.00354892
)
;
    }
    sideWalls
    {
        type            empty;
    }
    glass1
    {
        Cmu             0.09;
        kappa           0.41;
        E               9.8;
        type            epsilonWallFunction;
        value           nonuniform List<scalar> 9(0.000208082 0.000660786 0.00136924 0.00244362 0.00398223 0.00605608 0.00883703 0.0119552 0.0131201);
    }
    glass2
    {
        Cmu             0.09;
        kappa           0.41;
        E               9.8;
        type            epsilonWallFunction;
        value           nonuniform List<scalar> 2(0.00199692 0.00303469);
    }
    sun
    {
        Cmu             0.09;
        kappa           0.41;
        E               9.8;
        type            epsilonWallFunction;
        value           nonuniform List<scalar> 
14
(
0.000208082
0.000246842
0.000245498
0.000277533
0.00030836
0.000337589
0.000365756
0.000393698
0.000422543
0.000453901
0.000487037
0.000521662
0.000559975
0.000606325
)
;
    }
    Table_master
    {
        Cmu             0.09;
        kappa           0.41;
        E               9.8;
        type            epsilonWallFunction;
        value           nonuniform List<scalar> 9(0.000577935 0.000377562 0.000260136 0.000187887 0.000141316 0.000110052 8.83668e-05 7.30984e-05 6.26839e-05);
    }
    Table_slave
    {
        Cmu             0.09;
        kappa           0.41;
        E               9.8;
        type            epsilonWallFunction;
        value           nonuniform List<scalar> 9(0.000823493 0.000620138 0.000489775 0.000396222 0.000326733 0.000271881 0.000226203 0.00018621 0.000148598);
    }
    inlet
    {
        type            turbulentMixingLengthDissipationRateInlet;
        mixingLength    0.00315;
        phi             phi;
        k               k;
        value           uniform 1.49737;
    }
    outlet
    {
        type            zeroGradient;
    }
}


// ************************************************************************* //
