/*--------------------------------*- C++ -*----------------------------------*\
  =========                 |
  \\      /  F ield         | OpenFOAM: The Open Source CFD Toolbox
   \\    /   O peration     | Website:  https://openfoam.org
    \\  /    A nd           | Version:  6
     \\/     M anipulation  |
\*---------------------------------------------------------------------------*/
FoamFile
{
    version     2.0;
    format      ascii;
    class       surfaceScalarField;
    location    "2500";
    object      phi;
}
// * * * * * * * * * * * * * * * * * * * * * * * * * * * * * * * * * * * * * //

dimensions      [1 0 -1 0 0 0 0];

internalField   nonuniform List<scalar> 
1482
(
-0.00280104
0.00286505
-0.0034876
0.000686563
-0.00414998
0.000662377
-0.0047654
0.000615416
-0.00528786
0.000522457
-0.00570062
0.000412766
-0.00599245
0.000291827
-0.00615024
0.000157789
-0.00615661
6.36808e-06
-0.00598552
-0.000171087
-0.00560698
-0.000378543
-0.00498991
-0.000617068
-0.00406411
-0.000925805
-0.00258318
-0.00148093
-0.00258026
-6.81735e-05
7.30187e-05
0.000776659
-0.000844833
0.00143093
-0.000654269
0.00183147
-0.000400547
0.00205378
-0.000222305
0.00215873
-0.000104951
0.0022065
-4.77684e-05
0.00222958
-2.30797e-05
0.00223949
-9.91552e-06
0.00224052
-1.02433e-06
0.00223358
6.9338e-06
0.00221469
1.88883e-05
0.00217049
4.42033e-05
0.00206768
0.000102812
0.00185074
0.000216939
0.0014927
0.000358032
0.00102032
0.000472382
0.00102675
-0.00204122
0.00507656
-0.00291064
0.00155598
-0.00369771
0.00144945
-0.00434986
0.00126756
-0.00488805
0.00106064
-0.00531756
0.000842282
-0.00563661
0.000610872
-0.00583835
0.000359524
-0.00591205
8.00675e-05
-0.00584983
-0.000233305
-0.00564586
-0.00058251
-0.00528886
-0.000974074
-0.00477774
-0.00143693
-0.00429086
-0.00196781
-0.00470698
-0.00216415
-0.00311913
-0.00158241
-0.00163532
-0.00147814
-0.00162049
0.00131837
-0.00123514
0.00166331
-0.00118978
0.00191537
-0.000906326
0.00210652
-0.000591699
0.00221347
-0.000329252
0.00222232
-0.000113806
0.00222448
-4.99312e-05
0.00222624
-2.4839e-05
0.00222727
-1.09463e-05
0.00222729
-1.04134e-06
0.00222591
8.31463e-06
0.00222168
2.3115e-05
0.002209
5.68837e-05
0.0021469
0.000164907
0.0018967
0.000467137
0.00146662
0.000788119
0.000902507
0.00103649
0.00194612
-0.0014887
0.00682314
-0.00236017
0.00242745
-0.00313103
0.00222031
-0.00371606
0.00185259
-0.00418739
0.00153198
-0.00455937
0.00121426
-0.00483378
0.000885279
-0.00500735
0.00053309
-0.00507362
0.000146339
-0.00502347
-0.000283453
-0.00484613
-0.000759852
-0.00453418
-0.00128603
-0.00411854
-0.00185257
-0.00372014
-0.00236622
-0.00329914
-0.00258515
-0.0023669
-0.00251465
-0.00127253
-0.0025725
-0.00288021
0.0011568
-0.0023775
0.00166066
-0.00169363
0.00195825
-0.00120392
0.00214995
-0.000783403
0.00217758
-0.000356879
0.00206392
0.00201415
0.00198946
0.00197867
0.00197778
0.00198625
0.00200952
0.00206655
0.00223162
0.00187212
0.000826636
0.00142365
0.00123658
0.000803798
0.00165634
0.00277592
-0.00110623
0.00826054
-0.00192822
0.00324943
-0.00257078
0.00286287
-0.00303157
0.00231338
-0.00339946
0.00189987
-0.00368851
0.00150331
-0.00390171
0.00109847
-0.00403718
0.000668559
-0.00408735
0.000196513
-0.00403898
-0.000331824
-0.00387975
-0.000919083
-0.00360557
-0.00156021
-0.00323912
-0.00221902
-0.00281634
-0.00278899
-0.00227621
-0.00312528
-0.00155567
-0.0032352
-0.00086621
-0.00326196
-0.000683843
-0.00306257
0.00145497
-0.00212338
0.00138568
-0.00230822
0.00170101
-0.00200897
0.00201323
-0.00151613
0.00227936
-0.00104953
0.00255645
-0.000633975
0.00286943
-0.000313134
0.00303585
-0.000166572
0.00309988
-6.41855e-05
0.00308205
1.76737e-05
0.00299114
9.0756e-05
0.00282816
0.000162824
0.00258531
0.000242699
0.00223963
0.000345526
0.00173378
0.000505701
0.00159737
0.000963041
0.00126982
0.00156413
0.000744031
0.00218213
0.00355422
-0.000803773
0.00945748
-0.00157966
0.00402532
-0.00204846
0.00333166
-0.00236428
0.0026292
-0.0026087
0.0021443
-0.00279422
0.00168882
-0.00292584
0.00123009
-0.00300427
0.000746979
-0.00302288
0.000215129
-0.00296506
-0.000389653
-0.00281751
-0.00106663
-0.00257334
-0.00180438
-0.00223923
-0.00255312
-0.00182231
-0.00320591
-0.00131664
-0.00363095
-0.000739449
-0.00381238
-0.00020705
-0.00379436
0.000271175
-0.0035408
0.00113316
-0.00298537
0.00149942
-0.00267447
0.00175813
-0.00226768
0.00201029
-0.00176829
0.00223991
-0.00127916
0.00245403
-0.00084809
0.00265461
-0.00051372
0.00276399
-0.000275951
0.0027995
-9.96937e-05
0.00277288
4.42945e-05
0.00269059
0.00017304
0.00255519
0.000298227
0.00236552
0.000432365
0.00211925
0.000591798
0.00182446
0.000800493
0.0016185
0.00116899
0.00147698
0.00170565
0.00129843
0.00236069
0.00228338
0.00256927
0.00131872
0.00099958
0.00188297
-0.000535482
0.00200207
-0.000575727
0.0104796
-0.00132415
0.00477374
-0.00158356
0.00359107
-0.00174936
0.002795
-0.00186321
0.00225815
-0.00193452
0.00176013
-0.00196974
0.00126531
-0.00197314
0.000750383
-0.00194136
0.000183353
-0.00185286
-0.000478154
-0.00169782
-0.00122168
-0.00146637
-0.00203583
-0.00116166
-0.00285784
-0.000789346
-0.00357822
-0.000369649
-0.00405065
7.08632e-05
-0.00425289
0.000476604
-0.0042001
0.000851683
-0.00391587
0.00130308
-0.00343676
0.00160215
-0.00297354
0.0018053
-0.00247082
0.00197644
-0.00193944
0.00212776
-0.00143048
0.00226188
-0.000982216
0.0023662
-0.000618042
0.0024237
-0.000333448
0.00243407
-0.000110069
0.00240257
7.57977e-05
0.00233405
0.000241561
0.00223239
0.000399885
0.00210171
0.000563038
0.00194912
0.000744391
0.00178906
0.000960558
0.00169764
0.00126041
0.00175344
0.00164985
0.00196171
0.00215242
0.00219958
0.0023314
0.00170818
0.00149099
0.000791763
0.000380933
0.00289153
-0.000543048
0.0115148
-0.00124263
0.00547332
-0.00119053
0.00353897
-0.00119869
0.00280316
-0.00119088
0.00225034
-0.00115718
0.00172643
-0.00109979
0.00120792
-0.00102449
0.00067508
-0.000925089
8.3955e-05
-0.00077541
-0.000627834
-0.000585446
-0.00141164
-0.000344899
-0.00227637
-6.11016e-05
-0.00314164
0.000243244
-0.00388257
0.000552794
-0.0043602
0.000847773
-0.00454787
0.00111088
-0.0044632
0.0013445
-0.00414949
0.00157642
-0.00366868
0.00173614
-0.00313326
0.00183586
-0.00257054
0.00190557
-0.00200915
0.001961
-0.00148591
0.0020073
-0.00102851
0.00203907
-0.000649821
0.00205055
-0.000344929
0.0020383
-9.78189e-05
0.0020031
0.000111005
0.00194808
0.000296575
0.00187712
0.000470846
0.00179549
0.000644664
0.00171181
0.000828077
0.0016411
0.00103127
0.00162639
0.00127511
0.00171159
0.00156465
0.00191655
0.00194747
0.00215973
0.00208822
0.00216627
0.00148445
0.00163516
0.000912039
0.00462982
-0.000483077
0.0125334
-0.00105031
0.00604056
-0.000695608
0.00318427
-0.000634534
0.00274208
-0.00056599
0.00218179
-0.000461013
0.00162145
-0.000331512
0.00107842
-0.000179482
0.000523049
1.05057e-05
-0.000106033
0.000229211
-0.00084654
0.000469622
-0.00165205
0.000727674
-0.00253443
0.000984433
-0.0033984
0.00121235
-0.00411048
0.0014112
-0.00455905
0.00157201
-0.00470868
0.00168962
-0.00458082
0.00176877
-0.00422864
0.0018218
-0.0037217
0.00183184
-0.0031433
0.00180703
-0.00254573
0.00176632
-0.00196844
0.00172457
-0.00144416
0.00168916
-0.000993098
0.00165996
-0.000620623
0.00163297
-0.000317936
0.00160333
-6.81842e-05
0.0015689
0.00014544
0.00153001
0.000335457
0.00148815
0.000512708
0.00144663
0.000686185
0.00141188
0.000862824
0.00139508
0.00104807
0.00141973
0.00125047
0.00151284
0.00147153
0.00171967
0.00174064
0.0019886
0.00181929
0.00208756
0.00138549
0.00164358
0.00135603
0.00664065
0.00297598
0.0101445
0.00202115
0.00699539
0.000869726
0.00433569
0.000372659
0.00323915
0.000216498
0.00233795
0.000273305
0.00156465
0.000427698
0.000924021
0.000642224
0.000308523
0.000901945
-0.000365755
0.00116769
-0.00111229
0.00144676
-0.00193113
0.00171393
-0.00280159
0.00193967
-0.00362415
0.00209982
-0.00427063
0.00218883
-0.00464807
0.00220951
-0.00472936
0.00217084
-0.00454214
0.00208652
-0.00414433
0.0019718
-0.00360698
0.00183229
-0.00300379
0.00168009
-0.00239353
0.00153201
-0.00182036
0.00140257
-0.00131472
0.00129982
-0.000890346
0.00122478
-0.000545588
0.00117253
-0.000265691
0.00113582
-3.14743e-05
0.0011095
0.000171762
0.00109026
0.0003547
0.00107605
0.000526919
0.00106711
0.000695124
0.00106655
0.000863383
0.00108098
0.00103363
0.0011238
0.00120764
0.00121245
0.00138288
0.00138295
0.00157014
0.00160209
0.00160015
0.00168455
0.00130301
0.000340511
0.0027001
0.00736687
0.00403071
0.00625403
0.00366711
0.00735898
0.00254269
0.00546011
0.00189077
0.00389106
0.00153546
0.00269326
0.00139161
0.00170849
0.00142617
0.000889458
0.00160119
0.00013351
0.00185366
-0.000618226
0.00213131
-0.00138994
0.00241123
-0.00221105
0.00265589
-0.00304625
0.00282358
-0.00379185
0.00288747
-0.00433454
0.0028446
-0.00460521
0.00270901
-0.00459378
0.00250318
-0.00433632
0.00225155
-0.00389269
0.00197691
-0.00333234
0.0016965
-0.00272337
0.00142748
-0.0021245
0.00118768
-0.00158056
0.000991618
-0.00111866
0.000845213
-0.000743942
0.000746981
-0.000447357
0.00068794
-0.00020665
0.000657207
-7.42109e-07
0.000646194
0.000182774
0.000648205
0.000352688
0.000658515
0.000516609
0.000674773
0.000678865
0.000696481
0.000841675
0.000724656
0.00100546
0.000762526
0.00116978
0.000810355
0.00133505
0.000842732
0.00153776
0.000559701
0.00188315
-0.000639549
0.00250205
-0.00188499
0.0039455
0.00558632
0.00241005
0.00400848
0.00330528
0.00646375
0.00324981
0.00551558
0.00303987
0.004101
0.00284991
0.00288322
0.00272776
0.00183064
0.00271481
0.000902402
0.00280449
4.38291e-05
0.00296704
-0.000780776
0.00317808
-0.00160098
0.00339543
-0.0024284
0.00355881
-0.00320964
0.00361356
-0.00384662
0.00353334
-0.00425432
0.00332388
-0.00439576
0.00301158
-0.00428149
0.0026311
-0.00395584
0.002216
-0.00347759
0.00179601
-0.00291235
0.00139508
-0.00232244
0.00103474
-0.00176416
0.00073462
-0.00128044
0.000508024
-0.00089206
0.000352754
-0.000588672
0.000259465
-0.000354069
0.000211618
-0.000158803
0.000195862
1.50133e-05
0.000202067
0.000176568
0.000222386
0.000332369
0.000251894
0.0004871
0.00028681
0.000643948
0.000323271
0.000805214
0.000356545
0.00097218
0.000381434
0.00114489
0.000388399
0.00132809
0.000306229
0.00161993
-7.78982e-05
0.00226705
-0.000606276
0.00303006
-0.000805352
0.00414432
0.00489717
0.00145776
0.00274495
0.00274963
0.00517187
0.00343413
0.00483108
0.00372067
0.00381444
0.00381989
0.002784
0.00384894
0.00180159
0.00388618
0.000865158
0.00395639
-2.63882e-05
0.00406721
-0.000891594
0.00420767
-0.00174144
0.00432586
-0.0025466
0.00435096
-0.00323474
0.0042317
-0.00372736
0.00395627
-0.00397891
0.00354751
-0.00398702
0.00304551
-0.0037795
0.00249452
-0.00340486
0.00193357
-0.00291664
0.00139703
-0.00237582
0.000912612
-0.00183802
0.000507039
-0.00135858
0.000198709
-0.000972109
-8.48075e-06
-0.00068487
-0.000132266
-0.000464886
-0.000197927
-0.000288408
-0.000226221
-0.000130509
-0.0002285
1.72914e-05
-0.000211528
0.000159596
-0.00017987
0.00030071
-0.000137228
0.000444458
-8.80863e-05
0.000594805
-3.92136e-05
0.000756341
-1.61314e-06
0.000934579
6.5228e-06
0.00113675
-5.046e-05
0.00138508
-0.000263683
0.00183317
-0.000741285
0.00274454
-0.00127916
0.00356764
-0.00125914
0.00412402
0.00376788
0.00217421
0.000796682
0.00294586
0.00440022
0.00359584
0.0041811
0.00416603
0.00324425
0.00449417
0.00245585
0.00466914
0.00162662
0.00478675
0.000747553
0.0048927
-0.000132345
0.00500037
-0.000999256
0.00507878
-0.00181984
0.00506181
-0.00252963
0.00488952
-0.00306246
0.00453988
-0.00337773
0.00403223
-0.00347127
0.00341187
-0.00336668
0.00273
-0.00309764
0.00203582
-0.00271069
0.00136795
-0.00224876
0.000766022
-0.0017739
0.000258464
-0.00133046
-0.000118159
-0.00098196
-0.000361635
-0.000728632
-0.000502317
-0.000544186
-0.000578117
-0.000389084
-0.000617554
-0.000248972
-0.000632461
-0.000115602
-0.000627931
1.27605e-05
-0.000606058
0.000137722
-0.000568017
0.000262667
-0.000515878
0.000392318
-0.000454032
0.000532958
-0.000390817
0.000693124
-0.00034132
0.00088508
-0.000334023
0.00112946
-0.000422504
0.0014736
-0.000669192
0.00208005
-0.0011589
0.00323455
-0.00214945
0.00455832
-0.00245996
0.00443458
0.00145228
-0.00157717
0.002619
0.00111956
0.00170349
0.00335136
0.0019493
0.0043541
0.0022415
0.00485854
0.00195142
0.00517404
0.00131112
0.00540353
0.000518067
0.0055832
-0.000312006
0.00568342
-0.00109946
0.00564136
-0.00177776
0.00540611
-0.00229437
0.00496634
-0.00262268
0.00435023
-0.00276164
0.00361098
-0.00273203
0.00280916
-0.00256487
0.00199525
-0.00228373
0.00121898
-0.00193443
0.000512298
-0.00154209
-7.26822e-05
-0.00118892
-0.000493884
-0.000909261
-0.00075198
-0.000723861
-0.000897147
-0.000583458
-0.000978118
-0.000463209
-0.00102144
-0.000345756
-0.00104301
-0.000227401
-0.00104894
-0.000109678
-0.00104037
4.18595e-06
-0.00101584
0.000113191
-0.00097348
0.000220308
-0.000913076
0.000331912
-0.000837254
0.000457134
-0.000752787
0.000608655
-0.000672342
0.00080463
-0.000616556
0.00107366
-0.000612629
0.0014697
-0.000645144
0.00211279
-0.000585902
0.00317579
-0.000609438
0.00458228
-0.000611121
0.00443669
0.000997571
0.00288069
0.00456895
0.00486988
0.00164837
0.00535714
0.00175424
0.00559456
0.001714
0.00582719
0.00107849
0.00601611
0.000329159
0.00608324
-0.000379097
0.00595676
-0.000972942
0.00560327
-0.00142423
0.00503552
-0.0017266
0.00430054
-0.0018877
0.00345643
-0.00191753
0.00256207
-0.00183769
0.00167331
-0.00167611
0.000823898
-0.00143433
5.93327e-05
-0.00116987
-0.000556391
-0.000926367
-0.000980809
-0.0007645
-0.00123648
-0.000653578
-0.00138418
-0.000576155
-0.00146518
-0.000502437
-0.00150923
-0.00041914
-0.0015317
-0.000323281
-0.00154057
-0.000218527
-0.0015391
-0.000111168
-0.0015271
-7.8204e-06
-0.00150168
8.77602e-05
-0.00145875
0.000177377
-0.00139538
0.000268536
-0.00131102
0.00037278
-0.00120778
0.000505408
-0.00108952
0.00068634
-0.000957784
0.000941873
-0.000797504
0.00130935
-0.000537428
0.00185274
-3.16026e-05
0.00267024
0.000675905
0.00387514
0.00117088
0.00394213
0.0023303
0.00793166
0.0053651
0.00581194
0.00387396
0.00556467
0.00196129
0.00563765
0.00100554
0.00560299
0.000363881
0.00535917
-0.000135216
0.00489517
-0.000508902
0.00425103
-0.000780078
0.00348008
-0.000955641
0.00263515
-0.00104278
0.00175691
-0.0010393
0.000882881
-0.000963665
4.97143e-05
-0.000842958
-0.000678172
-0.000706449
-0.0012387
-0.000609353
-0.00162017
-0.000544897
-0.00186375
-0.00052091
-0.00200723
-0.00051007
-0.00209189
-0.000491448
-0.00214202
-0.000452267
-0.00217087
-0.000390263
-0.00218535
-0.00030879
-0.00218959
-0.000214308
-0.00218599
-0.000114799
-0.00217531
-1.85436e-05
-0.00215573
6.8151e-05
-0.00212313
0.000144763
-0.0020728
0.000218214
-0.00199967
0.000299675
-0.00189676
0.000402507
-0.00175301
0.000542553
-0.00155038
0.000739116
-0.0012546
0.00101336
-0.00078662
0.00138451
-1.18754e-05
0.00189537
0.001091
0.00277241
0.00161146
0.00342186
0.00411281
0.00409332
0.00151833
0.00449532
0.00347198
0.00372762
0.00272902
0.00322942
0.0015038
0.00288859
0.000704772
0.00252416
0.000229265
0.00207611
-6.08396e-05
0.00153325
-0.000237219
0.000913873
-0.000336282
0.00023481
-0.000363735
-0.000465263
-0.000339242
-0.00112549
-0.000303464
-0.00169119
-0.000277284
-0.00212597
-0.000271687
-0.00243466
-0.000300673
-0.00263258
-0.000346958
-0.00275873
-0.000394713
-0.0028427
-0.00042603
-0.00290268
-0.000431393
-0.0029469
-0.000407973
-0.00297909
-0.000358032
-0.00300098
-0.000286906
-0.00301348
-0.000201864
-0.00301731
-0.000111068
-0.00301368
-2.22798e-05
-0.00300439
5.87826e-05
-0.0029874
0.000127746
-0.00295764
0.000188492
-0.00290716
0.000249279
-0.00282302
0.000318454
-0.00268525
0.000404833
-0.00246488
0.000518668
-0.00212003
0.000668273
-0.00158531
0.000849404
-0.000726754
0.00103636
0.000699426
0.00134593
0.00136209
0.00275899
0.00565428
-0.00263381
-0.0068067
-0.00743251
-0.00747803
-0.00375981
-0.00215436
-0.00168473
0.00139694
-0.000770712
0.00181505
-0.000569746
0.00130289
-0.000646794
0.000781856
-0.000829107
0.000411596
-0.00106732
0.00017738
-0.00135694
5.23991e-05
-0.00170174
8.49597e-06
-0.00207909
1.35883e-05
-0.00245476
3.63946e-05
-0.00280276
4.44917e-05
-0.00309789
1.78147e-05
-0.00331727
-5.23244e-05
-0.003459
-0.000158916
-0.00354945
-0.000256446
-0.00361633
-0.000327735
-0.00367441
-0.000367822
-0.00372909
-0.000376591
-0.00378103
-0.000355954
-0.0038294
-0.00030964
-0.00387325
-0.000243118
-0.00391157
-0.000163671
-0.00394254
-8.02852e-05
-0.00396131
-3.70184e-06
-0.00396036
5.76812e-05
-0.00394064
0.000107956
-0.00390442
0.000152297
-0.00385089
0.000195873
-0.00377552
0.000243275
-0.0036701
0.00029963
-0.00352159
0.000370316
-0.00330498
0.000451722
-0.00297992
0.000524228
-0.00259753
0.000653665
-0.00250919
0.00125715
-0.00209507
0.0023444
0.00375473
-0.00737822
0.00102504
-0.00814561
-0.00671058
-0.00719432
-0.00310558
-0.00567203
-0.000125291
-0.00458082
0.000723896
-0.00399208
0.000714193
-0.00373583
0.000525631
-0.00367109
0.00034685
-0.00371369
0.000219962
-0.00380763
0.000146288
-0.00391195
0.000112758
-0.00399994
0.000101503
-0.00405838
9.4768e-05
-0.00409153
7.75866e-05
-0.00411447
4.07241e-05
-0.00414344
-2.33273e-05
-0.00418809
-0.000114192
-0.00425053
-0.000193891
-0.00433055
-0.000247558
-0.00442449
-0.000273733
-0.00452574
-0.000275213
-0.00462583
-0.000255813
-0.00471588
-0.000219619
-0.00478842
-0.000170712
-0.00483864
-0.000113657
-0.00486479
-5.44048e-05
-0.00486822
-5.36049e-07
-0.00484464
3.38852e-05
-0.00479268
5.58573e-05
-0.00471495
7.4533e-05
-0.00461212
9.31176e-05
-0.00448107
0.000112394
-0.00431356
0.000132358
-0.00409582
0.000152835
-0.00380849
0.000164636
-0.00340561
0.000121538
-0.00269341
-5.84158e-05
-0.00120319
-0.000233045
-8.25826e-05
0.00122362
0.00388007
0.00156665
-0.00507932
-0.00812192
-0.00818805
-0.00741015
-0.00664979
-0.00608469
-0.00570312
-0.00545144
-0.00527505
-0.00513274
-0.00500147
-0.00487621
-0.00476723
-0.00469436
-0.00468514
-0.0047668
-0.00492848
-0.0051444
-0.00538725
-0.0056324
-0.00585893
-0.00604989
-0.00619236
-0.00627802
-0.00630452
-0.00627718
-0.00621546
-0.00613189
-0.00602995
-0.00590992
-0.00577134
-0.00561371
-0.0054367
-0.00524911
-0.00510593
-0.00514412
-0.00535853
-0.00411793
)
;

boundaryField
{
    floor
    {
        type            calculated;
        value           nonuniform List<scalar> 
36
(
0
0
0
0
0
0
0
0
0
0
0
0
0
0
0
0
0
0
0
-6.42728e-06
-1.68603e-05
-2.60024e-05
-3.42751e-05
-3.49209e-05
-2.8767e-05
-2.86862e-05
-2.91568e-06
-5.43337e-06
-5.67993e-06
-5.90065e-06
-4.84665e-06
-8.92776e-06
-1.02067e-05
-1.28165e-05
-1.4445e-05
-1.54307e-05
)
;
    }
    ceiling
    {
        type            calculated;
        value           nonuniform List<scalar> 
43
(
-5.77926e-05
-6.45441e-05
-6.29072e-05
-5.9074e-05
-5.39349e-05
-4.61257e-05
-3.94575e-05
-3.47369e-05
-3.17722e-05
-3.01876e-05
-2.96401e-05
-2.9857e-05
-3.05654e-05
-3.14391e-05
-3.21532e-05
-3.25034e-05
-3.24395e-05
-3.20829e-05
-3.14936e-05
-3.07575e-05
-2.99874e-05
-2.92957e-05
-2.87608e-05
-2.84089e-05
-2.82192e-05
-2.81388e-05
-2.80984e-05
-2.80182e-05
-2.78222e-05
-2.74495e-05
-2.6869e-05
-2.60767e-05
-2.50891e-05
-2.39371e-05
-2.26596e-05
-2.1299e-05
-1.98826e-05
-1.83724e-05
-1.68163e-05
-1.57912e-05
1.93795e-05
1.52281e-05
-0.000246542
)
;
    }
    sWall
    {
        type            calculated;
        value           nonuniform List<scalar> 9(-0.000140229 -0.000164507 -0.000194229 -0.000225943 -0.000245144 -0.000281071 -0.000423518 -0.000453475 -0.000483803);
    }
    nWall
    {
        type            calculated;
        value           nonuniform List<scalar> 
14
(
-9.04186e-05
-9.76822e-05
-0.000103117
-0.000104363
-0.000116177
-0.000129888
-0.000144351
-0.000155899
-0.000161549
-0.000170948
-0.000179585
-0.000195815
-0.000208156
-0.000222089
)
;
    }
    sideWalls
    {
        type            empty;
        value           nonuniform 0();
    }
    glass1
    {
        type            calculated;
        value           nonuniform List<scalar> 9(-6.4014e-05 -0.000170283 -0.000257882 -0.000331172 -0.000393164 -0.000446375 -0.000492187 -0.000535463 -0.00058713);
    }
    glass2
    {
        type            calculated;
        value           nonuniform List<scalar> 2(-0.00036723 -0.000385618);
    }
    sun
    {
        type            calculated;
        value           uniform 0;
    }
    Table_master
    {
        type            calculated;
        value           nonuniform List<scalar> 9(-1.5399e-07 -1.54107e-07 -1.54139e-07 -1.54159e-07 -1.54172e-07 -1.54177e-07 -1.54175e-07 -1.54161e-07 -1.54108e-07);
    }
    Table_slave
    {
        type            calculated;
        value           nonuniform List<scalar> 9(1.53657e-07 1.53714e-07 1.53713e-07 1.5373e-07 1.53751e-07 1.53795e-07 1.53863e-07 1.53956e-07 1.54084e-07);
    }
    inlet
    {
        type            calculated;
        value           uniform -0.0116484;
    }
    outlet
    {
        type            calculated;
        value           nonuniform List<scalar> 2(0.00986406 0.0122768);
    }
}


// ************************************************************************* //
