/*--------------------------------*- C++ -*----------------------------------*\
  =========                 |
  \\      /  F ield         | OpenFOAM: The Open Source CFD Toolbox
   \\    /   O peration     | Website:  https://openfoam.org
    \\  /    A nd           | Version:  6
     \\/     M anipulation  |
\*---------------------------------------------------------------------------*/
FoamFile
{
    version     2.0;
    format      ascii;
    class       volScalarField;
    location    "9300";
    object      k;
}
// * * * * * * * * * * * * * * * * * * * * * * * * * * * * * * * * * * * * * //

dimensions      [0 2 -2 0 0 0 0];

internalField   nonuniform List<scalar> 
778
(
0.00158596
0.00180125
0.00178819
0.00194682
0.0020981
0.00224038
0.00237701
0.00251253
0.00265272
0.00280587
0.00295583
0.00310184
0.00324909
0.00341127
0.00358476
0.000792602
0.001625
0.00165107
0.00157189
0.00144402
0.00128185
0.00112997
0.000998532
0.000886963
0.000792502
0.000712787
0.000644781
0.0005858
0.000533305
0.000484589
0.000436147
0.000397885
0.000326051
0.00340702
0.00643379
0.00268775
0.00274638
0.00288811
0.00305472
0.00323505
0.00343072
0.00364376
0.00387379
0.00412547
0.00437875
0.00459407
0.004699
0.00459326
0.00429679
0.00390575
0.00357885
0.00253795
0.00281307
0.00295455
0.00289608
0.0026627
0.00226355
0.00190444
0.00160846
0.001369
0.0011754
0.00101676
0.000885055
0.000773846
0.000681061
0.000615071
0.000574562
0.000864623
0.000524102
0.00549086
0.0127821
0.00347829
0.00321238
0.00329774
0.00345559
0.00363694
0.003841
0.0040711
0.00432736
0.00463502
0.00500988
0.00544954
0.00595873
0.00652981
0.00685882
0.00627676
0.00538527
0.00403796
0.00416989
0.00417296
0.0039749
0.00357666
0.00266456
0.00201432
0.00157479
0.00126866
0.00104875
0.000886557
0.000764363
0.000671648
0.00060351
0.000551351
0.000548613
0.0011666
0.000678407
0.00797367
0.0217606
0.00449171
0.00339097
0.00334174
0.00343829
0.0035496
0.00366896
0.00380899
0.00399101
0.00425851
0.00464746
0.0051698
0.00582359
0.00655333
0.00713385
0.00722805
0.00724572
0.00534164
0.00554746
0.00537509
0.00512521
0.00478669
0.00434784
0.00345562
0.0028586
0.00243527
0.002109
0.00184952
0.00163109
0.00143778
0.00125786
0.00107702
0.000800181
0.000659417
0.00142425
0.000822424
0.0108766
0.0336384
0.00621379
0.00342522
0.00315846
0.00316709
0.00318963
0.00320982
0.00325195
0.00336074
0.00359413
0.00398823
0.00455206
0.00527505
0.00608521
0.0068161
0.00728149
0.00764163
0.00751333
0.00665136
0.00607157
0.00557819
0.00509871
0.00462919
0.00412293
0.00366522
0.00327433
0.0029365
0.00263014
0.00234663
0.00207811
0.00181749
0.00155416
0.00122121
0.000929379
0.00119125
0.00121665
0.00117064
0.00207429
0.00189105
0.0141751
0.0476041
0.00928577
0.00349028
0.00290869
0.00282281
0.00276438
0.00269942
0.00266401
0.00273429
0.00298044
0.00341364
0.0040225
0.00479637
0.0056518
0.0064592
0.00706587
0.00740368
0.00731968
0.00678676
0.00621305
0.00563612
0.00507385
0.0045558
0.00409118
0.00369546
0.00336276
0.00307322
0.00280612
0.00255065
0.00229801
0.00204132
0.00177324
0.00147086
0.00117709
0.00111189
0.00111127
0.00172933
0.00516916
0.00269587
0.0179926
0.0606116
0.0143633
0.00381991
0.00271533
0.00252942
0.00241172
0.00229383
0.00222077
0.0023114
0.00263027
0.00313928
0.00380176
0.00463096
0.00552751
0.00636508
0.00699844
0.00732494
0.00725112
0.00681542
0.00621374
0.00555403
0.0049116
0.00434267
0.00387246
0.00350044
0.00320673
0.00296177
0.00274114
0.00252857
0.00231269
0.00208636
0.0018447
0.00158254
0.00132576
0.00115769
0.00109172
0.00157907
0.00642182
0.00376686
0.0216417
0.0704861
0.0214412
0.00510286
0.00274283
0.00237175
0.00220994
0.00208159
0.0020259
0.00221923
0.00264988
0.00323141
0.00393801
0.00477562
0.00570015
0.00657404
0.00722299
0.00751214
0.00738209
0.00689453
0.00619746
0.00542696
0.00469187
0.00406483
0.00357477
0.00321285
0.00294809
0.00274149
0.00256453
0.00239574
0.00222151
0.00203451
0.00183133
0.00161224
0.00139465
0.00122435
0.00115501
0.00219308
0.0144056
0.0065808
0.0228331
0.0694897
0.0325403
0.0110596
0.00406723
0.00258705
0.00223507
0.00210245
0.00218929
0.00251181
0.00300029
0.0036027
0.0043344
0.00521596
0.00618924
0.00709106
0.00771877
0.00792268
0.00766335
0.00702481
0.00616576
0.00524996
0.00440923
0.0037239
0.00321784
0.00286999
0.00263672
0.00247032
0.00233732
0.00221188
0.0020792
0.00193231
0.00176892
0.00159091
0.00141073
0.00127307
0.00134772
0.00443176
0.0294166
0.00853894
0.0219171
0.0516284
0.0336448
0.0174352
0.00858651
0.00475717
0.00325936
0.00272855
0.00285157
0.00320946
0.0036716
0.00424704
0.00499851
0.0059445
0.00698208
0.00789458
0.00844561
0.00848445
0.00800275
0.00712385
0.0060434
0.00495766
0.00401542
0.00329406
0.00280051
0.00249093
0.00230448
0.00218663
0.00209848
0.00201324
0.00191747
0.00180561
0.00167649
0.00153259
0.00138459
0.00128497
0.00171314
0.0110193
0.0244429
0.00876931
0.0192311
0.0394322
0.0302371
0.0195659
0.0121808
0.00793624
0.00571429
0.00466618
0.00435898
0.00439672
0.00465046
0.00514571
0.00593976
0.00699049
0.00810064
0.00897467
0.00934865
0.00909702
0.008272
0.00706119
0.00571577
0.00446644
0.00346838
0.00277398
0.00235236
0.00211856
0.00199441
0.00192702
0.00187726
0.00182346
0.00175576
0.00167045
0.00156758
0.00145118
0.00133434
0.0012878
0.0019406
0.010233
0.0239555
0.00889207
0.0159471
0.0315857
0.0266511
0.0195388
0.0139749
0.0102822
0.00802466
0.00674796
0.0060451
0.00572714
0.00578034
0.0062757
0.00721727
0.00843194
0.00958318
0.0102956
0.0103156
0.00959198
0.00828328
0.00666611
0.00506241
0.00372957
0.00279972
0.00223941
0.00195909
0.00181938
0.00175084
0.00171735
0.00169002
0.00165468
0.00160462
0.00153707
0.00145367
0.00136283
0.00128438
0.00132789
0.00228721
0.00917633
0.0219025
0.00991286
0.0132655
0.02568
0.0233568
0.0186926
0.0145845
0.0115879
0.00954238
0.0082076
0.00729734
0.00683741
0.00695741
0.00772464
0.008992
0.0103848
0.0114251
0.0117162
0.0111052
0.00968612
0.00778135
0.00576257
0.00403738
0.00284122
0.0021973
0.00186431
0.00170153
0.00162199
0.00158256
0.00156139
0.00153994
0.00150936
0.00146541
0.00140772
0.0013413
0.00128169
0.00128862
0.00164439
0.00316768
0.00967643
0.0199638
0.0104372
0.0133543
0.0224302
0.0220682
0.0177658
0.014396
0.0118961
0.0100848
0.00876877
0.00791702
0.00777315
0.00847569
0.00987989
0.0115471
0.0128968
0.0134199
0.0128435
0.0112609
0.00896327
0.00651301
0.0043054
0.00295881
0.00221742
0.00184722
0.00166305
0.00156879
0.00151698
0.00148472
0.00145992
0.00143206
0.00139557
0.00134864
0.00129436
0.00124836
0.00126872
0.0015601
0.00258463
0.00501343
0.0104983
0.0193802
0.0092361
0.0108783
0.0117685
0.0129256
0.0125537
0.0113754
0.0100756
0.00894774
0.00820337
0.0083008
0.00941504
0.0112992
0.0133808
0.014981
0.0155542
0.0148412
0.0128557
0.0101108
0.00699348
0.00461502
0.00311298
0.00232294
0.00193428
0.00173907
0.00163003
0.00156087
0.00151086
0.0014694
0.00143032
0.00138975
0.00134499
0.00129725
0.00125619
0.00125535
0.00140037
0.00196984
0.00346379
0.00644139
0.0111675
0.0160263
0.00821304
0.00353971
0.00481739
0.0059886
0.00659633
0.00727727
0.00878869
0.0113032
0.0141389
0.0165693
0.0180182
0.0181108
0.0167644
0.0142008
0.0105649
0.00725772
0.00477397
0.0032765
0.00251094
0.00215195
0.0019715
0.00186261
0.00178309
0.00171761
0.00166044
0.00160957
0.00156503
0.00152777
0.00150394
0.00149222
0.00150087
0.00156153
0.00176891
0.00235339
0.00375288
0.00651335
0.0110317
0.0173875
0.00796855
0.00444609
0.00628395
0.00810074
0.0110113
0.0146816
0.018141
0.0203829
0.0214574
0.0213979
0.0201839
0.0176308
0.0141209
0.0104192
0.00710128
0.00476864
0.00343527
0.00280245
0.00252484
0.00239261
0.00231412
0.00225632
0.00220863
0.00216974
0.00214284
0.002133
0.00214412
0.0021758
0.00222166
0.0022832
0.00236307
0.00247953
0.00270383
0.00319784
0.00428375
0.00657059
0.0113617
0.0171788
0.00947955
0.0150746
0.0245348
0.0181341
0.0143912
0.0169893
0.0206735
0.0227926
0.0234912
0.0230446
0.0217018
0.0196984
0.0170441
0.0138298
0.0104313
0.00741051
0.00525214
0.00406243
0.0035362
0.00333461
0.0032613
0.00323124
0.0032089
0.00318095
0.00314733
0.00311709
0.0031036
0.00311937
0.00317286
0.00326819
0.00340647
0.00358568
0.00380605
0.0040871
0.00451285
0.00520177
0.00638114
0.00864543
0.014767
0.017825
0.0102398
0.0138062
0.0170607
0.0178286
0.020741
0.0216751
0.0220938
0.0210995
0.019291
0.0171782
0.0150091
0.0128788
0.0108243
0.00887319
0.00712787
0.00572462
0.00480194
0.00430873
0.00409589
0.0040436
0.00407901
0.00415559
0.00424167
0.00431823
0.00437931
0.00443102
0.00448781
0.00456783
0.00468982
0.00487329
0.00514114
0.00552256
0.00605267
0.00676611
0.00767334
0.00885266
0.0104311
0.0127458
0.0173036
0.0204144
0.0109077
0.0121356
0.00891552
0.00883103
0.00936089
0.0098157
0.00926355
0.00821752
0.00707105
0.00600147
0.00505251
0.00421897
0.00350005
0.00292058
0.00251765
0.00230436
0.00221906
0.00221243
0.00224869
0.00230626
0.00237275
0.00244104
0.00250762
0.00257202
0.00263655
0.00270594
0.00278697
0.00288856
0.00302273
0.00320604
0.00345987
0.00380722
0.00426522
0.0048379
0.005518
0.00630474
0.00721896
0.00823045
0.0093592
0.0105309
0.00937712
)
;

boundaryField
{
    floor
    {
        type            kqRWallFunction;
        value           nonuniform List<scalar> 
36
(
0.00358476
0.000792602
0.001625
0.00165107
0.00157189
0.00144402
0.00128185
0.00112997
0.000998532
0.000886963
0.000792502
0.000712787
0.000644781
0.0005858
0.000533305
0.000484589
0.000436147
0.000397885
0.000326051
0.000326051
0.000524102
0.000678407
0.000822424
0.00117064
0.00207429
0.00189105
0.00358476
0.00429679
0.00390575
0.00357885
0.000792602
0.00357885
0.00253795
0.00538527
0.00403796
0.00534164
)
;
    }
    ceiling
    {
        type            kqRWallFunction;
        value           nonuniform List<scalar> 
43
(
0.0121356
0.00891552
0.00883103
0.00936089
0.0098157
0.00926355
0.00821752
0.00707105
0.00600147
0.00505251
0.00421897
0.00350005
0.00292058
0.00251765
0.00230436
0.00221906
0.00221243
0.00224869
0.00230626
0.00237275
0.00244104
0.00250762
0.00257202
0.00263655
0.00270594
0.00278697
0.00288856
0.00302273
0.00320604
0.00345987
0.00380722
0.00426522
0.0048379
0.005518
0.00630474
0.00721896
0.00823045
0.0093592
0.0105309
0.00937712
0.0108783
0.0117685
0.00444609
)
;
    }
    sWall
    {
        type            kqRWallFunction;
        value           nonuniform List<scalar> 9(0.0219171 0.0192311 0.0159471 0.0132655 0.0133543 0.0108783 0.0150746 0.0138062 0.0121356);
    }
    nWall
    {
        type            kqRWallFunction;
        value           nonuniform List<scalar> 
14
(
0.00189105
0.00269587
0.00376686
0.00876931
0.00889207
0.00991286
0.0104372
0.0092361
0.00821304
0.00796855
0.00947955
0.0102398
0.0109077
0.00937712
)
;
    }
    sideWalls
    {
        type            empty;
    }
    glass1
    {
        type            kqRWallFunction;
        value           nonuniform List<scalar> 9(0.00158596 0.00340702 0.00549086 0.00797367 0.0108766 0.0141751 0.0179926 0.0216417 0.0228331);
    }
    glass2
    {
        type            kqRWallFunction;
        value           nonuniform List<scalar> 2(0.0065808 0.00853894);
    }
    sun
    {
        type            kqRWallFunction;
        value           nonuniform List<scalar> 
14
(
0.00158596
0.00180125
0.00178819
0.00194682
0.0020981
0.00224038
0.00237701
0.00251253
0.00265272
0.00280587
0.00295583
0.00310184
0.00324909
0.00341127
)
;
    }
    Table_master
    {
        type            kqRWallFunction;
        value           nonuniform List<scalar> 9(0.00266456 0.00201432 0.00157479 0.00126866 0.00104875 0.000886557 0.000764363 0.000671648 0.00060351);
    }
    Table_slave
    {
        type            kqRWallFunction;
        value           nonuniform List<scalar> 9(0.00345562 0.0028586 0.00243527 0.002109 0.00184952 0.00163109 0.00143778 0.00125786 0.00107702);
    }
    inlet
    {
        type            turbulentIntensityKineticEnergyInlet;
        intensity       0.05;
        value           uniform 0.0009375;
    }
    outlet
    {
        type            zeroGradient;
    }
}


// ************************************************************************* //
