/*--------------------------------*- C++ -*----------------------------------*\
  =========                 |
  \\      /  F ield         | OpenFOAM: The Open Source CFD Toolbox
   \\    /   O peration     | Website:  https://openfoam.org
    \\  /    A nd           | Version:  6
     \\/     M anipulation  |
\*---------------------------------------------------------------------------*/
FoamFile
{
    version     2.0;
    format      ascii;
    class       volScalarField;
    location    "9300";
    object      T;
}
// * * * * * * * * * * * * * * * * * * * * * * * * * * * * * * * * * * * * * //

dimensions      [0 0 0 1 0 0 0];

internalField   nonuniform List<scalar> 
662
(
302.57
302.279
302.264
302.259
302.254
302.249
302.244
302.237
302.229
302.215
302.197
302.178
302.168
302.174
302.209
302.369
302.345
302.337
302.344
302.351
302.356
302.362
302.368
302.373
302.379
302.384
302.389
302.394
302.399
302.405
302.411
302.418
302.443
302.784
302.332
302.31
302.316
302.322
302.325
302.325
302.321
302.308
302.279
302.232
302.182
302.153
302.154
302.171
302.184
302.196
302.22
302.375
302.323
302.319
302.327
302.337
302.341
302.343
302.345
302.347
302.348
302.35
302.351
302.354
302.356
302.361
302.369
302.38
302.424
303.007
302.397
302.361
302.381
302.406
302.427
302.443
302.449
302.436
302.388
302.297
302.196
302.143
302.143
302.165
302.18
302.19
302.213
302.327
302.308
302.311
302.328
302.347
302.347
302.347
302.348
302.348
302.348
302.348
302.348
302.349
302.35
302.354
302.36
302.371
302.418
303.226
302.478
302.408
302.437
302.482
302.529
302.574
302.603
302.6
302.531
302.377
302.208
302.129
302.135
302.165
302.188
302.199
302.21
302.221
302.242
302.274
302.31
302.346
302.377
302.401
302.419
302.433
302.445
302.455
302.462
302.467
302.472
302.473
302.442
302.411
302.391
302.421
303.427
302.59
302.468
302.479
302.527
302.589
302.66
302.726
302.751
302.665
302.442
302.208
302.113
302.126
302.172
302.209
302.227
302.236
302.254
302.283
302.32
302.361
302.401
302.435
302.464
302.486
302.502
302.515
302.524
302.529
302.528
302.523
302.513
302.489
302.453
302.419
302.422
302.52
302.599
302.6
303.586
302.805
302.631
302.576
302.586
302.626
302.691
302.783
302.836
302.725
302.451
302.191
302.085
302.118
302.189
302.248
302.28
302.297
302.322
302.355
302.394
302.434
302.472
302.504
302.531
302.55
302.565
302.575
302.58
302.581
302.575
302.564
302.548
302.523
302.489
302.451
302.436
302.479
302.509
302.552
304.841
303.538
303.137
302.919
302.8
302.756
302.773
302.843
302.903
302.793
302.475
302.148
302.026
302.12
302.231
302.313
302.36
302.387
302.414
302.445
302.481
302.516
302.548
302.574
302.595
302.609
302.619
302.625
302.626
302.623
302.614
302.597
302.578
302.553
302.523
302.488
302.467
302.475
302.489
302.521
307.141
305.007
304.263
303.831
303.5
303.272
303.146
303.086
302.95
302.616
302.188
301.932
302.003
302.171
302.319
302.413
302.46
302.485
302.509
302.536
302.565
302.593
302.616
302.635
302.648
302.656
302.66
302.661
302.659
302.653
302.644
302.63
302.609
302.587
302.564
302.541
302.527
302.533
302.556
302.723
293.648
299.51
301.619
302.375
302.591
302.559
302.294
301.901
301.673
301.739
302.1
302.313
302.462
302.524
302.554
302.574
302.594
302.616
302.637
302.655
302.67
302.68
302.686
302.689
302.689
302.687
302.684
302.681
302.677
302.676
302.677
302.683
302.697
302.722
302.759
302.798
302.831
302.908
295.443
295.286
297.67
299.482
300.426
300.765
300.884
301.097
301.465
301.891
302.37
302.511
302.579
302.613
302.633
302.648
302.663
302.678
302.69
302.7
302.707
302.712
302.714
302.715
302.715
302.715
302.716
302.716
302.717
302.719
302.723
302.731
302.745
302.765
302.791
302.817
302.842
302.892
299.822
297.762
295.635
295.661
297.343
298.879
299.803
300.401
300.936
301.475
301.995
302.353
302.585
302.636
302.665
302.682
302.694
302.703
302.712
302.72
302.726
302.73
302.733
302.734
302.735
302.736
302.737
302.737
302.738
302.739
302.741
302.743
302.746
302.752
302.761
302.775
302.792
302.812
302.839
302.866
300.083
298.956
298.455
298.504
299.269
300.073
300.75
301.356
301.885
302.275
302.526
302.658
302.717
302.73
302.74
302.747
302.753
302.758
302.761
302.764
302.765
302.766
302.766
302.766
302.765
302.764
302.764
302.763
302.762
302.762
302.761
302.761
302.762
302.765
302.769
302.776
302.788
302.797
302.858
302.964
303.793
303.33
303.011
302.847
302.765
302.753
302.799
302.884
302.876
302.651
302.294
302.06
305.818
304.553
304.031
303.653
303.373
303.197
303.114
303.038
302.808
302.397
302.026
301.913
297.542
300.817
302.098
302.524
302.599
302.458
302.095
301.751
301.673
301.852
294.386
296.47
298.693
300.048
300.653
300.822
300.971
301.265
301.681
302.077
299.117
296.515
295.125
296.467
298.177
299.4
300.124
300.667
301.205
301.739
302.199
302.464
299.292
298.663
298.366
298.851
299.686
300.424
301.059
301.635
302.099
302.417
302.605
302.691
304.005
304.012
303.629
303.343
303.127
302.99
302.94
302.959
302.949
302.747
302.366
302.05
307.227
305.049
304.469
303.942
303.582
303.341
303.184
303.062
302.785
302.344
301.945
301.814
295.328
296.447
299.23
300.811
301.49
301.642
301.538
301.4
301.475
301.756
293.953
295.165
297.138
298.83
299.83
300.327
300.686
301.15
301.668
302.116
299.847
298.178
296.941
296.935
298.174
299.339
300.157
300.806
301.406
301.903
302.293
302.524
299.885
299.885
299.959
300.109
300.545
301.062
301.564
302.015
302.354
302.564
302.676
302.714
304.302
303.804
303.476
303.225
303.047
302.954
302.943
302.969
302.878
302.566
302.183
301.986
305.845
304.82
304.18
303.745
303.449
303.254
303.125
302.949
302.577
302.121
301.841
301.856
294.88
297.972
300.164
301.235
301.617
301.615
301.453
301.405
301.599
301.924
294.473
296.118
298.067
299.411
300.122
300.497
300.907
301.407
301.909
302.284
298.934
297.479
296.648
297.519
298.798
299.781
300.491
301.113
301.67
302.113
302.43
302.578
299.867
299.917
300.014
300.303
300.802
301.316
301.799
302.202
302.474
302.631
302.702
302.718
)
;

boundaryField
{
    floor
    {
        type            wallHeatTransfer;
        Tinf            uniform 305.2;
        alphaWall       uniform 0.24;
        value           nonuniform List<scalar> 
36
(
302.519
302.891
302.817
302.772
302.767
302.779
302.805
302.835
302.865
302.895
302.923
302.949
302.975
303
303.024
303.048
303.074
303.092
303.144
303.144
303.017
302.95
302.905
302.901
302.955
302.936
302.519
302.455
302.51
302.584
302.891
302.584
302.897
302.531
302.714
302.504
)
;
    }
    ceiling
    {
        type            wallHeatTransfer;
        Tinf            uniform 303.2;
        alphaWall       uniform 0.24;
        value           nonuniform List<scalar> 
58
(
300.085
300.121
300.205
300.474
300.948
301.437
301.898
302.281
302.539
302.69
302.76
302.773
302.777
302.79
302.8
302.807
302.813
302.818
302.823
302.826
302.828
302.829
302.829
302.829
302.827
302.826
302.824
302.822
302.82
302.817
302.815
302.813
302.812
302.811
302.813
302.818
302.827
302.838
302.894
302.987
305.698
304.737
294.88
300.297
300.097
300.157
300.292
300.703
301.195
301.674
302.103
302.426
302.626
302.734
302.771
306.908
304.953
296.097
)
;
    }
    sWall
    {
        type            wallHeatTransfer;
        Tinf            uniform 315.2;
        alphaWall       uniform 0.36;
        value           nonuniform List<scalar> 4(301.09 301.215 301.077 301.591);
    }
    nWall
    {
        type            wallHeatTransfer;
        Tinf            uniform 307.2;
        alphaWall       uniform 0.36;
        value           nonuniform List<scalar> 6(303.439 303.378 303.261 303.498 303.46 303.558);
    }
    sideWalls
    {
        type            empty;
    }
    glass1
    {
        type            wallHeatTransfer;
        Tinf            uniform 315.2;
        alphaWall       uniform 4.3;
        value           nonuniform List<scalar> 10(311.391 310.722 310.264 309.892 309.59 309.287 309.28 311.376 309.82 311.428);
    }
    glass2
    {
        type            wallHeatTransfer;
        Tinf            uniform 307.2;
        alphaWall       uniform 4.3;
        value           nonuniform List<scalar> 2(305.466 305.595);
    }
    sun
    {
        type            wallHeatTransfer;
        Tinf            uniform 305.2;
        alphaWall       uniform 0.24;
        value           nonuniform List<scalar> 
14
(
302.865
302.587
302.57
302.555
302.542
302.529
302.516
302.503
302.488
302.469
302.448
302.429
302.423
302.442
)
;
    }
    Table_master
    {
        type            zeroGradient;
    }
    Table_slave
    {
        type            zeroGradient;
    }
    inlet
    {
        type            fixedValue;
        value           uniform 293.15;
    }
    outlet
    {
        type            zeroGradient;
    }
}


// ************************************************************************* //
