/*--------------------------------*- C++ -*----------------------------------*\
  =========                 |
  \\      /  F ield         | OpenFOAM: The Open Source CFD Toolbox
   \\    /   O peration     | Website:  https://openfoam.org
    \\  /    A nd           | Version:  6
     \\/     M anipulation  |
\*---------------------------------------------------------------------------*/
FoamFile
{
    version     2.0;
    format      ascii;
    class       volVectorField;
    location    "45600.0000003028181";
    object      U;
}
// * * * * * * * * * * * * * * * * * * * * * * * * * * * * * * * * * * * * * //

dimensions      [0 1 -1 0 0 0 0];

internalField   nonuniform List<vector> 
778
(
(0.0655948 0.07941 0)
(-0.155181 0.0157699 0)
(-0.164317 0.014631 0)
(-0.192445 0.0122824 0)
(-0.216894 0.00873268 0)
(-0.236969 0.00475116 0)
(-0.25211 0.000422542 0)
(-0.261893 -0.0043656 0)
(-0.265801 -0.00981165 0)
(-0.262831 -0.0161957 0)
(-0.251027 -0.0242734 0)
(-0.22632 -0.0348971 0)
(-0.186183 -0.0504242 0)
(-0.144236 -0.0752034 0)
(-0.150138 -0.108609 0)
(0.0546088 0.0354749 0)
(0.015681 -0.0268546 0)
(0.0448343 -0.0232499 0)
(0.0691983 -0.0161475 0)
(0.0842278 -0.0103433 0)
(0.0914201 -0.00641189 0)
(0.0942513 -0.00433567 0)
(0.0952839 -0.00331236 0)
(0.0957326 -0.00272537 0)
(0.0958973 -0.00231311 0)
(0.0957684 -0.00195004 0)
(0.0952412 -0.00151137 0)
(0.0939865 -0.000759578 0)
(0.0911471 0.000841413 0)
(0.0849582 0.00405866 0)
(0.0734486 0.00775662 0)
(0.0598365 0.0115912 0)
(-0.00798399 0.0299489 0)
(0.25839 0.167399 0)
(-0.161239 0.0484027 0)
(-0.141618 0.0459949 0)
(-0.174032 0.0416327 0)
(-0.199408 0.0356884 0)
(-0.220144 0.0291508 0)
(-0.23619 0.0220788 0)
(-0.247457 0.0142455 0)
(-0.253646 0.0053079 0)
(-0.253974 -0.0051488 0)
(-0.247824 -0.0170876 0)
(-0.234119 -0.030864 0)
(-0.214212 -0.0480977 0)
(-0.197639 -0.0699907 0)
(-0.194129 -0.0826842 0)
(-0.166501 -0.0426048 0)
(-0.105401 -0.0364369 0)
(-0.0983437 -0.0445295 0)
(0.109326 -0.0419758 0)
(0.0644145 -0.0410815 0)
(0.0718032 -0.0322047 0)
(0.0857375 -0.0206639 0)
(0.0935962 -0.0104249 0)
(0.0958097 -0.00363065 0)
(0.0955698 -0.000192596 0)
(0.0951853 0.0012577 0)
(0.09515 0.00190706 0)
(0.09523 0.00227808 0)
(0.0952353 0.00259502 0)
(0.0951337 0.00313195 0)
(0.0948423 0.00440801 0)
(0.0935867 0.00771623 0)
(0.0879973 0.016733 0)
(0.0742633 0.0252881 0)
(0.0629705 0.0328731 0)
(-0.0520777 0.0634568 0)
(0.429965 0.253964 0)
(-0.194235 0.0847776 0)
(-0.112794 0.0784559 0)
(-0.148269 0.0669844 0)
(-0.170712 0.0555334 0)
(-0.18882 0.0437632 0)
(-0.20267 0.0313798 0)
(-0.212376 0.0180389 0)
(-0.217739 0.00342195 0)
(-0.218106 -0.0126208 0)
(-0.212854 -0.0303258 0)
(-0.201752 -0.0499226 0)
(-0.186115 -0.0715933 0)
(-0.169588 -0.093246 0)
(-0.151226 -0.104607 0)
(-0.120384 -0.093196 0)
(-0.0796763 -0.0950197 0)
(-0.0715901 -0.107692 0)
(0.0920582 -0.0880239 0)
(0.0624941 -0.0656277 0)
(0.0742643 -0.0460169 0)
(0.0878604 -0.0291435 0)
(0.0946435 -0.0147978 0)
(0.0916952 -0.0120039 0)
(0.0874686 -0.0079734 0)
(0.0851001 -0.00580236 0)
(0.0844054 -0.00456818 0)
(0.0843863 -0.00379762 0)
(0.0846482 -0.00322283 0)
(0.0853033 -0.00259748 0)
(0.087063 -0.0014413 0)
(0.0917396 0.00291392 0)
(0.0898894 0.025075 0)
(0.0730979 0.0422787 0)
(0.0698902 0.05732 0)
(-0.0902005 0.100677 0)
(0.578527 0.325854 0)
(-0.240102 0.121836 0)
(-0.0808515 0.109255 0)
(-0.121601 0.0898924 0)
(-0.139045 0.0741142 0)
(-0.153117 0.0586844 0)
(-0.163888 0.0428012 0)
(-0.171495 0.025852 0)
(-0.175715 0.0072298 0)
(-0.175789 -0.0135138 0)
(-0.171105 -0.0364666 0)
(-0.161543 -0.0614618 0)
(-0.147687 -0.0873819 0)
(-0.130729 -0.110311 0)
(-0.109794 -0.123218 0)
(-0.0823372 -0.124576 0)
(-0.0527504 -0.126431 0)
(-0.0336465 -0.123232 0)
(0.0160031 -0.0568165 0)
(0.0605868 -0.0929489 0)
(0.0683014 -0.079069 0)
(0.0789523 -0.0587019 0)
(0.0914561 -0.0394572 0)
(0.102814 -0.0207891 0)
(0.115556 -0.0131538 0)
(0.126663 -0.00880058 0)
(0.132225 -0.00560094 0)
(0.133181 -0.00309637 0)
(0.130634 -0.000872134 0)
(0.125152 0.00129734 0)
(0.116611 0.00367651 0)
(0.104246 0.00672682 0)
(0.0850008 0.0111479 0)
(0.0711481 0.0367962 0)
(0.0598754 0.0604525 0)
(0.0759886 0.0831478 0)
(-0.118007 0.136732 0)
(0.705704 0.383698 0)
(-0.287675 0.157038 0)
(-0.0477151 0.133824 0)
(-0.0963215 0.106969 0)
(-0.107781 0.0876536 0)
(-0.116825 0.0692369 0)
(-0.123625 0.0505112 0)
(-0.128295 0.0306451 0)
(-0.130662 0.00876764 0)
(-0.129862 -0.0157945 0)
(-0.125365 -0.0430672 0)
(-0.116747 -0.0726782 0)
(-0.10404 -0.102812 0)
(-0.0875937 -0.129061 0)
(-0.0676708 -0.145761 0)
(-0.044357 -0.15226 0)
(-0.0205153 -0.152396 0)
(5.61549e-07 -0.14377 0)
(0.0305443 -0.115002 0)
(0.0567442 -0.109318 0)
(0.0703652 -0.0923576 0)
(0.0805376 -0.0711597 0)
(0.0906169 -0.0506907 0)
(0.100182 -0.0326499 0)
(0.109279 -0.0193038 0)
(0.116272 -0.009943 0)
(0.11966 -0.00325631 0)
(0.119822 0.00198765 0)
(0.117379 0.006521 0)
(0.112703 0.010858 0)
(0.105824 0.0155112 0)
(0.0966739 0.0211845 0)
(0.0847496 0.0291785 0)
(0.0731912 0.0471734 0)
(0.0626721 0.0711797 0)
(0.094166 0.0992052 0)
(0.016114 0.137929 0)
(0.0953558 0.182895 0)
(0.141134 0.146781 0)
(-0.22438 0.203437 0)
(0.810412 0.431996 0)
(-0.331312 0.190714 0)
(-0.0173326 0.150303 0)
(-0.0734001 0.117584 0)
(-0.0786337 0.0955838 0)
(-0.0822666 0.0750221 0)
(-0.0845317 0.0544189 0)
(-0.0855784 0.0327883 0)
(-0.0853296 0.0089148 0)
(-0.0826583 -0.0183743 0)
(-0.0774931 -0.0490014 0)
(-0.0688716 -0.0824728 0)
(-0.0568909 -0.116456 0)
(-0.0418606 -0.146236 0)
(-0.0248921 -0.165937 0)
(-0.006531 -0.174466 0)
(0.0118523 -0.172756 0)
(0.0277599 -0.161036 0)
(0.0459345 -0.139345 0)
(0.0624074 -0.122341 0)
(0.0731081 -0.102453 0)
(0.0808126 -0.0803659 0)
(0.0875836 -0.0589959 0)
(0.0937637 -0.0401075 0)
(0.099079 -0.0249381 0)
(0.102737 -0.0135922 0)
(0.104304 -0.00491324 0)
(0.103836 0.00226077 0)
(0.101647 0.00870406 0)
(0.0979892 0.0149358 0)
(0.0930231 0.0214868 0)
(0.0869791 0.0289985 0)
(0.0801115 0.0383961 0)
(0.0743425 0.0528357 0)
(0.0690323 0.0728615 0)
(0.0909299 0.0985828 0)
(0.0724831 0.107248 0)
(0.0888407 0.047719 0)
(0.146168 -0.037483 0)
(-0.330135 0.106149 0)
(0.879899 0.474709 0)
(-0.368633 0.221004 0)
(0.00371234 0.155629 0)
(-0.052696 0.121649 0)
(-0.0522518 0.0979381 0)
(-0.0510848 0.0759119 0)
(-0.049093 0.0541323 0)
(-0.0465865 0.0316143 0)
(-0.0434068 0.00683682 0)
(-0.0374485 -0.0222513 0)
(-0.030376 -0.0553295 0)
(-0.020601 -0.091887 0)
(-0.00881148 -0.128809 0)
(0.00437124 -0.161125 0)
(0.0174213 -0.181791 0)
(0.0301977 -0.190163 0)
(0.0420001 -0.187221 0)
(0.0523044 -0.174443 0)
(0.0622829 -0.154093 0)
(0.0708772 -0.132418 0)
(0.0764245 -0.109361 0)
(0.0799035 -0.0858133 0)
(0.0825085 -0.0635934 0)
(0.0847368 -0.0440626 0)
(0.0865441 -0.0279485 0)
(0.0875975 -0.0151537 0)
(0.0876811 -0.00489938 0)
(0.0866493 0.00373274 0)
(0.0847031 0.0114234 0)
(0.0819939 0.0186974 0)
(0.0787042 0.0260623 0)
(0.0751175 0.034035 0)
(0.0716321 0.0431982 0)
(0.0695987 0.0548805 0)
(0.0683407 0.0695043 0)
(0.0811125 0.0887821 0)
(0.0836234 0.0922452 0)
(0.0881585 0.0544537 0)
(0.18074 0.0240398 0)
(-0.282797 0.153467 0)
(0.927963 0.517163 0)
(-0.383166 0.234223 0)
(0.0169045 0.133074 0)
(-0.0273604 0.116754 0)
(-0.0265953 0.0950229 0)
(-0.0228031 0.0725319 0)
(-0.0177064 0.0502036 0)
(-0.0124434 0.0273381 0)
(-0.00550154 0.00193604 0)
(0.00448679 -0.0306949 0)
(0.0142004 -0.065283 0)
(0.0254869 -0.103258 0)
(0.0371085 -0.140738 0)
(0.0477642 -0.171993 0)
(0.0568389 -0.192204 0)
(0.0643157 -0.199737 0)
(0.0700286 -0.195373 0)
(0.0739824 -0.181221 0)
(0.0766908 -0.16015 0)
(0.0780685 -0.136138 0)
(0.0777288 -0.111082 0)
(0.0762404 -0.086499 0)
(0.0744258 -0.0638762 0)
(0.0728035 -0.044224 0)
(0.0715072 -0.027928 0)
(0.0704021 -0.0147102 0)
(0.0692989 -0.0038773 0)
(0.0679094 0.00534483 0)
(0.0663643 0.0135341 0)
(0.0646432 0.0211789 0)
(0.0628407 0.0287137 0)
(0.0611577 0.0365109 0)
(0.0599083 0.0448993 0)
(0.0599565 0.0544207 0)
(0.0610986 0.0651598 0)
(0.0697396 0.0788415 0)
(0.078587 0.0828832 0)
(0.0762527 0.0623235 0)
(0.238812 0.0509331 0)
(-0.55991 0.229893 0)
(1.01131 0.506843 0)
(-0.137376 0.296372 0)
(0.041075 0.161577 0)
(0.040552 0.122174 0)
(0.0130344 0.0920725 0)
(0.00860923 0.065466 0)
(0.0140219 0.0414861 0)
(0.0206354 0.0170614 0)
(0.0324406 -0.0109637 0)
(0.0439008 -0.0421083 0)
(0.0557638 -0.0768618 0)
(0.0680263 -0.11455 0)
(0.0791434 -0.150961 0)
(0.0876216 -0.180395 0)
(0.0928196 -0.198438 0)
(0.0948515 -0.203661 0)
(0.0941297 -0.197084 0)
(0.0912054 -0.181103 0)
(0.0867567 -0.15874 0)
(0.0812337 -0.133304 0)
(0.0749251 -0.107229 0)
(0.0684229 -0.0823533 0)
(0.0624407 -0.0600468 0)
(0.057488 -0.0410475 0)
(0.0537472 -0.0254534 0)
(0.0511126 -0.0127796 0)
(0.0493207 -0.00226244 0)
(0.0479732 0.00678407 0)
(0.0470675 0.0148558 0)
(0.0463849 0.0223953 0)
(0.0458938 0.0297449 0)
(0.0456692 0.03714 0)
(0.0458842 0.0447278 0)
(0.0470356 0.0526817 0)
(0.0491366 0.0609204 0)
(0.0552842 0.0703817 0)
(0.0633232 0.0724798 0)
(0.0527388 0.0500213 0)
(0.29425 0.0720104 0)
(-0.780941 0.298873 0)
(0.779351 0.395785 0)
(0.000697247 0.319529 0)
(0.0933573 0.218948 0)
(0.110565 0.155223 0)
(0.0771279 0.106891 0)
(0.059753 0.0676214 0)
(0.0581681 0.0358341 0)
(0.0623272 0.0064734 0)
(0.0737513 -0.0233906 0)
(0.0853179 -0.0550097 0)
(0.097503 -0.0897067 0)
(0.10935 -0.126168 0)
(0.118699 -0.159893 0)
(0.123776 -0.185577 0)
(0.123985 -0.199669 0)
(0.119751 -0.201325 0)
(0.11203 -0.191886 0)
(0.101898 -0.173872 0)
(0.0903983 -0.150288 0)
(0.0783729 -0.124158 0)
(0.0665096 -0.098015 0)
(0.0555346 -0.0737897 0)
(0.0461654 -0.0527471 0)
(0.0388571 -0.0353418 0)
(0.0336946 -0.0213783 0)
(0.0304333 -0.0100977 0)
(0.028618 -0.000609995 0)
(0.027783 0.00769729 0)
(0.0276846 0.0152629 0)
(0.0279959 0.0224578 0)
(0.0285934 0.0295142 0)
(0.0294291 0.0365527 0)
(0.0305024 0.0436018 0)
(0.0319519 0.0506576 0)
(0.0335525 0.057635 0)
(0.0360243 0.0654078 0)
(0.0280815 0.0705236 0)
(0.0207756 0.0820485 0)
(0.1376 0.159019 0)
(-0.655393 0.300599 0)
(0.617292 0.220941 0)
(0.0045837 0.298161 0)
(0.113025 0.241571 0)
(0.148291 0.177588 0)
(0.130852 0.123555 0)
(0.117827 0.077888 0)
(0.11496 0.0389451 0)
(0.11712 0.00344551 0)
(0.123478 -0.0306781 0)
(0.131698 -0.0649695 0)
(0.141373 -0.100437 0)
(0.15023 -0.135255 0)
(0.155331 -0.165071 0)
(0.154752 -0.185584 0)
(0.148181 -0.194502 0)
(0.136515 -0.191841 0)
(0.121229 -0.179323 0)
(0.10383 -0.15949 0)
(0.0856954 -0.135224 0)
(0.0679384 -0.109304 0)
(0.051509 -0.0841981 0)
(0.037277 -0.0617827 0)
(0.0259774 -0.0431625 0)
(0.0178624 -0.0283959 0)
(0.0126908 -0.0169082 0)
(0.00981629 -0.00758564 0)
(0.00851743 0.000498898 0)
(0.00844183 0.00783464 0)
(0.00907817 0.0147732 0)
(0.0101884 0.0215699 0)
(0.0116145 0.0283656 0)
(0.013208 0.0352267 0)
(0.0147883 0.0421504 0)
(0.0162079 0.049088 0)
(0.0173544 0.0560629 0)
(0.0177628 0.0649948 0)
(-0.00427499 0.084709 0)
(-0.00156623 0.117737 0)
(0.144717 0.176075 0)
(-0.562067 0.239867 0)
(0.570768 0.118587 0)
(-0.020319 0.258673 0)
(0.113745 0.229909 0)
(0.165087 0.176092 0)
(0.166742 0.126233 0)
(0.164392 0.0811573 0)
(0.165368 0.0400313 0)
(0.168276 0.00168096 0)
(0.172237 -0.0353477 0)
(0.177811 -0.0718614 0)
(0.183971 -0.107488 0)
(0.187638 -0.13947 0)
(0.185799 -0.163967 0)
(0.17708 -0.178195 0)
(0.161928 -0.181373 0)
(0.141883 -0.174384 0)
(0.11889 -0.159245 0)
(0.0947137 -0.13836 0)
(0.0709596 -0.114423 0)
(0.0488804 -0.0899222 0)
(0.0296587 -0.0672226 0)
(0.0142912 -0.0480699 0)
(0.00335781 -0.0332182 0)
(-0.00360479 -0.02186 0)
(-0.00736278 -0.0132721 0)
(-0.00925204 -0.00591182 0)
(-0.00987565 0.000835944 0)
(-0.00947114 0.00725218 0)
(-0.00839605 0.0135598 0)
(-0.00677161 0.0199222 0)
(-0.00475486 0.0264673 0)
(-0.00257163 0.0333119 0)
(-0.000594386 0.0405597 0)
(0.000672258 0.0482827 0)
(0.00113529 0.0568919 0)
(-0.00336335 0.0722165 0)
(-0.0332074 0.106773 0)
(-0.0241884 0.142053 0)
(0.0809441 0.182896 0)
(-0.526892 0.193363 0)
(0.628399 0.0537525 0)
(0.00935954 0.197327 0)
(0.113886 0.196981 0)
(0.175184 0.157984 0)
(0.191418 0.117755 0)
(0.198053 0.0773439 0)
(0.203366 0.037338 0)
(0.208563 -0.0014613 0)
(0.213075 -0.039628 0)
(0.217398 -0.076481 0)
(0.219216 -0.10984 0)
(0.215362 -0.136565 0)
(0.203952 -0.15409 0)
(0.185074 -0.161452 0)
(0.160342 -0.159224 0)
(0.131922 -0.148806 0)
(0.102076 -0.132263 0)
(0.0725372 -0.111657 0)
(0.0451106 -0.0894931 0)
(0.0210462 -0.0679629 0)
(0.00193268 -0.0493637 0)
(-0.0113376 -0.0352296 0)
(-0.0190495 -0.0254335 0)
(-0.0234208 -0.017784 0)
(-0.0257335 -0.0112118 0)
(-0.0268493 -0.0051143 0)
(-0.0270648 0.000700948 0)
(-0.0264731 0.00635917 0)
(-0.0251878 0.0120244 0)
(-0.0232369 0.0178706 0)
(-0.0207541 0.0241035 0)
(-0.0180033 0.0309825 0)
(-0.0155106 0.0388496 0)
(-0.0141534 0.0482461 0)
(-0.0145129 0.0608527 0)
(-0.021005 0.0849347 0)
(-0.0496975 0.129998 0)
(-0.044627 0.169466 0)
(-0.0197682 0.173795 0)
(-0.541245 0.118868 0)
(0.472689 0.0747943 0)
(-0.132031 0.137609 0)
(0.0942901 0.133351 0)
(0.172773 0.116877 0)
(0.203859 0.0954311 0)
(0.218116 0.0644769 0)
(0.22808 0.0284508 0)
(0.237157 -0.00893327 0)
(0.243567 -0.0453045 0)
(0.2451 -0.0782244 0)
(0.239128 -0.105017 0)
(0.224291 -0.123645 0)
(0.201104 -0.133292 0)
(0.17147 -0.134434 0)
(0.137968 -0.128345 0)
(0.102894 -0.1163 0)
(0.0686087 -0.100173 0)
(0.0363335 -0.0815575 0)
(0.00855588 -0.0629699 0)
(-0.0138803 -0.0463929 0)
(-0.0276879 -0.0351857 0)
(-0.0359032 -0.0272691 0)
(-0.0404202 -0.0210534 0)
(-0.0429153 -0.0154136 0)
(-0.0442454 -0.0100009 0)
(-0.0448422 -0.00472266 0)
(-0.0447947 0.000377132 0)
(-0.0441005 0.00532251 0)
(-0.0426934 0.0102636 0)
(-0.0404863 0.0154446 0)
(-0.0375447 0.0211955 0)
(-0.0340777 0.0279558 0)
(-0.0305701 0.0363507 0)
(-0.0279312 0.0474636 0)
(-0.0262247 0.0637646 0)
(-0.0241926 0.0920754 0)
(-0.0360921 0.141789 0)
(-0.0279406 0.198396 0)
(0.0739905 0.188413 0)
(-0.528997 0.0315556 0)
(0.724127 0.134446 0)
(0.0818337 0.115253 0)
(0.149753 0.0992516 0)
(0.222393 0.0805625 0)
(0.244029 0.0700313 0)
(0.248803 0.0477674 0)
(0.255102 0.0176152 0)
(0.261244 -0.0146956 0)
(0.260313 -0.0447406 0)
(0.249861 -0.0695421 0)
(0.229637 -0.0873879 0)
(0.201199 -0.0978347 0)
(0.166904 -0.10122 0)
(0.12928 -0.0985751 0)
(0.0908374 -0.091202 0)
(0.0530283 -0.0797897 0)
(0.0187041 -0.0660425 0)
(-0.0125801 -0.0511283 0)
(-0.0343462 -0.0398361 0)
(-0.0485478 -0.0320711 0)
(-0.0567031 -0.0269404 0)
(-0.0612749 -0.022718 0)
(-0.0637856 -0.018549 0)
(-0.0651548 -0.0140785 0)
(-0.0658312 -0.0093789 0)
(-0.0660234 -0.00465448 0)
(-0.0657509 -0.000113238 0)
(-0.0649565 0.00417323 0)
(-0.063543 0.00833214 0)
(-0.0612631 0.0126761 0)
(-0.0580848 0.017654 0)
(-0.0540691 0.0238669 0)
(-0.0494165 0.0321692 0)
(-0.0444949 0.0438753 0)
(-0.0386135 0.0611467 0)
(-0.0273604 0.0879842 0)
(-0.0161572 0.131205 0)
(-0.00649611 0.192812 0)
(0.153879 0.188631 0)
(-0.391472 0.0738276 0)
(0.191743 0.088032 0)
(0.225619 0.0998428 0)
(0.246409 0.070269 0)
(0.242487 0.0399637 0)
(0.239714 0.0122485 0)
(0.234779 -0.0128213 0)
(0.220137 -0.033329 0)
(0.196494 -0.0484285 0)
(0.166154 -0.0580966 0)
(0.131535 -0.0628239 0)
(0.0944082 -0.0629455 0)
(0.056706 -0.0592388 0)
(0.0204423 -0.0526576 0)
(-0.0150936 -0.0434481 0)
(-0.0423451 -0.0351655 0)
(-0.0625357 -0.0289618 0)
(-0.075556 -0.02555 0)
(-0.083421 -0.023586 0)
(-0.0879969 -0.0219524 0)
(-0.0907396 -0.0197333 0)
(-0.0923964 -0.0167127 0)
(-0.093349 -0.0130004 0)
(-0.0938022 -0.008869 0)
(-0.0938738 -0.00463525 0)
(-0.0935896 -0.000582664 0)
(-0.0929271 0.00314499 0)
(-0.0918707 0.00658315 0)
(-0.0901059 0.0100363 0)
(-0.0874714 0.0140213 0)
(-0.0837227 0.0192076 0)
(-0.0784793 0.026437 0)
(-0.0712751 0.0367688 0)
(-0.0609787 0.0515443 0)
(-0.0438979 0.0725088 0)
(-0.0183508 0.102426 0)
(0.00535782 0.151248 0)
(0.180191 0.161407 0)
(-0.351517 0.131606 0)
(0.450832 0.209853 0)
(0.20582 0.17882 0)
(0.152388 0.11881 0)
(0.139461 0.0640101 0)
(0.12827 0.0258118 0)
(0.114379 0.00169312 0)
(0.0990889 -0.0130064 0)
(0.0780643 -0.0220157 0)
(0.0532723 -0.0273842 0)
(0.025835 -0.0295188 0)
(-0.00456284 -0.0283254 0)
(-0.034342 -0.0249087 0)
(-0.0608485 -0.020889 0)
(-0.0828658 -0.0178063 0)
(-0.0987577 -0.0170245 0)
(-0.109276 -0.0178547 0)
(-0.115813 -0.0194353 0)
(-0.120045 -0.020437 0)
(-0.123015 -0.0202329 0)
(-0.125246 -0.0186505 0)
(-0.126949 -0.0158177 0)
(-0.128205 -0.0120142 0)
(-0.129047 -0.00762944 0)
(-0.129493 -0.00313879 0)
(-0.129554 0.000941965 0)
(-0.129289 0.00420544 0)
(-0.128798 0.00681898 0)
(-0.127852 0.00920181 0)
(-0.126172 0.0118178 0)
(-0.123255 0.0151467 0)
(-0.118332 0.0197205 0)
(-0.110524 0.0261533 0)
(-0.0986286 0.0349507 0)
(-0.0798042 0.0460541 0)
(-0.0496293 0.0592046 0)
(-0.0084604 0.0817277 0)
(0.189105 0.123561 0)
(-0.387257 0.198058 0)
(0.358323 -0.417368 0)
(-0.346384 -0.512776 0)
(-0.218393 -0.0271134 0)
(-0.0935037 0.111046 0)
(-0.053965 0.0925548 0)
(-0.0315343 0.0544799 0)
(-0.0266141 0.0282663 0)
(-0.0314825 0.0115385 0)
(-0.0401851 0.000792707 0)
(-0.0507375 -0.00608057 0)
(-0.0645471 -0.0100358 0)
(-0.0803106 -0.0119196 0)
(-0.096896 -0.0130567 0)
(-0.112831 -0.0149864 0)
(-0.126894 -0.0180753 0)
(-0.138085 -0.0214839 0)
(-0.145685 -0.0244791 0)
(-0.150309 -0.0267217 0)
(-0.153391 -0.0281815 0)
(-0.155947 -0.028821 0)
(-0.158381 -0.0286306 0)
(-0.160769 -0.0276373 0)
(-0.163069 -0.0259393 0)
(-0.165216 -0.0236801 0)
(-0.167158 -0.0209914 0)
(-0.168823 -0.0179122 0)
(-0.170016 -0.0143339 0)
(-0.170445 -0.0100496 0)
(-0.169992 -0.00584803 0)
(-0.168857 -0.00191444 0)
(-0.167023 0.00196089 0)
(-0.164268 0.00600854 0)
(-0.160196 0.0104942 0)
(-0.154537 0.0157974 0)
(-0.147176 0.0222272 0)
(-0.136646 0.0297204 0)
(-0.116386 0.0398036 0)
(-0.0697037 0.0642698 0)
(0.00802991 0.126099 0)
(-0.523978 0.229668 0)
(0.122054 -0.186484 0)
(-0.388813 -0.298202 0)
(-0.343716 -0.096291 0)
(-0.265347 0.0517274 0)
(-0.211647 0.0835166 0)
(-0.179532 0.0744979 0)
(-0.163289 0.0610363 0)
(-0.157303 0.0511956 0)
(-0.157341 0.0462781 0)
(-0.160566 0.0460688 0)
(-0.16509 0.0496946 0)
(-0.169397 0.055906 0)
(-0.172649 0.0633145 0)
(-0.17467 0.0701979 0)
(-0.175862 0.0744941 0)
(-0.176833 0.0735638 0)
(-0.178333 0.0670857 0)
(-0.180629 0.0599213 0)
(-0.183803 0.0539924 0)
(-0.187724 0.0498674 0)
(-0.192113 0.0475972 0)
(-0.196595 0.0470545 0)
(-0.200763 0.0479895 0)
(-0.204256 0.0500047 0)
(-0.206828 0.0524927 0)
(-0.208394 0.0545942 0)
(-0.208982 0.0552274 0)
(-0.208508 0.0533932 0)
(-0.206866 0.05078 0)
(-0.204159 0.0480296 0)
(-0.200449 0.0452145 0)
(-0.195572 0.0423648 0)
(-0.189186 0.0395715 0)
(-0.181227 0.0368956 0)
(-0.172115 0.0337885 0)
(-0.160058 0.0280708 0)
(-0.133639 0.0176186 0)
(-0.0652899 0.0142355 0)
(0.133901 0.0671757 0)
(-0.600477 0.180567 0)
(1.14924 -0.0111118 0)
(-0.297978 -0.323598 0)
(-0.353587 -0.233026 0)
(-0.353326 -0.148696 0)
(-0.329643 -0.107494 0)
(-0.298186 -0.0990798 0)
(-0.27117 -0.101398 0)
(-0.251634 -0.107172 0)
(-0.238508 -0.114722 0)
(-0.229578 -0.123893 0)
(-0.222822 -0.134957 0)
(-0.216887 -0.148106 0)
(-0.211212 -0.1629 0)
(-0.205956 -0.177879 0)
(-0.201867 -0.190521 0)
(-0.200171 -0.197895 0)
(-0.202094 -0.198804 0)
(-0.207896 -0.196255 0)
(-0.216556 -0.191327 0)
(-0.226818 -0.184847 0)
(-0.237499 -0.177581 0)
(-0.247602 -0.17023 0)
(-0.256334 -0.163303 0)
(-0.263094 -0.157001 0)
(-0.26747 -0.151206 0)
(-0.269309 -0.14556 0)
(-0.268824 -0.139593 0)
(-0.266623 -0.133003 0)
(-0.263552 -0.12669 0)
(-0.259808 -0.120394 0)
(-0.255377 -0.113736 0)
(-0.250115 -0.106597 0)
(-0.243956 -0.0990849 0)
(-0.237743 -0.0914591 0)
(-0.233919 -0.0841646 0)
(-0.232821 -0.0774224 0)
(-0.22024 -0.0673948 0)
(-0.175111 -0.0392008 0)
(-0.172213 0.0230617 0)
(-0.673066 0.09657 0)
)
;

boundaryField
{
    floor
    {
        type            noSlip;
    }
    ceiling
    {
        type            noSlip;
    }
    sWall
    {
        type            noSlip;
    }
    nWall
    {
        type            noSlip;
    }
    sideWalls
    {
        type            empty;
    }
    glass1
    {
        type            noSlip;
    }
    glass2
    {
        type            noSlip;
    }
    sun
    {
        type            noSlip;
    }
    Table_master
    {
        type            noSlip;
    }
    Table_slave
    {
        type            noSlip;
    }
    inlet
    {
        type            fixedValue;
        value           uniform (0.5 0 0);
    }
    outlet
    {
        type            zeroGradient;
    }
}


// ************************************************************************* //
