/*--------------------------------*- C++ -*----------------------------------*\
  =========                 |
  \\      /  F ield         | OpenFOAM: The Open Source CFD Toolbox
   \\    /   O peration     | Website:  https://openfoam.org
    \\  /    A nd           | Version:  6
     \\/     M anipulation  |
\*---------------------------------------------------------------------------*/
FoamFile
{
    version     2.0;
    format      ascii;
    class       volScalarField;
    location    "150";
    object      alphat;
}
// * * * * * * * * * * * * * * * * * * * * * * * * * * * * * * * * * * * * * //

dimensions      [1 -1 -1 0 0 0 0];

internalField   nonuniform List<scalar> 
458
(
0.00140717
0.00155184
0.00160649
0.00169147
0.00177166
0.00185073
0.00193469
0.00200911
0.00206469
0.00209095
0.00207775
0.00201427
0.00182038
0.0015626
0.00130691
0.000642845
0.000758321
0.000890118
0.000960665
0.000957094
0.000890189
0.00081651
0.000751781
0.000696759
0.00064983
0.00060958
0.000574711
0.000544174
0.000516841
0.000491203
0.000465335
0.000440808
0.000399426
0.00182503
0.00447818
0.0043151
0.00499728
0.00571163
0.0064022
0.00692498
0.00743471
0.00793003
0.00836079
0.00867104
0.00881048
0.00865905
0.00793983
0.00546133
0.00169176
0.00144249
0.00117362
0.000630161
0.00162896
0.00256609
0.00328043
0.00345148
0.00235359
0.0019367
0.00166513
0.00147059
0.00132519
0.00121278
0.00112423
0.00104634
0.000962526
0.000880496
0.000808963
0.000881307
0.000463351
0.0021696
0.00607212
0.00537518
0.0063416
0.00686152
0.00723976
0.00752986
0.00787959
0.00832486
0.00885901
0.00942214
0.00993223
0.0101854
0.00994375
0.00899327
0.00686799
0.00498973
0.00142699
0.000877976
0.00177129
0.00286476
0.00392322
0.00414973
0.00121317
0.00104264
0.000902529
0.000790465
0.000701095
0.000629522
0.000571859
0.000526147
0.000493094
0.000561656
0.000670898
0.00103354
0.000512938
0.00249712
0.00754581
0.00540851
0.00656837
0.00680673
0.00683247
0.00691852
0.00714292
0.00754866
0.0081656
0.0088973
0.00961146
0.0100416
0.0101338
0.00981439
0.00892754
0.00730626
0.00386996
0.00160405
0.00193582
0.00284549
0.00415031
0.00535471
0.00545203
0.00140312
0.00127193
0.00117386
0.00109453
0.00102721
0.000966069
0.000906096
0.000843445
0.000773113
0.000703372
0.000696068
0.0011872
0.000568411
0.00283282
0.00945447
0.00572986
0.00640047
0.00666417
0.0065046
0.00646266
0.00662401
0.00701129
0.00769753
0.00850175
0.00922016
0.00967876
0.00983682
0.00974373
0.00939644
0.00856109
0.00690317
0.00598898
0.00635511
0.00705759
0.00781672
0.00833806
0.00829751
0.00695657
0.00618323
0.005677
0.00527509
0.00483637
0.0043171
0.00371949
0.00305316
0.00235137
0.00171526
0.00127105
0.00126015
0.000928515
0.000731518
0.000801511
0.000880994
0.00319669
0.0116042
0.00755981
0.00635122
0.0066777
0.00657046
0.0064515
0.00652792
0.00688011
0.00756578
0.00841512
0.00914778
0.00956431
0.00966552
0.00960806
0.00954109
0.00944272
0.00917703
0.00931846
0.00990866
0.0103935
0.0106432
0.0106008
0.0102368
0.00951989
0.00881888
0.00819269
0.00758745
0.00693887
0.00623295
0.0054578
0.00461044
0.00371014
0.00283362
0.00213262
0.0016529
0.00128443
0.0010686
0.00133873
0.000916066
0.00353543
0.0131002
0.0103941
0.0078768
0.00743959
0.00717769
0.00678146
0.00665642
0.00699236
0.00774849
0.00866693
0.00940676
0.00976193
0.00980693
0.00983674
0.0101505
0.0106858
0.0111646
0.0117067
0.0121947
0.0123171
0.0121296
0.011689
0.0110597
0.0103091
0.0095529
0.00882042
0.00809851
0.00737477
0.00665987
0.00594246
0.00520981
0.00444577
0.00366255
0.00296939
0.00239542
0.00198342
0.00177434
0.00165237
0.00110902
0.00360809
0.0115321
0.0102338
0.00923394
0.00847063
0.00747227
0.00676954
0.00669036
0.00725444
0.00823605
0.00925793
0.00994966
0.0101802
0.0102211
0.0105689
0.0114594
0.0120725
0.0125123
0.0128519
0.0129795
0.0127597
0.012233
0.0114928
0.010622
0.00969581
0.0087838
0.00791256
0.00708813
0.00633224
0.00568885
0.00519687
0.00482815
0.00443922
0.0039952
0.00362676
0.00342631
0.00344155
0.00353131
0.00405948
0.00168005
0.00352168
0.00420755
0.0046106
0.00476141
0.00477027
0.00491147
0.00544623
0.00648624
0.00786873
0.00923753
0.0102285
0.0106039
0.0105294
0.0108952
0.0115061
0.0120692
0.0123921
0.0125457
0.012531
0.0122683
0.0117156
0.0109165
0.00994818
0.00888773
0.00781742
0.00680644
0.00588584
0.00507084
0.00438451
0.00384594
0.00345278
0.00318012
0.00299906
0.00287036
0.00278356
0.00272221
0.00263324
0.00248783
0.00231979
0.00158486
0.00127044
0.00232979
0.00383948
0.0056799
0.00762592
0.0093557
0.0105666
0.0111157
0.0110801
0.0107495
0.0104682
0.0106855
0.0109846
0.0111354
0.0111365
0.0109944
0.0106536
0.0100667
0.00924675
0.00826861
0.0072328
0.00623211
0.00533049
0.004557
0.00392272
0.00343436
0.00308792
0.00286466
0.00273628
0.00267464
0.00265631
0.00265991
0.00266334
0.0026341
0.00253007
0.00234283
0.00209529
0.00131768
0.00255944
0.00654567
0.00960852
0.0112063
0.0115772
0.0114216
0.0108421
0.00997461
0.00911769
0.00854842
0.00825478
0.00810403
0.00797581
0.00785089
0.00769998
0.0074632
0.00708546
0.0065559
0.00592087
0.00526133
0.00465189
0.00413331
0.00371266
0.00337929
0.00311908
0.00291994
0.00277271
0.00267177
0.00261468
0.00260019
0.00262438
0.00267549
0.00272949
0.00275592
0.00270106
0.00267445
0.00270529
0.0013495
0.00269851
0.00279657
0.0028832
0.00323187
0.00304071
0.00271364
0.00241702
0.00220342
0.00200972
0.00181647
0.00163847
0.00149575
0.00139637
0.00133284
0.00129083
0.00125821
0.00122635
0.00118987
0.00114691
0.00109929
0.00105111
0.00100655
0.000968321
0.000937503
0.0009142
0.000898447
0.000890686
0.000891732
0.000902471
0.000923568
0.000955315
0.000997719
0.00105068
0.00111379
0.00118526
0.00126789
0.00129844
0.00126268
0.00118297
0.00110925
)
;

boundaryField
{
    floor
    {
        type            compressible::alphatWallFunction;
        Prt             0.85;
        value           nonuniform List<scalar> 
36
(
0.00018481
9.07629e-05
0.000107727
0.000126717
0.000136745
0.000136241
0.00012673
0.000116159
0.000106778
9.87277e-05
9.18009e-05
8.58113e-05
8.05834e-05
7.59728e-05
7.18189e-05
6.78975e-05
6.3915e-05
6.01131e-05
5.36362e-05
5.36355e-05
6.36097e-05
7.12264e-05
7.96395e-05
0.000103835
0.000114013
0.000125438
0.000184808
0.00023658
0.000203221
0.000166498
9.07618e-05
0.000166497
8.88776e-05
0.000201125
0.000124972
0.000224911
)
;
    }
    ceiling
    {
        type            compressible::alphatWallFunction;
        Prt             0.85;
        value           nonuniform List<scalar> 
43
(
0.000366525
0.000378875
0.000389748
0.000433263
0.000409572
0.000368614
0.000331009
0.000303623
0.000278536
0.000253244
0.000229683
0.000210587
0.000197171
0.00018854
0.000182807
0.000178341
0.000173966
0.000168941
0.000162999
0.000156382
0.000149652
0.000143395
0.000138002
0.000133634
0.00013032
0.000128073
0.000126963
0.000127109
0.000128638
0.000131638
0.00013614
0.000142127
0.000149563
0.00015837
0.000168274
0.00017964
0.000183822
0.000178927
0.000167959
0.000157743
0.000469201
0.000552588
0.000348792
)
;
    }
    sWall
    {
        type            compressible::alphatWallFunction;
        Prt             0.85;
        value           uniform 0.000365284;
    }
    nWall
    {
        type            compressible::alphatWallFunction;
        Prt             0.85;
        value           nonuniform List<scalar> 6(0.000125238 0.000130233 0.000157363 0.000186135 0.00019047 0.000157427);
    }
    sideWalls
    {
        type            empty;
    }
    glass1
    {
        type            compressible::alphatWallFunction;
        Prt             0.85;
        value           nonuniform List<scalar> 9(0.000193603 0.000248616 0.000293051 0.000334667 0.000376784 0.000421887 0.000463443 0.000472439 0.000462144);
    }
    glass2
    {
        type            compressible::alphatWallFunction;
        Prt             0.85;
        value           nonuniform List<scalar> 2(0.000233522 0.000220977);
    }
    sun
    {
        type            compressible::alphatWallFunction;
        Prt             0.85;
        value           nonuniform List<scalar> 
14
(
0.000198459
0.000217928
0.000225235
0.000236542
0.000247156
0.00025757
0.000268574
0.000278284
0.000285511
0.000288917
0.000287204
0.000278954
0.000253571
0.000219365
)
;
    }
    Table_master
    {
        type            compressible::alphatWallFunction;
        Prt             0.85;
        value           nonuniform List<scalar> 9(0.000172103 0.000148413 0.000128611 0.000112513 9.94785e-05 8.88947e-05 8.02607e-05 7.33395e-05 6.82885e-05);
    }
    Table_slave
    {
        type            compressible::alphatWallFunction;
        Prt             0.85;
        value           nonuniform List<scalar> 9(0.000198054 0.000180181 0.000166684 0.000155672 0.000146253 0.000137638 0.000129125 0.00012016 0.000110001);
    }
    inlet
    {
        type            fixedValue;
        value           uniform 1.94e-05;
    }
    outlet
    {
        type            zeroGradient;
    }
}


// ************************************************************************* //
