/*--------------------------------*- C++ -*----------------------------------*\
  =========                 |
  \\      /  F ield         | OpenFOAM: The Open Source CFD Toolbox
   \\    /   O peration     | Website:  https://openfoam.org
    \\  /    A nd           | Version:  6
     \\/     M anipulation  |
\*---------------------------------------------------------------------------*/
FoamFile
{
    version     2.0;
    format      ascii;
    class       volScalarField;
    location    "150";
    object      epsilon;
}
// * * * * * * * * * * * * * * * * * * * * * * * * * * * * * * * * * * * * * //

dimensions      [0 2 -3 0 0 0 0];

internalField   nonuniform List<scalar> 
458
(
0.000627443
0.00083936
0.00093107
0.00108671
0.00124864
0.00142333
0.00162587
0.00182065
0.00197577
0.00205189
0.00201319
0.00183437
0.00135425
0.000856792
0.000501449
5.99057e-05
9.82959e-05
0.000158936
0.000199814
0.000197628
0.000159033
0.00012274
9.58156e-05
7.62909e-05
6.18999e-05
5.11032e-05
4.28326e-05
3.6367e-05
3.11629e-05
2.67562e-05
2.27524e-05
1.93455e-05
1.43987e-05
0.00137117
0.00184329
0.000779865
0.000778148
0.000821604
0.000900928
0.00102975
0.0011874
0.00133272
0.00141464
0.00139759
0.00128143
0.00105569
0.000834219
0.000644849
0.00108762
0.000674334
0.000363284
5.64389e-05
0.00010198
0.000152159
0.000168173
0.000170444
0.000176698
0.000135915
0.000100605
7.5067e-05
5.69668e-05
4.40963e-05
3.48014e-05
2.79437e-05
2.28153e-05
1.94889e-05
1.78005e-05
2.82789e-05
2.24756e-05
0.00230793
0.00400864
0.000847274
0.000696656
0.00073632
0.000839995
0.00100353
0.0011998
0.00136968
0.00146564
0.00146302
0.00135824
0.00115767
0.000944457
0.000748209
0.000633112
0.000554631
0.000653006
0.000152493
0.000195142
0.00020738
0.0002042
0.000203897
0.000402452
0.000255509
0.000165747
0.000111372
7.77189e-05
5.62731e-05
4.21903e-05
3.28659e-05
2.7058e-05
2.0728e-05
1.76592e-05
4.49621e-05
3.04929e-05
0.00352569
0.00797638
0.00117839
0.000662233
0.000683368
0.000818441
0.00105111
0.00130034
0.00148353
0.00158217
0.00158303
0.00146383
0.00125748
0.00102057
0.000802892
0.000643414
0.00055112
0.000559801
0.000927702
0.000587848
0.000412901
0.0003246
0.000274535
0.000256551
0.000623203
0.000464418
0.000365186
0.000296127
0.000244841
0.000203724
0.000168128
0.000135636
0.000104475
5.8069e-05
3.34041e-05
7.29485e-05
4.15e-05
0.00515736
0.0141842
0.00216727
0.000730862
0.000668878
0.000858905
0.00126518
0.00156346
0.00173332
0.00181605
0.00179328
0.00164026
0.00137765
0.00107688
0.00081565
0.000630154
0.000517282
0.000486618
0.000522979
0.000461577
0.000404694
0.000358036
0.000312961
0.000269952
0.00025418
0.000227881
0.000204833
0.000183453
0.000162637
0.000141692
0.000120586
9.99792e-05
8.0603e-05
5.88718e-05
4.07607e-05
5.67803e-05
7.14936e-05
8.85748e-05
0.000116649
0.0001549
0.00742427
0.0213876
0.0048417
0.0012992
0.000934147
0.00129
0.00183659
0.00206658
0.00216166
0.00219504
0.00212653
0.00190236
0.00154139
0.00114146
0.000809098
0.000588362
0.000473876
0.000447014
0.000462172
0.000459369
0.000436185
0.000394162
0.000339337
0.000281445
0.00023575
0.00020579
0.000185519
0.00016781
0.000149794
0.000130854
0.000111475
9.27138e-05
7.57668e-05
6.03785e-05
4.89499e-05
5.03705e-05
6.60277e-05
8.06723e-05
0.000171022
0.00017406
0.0100602
0.0258754
0.00994668
0.00413866
0.00286298
0.00299519
0.00300698
0.00290514
0.00282641
0.00276063
0.00259754
0.00224941
0.00174204
0.00120828
0.00079261
0.000544392
0.000442707
0.000437495
0.000464067
0.000470614
0.000443211
0.00039101
0.000327954
0.000266982
0.000220541
0.000192578
0.000175886
0.000163122
0.000151186
0.000138949
0.000126177
0.000113226
0.000101166
9.0603e-05
8.52665e-05
8.96439e-05
0.00011243
0.000157967
0.000285731
0.000308772
0.0107181
0.0279004
0.0157666
0.0104054
0.00771465
0.0059162
0.00471219
0.00404283
0.00372893
0.00352939
0.00320694
0.00264856
0.00191817
0.00120652
0.000718634
0.00047745
0.000419617
0.00042862
0.000446287
0.000436059
0.000395829
0.000338558
0.0002795
0.000230004
0.000196222
0.000177501
0.000168566
0.000165479
0.000167145
0.000173704
0.000184449
0.000197826
0.000215455
0.000244719
0.000296494
0.000422422
0.000689819
0.00112657
0.00330841
0.00107515
0.00999947
0.0170031
0.0129326
0.00979717
0.00758566
0.00609448
0.00525829
0.00490844
0.00475594
0.00448586
0.00386698
0.00291176
0.0018336
0.000928475
0.00055593
0.000423421
0.000389522
0.000386817
0.000380406
0.000354138
0.000311774
0.000264502
0.000221721
0.000188987
0.000168211
0.000157988
0.000155784
0.000160432
0.000172611
0.000194298
0.000228462
0.000278969
0.000350765
0.000454645
0.000601238
0.000795914
0.00102219
0.00123925
0.00142786
0.000904265
0.00266238
0.00383782
0.0050363
0.00603566
0.00664563
0.00675858
0.00628409
0.00523001
0.00360504
0.00190373
0.00100281
0.000584311
0.000423699
0.00036218
0.000338418
0.000323066
0.000301518
0.000270379
0.000234761
0.000201419
0.000174461
0.000154991
0.000142269
0.000135034
0.000132733
0.000135894
0.000145811
0.000164355
0.000194148
0.000238878
0.000303437
0.000393382
0.000511361
0.000648215
0.000771891
0.000836695
0.000817219
0.000520198
0.00358394
0.0135736
0.0137084
0.0114144
0.00879111
0.00649478
0.00444484
0.00279527
0.001625
0.000932076
0.000588697
0.000430865
0.000362452
0.000330343
0.000311958
0.00029683
0.000280607
0.000262882
0.000245388
0.000229736
0.000216536
0.0002057
0.000196958
0.000190186
0.000185606
0.000183953
0.000186532
0.00019528
0.000212868
0.000242864
0.0002897
0.000357655
0.000447387
0.000551353
0.000633172
0.00072214
0.000728769
0.000558747
0.00429416
0.0047777
0.00523537
0.00746901
0.00627712
0.00449017
0.00318507
0.00241866
0.00183812
0.00135882
0.000998074
0.000759769
0.000618428
0.000537976
0.000488816
0.000452782
0.000419327
0.00038308
0.000343117
0.000302159
0.000264159
0.000231964
0.00020652
0.000187407
0.000173758
0.000164908
0.000160648
0.000161189
0.000167056
0.000179019
0.000198091
0.000225627
0.000263466
0.000313824
0.000378174
0.000462901
0.000497226
0.000457322
0.000376127
0.000310292
)
;

boundaryField
{
    floor
    {
        Cmu             0.09;
        kappa           0.41;
        E               9.8;
        type            epsilonWallFunction;
        value           nonuniform List<scalar> 
36
(
0.000501449
5.99057e-05
9.82959e-05
0.000158936
0.000199814
0.000197628
0.000159033
0.00012274
9.58156e-05
7.62909e-05
6.18999e-05
5.11032e-05
4.28326e-05
3.6367e-05
3.11629e-05
2.67562e-05
2.27524e-05
1.93455e-05
1.43987e-05
1.43987e-05
2.24756e-05
3.04929e-05
4.15e-05
8.85748e-05
0.000116649
0.0001549
0.000501449
0.00108762
0.000674334
0.000363284
5.99057e-05
0.000363284
5.64389e-05
0.000653006
0.000152493
0.000927702
)
;
    }
    ceiling
    {
        Cmu             0.09;
        kappa           0.41;
        E               9.8;
        type            epsilonWallFunction;
        value           nonuniform List<scalar> 
43
(
0.00429416
0.0047777
0.00523537
0.00746901
0.00627712
0.00449017
0.00318507
0.00241866
0.00183812
0.00135882
0.000998074
0.000759769
0.000618428
0.000537976
0.000488816
0.000452782
0.000419327
0.00038308
0.000343117
0.000302159
0.000264159
0.000231964
0.00020652
0.000187407
0.000173758
0.000164908
0.000160648
0.000161189
0.000167056
0.000179019
0.000198091
0.000225627
0.000263466
0.000313824
0.000378174
0.000462901
0.000497226
0.000457322
0.000376127
0.000310292
0.00999947
0.0170031
0.00358394
)
;
    }
    sWall
    {
        Cmu             0.09;
        kappa           0.41;
        E               9.8;
        type            epsilonWallFunction;
        value           uniform 0.00429416;
    }
    nWall
    {
        Cmu             0.09;
        kappa           0.41;
        E               9.8;
        type            epsilonWallFunction;
        value           nonuniform List<scalar> 6(0.0001549 0.00017406 0.000308772 0.000520198 0.000558747 0.000310292);
    }
    sideWalls
    {
        type            empty;
    }
    glass1
    {
        Cmu             0.09;
        kappa           0.41;
        E               9.8;
        type            epsilonWallFunction;
        value           nonuniform List<scalar> 9(0.000627443 0.00137117 0.00230793 0.00352569 0.00515736 0.00742427 0.0100602 0.0107181 0.00999947);
    }
    glass2
    {
        Cmu             0.09;
        kappa           0.41;
        E               9.8;
        type            epsilonWallFunction;
        value           nonuniform List<scalar> 2(0.00107515 0.000904265);
    }
    sun
    {
        Cmu             0.09;
        kappa           0.41;
        E               9.8;
        type            epsilonWallFunction;
        value           nonuniform List<scalar> 
14
(
0.000627443
0.00083936
0.00093107
0.00108671
0.00124864
0.00142333
0.00162587
0.00182065
0.00197577
0.00205189
0.00201319
0.00183437
0.00135425
0.000856792
)
;
    }
    Table_master
    {
        Cmu             0.09;
        kappa           0.41;
        E               9.8;
        type            epsilonWallFunction;
        value           nonuniform List<scalar> 9(0.000402452 0.000255509 0.000165747 0.000111372 7.77189e-05 5.62731e-05 4.21903e-05 3.28659e-05 2.7058e-05);
    }
    Table_slave
    {
        Cmu             0.09;
        kappa           0.41;
        E               9.8;
        type            epsilonWallFunction;
        value           nonuniform List<scalar> 9(0.000623203 0.000464418 0.000365186 0.000296127 0.000244841 0.000203724 0.000168128 0.000135636 0.000104475);
    }
    inlet
    {
        type            turbulentMixingLengthDissipationRateInlet;
        mixingLength    0.01;
        phi             phi;
        k               k;
        value           uniform 0.000471672;
    }
    outlet
    {
        type            zeroGradient;
    }
}


// ************************************************************************* //
