/*--------------------------------*- C++ -*----------------------------------*\
  =========                 |
  \\      /  F ield         | OpenFOAM: The Open Source CFD Toolbox
   \\    /   O peration     | Website:  https://openfoam.org
    \\  /    A nd           | Version:  6
     \\/     M anipulation  |
\*---------------------------------------------------------------------------*/
FoamFile
{
    version     2.0;
    format      ascii;
    class       volScalarField;
    location    "150";
    object      k;
}
// * * * * * * * * * * * * * * * * * * * * * * * * * * * * * * * * * * * * * //

dimensions      [0 2 -2 0 0 0 0];

internalField   nonuniform List<scalar> 
458
(
0.00290476
0.00352662
0.00377903
0.00418922
0.00459568
0.0050149
0.00548001
0.00590937
0.00624044
0.00639972
0.006319
0.00593905
0.00485139
0.00357532
0.00250156
0.00060679
0.000844146
0.0011629
0.00135459
0.00134469
0.00116336
0.000978849
0.000829882
0.000712921
0.000620183
0.00054579
0.000485187
0.000435042
0.00039248
0.000354547
0.00031823
0.000285611
0.000234568
0.00489167
0.00887849
0.00566864
0.00609355
0.00669396
0.00742127
0.00825161
0.00918084
0.0100447
0.0106257
0.0107554
0.0103813
0.00934176
0.00795227
0.00579884
0.00419159
0.00304773
0.00201786
0.000583145
0.0012601
0.00193181
0.00229632
0.00237136
0.00199386
0.00158632
0.00126552
0.00102735
0.000849587
0.000715092
0.000611653
0.000528773
0.000458271
0.00040511
0.000371119
0.000488256
0.000315646
0.00692172
0.0152476
0.00659498
0.00649561
0.00694645
0.00762121
0.00849534
0.00950184
0.0104342
0.0111333
0.0114708
0.0113478
0.0106098
0.00946922
0.00801559
0.00644365
0.00514077
0.00298313
0.0011313
0.00181755
0.0023828
0.00276713
0.00284396
0.00216039
0.00159586
0.00119589
0.000917438
0.000721792
0.000582007
0.000480326
0.000406653
0.00035721
0.000333687
0.000336631
0.000666725
0.000386836
0.00918113
0.0239794
0.00780229
0.00644597
0.00666614
0.00730936
0.00833553
0.00941969
0.0103415
0.0111057
0.0115947
0.0115886
0.0109793
0.00993723
0.00867446
0.00740637
0.00620117
0.00454864
0.00376995
0.00329696
0.00335034
0.00358801
0.00374852
0.00365683
0.00289162
0.0023768
0.00202486
0.00176078
0.00155111
0.00137219
0.00120729
0.00104625
0.000879146
0.000625142
0.00047165
0.00091024
0.000475075
0.0118309
0.0357986
0.0108919
0.00668523
0.00652645
0.00730725
0.00884037
0.00994816
0.0107739
0.0115523
0.0120631
0.0120147
0.0112826
0.0100575
0.0087122
0.00752032
0.00650381
0.00566456
0.00546998
0.005294
0.00522445
0.00517229
0.00499509
0.00462845
0.00411275
0.00367165
0.0033357
0.00304318
0.00274372
0.00241965
0.00207196
0.00170933
0.00134688
0.000983089
0.000704119
0.000827428
0.000796981
0.000787551
0.00094623
0.00114316
0.0150836
0.0487093
0.0187019
0.0088797
0.0077214
0.00900181
0.0106436
0.011355
0.0119188
0.0125913
0.0130687
0.012888
0.0118638
0.0102649
0.00861755
0.00732345
0.00653867
0.00626087
0.00641544
0.00659608
0.00658368
0.00633411
0.00586617
0.00525047
0.00463449
0.00416785
0.00381439
0.00349136
0.00315459
0.00279447
0.00241357
0.00202303
0.00164052
0.00127979
0.000999601
0.000892633
0.000900876
0.000908358
0.00148046
0.00123558
0.0184702
0.0569417
0.0314399
0.0176539
0.0142708
0.0143391
0.0139642
0.0135947
0.0137384
0.0142886
0.0146571
0.0142112
0.0127429
0.0106395
0.00863182
0.00726759
0.00672474
0.0068335
0.00720744
0.00740872
0.00722669
0.00673675
0.0060573
0.00531664
0.00466565
0.00419714
0.00385445
0.00355692
0.00326779
0.00297706
0.00267976
0.00237683
0.00207534
0.00178254
0.00155693
0.00143372
0.00146096
0.00163795
0.00212593
0.00181063
0.019267
0.0555174
0.0393044
0.0303261
0.025009
0.0205678
0.0174656
0.0160748
0.0160686
0.0166527
0.0168302
0.0158599
0.0136571
0.0108566
0.00852191
0.00723382
0.00696098
0.00716267
0.00740804
0.00735979
0.00695324
0.00629709
0.00554624
0.00483721
0.00426885
0.00386459
0.00357451
0.0033521
0.00318424
0.00307678
0.00303026
0.00302476
0.00302674
0.00306002
0.00320896
0.0037227
0.00476761
0.00617173
0.0113401
0.00415962
0.0183959
0.0262073
0.0239168
0.0211472
0.0186193
0.0169234
0.0165393
0.0174267
0.0188873
0.0198754
0.0194248
0.0171706
0.0135843
0.00983667
0.00782339
0.00699329
0.00679702
0.0068157
0.00675565
0.00645017
0.0059147
0.00525918
0.00459688
0.00401159
0.00354957
0.00320993
0.00296409
0.00279196
0.00269286
0.00267577
0.00274914
0.00291539
0.0031746
0.00353581
0.00400413
0.00455604
0.00507836
0.00543529
0.00563402
0.00370628
0.00563156
0.00917376
0.0135044
0.0179962
0.0219041
0.0244953
0.0251302
0.0235382
0.0195294
0.0139886
0.0100226
0.00773096
0.00667539
0.00621437
0.00600771
0.00583267
0.00554721
0.00510657
0.00456072
0.00399496
0.00347745
0.00304255
0.00269593
0.00242846
0.00223382
0.00211487
0.00207722
0.0021241
0.00225625
0.00247431
0.00277909
0.00316643
0.00361251
0.00404499
0.00432617
0.00433448
0.00405141
0.0025636
0.0092817
0.0289417
0.0353055
0.0348494
0.0311209
0.0265931
0.0214509
0.0163263
0.0119066
0.0087339
0.00682191
0.00578321
0.00526245
0.0049847
0.00479747
0.00460742
0.00436512
0.00406424
0.00373178
0.00340383
0.00310734
0.0028548
0.00264751
0.00248202
0.00235563
0.00226898
0.00222646
0.00223618
0.00230959
0.00246008
0.00269929
0.00302826
0.00342092
0.00381605
0.0040486
0.00430254
0.00434727
0.00268872
0.0104707
0.0112426
0.0119496
0.0151437
0.0134865
0.010787
0.00857969
0.00714121
0.00594708
0.00486215
0.00395814
0.00329989
0.00287674
0.00262148
0.00245923
0.00233683
0.00222024
0.00209037
0.00194233
0.0017845
0.00163156
0.00149614
0.00138463
0.00129783
0.00123404
0.00119178
0.00117118
0.00117383
0.00120216
0.0012589
0.00134681
0.00146891
0.00162888
0.00183034
0.0020727
0.00237175
0.0024876
0.00235267
0.00206523
0.00181658
)
;

boundaryField
{
    floor
    {
        type            kqRWallFunction;
        value           nonuniform List<scalar> 
36
(
0.00250156
0.00060679
0.000844146
0.0011629
0.00135459
0.00134469
0.00116336
0.000978849
0.000829882
0.000712921
0.000620183
0.00054579
0.000485187
0.000435042
0.00039248
0.000354547
0.00031823
0.000285611
0.000234568
0.000234568
0.000315646
0.000386836
0.000475075
0.000787551
0.00094623
0.00114316
0.00250156
0.00419159
0.00304773
0.00201786
0.00060679
0.00201786
0.000583145
0.00298313
0.0011313
0.00376995
)
;
    }
    ceiling
    {
        type            kqRWallFunction;
        value           nonuniform List<scalar> 
43
(
0.0104707
0.0112426
0.0119496
0.0151437
0.0134865
0.010787
0.00857969
0.00714121
0.00594708
0.00486215
0.00395814
0.00329989
0.00287674
0.00262148
0.00245923
0.00233683
0.00222024
0.00209037
0.00194233
0.0017845
0.00163156
0.00149614
0.00138463
0.00129783
0.00123404
0.00119178
0.00117118
0.00117383
0.00120216
0.0012589
0.00134681
0.00146891
0.00162888
0.00183034
0.0020727
0.00237175
0.0024876
0.00235267
0.00206523
0.00181658
0.0183959
0.0262073
0.0092817
)
;
    }
    sWall
    {
        type            kqRWallFunction;
        value           uniform 0.0104707;
    }
    nWall
    {
        type            kqRWallFunction;
        value           nonuniform List<scalar> 6(0.00114316 0.00123558 0.00181063 0.0025636 0.00268872 0.00181658);
    }
    sideWalls
    {
        type            empty;
    }
    glass1
    {
        type            kqRWallFunction;
        value           nonuniform List<scalar> 9(0.00290476 0.00489167 0.00692172 0.00918113 0.0118309 0.0150836 0.0184702 0.019267 0.0183959);
    }
    glass2
    {
        type            kqRWallFunction;
        value           nonuniform List<scalar> 2(0.00415962 0.00370628);
    }
    sun
    {
        type            kqRWallFunction;
        value           nonuniform List<scalar> 
14
(
0.00290476
0.00352662
0.00377903
0.00418922
0.00459568
0.0050149
0.00548001
0.00590937
0.00624044
0.00639972
0.006319
0.00593905
0.00485139
0.00357532
)
;
    }
    Table_master
    {
        type            kqRWallFunction;
        value           nonuniform List<scalar> 9(0.00216039 0.00159586 0.00119589 0.000917438 0.000721792 0.000582007 0.000480326 0.000406653 0.00035721);
    }
    Table_slave
    {
        type            kqRWallFunction;
        value           nonuniform List<scalar> 9(0.00289162 0.0023768 0.00202486 0.00176078 0.00155111 0.00137219 0.00120729 0.00104625 0.000879146);
    }
    inlet
    {
        type            turbulentIntensityKineticEnergyInlet;
        intensity       0.05;
        value           uniform 0.000937501;
    }
    outlet
    {
        type            zeroGradient;
    }
}


// ************************************************************************* //
