/*--------------------------------*- C++ -*----------------------------------*\
  =========                 |
  \\      /  F ield         | OpenFOAM: The Open Source CFD Toolbox
   \\    /   O peration     | Website:  https://openfoam.org
    \\  /    A nd           | Version:  6
     \\/     M anipulation  |
\*---------------------------------------------------------------------------*/
FoamFile
{
    version     2.0;
    format      ascii;
    class       volScalarField;
    location    "3900";
    object      k;
}
// * * * * * * * * * * * * * * * * * * * * * * * * * * * * * * * * * * * * * //

dimensions      [0 2 -2 0 0 0 0];

internalField   nonuniform List<scalar> 
778
(
0.00139617
0.00156496
0.00301283
0.00155958
0.0055804
0.00489392
0.00169233
0.00216901
0.0112078
0.00719714
0.00181532
0.00220435
0.00274983
0.0195536
0.00996343
0.00192822
0.00228434
0.00255034
0.00355348
0.0310712
0.0131732
0.00203399
0.0023847
0.00259168
0.00268675
0.00502168
0.0450433
0.0169451
0.00213632
0.00249752
0.00269369
0.00263333
0.00270343
0.00781605
0.0583549
0.0207256
0.00223949
0.00262515
0.0028143
0.00269664
0.00248744
0.00274549
0.0127124
0.0685518
0.0220529
0.00234906
0.00277037
0.0029506
0.00276472
0.00248937
0.00228673
0.00301505
0.0198729
0.0688427
0.0213651
0.00246209
0.0029349
0.00310241
0.00282997
0.00249054
0.00222202
0.00212969
0.00415008
0.0313114
0.0513883
0.0189512
0.00257747
0.003121
0.00326848
0.0028991
0.00247882
0.00216442
0.0019931
0.00214322
0.00983576
0.0329744
0.0392859
0.0158466
0.00270213
0.00331963
0.00345869
0.00298811
0.00247058
0.00209032
0.00189456
0.00186688
0.00329242
0.0165098
0.0298367
0.0313877
0.0132059
0.00284911
0.00351176
0.00370161
0.00312454
0.00249881
0.00202516
0.0017846
0.00173893
0.00204401
0.00775685
0.0189692
0.026356
0.0253607
0.0132006
0.00301772
0.00364915
0.0040119
0.00335141
0.00260612
0.00202475
0.00169537
0.00162231
0.00176304
0.00409952
0.0115481
0.0191507
0.0230714
0.0221358
0.0107854
0.00366706
0.00440852
0.00369297
0.00282853
0.00215195
0.00171361
0.00155306
0.00164093
0.002709
0.00734067
0.013546
0.0184099
0.0218342
0.0116361
0.00360812
0.00488983
0.00416637
0.00318219
0.00241168
0.00191323
0.00166167
0.00166671
0.00220987
0.00515608
0.00984444
0.0142936
0.0175462
0.0122126
0.00343249
0.0052388
0.00474895
0.00367933
0.002791
0.00224987
0.0019722
0.00192456
0.00227268
0.00411982
0.00758563
0.0112873
0.0141675
0.0117237
0.0196546
0.00330962
0.0049981
0.00530118
0.00431039
0.00329595
0.00267022
0.00237992
0.0023135
0.00259244
0.00381285
0.00630092
0.00923108
0.0116503
0.0105972
0.00550447
0.0145761
0.0046866
0.00561976
0.00500142
0.00393728
0.00318723
0.00282762
0.00273616
0.00296149
0.00381517
0.00559711
0.00787455
0.00981099
0.00932593
0.00301995
0.0057052
0.0106116
0.00593003
0.00568685
0.00467111
0.00384091
0.00334313
0.00317378
0.00331522
0.00391574
0.00517433
0.00688799
0.00842192
0.00812188
0.00258042
0.00294561
0.00569645
0.017284
0.0126408
0.0050272
0.00649819
0.00544051
0.00459592
0.0039887
0.00369156
0.00369803
0.00407023
0.00491433
0.00612
0.00719669
0.00687349
0.00221676
0.00257431
0.00789752
0.014243
0.0116479
0.0133652
0.00674683
0.00553766
0.00696643
0.00616782
0.00536912
0.00476277
0.00436674
0.00422166
0.0043697
0.00486283
0.00562518
0.00628085
0.00587418
0.00233854
0.00458
0.0135094
0.0154777
0.00711065
0.0111041
0.00730075
0.00405084
0.00538099
0.0062391
0.00649518
0.00601589
0.00555272
0.00518502
0.00496175
0.00494128
0.00516629
0.00559356
0.00597026
0.00569051
0.00390958
0.00931441
0.017695
0.017106
0.00752372
0.0106751
0.00275473
0.00429164
0.00517163
0.00583535
0.00622973
0.00632308
0.00617517
0.00600103
0.00585673
0.005808
0.00591265
0.00617825
0.00649692
0.00663776
0.00683666
0.0143281
0.0200018
0.0174718
0.00742782
0.00152914
0.00298563
0.00433683
0.00484515
0.00545482
0.00586557
0.00621012
0.00645021
0.00659843
0.00670056
0.00680962
0.00699474
0.0073142
0.00780384
0.00855969
0.0103999
0.0177465
0.0205737
0.0167619
0.00685833
0.00162357
0.00313205
0.00412258
0.00440275
0.00503359
0.00541976
0.00584291
0.00632203
0.00679923
0.00723692
0.0076505
0.00809725
0.00866722
0.00948657
0.0108389
0.0135746
0.0191868
0.0199327
0.0154685
0.00608432
0.00164651
0.00304842
0.0036979
0.00347987
0.00459094
0.00492853
0.00532549
0.00588107
0.00655855
0.00728915
0.00803681
0.00882692
0.00973997
0.010932
0.0126737
0.0154617
0.0188933
0.0184107
0.0139531
0.0053215
0.00159584
0.00279308
0.00274565
0.0028823
0.00408649
0.00444439
0.00475503
0.0052576
0.00596933
0.00683974
0.00781737
0.00888734
0.0100981
0.0115508
0.0134202
0.0156558
0.016935
0.0161304
0.0123686
0.00465515
0.00149072
0.00237837
0.00206969
0.00246398
0.00362805
0.00399184
0.0042143
0.00458562
0.00519133
0.00602165
0.0070365
0.00821011
0.00953669
0.0110536
0.0127254
0.0142622
0.0139059
0.0132971
0.0107775
0.00408632
0.00134008
0.00200859
0.00161632
0.00214032
0.00323867
0.00360015
0.00375015
0.00397088
0.00439042
0.00503859
0.00590338
0.00695194
0.00816898
0.00948136
0.0107749
0.011355
0.0105972
0.0103739
0.00926219
0.00360469
0.00119255
0.00170452
0.00130236
0.00188316
0.00290774
0.00327215
0.00337738
0.00347047
0.00369009
0.0040915
0.00468019
0.00544329
0.0063173
0.00726622
0.0079426
0.00806788
0.00754705
0.00783726
0.0079563
0.00321406
0.00106203
0.00145772
0.0010779
0.00166678
0.00260993
0.00299347
0.0030855
0.00309457
0.00314999
0.0033149
0.00360765
0.00400638
0.00450168
0.00489632
0.00525671
0.00542404
0.00529499
0.00599611
0.00697213
0.00292284
0.000949621
0.00125584
0.000912874
0.00147499
0.00233607
0.00274029
0.00285014
0.00282244
0.00277113
0.00275966
0.00281121
0.00292709
0.00303413
0.00324712
0.00347926
0.00370853
0.00394748
0.00489433
0.00629777
0.00272791
0.000854098
0.00108943
0.000788903
0.00129598
0.00207826
0.00250144
0.00264525
0.00261909
0.00251961
0.00240435
0.00230886
0.00224261
0.00224225
0.00232374
0.00251168
0.00280563
0.00326536
0.00432355
0.00579815
0.00261287
0.000772312
0.000950418
0.00069533
0.00111528
0.00182897
0.00226705
0.0024528
0.00245488
0.00234897
0.00219338
0.00202855
0.00189348
0.00183501
0.00186872
0.00203544
0.00237456
0.00294221
0.00401921
0.005408
0.00256649
0.00070161
0.000831889
0.000627633
0.000836104
0.00157682
0.00202874
0.00225906
0.00230549
0.00222464
0.00206838
0.00188442
0.00172555
0.00163509
0.00164063
0.00179399
0.00215343
0.00276742
0.00382328
0.00509387
0.00255471
0.000639571
0.000731456
0.000577973
0.000693203
0.00125203
0.00177733
0.00205437
0.00215372
0.00211636
0.0019878
0.00181362
0.00164702
0.00153749
0.00151856
0.00164966
0.0020103
0.00264564
0.00367554
0.00484458
0.00256979
0.000583748
0.000659842
0.000580008
0.0014635
0.000961769
0.00148742
0.00183136
0.00198882
0.00200475
0.00191833
0.00177285
0.00161431
0.00149101
0.00144786
0.0015471
0.00189237
0.0025426
0.00356163
0.00466744
0.00261445
0.000531443
0.000616528
0.00120466
0.000854121
0.00123138
0.00119866
0.00158289
0.00180441
0.00187898
0.00184172
0.00173373
0.00159621
0.00147138
0.00140553
0.00146677
0.00178176
0.00244569
0.00347889
0.00457423
0.00269151
0.000478964
0.000900904
0.000706632
0.00124428
0.00114286
0.0013331
0.00159894
0.00173372
0.00174901
0.00168248
0.00157395
0.00145876
0.00138076
0.00140376
0.00167502
0.00234868
0.00342196
0.00457102
0.00279986
0.000435051
0.0005522
0.00119655
0.00113857
0.00117443
0.00138971
0.00156935
0.00163674
0.00161269
0.00153746
0.00144094
0.00136154
0.00135801
0.00157763
0.00224967
0.00337972
0.00465284
0.00293351
0.000355704
0.00203625
0.00172326
0.00111039
0.00122858
0.00139957
0.00150695
0.00152289
0.0014814
0.00141036
0.00133953
0.00132316
0.0015021
0.00215434
0.00333912
0.00480142
0.00308324
0.00188013
0.00509566
0.00156883
0.00115666
0.00127417
0.00137315
0.00141821
0.00140522
0.00136264
0.0013095
0.00129286
0.00145471
0.00207941
0.00329465
0.00498601
0.00323966
0.00268941
0.0062408
0.00206804
0.00131796
0.00129571
0.00131962
0.00131881
0.00129886
0.00126938
0.00126639
0.00143468
0.00204688
0.00326002
0.00516747
0.00339597
0.00371375
0.0139283
0.0037732
0.0016588
0.00135535
0.00126874
0.00123592
0.00122335
0.00124947
0.00145347
0.00207086
0.00326182
0.00530583
0.00355008
0.00629028
0.0269898
0.00777755
0.00263441
0.00161716
0.00125752
0.00119429
0.00125622
0.00153131
0.00217717
0.00333178
0.00541121
0.0037059
0.00815465
0.0255228
0.00941288
0.00400965
0.00185381
0.00127438
0.0013158
0.00168993
0.00239605
0.00350047
0.0055438
0.00386636
0.00851254
0.022072
0.0100486
0.00456627
0.00186119
0.00150387
0.00195117
0.0027535
0.00380097
0.00575032
0.00403929
0.00839585
0.0183828
0.0101064
0.00420699
0.00207341
0.00236693
0.00327166
0.00426577
0.00606612
0.0042389
0.00791912
0.0165973
0.00929241
0.00390839
0.00311502
0.00399719
0.00492516
0.00652246
0.00447701
0.0075033
0.017193
0.00930055
0.00478802
0.00507352
0.00581577
0.00715546
0.00476176
0.00786469
0.0151055
0.0105124
0.00690845
0.00700656
0.00802022
0.00509661
0.00877094
0.0141837
0.0113679
0.0086492
0.00920155
0.00547703
0.00901929
0.0159875
0.0110153
0.0108164
0.0058858
0.00897583
0.0138437
0.0131433
0.00631275
0.00819461
0.0150363
0.00687829
0.00811304
0.00784791
0.00769083
)
;

boundaryField
{
    floor
    {
        type            kqRWallFunction;
        value           nonuniform List<scalar> 
36
(
0.00301772
0.00152914
0.00162357
0.00164651
0.00159584
0.00149072
0.00134008
0.00119255
0.00106203
0.000949621
0.000854098
0.000772312
0.00070161
0.000639571
0.000583748
0.000531443
0.000478964
0.000435051
0.000355704
0.000355704
0.0005522
0.000706632
0.000854121
0.00119655
0.00203625
0.00188013
0.00301772
0.00360812
0.00343249
0.00330962
0.00152914
0.00330962
0.00275473
0.0046866
0.00405084
0.0050272
)
;
    }
    ceiling
    {
        type            kqRWallFunction;
        value           nonuniform List<scalar> 
43
(
0.0106751
0.00730075
0.00674683
0.00711065
0.00752372
0.00742782
0.00685833
0.00608432
0.0053215
0.00465515
0.00408632
0.00360469
0.00321406
0.00292284
0.00272791
0.00261287
0.00256649
0.00255471
0.00256979
0.00261445
0.00269151
0.00279986
0.00293351
0.00308324
0.00323966
0.00339597
0.00355008
0.0037059
0.00386636
0.00403929
0.0042389
0.00447701
0.00476176
0.00509661
0.00547703
0.0058858
0.00631275
0.00687829
0.00784791
0.00769083
0.0107854
0.0116361
0.0145761
)
;
    }
    sWall
    {
        type            kqRWallFunction;
        value           nonuniform List<scalar> 9(0.0213651 0.0189512 0.0158466 0.0132059 0.0132006 0.0107854 0.0116479 0.0111041 0.0106751);
    }
    nWall
    {
        type            kqRWallFunction;
        value           nonuniform List<scalar> 
14
(
0.00188013
0.00268941
0.00371375
0.00851254
0.00839585
0.00791912
0.0075033
0.00786469
0.00877094
0.00901929
0.00897583
0.00819461
0.00811304
0.00769083
)
;
    }
    sideWalls
    {
        type            empty;
    }
    glass1
    {
        type            kqRWallFunction;
        value           nonuniform List<scalar> 9(0.00139617 0.00301283 0.00489392 0.00719714 0.00996343 0.0131732 0.0169451 0.0207256 0.0220529);
    }
    glass2
    {
        type            kqRWallFunction;
        value           nonuniform List<scalar> 2(0.00629028 0.00815465);
    }
    sun
    {
        type            kqRWallFunction;
        value           nonuniform List<scalar> 
14
(
0.00139617
0.00156496
0.00155958
0.00169233
0.00181532
0.00192822
0.00203399
0.00213632
0.00223949
0.00234906
0.00246209
0.00257747
0.00270213
0.00284911
)
;
    }
    Table_master
    {
        type            kqRWallFunction;
        value           nonuniform List<scalar> 9(0.00274565 0.00206969 0.00161632 0.00130236 0.0010779 0.000912874 0.000788903 0.00069533 0.000627633);
    }
    Table_slave
    {
        type            kqRWallFunction;
        value           nonuniform List<scalar> 9(0.00347987 0.0028823 0.00246398 0.00214032 0.00188316 0.00166678 0.00147499 0.00129598 0.00111528);
    }
    inlet
    {
        type            turbulentIntensityKineticEnergyInlet;
        intensity       0.5;
        value           uniform 0.09375;
    }
    outlet
    {
        type            zeroGradient;
    }
}


// ************************************************************************* //
